<event>
 8    1  0.1097777E+005  0.1043930E+01  0.7957747E-01            NaN
         13   -1    0    0    0    0  0.00000000000E+00  0.00000000000E+00  0.74505805969E-08  0.10566000000E+00  0.10566000000E+00 0. -1.
     999900   -1    0    0    0    0 -0.00000000000E+00 -0.00000000000E+00 -0.74505805969E-08  0.93827000000E+00  0.93827000000E+00 0. -1.
     999902    2    1    2    0    0  0.15509200914E-01 -0.78804761363E-02  0.15983634404E-01  0.10203055680E+01  0.10200320281E+01 0.  0.
     999903    2    3    3    0    0  0.26166881936E-01  0.11166417589E+00 -0.56067573151E-01  0.12924109982E+00  0.20151804808E-01 0.  0.
         14    1    1    2    0    0 -0.15509200914E-01  0.78804761363E-02 -0.15983634404E-01  0.23624431969E-01  0.00000000000E+00 0.  1.
     999901    1    3    3    0    0 -0.10657681022E-01 -0.11954465203E+00  0.72051207554E-01  0.89106446821E+00  0.88000000000E+00 0.  1.
        -11    1    4    4    0    0  0.24129800479E-02  0.31993232789E-01 -0.74883803207E-02  0.32950362332E-01  0.51100000000E-03 0.  1.
         11    1    4    4    0    0  0.23753901888E-01  0.79670943101E-01 -0.48579192830E-01  0.96290737491E-01  0.51100000000E-03 0. -1.
</event>
<event>
 8    1  0.1097777E+005  0.1043930E+01  0.7957747E-01            NaN
         13   -1    0    0    0    0  0.00000000000E+00  0.00000000000E+00  0.74505805969E-08  0.10566000000E+00  0.10566000000E+00 0. -1.
     999900   -1    0    0    0    0 -0.00000000000E+00 -0.00000000000E+00 -0.74505805969E-08  0.93827000000E+00  0.93827000000E+00 0. -1.
     999902    2    1    2    0    0 -0.56191375113E-02  0.10098770534E-01 -0.20721763897E-01  0.10202034037E+01  0.10199274649E+01 0.  0.
     999903    2    3    3    0    0  0.11926464693E+00 -0.10156477953E-01 -0.47959340996E-01  0.13073832833E+00  0.21568543139E-01 0.  0.
         14    1    1    2    0    0  0.56191375113E-02 -0.10098770534E-01  0.20721763897E-01  0.23726596294E-01  0.00000000000E+00 0. -1.
     999901    1    3    3    0    0 -0.12488378444E+00  0.20255248488E-01  0.27237577099E-01  0.88946507538E+00  0.88000000000E+00 0.  1.
        -11    1    4    4    0    0  0.50723777982E-01 -0.14891391379E-01 -0.18981908053E-01  0.56171426405E-01  0.51100000000E-03 0.  1.
         11    1    4    4    0    0  0.68540868951E-01  0.47349134262E-02 -0.28977432943E-01  0.74566901925E-01  0.51100000000E-03 0. -1.
</event>
<event>
 8    1  0.1097777E+005  0.1043930E+01  0.7957747E-01            NaN
         13   -1    0    0    0    0  0.00000000000E+00  0.00000000000E+00  0.74505805969E-08  0.10566000000E+00  0.10566000000E+00 0. -1.
     999900   -1    0    0    0    0 -0.00000000000E+00 -0.00000000000E+00 -0.74505805969E-08  0.93827000000E+00  0.93827000000E+00 0. -1.
     999902    2    1    2    0    0  0.13034346696E-01  0.19799104943E-01  0.13473120782E-02  0.10201873380E+01  0.10199110209E+01 0.  0.
     999903    2    3    3    0    0 -0.18259432826E-01  0.12781418872E+00  0.22340999359E-01  0.13278252963E+00  0.21498981332E-01 0.  0.
         14    1    1    2    0    0 -0.13034346696E-01 -0.19799104943E-01 -0.13473120782E-02  0.23742662028E-01  0.00000000000E+00 0. -1.
     999901    1    3    3    0    0  0.31293779522E-01 -0.10801508377E+00 -0.20993687281E-01  0.88740480834E+00  0.88000000000E+00 0.  1.
        -11    1    4    4    0    0 -0.52724625803E-02  0.95234109812E-01  0.11519790536E-01  0.96074456690E-01  0.51100000000E-03 0.  1.
         11    1    4    4    0    0 -0.12986970246E-01  0.32580078906E-01  0.10821208823E-01  0.36708072941E-01  0.51100000000E-03 0. -1.
</event>
<event>
 8    1  0.1097777E+005  0.1043930E+01  0.7957747E-01            NaN
         13   -1    0    0    0    0  0.00000000000E+00  0.00000000000E+00  0.74505805969E-08  0.10566000000E+00  0.10566000000E+00 0.  1.
     999900   -1    0    0    0    0 -0.00000000000E+00 -0.00000000000E+00 -0.74505805969E-08  0.93827000000E+00  0.93827000000E+00 0.  1.
     999902    2    1    2    0    0  0.20530566389E-01  0.11055648988E-01 -0.27695819610E-02  0.10204480470E+01  0.10201778348E+01 0.  0.
     999903    2    3    3    0    0 -0.87373381936E-01  0.52421836729E-01 -0.77853576642E-01  0.12972248335E+00  0.19610875871E-01 0.  0.
         14    1    1    2    0    0 -0.20530566389E-01 -0.11055648988E-01  0.27695819610E-02  0.23481952965E-01  0.00000000000E+00 0.  1.
     999901    1    3    3    0    0  0.10790394833E+00 -0.41366187742E-01  0.75083994681E-01  0.89072556369E+00  0.88000000000E+00 0. -1.
        -11    1    4    4    0    0 -0.76310025605E-01  0.52196426952E-01 -0.66707970227E-01  0.11400833920E+00  0.51100000000E-03 0. -1.
         11    1    4    4    0    0 -0.11063356332E-01  0.22540977755E-03 -0.11145606414E-01  0.15714144146E-01  0.51100000000E-03 0.  1.
</event>
<event>
 8    1  0.1097777E+005  0.1043930E+01  0.7957747E-01            NaN
         13   -1    0    0    0    0  0.00000000000E+00  0.00000000000E+00  0.74505805969E-08  0.10566000000E+00  0.10566000000E+00 0.  1.
     999900   -1    0    0    0    0 -0.00000000000E+00 -0.00000000000E+00 -0.74505805969E-08  0.93827000000E+00  0.93827000000E+00 0.  1.
     999902    2    1    2    0    0 -0.14623512545E-01 -0.12987799134E-01  0.13413380769E-01  0.10202139963E+01  0.10199383067E+01 0.  0.
     999903    2    3    3    0    0 -0.55347660205E-01  0.11512232436E+00 -0.10097056646E-01  0.12969538306E+00  0.20060627573E-01 0.  0.
         14    1    1    2    0    0  0.14623512545E-01  0.12987799134E-01 -0.13413380769E-01  0.23716003650E-01  0.00000000000E+00 0.  1.
     999901    1    3    3    0    0  0.40724147660E-01 -0.12811012349E+00  0.23510437415E-01  0.89051861329E+00  0.88000000000E+00 0. -1.
        -11    1    4    4    0    0 -0.51751273677E-01  0.91987049731E-01 -0.46357087366E-02  0.10564829654E+00  0.51100000000E-03 0.  1.
         11    1    4    4    0    0 -0.35963865280E-02  0.23135274629E-01 -0.54613479095E-02  0.24047086522E-01  0.51100000000E-03 0. -1.
</event>
<event>
 8    1  0.1097777E+005  0.1043930E+01  0.7957747E-01            NaN
         13   -1    0    0    0    0  0.00000000000E+00  0.00000000000E+00  0.74505805969E-08  0.10566000000E+00  0.10566000000E+00 0. -1.
     999900   -1    0    0    0    0 -0.00000000000E+00 -0.00000000000E+00 -0.74505805969E-08  0.93827000000E+00  0.93827000000E+00 0.  1.
     999902    2    1    2    0    0  0.11164186334E-02 -0.12229186433E-01  0.18976940485E-01  0.10213263795E+01  0.10210762213E+01 0.  0.
     999903    2    3    3    0    0  0.10491022580E-02  0.48398350705E-01  0.12204667229E+00  0.13323906821E+00  0.22666232886E-01 0.  0.
         14    1    1    2    0    0 -0.11164186334E-02  0.12229186433E-01 -0.18976940485E-01  0.22603620541E-01  0.00000000000E+00 0.  1.
     999901    1    3    3    0    0  0.67316375447E-04 -0.60627537138E-01 -0.10306973181E+00  0.88808731125E+00  0.88000000000E+00 0.  1.
        -11    1    4    4    0    0 -0.87692354750E-02  0.80194973692E-02  0.27409803877E-01  0.29879262013E-01  0.51100000000E-03 0.  1.
         11    1    4    4    0    0  0.98183377330E-02  0.40378853336E-01  0.94636868414E-01  0.10335980620E+00  0.51100000000E-03 0. -1.
</event>
<event>
 8    1  0.1097777E+005  0.1043930E+01  0.7957747E-01            NaN
         13   -1    0    0    0    0  0.00000000000E+00  0.00000000000E+00  0.74505805969E-08  0.10566000000E+00  0.10566000000E+00 0. -1.
     999900   -1    0    0    0    0 -0.00000000000E+00 -0.00000000000E+00 -0.74505805969E-08  0.93827000000E+00  0.93827000000E+00 0. -1.
     999902    2    1    2    0    0 -0.13428272373E-01 -0.17481892786E-01 -0.79762312648E-02  0.10204874033E+01  0.10202181066E+01 0.  0.
     999903    2    3    3    0    0  0.74825579087E-01  0.10042872035E+00 -0.18261069823E-01  0.12818844394E+00  0.20347366689E-01 0.  0.
         14    1    1    2    0    0  0.13428272373E-01  0.17481892786E-01  0.79762312648E-02  0.23442596689E-01  0.00000000000E+00 0.  1.
     999901    1    3    3    0    0 -0.88253851460E-01 -0.11791061314E+00  0.10284838559E-01  0.89229895937E+00  0.88000000000E+00 0.  1.
        -11    1    4    4    0    0  0.30311521113E-01  0.43018501136E-01  0.23299715096E-02  0.52678929758E-01  0.51100000000E-03 0. -1.
         11    1    4    4    0    0  0.44514057974E-01  0.57410219219E-01 -0.20591041333E-01  0.75509514183E-01  0.51100000000E-03 0.  1.
</event>
<event>
 8    1  0.1097777E+005  0.1043930E+01  0.7957747E-01            NaN
         13   -1    0    0    0    0  0.00000000000E+00  0.00000000000E+00  0.74505805969E-08  0.10566000000E+00  0.10566000000E+00 0.  1.
     999900   -1    0    0    0    0 -0.00000000000E+00 -0.00000000000E+00 -0.74505805969E-08  0.93827000000E+00  0.93827000000E+00 0.  1.
     999902    2    1    2    0    0  0.14248187986E-01 -0.18369777522E-01 -0.31351582977E-02  0.10204717647E+01  0.10202021043E+01 0.  0.
     999903    2    3    3    0    0 -0.12651752256E-01 -0.83631226349E-01 -0.99749531031E-01  0.13237435982E+00  0.20463463565E-01 0.  0.
         14    1    1    2    0    0 -0.14248187986E-01  0.18369777522E-01  0.31351582977E-02  0.23458235327E-01  0.00000000000E+00 0.  1.
     999901    1    3    3    0    0  0.26899940242E-01  0.65261448827E-01  0.96614372734E-01  0.88809740485E+00  0.88000000000E+00 0. -1.
        -11    1    4    4    0    0 -0.11025873918E-01 -0.24357772404E-01 -0.22226757275E-01  0.34772989979E-01  0.51100000000E-03 0. -1.
         11    1    4    4    0    0 -0.16258783373E-02 -0.59273453945E-01 -0.77522773756E-01  0.97601369841E-01  0.51100000000E-03 0.  1.
</event>
<event>
 8    1  0.1097777E+005  0.1043930E+01  0.7957747E-01            NaN
         13   -1    0    0    0    0  0.00000000000E+00  0.00000000000E+00  0.74505805969E-08  0.10566000000E+00  0.10566000000E+00 0.  1.
     999900   -1    0    0    0    0 -0.00000000000E+00 -0.00000000000E+00 -0.74505805969E-08  0.93827000000E+00  0.93827000000E+00 0.  1.
     999902    2    1    2    0    0  0.79097849823E-02 -0.21955783326E-01 -0.57167709794E-02  0.10199028780E+01  0.10196198203E+01 0.  0.
     999903    2    3    3    0    0 -0.90705170843E-01  0.45022756816E-01  0.75728766739E-01  0.12813810525E+00  0.20737677210E-01 0.  0.
         14    1    1    2    0    0 -0.79097849823E-02  0.21955783326E-01  0.57167709794E-02  0.24027121974E-01  0.00000000000E+00 0. -1.
     999901    1    3    3    0    0  0.98614955825E-01 -0.66978540142E-01 -0.81445537718E-01  0.89176477278E+00  0.88000000000E+00 0.  1.
        -11    1    4    4    0    0 -0.74423893790E-01  0.27437294069E-01  0.60164397589E-01  0.99557706537E-01  0.51100000000E-03 0. -1.
         11    1    4    4    0    0 -0.16281277053E-01  0.17585462747E-01  0.15564369149E-01  0.28580398712E-01  0.51100000000E-03 0.  1.
</event>
<event>
 8    1  0.1097777E+005  0.1043930E+01  0.7957747E-01            NaN
         13   -1    0    0    0    0  0.00000000000E+00  0.00000000000E+00  0.74505805969E-08  0.10566000000E+00  0.10566000000E+00 0.  1.
     999900   -1    0    0    0    0 -0.00000000000E+00 -0.00000000000E+00 -0.74505805969E-08  0.93827000000E+00  0.93827000000E+00 0. -1.
     999902    2    1    2    0    0 -0.88120087340E-02  0.15138911065E-01 -0.14291409294E-01  0.10213228660E+01  0.10210726292E+01 0.  0.
     999903    2    3    3    0    0  0.26750963146E-02 -0.11591385025E+00 -0.56786876372E-01  0.13052959903E+00  0.19236685658E-01 0.  0.
         14    1    1    2    0    0  0.88120087340E-02 -0.15138911065E-01  0.14291409294E-01  0.22607133957E-01  0.00000000000E+00 0.  1.
     999901    1    3    3    0    0 -0.11487105049E-01  0.13105276132E+00  0.42495467078E-01  0.89079326701E+00  0.88000000000E+00 0.  1.
        -11    1    4    4    0    0 -0.87218305720E-03 -0.97866682758E-01 -0.40370476967E-01  0.10587107645E+00  0.51100000000E-03 0. -1.
         11    1    4    4    0    0  0.35472793718E-02 -0.18047167492E-01 -0.16416399405E-01  0.24658522580E-01  0.51100000000E-03 0.  1.
</event>
<event>
 8    1  0.1097777E+005  0.1043930E+01  0.7957747E-01            NaN
         13   -1    0    0    0    0  0.00000000000E+00  0.00000000000E+00  0.74505805969E-08  0.10566000000E+00  0.10566000000E+00 0. -1.
     999900   -1    0    0    0    0 -0.00000000000E+00 -0.00000000000E+00 -0.74505805969E-08  0.93827000000E+00  0.93827000000E+00 0.  1.
     999902    2    1    2    0    0  0.43821526055E-02 -0.66795917419E-02 -0.21155150555E-01  0.10213167162E+01  0.10210663418E+01 0.  0.
     999903    2    3    3    0    0 -0.46092689430E-01 -0.10662098509E+00 -0.62223356787E-01  0.13327246659E+00  0.19930723536E-01 0.  0.
         14    1    1    2    0    0 -0.43821526055E-02  0.66795917419E-02  0.21155150555E-01  0.22613283757E-01  0.00000000000E+00 0. -1.
     999901    1    3    3    0    0  0.50474842035E-01  0.99941393345E-01  0.41068206233E-01  0.88804424966E+00  0.88000000000E+00 0. -1.
        -11    1    4    4    0    0 -0.44248548891E-01 -0.92448047007E-01 -0.48267020082E-01  0.11328963687E+00  0.51100000000E-03 0.  1.
         11    1    4    4    0    0 -0.18441405387E-02 -0.14172938080E-01 -0.13956336705E-01  0.19982829714E-01  0.51100000000E-03 0. -1.
</event>
<event>
 8    1  0.1097777E+005  0.1043930E+01  0.7957747E-01            NaN
         13   -1    0    0    0    0  0.00000000000E+00  0.00000000000E+00  0.74505805969E-08  0.10566000000E+00  0.10566000000E+00 0.  1.
     999900   -1    0    0    0    0 -0.00000000000E+00 -0.00000000000E+00 -0.74505805969E-08  0.93827000000E+00  0.93827000000E+00 0. -1.
     999902    2    1    2    0    0  0.15969616387E-01 -0.14577928844E-01 -0.10234378320E-01  0.10200074760E+01  0.10197269065E+01 0.  0.
     999903    2    3    3    0    0 -0.10821091649E+00  0.64792732492E-01  0.51053771466E-02  0.12761977169E+00  0.18789375192E-01 0.  0.
         14    1    1    2    0    0 -0.15969616387E-01  0.14577928844E-01  0.10234378320E-01  0.23922524042E-01  0.00000000000E+00 0.  1.
     999901    1    3    3    0    0  0.12418053288E+00 -0.79370661337E-01 -0.15339755467E-01  0.89238770427E+00  0.88000000000E+00 0.  1.
        -11    1    4    4    0    0 -0.49016368419E-01  0.28049271978E-01 -0.69794132715E-02  0.56906408797E-01  0.51100000000E-03 0. -1.
         11    1    4    4    0    0 -0.59194548069E-01  0.36743460514E-01  0.12084790418E-01  0.70713362896E-01  0.51100000000E-03 0.  1.
</event>
<event>
 8    1  0.1097777E+005  0.1043930E+01  0.7957747E-01            NaN
         13   -1    0    0    0    0  0.00000000000E+00  0.00000000000E+00  0.74505805969E-08  0.10566000000E+00  0.10566000000E+00 0.  1.
     999900   -1    0    0    0    0 -0.00000000000E+00 -0.00000000000E+00 -0.74505805969E-08  0.93827000000E+00  0.93827000000E+00 0.  1.
     999902    2    1    2    0    0 -0.16784088683E-01  0.12174809064E-01 -0.20261892473E-01  0.10149390377E+01  0.10145249008E+01 0.  0.
     999903    2    3    3    0    0  0.73496811694E-01  0.99792943560E-01 -0.10191203533E-01  0.12593453982E+00  0.19880512501E-01 0.  0.
         14    1    1    2    0    0  0.16784088683E-01 -0.12174809064E-01  0.20261892473E-01  0.28990962303E-01  0.00000000000E+00 0.  1.
     999901    1    3    3    0    0 -0.90280900377E-01 -0.87618134495E-01 -0.10070688940E-01  0.88900449787E+00  0.88000000000E+00 0. -1.
        -11    1    4    4    0    0  0.11611891269E-01  0.21625835347E-01 -0.92321287248E-02  0.26229870284E-01  0.51100000000E-03 0. -1.
         11    1    4    4    0    0  0.61884920425E-01  0.78167108213E-01 -0.95907480789E-03  0.99704669539E-01  0.51100000000E-03 0.  1.
</event>
<event>
 8    1  0.1097777E+005  0.1043930E+01  0.7957747E-01            NaN
         13   -1    0    0    0    0  0.00000000000E+00  0.00000000000E+00  0.74505805969E-08  0.10566000000E+00  0.10566000000E+00 0. -1.
     999900   -1    0    0    0    0 -0.00000000000E+00 -0.00000000000E+00 -0.74505805969E-08  0.93827000000E+00  0.93827000000E+00 0.  1.
     999902    2    1    2    0    0  0.21041546585E-01  0.72175083642E-02 -0.92913811253E-02  0.10198225557E+01  0.10195375796E+01 0.  0.
     999903    2    3    3    0    0 -0.78634275412E-01  0.95554291122E-01  0.30298670814E-01  0.12892074912E+00  0.19712388956E-01 0.  0.
         14    1    1    2    0    0 -0.21041546585E-01 -0.72175083642E-02  0.92913811253E-02  0.24107444346E-01  0.00000000000E+00 0. -1.
     999901    1    3    3    0    0  0.99675821997E-01 -0.88336782758E-01 -0.39590051939E-01  0.89090180654E+00  0.88000000000E+00 0. -1.
        -11    1    4    4    0    0 -0.63456951795E-01  0.63473222873E-01  0.23524837677E-01  0.92786388343E-01  0.51100000000E-03 0. -1.
         11    1    4    4    0    0 -0.15177323617E-01  0.32081068249E-01  0.67738331367E-02  0.36134360773E-01  0.51100000000E-03 0.  1.
</event>
<event>
 8    1  0.1097777E+005  0.1043930E+01  0.7957747E-01            NaN
         13   -1    0    0    0    0  0.00000000000E+00  0.00000000000E+00  0.74505805969E-08  0.10566000000E+00  0.10566000000E+00 0. -1.
     999900   -1    0    0    0    0 -0.00000000000E+00 -0.00000000000E+00 -0.74505805969E-08  0.93827000000E+00  0.93827000000E+00 0. -1.
     999902    2    1    2    0    0 -0.21066539143E-01  0.41910479674E-02  0.10014469672E-01  0.10202307688E+01  0.10199554736E+01 0.  0.
     999903    2    3    3    0    0  0.56204890769E-01 -0.11331951943E+00 -0.13605510624E-01  0.12875025262E+00  0.19779140586E-01 0.  0.
         14    1    1    2    0    0  0.21066539143E-01 -0.41910479674E-02 -0.10014469672E-01  0.23699231156E-01  0.00000000000E+00 0. -1.
     999901    1    3    3    0    0 -0.77271429912E-01  0.11751056739E+00  0.23619980296E-01  0.89148051622E+00  0.88000000000E+00 0.  1.
        -11    1    4    4    0    0  0.17487809509E-01 -0.57348356348E-01 -0.72735401822E-02  0.60397209912E-01  0.51100000000E-03 0. -1.
         11    1    4    4    0    0  0.38717081259E-01 -0.55971163078E-01 -0.63319704416E-02  0.68353042713E-01  0.51100000000E-03 0.  1.
</event>
<event>
 8    1  0.1097777E+005  0.1043930E+01  0.7957747E-01            NaN
         13   -1    0    0    0    0  0.00000000000E+00  0.00000000000E+00  0.74505805969E-08  0.10566000000E+00  0.10566000000E+00 0. -1.
     999900   -1    0    0    0    0 -0.00000000000E+00 -0.00000000000E+00 -0.74505805969E-08  0.93827000000E+00  0.93827000000E+00 0. -1.
     999902    2    1    2    0    0 -0.24083005547E-01 -0.33911281960E-03  0.72640453325E-02  0.10187730425E+01  0.10184623899E+01 0.  0.
     999903    2    3    3    0    0  0.24491703180E-01  0.12457125601E+00 -0.22435773771E-02  0.12857503229E+00  0.20215438178E-01 0.  0.
         14    1    1    2    0    0  0.24083005547E-01  0.33911281960E-03 -0.72640453325E-02  0.25156957452E-01  0.00000000000E+00 0.  1.
     999901    1    3    3    0    0 -0.48574708727E-01 -0.12491036883E+00  0.95076227096E-02  0.89019801025E+00  0.88000000000E+00 0. -1.
        -11    1    4    4    0    0  0.60353490697E-02  0.39715889967E-01  0.85233195018E-02  0.41069276236E-01  0.51100000000E-03 0. -1.
         11    1    4    4    0    0  0.18456354110E-01  0.84855366046E-01 -0.10766896879E-01  0.87505756058E-01  0.51100000000E-03 0.  1.
</event>
<event>
 8    1  0.1097777E+005  0.1043930E+01  0.7957747E-01            NaN
         13   -1    0    0    0    0  0.00000000000E+00  0.00000000000E+00  0.74505805969E-08  0.10566000000E+00  0.10566000000E+00 0.  1.
     999900   -1    0    0    0    0 -0.00000000000E+00 -0.00000000000E+00 -0.74505805969E-08  0.93827000000E+00  0.93827000000E+00 0.  1.
     999902    2    1    2    0    0  0.22005681126E-01  0.58414239264E-02 -0.63904202441E-02  0.10202823848E+01  0.10200083014E+01 0.  0.
     999903    2    3    3    0    0 -0.35183801548E-01 -0.61093313016E-01 -0.10750134518E+00  0.13012828851E+00  0.20162823953E-01 0.  0.
         14    1    1    2    0    0 -0.22005681126E-01 -0.58414239264E-02  0.63904202441E-02  0.23647615233E-01  0.00000000000E+00 0.  1.
     999901    1    3    3    0    0  0.57189482674E-01  0.66934736942E-01  0.10111092493E+00  0.89015409625E+00  0.88000000000E+00 0. -1.
        -11    1    4    4    0    0 -0.20357029001E-01 -0.36879927333E-01 -0.45933505647E-01  0.62327247106E-01  0.51100000000E-03 0.  1.
         11    1    4    4    0    0 -0.14826772548E-01 -0.24213385683E-01 -0.61567839530E-01  0.67801041406E-01  0.51100000000E-03 0. -1.
</event>
<event>
 8    1  0.1097777E+005  0.1043930E+01  0.7957747E-01            NaN
         13   -1    0    0    0    0  0.00000000000E+00  0.00000000000E+00  0.74505805969E-08  0.10566000000E+00  0.10566000000E+00 0. -1.
     999900   -1    0    0    0    0 -0.00000000000E+00 -0.00000000000E+00 -0.74505805969E-08  0.93827000000E+00  0.93827000000E+00 0.  1.
     999902    2    1    2    0    0 -0.22053513662E-01  0.26672320528E-02 -0.67184372467E-04  0.10217156779E+01  0.10214741555E+01 0.  0.
     999903    2    3    3    0    0  0.17452564706E-01 -0.51317192098E-01  0.11788369620E+00  0.13132954904E+00  0.20318425178E-01 0.  0.
         14    1    1    2    0    0  0.22053513662E-01 -0.26672320528E-02  0.67184372467E-04  0.22214322078E-01  0.00000000000E+00 0. -1.
     999901    1    3    3    0    0 -0.39506078368E-01  0.53984424151E-01 -0.11795088057E+00  0.89038612888E+00  0.88000000000E+00 0.  1.
        -11    1    4    4    0    0  0.35741602537E-02 -0.19219677547E-01  0.22911081896E-01  0.30122241304E-01  0.51100000000E-03 0.  1.
         11    1    4    4    0    0  0.13878404452E-01 -0.32097514551E-01  0.94972614303E-01  0.10120730774E+00  0.51100000000E-03 0. -1.
</event>
<event>
 8    1  0.1097777E+005  0.1043930E+01  0.7957747E-01            NaN
         13   -1    0    0    0    0  0.00000000000E+00  0.00000000000E+00  0.74505805969E-08  0.10566000000E+00  0.10566000000E+00 0. -1.
     999900   -1    0    0    0    0 -0.00000000000E+00 -0.00000000000E+00 -0.74505805969E-08  0.93827000000E+00  0.93827000000E+00 0. -1.
     999902    2    1    2    0    0  0.60418276213E-02 -0.24465874532E-01  0.16414863311E-02  0.10186757494E+01  0.10183626590E+01 0.  0.
     999903    2    3    3    0    0 -0.97867311069E-01  0.72600449142E-01 -0.28990587839E-01  0.12673555840E+00  0.19303154876E-01 0.  0.
         14    1    1    2    0    0 -0.60418276213E-02  0.24465874532E-01 -0.16414863311E-02  0.25254250632E-01  0.00000000000E+00 0. -1.
     999901    1    3    3    0    0  0.10390913869E+00 -0.97066323675E-01  0.30632074170E-01  0.89194019097E+00  0.88000000000E+00 0. -1.
        -11    1    4    4    0    0 -0.45130031920E-01  0.39585537240E-01 -0.22761447175E-01  0.64203419988E-01  0.51100000000E-03 0.  1.
         11    1    4    4    0    0 -0.52737279149E-01  0.33014911902E-01 -0.62291406641E-02  0.62532138412E-01  0.51100000000E-03 0. -1.
</event>
<event>
 8    1  0.1097777E+005  0.1043930E+01  0.7957747E-01            NaN
         13   -1    0    0    0    0  0.00000000000E+00  0.00000000000E+00  0.74505805969E-08  0.10566000000E+00  0.10566000000E+00 0.  1.
     999900   -1    0    0    0    0 -0.00000000000E+00 -0.00000000000E+00 -0.74505805969E-08  0.93827000000E+00  0.93827000000E+00 0.  1.
     999902    2    1    2    0    0  0.21611160792E-01  0.56173775088E-02 -0.57425242018E-02  0.10208741160E+01  0.10206137306E+01 0.  0.
     999903    2    3    3    0    0  0.13046500576E+00  0.22849480647E-01 -0.10487143371E-02  0.13398734943E+00  0.20206274036E-01 0.  0.
         14    1    1    2    0    0 -0.21611160792E-01 -0.56173775088E-02  0.57425242018E-02  0.23055883957E-01  0.00000000000E+00 0.  1.
     999901    1    3    3    0    0 -0.10885384497E+00 -0.17232103138E-01 -0.46938098647E-02  0.88688676661E+00  0.88000000000E+00 0.  1.
        -11    1    4    4    0    0  0.10558109318E+00  0.17808135476E-01 -0.88040038578E-02  0.10743495023E+00  0.51100000000E-03 0.  1.
         11    1    4    4    0    0  0.24883912585E-01  0.50413451702E-02  0.77552895207E-02  0.26552399199E-01  0.51100000000E-03 0. -1.
</event>
<event>
 8    1  0.1097777E+005  0.1043930E+01  0.7957747E-01            NaN
         13   -1    0    0    0    0  0.00000000000E+00  0.00000000000E+00  0.74505805969E-08  0.10566000000E+00  0.10566000000E+00 0. -1.
     999900   -1    0    0    0    0 -0.00000000000E+00 -0.00000000000E+00 -0.74505805969E-08  0.93827000000E+00  0.93827000000E+00 0.  1.
     999902    2    1    2    0    0 -0.90037413974E-02 -0.21069915550E-01 -0.53585239335E-02  0.10203986915E+01  0.10201273289E+01 0.  0.
     999903    2    3    3    0    0  0.24654426809E-01  0.16986034725E-01 -0.12565903355E+00  0.13076205768E+00  0.20301647218E-01 0.  0.
         14    1    1    2    0    0  0.90037413974E-02  0.21069915550E-01  0.53585239335E-02  0.23531308488E-01  0.00000000000E+00 0. -1.
     999901    1    3    3    0    0 -0.33658168206E-01 -0.38055950275E-01  0.12030050962E+00  0.88963663383E+00  0.88000000000E+00 0. -1.
        -11    1    4    4    0    0  0.22374038175E-02  0.59864676329E-02 -0.62748815285E-01  0.63075500087E-01  0.51100000000E-03 0. -1.
         11    1    4    4    0    0  0.22417022992E-01  0.10999567092E-01 -0.62910218264E-01  0.67686557595E-01  0.51100000000E-03 0.  1.
</event>
<event>
 8    1  0.1097777E+005  0.1043930E+01  0.7957747E-01            NaN
         13   -1    0    0    0    0  0.00000000000E+00  0.00000000000E+00  0.74505805969E-08  0.10566000000E+00  0.10566000000E+00 0. -1.
     999900   -1    0    0    0    0 -0.00000000000E+00 -0.00000000000E+00 -0.74505805969E-08  0.93827000000E+00  0.93827000000E+00 0. -1.
     999902    2    1    2    0    0 -0.17828019215E-01  0.14059930837E-02  0.14088384699E-01  0.10211638482E+01  0.10209100387E+01 0.  0.
     999903    2    3    3    0    0  0.12166371171E+00 -0.21921046469E-01 -0.30375762215E-01  0.12876306706E+00  0.19355864280E-01 0.  0.
         14    1    1    2    0    0  0.17828019215E-01 -0.14059930837E-02 -0.14088384699E-01  0.22766151830E-01  0.00000000000E+00 0. -1.
     999901    1    3    3    0    0 -0.13949173093E+00  0.23327039553E-01  0.44464146914E-01  0.89240078111E+00  0.88000000000E+00 0.  1.
        -11    1    4    4    0    0  0.72401056505E-01 -0.12230428568E-01 -0.82356205796E-02  0.73888990610E-01  0.51100000000E-03 0.  1.
         11    1    4    4    0    0  0.49262655206E-01 -0.96906179011E-02 -0.22140141635E-01  0.54874076447E-01  0.51100000000E-03 0. -1.
</event>
<event>
 8    1  0.1097777E+005  0.1043930E+01  0.7957747E-01            NaN
         13   -1    0    0    0    0  0.00000000000E+00  0.00000000000E+00  0.74505805969E-08  0.10566000000E+00  0.10566000000E+00 0. -1.
     999900   -1    0    0    0    0 -0.00000000000E+00 -0.00000000000E+00 -0.74505805969E-08  0.93827000000E+00  0.93827000000E+00 0.  1.
     999902    2    1    2    0    0  0.22554372756E-01 -0.45116110510E-02  0.65484559394E-02  0.10200148032E+01  0.10197344076E+01 0.  0.
     999903    2    3    3    0    0 -0.32913271146E-01 -0.35759925247E-01  0.11946551405E+00  0.13051866564E+00  0.20026416589E-01 0.  0.
         14    1    1    2    0    0 -0.22554372756E-01  0.45116110510E-02 -0.65484559394E-02  0.23915196840E-01  0.00000000000E+00 0.  1.
     999901    1    3    3    0    0  0.55467643903E-01  0.31248314196E-01 -0.11291705811E+00  0.88949613753E+00  0.88000000000E+00 0.  1.
        -11    1    4    4    0    0 -0.20822245589E-01 -0.24794558129E-01  0.53284164843E-01  0.62352220235E-01  0.51100000000E-03 0. -1.
         11    1    4    4    0    0 -0.12091025558E-01 -0.10965367118E-01  0.66181349204E-01  0.68166445400E-01  0.51100000000E-03 0.  1.
</event>
<event>
 8    1  0.1097777E+005  0.1043930E+01  0.7957747E-01            NaN
         13   -1    0    0    0    0  0.00000000000E+00  0.00000000000E+00  0.74505805969E-08  0.10566000000E+00  0.10566000000E+00 0. -1.
     999900   -1    0    0    0    0 -0.00000000000E+00 -0.00000000000E+00 -0.74505805969E-08  0.93827000000E+00  0.93827000000E+00 0.  1.
     999902    2    1    2    0    0  0.16833924970E-01 -0.81357687745E-03 -0.17103750686E-01  0.10199178942E+01  0.10196351944E+01 0.  0.
     999903    2    3    3    0    0  0.13955194967E-01  0.12313802891E+00  0.32518446209E-01  0.12984225130E+00  0.21067492691E-01 0.  0.
         14    1    1    2    0    0 -0.16833924970E-01  0.81357687745E-03  0.17103750686E-01  0.24012105796E-01  0.00000000000E+00 0.  1.
     999901    1    3    3    0    0  0.28787300032E-02 -0.12395160579E+00 -0.49622196895E-01  0.89007564290E+00  0.88000000000E+00 0.  1.
        -11    1    4    4    0    0  0.39163135980E-02  0.72316340958E-01  0.91164157291E-02  0.72995622051E-01  0.51100000000E-03 0.  1.
         11    1    4    4    0    0  0.10038881369E-01  0.50821687953E-01  0.23402030480E-01  0.56846629250E-01  0.51100000000E-03 0. -1.
</event>
<event>
 8    1  0.1097777E+005  0.1043930E+01  0.7957747E-01            NaN
         13   -1    0    0    0    0  0.00000000000E+00  0.00000000000E+00  0.74505805969E-08  0.10566000000E+00  0.10566000000E+00 0. -1.
     999900   -1    0    0    0    0 -0.00000000000E+00 -0.00000000000E+00 -0.74505805969E-08  0.93827000000E+00  0.93827000000E+00 0.  1.
     999902    2    1    2    0    0 -0.32091213716E-03 -0.86083057791E-02  0.22146543624E-01  0.10201671023E+01  0.10198903085E+01 0.  0.
     999903    2    3    3    0    0 -0.73557112583E-01 -0.10586406579E+00 -0.12132501401E-01  0.13112420297E+00  0.20700477672E-01 0.  0.
         14    1    1    2    0    0  0.32091213716E-03  0.86083057791E-02 -0.22146543624E-01  0.23762897708E-01  0.00000000000E+00 0.  1.
     999901    1    3    3    0    0  0.73236200446E-01  0.97255760013E-01  0.34279045025E-01  0.88904289932E+00  0.88000000000E+00 0.  1.
        -11    1    4    4    0    0 -0.32052011298E-01 -0.45942954526E-01  0.50021269035E-02  0.56243834270E-01  0.51100000000E-03 0. -1.
         11    1    4    4    0    0 -0.41505101285E-01 -0.59921111266E-01 -0.17134628305E-01  0.74880368697E-01  0.51100000000E-03 0.  1.
</event>
<event>
 8    1  0.1097777E+005  0.1043930E+01  0.7957747E-01            NaN
         13   -1    0    0    0    0  0.00000000000E+00  0.00000000000E+00  0.74505805969E-08  0.10566000000E+00  0.10566000000E+00 0.  1.
     999900   -1    0    0    0    0 -0.00000000000E+00 -0.00000000000E+00 -0.74505805969E-08  0.93827000000E+00  0.93827000000E+00 0. -1.
     999902    2    1    2    0    0  0.17814532815E-01 -0.63647666225E-02  0.14383534708E-01  0.10201654486E+01  0.10198886158E+01 0.  0.
     999903    2    3    3    0    0  0.33899992627E-01 -0.10644916593E+00  0.68392889391E-01  0.13270128626E+00  0.21246402704E-01 0.  0.
         14    1    1    2    0    0 -0.17814532815E-01  0.63647666225E-02 -0.14383534708E-01  0.23764551422E-01  0.00000000000E+00 0.  1.
     999901    1    3    3    0    0 -0.16085459812E-01  0.10008439931E+00 -0.54009354684E-01  0.88746416232E+00  0.88000000000E+00 0.  1.
        -11    1    4    4    0    0  0.34626458654E-01 -0.81281440557E-01  0.50018306347E-01  0.10152712105E+00  0.51100000000E-03 0.  1.
         11    1    4    4    0    0 -0.72646602633E-03 -0.25167725378E-01  0.18374583045E-01  0.31174165212E-01  0.51100000000E-03 0. -1.
</event>
<event>
 8    1  0.1097777E+005  0.1043930E+01  0.7957747E-01            NaN
         13   -1    0    0    0    0  0.00000000000E+00  0.00000000000E+00  0.74505805969E-08  0.10566000000E+00  0.10566000000E+00 0.  1.
     999900   -1    0    0    0    0 -0.00000000000E+00 -0.00000000000E+00 -0.74505805969E-08  0.93827000000E+00  0.93827000000E+00 0.  1.
     999902    2    1    2    0    0  0.12071340916E-01  0.21184124239E-01 -0.64632891661E-02  0.10187058350E+01  0.10183934995E+01 0.  0.
     999903    2    3    3    0    0 -0.12478755150E+00  0.18102869098E-02  0.16175478426E-01  0.12762883735E+00  0.21266496476E-01 0.  0.
         14    1    1    2    0    0 -0.12071340916E-01 -0.21184124239E-01  0.64632891661E-02  0.25224164964E-01  0.00000000000E+00 0.  1.
     999901    1    3    3    0    0  0.13685889242E+00  0.19373837329E-01 -0.22638767592E-01  0.89107699769E+00  0.88000000000E+00 0.  1.
        -11    1    4    4    0    0 -0.88868446927E-01  0.10479949997E-01  0.85226972687E-02  0.89890643011E-01  0.51100000000E-03 0. -1.
         11    1    4    4    0    0 -0.35919104575E-01 -0.86696630873E-02  0.76527811575E-02  0.37738194339E-01  0.51100000000E-03 0.  1.
</event>
<event>
 8    1  0.1097777E+005  0.1043930E+01  0.7957747E-01            NaN
         13   -1    0    0    0    0  0.00000000000E+00  0.00000000000E+00  0.74505805969E-08  0.10566000000E+00  0.10566000000E+00 0.  1.
     999900   -1    0    0    0    0 -0.00000000000E+00 -0.00000000000E+00 -0.74505805969E-08  0.93827000000E+00  0.93827000000E+00 0. -1.
     999902    2    1    2    0    0  0.75590591562E-02 -0.10305622844E-01  0.19370205754E-01  0.10207233176E+01  0.10204594754E+01 0.  0.
     999903    2    3    3    0    0 -0.15975753345E-01 -0.12276352676E+00 -0.40839787423E-01  0.13121451447E+00  0.14941632189E-01 0.  0.
         14    1    1    2    0    0 -0.75590591562E-02  0.10305622844E-01 -0.19370205754E-01  0.23206682410E-01  0.00000000000E+00 0. -1.
     999901    1    3    3    0    0  0.23534812501E-01  0.11245790392E+00  0.60209993177E-01  0.88950880312E+00  0.88000000000E+00 0. -1.
        -11    1    4    4    0    0 -0.91116011057E-02 -0.28443553255E-01 -0.62646016660E-02  0.30521522758E-01  0.51100000000E-03 0. -1.
         11    1    4    4    0    0 -0.68641522393E-02 -0.94319973507E-01 -0.34575185757E-01  0.10069299171E+00  0.51100000000E-03 0.  1.
</event>
<event>
 8    1  0.1097777E+005  0.1043930E+01  0.7957747E-01            NaN
         13   -1    0    0    0    0  0.00000000000E+00  0.00000000000E+00  0.74505805969E-08  0.10566000000E+00  0.10566000000E+00 0.  1.
     999900   -1    0    0    0    0 -0.00000000000E+00 -0.00000000000E+00 -0.74505805969E-08  0.93827000000E+00  0.93827000000E+00 0.  1.
     999902    2    1    2    0    0  0.11679863823E-02 -0.97482855242E-02 -0.21763548204E-01  0.10200543787E+01  0.10197749213E+01 0.  0.
     999903    2    3    3    0    0  0.82235086225E-01  0.96867390363E-01 -0.20048699959E-01  0.12991859257E+00  0.18193119635E-01 0.  0.
         14    1    1    2    0    0 -0.11679863823E-02  0.97482855242E-02  0.21763548204E-01  0.23875621318E-01  0.00000000000E+00 0.  1.
     999901    1    3    3    0    0 -0.81067099843E-01 -0.10661567589E+00 -0.17148482454E-02  0.89013578612E+00  0.88000000000E+00 0. -1.
        -11    1    4    4    0    0  0.23217358889E-01  0.16934142036E-01 -0.79681485301E-02  0.29825549991E-01  0.51100000000E-03 0. -1.
         11    1    4    4    0    0  0.59017727336E-01  0.79933248327E-01 -0.12080551429E-01  0.10009304257E+00  0.51100000000E-03 0.  1.
</event>
<event>
 8    1  0.1097777E+005  0.1043930E+01  0.7957747E-01            NaN
         13   -1    0    0    0    0  0.00000000000E+00  0.00000000000E+00  0.74505805969E-08  0.10566000000E+00  0.10566000000E+00 0.  1.
     999900   -1    0    0    0    0 -0.00000000000E+00 -0.00000000000E+00 -0.74505805969E-08  0.93827000000E+00  0.93827000000E+00 0.  1.
     999902    2    1    2    0    0 -0.37066406075E-02 -0.13229297716E-01 -0.19681954029E-01  0.10199272331E+01  0.10196447558E+01 0.  0.
     999903    2    3    3    0    0  0.59724521258E-01  0.21186175109E-01  0.10905834806E+00  0.12763692026E+00  0.19534269337E-01 0.  0.
         14    1    1    2    0    0  0.37066406075E-02  0.13229297716E-01  0.19681954029E-01  0.24002766862E-01  0.00000000000E+00 0.  1.
     999901    1    3    3    0    0 -0.63431161865E-01 -0.34415472824E-01 -0.12874030209E+00  0.89229031287E+00  0.88000000000E+00 0.  1.
        -11    1    4    4    0    0  0.30662569101E-01  0.54996803559E-02  0.37006874679E-01  0.48375712112E-01  0.51100000000E-03 0.  1.
         11    1    4    4    0    0  0.29061952157E-01  0.15686494753E-01  0.72051473379E-01  0.79261208153E-01  0.51100000000E-03 0. -1.
</event>
<event>
 8    1  0.1097777E+005  0.1043930E+01  0.7957747E-01            NaN
         13   -1    0    0    0    0  0.00000000000E+00  0.00000000000E+00  0.74505805969E-08  0.10566000000E+00  0.10566000000E+00 0.  1.
     999900   -1    0    0    0    0 -0.00000000000E+00 -0.00000000000E+00 -0.74505805969E-08  0.93827000000E+00  0.93827000000E+00 0.  1.
     999902    2    1    2    0    0  0.99110900421E-02 -0.20805640529E-01 -0.15299113382E-02  0.10208335714E+01  0.10205722589E+01 0.  0.
     999903    2    3    3    0    0  0.10408514873E+00  0.74695637897E-01 -0.14906773427E-01  0.13057058335E+00  0.20329998413E-01 0.  0.
         14    1    1    2    0    0 -0.99110900421E-02  0.20805640529E-01  0.15299113382E-02  0.23096428563E-01  0.00000000000E+00 0.  1.
     999901    1    3    3    0    0 -0.94174058693E-01 -0.95501278426E-01  0.13376862089E-01  0.89026298808E+00  0.88000000000E+00 0. -1.
        -11    1    4    4    0    0  0.38062043024E-01  0.15818470414E-01 -0.33949050014E-02  0.41360967425E-01  0.51100000000E-03 0. -1.
         11    1    4    4    0    0  0.66023105711E-01  0.58877167483E-01 -0.11511868426E-01  0.89209615929E-01  0.51100000000E-03 0.  1.
</event>
<event>
 8    1  0.1097777E+005  0.1043930E+01  0.7957747E-01            NaN
         13   -1    0    0    0    0  0.00000000000E+00  0.00000000000E+00  0.74505805969E-08  0.10566000000E+00  0.10566000000E+00 0. -1.
     999900   -1    0    0    0    0 -0.00000000000E+00 -0.00000000000E+00 -0.74505805969E-08  0.93827000000E+00  0.93827000000E+00 0. -1.
     999902    2    1    2    0    0 -0.12829246163E-01 -0.21798662393E-01 -0.14609115036E-02  0.10185941459E+01  0.10182790033E+01 0.  0.
     999903    2    3    3    0    0 -0.12589009088E-01 -0.96100964141E-01  0.85927170907E-01  0.13114974389E+00  0.20564487920E-01 0.  0.
         14    1    1    2    0    0  0.12829246163E-01  0.21798662393E-01  0.14609115036E-02  0.25335854074E-01  0.00000000000E+00 0. -1.
     999901    1    3    3    0    0 -0.24023707435E-03  0.74302301748E-01 -0.87388082411E-01  0.88744440204E+00  0.88000000000E+00 0. -1.
        -11    1    4    4    0    0 -0.17507169737E-01 -0.86512089063E-01  0.75657924482E-01  0.11625500077E+00  0.51100000000E-03 0. -1.
         11    1    4    4    0    0  0.49181606487E-02 -0.95888750785E-02  0.10269246426E-01  0.14894743119E-01  0.51100000000E-03 0.  1.
</event>
<event>
 8    1  0.1097777E+005  0.1043930E+01  0.7957747E-01            NaN
         13   -1    0    0    0    0  0.00000000000E+00  0.00000000000E+00  0.74505805969E-08  0.10566000000E+00  0.10566000000E+00 0.  1.
     999900   -1    0    0    0    0 -0.00000000000E+00 -0.00000000000E+00 -0.74505805969E-08  0.93827000000E+00  0.93827000000E+00 0. -1.
     999902    2    1    2    0    0 -0.81884306287E-02  0.27804566793E-02  0.20974256633E-01  0.10212429822E+01  0.10209909539E+01 0.  0.
     999903    2    3    3    0    0 -0.27565064437E-02  0.80365076428E-01 -0.99356973724E-01  0.12965536226E+00  0.21738465878E-01 0.  0.
         14    1    1    2    0    0  0.81884306287E-02 -0.27804566793E-02 -0.20974256633E-01  0.22687017803E-01  0.00000000000E+00 0. -1.
     999901    1    3    3    0    0 -0.54319241850E-02 -0.77584619748E-01  0.12033123036E+00  0.89158761993E+00  0.88000000000E+00 0.  1.
        -11    1    4    4    0    0 -0.46050015792E-02  0.40510439478E-01 -0.34042066347E-01  0.53117089043E-01  0.51100000000E-03 0.  1.
         11    1    4    4    0    0  0.18484951355E-02  0.39854636949E-01 -0.65314907377E-01  0.76538273219E-01  0.51100000000E-03 0. -1.
</event>
<event>
 8    1  0.1097777E+005  0.1043930E+01  0.7957747E-01            NaN
         13   -1    0    0    0    0  0.00000000000E+00  0.00000000000E+00  0.74505805969E-08  0.10566000000E+00  0.10566000000E+00 0. -1.
     999900   -1    0    0    0    0 -0.00000000000E+00 -0.00000000000E+00 -0.74505805969E-08  0.93827000000E+00  0.93827000000E+00 0.  1.
     999902    2    1    2    0    0 -0.42684836829E-03 -0.29182945835E-02  0.22722421348E-01  0.10210169671E+01  0.10207598347E+01 0.  0.
     999903    2    3    3    0    0 -0.32619014820E-01 -0.11466498880E+00 -0.49632916542E-01  0.13042224777E+00  0.18288699377E-01 0.  0.
         14    1    1    2    0    0  0.42684836829E-03  0.29182945835E-02 -0.22722421348E-01  0.22913032858E-01  0.00000000000E+00 0.  1.
     999901    1    3    3    0    0  0.32192166452E-01  0.11174669422E+00  0.72355337890E-01  0.89059471937E+00  0.88000000000E+00 0. -1.
        -11    1    4    4    0    0 -0.26837799642E-03 -0.22711559304E-01 -0.13705012549E-01  0.26532535550E-01  0.51100000000E-03 0.  1.
         11    1    4    4    0    0 -0.32350636824E-01 -0.91953429497E-01 -0.35927903993E-01  0.10388971222E+00  0.51100000000E-03 0. -1.
</event>
<event>
 8    1  0.1097777E+005  0.1043930E+01  0.7957747E-01            NaN
         13   -1    0    0    0    0  0.00000000000E+00  0.00000000000E+00  0.74505805969E-08  0.10566000000E+00  0.10566000000E+00 0. -1.
     999900   -1    0    0    0    0 -0.00000000000E+00 -0.00000000000E+00 -0.74505805969E-08  0.93827000000E+00  0.93827000000E+00 0. -1.
     999902    2    1    2    0    0  0.21950588069E-01 -0.11729610352E-02  0.77544145392E-02  0.10206204505E+01  0.10203542369E+01 0.  0.
     999903    2    3    3    0    0 -0.41577623936E-01 -0.56476038604E-01  0.10853058628E+00  0.13087323868E+00  0.20752703311E-01 0.  0.
         14    1    1    2    0    0 -0.21950588069E-01  0.11729610352E-02 -0.77544145392E-02  0.23309549524E-01  0.00000000000E+00 0.  1.
     999901    1    3    3    0    0  0.63528212005E-01  0.55303077569E-01 -0.10077617174E+00  0.88974721180E+00  0.88000000000E+00 0.  1.
        -11    1    4    4    0    0 -0.29165760641E-01 -0.28763623477E-01  0.47656217014E-01  0.62843963675E-01  0.51100000000E-03 0.  1.
         11    1    4    4    0    0 -0.12411863295E-01 -0.27712415126E-01  0.60874369269E-01  0.68029275004E-01  0.51100000000E-03 0. -1.
</event>
<event>
 8    1  0.1097777E+005  0.1043930E+01  0.7957747E-01            NaN
         13   -1    0    0    0    0  0.00000000000E+00  0.00000000000E+00  0.74505805969E-08  0.10566000000E+00  0.10566000000E+00 0.  1.
     999900   -1    0    0    0    0 -0.00000000000E+00 -0.00000000000E+00 -0.74505805969E-08  0.93827000000E+00  0.93827000000E+00 0. -1.
     999902    2    1    2    0    0 -0.17563066973E-01 -0.15352902681E-01  0.88145957519E-02  0.10189926778E+01  0.10186874925E+01 0.  0.
     999903    2    3    3    0    0 -0.16566950247E-01 -0.11415552261E+00 -0.58546459877E-01  0.13090458429E+00  0.20059288151E-01 0.  0.
         14    1    1    2    0    0  0.17563066973E-01  0.15352902681E-01 -0.88145957519E-02  0.24937322240E-01  0.00000000000E+00 0.  1.
     999901    1    3    3    0    0 -0.99611672547E-03  0.98802619926E-01  0.67361055629E-01  0.88808809347E+00  0.88000000000E+00 0.  1.
        -11    1    4    4    0    0 -0.14395774957E-01 -0.10888484570E+00 -0.50145311258E-01  0.12073922860E+00  0.51100000000E-03 0. -1.
         11    1    4    4    0    0 -0.21711752905E-02 -0.52706769043E-02 -0.84011486186E-02  0.10165355689E-01  0.51100000000E-03 0.  1.
</event>
<event>
 8    1  0.1097777E+005  0.1043930E+01  0.7957747E-01            NaN
         13   -1    0    0    0    0  0.00000000000E+00  0.00000000000E+00  0.74505805969E-08  0.10566000000E+00  0.10566000000E+00 0.  1.
     999900   -1    0    0    0    0 -0.00000000000E+00 -0.00000000000E+00 -0.74505805969E-08  0.93827000000E+00  0.93827000000E+00 0. -1.
     999902    2    1    2    0    0 -0.77213820473E-02 -0.14176487540E-01 -0.16665092779E-01  0.10207283221E+01  0.10204645950E+01 0.  0.
     999903    2    3    3    0    0 -0.54186578328E-01 -0.54142368093E-01 -0.10658258552E+00  0.13402575553E+00  0.27119629731E-01 0.  0.
         14    1    1    2    0    0  0.77213820473E-02  0.14176487540E-01  0.16665092779E-01  0.23201677892E-01  0.00000000000E+00 0.  1.
     999901    1    3    3    0    0  0.46465196281E-01  0.39965880554E-01  0.89917492737E-01  0.88670256658E+00  0.88000000000E+00 0.  1.
        -11    1    4    4    0    0 -0.40067485041E-01 -0.50836620669E-01 -0.73738223590E-01  0.98119071020E-01  0.51100000000E-03 0.  1.
         11    1    4    4    0    0 -0.14119093288E-01 -0.33057474243E-02 -0.32844361925E-01  0.35906684511E-01  0.51100000000E-03 0. -1.
</event>
<event>
 8    1  0.1330811E+005  0.1043930E+01  0.7957747E-01            NaN
         13   -1    0    0    0    0  0.00000000000E+00  0.00000000000E+00  0.74505805969E-08  0.10566000000E+00  0.10566000000E+00 0. -1.
     999900   -1    0    0    0    0 -0.00000000000E+00 -0.00000000000E+00 -0.74505805969E-08  0.93827000000E+00  0.93827000000E+00 0. -1.
     999902    2    1    2    0    0 -0.21317342919E-01 -0.23276960395E-02 -0.10376187454E-01  0.10201074782E+01  0.10198292772E+01 0.  0.
     999903    2    3    3    0    0 -0.29895959541E-01  0.90395395728E-01  0.86230615767E-01  0.12993668627E+00  0.19563419371E-01 0.  0.
         14    1    1    2    0    0  0.21317342919E-01  0.23276960395E-02  0.10376187454E-01  0.23822521782E-01  0.00000000000E+00 0. -1.
     999901    1    3    3    0    0  0.85786166226E-02 -0.92723091767E-01 -0.96606803221E-01  0.89017079195E+00  0.88000000000E+00 0. -1.
        -11    1    4    4    0    0 -0.20490323450E-02  0.35898470131E-01  0.33674189526E-01  0.49265716807E-01  0.51100000000E-03 0.  1.
         11    1    4    4    0    0 -0.27846927196E-01  0.54496925597E-01  0.52556426240E-01  0.80670969462E-01  0.51100000000E-03 0. -1.
</event>
<event>
 8    1  0.1274224E+005  0.1043930E+01  0.7957747E-01            NaN
         13   -1    0    0    0    0  0.00000000000E+00  0.00000000000E+00  0.74505805969E-08  0.10566000000E+00  0.10566000000E+00 0. -1.
     999900   -1    0    0    0    0 -0.00000000000E+00 -0.00000000000E+00 -0.74505805969E-08  0.93827000000E+00  0.93827000000E+00 0.  1.
     999902    2    1    2    0    0 -0.19504332239E-01 -0.73506724320E-02 -0.17478043945E-01  0.10167282835E+01  0.10163643387E+01 0.  0.
     999903    2    3    3    0    0 -0.51297689562E-01  0.95625107836E-01  0.62163463744E-01  0.12658357691E+00  0.19582939415E-01 0.  0.
         14    1    1    2    0    0  0.19504332239E-01  0.73506724320E-02  0.17478043945E-01  0.27201716516E-01  0.00000000000E+00 0. -1.
     999901    1    3    3    0    0  0.31793357323E-01 -0.10297578027E+00 -0.79641507689E-01  0.89014470657E+00  0.88000000000E+00 0.  1.
        -11    1    4    4    0    0 -0.20202556394E-01  0.41149344008E-01  0.37325065942E-01  0.59117116520E-01  0.51100000000E-03 0. -1.
         11    1    4    4    0    0 -0.31095133168E-01  0.54475763828E-01  0.24838397802E-01  0.67466460392E-01  0.51100000000E-03 0.  1.
</event>
<event>
 8    1  0.1097777E+005  0.1043930E+01  0.7957747E-01            NaN
         13   -1    0    0    0    0  0.00000000000E+00  0.00000000000E+00  0.74505805969E-08  0.10566000000E+00  0.10566000000E+00 0. -1.
     999900   -1    0    0    0    0 -0.00000000000E+00 -0.00000000000E+00 -0.74505805969E-08  0.93827000000E+00  0.93827000000E+00 0.  1.
     999902    2    1    2    0    0 -0.77185173098E-04  0.23183771993E-01  0.25988478199E-02  0.10206008926E+01  0.10203342270E+01 0.  0.
     999903    2    3    3    0    0  0.11833585017E+00 -0.45167170590E-01 -0.19570714478E-01  0.12976702046E+00  0.20322893464E-01 0.  0.
         14    1    1    2    0    0  0.77185173098E-04 -0.23183771993E-01 -0.25988478199E-02  0.23329107385E-01  0.00000000000E+00 0.  1.
     999901    1    3    3    0    0 -0.11841303534E+00  0.68350942584E-01  0.22169562298E-01  0.89083387216E+00  0.88000000000E+00 0. -1.
        -11    1    4    4    0    0  0.36555330926E-01 -0.86325509632E-02  0.20592822257E-02  0.37620671439E-01  0.51100000000E-03 0. -1.
         11    1    4    4    0    0  0.81780519243E-01 -0.36534619627E-01 -0.21629996703E-01  0.92146349018E-01  0.51100000000E-03 0.  1.
</event>
<event>
 8    1  0.1097777E+005  0.1043930E+01  0.7957747E-01            NaN
         13   -1    0    0    0    0  0.00000000000E+00  0.00000000000E+00  0.74505805969E-08  0.10566000000E+00  0.10566000000E+00 0.  1.
     999900   -1    0    0    0    0 -0.00000000000E+00 -0.00000000000E+00 -0.74505805969E-08  0.93827000000E+00  0.93827000000E+00 0. -1.
     999902    2    1    2    0    0  0.41749050494E-02  0.22770901672E-01  0.30959132015E-02  0.10205734490E+01  0.10203061484E+01 0.  0.
     999903    2    3    3    0    0 -0.11035099334E+00  0.13085877796E-01 -0.65373938690E-01  0.13046216288E+00  0.19950993847E-01 0.  0.
         14    1    1    2    0    0 -0.41749050494E-02 -0.22770901672E-01 -0.30959132015E-02  0.23356550980E-01  0.00000000000E+00 0.  1.
     999901    1    3    3    0    0  0.11452589839E+00  0.96850238761E-02  0.68469851891E-01  0.89011128614E+00  0.88000000000E+00 0.  1.
        -11    1    4    4    0    0 -0.27895822213E-01  0.52028623263E-02 -0.73170529147E-02  0.29309504562E-01  0.51100000000E-03 0. -1.
         11    1    4    4    0    0 -0.82455171128E-01  0.78830154698E-02 -0.58056885775E-01  0.10115265832E+00  0.51100000000E-03 0.  1.
</event>
<event>
 8    1  0.1097777E+005  0.1043930E+01  0.7957747E-01            NaN
         13   -1    0    0    0    0  0.00000000000E+00  0.00000000000E+00  0.74505805969E-08  0.10566000000E+00  0.10566000000E+00 0.  1.
     999900   -1    0    0    0    0 -0.00000000000E+00 -0.00000000000E+00 -0.74505805969E-08  0.93827000000E+00  0.93827000000E+00 0. -1.
     999902    2    1    2    0    0  0.62098643771E-02 -0.24318575654E-01  0.26970165898E-02  0.10186865962E+01  0.10183737781E+01 0.  0.
     999903    2    3    3    0    0 -0.87445079708E-01  0.80280989294E-01 -0.39520930498E-01  0.12655730478E+00  0.19056973477E-01 0.  0.
         14    1    1    2    0    0 -0.62098643771E-02  0.24318575654E-01 -0.26970165898E-02  0.25243403810E-01  0.00000000000E+00 0. -1.
     999901    1    3    3    0    0  0.93654944085E-01 -0.10459956495E+00  0.42217947088E-01  0.89212929141E+00  0.88000000000E+00 0. -1.
        -11    1    4    4    0    0 -0.50415754610E-01  0.58311214144E-01 -0.23090196764E-01  0.80469648412E-01  0.51100000000E-03 0. -1.
         11    1    4    4    0    0 -0.37029325097E-01  0.21969775150E-01 -0.16430733733E-01  0.46087656366E-01  0.51100000000E-03 0.  1.
</event>
<event>
 8    1  0.1097777E+005  0.1043930E+01  0.7957747E-01            NaN
         13   -1    0    0    0    0  0.00000000000E+00  0.00000000000E+00  0.74505805969E-08  0.10566000000E+00  0.10566000000E+00 0.  1.
     999900   -1    0    0    0    0 -0.00000000000E+00 -0.00000000000E+00 -0.74505805969E-08  0.93827000000E+00  0.93827000000E+00 0. -1.
     999902    2    1    2    0    0  0.19739718934E-01  0.11259546432E-01  0.51585732498E-02  0.10206266790E+01  0.10203606094E+01 0.  0.
     999903    2    3    3    0    0  0.43701018074E-02 -0.31538385742E-01 -0.12437817772E+00  0.12998216075E+00  0.20289491206E-01 0.  0.
         14    1    1    2    0    0 -0.19739718934E-01 -0.11259546432E-01 -0.51585732498E-02  0.23303320952E-01  0.00000000000E+00 0. -1.
     999901    1    3    3    0    0  0.15369617126E-01  0.42797932174E-01  0.12953675097E+00  0.89064451830E+00  0.88000000000E+00 0.  1.
        -11    1    4    4    0    0 -0.29141793147E-02 -0.15268893418E-01 -0.89160249065E-01  0.90506589161E-01  0.51100000000E-03 0. -1.
         11    1    4    4    0    0  0.72842811220E-02 -0.16269492324E-01 -0.35217928658E-01  0.39475571585E-01  0.51100000000E-03 0.  1.
</event>
<event>
 8    1  0.1097777E+005  0.1043930E+01  0.7957747E-01            NaN
         13   -1    0    0    0    0  0.00000000000E+00  0.00000000000E+00  0.74505805969E-08  0.10566000000E+00  0.10566000000E+00 0.  1.
     999900   -1    0    0    0    0 -0.00000000000E+00 -0.00000000000E+00 -0.74505805969E-08  0.93827000000E+00  0.93827000000E+00 0.  1.
     999902    2    1    2    0    0 -0.40569194483E-02 -0.59978502038E-02 -0.22866977087E-01  0.10199439323E+01  0.10196618526E+01 0.  0.
     999903    2    3    3    0    0 -0.17699467667E-01 -0.11043245316E+00 -0.68204952453E-01  0.13250478654E+00  0.19924985591E-01 0.  0.
         14    1    1    2    0    0  0.40569194483E-02  0.59978502038E-02  0.22866977087E-01  0.23986067697E-01  0.00000000000E+00 0.  1.
     999901    1    3    3    0    0  0.13642548219E-01  0.10443460296E+00  0.45337975367E-01  0.88743914576E+00  0.88000000000E+00 0. -1.
        -11    1    4    4    0    0 -0.13545043535E-01 -0.49694146243E-01 -0.21704302090E-01  0.55895565347E-01  0.51100000000E-03 0. -1.
         11    1    4    4    0    0 -0.41544241322E-02 -0.60738306918E-01 -0.46500650363E-01  0.76609221197E-01  0.51100000000E-03 0.  1.
</event>
<event>
 8    1  0.1097777E+005  0.1043930E+01  0.7957747E-01            NaN
         13   -1    0    0    0    0  0.00000000000E+00  0.00000000000E+00  0.74505805969E-08  0.10566000000E+00  0.10566000000E+00 0. -1.
     999900   -1    0    0    0    0 -0.00000000000E+00 -0.00000000000E+00 -0.74505805969E-08  0.93827000000E+00  0.93827000000E+00 0. -1.
     999902    2    1    2    0    0  0.73711185468E-02  0.27865709481E-01 -0.19037295387E-02  0.10150430594E+01  0.10146319318E+01 0.  0.
     999903    2    3    3    0    0  0.18044605280E-01  0.12252390863E+00  0.31048903017E-01  0.12928915788E+00  0.20345417202E-01 0.  0.
         14    1    1    2    0    0 -0.73711185468E-02 -0.27865709481E-01  0.19037295387E-02  0.28886940642E-01  0.00000000000E+00 0. -1.
     999901    1    3    3    0    0 -0.10673486733E-01 -0.94658199152E-01 -0.32952632555E-01  0.88575390147E+00  0.88000000000E+00 0. -1.
        -11    1    4    4    0    0 -0.21198065464E-03  0.66528004900E-01  0.14220137599E-01  0.68033034668E-01  0.51100000000E-03 0. -1.
         11    1    4    4    0    0  0.18256585934E-01  0.55995903732E-01  0.16828765418E-01  0.61256123215E-01  0.51100000000E-03 0.  1.
</event>
<event>
 8    1  0.1097777E+005  0.1043930E+01  0.7957747E-01            NaN
         13   -1    0    0    0    0  0.00000000000E+00  0.00000000000E+00  0.74505805969E-08  0.10566000000E+00  0.10566000000E+00 0. -1.
     999900   -1    0    0    0    0 -0.00000000000E+00 -0.00000000000E+00 -0.74505805969E-08  0.93827000000E+00  0.93827000000E+00 0.  1.
     999902    2    1    2    0    0  0.12128779416E-01  0.19471423854E-01 -0.57984188652E-02  0.10202685271E+01  0.10199941187E+01 0.  0.
     999903    2    3    3    0    0 -0.11678080784E-01  0.92554257372E-01  0.90340839997E-01  0.13170191497E+00  0.21937613986E-01 0.  0.
         14    1    1    2    0    0 -0.12128779416E-01 -0.19471423854E-01  0.57984188652E-02  0.23661472869E-01  0.00000000000E+00 0. -1.
     999901    1    3    3    0    0  0.23806860200E-01 -0.73082833519E-01 -0.96139258863E-01  0.88856661216E+00  0.88000000000E+00 0.  1.
        -11    1    4    4    0    0 -0.30990807935E-02  0.61806557823E-01  0.46218328668E-01  0.77240209201E-01  0.51100000000E-03 0.  1.
         11    1    4    4    0    0 -0.85789999907E-02  0.30747699550E-01  0.44122511330E-01  0.54461705771E-01  0.51100000000E-03 0. -1.
</event>
<event>
 8    1  0.1097777E+005  0.1043930E+01  0.7957747E-01            NaN
         13   -1    0    0    0    0  0.00000000000E+00  0.00000000000E+00  0.74505805969E-08  0.10566000000E+00  0.10566000000E+00 0.  1.
     999900   -1    0    0    0    0 -0.00000000000E+00 -0.00000000000E+00 -0.74505805969E-08  0.93827000000E+00  0.93827000000E+00 0. -1.
     999902    2    1    2    0    0  0.72771488461E-02  0.23340117540E-01 -0.38227822798E-03  0.10194787399E+01  0.10191854773E+01 0.  0.
     999903    2    3    3    0    0  0.38099522857E-01  0.12458854662E+00 -0.18485887280E-01  0.13295237045E+00  0.18992766789E-01 0.  0.
         14    1    1    2    0    0 -0.72771488461E-02 -0.23340117540E-01  0.38227822798E-03  0.24451260065E-01  0.00000000000E+00 0.  1.
     999901    1    3    3    0    0 -0.30822374011E-01 -0.10124842908E+00  0.18103609052E-01  0.88652636948E+00  0.88000000000E+00 0. -1.
        -11    1    4    4    0    0  0.11602209363E-01  0.69962203123E-01 -0.11266469007E-01  0.71808882269E-01  0.51100000000E-03 0.  1.
         11    1    4    4    0    0  0.26497313495E-01  0.54626343493E-01 -0.72194182727E-02  0.61143488182E-01  0.51100000000E-03 0. -1.
</event>
<event>
 8    1  0.1097777E+005  0.1043930E+01  0.7957747E-01            NaN
         13   -1    0    0    0    0  0.00000000000E+00  0.00000000000E+00  0.74505805969E-08  0.10566000000E+00  0.10566000000E+00 0. -1.
     999900   -1    0    0    0    0 -0.00000000000E+00 -0.00000000000E+00 -0.74505805969E-08  0.93827000000E+00  0.93827000000E+00 0.  1.
     999902    2    1    2    0    0 -0.18427623125E-01  0.21923566417E-02 -0.14847388400E-01  0.10201638757E+01  0.10198870058E+01 0.  0.
     999903    2    3    3    0    0 -0.56806689368E-01  0.11189540170E+00 -0.35683390474E-01  0.13227770631E+00  0.21829025449E-01 0.  0.
         14    1    1    2    0    0  0.18427623125E-01 -0.21923566417E-02  0.14847388400E-01  0.23766124295E-01  0.00000000000E+00 0. -1.
     999901    1    3    3    0    0  0.38379066242E-01 -0.10970304506E+00  0.20836002073E-01  0.88788616940E+00  0.88000000000E+00 0.  1.
        -11    1    4    4    0    0 -0.33875292045E-01  0.42894320985E-01 -0.15187711417E-01  0.56730819516E-01  0.51100000000E-03 0.  1.
         11    1    4    4    0    0 -0.22931397323E-01  0.69001080717E-01 -0.20495679056E-01  0.75546886794E-01  0.51100000000E-03 0. -1.
</event>
<event>
 8    1  0.1097777E+005  0.1043930E+01  0.7957747E-01            NaN
         13   -1    0    0    0    0  0.00000000000E+00  0.00000000000E+00  0.74505805969E-08  0.10566000000E+00  0.10566000000E+00 0. -1.
     999900   -1    0    0    0    0 -0.00000000000E+00 -0.00000000000E+00 -0.74505805969E-08  0.93827000000E+00  0.93827000000E+00 0.  1.
     999902    2    1    2    0    0  0.16782653507E-01 -0.80515925143E-02 -0.15988834914E-01  0.10193916944E+01  0.10190963145E+01 0.  0.
     999903    2    3    3    0    0  0.50519084929E-01  0.11432014299E+00  0.26323191622E-01  0.12927749045E+00  0.19962116195E-01 0.  0.
         14    1    1    2    0    0 -0.16782653507E-01  0.80515925143E-02  0.15988834914E-01  0.24538305619E-01  0.00000000000E+00 0. -1.
     999901    1    3    3    0    0 -0.33736431422E-01 -0.12237173551E+00 -0.42312026535E-01  0.89011420393E+00  0.88000000000E+00 0.  1.
        -11    1    4    4    0    0  0.44569469317E-01  0.79419046208E-01  0.21123179037E-01  0.93489423516E-01  0.51100000000E-03 0.  1.
         11    1    4    4    0    0  0.59496156124E-02  0.34901096785E-01  0.52000125854E-02  0.35788066930E-01  0.51100000000E-03 0. -1.
</event>
<event>
 8    1  0.1097777E+005  0.1043930E+01  0.7957747E-01            NaN
         13   -1    0    0    0    0  0.00000000000E+00  0.00000000000E+00  0.74505805969E-08  0.10566000000E+00  0.10566000000E+00 0. -1.
     999900   -1    0    0    0    0 -0.00000000000E+00 -0.00000000000E+00 -0.74505805969E-08  0.93827000000E+00  0.93827000000E+00 0.  1.
     999902    2    1    2    0    0 -0.23350601347E-01  0.54943795665E-02 -0.14807085730E-02  0.10198960389E+01  0.10196128181E+01 0.  0.
     999903    2    3    3    0    0  0.41939058503E-01  0.36166768491E-01  0.11505586837E+00  0.12928708489E+00  0.20257781281E-01 0.  0.
         14    1    1    2    0    0  0.23350601347E-01 -0.54943795665E-02  0.14807085730E-02  0.24033961137E-01  0.00000000000E+00 0. -1.
     999901    1    3    3    0    0 -0.65289659850E-01 -0.30672388925E-01 -0.11653657694E+00  0.89060895397E+00  0.88000000000E+00 0.  1.
        -11    1    4    4    0    0  0.24506671022E-01  0.92266747316E-02  0.42060689363E-01  0.49548674673E-01  0.51100000000E-03 0.  1.
         11    1    4    4    0    0  0.17432387481E-01  0.26940093760E-01  0.72995179008E-01  0.79738410220E-01  0.51100000000E-03 0. -1.
</event>
<event>
 8    1  0.1097777E+005  0.1043930E+01  0.7957747E-01            NaN
         13   -1    0    0    0    0  0.00000000000E+00  0.00000000000E+00  0.74505805969E-08  0.10566000000E+00  0.10566000000E+00 0.  1.
     999900   -1    0    0    0    0 -0.00000000000E+00 -0.00000000000E+00 -0.74505805969E-08  0.93827000000E+00  0.93827000000E+00 0. -1.
     999902    2    1    2    0    0  0.18656335545E-02 -0.15959862871E-01 -0.16735164485E-01  0.10207294926E+01  0.10204657925E+01 0.  0.
     999903    2    3    3    0    0 -0.65469690022E-01 -0.94963847267E-01 -0.63964638665E-01  0.13337032151E+00  0.19792803279E-01 0.  0.
         14    1    1    2    0    0 -0.18656335545E-02  0.15959862871E-01  0.16735164485E-01  0.23200507360E-01  0.00000000000E+00 0.  1.
     999901    1    3    3    0    0  0.67335323577E-01  0.79003984396E-01  0.47229474181E-01  0.88735917113E+00  0.88000000000E+00 0.  1.
        -11    1    4    4    0    0 -0.53550307661E-01 -0.61926444851E-01 -0.43266954775E-01  0.92600272780E-01  0.51100000000E-03 0.  1.
         11    1    4    4    0    0 -0.11919382361E-01 -0.33037402417E-01 -0.20697683890E-01  0.40770048734E-01  0.51100000000E-03 0. -1.
</event>
<event>
 8    1  0.1097777E+005  0.1043930E+01  0.7957747E-01            NaN
         13   -1    0    0    0    0  0.00000000000E+00  0.00000000000E+00  0.74505805969E-08  0.10566000000E+00  0.10566000000E+00 0.  1.
     999900   -1    0    0    0    0 -0.00000000000E+00 -0.00000000000E+00 -0.74505805969E-08  0.93827000000E+00  0.93827000000E+00 0.  1.
     999902    2    1    2    0    0 -0.23389083486E-02 -0.14400165129E-01  0.18070574077E-01  0.10207054248E+01  0.10204411709E+01 0.  0.
     999903    2    3    3    0    0  0.29768373391E-02 -0.76921730959E-02  0.13159670120E+00  0.13337153278E+00  0.20055994102E-01 0.  0.
         14    1    1    2    0    0  0.23389083486E-02  0.14400165129E-01 -0.18070574077E-01  0.23224575249E-01  0.00000000000E+00 0. -1.
     999901    1    3    3    0    0 -0.53157456877E-02 -0.67079920327E-02 -0.11352612713E+00  0.88733389198E+00  0.88000000000E+00 0.  1.
        -11    1    4    4    0    0  0.47321724668E-02 -0.13039989396E-01  0.61491080324E-01  0.63038471271E-01  0.51100000000E-03 0. -1.
         11    1    4    4    0    0 -0.17553351277E-02  0.53478163002E-02  0.70105620880E-01  0.70333061504E-01  0.51100000000E-03 0.  1.
</event>
<event>
 8    1  0.1097777E+005  0.1043930E+01  0.7957747E-01            NaN
         13   -1    0    0    0    0  0.00000000000E+00  0.00000000000E+00  0.74505805969E-08  0.10566000000E+00  0.10566000000E+00 0.  1.
     999900   -1    0    0    0    0 -0.00000000000E+00 -0.00000000000E+00 -0.74505805969E-08  0.93827000000E+00  0.93827000000E+00 0. -1.
     999902    2    1    2    0    0  0.70589605574E-02  0.10422501799E-01  0.19978226724E-01  0.10203167196E+01  0.10200434409E+01 0.  0.
     999903    2    3    3    0    0 -0.21821434668E-01 -0.19091169535E-01  0.12795183207E+00  0.13275633660E+00  0.20295955610E-01 0.  0.
         14    1    1    2    0    0 -0.70589605574E-02 -0.10422501799E-01 -0.19978226724E-01  0.23613280393E-01  0.00000000000E+00 0. -1.
     999901    1    3    3    0    0  0.28880395225E-01  0.29513671335E-01 -0.10797360534E+00  0.88756038300E+00  0.88000000000E+00 0. -1.
        -11    1    4    4    0    0 -0.55629023131E-02 -0.15568831604E-01  0.86877192457E-01  0.88437786550E-01  0.51100000000E-03 0. -1.
         11    1    4    4    0    0 -0.16258532355E-01 -0.35223379312E-02  0.41074639610E-01  0.44318550054E-01  0.51100000000E-03 0.  1.
</event>
<event>
 8    1  0.1097777E+005  0.1043930E+01  0.7957747E-01            NaN
         13   -1    0    0    0    0  0.00000000000E+00  0.00000000000E+00  0.74505805969E-08  0.10566000000E+00  0.10566000000E+00 0. -1.
     999900   -1    0    0    0    0 -0.00000000000E+00 -0.00000000000E+00 -0.74505805969E-08  0.93827000000E+00  0.93827000000E+00 0. -1.
     999902    2    1    2    0    0  0.12802797285E-01 -0.15841701067E-01  0.14085308753E-01  0.10191657711E+01  0.10188648595E+01 0.  0.
     999903    2    3    3    0    0  0.96195659539E-01 -0.53407720333E-01 -0.67575969152E-01  0.13066470773E+00  0.20019109217E-01 0.  0.
         14    1    1    2    0    0 -0.12802797285E-01  0.15841701067E-01 -0.14085308753E-01  0.24764228914E-01  0.00000000000E+00 0. -1.
     999901    1    3    3    0    0 -0.83392862253E-01  0.37566019266E-01  0.81661277905E-01  0.88850106336E+00  0.88000000000E+00 0.  1.
        -11    1    4    4    0    0  0.14979458967E-01 -0.37045444376E-02 -0.16556660564E-01  0.22638285502E-01  0.51100000000E-03 0. -1.
         11    1    4    4    0    0  0.81216200572E-01 -0.49703175895E-01 -0.51019308588E-01  0.10802642223E+00  0.51100000000E-03 0.  1.
</event>
<event>
 8    1  0.1097777E+005  0.1043930E+01  0.7957747E-01            NaN
         13   -1    0    0    0    0  0.00000000000E+00  0.00000000000E+00  0.74505805969E-08  0.10566000000E+00  0.10566000000E+00 0. -1.
     999900   -1    0    0    0    0 -0.00000000000E+00 -0.00000000000E+00 -0.74505805969E-08  0.93827000000E+00  0.93827000000E+00 0.  1.
     999902    2    1    2    0    0  0.16174822752E-03 -0.21174710232E-01 -0.10869099879E-01  0.10201280705E+01  0.10198503559E+01 0.  0.
     999903    2    3    3    0    0  0.24283379929E-01  0.12271716332E+00 -0.18476966437E-01  0.12808289001E+00  0.20362802155E-01 0.  0.
         14    1    1    2    0    0 -0.16174822752E-03  0.21174710232E-01  0.10869099879E-01  0.23801929503E-01  0.00000000000E+00 0. -1.
     999901    1    3    3    0    0 -0.24121631701E-01 -0.14389187355E+00  0.76078665582E-02  0.89204518048E+00  0.88000000000E+00 0.  1.
        -11    1    4    4    0    0  0.10943509985E-01  0.94167035215E-01 -0.18370600221E-01  0.96565682338E-01  0.51100000000E-03 0.  1.
         11    1    4    4    0    0  0.13339869943E-01  0.28550128105E-01 -0.10636621611E-03  0.31517207676E-01  0.51100000000E-03 0. -1.
</event>
<event>
 8    1  0.1097777E+005  0.1043930E+01  0.7957747E-01            NaN
         13   -1    0    0    0    0  0.00000000000E+00  0.00000000000E+00  0.74505805969E-08  0.10566000000E+00  0.10566000000E+00 0. -1.
     999900   -1    0    0    0    0 -0.00000000000E+00 -0.00000000000E+00 -0.74505805969E-08  0.93827000000E+00  0.93827000000E+00 0.  1.
     999902    2    1    2    0    0 -0.14629329115E-01  0.18729235259E-01 -0.32923562381E-02  0.10199374776E+01  0.10196552442E+01 0.  0.
     999903    2    3    3    0    0 -0.11583243393E+00  0.59171098708E-01  0.19761428996E-01  0.13291487933E+00  0.18907125614E-01 0.  0.
         14    1    1    2    0    0  0.14629329115E-01 -0.18729235259E-01  0.32923562381E-02  0.23992522446E-01  0.00000000000E+00 0. -1.
     999901    1    3    3    0    0  0.10120310482E+00 -0.40441863449E-01 -0.23053785234E-01  0.88702259822E+00  0.88000000000E+00 0.  1.
        -11    1    4    4    0    0 -0.81620336225E-01  0.31714141049E-01  0.12989879487E-01  0.88524935007E-01  0.51100000000E-03 0. -1.
         11    1    4    4    0    0 -0.34212097706E-01  0.27456957659E-01  0.67715495094E-02  0.44389944324E-01  0.51100000000E-03 0.  1.
</event>
<event>
 8    1  0.1097777E+005  0.1043930E+01  0.7957747E-01            NaN
         13   -1    0    0    0    0  0.00000000000E+00  0.00000000000E+00  0.74505805969E-08  0.10566000000E+00  0.10566000000E+00 0.  1.
     999900   -1    0    0    0    0 -0.00000000000E+00 -0.00000000000E+00 -0.74505805969E-08  0.93827000000E+00  0.93827000000E+00 0. -1.
     999902    2    1    2    0    0  0.12837795448E-01 -0.85683359434E-02 -0.17960780274E-01  0.10202484671E+01  0.10199735877E+01 0.  0.
     999903    2    3    3    0    0 -0.10202690778E+00 -0.66211368093E-01 -0.43454954500E-01  0.13054819615E+00  0.19001664959E-01 0.  0.
         14    1    1    2    0    0 -0.12837795448E-01  0.85683359434E-02  0.17960780274E-01  0.23681532908E-01  0.00000000000E+00 0.  1.
     999901    1    3    3    0    0  0.11486470322E+00  0.57643032150E-01  0.25494174227E-01  0.88970027095E+00  0.88000000000E+00 0.  1.
        -11    1    4    4    0    0 -0.70480944990E-01 -0.55506571748E-01 -0.33657138015E-01  0.95820703265E-01  0.51100000000E-03 0.  1.
         11    1    4    4    0    0 -0.31545962787E-01 -0.10704796345E-01 -0.97978164849E-02  0.34727492881E-01  0.51100000000E-03 0. -1.
</event>
<event>
 8    1  0.1097777E+005  0.1043930E+01  0.7957747E-01            NaN
         13   -1    0    0    0    0  0.00000000000E+00  0.00000000000E+00  0.74505805969E-08  0.10566000000E+00  0.10566000000E+00 0. -1.
     999900   -1    0    0    0    0 -0.00000000000E+00 -0.00000000000E+00 -0.74505805969E-08  0.93827000000E+00  0.93827000000E+00 0.  1.
     999902    2    1    2    0    0 -0.36683904016E-02  0.22811643402E-01 -0.27759993705E-02  0.10206591097E+01  0.10203937886E+01 0.  0.
     999903    2    3    3    0    0  0.10528215780E+00 -0.53615223776E-01 -0.47990585536E-01  0.12950500026E+00  0.22572634328E-01 0.  0.
         14    1    1    2    0    0  0.36683904016E-02 -0.22811643402E-01  0.27759993705E-02  0.23270890299E-01  0.00000000000E+00 0.  1.
     999901    1    3    3    0    0 -0.10895054820E+00  0.76426867178E-01  0.45214586165E-01  0.89115410945E+00  0.88000000000E+00 0. -1.
        -11    1    4    4    0    0  0.62076460364E-01 -0.19075987215E-01 -0.27222166208E-01  0.70417949938E-01  0.51100000000E-03 0. -1.
         11    1    4    4    0    0  0.43205697432E-01 -0.34539236561E-01 -0.20768419328E-01  0.59087050317E-01  0.51100000000E-03 0.  1.
</event>
<event>
 8    1  0.1097777E+005  0.1043930E+01  0.7957747E-01            NaN
         13   -1    0    0    0    0  0.00000000000E+00  0.00000000000E+00  0.74505805969E-08  0.10566000000E+00  0.10566000000E+00 0.  1.
     999900   -1    0    0    0    0 -0.00000000000E+00 -0.00000000000E+00 -0.74505805969E-08  0.93827000000E+00  0.93827000000E+00 0. -1.
     999902    2    1    2    0    0  0.14542030474E-01 -0.67970462789E-02 -0.17468205743E-01  0.10202064105E+01  0.10199305424E+01 0.  0.
     999903    2    3    3    0    0 -0.72280631498E-01  0.99847366973E-01  0.29465238652E-01  0.12829052110E+00  0.19906560051E-01 0.  0.
         14    1    1    2    0    0 -0.14542030474E-01  0.67970462789E-02  0.17468205743E-01  0.23723589532E-01  0.00000000000E+00 0.  1.
     999901    1    3    3    0    0  0.86822661972E-01 -0.10664441325E+00 -0.46933444396E-01  0.89191588937E+00  0.88000000000E+00 0. -1.
        -11    1    4    4    0    0 -0.18813288413E-01  0.17929755265E-01  0.13096454970E-01  0.29106600601E-01  0.51100000000E-03 0. -1.
         11    1    4    4    0    0 -0.53467343085E-01  0.81917611709E-01  0.16368783683E-01  0.99183920496E-01  0.51100000000E-03 0.  1.
</event>
<event>
 8    1  0.1097777E+005  0.1043930E+01  0.7957747E-01            NaN
         13   -1    0    0    0    0  0.00000000000E+00  0.00000000000E+00  0.74505805969E-08  0.10566000000E+00  0.10566000000E+00 0. -1.
     999900   -1    0    0    0    0 -0.00000000000E+00 -0.00000000000E+00 -0.74505805969E-08  0.93827000000E+00  0.93827000000E+00 0. -1.
     999902    2    1    2    0    0  0.14844859254E-01 -0.13998436203E-01  0.14013953951E-01  0.10191768796E+01  0.10188762413E+01 0.  0.
     999903    2    3    3    0    0  0.10611605375E+00 -0.73119054655E-01  0.22910735495E-01  0.13243856920E+00  0.20200489972E-01 0.  0.
         14    1    1    2    0    0 -0.14844859254E-01  0.13998436203E-01 -0.14013953951E-01  0.24753120364E-01  0.00000000000E+00 0.  1.
     999901    1    3    3    0    0 -0.91271194492E-01  0.59120618452E-01 -0.88967815441E-02  0.88673831043E+00  0.88000000000E+00 0. -1.
        -11    1    4    4    0    0  0.60917727227E-01 -0.53458930222E-01  0.16759677957E-01  0.82764573564E-01  0.51100000000E-03 0.  1.
         11    1    4    4    0    0  0.45198326519E-01 -0.19660124433E-01  0.61510575388E-02  0.49673995638E-01  0.51100000000E-03 0. -1.
</event>
<event>
 8    1  0.1097777E+005  0.1043930E+01  0.7957747E-01            NaN
         13   -1    0    0    0    0  0.00000000000E+00  0.00000000000E+00  0.74505805969E-08  0.10566000000E+00  0.10566000000E+00 0. -1.
     999900   -1    0    0    0    0 -0.00000000000E+00 -0.00000000000E+00 -0.74505805969E-08  0.93827000000E+00  0.93827000000E+00 0.  1.
     999902    2    1    2    0    0 -0.40198931788E-02  0.19835323941E-01 -0.11447213440E-01  0.10206783697E+01  0.10204134927E+01 0.  0.
     999903    2    3    3    0    0  0.12726788803E-01 -0.73781271018E-01 -0.10513637506E+00  0.13060973344E+00  0.19989947527E-01 0.  0.
         14    1    1    2    0    0  0.40198931788E-02 -0.19835323941E-01  0.11447213440E-01  0.23251630321E-01  0.00000000000E+00 0. -1.
     999901    1    3    3    0    0 -0.16746681981E-01  0.93616594959E-01  0.93689161622E-01  0.89006863624E+00  0.88000000000E+00 0. -1.
        -11    1    4    4    0    0  0.98288349442E-02 -0.13576151916E-01 -0.17421229387E-01  0.24180121000E-01  0.51100000000E-03 0.  1.
         11    1    4    4    0    0  0.28979538585E-02 -0.60205119102E-01 -0.87715145676E-01  0.10642961244E+00  0.51100000000E-03 0. -1.
</event>
<event>
 8    1  0.1097777E+005  0.1043930E+01  0.7957747E-01            NaN
         13   -1    0    0    0    0  0.00000000000E+00  0.00000000000E+00  0.74505805969E-08  0.10566000000E+00  0.10566000000E+00 0.  1.
     999900   -1    0    0    0    0 -0.00000000000E+00 -0.00000000000E+00 -0.74505805969E-08  0.93827000000E+00  0.93827000000E+00 0. -1.
     999902    2    1    2    0    0  0.24191674548E-02 -0.17691612331E-01 -0.17868547876E-01  0.10186687546E+01  0.10183554885E+01 0.  0.
     999903    2    3    3    0    0 -0.63146629957E-02 -0.95268706873E-01  0.84596517429E-01  0.12929055885E+00  0.21058878628E-01 0.  0.
         14    1    1    2    0    0 -0.24191674548E-02  0.17691612331E-01  0.17868547876E-01  0.25261245441E-01  0.00000000000E+00 0.  1.
     999901    1    3    3    0    0  0.87338304505E-02  0.77577094542E-01 -0.10246506530E+00  0.88937819571E+00  0.88000000000E+00 0. -1.
        -11    1    4    4    0    0 -0.11656375108E-01 -0.79358277733E-01  0.63355537706E-01  0.10221444421E+00  0.51100000000E-03 0.  1.
         11    1    4    4    0    0  0.53417121118E-02 -0.15910429140E-01  0.21240979722E-01  0.27076114645E-01  0.51100000000E-03 0. -1.
</event>
<event>
 8    1  0.1097777E+005  0.1043930E+01  0.7957747E-01            NaN
         13   -1    0    0    0    0  0.00000000000E+00  0.00000000000E+00  0.74505805969E-08  0.10566000000E+00  0.10566000000E+00 0. -1.
     999900   -1    0    0    0    0 -0.00000000000E+00 -0.00000000000E+00 -0.74505805969E-08  0.93827000000E+00  0.93827000000E+00 0. -1.
     999902    2    1    2    0    0  0.13765868596E-01  0.17741662483E-01  0.59301844749E-02  0.10207043070E+01  0.10204400274E+01 0.  0.
     999903    2    3    3    0    0  0.60708109346E-01  0.58938268086E-01  0.10009256879E+00  0.13347982084E+00  0.25281342099E-01 0.  0.
         14    1    1    2    0    0 -0.13765868596E-01 -0.17741662483E-01 -0.59301844749E-02  0.23225692967E-01  0.00000000000E+00 0. -1.
     999901    1    3    3    0    0 -0.46942240750E-01 -0.41196605603E-01 -0.94162384319E-01  0.88722448619E+00  0.88000000000E+00 0. -1.
        -11    1    4    4    0    0  0.35164126088E-01  0.33486487257E-01  0.75718585531E-01  0.89952353545E-01  0.51100000000E-03 0.  1.
         11    1    4    4    0    0  0.25543983258E-01  0.25451780829E-01  0.24373983263E-01  0.43527467296E-01  0.51100000000E-03 0. -1.
</event>
<event>
 8    1  0.1097777E+005  0.1043930E+01  0.7957747E-01            NaN
         13   -1    0    0    0    0  0.00000000000E+00  0.00000000000E+00  0.74505805969E-08  0.10566000000E+00  0.10566000000E+00 0. -1.
     999900   -1    0    0    0    0 -0.00000000000E+00 -0.00000000000E+00 -0.74505805969E-08  0.93827000000E+00  0.93827000000E+00 0. -1.
     999902    2    1    2    0    0 -0.17943968901E-01  0.15321061597E-01 -0.26528259292E-02  0.10201864023E+01  0.10199100632E+01 0.  0.
     999903    2    3    3    0    0 -0.21418385974E-01 -0.74462916991E-01  0.10203256476E+00  0.12943825300E+00  0.18442987899E-01 0.  0.
         14    1    1    2    0    0  0.17943968901E-01 -0.15321061597E-01  0.26528259292E-02  0.23743597743E-01  0.00000000000E+00 0.  1.
     999901    1    3    3    0    0  0.34744170724E-02  0.89783978588E-01 -0.10468539069E+00  0.89074814926E+00  0.88000000000E+00 0.  1.
        -11    1    4    4    0    0 -0.22565612318E-02 -0.27895675241E-01  0.48087926927E-01  0.55641446808E-01  0.51100000000E-03 0. -1.
         11    1    4    4    0    0 -0.19161824742E-01 -0.46567241750E-01  0.53944637835E-01  0.73796806189E-01  0.51100000000E-03 0.  1.
</event>
<event>
 8    1  0.1097777E+005  0.1043930E+01  0.7957747E-01            NaN
         13   -1    0    0    0    0  0.00000000000E+00  0.00000000000E+00  0.74505805969E-08  0.10566000000E+00  0.10566000000E+00 0. -1.
     999900   -1    0    0    0    0 -0.00000000000E+00 -0.00000000000E+00 -0.74505805969E-08  0.93827000000E+00  0.93827000000E+00 0.  1.
     999902    2    1    2    0    0  0.31914639790E-02  0.19572328329E-01  0.12645436557E-01  0.10204104646E+01  0.10201393766E+01 0.  0.
     999903    2    3    3    0    0  0.12342838272E+00  0.39118171465E-01  0.12505536856E-01  0.13201923539E+00  0.22536482879E-01 0.  0.
         14    1    1    2    0    0 -0.31914639790E-02 -0.19572328329E-01 -0.12645436557E-01  0.23519535375E-01  0.00000000000E+00 0.  1.
     999901    1    3    3    0    0 -0.12023691874E+00 -0.19545843136E-01  0.13989970092E-03  0.88839122924E+00  0.88000000000E+00 0. -1.
        -11    1    4    4    0    0  0.37862405339E-01  0.12189738362E-01 -0.65438005436E-02  0.40314189884E-01  0.51100000000E-03 0.  1.
         11    1    4    4    0    0  0.85565977381E-01  0.26928433103E-01  0.19049337400E-01  0.91705045505E-01  0.51100000000E-03 0. -1.
</event>
<event>
 8    1  0.1097777E+005  0.1043930E+01  0.7957747E-01            NaN
         13   -1    0    0    0    0  0.00000000000E+00  0.00000000000E+00  0.74505805969E-08  0.10566000000E+00  0.10566000000E+00 0.  1.
     999900   -1    0    0    0    0 -0.00000000000E+00 -0.00000000000E+00 -0.74505805969E-08  0.93827000000E+00  0.93827000000E+00 0.  1.
     999902    2    1    2    0    0  0.73689480188E-02 -0.22329308351E-01 -0.67753711023E-02  0.10194595063E+01  0.10191657765E+01 0.  0.
     999903    2    3    3    0    0  0.80315980487E-01 -0.10342516737E+00  0.57361300796E-02  0.13263689411E+00  0.20303214634E-01 0.  0.
         14    1    1    2    0    0 -0.73689480188E-02  0.22329308351E-01  0.67753711023E-02  0.24470493659E-01  0.00000000000E+00 0.  1.
     999901    1    3    3    0    0 -0.72947032468E-01  0.81095859021E-01 -0.12511501182E-01  0.88682261223E+00  0.88000000000E+00 0. -1.
        -11    1    4    4    0    0  0.66016287546E-01 -0.95060617185E-01  0.74391442305E-02  0.11597531267E+00  0.51100000000E-03 0.  1.
         11    1    4    4    0    0  0.14299692941E-01 -0.83645501865E-02 -0.17030141509E-02  0.16661581444E-01  0.51100000000E-03 0. -1.
</event>
<event>
 8    1  0.1097777E+005  0.1043930E+01  0.7957747E-01            NaN
         13   -1    0    0    0    0  0.00000000000E+00  0.00000000000E+00  0.74505805969E-08  0.10566000000E+00  0.10566000000E+00 0. -1.
     999900   -1    0    0    0    0 -0.00000000000E+00 -0.00000000000E+00 -0.74505805969E-08  0.93827000000E+00  0.93827000000E+00 0. -1.
     999902    2    1    2    0    0 -0.26064625528E-01 -0.32758329156E-03 -0.21039148232E-02  0.10177785474E+01  0.10174425159E+01 0.  0.
     999903    2    3    3    0    0 -0.14661225076E-01 -0.68922257257E-01 -0.10664871299E+00  0.12886635734E+00  0.16351177473E-01 0.  0.
         14    1    1    2    0    0  0.26064625528E-01  0.32758329156E-03  0.21039148232E-02  0.26151452585E-01  0.00000000000E+00 0. -1.
     999901    1    3    3    0    0 -0.11403400451E-01  0.68594673966E-01  0.10454479817E+00  0.88891219007E+00  0.88000000000E+00 0.  1.
        -11    1    4    4    0    0 -0.75367649741E-02 -0.35421932603E-01 -0.69266437550E-01  0.78164036663E-01  0.51100000000E-03 0.  1.
         11    1    4    4    0    0 -0.71244601022E-02 -0.33500324655E-01 -0.37382275445E-01  0.50702320678E-01  0.51100000000E-03 0. -1.
</event>
<event>
 8    1  0.1097777E+005  0.1043930E+01  0.7957747E-01            NaN
         13   -1    0    0    0    0  0.00000000000E+00  0.00000000000E+00  0.74505805969E-08  0.10566000000E+00  0.10566000000E+00 0.  1.
     999900   -1    0    0    0    0 -0.00000000000E+00 -0.00000000000E+00 -0.74505805969E-08  0.93827000000E+00  0.93827000000E+00 0. -1.
     999902    2    1    2    0    0  0.61139904405E-02  0.22890474727E-01  0.42662638064E-02  0.10198560365E+01  0.10195718609E+01 0.  0.
     999903    2    3    3    0    0 -0.11449116205E+00  0.12991053141E-01  0.56826873656E-01  0.13002109726E+00  0.19979952851E-01 0.  0.
         14    1    1    2    0    0 -0.61139904405E-02 -0.22890474727E-01 -0.42662638064E-02  0.24073963513E-01  0.00000000000E+00 0.  1.
     999901    1    3    3    0    0  0.12060515249E+00  0.98994215857E-02 -0.52560609850E-01  0.88983493922E+00  0.88000000000E+00 0. -1.
        -11    1    4    4    0    0 -0.35301802000E-01 -0.36564093692E-03  0.85854255523E-02  0.36336229451E-01  0.51100000000E-03 0. -1.
         11    1    4    4    0    0 -0.79189360046E-01  0.13356694078E-01  0.48241448104E-01  0.93684867814E-01  0.51100000000E-03 0.  1.
</event>
<event>
 8    1  0.1097777E+005  0.1043930E+01  0.7957747E-01            NaN
         13   -1    0    0    0    0  0.00000000000E+00  0.00000000000E+00  0.74505805969E-08  0.10566000000E+00  0.10566000000E+00 0.  1.
     999900   -1    0    0    0    0 -0.00000000000E+00 -0.00000000000E+00 -0.74505805969E-08  0.93827000000E+00  0.93827000000E+00 0.  1.
     999902    2    1    2    0    0  0.90096840351E-02 -0.88716448244E-02  0.20427827482E-01  0.10199054995E+01  0.10196225043E+01 0.  0.
     999903    2    3    3    0    0  0.74766254272E-01 -0.98829513613E-01  0.43790804950E-01  0.13257119193E+00  0.17326880642E-01 0.  0.
         14    1    1    2    0    0 -0.90096840351E-02  0.88716448244E-02 -0.20427827482E-01  0.24024500493E-01  0.00000000000E+00 0.  1.
     999901    1    3    3    0    0 -0.65756570237E-01  0.89957868789E-01 -0.23362977468E-01  0.88733430758E+00  0.88000000000E+00 0.  1.
        -11    1    4    4    0    0  0.35419423896E-01 -0.60872361830E-01  0.26030507859E-01  0.75085474522E-01  0.51100000000E-03 0. -1.
         11    1    4    4    0    0  0.39346830376E-01 -0.37957151783E-01  0.17760297091E-01  0.57485717408E-01  0.51100000000E-03 0.  1.
</event>
<event>
 8    1  0.1097777E+005  0.1043930E+01  0.7957747E-01            NaN
         13   -1    0    0    0    0  0.00000000000E+00  0.00000000000E+00  0.74505805969E-08  0.10566000000E+00  0.10566000000E+00 0. -1.
     999900   -1    0    0    0    0 -0.00000000000E+00 -0.00000000000E+00 -0.74505805969E-08  0.93827000000E+00  0.93827000000E+00 0. -1.
     999902    2    1    2    0    0  0.15170111762E-01 -0.16163799578E-01 -0.80263860046E-02  0.10203540890E+01  0.10200816846E+01 0.  0.
     999903    2    3    3    0    0  0.27758204386E-02 -0.64814850551E-02 -0.13001080826E+00  0.13180045249E+00  0.20465438785E-01 0.  0.
         14    1    1    2    0    0 -0.15170111762E-01  0.16163799578E-01  0.80263860046E-02  0.23575911010E-01  0.00000000000E+00 0.  1.
     999901    1    3    3    0    0  0.12394291323E-01 -0.96823145225E-02  0.12198442225E+00  0.88855363650E+00  0.88000000000E+00 0.  1.
        -11    1    4    4    0    0  0.94755493199E-02 -0.49721440948E-02 -0.11210935924E+00  0.11262005950E+00  0.51100000000E-03 0.  1.
         11    1    4    4    0    0 -0.66997288813E-02 -0.15093409603E-02 -0.17901449020E-01  0.19180392990E-01  0.51100000000E-03 0. -1.
</event>
<event>
 8    1  0.1097777E+005  0.1043930E+01  0.7957747E-01            NaN
         13   -1    0    0    0    0  0.00000000000E+00  0.00000000000E+00  0.74505805969E-08  0.10566000000E+00  0.10566000000E+00 0.  1.
     999900   -1    0    0    0    0 -0.00000000000E+00 -0.00000000000E+00 -0.74505805969E-08  0.93827000000E+00  0.93827000000E+00 0. -1.
     999902    2    1    2    0    0  0.67556043097E-02 -0.19217722584E-01  0.81032728807E-02  0.10220069053E+01  0.10217717418E+01 0.  0.
     999903    2    3    3    0    0  0.50926637450E-01 -0.10883392119E+00  0.58240090695E-01  0.13493540662E+00  0.19424494659E-01 0.  0.
         14    1    1    2    0    0 -0.67556043097E-02  0.19217722584E-01 -0.81032728807E-02  0.21923094725E-01  0.00000000000E+00 0. -1.
     999901    1    3    3    0    0 -0.44171033140E-01  0.89616198606E-01 -0.50136817815E-01  0.88707149865E+00  0.88000000000E+00 0.  1.
        -11    1    4    4    0    0  0.21363396848E-01 -0.59611549327E-01  0.39026257349E-01  0.74385760880E-01  0.51100000000E-03 0. -1.
         11    1    4    4    0    0  0.29563240602E-01 -0.49222371863E-01  0.19213833346E-01  0.60549645743E-01  0.51100000000E-03 0.  1.
</event>
<event>
 8    1  0.1097777E+005  0.1043930E+01  0.7957747E-01            NaN
         13   -1    0    0    0    0  0.00000000000E+00  0.00000000000E+00  0.74505805969E-08  0.10566000000E+00  0.10566000000E+00 0. -1.
     999900   -1    0    0    0    0 -0.00000000000E+00 -0.00000000000E+00 -0.74505805969E-08  0.93827000000E+00  0.93827000000E+00 0.  1.
     999902    2    1    2    0    0  0.16990006768E-01  0.13924720775E-01 -0.79723470107E-02  0.10205608645E+01  0.10202932723E+01 0.  0.
     999903    2    3    3    0    0  0.78921222414E-01  0.10584839667E+00  0.36067042199E-02  0.13353239137E+00  0.19632850115E-01 0.  0.
         14    1    1    2    0    0 -0.16990006768E-01 -0.13924720775E-01  0.79723470107E-02  0.23369135531E-01  0.00000000000E+00 0.  1.
     999901    1    3    3    0    0 -0.61931215646E-01 -0.91923675899E-01 -0.11579051231E-01  0.88702847310E+00  0.88000000000E+00 0.  1.
        -11    1    4    4    0    0  0.59001453387E-01  0.79400192949E-01  0.11209495653E-01  0.99556396359E-01  0.51100000000E-03 0. -1.
         11    1    4    4    0    0  0.19919769026E-01  0.26448203725E-01 -0.76027914335E-02  0.33975995010E-01  0.51100000000E-03 0.  1.
</event>
<event>
 8    1  0.1097777E+005  0.1043930E+01  0.7957747E-01            NaN
         13   -1    0    0    0    0  0.00000000000E+00  0.00000000000E+00  0.74505805969E-08  0.10566000000E+00  0.10566000000E+00 0. -1.
     999900   -1    0    0    0    0 -0.00000000000E+00 -0.00000000000E+00 -0.74505805969E-08  0.93827000000E+00  0.93827000000E+00 0.  1.
     999902    2    1    2    0    0  0.78254490501E-02 -0.14906060944E-01 -0.16274482648E-01  0.10205144690E+01  0.10202458010E+01 0.  0.
     999903    2    3    3    0    0  0.53419905924E-01  0.96571590547E-01  0.64560152678E-01  0.12863983683E+00  0.14157537033E-01 0.  0.
         14    1    1    2    0    0 -0.78254490501E-02  0.14906060944E-01  0.16274482648E-01  0.23415530982E-01  0.00000000000E+00 0. -1.
     999901    1    3    3    0    0 -0.45594456874E-01 -0.11147765149E+00 -0.80834635326E-01  0.89187463219E+00  0.88000000000E+00 0.  1.
        -11    1    4    4    0    0  0.23828963777E-01  0.31575658390E-01  0.27494735272E-01  0.48177414897E-01  0.51100000000E-03 0. -1.
         11    1    4    4    0    0  0.29590942147E-01  0.64995932157E-01  0.37065417407E-01  0.80462421929E-01  0.51100000000E-03 0.  1.
</event>
<event>
 8    1  0.1097777E+005  0.1043930E+01  0.7957747E-01            NaN
         13   -1    0    0    0    0  0.00000000000E+00  0.00000000000E+00  0.74505805969E-08  0.10566000000E+00  0.10566000000E+00 0.  1.
     999900   -1    0    0    0    0 -0.00000000000E+00 -0.00000000000E+00 -0.74505805969E-08  0.93827000000E+00  0.93827000000E+00 0. -1.
     999902    2    1    2    0    0  0.60182129771E-03  0.67806095988E-02  0.21333002050E-01  0.10215372371E+01  0.10212917756E+01 0.  0.
     999903    2    3    3    0    0 -0.10989727133E+00  0.10901345869E-01  0.71698761141E-01  0.13318835311E+00  0.20054312909E-01 0.  0.
         14    1    1    2    0    0 -0.60182129771E-03 -0.67806095988E-02 -0.21333002050E-01  0.22392762936E-01  0.00000000000E+00 0. -1.
     999901    1    3    3    0    0  0.11049909263E+00 -0.41207362707E-02 -0.50365759090E-01  0.88834888396E+00  0.88000000000E+00 0. -1.
        -11    1    4    4    0    0 -0.33496709015E-01  0.42215984598E-03  0.11727116957E-01  0.35496395970E-01  0.51100000000E-03 0. -1.
         11    1    4    4    0    0 -0.76400562318E-01  0.10479186023E-01  0.59971644184E-01  0.97691957137E-01  0.51100000000E-03 0.  1.
</event>
<event>
 8    1  0.1097777E+005  0.1043930E+01  0.7957747E-01            NaN
         13   -1    0    0    0    0  0.00000000000E+00  0.00000000000E+00  0.74505805969E-08  0.10566000000E+00  0.10566000000E+00 0.  1.
     999900   -1    0    0    0    0 -0.00000000000E+00 -0.00000000000E+00 -0.74505805969E-08  0.93827000000E+00  0.93827000000E+00 0.  1.
     999902    2    1    2    0    0 -0.27262080977E-01 -0.13291521186E-01 -0.21568513866E-01  0.10067132513E+01  0.10060250911E+01 0.  0.
     999903    2    3    3    0    0 -0.88023360800E-01  0.78114156538E-01 -0.13124918212E-01  0.11985462368E+00  0.18518472976E-01 0.  0.
         14    1    1    2    0    0  0.27262080977E-01  0.13291521186E-01  0.21568513866E-01  0.37216748716E-01  0.00000000000E+00 0.  1.
     999901    1    3    3    0    0  0.60761279824E-01 -0.91405677725E-01 -0.84435956535E-02  0.88685862760E+00  0.88000000000E+00 0.  1.
        -11    1    4    4    0    0 -0.18534731756E-01  0.27361067925E-01 -0.24239167176E-02  0.33140621788E-01  0.51100000000E-03 0. -1.
         11    1    4    4    0    0 -0.69488629045E-01  0.50753088614E-01 -0.10701001495E-01  0.86714001893E-01  0.51100000000E-03 0.  1.
</event>
<event>
 8    1  0.1097777E+005  0.1043930E+01  0.7957747E-01            NaN
         13   -1    0    0    0    0  0.00000000000E+00  0.00000000000E+00  0.74505805969E-08  0.10566000000E+00  0.10566000000E+00 0. -1.
     999900   -1    0    0    0    0 -0.00000000000E+00 -0.00000000000E+00 -0.74505805969E-08  0.93827000000E+00  0.93827000000E+00 0.  1.
     999902    2    1    2    0    0 -0.15476856882E-01 -0.16012208431E-01  0.48008745227E-02  0.10211490361E+01  0.10208948926E+01 0.  0.
     999903    2    3    3    0    0  0.82748306897E-01  0.29123312529E-02  0.98386230026E-01  0.13055118090E+00  0.22538780117E-01 0.  0.
         14    1    1    2    0    0  0.15476856882E-01  0.16012208431E-01 -0.48008745227E-02  0.22780963851E-01  0.00000000000E+00 0.  1.
     999901    1    3    3    0    0 -0.98225163779E-01 -0.18924539684E-01 -0.93585355503E-01  0.89059785524E+00  0.88000000000E+00 0.  1.
        -11    1    4    4    0    0  0.26573808401E-01 -0.95430167415E-02  0.30744595554E-01  0.41745990685E-01  0.51100000000E-03 0.  1.
         11    1    4    4    0    0  0.56174498497E-01  0.12455347994E-01  0.67641634472E-01  0.88805190220E-01  0.51100000000E-03 0. -1.
</event>
<event>
 8    1  0.1097777E+005  0.1043930E+01  0.7957747E-01            NaN
         13   -1    0    0    0    0  0.00000000000E+00  0.00000000000E+00  0.74505805969E-08  0.10566000000E+00  0.10566000000E+00 0. -1.
     999900   -1    0    0    0    0 -0.00000000000E+00 -0.00000000000E+00 -0.74505805969E-08  0.93827000000E+00  0.93827000000E+00 0.  1.
     999902    2    1    2    0    0  0.14099137058E-01  0.40420885186E-02  0.16838367948E-01  0.10215994205E+01  0.10213553354E+01 0.  0.
     999903    2    3    3    0    0  0.11016884912E+00 -0.47910277716E-01  0.55940237639E-01  0.13398610709E+00  0.19758458464E-01 0.  0.
         14    1    1    2    0    0 -0.14099137058E-01 -0.40420885186E-02 -0.16838367948E-01  0.22330579494E-01  0.00000000000E+00 0.  1.
     999901    1    3    3    0    0 -0.96069712057E-01  0.51952366235E-01 -0.39101869691E-01  0.88761331341E+00  0.88000000000E+00 0.  1.
        -11    1    4    4    0    0  0.80144174207E-01 -0.31279172579E-01  0.48849972435E-01  0.98934605798E-01  0.51100000000E-03 0.  1.
         11    1    4    4    0    0  0.30024674909E-01 -0.16631105137E-01  0.70902652039E-02  0.35051501296E-01  0.51100000000E-03 0. -1.
</event>
<event>
 8    1  0.1097777E+005  0.1043930E+01  0.7957747E-01            NaN
         13   -1    0    0    0    0  0.00000000000E+00  0.00000000000E+00  0.74505805969E-08  0.10566000000E+00  0.10566000000E+00 0.  1.
     999900   -1    0    0    0    0 -0.00000000000E+00 -0.00000000000E+00 -0.74505805969E-08  0.93827000000E+00  0.93827000000E+00 0.  1.
     999902    2    1    2    0    0  0.57776353697E-02  0.30898194388E-02  0.21998266319E-01  0.10209767480E+01  0.10207187018E+01 0.  0.
     999903    2    3    3    0    0 -0.12805377437E+00 -0.10575722490E-01  0.12208524565E-01  0.13069958203E+00  0.20584402726E-01 0.  0.
         14    1    1    2    0    0 -0.57776353697E-02 -0.30898194388E-02 -0.21998266319E-01  0.22953251963E-01  0.00000000000E+00 0. -1.
     999901    1    3    3    0    0  0.13383140974E+00  0.13665541929E-01  0.97897417542E-02  0.89027716601E+00  0.88000000000E+00 0. -1.
        -11    1    4    4    0    0 -0.90808015882E-01 -0.15056618683E-02  0.12654887623E-02  0.90830751119E-01  0.51100000000E-03 0.  1.
         11    1    4    4    0    0 -0.37245758484E-01 -0.90700606215E-02  0.10943035803E-01  0.39868830912E-01  0.51100000000E-03 0. -1.
</event>
<event>
 8    1  0.1097777E+005  0.1043930E+01  0.7957747E-01            NaN
         13   -1    0    0    0    0  0.00000000000E+00  0.00000000000E+00  0.74505805969E-08  0.10566000000E+00  0.10566000000E+00 0. -1.
     999900   -1    0    0    0    0 -0.00000000000E+00 -0.00000000000E+00 -0.74505805969E-08  0.93827000000E+00  0.93827000000E+00 0.  1.
     999902    2    1    2    0    0 -0.13912995438E-01 -0.17859251138E-01 -0.67844716450E-02  0.10202962667E+01  0.10200225088E+01 0.  0.
     999903    2    3    3    0    0  0.94404763085E-01  0.73704382976E-01  0.39654857381E-01  0.12773072449E+00  0.19950812027E-01 0.  0.
         14    1    1    2    0    0  0.13912995438E-01  0.17859251138E-01  0.67844716450E-02  0.23633733280E-01  0.00000000000E+00 0. -1.
     999901    1    3    3    0    0 -0.10831775852E+00 -0.91563634114E-01 -0.46439329026E-01  0.89256554223E+00  0.88000000000E+00 0.  1.
        -11    1    4    4    0    0  0.61288424777E-01  0.36642048838E-01  0.18904880234E-01  0.73868574999E-01  0.51100000000E-03 0. -1.
         11    1    4    4    0    0  0.33116338309E-01  0.37062334138E-01  0.20749977147E-01  0.53862149487E-01  0.51100000000E-03 0.  1.
</event>
<event>
 8    1  0.1097777E+005  0.1043930E+01  0.7957747E-01            NaN
         13   -1    0    0    0    0  0.00000000000E+00  0.00000000000E+00  0.74505805969E-08  0.10566000000E+00  0.10566000000E+00 0. -1.
     999900   -1    0    0    0    0 -0.00000000000E+00 -0.00000000000E+00 -0.74505805969E-08  0.93827000000E+00  0.93827000000E+00 0. -1.
     999902    2    1    2    0    0 -0.22296310655E-01 -0.96382685528E-02  0.53227531899E-02  0.10190632875E+01  0.10187598493E+01 0.  0.
     999903    2    3    3    0    0 -0.66242237553E-01  0.10202070803E+00 -0.40627495922E-01  0.12973185493E+00  0.19583203445E-01 0.  0.
         14    1    1    2    0    0  0.22296310655E-01  0.96382685528E-02 -0.53227531899E-02  0.24866712510E-01  0.00000000000E+00 0.  1.
     999901    1    3    3    0    0  0.43945926897E-01 -0.11165897658E+00  0.45950249112E-01  0.88933143256E+00  0.88000000000E+00 0. -1.
        -11    1    4    4    0    0 -0.51786712709E-01  0.76972954791E-01 -0.22058474602E-01  0.95360037778E-01  0.51100000000E-03 0.  1.
         11    1    4    4    0    0 -0.14455524844E-01  0.25047753236E-01 -0.18569021320E-01  0.34371817154E-01  0.51100000000E-03 0. -1.
</event>
<event>
 8    1  0.1097777E+005  0.1043930E+01  0.7957747E-01            NaN
         13   -1    0    0    0    0  0.00000000000E+00  0.00000000000E+00  0.74505805969E-08  0.10566000000E+00  0.10566000000E+00 0.  1.
     999900   -1    0    0    0    0 -0.00000000000E+00 -0.00000000000E+00 -0.74505805969E-08  0.93827000000E+00  0.93827000000E+00 0. -1.
     999902    2    1    2    0    0 -0.70552611559E-02  0.30305982808E-01 -0.10195848326E-01  0.10111857696E+01  0.10106554685E+01 0.  0.
     999903    2    3    3    0    0 -0.64316791979E-01  0.10362778583E+00  0.23096295557E-01  0.12565579460E+00  0.19508257783E-01 0.  0.
         14    1    1    2    0    0  0.70552611559E-02 -0.30305982808E-01  0.10195848326E-01  0.32744230439E-01  0.00000000000E+00 0.  1.
     999901    1    3    3    0    0  0.57261530823E-01 -0.73321803021E-01 -0.33292143883E-01  0.88552997496E+00  0.88000000000E+00 0. -1.
        -11    1    4    4    0    0 -0.31071407275E-01  0.40063291328E-01  0.17756354714E-01  0.53721959344E-01  0.51100000000E-03 0. -1.
         11    1    4    4    0    0 -0.33245384704E-01  0.63564494502E-01  0.53399408423E-02  0.71933835256E-01  0.51100000000E-03 0.  1.
</event>
<event>
 8    1  0.1097777E+005  0.1043930E+01  0.7957747E-01            NaN
         13   -1    0    0    0    0  0.00000000000E+00  0.00000000000E+00  0.74505805969E-08  0.10566000000E+00  0.10566000000E+00 0. -1.
     999900   -1    0    0    0    0 -0.00000000000E+00 -0.00000000000E+00 -0.74505805969E-08  0.93827000000E+00  0.93827000000E+00 0.  1.
     999902    2    1    2    0    0  0.89761398938E-02 -0.19712028259E-01 -0.10347135276E-01  0.10199258680E+01  0.10196433582E+01 0.  0.
     999903    2    3    3    0    0 -0.11682302585E+00 -0.30097814587E-01 -0.45020495129E-01  0.13024303880E+00  0.19567993285E-01 0.  0.
         14    1    1    2    0    0 -0.89761398938E-02  0.19712028259E-01  0.10347135276E-01  0.24004132017E-01  0.00000000000E+00 0. -1.
     999901    1    3    3    0    0  0.12579916575E+00  0.10385786328E-01  0.34673359853E-01  0.88968282918E+00  0.88000000000E+00 0.  1.
        -11    1    4    4    0    0 -0.28072839297E-01 -0.14017705383E-01 -0.59185462958E-02  0.31935414224E-01  0.51100000000E-03 0. -1.
         11    1    4    4    0    0 -0.88750186558E-01 -0.16080109204E-01 -0.39101948833E-01  0.98307624575E-01  0.51100000000E-03 0.  1.
</event>
<event>
 8    1  0.1097777E+005  0.1043930E+01  0.7957747E-01            NaN
         13   -1    0    0    0    0  0.00000000000E+00  0.00000000000E+00  0.74505805969E-08  0.10566000000E+00  0.10566000000E+00 0. -1.
     999900   -1    0    0    0    0 -0.00000000000E+00 -0.00000000000E+00 -0.74505805969E-08  0.93827000000E+00  0.93827000000E+00 0.  1.
     999902    2    1    2    0    0  0.19239053461E-01  0.91391446853E-02 -0.11175774301E-01  0.10198766619E+01  0.10195929788E+01 0.  0.
     999903    2    3    3    0    0  0.10978793775E+00 -0.34140727775E-01  0.57890085971E-01  0.13148353895E+00  0.26789520213E-01 0.  0.
         14    1    1    2    0    0 -0.19239053461E-01 -0.91391446853E-02  0.11175774301E-01  0.24053338123E-01  0.00000000000E+00 0. -1.
     999901    1    3    3    0    0 -0.90548884288E-01  0.43279872461E-01 -0.69065860272E-01  0.88839312293E+00  0.88000000000E+00 0.  1.
        -11    1    4    4    0    0  0.49179108888E-01 -0.21423367715E-01  0.40321310546E-01  0.67108975856E-01  0.51100000000E-03 0. -1.
         11    1    4    4    0    0  0.60608828861E-01 -0.12717360061E-01  0.17568775425E-01  0.64374563095E-01  0.51100000000E-03 0.  1.
</event>
<event>
 8    1  0.1097777E+005  0.1043930E+01  0.7957747E-01            NaN
         13   -1    0    0    0    0  0.00000000000E+00  0.00000000000E+00  0.74505805969E-08  0.10566000000E+00  0.10566000000E+00 0.  1.
     999900   -1    0    0    0    0 -0.00000000000E+00 -0.00000000000E+00 -0.74505805969E-08  0.93827000000E+00  0.93827000000E+00 0. -1.
     999902    2    1    2    0    0 -0.26344774718E-01 -0.95558218065E-02  0.47616348302E-02  0.10155040602E+01  0.10151061335E+01 0.  0.
     999903    2    3    3    0    0  0.76094990144E-02  0.11639496960E+00  0.40845243655E-01  0.12515664412E+00  0.19752422975E-01 0.  0.
         14    1    1    2    0    0  0.26344774718E-01  0.95558218065E-02 -0.47616348302E-02  0.28425939766E-01  0.00000000000E+00 0.  1.
     999901    1    3    3    0    0 -0.33954273732E-01 -0.12595079141E+00 -0.36083608824E-01  0.89034741612E+00  0.88000000000E+00 0. -1.
        -11    1    4    4    0    0 -0.64661437741E-02  0.32029798613E-01  0.13504363654E-01  0.35360259801E-01  0.51100000000E-03 0. -1.
         11    1    4    4    0    0  0.14075642789E-01  0.84365170989E-01  0.27340880000E-01  0.89796384316E-01  0.51100000000E-03 0.  1.
</event>
<event>
 8    1  0.1097777E+005  0.1043930E+01  0.7957747E-01            NaN
         13   -1    0    0    0    0  0.00000000000E+00  0.00000000000E+00  0.74505805969E-08  0.10566000000E+00  0.10566000000E+00 0. -1.
     999900   -1    0    0    0    0 -0.00000000000E+00 -0.00000000000E+00 -0.74505805969E-08  0.93827000000E+00  0.93827000000E+00 0. -1.
     999902    2    1    2    0    0 -0.84665401236E-02  0.28612739616E-02  0.21552191190E-01  0.10205983448E+01  0.10203316202E+01 0.  0.
     999903    2    3    3    0    0 -0.19368721665E-01  0.12369352126E+00  0.37396213365E-01  0.13213319488E+00  0.19633385722E-01 0.  0.
         14    1    1    2    0    0  0.84665401236E-02 -0.28612739616E-02 -0.21552191190E-01  0.23331655223E-01  0.00000000000E+00 0.  1.
     999901    1    3    3    0    0  0.10902181541E-01 -0.12083224729E+00 -0.15844022175E-01  0.88846514990E+00  0.88000000000E+00 0.  1.
        -11    1    4    4    0    0  0.29014408136E-02  0.40440355633E-01  0.11669233178E-01  0.42193279637E-01  0.51100000000E-03 0. -1.
         11    1    4    4    0    0 -0.22270162478E-01  0.83253165622E-01  0.25726980187E-01  0.89939915240E-01  0.51100000000E-03 0.  1.
</event>
<event>
 8    1  0.1097777E+005  0.1043930E+01  0.7957747E-01            NaN
         13   -1    0    0    0    0  0.00000000000E+00  0.00000000000E+00  0.74505805969E-08  0.10566000000E+00  0.10566000000E+00 0. -1.
     999900   -1    0    0    0    0 -0.00000000000E+00 -0.00000000000E+00 -0.74505805969E-08  0.93827000000E+00  0.93827000000E+00 0. -1.
     999902    2    1    2    0    0 -0.18049244154E-01  0.50352025653E-02  0.14135424868E-01  0.10204579162E+01  0.10201879337E+01 0.  0.
     999903    2    3    3    0    0 -0.25583469749E-01  0.11231664686E+00  0.62474887904E-01  0.13259375066E+00  0.20210096758E-01 0.  0.
         14    1    1    2    0    0  0.18049244154E-01 -0.50352025653E-02 -0.14135424868E-01  0.23472083750E-01  0.00000000000E+00 0.  1.
     999901    1    3    3    0    0  0.75342255952E-02 -0.10728144429E+00 -0.48339463037E-01  0.88786416559E+00  0.88000000000E+00 0.  1.
        -11    1    4    4    0    0 -0.26683030461E-01  0.76572305882E-01  0.40829384967E-01  0.90788776512E-01  0.51100000000E-03 0.  1.
         11    1    4    4    0    0  0.10995607122E-02  0.35744340975E-01  0.21645502937E-01  0.41804974152E-01  0.51100000000E-03 0. -1.
</event>
<event>
 8    1  0.1097777E+005  0.1043930E+01  0.7957747E-01            NaN
         13   -1    0    0    0    0  0.00000000000E+00  0.00000000000E+00  0.74505805969E-08  0.10566000000E+00  0.10566000000E+00 0.  1.
     999900   -1    0    0    0    0 -0.00000000000E+00 -0.00000000000E+00 -0.74505805969E-08  0.93827000000E+00  0.93827000000E+00 0. -1.
     999902    2    1    2    0    0  0.17835015664E-01  0.16360620516E-01 -0.84166798583E-02  0.10183058281E+01  0.10179833797E+01 0.  0.
     999903    2    3    3    0    0 -0.12043108563E+00  0.36498906416E-01  0.38976137533E-02  0.12719713259E+00  0.18113602367E-01 0.  0.
         14    1    1    2    0    0 -0.17835015664E-01 -0.16360620516E-01  0.84166798583E-02  0.25624171933E-01  0.00000000000E+00 0.  1.
     999901    1    3    3    0    0  0.13826610129E+00 -0.20138285900E-01 -0.12314293612E-01  0.89110869548E+00  0.88000000000E+00 0.  1.
        -11    1    4    4    0    0 -0.93411542175E-01  0.26098605698E-01  0.10317255154E-01  0.97537481543E-01  0.51100000000E-03 0. -1.
         11    1    4    4    0    0 -0.27019543456E-01  0.10400300718E-01 -0.64196414003E-02  0.29659651048E-01  0.51100000000E-03 0.  1.
</event>
<event>
 8    1  0.1097777E+005  0.1043930E+01  0.7957747E-01            NaN
         13   -1    0    0    0    0  0.00000000000E+00  0.00000000000E+00  0.74505805969E-08  0.10566000000E+00  0.10566000000E+00 0. -1.
     999900   -1    0    0    0    0 -0.00000000000E+00 -0.00000000000E+00 -0.74505805969E-08  0.93827000000E+00  0.93827000000E+00 0. -1.
     999902    2    1    2    0    0 -0.77054513634E-02 -0.29706372786E-01 -0.19514190191E-02  0.10131785675E+01  0.10127117848E+01 0.  0.
     999903    2    3    3    0    0  0.66914336666E-01 -0.90999509743E-01 -0.53459180222E-01  0.12639899462E+00  0.18983747430E-01 0.  0.
         14    1    1    2    0    0  0.77054513634E-02  0.29706372786E-01  0.19514190191E-02  0.30751432503E-01  0.00000000000E+00 0. -1.
     999901    1    3    3    0    0 -0.74619788030E-01  0.61293136958E-01  0.51507761203E-01  0.88677957287E+00  0.88000000000E+00 0. -1.
        -11    1    4    4    0    0  0.32974356812E-01 -0.50019301459E-01 -0.38151997509E-01  0.71028689700E-01  0.51100000000E-03 0.  1.
         11    1    4    4    0    0  0.33939979855E-01 -0.40980208284E-01 -0.15307182713E-01  0.55370304922E-01  0.51100000000E-03 0. -1.
</event>
<event>
 8    1  0.1097777E+005  0.1043930E+01  0.7957747E-01            NaN
         13   -1    0    0    0    0  0.00000000000E+00  0.00000000000E+00  0.74505805969E-08  0.10566000000E+00  0.10566000000E+00 0.  1.
     999900   -1    0    0    0    0 -0.00000000000E+00 -0.00000000000E+00 -0.74505805969E-08  0.93827000000E+00  0.93827000000E+00 0.  1.
     999902    2    1    2    0    0  0.17604031932E-01 -0.12876620246E-01  0.11370911409E-01  0.10193331117E+01  0.10190363024E+01 0.  0.
     999903    2    3    3    0    0  0.25173821727E-01  0.15479846329E-01  0.12634129394E+00  0.13136938506E+00  0.20553487144E-01 0.  0.
         14    1    1    2    0    0 -0.17604031932E-01  0.12876620246E-01 -0.11370911409E-01  0.24596888329E-01  0.00000000000E+00 0.  1.
     999901    1    3    3    0    0 -0.75697897953E-02 -0.28356466574E-01 -0.11497038253E+00  0.88796372661E+00  0.88000000000E+00 0.  1.
        -11    1    4    4    0    0  0.27896798703E-01  0.97297901251E-02  0.10072912308E+00  0.10497388985E+00  0.51100000000E-03 0. -1.
         11    1    4    4    0    0 -0.27229769755E-02  0.57500562036E-02  0.25612170862E-01  0.26395495207E-01  0.51100000000E-03 0.  1.
</event>
<event>
 8    1  0.1097777E+005  0.1043930E+01  0.7957747E-01            NaN
         13   -1    0    0    0    0  0.00000000000E+00  0.00000000000E+00  0.74505805969E-08  0.10566000000E+00  0.10566000000E+00 0. -1.
     999900   -1    0    0    0    0 -0.00000000000E+00 -0.00000000000E+00 -0.74505805969E-08  0.93827000000E+00  0.93827000000E+00 0.  1.
     999902    2    1    2    0    0  0.86358387039E-02  0.20348026394E-01  0.37240865170E-02  0.10215137401E+01  0.10212677575E+01 0.  0.
     999903    2    3    3    0    0 -0.10070235058E+00  0.52838790974E-01  0.64254435291E-01  0.13209009944E+00  0.19653515507E-01 0.  0.
         14    1    1    2    0    0 -0.86358387039E-02 -0.20348026394E-01 -0.37240865170E-02  0.22416259917E-01  0.00000000000E+00 0.  1.
     999901    1    3    3    0    0  0.10933818928E+00 -0.32490764579E-01 -0.60530348774E-01  0.88942364065E+00  0.88000000000E+00 0. -1.
        -11    1    4    4    0    0 -0.39323890569E-01  0.23393375368E-01  0.36656606750E-01  0.58630933133E-01  0.51100000000E-03 0. -1.
         11    1    4    4    0    0 -0.61378460006E-01  0.29445415605E-01  0.27597828540E-01  0.73459166304E-01  0.51100000000E-03 0.  1.
</event>
<event>
 8    1  0.1097777E+005  0.1043930E+01  0.7957747E-01            NaN
         13   -1    0    0    0    0  0.00000000000E+00  0.00000000000E+00  0.74505805969E-08  0.10566000000E+00  0.10566000000E+00 0.  1.
     999900   -1    0    0    0    0 -0.00000000000E+00 -0.00000000000E+00 -0.74505805969E-08  0.93827000000E+00  0.93827000000E+00 0. -1.
     999902    2    1    2    0    0  0.20107654976E-01  0.55452272801E-02 -0.13813434986E-01  0.10189124398E+01  0.10186052629E+01 0.  0.
     999903    2    3    3    0    0 -0.12202993322E+00 -0.28874499921E-01 -0.44616655160E-03  0.12674289564E+00  0.18398945154E-01 0.  0.
         14    1    1    2    0    0 -0.20107654976E-01 -0.55452272801E-02  0.13813434986E-01  0.25017560239E-01  0.00000000000E+00 0.  1.
     999901    1    3    3    0    0  0.14213758819E+00  0.34419727201E-01 -0.13367268434E-01  0.89216954412E+00  0.88000000000E+00 0.  1.
        -11    1    4    4    0    0 -0.98396916452E-01 -0.30470928097E-01 -0.16276157911E-02  0.10302107008E+00  0.51100000000E-03 0.  1.
         11    1    4    4    0    0 -0.23633016766E-01  0.15964281766E-02  0.11814492395E-02  0.23721825555E-01  0.51100000000E-03 0. -1.
</event>
<event>
 8    1  0.1097777E+005  0.1043930E+01  0.7957747E-01            NaN
         13   -1    0    0    0    0  0.00000000000E+00  0.00000000000E+00  0.74505805969E-08  0.10566000000E+00  0.10566000000E+00 0.  1.
     999900   -1    0    0    0    0 -0.00000000000E+00 -0.00000000000E+00 -0.74505805969E-08  0.93827000000E+00  0.93827000000E+00 0. -1.
     999902    2    1    2    0    0 -0.23634481184E-01  0.13163746930E-02 -0.13041099963E-02  0.10202229916E+01  0.10199475135E+01 0.  0.
     999903    2    3    3    0    0 -0.60234721817E-01  0.61251780971E-01 -0.97550986923E-01  0.13219411154E+00  0.24064199399E-01 0.  0.
         14    1    1    2    0    0  0.23634481184E-01 -0.13163746930E-02  0.13041099963E-02  0.23707008374E-01  0.00000000000E+00 0.  1.
     999901    1    3    3    0    0  0.36600240633E-01 -0.59935406278E-01  0.96246876927E-01  0.88802888008E+00  0.88000000000E+00 0.  1.
        -11    1    4    4    0    0 -0.13536876227E-01  0.13089224354E-01 -0.84096402355E-02  0.20629056742E-01  0.51100000000E-03 0. -1.
         11    1    4    4    0    0 -0.46697845590E-01  0.48162556617E-01 -0.89141346688E-01  0.11156505480E+00  0.51100000000E-03 0.  1.
</event>
<event>
 8    1  0.1097777E+005  0.1043930E+01  0.7957747E-01            NaN
         13   -1    0    0    0    0  0.00000000000E+00  0.00000000000E+00  0.74505805969E-08  0.10566000000E+00  0.10566000000E+00 0.  1.
     999900   -1    0    0    0    0 -0.00000000000E+00 -0.00000000000E+00 -0.74505805969E-08  0.93827000000E+00  0.93827000000E+00 0. -1.
     999902    2    1    2    0    0  0.98359104397E-02  0.19935197602E-01 -0.80069752147E-02  0.10203022856E+01  0.10200286687E+01 0.  0.
     999903    2    3    3    0    0 -0.10209904175E+00  0.79216243859E-01 -0.10773615264E-01  0.13122898697E+00  0.20138237693E-01 0.  0.
         14    1    1    2    0    0 -0.98359104397E-02 -0.19935197602E-01  0.80069752147E-02  0.23627714441E-01  0.00000000000E+00 0.  1.
     999901    1    3    3    0    0  0.11193495219E+00 -0.59281046257E-01  0.27666400491E-02  0.88907329859E+00  0.88000000000E+00 0.  1.
        -11    1    4    4    0    0 -0.62865871135E-01  0.45035605599E-01  0.30266336132E-02  0.77393443891E-01  0.51100000000E-03 0. -1.
         11    1    4    4    0    0 -0.39233170618E-01  0.34180638260E-01 -0.13800248877E-01  0.53835543079E-01  0.51100000000E-03 0.  1.
</event>
<event>
 8    1  0.1097777E+005  0.1043930E+01  0.7957747E-01            NaN
         13   -1    0    0    0    0  0.00000000000E+00  0.00000000000E+00  0.74505805969E-08  0.10566000000E+00  0.10566000000E+00 0.  1.
     999900   -1    0    0    0    0 -0.00000000000E+00 -0.00000000000E+00 -0.74505805969E-08  0.93827000000E+00  0.93827000000E+00 0.  1.
     999902    2    1    2    0    0 -0.33376745072E-02 -0.36205907162E-01  0.72242847671E-02  0.10068598223E+01  0.10061771731E+01 0.  0.
     999903    2    3    3    0    0  0.17835195734E-02 -0.96451693634E-01 -0.70809228683E-01  0.12134019483E+00  0.20084468291E-01 0.  0.
         14    1    1    2    0    0  0.33376745072E-02  0.36205907162E-01 -0.72242847671E-02  0.37070177703E-01  0.00000000000E+00 0. -1.
     999901    1    3    3    0    0 -0.51211940806E-02  0.60245786472E-01  0.78033513450E-01  0.88551962747E+00  0.88000000000E+00 0. -1.
        -11    1    4    4    0    0 -0.33190974419E-02 -0.57537053323E-01 -0.52763820987E-01  0.78139687989E-01  0.51100000000E-03 0. -1.
         11    1    4    4    0    0  0.51026170153E-02 -0.38914640312E-01 -0.18045407696E-01  0.43200506836E-01  0.51100000000E-03 0.  1.
</event>
<event>
 8    1  0.1097777E+005  0.1043930E+01  0.7957747E-01            NaN
         13   -1    0    0    0    0  0.00000000000E+00  0.00000000000E+00  0.74505805969E-08  0.10566000000E+00  0.10566000000E+00 0. -1.
     999900   -1    0    0    0    0 -0.00000000000E+00 -0.00000000000E+00 -0.74505805969E-08  0.93827000000E+00  0.93827000000E+00 0. -1.
     999902    2    1    2    0    0 -0.12783214248E-01 -0.17382981731E-02 -0.20139600028E-01  0.10200127314E+01  0.10197322867E+01 0.  0.
     999903    2    3    3    0    0  0.18870678060E-01  0.12699762845E+00 -0.23967566826E-02  0.12990615567E+00  0.19630708486E-01 0.  0.
         14    1    1    2    0    0  0.12783214248E-01  0.17382981731E-02  0.20139600028E-01  0.23917268580E-01  0.00000000000E+00 0. -1.
     999901    1    3    3    0    0 -0.31653892308E-01 -0.12873592663E+00 -0.17742843345E-01  0.89010657575E+00  0.88000000000E+00 0.  1.
        -11    1    4    4    0    0 -0.50556176450E-03  0.63265731219E-01 -0.11454826765E-02  0.63280183240E-01  0.51100000000E-03 0.  1.
         11    1    4    4    0    0  0.19376239824E-01  0.63731897233E-01 -0.12512740062E-02  0.66625972431E-01  0.51100000000E-03 0. -1.
</event>
<event>
 8    1  0.1097777E+005  0.1043930E+01  0.7957747E-01            NaN
         13   -1    0    0    0    0  0.00000000000E+00  0.00000000000E+00  0.74505805969E-08  0.10566000000E+00  0.10566000000E+00 0. -1.
     999900   -1    0    0    0    0 -0.00000000000E+00 -0.00000000000E+00 -0.74505805969E-08  0.93827000000E+00  0.93827000000E+00 0.  1.
     999902    2    1    2    0    0  0.20795951825E-01 -0.51882853063E-02  0.11133743722E-01  0.10197773570E+01  0.10194912984E+01 0.  0.
     999903    2    3    3    0    0 -0.49717630728E-01  0.66742548459E-01  0.97790733782E-01  0.12980227635E+00  0.18952381188E-01 0.  0.
         14    1    1    2    0    0 -0.20795951825E-01  0.51882853063E-02 -0.11133743722E-01  0.24152643043E-01  0.00000000000E+00 0.  1.
     999901    1    3    3    0    0  0.70513582553E-01 -0.71930833765E-01 -0.86656990060E-01  0.88997508060E+00  0.88000000000E+00 0.  1.
        -11    1    4    4    0    0 -0.47671670645E-02  0.65007086170E-02  0.25438102226E-02  0.84685999901E-02  0.51100000000E-03 0. -1.
         11    1    4    4    0    0 -0.44950463664E-01  0.60241839842E-01  0.95246923559E-01  0.12133367636E+00  0.51100000000E-03 0.  1.
</event>
<event>
 8    1  0.1097777E+005  0.1043930E+01  0.7957747E-01            NaN
         13   -1    0    0    0    0  0.00000000000E+00  0.00000000000E+00  0.74505805969E-08  0.10566000000E+00  0.10566000000E+00 0.  1.
     999900   -1    0    0    0    0 -0.00000000000E+00 -0.00000000000E+00 -0.74505805969E-08  0.93827000000E+00  0.93827000000E+00 0.  1.
     999902    2    1    2    0    0  0.16652065577E-01  0.84579807566E-02  0.10905462705E-01  0.10223022899E+01  0.10220734876E+01 0.  0.
     999903    2    3    3    0    0  0.10342085095E+00  0.22935120766E-02 -0.81529620568E-01  0.13319539679E+00  0.19819235319E-01 0.  0.
         14    1    1    2    0    0 -0.16652065577E-01 -0.84579807566E-02 -0.10905462705E-01  0.21627710079E-01  0.00000000000E+00 0. -1.
     999901    1    3    3    0    0 -0.86768785370E-01  0.61644686801E-02  0.92435083272E-01  0.88910689313E+00  0.88000000000E+00 0. -1.
        -11    1    4    4    0    0  0.10042255041E+00  0.81383313534E-03 -0.73402953516E-01  0.12439294859E+00  0.51100000000E-03 0. -1.
         11    1    4    4    0    0  0.29983005421E-02  0.14796789412E-02 -0.81266670520E-02  0.88024481983E-02  0.51100000000E-03 0.  1.
</event>
<event>
 8    1  0.1097777E+005  0.1043930E+01  0.7957747E-01            NaN
         13   -1    0    0    0    0  0.00000000000E+00  0.00000000000E+00  0.74505805969E-08  0.10566000000E+00  0.10566000000E+00 0. -1.
     999900   -1    0    0    0    0 -0.00000000000E+00 -0.00000000000E+00 -0.74505805969E-08  0.93827000000E+00  0.93827000000E+00 0. -1.
     999902    2    1    2    0    0  0.30500877429E-02  0.11743438053E-01 -0.18849900986E-01  0.10215128160E+01  0.10212668129E+01 0.  0.
     999903    2    3    3    0    0 -0.12763400907E+00 -0.21718568531E-01 -0.97032644254E-02  0.13118607819E+00  0.18801523391E-01 0.  0.
         14    1    1    2    0    0 -0.30500877429E-02 -0.11743438053E-01  0.18849900986E-01  0.22417184028E-01  0.00000000000E+00 0. -1.
     999901    1    3    3    0    0  0.13068409681E+00  0.33462006584E-01 -0.91466365606E-02  0.89032673778E+00  0.88000000000E+00 0.  1.
        -11    1    4    4    0    0 -0.10886344541E+00 -0.11730411995E-01 -0.96271626587E-02  0.10991722201E+00  0.51100000000E-03 0.  1.
         11    1    4    4    0    0 -0.18770563660E-01 -0.99881565359E-02 -0.76101766676E-04  0.21268856188E-01  0.51100000000E-03 0. -1.
</event>
<event>
 8    1  0.1097777E+005  0.1043930E+01  0.7957747E-01            NaN
         13   -1    0    0    0    0  0.00000000000E+00  0.00000000000E+00  0.74505805969E-08  0.10566000000E+00  0.10566000000E+00 0.  1.
     999900   -1    0    0    0    0 -0.00000000000E+00 -0.00000000000E+00 -0.74505805969E-08  0.93827000000E+00  0.93827000000E+00 0. -1.
     999902    2    1    2    0    0 -0.23969913205E-01  0.21872485989E-03 -0.44878848673E-03  0.10199548881E+01  0.10196730691E+01 0.  0.
     999903    2    3    3    0    0 -0.75339223244E-01 -0.64631650890E-01  0.85881489283E-01  0.13186857804E+00  0.12666602452E-01 0.  0.
         14    1    1    2    0    0  0.23969913205E-01 -0.21872485989E-03  0.44878848673E-03  0.23975111902E-01  0.00000000000E+00 0. -1.
     999901    1    3    3    0    0  0.51369310039E-01  0.64850375750E-01 -0.86330277770E-01  0.88808631006E+00  0.88000000000E+00 0. -1.
        -11    1    4    4    0    0 -0.43040018168E-01 -0.44670215979E-01  0.51006591376E-01  0.80310677025E-01  0.51100000000E-03 0. -1.
         11    1    4    4    0    0 -0.32299205075E-01 -0.19961434912E-01  0.34874897907E-01  0.51557901017E-01  0.51100000000E-03 0.  1.
</event>
<event>
 8    1  0.1097777E+005  0.1043930E+01  0.7957747E-01            NaN
         13   -1    0    0    0    0  0.00000000000E+00  0.00000000000E+00  0.74505805969E-08  0.10566000000E+00  0.10566000000E+00 0. -1.
     999900   -1    0    0    0    0 -0.00000000000E+00 -0.00000000000E+00 -0.74505805969E-08  0.93827000000E+00  0.93827000000E+00 0. -1.
     999902    2    1    2    0    0 -0.18828787864E-01 -0.11550113224E-01  0.72994386195E-02  0.10206660757E+01  0.10204009153E+01 0.  0.
     999903    2    3    3    0    0 -0.11819042496E+00  0.21440572029E-01  0.53448884258E-01  0.13325924030E+00  0.21738611175E-01 0.  0.
         14    1    1    2    0    0  0.18828787864E-01  0.11550113224E-01 -0.72994386195E-02  0.23263924262E-01  0.00000000000E+00 0.  1.
     999901    1    3    3    0    0  0.99361637101E-01 -0.32990685254E-01 -0.46149445639E-01  0.88740683543E+00  0.88000000000E+00 0.  1.
        -11    1    4    4    0    0 -0.37763349260E-01  0.17281071991E-01  0.17849091104E-01  0.45205720554E-01  0.51100000000E-03 0. -1.
         11    1    4    4    0    0 -0.80427075705E-01  0.41595000382E-02  0.35599793154E-01  0.88053519751E-01  0.51100000000E-03 0.  1.
</event>
<event>
 8    1  0.1097777E+005  0.1043930E+01  0.7957747E-01            NaN
         13   -1    0    0    0    0  0.00000000000E+00  0.00000000000E+00  0.74505805969E-08  0.10566000000E+00  0.10566000000E+00 0.  1.
     999900   -1    0    0    0    0 -0.00000000000E+00 -0.00000000000E+00 -0.74505805969E-08  0.93827000000E+00  0.93827000000E+00 0.  1.
     999902    2    1    2    0    0  0.81312552997E-02  0.12355083287E-01  0.13570580513E-01  0.10238569820E+01  0.10236601944E+01 0.  0.
     999903    2    3    3    0    0  0.54455323206E-01 -0.11401859948E+00  0.37243297328E-01  0.13330848558E+00  0.20456438598E-01 0.  0.
         14    1    1    2    0    0 -0.81312552997E-02 -0.12355083287E-01 -0.13570580513E-01  0.20073017990E-01  0.00000000000E+00 0. -1.
     999901    1    3    3    0    0 -0.46324067907E-01  0.12637368277E+00 -0.23672716815E-01  0.89054849643E+00  0.88000000000E+00 0.  1.
        -11    1    4    4    0    0  0.30809449671E-01 -0.57507222293E-01  0.90351411216E-02  0.65864996022E-01  0.51100000000E-03 0.  1.
         11    1    4    4    0    0  0.23645873535E-01 -0.56511377187E-01  0.28208156206E-01  0.67443489562E-01  0.51100000000E-03 0. -1.
</event>
<event>
 8    1  0.1097777E+005  0.1043930E+01  0.7957747E-01            NaN
         13   -1    0    0    0    0  0.00000000000E+00  0.00000000000E+00  0.74505805969E-08  0.10566000000E+00  0.10566000000E+00 0. -1.
     999900   -1    0    0    0    0 -0.00000000000E+00 -0.00000000000E+00 -0.74505805969E-08  0.93827000000E+00  0.93827000000E+00 0. -1.
     999902    2    1    2    0    0 -0.49214418355E-02  0.20983377020E-01  0.80989547532E-02  0.10209057569E+01  0.10206460938E+01 0.  0.
     999903    2    3    3    0    0  0.73969901693E-01  0.33185408933E-01 -0.10055815476E+00  0.13063663969E+00  0.19523611799E-01 0.  0.
         14    1    1    2    0    0  0.49214418355E-02 -0.20983377020E-01 -0.80989547532E-02  0.23024243071E-01  0.00000000000E+00 0. -1.
     999901    1    3    3    0    0 -0.78891343528E-01 -0.12202031912E-01  0.10865710951E+00  0.89026911724E+00  0.88000000000E+00 0.  1.
        -11    1    4    4    0    0  0.17421352239E-01  0.17269505653E-01 -0.26661379575E-01  0.36232990784E-01  0.51100000000E-03 0. -1.
         11    1    4    4    0    0  0.56548549453E-01  0.15915903280E-01 -0.73896775184E-01  0.94403648903E-01  0.51100000000E-03 0.  1.
</event>
<event>
 8    1  0.1097777E+005  0.1043930E+01  0.7957747E-01            NaN
         13   -1    0    0    0    0  0.00000000000E+00  0.00000000000E+00  0.74505805969E-08  0.10566000000E+00  0.10566000000E+00 0.  1.
     999900   -1    0    0    0    0 -0.00000000000E+00 -0.00000000000E+00 -0.74505805969E-08  0.93827000000E+00  0.93827000000E+00 0.  1.
     999902    2    1    2    0    0 -0.23413922985E-01  0.45289203325E-02  0.28383915852E-02  0.10199137685E+01  0.10196309704E+01 0.  0.
     999903    2    3    3    0    0  0.22670190243E-03  0.59399350136E-01 -0.11412090792E+00  0.13016710739E+00  0.19787875829E-01 0.  0.
         14    1    1    2    0    0  0.23413922985E-01 -0.45289203325E-02 -0.28383915852E-02  0.24016231505E-01  0.00000000000E+00 0. -1.
     999901    1    3    3    0    0 -0.23640624887E-01 -0.54870429804E-01  0.11695929951E+00  0.88974666111E+00  0.88000000000E+00 0. -1.
        -11    1    4    4    0    0 -0.71499721714E-02  0.90211364833E-02 -0.24964296500E-01  0.27495094585E-01  0.51100000000E-03 0.  1.
         11    1    4    4    0    0  0.73766740738E-02  0.50378213653E-01 -0.89156611423E-01  0.10267201280E+00  0.51100000000E-03 0. -1.
</event>
<event>
 8    1  0.1097777E+005  0.1043930E+01  0.7957747E-01            NaN
         13   -1    0    0    0    0  0.00000000000E+00  0.00000000000E+00  0.74505805969E-08  0.10566000000E+00  0.10566000000E+00 0.  1.
     999900   -1    0    0    0    0 -0.00000000000E+00 -0.00000000000E+00 -0.74505805969E-08  0.93827000000E+00  0.93827000000E+00 0. -1.
     999902    2    1    2    0    0 -0.45084229659E-02 -0.24997575582E-01  0.43460813008E-02  0.10181599964E+01  0.10178338200E+01 0.  0.
     999903    2    3    3    0    0 -0.12278130655E-01 -0.11996606331E+00 -0.48385071899E-01  0.13144698954E+00  0.19864215048E-01 0.  0.
         14    1    1    2    0    0  0.45084229659E-02  0.24997575582E-01 -0.43460813008E-02  0.25770003595E-01  0.00000000000E+00 0.  1.
     999901    1    3    3    0    0  0.77697076896E-02  0.94968487726E-01  0.52731153200E-01  0.88671300686E+00  0.88000000000E+00 0.  1.
        -11    1    4    4    0    0 -0.14953534122E-01 -0.91101570052E-01 -0.29815108231E-01  0.97017039990E-01  0.51100000000E-03 0.  1.
         11    1    4    4    0    0  0.26754034663E-02 -0.28864493256E-01 -0.18569963667E-01  0.34429949554E-01  0.51100000000E-03 0. -1.
</event>
<event>
 8    1  0.1097777E+005  0.1043930E+01  0.7957747E-01            NaN
         13   -1    0    0    0    0  0.00000000000E+00  0.00000000000E+00  0.74505805969E-08  0.10566000000E+00  0.10566000000E+00 0. -1.
     999900   -1    0    0    0    0 -0.00000000000E+00 -0.00000000000E+00 -0.74505805969E-08  0.93827000000E+00  0.93827000000E+00 0.  1.
     999902    2    1    2    0    0 -0.88048270898E-02 -0.24162946638E-02 -0.22636399382E-01  0.10195215990E+01  0.10192293760E+01 0.  0.
     999903    2    3    3    0    0  0.43270452968E-01 -0.11584877171E+00 -0.37090148346E-01  0.13059658956E+00  0.19660114298E-01 0.  0.
         14    1    1    2    0    0  0.88048270898E-02  0.24162946638E-02  0.22636399382E-01  0.24408400950E-01  0.00000000000E+00 0. -1.
     999901    1    3    3    0    0 -0.52075280058E-01  0.11343247704E+00  0.14453748964E-01  0.88892500949E+00  0.88000000000E+00 0.  1.
        -11    1    4    4    0    0  0.12708569449E-01 -0.15656630099E-01 -0.27378396365E-02  0.20356686625E-01  0.51100000000E-03 0.  1.
         11    1    4    4    0    0  0.30561883519E-01 -0.10019214161E+00 -0.34352308709E-01  0.11023990293E+00  0.51100000000E-03 0. -1.
</event>
<event>
 8    1  0.1097777E+005  0.1043930E+01  0.7957747E-01            NaN
         13   -1    0    0    0    0  0.00000000000E+00  0.00000000000E+00  0.74505805969E-08  0.10566000000E+00  0.10566000000E+00 0. -1.
     999900   -1    0    0    0    0 -0.00000000000E+00 -0.00000000000E+00 -0.74505805969E-08  0.93827000000E+00  0.93827000000E+00 0. -1.
     999902    2    1    2    0    0 -0.28777236109E-02  0.16535746374E-01  0.19436707613E-01  0.10182493107E+01  0.10179254201E+01 0.  0.
     999903    2    3    3    0    0 -0.93694381244E-01  0.38709551229E-01 -0.75927266646E-01  0.12817424052E+00  0.19662646808E-01 0.  0.
         14    1    1    2    0    0  0.28777236109E-02 -0.16535746374E-01 -0.19436707613E-01  0.25680689324E-01  0.00000000000E+00 0.  1.
     999901    1    3    3    0    0  0.90816657634E-01 -0.22173804856E-01  0.95363974260E-01  0.89007507016E+00  0.88000000000E+00 0.  1.
        -11    1    4    4    0    0 -0.61941134205E-01  0.21338293128E-01 -0.37967294967E-01  0.75721882362E-01  0.51100000000E-03 0. -1.
         11    1    4    4    0    0 -0.31753247039E-01  0.17371258102E-01 -0.37959971679E-01  0.52452358159E-01  0.51100000000E-03 0.  1.
</event>
<event>
 8    1  0.1097777E+005  0.1043930E+01  0.7957747E-01            NaN
         13   -1    0    0    0    0  0.00000000000E+00  0.00000000000E+00  0.74505805969E-08  0.10566000000E+00  0.10566000000E+00 0. -1.
     999900   -1    0    0    0    0 -0.00000000000E+00 -0.00000000000E+00 -0.74505805969E-08  0.93827000000E+00  0.93827000000E+00 0.  1.
     999902    2    1    2    0    0 -0.22660872247E-01 -0.39327705013E-02  0.35891407844E-02  0.10206520330E+01  0.10203865487E+01 0.  0.
     999903    2    3    3    0    0  0.10706986688E+00 -0.56768911644E-01 -0.38068757191E-01  0.12859984680E+00  0.20050551115E-01 0.  0.
         14    1    1    2    0    0  0.22660872247E-01  0.39327705013E-02 -0.35891407844E-02  0.23277966973E-01  0.00000000000E+00 0.  1.
     999901    1    3    3    0    0 -0.12973073913E+00  0.52836141142E-01  0.41657897975E-01  0.89205218623E+00  0.88000000000E+00 0. -1.
        -11    1    4    4    0    0  0.55379834599E-01 -0.18088139279E-01 -0.18965895353E-01  0.61270491840E-01  0.51100000000E-03 0.  1.
         11    1    4    4    0    0  0.51690032283E-01 -0.38680772364E-01 -0.19102861838E-01  0.67329354961E-01  0.51100000000E-03 0. -1.
</event>
<event>
 8    1  0.1097777E+005  0.1043930E+01  0.7957747E-01            NaN
         13   -1    0    0    0    0  0.00000000000E+00  0.00000000000E+00  0.74505805969E-08  0.10566000000E+00  0.10566000000E+00 0. -1.
     999900   -1    0    0    0    0 -0.00000000000E+00 -0.00000000000E+00 -0.74505805969E-08  0.93827000000E+00  0.93827000000E+00 0. -1.
     999902    2    1    2    0    0  0.89324713974E-02  0.22110018039E-01 -0.37259532138E-02  0.10197944521E+01  0.10195088033E+01 0.  0.
     999903    2    3    3    0    0 -0.28157115823E-01  0.66835610759E-01 -0.10811969332E+00  0.13172121806E+00  0.20019719467E-01 0.  0.
         14    1    1    2    0    0 -0.89324713974E-02 -0.22110018039E-01  0.37259532138E-02  0.24135547856E-01  0.00000000000E+00 0. -1.
     999901    1    3    3    0    0  0.37089587220E-01 -0.44725592720E-01  0.10439374010E+00  0.88807323408E+00  0.88000000000E+00 0.  1.
        -11    1    4    4    0    0 -0.12358459159E-01  0.48536052877E-01 -0.62545318198E-01  0.80129007801E-01  0.51100000000E-03 0. -1.
         11    1    4    4    0    0 -0.15798656663E-01  0.18299557882E-01 -0.45574375118E-01  0.51592210259E-01  0.51100000000E-03 0.  1.
</event>
<event>
 8    1  0.1097777E+005  0.1043930E+01  0.7957747E-01            NaN
         13   -1    0    0    0    0  0.00000000000E+00  0.00000000000E+00  0.74505805969E-08  0.10566000000E+00  0.10566000000E+00 0.  1.
     999900   -1    0    0    0    0 -0.00000000000E+00 -0.00000000000E+00 -0.74505805969E-08  0.93827000000E+00  0.93827000000E+00 0.  1.
     999902    2    1    2    0    0 -0.50948816335E-02  0.42427424573E-02 -0.23442444508E-01  0.10195680032E+01  0.10192769036E+01 0.  0.
     999903    2    3    3    0    0 -0.49811429519E-01  0.10524200735E+00  0.52062853375E-01  0.12945482437E+00  0.22157441834E-01 0.  0.
         14    1    1    2    0    0  0.50948816335E-02 -0.42427424573E-02  0.23442444508E-01  0.24361996776E-01  0.00000000000E+00 0.  1.
     999901    1    3    3    0    0  0.44716547886E-01 -0.10099926489E+00 -0.75505297883E-01  0.89011317886E+00  0.88000000000E+00 0.  1.
        -11    1    4    4    0    0 -0.26229029254E-01  0.34231861912E-01  0.12989925646E-01  0.45041998566E-01  0.51100000000E-03 0.  1.
         11    1    4    4    0    0 -0.23582400265E-01  0.71010145439E-01  0.39072927729E-01  0.84412825802E-01  0.51100000000E-03 0. -1.
</event>
<event>
 8    1  0.1097777E+005  0.1043930E+01  0.7957747E-01            NaN
         13   -1    0    0    0    0  0.00000000000E+00  0.00000000000E+00  0.74505805969E-08  0.10566000000E+00  0.10566000000E+00 0.  1.
     999900   -1    0    0    0    0 -0.00000000000E+00 -0.00000000000E+00 -0.74505805969E-08  0.93827000000E+00  0.93827000000E+00 0. -1.
     999902    2    1    2    0    0  0.12534176867E-01  0.11488165527E-01  0.16293952605E-01  0.10203805535E+01  0.10201087675E+01 0.  0.
     999903    2    3    3    0    0 -0.92415808614E-01 -0.84007402150E-01 -0.21334309424E-01  0.12822037230E+00  0.19682119190E-01 0.  0.
         14    1    1    2    0    0 -0.12534176867E-01 -0.11488165527E-01 -0.16293952605E-01  0.23549446456E-01  0.00000000000E+00 0. -1.
     999901    1    3    3    0    0  0.10494998548E+00  0.95495567677E-01  0.37628262029E-01  0.89216018125E+00  0.88000000000E+00 0.  1.
        -11    1    4    4    0    0 -0.73926221895E-01 -0.76181889207E-01 -0.15321365907E-01  0.10725563809E+00  0.51100000000E-03 0. -1.
         11    1    4    4    0    0 -0.18489586719E-01 -0.78255129426E-02 -0.60129435165E-02  0.20964734212E-01  0.51100000000E-03 0.  1.
</event>
<event>
 8    1  0.1097777E+005  0.1043930E+01  0.7957747E-01            NaN
         13   -1    0    0    0    0  0.00000000000E+00  0.00000000000E+00  0.74505805969E-08  0.10566000000E+00  0.10566000000E+00 0. -1.
     999900   -1    0    0    0    0 -0.00000000000E+00 -0.00000000000E+00 -0.74505805969E-08  0.93827000000E+00  0.93827000000E+00 0. -1.
     999902    2    1    2    0    0 -0.13661846887E-01 -0.25846687659E-02  0.18929307928E-01  0.10204428701E+01  0.10201725373E+01 0.  0.
     999903    2    3    3    0    0  0.23303487235E-01  0.12578633813E+00 -0.99601750605E-02  0.12989239225E+00  0.20188439765E-01 0.  0.
         14    1    1    2    0    0  0.13661846887E-01  0.25846687659E-02 -0.18929307928E-01  0.23487129914E-01  0.00000000000E+00 0.  1.
     999901    1    3    3    0    0 -0.36965334122E-01 -0.12837100690E+00  0.28889482988E-01  0.89055047783E+00  0.88000000000E+00 0. -1.
        -11    1    4    4    0    0  0.24037406800E-01  0.10922654302E+00 -0.29296192491E-02  0.11187974980E+00  0.51100000000E-03 0. -1.
         11    1    4    4    0    0 -0.73391956564E-03  0.16559795116E-01 -0.70305558114E-02  0.18012642456E-01  0.51100000000E-03 0.  1.
</event>
<event>
 8    1  0.1097777E+005  0.1043930E+01  0.7957747E-01            NaN
         13   -1    0    0    0    0  0.00000000000E+00  0.00000000000E+00  0.74505805969E-08  0.10566000000E+00  0.10566000000E+00 0. -1.
     999900   -1    0    0    0    0 -0.00000000000E+00 -0.00000000000E+00 -0.74505805969E-08  0.93827000000E+00  0.93827000000E+00 0.  1.
     999902    2    1    2    0    0  0.11605933725E-01 -0.21295462189E-01  0.61923034549E-03  0.10196693765E+01  0.10193807235E+01 0.  0.
     999903    2    3    3    0    0 -0.90671113684E-01 -0.30663230413E-01  0.84715592649E-01  0.12971401374E+00  0.22079609761E-01 0.  0.
         14    1    1    2    0    0 -0.11605933725E-01  0.21295462189E-01 -0.61923034549E-03  0.24260623523E-01  0.00000000000E+00 0.  1.
     999901    1    3    3    0    0  0.10227704741E+00  0.93677682240E-02 -0.84096362304E-01  0.88995536274E+00  0.88000000000E+00 0.  1.
        -11    1    4    4    0    0 -0.64656831256E-01 -0.12691862551E-01  0.49711922407E-01  0.82541659503E-01  0.51100000000E-03 0. -1.
         11    1    4    4    0    0 -0.26014282428E-01 -0.17971367862E-01  0.35003670242E-01  0.47172354239E-01  0.51100000000E-03 0.  1.
</event>
<event>
 8    1  0.1097777E+005  0.1043930E+01  0.7957747E-01            NaN
         13   -1    0    0    0    0  0.00000000000E+00  0.00000000000E+00  0.74505805969E-08  0.10566000000E+00  0.10566000000E+00 0. -1.
     999900   -1    0    0    0    0 -0.00000000000E+00 -0.00000000000E+00 -0.74505805969E-08  0.93827000000E+00  0.93827000000E+00 0. -1.
     999902    2    1    2    0    0 -0.13203178612E-01  0.19241380678E-01 -0.10120118513E-02  0.10205723712E+01  0.10203050456E+01 0.  0.
     999903    2    3    3    0    0 -0.12857306347E+00 -0.14278196442E-01 -0.19617130930E-01  0.13221437869E+00  0.18997646215E-01 0.  0.
         14    1    1    2    0    0  0.13203178612E-01 -0.19241380678E-01  0.10120118513E-02  0.23357628815E-01  0.00000000000E+00 0. -1.
     999901    1    3    3    0    0  0.11536988486E+00  0.33519577120E-01  0.18605119079E-01  0.88835799250E+00  0.88000000000E+00 0.  1.
        -11    1    4    4    0    0 -0.37066495239E-01  0.93409088765E-04 -0.13246922996E-01  0.39365922883E-01  0.51100000000E-03 0.  1.
         11    1    4    4    0    0 -0.91506568230E-01 -0.14371605531E-01 -0.63702079349E-02  0.92848455802E-01  0.51100000000E-03 0. -1.
</event>
<event>
 8    1  0.1097777E+005  0.1043930E+01  0.7957747E-01            NaN
         13   -1    0    0    0    0  0.00000000000E+00  0.00000000000E+00  0.74505805969E-08  0.10566000000E+00  0.10566000000E+00 0. -1.
     999900   -1    0    0    0    0 -0.00000000000E+00 -0.00000000000E+00 -0.74505805969E-08  0.93827000000E+00  0.93827000000E+00 0.  1.
     999902    2    1    2    0    0 -0.72671203114E-02  0.11924410983E-01  0.19316596556E-01  0.10200944485E+01  0.10198159394E+01 0.  0.
     999903    2    3    3    0    0  0.76852964605E-01 -0.10963185803E-01 -0.99413079424E-01  0.12785189918E+00  0.20894452682E-01 0.  0.
         14    1    1    2    0    0  0.72671203114E-02 -0.11924410983E-01 -0.19316596556E-01  0.23835551544E-01  0.00000000000E+00 0.  1.
     999901    1    3    3    0    0 -0.84120084916E-01  0.22887596786E-01  0.11872967598E+00  0.89224254927E+00  0.88000000000E+00 0. -1.
        -11    1    4    4    0    0  0.29953062303E-01 -0.13362067813E-01 -0.33172682227E-01  0.46652103540E-01  0.51100000000E-03 0. -1.
         11    1    4    4    0    0  0.46899902302E-01  0.23988820102E-02 -0.66240397197E-01  0.81199795644E-01  0.51100000000E-03 0.  1.
</event>
<event>
 8    1  0.1097777E+005  0.1043930E+01  0.7957747E-01            NaN
         13   -1    0    0    0    0  0.00000000000E+00  0.00000000000E+00  0.74505805969E-08  0.10566000000E+00  0.10566000000E+00 0. -1.
     999900   -1    0    0    0    0 -0.00000000000E+00 -0.00000000000E+00 -0.74505805969E-08  0.93827000000E+00  0.93827000000E+00 0. -1.
     999902    2    1    2    0    0 -0.28917687097E-02 -0.22164839872E-02  0.22581416173E-01  0.10210565332E+01  0.10208002980E+01 0.  0.
     999903    2    3    3    0    0  0.65048072412E-02  0.93052893213E-01 -0.87002977294E-01  0.12910738152E+00  0.19951051412E-01 0.  0.
         14    1    1    2    0    0  0.28917687097E-02  0.22164839872E-02 -0.22581416173E-01  0.22873466810E-01  0.00000000000E+00 0.  1.
     999901    1    3    3    0    0 -0.93965759509E-02 -0.95269377200E-01  0.10958439347E+00  0.89194915167E+00  0.88000000000E+00 0.  1.
        -11    1    4    4    0    0  0.48320340290E-02  0.27181247784E-01 -0.38076928880E-01  0.47034906377E-01  0.51100000000E-03 0. -1.
         11    1    4    4    0    0  0.16727732121E-02  0.65871645430E-01 -0.48926048414E-01  0.82072475144E-01  0.51100000000E-03 0.  1.
</event>
<event>
 8    1  0.1097777E+005  0.1043930E+01  0.7957747E-01            NaN
         13   -1    0    0    0    0  0.00000000000E+00  0.00000000000E+00  0.74505805969E-08  0.10566000000E+00  0.10566000000E+00 0.  1.
     999900   -1    0    0    0    0 -0.00000000000E+00 -0.00000000000E+00 -0.74505805969E-08  0.93827000000E+00  0.93827000000E+00 0.  1.
     999902    2    1    2    0    0 -0.42101531239E-02 -0.15826009319E-01  0.16931903016E-01  0.10203741663E+01  0.10201022312E+01 0.  0.
     999903    2    3    3    0    0 -0.27453859340E-01 -0.10713167413E+00  0.72301721262E-01  0.13361444065E+00  0.19858747675E-01 0.  0.
         14    1    1    2    0    0  0.42101531239E-02  0.15826009319E-01 -0.16931903016E-01  0.23555833673E-01  0.00000000000E+00 0. -1.
     999901    1    3    3    0    0  0.23243706216E-01  0.91305664810E-01 -0.55369818246E-01  0.88675972567E+00  0.88000000000E+00 0.  1.
        -11    1    4    4    0    0 -0.13024012407E-01 -0.67513736353E-01  0.54937499690E-01  0.88012041725E-01  0.51100000000E-03 0.  1.
         11    1    4    4    0    0 -0.14429846933E-01 -0.39617937776E-01  0.17364221572E-01  0.45602398927E-01  0.51100000000E-03 0. -1.
</event>
<event>
 8    1  0.1097777E+005  0.1043930E+01  0.7957747E-01            NaN
         13   -1    0    0    0    0  0.00000000000E+00  0.00000000000E+00  0.74505805969E-08  0.10566000000E+00  0.10566000000E+00 0. -1.
     999900   -1    0    0    0    0 -0.00000000000E+00 -0.00000000000E+00 -0.74505805969E-08  0.93827000000E+00  0.93827000000E+00 0.  1.
     999902    2    1    2    0    0  0.88659686951E-03 -0.23537164621E-01  0.20863967918E-02  0.10202839174E+01  0.10200098700E+01 0.  0.
     999903    2    3    3    0    0 -0.61134056104E-01 -0.59718129170E-01  0.98851301292E-01  0.13207275422E+00  0.19183453108E-01 0.  0.
         14    1    1    2    0    0 -0.88659686951E-03  0.23537164621E-01 -0.20863967918E-02  0.23646082635E-01  0.00000000000E+00 0.  1.
     999901    1    3    3    0    0  0.62020652973E-01  0.36180964550E-01 -0.96764904500E-01  0.88821116314E+00  0.88000000000E+00 0.  1.
        -11    1    4    4    0    0 -0.51475857797E-01 -0.49484662645E-01  0.91869428851E-01  0.11635612941E+00  0.51100000000E-03 0. -1.
         11    1    4    4    0    0 -0.96581983070E-02 -0.10233466525E-01  0.69818724412E-02  0.15716624811E-01  0.51100000000E-03 0.  1.
</event>
<event>
 8    1  0.1097777E+005  0.1043930E+01  0.7957747E-01            NaN
         13   -1    0    0    0    0  0.00000000000E+00  0.00000000000E+00  0.74505805969E-08  0.10566000000E+00  0.10566000000E+00 0. -1.
     999900   -1    0    0    0    0 -0.00000000000E+00 -0.00000000000E+00 -0.74505805969E-08  0.93827000000E+00  0.93827000000E+00 0.  1.
     999902    2    1    2    0    0  0.65947228737E-02  0.20475750085E-01 -0.98196069144E-02  0.10202831949E+01  0.10200091306E+01 0.  0.
     999903    2    3    3    0    0 -0.83053679919E-01 -0.76890946963E-01 -0.58815947053E-01  0.12903813816E+00  0.19529311299E-01 0.  0.
         14    1    1    2    0    0 -0.65947228737E-02 -0.20475750085E-01  0.98196069144E-02  0.23646805096E-01  0.00000000000E+00 0. -1.
     999901    1    3    3    0    0  0.89648402793E-01  0.97366697048E-01  0.48996340138E-01  0.89124505674E+00  0.88000000000E+00 0. -1.
        -11    1    4    4    0    0 -0.43697279244E-01 -0.53283710202E-01 -0.37084321404E-01  0.78256718570E-01  0.51100000000E-03 0. -1.
         11    1    4    4    0    0 -0.39356400675E-01 -0.23607236761E-01 -0.21731625648E-01  0.50781419594E-01  0.51100000000E-03 0.  1.
</event>
<event>
 8    1  0.1097777E+005  0.1043930E+01  0.7957747E-01            NaN
         13   -1    0    0    0    0  0.00000000000E+00  0.00000000000E+00  0.74505805969E-08  0.10566000000E+00  0.10566000000E+00 0. -1.
     999900   -1    0    0    0    0 -0.00000000000E+00 -0.00000000000E+00 -0.74505805969E-08  0.93827000000E+00  0.93827000000E+00 0. -1.
     999902    2    1    2    0    0 -0.17303960389E-01 -0.16464507903E-01  0.16650163205E-02  0.10199867474E+01  0.10197056857E+01 0.  0.
     999903    2    3    3    0    0  0.11459452920E-01  0.12292696368E-02  0.12824105176E+00  0.13028910412E+00  0.19916152508E-01 0.  0.
         14    1    1    2    0    0  0.17303960389E-01  0.16464507903E-01 -0.16650163205E-02  0.23943252598E-01  0.00000000000E+00 0. -1.
     999901    1    3    3    0    0 -0.28763413309E-01 -0.17693777540E-01 -0.12657603544E+00  0.88969764328E+00  0.88000000000E+00 0. -1.
        -11    1    4    4    0    0  0.10225356459E-01 -0.22317806217E-02  0.12476807535E+00  0.12520731810E+00  0.51100000000E-03 0.  1.
         11    1    4    4    0    0  0.12340964616E-02  0.34610502585E-02  0.34729764137E-02  0.50817860185E-02  0.51100000000E-03 0. -1.
</event>
<event>
 8    1  0.1097777E+005  0.1043930E+01  0.7957747E-01            NaN
         13   -1    0    0    0    0  0.00000000000E+00  0.00000000000E+00  0.74505805969E-08  0.10566000000E+00  0.10566000000E+00 0. -1.
     999900   -1    0    0    0    0 -0.00000000000E+00 -0.00000000000E+00 -0.74505805969E-08  0.93827000000E+00  0.93827000000E+00 0.  1.
     999902    2    1    2    0    0  0.14793302357E-01  0.18379017546E-01  0.34535866035E-02  0.10200855595E+01  0.10198068403E+01 0.  0.
     999903    2    3    3    0    0  0.51564369102E-01 -0.94997091186E-01 -0.68043057917E-01  0.12917702127E+00  0.19326499908E-01 0.  0.
         14    1    1    2    0    0 -0.14793302357E-01 -0.18379017546E-01 -0.34535866035E-02  0.23844440463E-01  0.00000000000E+00 0.  1.
     999901    1    3    3    0    0 -0.36771066745E-01  0.11337610873E+00  0.71496644520E-01  0.89090853827E+00  0.88000000000E+00 0. -1.
        -11    1    4    4    0    0  0.15616968234E-01 -0.39355917934E-01 -0.36047124064E-01  0.55609659660E-01  0.51100000000E-03 0. -1.
         11    1    4    4    0    0  0.35947400868E-01 -0.55641173252E-01 -0.31995933853E-01  0.73567361609E-01  0.51100000000E-03 0.  1.
</event>
<event>
 8    1  0.1097777E+005  0.1043930E+01  0.7957747E-01            NaN
         13   -1    0    0    0    0  0.00000000000E+00  0.00000000000E+00  0.74505805969E-08  0.10566000000E+00  0.10566000000E+00 0. -1.
     999900   -1    0    0    0    0 -0.00000000000E+00 -0.00000000000E+00 -0.74505805969E-08  0.93827000000E+00  0.93827000000E+00 0. -1.
     999902    2    1    2    0    0  0.91060446760E-02 -0.15695032273E-01  0.14694948458E-01  0.10205805761E+01  0.10203134404E+01 0.  0.
     999903    2    3    3    0    0 -0.11522341629E-01  0.44562497468E-01 -0.11806953947E+00  0.12834579225E+00  0.20338281629E-01 0.  0.
         14    1    1    2    0    0 -0.91060446760E-02  0.15695032273E-01 -0.14694948458E-01  0.23349423930E-01  0.00000000000E+00 0.  1.
     999901    1    3    3    0    0  0.20628386305E-01 -0.60257529741E-01  0.13276448793E+00  0.89223478382E+00  0.88000000000E+00 0.  1.
        -11    1    4    4    0    0 -0.85489426975E-02  0.17680806752E-01 -0.74628813736E-01  0.77171343835E-01  0.51100000000E-03 0. -1.
         11    1    4    4    0    0 -0.29733989314E-02  0.26881690716E-01 -0.43440725732E-01  0.51174448410E-01  0.51100000000E-03 0.  1.
</event>
<event>
 8    1  0.1097777E+005  0.1043930E+01  0.7957747E-01            NaN
         13   -1    0    0    0    0  0.00000000000E+00  0.00000000000E+00  0.74505805969E-08  0.10566000000E+00  0.10566000000E+00 0. -1.
     999900   -1    0    0    0    0 -0.00000000000E+00 -0.00000000000E+00 -0.74505805969E-08  0.93827000000E+00  0.93827000000E+00 0. -1.
     999902    2    1    2    0    0 -0.19269289570E-01 -0.10906450489E-01  0.73032685394E-02  0.10206148994E+01  0.10203485576E+01 0.  0.
     999903    2    3    3    0    0  0.12127887455E+00  0.17596335907E-01 -0.32703294701E-01  0.12810903370E+00  0.18006181796E-01 0.  0.
         14    1    1    2    0    0  0.19269289570E-01  0.10906450489E-01 -0.73032685394E-02  0.23315100561E-01  0.00000000000E+00 0.  1.
     999901    1    3    3    0    0 -0.14054816412E+00 -0.28502786396E-01  0.40006563241E-01  0.89250586574E+00  0.88000000000E+00 0. -1.
        -11    1    4    4    0    0  0.65511504252E-01  0.18342743621E-01 -0.16037010947E-01  0.69897498339E-01  0.51100000000E-03 0.  1.
         11    1    4    4    0    0  0.55767370297E-01 -0.74640771432E-03 -0.16666283755E-01  0.58211535365E-01  0.51100000000E-03 0. -1.
</event>
<event>
 8    1  0.1097777E+005  0.1043930E+01  0.7957747E-01            NaN
         13   -1    0    0    0    0  0.00000000000E+00  0.00000000000E+00  0.74505805969E-08  0.10566000000E+00  0.10566000000E+00 0. -1.
     999900   -1    0    0    0    0 -0.00000000000E+00 -0.00000000000E+00 -0.74505805969E-08  0.93827000000E+00  0.93827000000E+00 0. -1.
     999902    2    1    2    0    0  0.56410013373E-02 -0.87997198569E-02 -0.23885560516E-01  0.10178574864E+01  0.10175235067E+01 0.  0.
     999903    2    3    3    0    0  0.95097583622E-01  0.81398672094E-01  0.16719845811E-01  0.12780859499E+00  0.19651704271E-01 0.  0.
         14    1    1    2    0    0 -0.56410013373E-02  0.87997198569E-02  0.23885560516E-01  0.26072513627E-01  0.00000000000E+00 0.  1.
     999901    1    3    3    0    0 -0.89456582285E-01 -0.90198391951E-01 -0.40605406327E-01  0.89004889138E+00  0.88000000000E+00 0. -1.
        -11    1    4    4    0    0  0.12401328668E-01  0.12179615921E-01 -0.43517890871E-02  0.17925824555E-01  0.51100000000E-03 0. -1.
         11    1    4    4    0    0  0.82696254953E-01  0.69219056173E-01  0.21071634898E-01  0.10988277044E+00  0.51100000000E-03 0.  1.
</event>
<event>
 8    1  0.1097777E+005  0.1043930E+01  0.7957747E-01            NaN
         13   -1    0    0    0    0  0.00000000000E+00  0.00000000000E+00  0.74505805969E-08  0.10566000000E+00  0.10566000000E+00 0.  1.
     999900   -1    0    0    0    0 -0.00000000000E+00 -0.00000000000E+00 -0.74505805969E-08  0.93827000000E+00  0.93827000000E+00 0.  1.
     999902    2    1    2    0    0 -0.91047593107E-02 -0.18531924147E-01 -0.10291590623E-01  0.10208595494E+01  0.10205988310E+01 0.  0.
     999903    2    3    3    0    0 -0.82543092102E-01 -0.10317196756E+00  0.45134594927E-02  0.13362997638E+00  0.19462330999E-01 0.  0.
         14    1    1    2    0    0  0.91047593107E-02  0.18531924147E-01  0.10291590623E-01  0.23070450630E-01  0.00000000000E+00 0.  1.
     999901    1    3    3    0    0  0.73438332791E-01  0.84640043413E-01 -0.14805050115E-01  0.88722957299E+00  0.88000000000E+00 0. -1.
        -11    1    4    4    0    0 -0.37447065287E-01 -0.62294342031E-01  0.26815574850E-02  0.72734583379E-01  0.51100000000E-03 0.  1.
         11    1    4    4    0    0 -0.45096026814E-01 -0.40877625529E-01  0.18319020077E-02  0.60895393005E-01  0.51100000000E-03 0. -1.
</event>
<event>
 8    1  0.1097777E+005  0.1043930E+01  0.7957747E-01            NaN
         13   -1    0    0    0    0  0.00000000000E+00  0.00000000000E+00  0.74505805969E-08  0.10566000000E+00  0.10566000000E+00 0. -1.
     999900   -1    0    0    0    0 -0.00000000000E+00 -0.00000000000E+00 -0.74505805969E-08  0.93827000000E+00  0.93827000000E+00 0.  1.
     999902    2    1    2    0    0 -0.23509748088E-01 -0.87131406850E-04  0.47923114530E-02  0.10199366239E+01  0.10196543702E+01 0.  0.
     999903    2    3    3    0    0 -0.10121858475E+00  0.60959710245E-01  0.58527442373E-01  0.13277663582E+00  0.15584779011E-01 0.  0.
         14    1    1    2    0    0  0.23509748088E-01  0.87131406850E-04 -0.47923114530E-02  0.23993376088E-01  0.00000000000E+00 0.  1.
     999901    1    3    3    0    0  0.77708836667E-01 -0.61046841652E-01 -0.53735130920E-01  0.88715998809E+00  0.88000000000E+00 0.  1.
        -11    1    4    4    0    0 -0.65327185500E-01  0.31103848673E-01  0.32452023448E-01  0.79299971718E-01  0.51100000000E-03 0.  1.
         11    1    4    4    0    0 -0.35891399254E-01  0.29855861572E-01  0.26075418925E-01  0.53476664104E-01  0.51100000000E-03 0. -1.
</event>
<event>
 8    1  0.1097777E+005  0.1043930E+01  0.7957747E-01            NaN
         13   -1    0    0    0    0  0.00000000000E+00  0.00000000000E+00  0.74505805969E-08  0.10566000000E+00  0.10566000000E+00 0. -1.
     999900   -1    0    0    0    0 -0.00000000000E+00 -0.00000000000E+00 -0.74505805969E-08  0.93827000000E+00  0.93827000000E+00 0. -1.
     999902    2    1    2    0    0 -0.10401273529E-01 -0.15805081324E-01  0.14451193794E-01  0.10201219323E+01  0.10198440727E+01 0.  0.
     999903    2    3    3    0    0  0.82684264495E-02  0.92395137405E-02 -0.12594409249E+00  0.12844563123E+00  0.21968847450E-01 0.  0.
         14    1    1    2    0    0  0.10401273529E-01  0.15805081324E-01 -0.14451193794E-01  0.23808067724E-01  0.00000000000E+00 0. -1.
     999901    1    3    3    0    0 -0.18669699978E-01 -0.25044595064E-01  0.14039528628E+00  0.89167630105E+00  0.88000000000E+00 0.  1.
        -11    1    4    4    0    0  0.52360716770E-02  0.13721737003E-02 -0.11207426931E+00  0.11220607056E+00  0.51100000000E-03 0.  1.
         11    1    4    4    0    0  0.30323547725E-02  0.78673400402E-02 -0.13869823181E-01  0.16239560673E-01  0.51100000000E-03 0. -1.
</event>
<event>
 8    1  0.1097777E+005  0.1043930E+01  0.7957747E-01            NaN
         13   -1    0    0    0    0  0.00000000000E+00  0.00000000000E+00  0.74505805969E-08  0.10566000000E+00  0.10566000000E+00 0. -1.
     999900   -1    0    0    0    0 -0.00000000000E+00 -0.00000000000E+00 -0.74505805969E-08  0.93827000000E+00  0.93827000000E+00 0.  1.
     999902    2    1    2    0    0  0.12617603201E-01 -0.82192011170E-02  0.17813965874E-01  0.10206041226E+01  0.10203375316E+01 0.  0.
     999903    2    3    3    0    0  0.70790876261E-01  0.75423641513E-01  0.80172560102E-01  0.13253382744E+00  0.20916552353E-01 0.  0.
         14    1    1    2    0    0 -0.12617603201E-01  0.82192011170E-02 -0.17813965874E-01  0.23325877426E-01  0.00000000000E+00 0.  1.
     999901    1    3    3    0    0 -0.58173273061E-01 -0.83642842630E-01 -0.62358594228E-01  0.88807029513E+00  0.88000000000E+00 0.  1.
        -11    1    4    4    0    0  0.22112734621E-02  0.11614080218E-01  0.99276200442E-02  0.15446531985E-01  0.51100000000E-03 0.  1.
         11    1    4    4    0    0  0.68579602799E-01  0.63809561295E-01  0.70244940058E-01  0.11708729546E+00  0.51100000000E-03 0. -1.
</event>
<event>
 8    1  0.1097777E+005  0.1043930E+01  0.7957747E-01            NaN
         13   -1    0    0    0    0  0.00000000000E+00  0.00000000000E+00  0.74505805969E-08  0.10566000000E+00  0.10566000000E+00 0. -1.
     999900   -1    0    0    0    0 -0.00000000000E+00 -0.00000000000E+00 -0.74505805969E-08  0.93827000000E+00  0.93827000000E+00 0. -1.
     999902    2    1    2    0    0  0.20875280309E-02 -0.30812129077E-01  0.18860835283E-02  0.10129896965E+01  0.10125170728E+01 0.  0.
     999903    2    3    3    0    0 -0.53936685090E-01 -0.55875749202E-01  0.96861867389E-01  0.12575393466E+00  0.20014129543E-01 0.  0.
         14    1    1    2    0    0 -0.20875280309E-02  0.30812129077E-01 -0.18860835283E-02  0.30940303531E-01  0.00000000000E+00 0.  1.
     999901    1    3    3    0    0  0.56024213121E-01  0.25063620125E-01 -0.94975783861E-01  0.88723576181E+00  0.88000000000E+00 0. -1.
        -11    1    4    4    0    0 -0.51978004885E-02 -0.15541798648E-01  0.26210417735E-01  0.30916205362E-01  0.51100000000E-03 0.  1.
         11    1    4    4    0    0 -0.48738884601E-01 -0.40333950554E-01  0.70651449654E-01  0.94837729300E-01  0.51100000000E-03 0. -1.
</event>
<event>
 8    1  0.1097777E+005  0.1043930E+01  0.7957747E-01            NaN
         13   -1    0    0    0    0  0.00000000000E+00  0.00000000000E+00  0.74505805969E-08  0.10566000000E+00  0.10566000000E+00 0. -1.
     999900   -1    0    0    0    0 -0.00000000000E+00 -0.00000000000E+00 -0.74505805969E-08  0.93827000000E+00  0.93827000000E+00 0. -1.
     999902    2    1    2    0    0  0.11440683644E-02 -0.18378978158E-01 -0.15353932166E-01  0.10199542005E+01  0.10196723651E+01 0.  0.
     999903    2    3    3    0    0 -0.39508189915E-01 -0.82405850509E-01 -0.94751705186E-01  0.13313062565E+00  0.19855895370E-01 0.  0.
         14    1    1    2    0    0 -0.11440683644E-02  0.18378978158E-01  0.15353932166E-01  0.23975799538E-01  0.00000000000E+00 0.  1.
     999901    1    3    3    0    0  0.40652258279E-01  0.64026872351E-01  0.79397773021E-01  0.88682357481E+00  0.88000000000E+00 0.  1.
        -11    1    4    4    0    0 -0.28993721574E-01 -0.74675924506E-01 -0.85229212866E-01  0.11696755720E+00  0.51100000000E-03 0. -1.
         11    1    4    4    0    0 -0.10514468340E-01 -0.77299260032E-02 -0.95224923208E-02  0.16163068443E-01  0.51100000000E-03 0.  1.
</event>
<event>
 8    1  0.1097777E+005  0.1043930E+01  0.7957747E-01            NaN
         13   -1    0    0    0    0  0.00000000000E+00  0.00000000000E+00  0.74505805969E-08  0.10566000000E+00  0.10566000000E+00 0. -1.
     999900   -1    0    0    0    0 -0.00000000000E+00 -0.00000000000E+00 -0.74505805969E-08  0.93827000000E+00  0.93827000000E+00 0. -1.
     999902    2    1    2    0    0  0.16687459541E-01  0.16687577713E-01  0.55682136131E-02  0.10196822876E+01  0.10193939454E+01 0.  0.
     999903    2    3    3    0    0  0.12054083841E-01 -0.33892287093E-01  0.12373636203E+00  0.13033224275E+00  0.19540167622E-01 0.  0.
         14    1    1    2    0    0 -0.16687459541E-01 -0.16687577713E-01 -0.55682136131E-02  0.24247712443E-01  0.00000000000E+00 0.  1.
     999901    1    3    3    0    0  0.46333757004E-02  0.50579864806E-01 -0.11816814842E+00  0.88935004480E+00  0.88000000000E+00 0. -1.
        -11    1    4    4    0    0  0.49061151759E-02 -0.57271768303E-02  0.57576644928E-01  0.58070661119E-01  0.51100000000E-03 0. -1.
         11    1    4    4    0    0  0.71479686651E-02 -0.28165110263E-01  0.66159717102E-01  0.72261581633E-01  0.51100000000E-03 0.  1.
</event>
<event>
 8    1  0.1097777E+005  0.1043930E+01  0.7957747E-01            NaN
         13   -1    0    0    0    0  0.00000000000E+00  0.00000000000E+00  0.74505805969E-08  0.10566000000E+00  0.10566000000E+00 0. -1.
     999900   -1    0    0    0    0 -0.00000000000E+00 -0.00000000000E+00 -0.74505805969E-08  0.93827000000E+00  0.93827000000E+00 0.  1.
     999902    2    1    2    0    0 -0.16200809534E-02  0.14564250794E-01 -0.21778342892E-01  0.10176804613E+01  0.10173418713E+01 0.  0.
     999903    2    3    3    0    0  0.62583447921E-02 -0.12425583892E+00  0.82890816687E-02  0.12625624302E+00  0.19830522914E-01 0.  0.
         14    1    1    2    0    0  0.16200809534E-02 -0.14564250794E-01  0.21778342892E-01  0.26249538713E-01  0.00000000000E+00 0.  1.
     999901    1    3    3    0    0 -0.78784257455E-02  0.13882008972E+00 -0.30067424561E-01  0.89142421827E+00  0.88000000000E+00 0. -1.
        -11    1    4    4    0    0 -0.21583964788E-03 -0.43917596454E-01 -0.62234475629E-02  0.44359827385E-01  0.51100000000E-03 0.  1.
         11    1    4    4    0    0  0.64741844399E-02 -0.80338242471E-01  0.14512529232E-01  0.81896415631E-01  0.51100000000E-03 0. -1.
</event>
<event>
 8    1  0.1097777E+005  0.1043930E+01  0.7957747E-01            NaN
         13   -1    0    0    0    0  0.00000000000E+00  0.00000000000E+00  0.74505805969E-08  0.10566000000E+00  0.10566000000E+00 0. -1.
     999900   -1    0    0    0    0 -0.00000000000E+00 -0.00000000000E+00 -0.74505805969E-08  0.93827000000E+00  0.93827000000E+00 0.  1.
     999902    2    1    2    0    0 -0.12600181910E-01  0.13908460659E-01 -0.15446754314E-01  0.10196233737E+01  0.10193336118E+01 0.  0.
     999903    2    3    3    0    0 -0.40378057507E-01  0.40051437161E-01  0.11424574833E+00  0.12930028021E+00  0.20783799081E-01 0.  0.
         14    1    1    2    0    0  0.12600181910E-01 -0.13908460659E-01  0.15446754314E-01  0.24306626276E-01  0.00000000000E+00 0. -1.
     999901    1    3    3    0    0  0.27777875597E-01 -0.26142976503E-01 -0.12969250265E+00  0.89032309351E+00  0.88000000000E+00 0.  1.
        -11    1    4    4    0    0 -0.16951999991E-01  0.30897905690E-01  0.62151262938E-01  0.71449922922E-01  0.51100000000E-03 0. -1.
         11    1    4    4    0    0 -0.23426057516E-01  0.91535314710E-02  0.52094485396E-01  0.57850357292E-01  0.51100000000E-03 0.  1.
</event>
<event>
 8    1  0.1097777E+005  0.1043930E+01  0.7957747E-01            NaN
         13   -1    0    0    0    0  0.00000000000E+00  0.00000000000E+00  0.74505805969E-08  0.10566000000E+00  0.10566000000E+00 0.  1.
     999900   -1    0    0    0    0 -0.00000000000E+00 -0.00000000000E+00 -0.74505805969E-08  0.93827000000E+00  0.93827000000E+00 0. -1.
     999902    2    1    2    0    0  0.13689830860E-01  0.18949020650E-02  0.19884907481E-01  0.10197140617E+01  0.10194264838E+01 0.  0.
     999903    2    3    3    0    0 -0.87540028075E-01  0.67461549353E-01  0.65728847053E-01  0.13030519262E+00  0.21091342608E-01 0.  0.
         14    1    1    2    0    0 -0.13689830860E-01 -0.18949020650E-02 -0.19884907481E-01  0.24215938312E-01  0.00000000000E+00 0. -1.
     999901    1    3    3    0    0  0.10122985893E+00 -0.65566647288E-01 -0.45843939572E-01  0.88940886907E+00  0.88000000000E+00 0. -1.
        -11    1    4    4    0    0 -0.45366830868E-01  0.32050687189E-01  0.44904786013E-01  0.71428963455E-01  0.51100000000E-03 0.  1.
         11    1    4    4    0    0 -0.42173197207E-01  0.35410862164E-01  0.20824061039E-01  0.58876229168E-01  0.51100000000E-03 0. -1.
</event>
<event>
 8    1  0.1097777E+005  0.1043930E+01  0.7957747E-01            NaN
         13   -1    0    0    0    0  0.00000000000E+00  0.00000000000E+00  0.74505805969E-08  0.10566000000E+00  0.10566000000E+00 0.  1.
     999900   -1    0    0    0    0 -0.00000000000E+00 -0.00000000000E+00 -0.74505805969E-08  0.93827000000E+00  0.93827000000E+00 0.  1.
     999902    2    1    2    0    0 -0.26161509339E-02  0.11631331331E-01  0.20921302150E-01  0.10198502783E+01  0.10195659651E+01 0.  0.
     999903    2    3    3    0    0 -0.62927184919E-01 -0.84143262494E-01 -0.69755770205E-01  0.12798003823E+00  0.21750942128E-01 0.  0.
         14    1    1    2    0    0  0.26161509339E-02 -0.11631331331E-01 -0.20921302150E-01  0.24079721716E-01  0.00000000000E+00 0. -1.
     999901    1    3    3    0    0  0.60311033985E-01  0.95774593825E-01  0.90677072356E-01  0.89187024005E+00  0.88000000000E+00 0. -1.
        -11    1    4    4    0    0 -0.75724101839E-02 -0.17738100473E-01 -0.21822277764E-01  0.29128242861E-01  0.51100000000E-03 0.  1.
         11    1    4    4    0    0 -0.55354774735E-01 -0.66405162021E-01 -0.47933492442E-01  0.98851795369E-01  0.51100000000E-03 0. -1.
</event>
<event>
 8    1  0.1097777E+005  0.1043930E+01  0.7957747E-01            NaN
         13   -1    0    0    0    0  0.00000000000E+00  0.00000000000E+00  0.74505805969E-08  0.10566000000E+00  0.10566000000E+00 0.  1.
     999900   -1    0    0    0    0 -0.00000000000E+00 -0.00000000000E+00 -0.74505805969E-08  0.93827000000E+00  0.93827000000E+00 0.  1.
     999902    2    1    2    0    0 -0.21494421025E-01 -0.53988423608E-02 -0.87518804130E-02  0.10201024310E+01  0.10198241107E+01 0.  0.
     999903    2    3    3    0    0 -0.81677506420E-01  0.97114757232E-01 -0.25986639261E-01  0.13194249113E+00  0.25120199394E-01 0.  0.
         14    1    1    2    0    0  0.21494421025E-01  0.53988423608E-02  0.87518804130E-02  0.23827569007E-01  0.00000000000E+00 0. -1.
     999901    1    3    3    0    0  0.60183085395E-01 -0.10251359959E+00  0.17234758848E-01  0.88815993987E+00  0.88000000000E+00 0. -1.
        -11    1    4    4    0    0 -0.90346821056E-02  0.39162942391E-02 -0.73899045250E-02  0.12322120402E-01  0.51100000000E-03 0.  1.
         11    1    4    4    0    0 -0.72642824314E-01  0.93198462993E-01 -0.18596734736E-01  0.11962037073E+00  0.51100000000E-03 0. -1.
</event>
<event>
 8    1  0.1097777E+005  0.1043930E+01  0.7957747E-01            NaN
         13   -1    0    0    0    0  0.00000000000E+00  0.00000000000E+00  0.74505805969E-08  0.10566000000E+00  0.10566000000E+00 0. -1.
     999900   -1    0    0    0    0 -0.00000000000E+00 -0.00000000000E+00 -0.74505805969E-08  0.93827000000E+00  0.93827000000E+00 0.  1.
     999902    2    1    2    0    0  0.16834279983E-01  0.12070068822E-01  0.99183398773E-02  0.10209636548E+01  0.10207053108E+01 0.  0.
     999903    2    3    3    0    0 -0.77954184153E-01 -0.19238058793E-01  0.10111357665E+00  0.13063696031E+00  0.19877179961E-01 0.  0.
         14    1    1    2    0    0 -0.16834279983E-01 -0.12070068822E-01 -0.99183398773E-02  0.22966345156E-01  0.00000000000E+00 0. -1.
     999901    1    3    3    0    0  0.94788464136E-01  0.31308127615E-01 -0.91195236772E-01  0.89032669453E+00  0.88000000000E+00 0.  1.
        -11    1    4    4    0    0 -0.46524033614E-01 -0.21015182334E-01  0.58312496092E-01  0.77503109058E-01  0.51100000000E-03 0. -1.
         11    1    4    4    0    0 -0.31430150539E-01  0.17771235410E-02  0.42801080558E-01  0.53133851252E-01  0.51100000000E-03 0.  1.
</event>
<event>
 8    1  0.1097777E+005  0.1043930E+01  0.7957747E-01            NaN
         13   -1    0    0    0    0  0.00000000000E+00  0.00000000000E+00  0.74505805969E-08  0.10566000000E+00  0.10566000000E+00 0. -1.
     999900   -1    0    0    0    0 -0.00000000000E+00 -0.00000000000E+00 -0.74505805969E-08  0.93827000000E+00  0.93827000000E+00 0.  1.
     999902    2    1    2    0    0 -0.71884289077E-02 -0.14223532469E-01 -0.16412843501E-01  0.10210528538E+01  0.10207965353E+01 0.  0.
     999903    2    3    3    0    0 -0.28857888750E-01  0.53657091181E-01 -0.11593308190E+00  0.13258134475E+00  0.20626980397E-01 0.  0.
         14    1    1    2    0    0  0.71884289077E-02  0.14223532469E-01  0.16412843501E-01  0.22877146192E-01  0.00000000000E+00 0. -1.
     999901    1    3    3    0    0  0.21669459842E-01 -0.67880623651E-01  0.99520238397E-01  0.88847150906E+00  0.88000000000E+00 0. -1.
        -11    1    4    4    0    0 -0.12919998990E-02  0.21020262263E-01 -0.46625315065E-01  0.51163481265E-01  0.51100000000E-03 0. -1.
         11    1    4    4    0    0 -0.27565888851E-01  0.32636828919E-01 -0.69307766834E-01  0.81417863485E-01  0.51100000000E-03 0.  1.
</event>
<event>
 8    1  0.1097777E+005  0.1043930E+01  0.7957747E-01            NaN
         13   -1    0    0    0    0  0.00000000000E+00  0.00000000000E+00  0.74505805969E-08  0.10566000000E+00  0.10566000000E+00 0. -1.
     999900   -1    0    0    0    0 -0.00000000000E+00 -0.00000000000E+00 -0.74505805969E-08  0.93827000000E+00  0.93827000000E+00 0.  1.
     999902    2    1    2    0    0  0.45980640871E-02 -0.16671760816E-01 -0.16170046513E-01  0.10202538473E+01  0.10199790943E+01 0.  0.
     999903    2    3    3    0    0  0.88717270102E-01  0.75661197446E-01  0.50348352992E-01  0.12894799998E+00  0.22299310244E-01 0.  0.
         14    1    1    2    0    0 -0.45980640871E-02  0.16671760816E-01  0.16170046513E-01  0.23676152692E-01  0.00000000000E+00 0. -1.
     999901    1    3    3    0    0 -0.84119206015E-01 -0.92332958262E-01 -0.66518399506E-01  0.89130584732E+00  0.88000000000E+00 0.  1.
        -11    1    4    4    0    0  0.27304302025E-01  0.22295835370E-01  0.44533885689E-02  0.35534813559E-01  0.51100000000E-03 0.  1.
         11    1    4    4    0    0  0.61412968076E-01  0.53365362076E-01  0.45894964423E-01  0.93413186424E-01  0.51100000000E-03 0. -1.
</event>
<event>
 8    1  0.1097777E+005  0.1043930E+01  0.7957747E-01            NaN
         13   -1    0    0    0    0  0.00000000000E+00  0.00000000000E+00  0.74505805969E-08  0.10566000000E+00  0.10566000000E+00 0.  1.
     999900   -1    0    0    0    0 -0.00000000000E+00 -0.00000000000E+00 -0.74505805969E-08  0.93827000000E+00  0.93827000000E+00 0. -1.
     999902    2    1    2    0    0 -0.19273025055E-01  0.10988496283E-01  0.45905303345E-02  0.10212745478E+01  0.10210232282E+01 0.  0.
     999903    2    3    3    0    0  0.10197491776E+00  0.78180780831E-01 -0.66111872747E-02  0.13035292094E+00  0.20905928773E-01 0.  0.
         14    1    1    2    0    0  0.19273025055E-01 -0.10988496283E-01 -0.45905303345E-02  0.22655452193E-01  0.00000000000E+00 0. -1.
     999901    1    3    3    0    0 -0.12124794281E+00 -0.67192284548E-01  0.11201717609E-01  0.89092162687E+00  0.88000000000E+00 0.  1.
        -11    1    4    4    0    0  0.33939476158E-01  0.17931742310E-01 -0.90496856903E-02  0.39441011095E-01  0.51100000000E-03 0.  1.
         11    1    4    4    0    0  0.68035441599E-01  0.60249038521E-01  0.24384984156E-02  0.90911909846E-01  0.51100000000E-03 0. -1.
</event>
<event>
 8    1  0.1097777E+005  0.1043930E+01  0.7957747E-01            NaN
         13   -1    0    0    0    0  0.00000000000E+00  0.00000000000E+00  0.74505805969E-08  0.10566000000E+00  0.10566000000E+00 0.  1.
     999900   -1    0    0    0    0 -0.00000000000E+00 -0.00000000000E+00 -0.74505805969E-08  0.93827000000E+00  0.93827000000E+00 0.  1.
     999902    2    1    2    0    0  0.18044978642E-01 -0.44102182395E-02  0.15877691873E-01  0.10194928893E+01  0.10191999701E+01 0.  0.
     999903    2    3    3    0    0 -0.10738427553E+00  0.44917140750E-02 -0.64471040488E-01  0.12693047638E+00  0.20081649489E-01 0.  0.
         14    1    1    2    0    0 -0.18044978642E-01  0.44102182395E-02 -0.15877691873E-01  0.24437110679E-01  0.00000000000E+00 0. -1.
     999901    1    3    3    0    0  0.12542925417E+00 -0.89019323145E-02  0.80348732361E-01  0.89256241294E+00  0.88000000000E+00 0. -1.
        -11    1    4    4    0    0 -0.74519313966E-01  0.23279146873E-02 -0.55022076023E-01  0.92661951801E-01  0.51100000000E-03 0.  1.
         11    1    4    4    0    0 -0.32864961565E-01  0.21637993877E-02 -0.94489644657E-02  0.34268524581E-01  0.51100000000E-03 0. -1.
</event>
<event>
 8    1  0.1097777E+005  0.1043930E+01  0.7957747E-01            NaN
         13   -1    0    0    0    0  0.00000000000E+00  0.00000000000E+00  0.74505805969E-08  0.10566000000E+00  0.10566000000E+00 0.  1.
     999900   -1    0    0    0    0 -0.00000000000E+00 -0.00000000000E+00 -0.74505805969E-08  0.93827000000E+00  0.93827000000E+00 0. -1.
     999902    2    1    2    0    0  0.91813318270E-02  0.18307040618E-01 -0.11536445008E-01  0.10204239550E+01  0.10201531815E+01 0.  0.
     999903    2    3    3    0    0 -0.89749492167E-01  0.92427521236E-01 -0.20621123750E-01  0.13173746075E+00  0.18212901889E-01 0.  0.
         14    1    1    2    0    0 -0.91813318270E-02 -0.18307040618E-01  0.11536445008E-01  0.23506045047E-01  0.00000000000E+00 0. -1.
     999901    1    3    3    0    0  0.98930823994E-01 -0.74120480618E-01  0.90846787416E-02  0.88868649420E+00  0.88000000000E+00 0. -1.
        -11    1    4    4    0    0 -0.13989761163E-01  0.18372831867E-01 -0.10307067712E-01  0.25293697516E-01  0.51100000000E-03 0.  1.
         11    1    4    4    0    0 -0.75759731005E-01  0.74054689370E-01 -0.10314056037E-01  0.10644376324E+00  0.51100000000E-03 0. -1.
</event>
<event>
 8    1  0.1097777E+005  0.1043930E+01  0.7957747E-01            NaN
         13   -1    0    0    0    0  0.00000000000E+00  0.00000000000E+00  0.74505805969E-08  0.10566000000E+00  0.10566000000E+00 0.  1.
     999900   -1    0    0    0    0 -0.00000000000E+00 -0.00000000000E+00 -0.74505805969E-08  0.93827000000E+00  0.93827000000E+00 0. -1.
     999902    2    1    2    0    0 -0.82592129742E-02 -0.21036370474E-01 -0.42155412541E-02  0.10209405618E+01  0.10206816920E+01 0.  0.
     999903    2    3    3    0    0 -0.25333243193E-01 -0.92853573809E-01 -0.90584002671E-01  0.13363636122E+00  0.19739709221E-01 0.  0.
         14    1    1    2    0    0  0.82592129742E-02  0.21036370474E-01  0.42155412541E-02  0.22989438221E-01  0.00000000000E+00 0.  1.
     999901    1    3    3    0    0  0.17074030219E-01  0.71817203336E-01  0.86368461417E-01  0.88730420056E+00  0.88000000000E+00 0.  1.
        -11    1    4    4    0    0 -0.35832225491E-02 -0.25581372937E-01 -0.36017992168E-01  0.44326098475E-01  0.51100000000E-03 0. -1.
         11    1    4    4    0    0 -0.21750020644E-01 -0.67272200873E-01 -0.54566010503E-01  0.89310262744E-01  0.51100000000E-03 0.  1.
</event>
<event>
 8    1  0.1097777E+005  0.1043930E+01  0.7957747E-01            NaN
         13   -1    0    0    0    0  0.00000000000E+00  0.00000000000E+00  0.74505805969E-08  0.10566000000E+00  0.10566000000E+00 0.  1.
     999900   -1    0    0    0    0 -0.00000000000E+00 -0.00000000000E+00 -0.74505805969E-08  0.93827000000E+00  0.93827000000E+00 0. -1.
     999902    2    1    2    0    0  0.41057722487E-04  0.24508837827E-02 -0.20938150821E-01  0.10228488549E+01  0.10226315883E+01 0.  0.
     999903    2    3    3    0    0 -0.10373773043E+00  0.29051907169E-01 -0.77958461451E-01  0.13451954262E+00  0.20309003155E-01 0.  0.
         14    1    1    2    0    0 -0.41057722487E-04 -0.24508837827E-02  0.20938150821E-01  0.21081145056E-01  0.00000000000E+00 0.  1.
     999901    1    3    3    0    0  0.10377878815E+00 -0.26601023387E-01  0.57020310630E-01  0.88832931233E+00  0.88000000000E+00 0.  1.
        -11    1    4    4    0    0 -0.15707193570E-01 -0.38078685009E-03 -0.51270474158E-02  0.16535073772E-01  0.51100000000E-03 0. -1.
         11    1    4    4    0    0 -0.88030536860E-01  0.29432694019E-01 -0.72831414035E-01  0.11798446884E+00  0.51100000000E-03 0.  1.
</event>
<event>
 8    1  0.1097777E+005  0.1043930E+01  0.7957747E-01            NaN
         13   -1    0    0    0    0  0.00000000000E+00  0.00000000000E+00  0.74505805969E-08  0.10566000000E+00  0.10566000000E+00 0.  1.
     999900   -1    0    0    0    0 -0.00000000000E+00 -0.00000000000E+00 -0.74505805969E-08  0.93827000000E+00  0.93827000000E+00 0. -1.
     999902    2    1    2    0    0 -0.27073996386E-03  0.20573386312E-01 -0.12972104041E-01  0.10196069038E+01  0.10193167443E+01 0.  0.
     999903    2    3    3    0    0 -0.21979684294E-01  0.79354000675E-01  0.98944281808E-01  0.13030846330E+00  0.20252426045E-01 0.  0.
         14    1    1    2    0    0  0.27073996386E-03 -0.20573386312E-01  0.12972104041E-01  0.24323096179E-01  0.00000000000E+00 0. -1.
     999901    1    3    3    0    0  0.21708944331E-01 -0.58780614363E-01 -0.11191638585E+00  0.88929844052E+00  0.88000000000E+00 0. -1.
        -11    1    4    4    0    0 -0.54318404935E-02  0.35566278816E-01  0.29348604769E-01  0.46433466410E-01  0.51100000000E-03 0.  1.
         11    1    4    4    0    0 -0.16547843801E-01  0.43787721859E-01  0.69595677039E-01  0.83874996891E-01  0.51100000000E-03 0. -1.
</event>
<event>
 8    1  0.1097777E+005  0.1043930E+01  0.7957747E-01            NaN
         13   -1    0    0    0    0  0.00000000000E+00  0.00000000000E+00  0.74505805969E-08  0.10566000000E+00  0.10566000000E+00 0. -1.
     999900   -1    0    0    0    0 -0.00000000000E+00 -0.00000000000E+00 -0.74505805969E-08  0.93827000000E+00  0.93827000000E+00 0. -1.
     999902    2    1    2    0    0  0.87885677779E-02  0.16841590978E-01 -0.13580542513E-01  0.10205781426E+01  0.10203109506E+01 0.  0.
     999903    2    3    3    0    0  0.96031088832E-02 -0.11959935540E+00  0.41120469687E-01  0.12838478009E+00  0.19888016956E-01 0.  0.
         14    1    1    2    0    0 -0.87885677779E-02 -0.16841590978E-01  0.13580542513E-01  0.23351857425E-01  0.00000000000E+00 0. -1.
     999901    1    3    3    0    0 -0.81454110530E-03  0.13644094638E+00 -0.54701012200E-01  0.89219336249E+00  0.88000000000E+00 0.  1.
        -11    1    4    4    0    0  0.18589079734E-02 -0.41889057678E-01  0.46454252352E-02  0.42189925203E-01  0.51100000000E-03 0.  1.
         11    1    4    4    0    0  0.77442009098E-02 -0.77710297725E-01  0.36475044452E-01  0.86194854887E-01  0.51100000000E-03 0. -1.
</event>
<event>
 8    1  0.1097777E+005  0.1043930E+01  0.7957747E-01            NaN
         13   -1    0    0    0    0  0.00000000000E+00  0.00000000000E+00  0.74505805969E-08  0.10566000000E+00  0.10566000000E+00 0.  1.
     999900   -1    0    0    0    0 -0.00000000000E+00 -0.00000000000E+00 -0.74505805969E-08  0.93827000000E+00  0.93827000000E+00 0. -1.
     999902    2    1    2    0    0  0.50598628866E-02 -0.21882076845E-01 -0.23926909202E-01  0.10111134724E+01  0.10105807883E+01 0.  0.
     999903    2    3    3    0    0  0.73231744309E-01  0.47108059725E-01  0.79631760492E-01  0.11974854016E+00  0.20406810788E-01 0.  0.
         14    1    1    2    0    0 -0.50598628866E-02  0.21882076845E-01  0.23926909202E-01  0.32816527596E-01  0.00000000000E+00 0.  1.
     999901    1    3    3    0    0 -0.68171881422E-01 -0.68990136570E-01 -0.10355866969E+00  0.89136493224E+00  0.88000000000E+00 0.  1.
        -11    1    4    4    0    0  0.49935867251E-01  0.30188003522E-01  0.39949532852E-01  0.70718686999E-01  0.51100000000E-03 0.  1.
         11    1    4    4    0    0  0.23295877058E-01  0.16920056203E-01  0.39682227640E-01  0.49029853164E-01  0.51100000000E-03 0. -1.
</event>
<event>
 8    1  0.1097777E+005  0.1043930E+01  0.7957747E-01            NaN
         13   -1    0    0    0    0  0.00000000000E+00  0.00000000000E+00  0.74505805969E-08  0.10566000000E+00  0.10566000000E+00 0. -1.
     999900   -1    0    0    0    0 -0.00000000000E+00 -0.00000000000E+00 -0.74505805969E-08  0.93827000000E+00  0.93827000000E+00 0. -1.
     999902    2    1    2    0    0 -0.30252386436E-01 -0.55307042696E-02 -0.99890564239E-02  0.10115946196E+01  0.10110776912E+01 0.  0.
     999903    2    3    3    0    0 -0.54041752066E-01 -0.10981387905E+00  0.13897349164E-01  0.12479617871E+00  0.20033744252E-01 0.  0.
         14    1    1    2    0    0  0.30252386436E-01  0.55307042696E-02  0.99890564239E-02  0.32335380360E-01  0.00000000000E+00 0. -1.
     999901    1    3    3    0    0  0.23789365630E-01  0.10428317478E+00 -0.23886405588E-01  0.88679844093E+00  0.88000000000E+00 0. -1.
        -11    1    4    4    0    0 -0.21271022225E-01 -0.47315577951E-01  0.15698196259E-01  0.54202534905E-01  0.51100000000E-03 0.  1.
         11    1    4    4    0    0 -0.32770729840E-01 -0.62498301100E-01 -0.18008470951E-02  0.70593643807E-01  0.51100000000E-03 0. -1.
</event>
<event>
 8    1  0.1097777E+005  0.1043930E+01  0.7957747E-01            NaN
         13   -1    0    0    0    0  0.00000000000E+00  0.00000000000E+00  0.74505805969E-08  0.10566000000E+00  0.10566000000E+00 0.  1.
     999900   -1    0    0    0    0 -0.00000000000E+00 -0.00000000000E+00 -0.74505805969E-08  0.93827000000E+00  0.93827000000E+00 0. -1.
     999902    2    1    2    0    0  0.17366066584E-01 -0.12934816564E-01 -0.42457662626E-02  0.10218638205E+01  0.10216255436E+01 0.  0.
     999903    2    3    3    0    0 -0.10825986803E+00  0.57668428884E-01 -0.35484398158E-01  0.12959561760E+00  0.22136731337E-01 0.  0.
         14    1    1    2    0    0 -0.17366066584E-01  0.12934816564E-01  0.42457662626E-02  0.22066179536E-01  0.00000000000E+00 0.  1.
     999901    1    3    3    0    0  0.12562593461E+00 -0.70603245448E-01  0.31238631895E-01  0.89226820286E+00  0.88000000000E+00 0. -1.
        -11    1    4    4    0    0 -0.49550009387E-01  0.23437619521E-01 -0.47941107351E-02  0.55025176581E-01  0.51100000000E-03 0.  1.
         11    1    4    4    0    0 -0.58709858639E-01  0.34230809362E-01 -0.30690287423E-01  0.74570441021E-01  0.51100000000E-03 0. -1.
</event>
<event>
 8    1  0.1097777E+005  0.1043930E+01  0.7957747E-01            NaN
         13   -1    0    0    0    0  0.00000000000E+00  0.00000000000E+00  0.74505805969E-08  0.10566000000E+00  0.10566000000E+00 0. -1.
     999900   -1    0    0    0    0 -0.00000000000E+00 -0.00000000000E+00 -0.74505805969E-08  0.93827000000E+00  0.93827000000E+00 0. -1.
     999902    2    1    2    0    0 -0.22510144206E-01 -0.70914867169E-02  0.51245362542E-02  0.10197792930E+01  0.10194932809E+01 0.  0.
     999903    2    3    3    0    0  0.12052363078E+00 -0.34415688023E-01  0.44601287593E-02  0.12781196503E+00  0.24609357933E-01 0.  0.
         14    1    1    2    0    0  0.22510144206E-01  0.70914867169E-02 -0.51245362542E-02  0.24150706985E-01  0.00000000000E+00 0.  1.
     999901    1    3    3    0    0 -0.14303377498E+00  0.27324201306E-01  0.66440749487E-03  0.89196732799E+00  0.88000000000E+00 0.  1.
        -11    1    4    4    0    0  0.78890664897E-01 -0.34475836244E-01  0.27039676336E-02  0.86138799937E-01  0.51100000000E-03 0. -1.
         11    1    4    4    0    0  0.41632965878E-01  0.60148220939E-04  0.17561611257E-02  0.41673165089E-01  0.51100000000E-03 0.  1.
</event>
<event>
 8    1  0.1097777E+005  0.1043930E+01  0.7957747E-01            NaN
         13   -1    0    0    0    0  0.00000000000E+00  0.00000000000E+00  0.74505805969E-08  0.10566000000E+00  0.10566000000E+00 0.  1.
     999900   -1    0    0    0    0 -0.00000000000E+00 -0.00000000000E+00 -0.74505805969E-08  0.93827000000E+00  0.93827000000E+00 0. -1.
     999902    2    1    2    0    0 -0.21881423297E-01 -0.91892271742E-02 -0.46008196713E-02  0.10197555068E+01  0.10194689242E+01 0.  0.
     999903    2    3    3    0    0 -0.62248634901E-01 -0.81651533234E-01  0.79452186941E-01  0.13186744766E+00  0.23119435920E-01 0.  0.
         14    1    1    2    0    0  0.21881423297E-01  0.91892271742E-02  0.46008196713E-02  0.24174493236E-01  0.00000000000E+00 0. -1.
     999901    1    3    3    0    0  0.40367211604E-01  0.72462306059E-01 -0.84053006612E-01  0.88788805910E+00  0.88000000000E+00 0. -1.
        -11    1    4    4    0    0 -0.22380555329E-01 -0.33819539700E-01  0.17973374419E-01  0.44361625662E-01  0.51100000000E-03 0. -1.
         11    1    4    4    0    0 -0.39868079572E-01 -0.47831993533E-01  0.61478812521E-01  0.87505822002E-01  0.51100000000E-03 0.  1.
</event>
<event>
 8    1  0.1097777E+005  0.1043930E+01  0.7957747E-01            NaN
         13   -1    0    0    0    0  0.00000000000E+00  0.00000000000E+00  0.74505805969E-08  0.10566000000E+00  0.10566000000E+00 0. -1.
     999900   -1    0    0    0    0 -0.00000000000E+00 -0.00000000000E+00 -0.74505805969E-08  0.93827000000E+00  0.93827000000E+00 0. -1.
     999902    2    1    2    0    0 -0.15859958503E-01  0.15156005727E-01  0.48045814764E-02  0.10214727785E+01  0.10212258861E+01 0.  0.
     999903    2    3    3    0    0 -0.89656180566E-01 -0.30754678770E-01 -0.89855207875E-01  0.13213923645E+00  0.20068344386E-01 0.  0.
         14    1    1    2    0    0  0.15859958503E-01 -0.15156005727E-01 -0.48045814764E-02  0.22457221477E-01  0.00000000000E+00 0.  1.
     999901    1    3    3    0    0  0.73796222064E-01  0.45910684497E-01  0.94659789352E-01  0.88933354208E+00  0.88000000000E+00 0.  1.
        -11    1    4    4    0    0 -0.47060968701E-01 -0.71375225297E-02 -0.37221239889E-01  0.60426491068E-01  0.51100000000E-03 0. -1.
         11    1    4    4    0    0 -0.42595211866E-01 -0.23617156241E-01 -0.52633967986E-01  0.71712745379E-01  0.51100000000E-03 0.  1.
</event>
<event>
 8    1  0.1097777E+005  0.1043930E+01  0.7957747E-01            NaN
         13   -1    0    0    0    0  0.00000000000E+00  0.00000000000E+00  0.74505805969E-08  0.10566000000E+00  0.10566000000E+00 0. -1.
     999900   -1    0    0    0    0 -0.00000000000E+00 -0.00000000000E+00 -0.74505805969E-08  0.93827000000E+00  0.93827000000E+00 0. -1.
     999902    2    1    2    0    0 -0.15387379189E-01 -0.15891324783E-01  0.93618244485E-02  0.10199102290E+01  0.10196273465E+01 0.  0.
     999903    2    3    3    0    0 -0.82980068226E-01  0.89319204524E-01 -0.39358075675E-01  0.12973515872E+00  0.20458281151E-01 0.  0.
         14    1    1    2    0    0  0.15387379189E-01  0.15891324783E-01 -0.93618244485E-02  0.24019770995E-01  0.00000000000E+00 0.  1.
     999901    1    3    3    0    0  0.67592689037E-01 -0.10521052931E+00  0.48719900124E-01  0.89017507028E+00  0.88000000000E+00 0.  1.
        -11    1    4    4    0    0 -0.54561641956E-01  0.49623531386E-01 -0.15373909394E-01  0.75339802569E-01  0.51100000000E-03 0. -1.
         11    1    4    4    0    0 -0.28418426270E-01  0.39695673139E-01 -0.23984166281E-01  0.54395356151E-01  0.51100000000E-03 0.  1.
</event>
<event>
 8    1  0.1097777E+005  0.1043930E+01  0.7957747E-01            NaN
         13   -1    0    0    0    0  0.00000000000E+00  0.00000000000E+00  0.74505805969E-08  0.10566000000E+00  0.10566000000E+00 0. -1.
     999900   -1    0    0    0    0 -0.00000000000E+00 -0.00000000000E+00 -0.74505805969E-08  0.93827000000E+00  0.93827000000E+00 0. -1.
     999902    2    1    2    0    0 -0.85277220155E-02 -0.12595554426E-02 -0.21855868861E-01  0.10204355852E+01  0.10201650827E+01 0.  0.
     999903    2    3    3    0    0 -0.59340272685E-01 -0.10144065049E+00  0.51661139703E-01  0.13025418928E+00  0.22041028464E-01 0.  0.
         14    1    1    2    0    0  0.85277220155E-02  0.12595554426E-02  0.21855868861E-01  0.23494414791E-01  0.00000000000E+00 0. -1.
     999901    1    3    3    0    0  0.50812550670E-01  0.10018109505E+00 -0.73517008564E-01  0.89018139593E+00  0.88000000000E+00 0. -1.
        -11    1    4    4    0    0 -0.41053934242E-01 -0.78049208415E-01  0.28781905301E-01  0.92767255239E-01  0.51100000000E-03 0.  1.
         11    1    4    4    0    0 -0.18286338444E-01 -0.23391442074E-01  0.22879234402E-01  0.37486934041E-01  0.51100000000E-03 0. -1.
</event>
<event>
 8    1  0.1136122E+005  0.1043930E+01  0.7957747E-01            NaN
         13   -1    0    0    0    0  0.00000000000E+00  0.00000000000E+00  0.74505805969E-08  0.10566000000E+00  0.10566000000E+00 0. -1.
     999900   -1    0    0    0    0 -0.00000000000E+00 -0.00000000000E+00 -0.74505805969E-08  0.93827000000E+00  0.93827000000E+00 0. -1.
     999902    2    1    2    0    0  0.13166380181E-01  0.13282229098E-01 -0.13309135721E-01  0.10209756045E+01  0.10207175323E+01 0.  0.
     999903    2    3    3    0    0 -0.89189134229E-01  0.86195940805E-01 -0.39047437969E-01  0.13167502494E+00  0.20716368069E-01 0.  0.
         14    1    1    2    0    0 -0.13166380181E-01 -0.13282229098E-01  0.13309135721E-01  0.22954395451E-01  0.00000000000E+00 0.  1.
     999901    1    3    3    0    0  0.10235551441E+00 -0.72913711707E-01  0.25738302248E-01  0.88930057961E+00  0.88000000000E+00 0. -1.
        -11    1    4    4    0    0 -0.50976666921E-01  0.53539506894E-01 -0.13011507744E-01  0.75064371200E-01  0.51100000000E-03 0. -1.
         11    1    4    4    0    0 -0.38212467308E-01  0.32656433911E-01 -0.26035930225E-01  0.56610653743E-01  0.51100000000E-03 0.  1.
</event>
<event>
 8    1  0.1097777E+005  0.1043930E+01  0.7957747E-01            NaN
         13   -1    0    0    0    0  0.00000000000E+00  0.00000000000E+00  0.74505805969E-08  0.10566000000E+00  0.10566000000E+00 0.  1.
     999900   -1    0    0    0    0 -0.00000000000E+00 -0.00000000000E+00 -0.74505805969E-08  0.93827000000E+00  0.93827000000E+00 0. -1.
     999902    2    1    2    0    0 -0.18641939143E-01  0.14867417828E-01 -0.84100469769E-02  0.10186457975E+01  0.10183319546E+01 0.  0.
     999903    2    3    3    0    0  0.70793598728E-01 -0.96374024290E-01  0.34643246839E-01  0.12610618490E+00  0.20073094933E-01 0.  0.
         14    1    1    2    0    0  0.18641939143E-01 -0.14867417828E-01  0.84100469769E-02  0.25284202539E-01  0.00000000000E+00 0.  1.
     999901    1    3    3    0    0 -0.89435537871E-01  0.11124144212E+00 -0.43053293816E-01  0.89253961256E+00  0.88000000000E+00 0. -1.
        -11    1    4    4    0    0  0.10201526622E-01 -0.49192280277E-02  0.54628442413E-02  0.12584662809E-01  0.51100000000E-03 0.  1.
         11    1    4    4    0    0  0.60592072106E-01 -0.91454796263E-01  0.29180402597E-01  0.11352152209E+00  0.51100000000E-03 0. -1.
</event>
<event>
 8    1  0.1097777E+005  0.1043930E+01  0.7957747E-01            NaN
         13   -1    0    0    0    0  0.00000000000E+00  0.00000000000E+00  0.74505805969E-08  0.10566000000E+00  0.10566000000E+00 0. -1.
     999900   -1    0    0    0    0 -0.00000000000E+00 -0.00000000000E+00 -0.74505805969E-08  0.93827000000E+00  0.93827000000E+00 0.  1.
     999902    2    1    2    0    0  0.15404612172E-01 -0.14805580569E-01 -0.10238997925E-01  0.10202372929E+01  0.10199621510E+01 0.  0.
     999903    2    3    3    0    0 -0.42298113390E-01  0.90547787499E-01 -0.80063604480E-01  0.12933639358E+00  0.18157360032E-01 0.  0.
         14    1    1    2    0    0 -0.15404612172E-01  0.14805580569E-01  0.10238997925E-01  0.23692707120E-01  0.00000000000E+00 0. -1.
     999901    1    3    3    0    0  0.57702725562E-01 -0.10535336807E+00  0.69824606555E-01  0.89090089930E+00  0.88000000000E+00 0. -1.
        -11    1    4    4    0    0 -0.41625851353E-01  0.73240350304E-01 -0.65985063842E-01  0.10701004712E+00  0.51100000000E-03 0.  1.
         11    1    4    4    0    0 -0.67226203692E-03  0.17307437195E-01 -0.14078540638E-01  0.22326346455E-01  0.51100000000E-03 0. -1.
</event>
<event>
 8    1  0.1097777E+005  0.1043930E+01  0.7957747E-01            NaN
         13   -1    0    0    0    0  0.00000000000E+00  0.00000000000E+00  0.74505805969E-08  0.10566000000E+00  0.10566000000E+00 0.  1.
     999900   -1    0    0    0    0 -0.00000000000E+00 -0.00000000000E+00 -0.74505805969E-08  0.93827000000E+00  0.93827000000E+00 0. -1.
     999902    2    1    2    0    0  0.59255225336E-02  0.16237870847E-01  0.14625285377E-01  0.10212875788E+01  0.10210365514E+01 0.  0.
     999903    2    3    3    0    0 -0.69367662869E-01  0.35745291685E-01  0.10609000204E+00  0.13313477793E+00  0.19498257168E-01 0.  0.
         14    1    1    2    0    0 -0.59255225336E-02 -0.16237870847E-01 -0.14625285377E-01  0.22642421233E-01  0.00000000000E+00 0. -1.
     999901    1    3    3    0    0  0.75293185403E-01 -0.19507420838E-01 -0.91464716664E-01  0.88815280083E+00  0.88000000000E+00 0. -1.
        -11    1    4    4    0    0 -0.58959922603E-01  0.31448334951E-01  0.10014022765E+00  0.12038935401E+00  0.51100000000E-03 0. -1.
         11    1    4    4    0    0 -0.10407740267E-01  0.42969567342E-02  0.59497743907E-02  0.12745423921E-01  0.51100000000E-03 0.  1.
</event>
<event>
 8    1  0.1097777E+005  0.1043930E+01  0.7957747E-01            NaN
         13   -1    0    0    0    0  0.00000000000E+00  0.00000000000E+00  0.74505805969E-08  0.10566000000E+00  0.10566000000E+00 0.  1.
     999900   -1    0    0    0    0 -0.00000000000E+00 -0.00000000000E+00 -0.74505805969E-08  0.93827000000E+00  0.93827000000E+00 0. -1.
     999902    2    1    2    0    0 -0.71529914736E-02  0.12502251852E-01 -0.25567078415E-01  0.10145846922E+01  0.10141602194E+01 0.  0.
     999903    2    3    3    0    0  0.60875677092E-01 -0.47474502374E-01 -0.98692651861E-01  0.12690656348E+00  0.20133551272E-01 0.  0.
         14    1    1    2    0    0  0.71529914736E-02 -0.12502251852E-01  0.25567078415E-01  0.29345307752E-01  0.00000000000E+00 0.  1.
     999901    1    3    3    0    0 -0.68028668566E-01  0.59976754226E-01  0.73125573446E-01  0.88767812876E+00  0.88000000000E+00 0.  1.
        -11    1    4    4    0    0  0.32860162131E-01 -0.15353142919E-01 -0.36079851358E-01  0.51161763533E-01  0.51100000000E-03 0.  1.
         11    1    4    4    0    0  0.28015514961E-01 -0.32121359455E-01 -0.62612800503E-01  0.75744799951E-01  0.51100000000E-03 0. -1.
</event>
<event>
 8    1  0.1097777E+005  0.1043930E+01  0.7957747E-01            NaN
         13   -1    0    0    0    0  0.00000000000E+00  0.00000000000E+00  0.74505805969E-08  0.10566000000E+00  0.10566000000E+00 0. -1.
     999900   -1    0    0    0    0 -0.00000000000E+00 -0.00000000000E+00 -0.74505805969E-08  0.93827000000E+00  0.93827000000E+00 0. -1.
     999902    2    1    2    0    0 -0.96418893511E-03 -0.20072000811E-03  0.23653111540E-01  0.10202563937E+01  0.10199817005E+01 0.  0.
     999903    2    3    3    0    0 -0.11021977597E+00  0.58505263851E-01  0.36141311535E-01  0.13147119415E+00  0.20179583197E-01 0.  0.
         14    1    1    2    0    0  0.96418893511E-03  0.20072000811E-03 -0.23653111540E-01  0.23673606281E-01  0.00000000000E+00 0.  1.
     999901    1    3    3    0    0  0.10925558703E+00 -0.58705983859E-01 -0.12488199995E-01  0.88878519957E+00  0.88000000000E+00 0.  1.
        -11    1    4    4    0    0 -0.59903031459E-01  0.42006590983E-01  0.16595049868E-01  0.75023887296E-01  0.51100000000E-03 0. -1.
         11    1    4    4    0    0 -0.50316744510E-01  0.16498672869E-01  0.19546261668E-01  0.56447306851E-01  0.51100000000E-03 0.  1.
</event>
<event>
 8    1  0.1097777E+005  0.1043930E+01  0.7957747E-01            NaN
         13   -1    0    0    0    0  0.00000000000E+00  0.00000000000E+00  0.74505805969E-08  0.10566000000E+00  0.10566000000E+00 0. -1.
     999900   -1    0    0    0    0 -0.00000000000E+00 -0.00000000000E+00 -0.74505805969E-08  0.93827000000E+00  0.93827000000E+00 0. -1.
     999902    2    1    2    0    0 -0.72150111651E-02 -0.18680717386E-01  0.60927892858E-02  0.10229980228E+01  0.10227838515E+01 0.  0.
     999903    2    3    3    0    0 -0.98723672035E-01 -0.85630131214E-01  0.29858158736E-01  0.13540529423E+00  0.19084058025E-01 0.  0.
         14    1    1    2    0    0  0.72150111651E-02  0.18680717386E-01 -0.60927892858E-02  0.20931977199E-01  0.00000000000E+00 0.  1.
     999901    1    3    3    0    0  0.91508660870E-01  0.66949413828E-01 -0.23765369450E-01  0.88759272857E+00  0.88000000000E+00 0. -1.
        -11    1    4    4    0    0 -0.57385180676E-01 -0.61701426424E-01  0.20677961064E-01  0.86763841425E-01  0.51100000000E-03 0.  1.
         11    1    4    4    0    0 -0.41338491359E-01 -0.23928704790E-01  0.91801976721E-02  0.48641452806E-01  0.51100000000E-03 0. -1.
</event>
<event>
 8    1  0.1097777E+005  0.1043930E+01  0.7957747E-01            NaN
         13   -1    0    0    0    0  0.00000000000E+00  0.00000000000E+00  0.74505805969E-08  0.10566000000E+00  0.10566000000E+00 0.  1.
     999900   -1    0    0    0    0 -0.00000000000E+00 -0.00000000000E+00 -0.74505805969E-08  0.93827000000E+00  0.93827000000E+00 0.  1.
     999902    2    1    2    0    0 -0.74973537482E-02  0.20971155394E-01 -0.82744821033E-02  0.10201714915E+01  0.10198948011E+01 0.  0.
     999903    2    3    3    0    0 -0.20486775631E-02  0.12430122331E+00  0.41858667129E-01  0.13269184461E+00  0.19999660381E-01 0.  0.
         14    1    1    2    0    0  0.74973537482E-02 -0.20971155394E-01  0.82744821033E-02  0.23758508494E-01  0.00000000000E+00 0.  1.
     999901    1    3    3    0    0 -0.54486761852E-02 -0.10333006792E+00 -0.50133149233E-01  0.88747964690E+00  0.88000000000E+00 0.  1.
        -11    1    4    4    0    0  0.70612108605E-02  0.48638692020E-01  0.10376533200E-01  0.50234615780E-01  0.51100000000E-03 0. -1.
         11    1    4    4    0    0 -0.91098884235E-02  0.75662531289E-01  0.31482133929E-01  0.82457228827E-01  0.51100000000E-03 0.  1.
</event>
<event>
 8    1  0.1097777E+005  0.1043930E+01  0.7957747E-01            NaN
         13   -1    0    0    0    0  0.00000000000E+00  0.00000000000E+00  0.74505805969E-08  0.10566000000E+00  0.10566000000E+00 0.  1.
     999900   -1    0    0    0    0 -0.00000000000E+00 -0.00000000000E+00 -0.74505805969E-08  0.93827000000E+00  0.93827000000E+00 0.  1.
     999902    2    1    2    0    0  0.10803985626E-01 -0.20158319205E-01  0.67943310687E-02  0.10200711049E+01  0.10197920436E+01 0.  0.
     999903    2    3    3    0    0  0.12759286069E-01 -0.22112227244E-02  0.12916054866E+00  0.13142077288E+00  0.20525187632E-01 0.  0.
         14    1    1    2    0    0 -0.10803985626E-01  0.20158319205E-01 -0.67943310687E-02  0.23858895055E-01  0.00000000000E+00 0. -1.
     999901    1    3    3    0    0 -0.19553004428E-02 -0.17947096481E-01 -0.12236621759E+00  0.88865033207E+00  0.88000000000E+00 0.  1.
        -11    1    4    4    0    0 -0.54433999136E-02 -0.24682322849E-02  0.28221465436E-01  0.28851949771E-01  0.51100000000E-03 0. -1.
         11    1    4    4    0    0  0.18202685982E-01  0.25700956055E-03  0.10093908322E+00  0.10256882311E+00  0.51100000000E-03 0.  1.
</event>
<event>
 8    1  0.1097777E+005  0.1043930E+01  0.7957747E-01            NaN
         13   -1    0    0    0    0  0.00000000000E+00  0.00000000000E+00  0.74505805969E-08  0.10566000000E+00  0.10566000000E+00 0.  1.
     999900   -1    0    0    0    0 -0.00000000000E+00 -0.00000000000E+00 -0.74505805969E-08  0.93827000000E+00  0.93827000000E+00 0.  1.
     999902    2    1    2    0    0 -0.15022064548E-01 -0.17427450409E-01 -0.69483393529E-02  0.10198954858E+01  0.10196122519E+01 0.  0.
     999903    2    3    3    0    0 -0.63935622424E-01  0.60524450469E-01 -0.94599010487E-01  0.13076575676E+00  0.19993434810E-01 0.  0.
         14    1    1    2    0    0  0.15022064548E-01  0.17427450409E-01  0.69483393529E-02  0.24034514158E-01  0.00000000000E+00 0.  1.
     999901    1    3    3    0    0  0.48913557876E-01 -0.77951900878E-01  0.87650671134E-01  0.88912972909E+00  0.88000000000E+00 0. -1.
        -11    1    4    4    0    0 -0.30644913131E-01  0.41985903831E-01 -0.50354805963E-01  0.72372608256E-01  0.51100000000E-03 0.  1.
         11    1    4    4    0    0 -0.33290709293E-01  0.18538546638E-01 -0.44244204525E-01  0.58393148500E-01  0.51100000000E-03 0. -1.
</event>
<event>
 8    1  0.1097777E+005  0.1043930E+01  0.7957747E-01            NaN
         13   -1    0    0    0    0  0.00000000000E+00  0.00000000000E+00  0.74505805969E-08  0.10566000000E+00  0.10566000000E+00 0.  1.
     999900   -1    0    0    0    0 -0.00000000000E+00 -0.00000000000E+00 -0.74505805969E-08  0.93827000000E+00  0.93827000000E+00 0.  1.
     999902    2    1    2    0    0 -0.30677704872E-01 -0.19142628755E-01 -0.40153661742E-02  0.10075475183E+01  0.10068904193E+01 0.  0.
     999903    2    3    3    0    0 -0.94110522523E-01  0.51901794086E-01  0.51692225322E-01  0.12065723862E+00  0.18316560645E-01 0.  0.
         14    1    1    2    0    0  0.30677704872E-01  0.19142628755E-01  0.40153661742E-02  0.36382481738E-01  0.00000000000E+00 0.  1.
     999901    1    3    3    0    0  0.63432817651E-01 -0.71044422841E-01 -0.55707591497E-01  0.88689027964E+00  0.88000000000E+00 0.  1.
        -11    1    4    4    0    0 -0.55248737256E-01  0.21213837701E-01  0.23533885132E-01  0.63691088457E-01  0.51100000000E-03 0.  1.
         11    1    4    4    0    0 -0.38861785267E-01  0.30687956385E-01  0.28158340190E-01  0.56966150164E-01  0.51100000000E-03 0. -1.
</event>
<event>
 8    1  0.1097777E+005  0.1043930E+01  0.7957747E-01            NaN
         13   -1    0    0    0    0  0.00000000000E+00  0.00000000000E+00  0.74505805969E-08  0.10566000000E+00  0.10566000000E+00 0. -1.
     999900   -1    0    0    0    0 -0.00000000000E+00 -0.00000000000E+00 -0.74505805969E-08  0.93827000000E+00  0.93827000000E+00 0.  1.
     999902    2    1    2    0    0  0.89459730469E-02  0.74363901329E-02 -0.20873887194E-01  0.10200333580E+01  0.10197534025E+01 0.  0.
     999903    2    3    3    0    0 -0.11030650443E+00 -0.51977821616E-01  0.34577225072E-01  0.12827889192E+00  0.19765392926E-01 0.  0.
         14    1    1    2    0    0 -0.89459730469E-02 -0.74363901329E-02  0.20873887194E-01  0.23896641993E-01  0.00000000000E+00 0. -1.
     999901    1    3    3    0    0  0.11925247748E+00  0.59414211749E-01 -0.55451112266E-01  0.89175446609E+00  0.88000000000E+00 0.  1.
        -11    1    4    4    0    0 -0.63611698984E-01 -0.31427768120E-01  0.30064820732E-01  0.77060414113E-01  0.51100000000E-03 0.  1.
         11    1    4    4    0    0 -0.46694805448E-01 -0.20550053496E-01  0.45124043406E-02  0.51218477803E-01  0.51100000000E-03 0. -1.
</event>
<event>
 8    1  0.1097777E+005  0.1043930E+01  0.7957747E-01            NaN
         13   -1    0    0    0    0  0.00000000000E+00  0.00000000000E+00  0.74505805969E-08  0.10566000000E+00  0.10566000000E+00 0.  1.
     999900   -1    0    0    0    0 -0.00000000000E+00 -0.00000000000E+00 -0.74505805969E-08  0.93827000000E+00  0.93827000000E+00 0. -1.
     999902    2    1    2    0    0  0.41468083465E-02 -0.20970499578E-01  0.86763645699E-02  0.10208597340E+01  0.10205990198E+01 0.  0.
     999903    2    3    3    0    0  0.48684259751E-01  0.11678483555E+00 -0.12147607647E-01  0.12878700446E+00  0.20728559649E-01 0.  0.
         14    1    1    2    0    0 -0.41468083465E-02  0.20970499578E-01 -0.86763645699E-02  0.23070266018E-01  0.00000000000E+00 0.  1.
     999901    1    3    3    0    0 -0.44537451404E-01 -0.13775533513E+00  0.20823972217E-01  0.89207272952E+00  0.88000000000E+00 0.  1.
        -11    1    4    4    0    0  0.49720510807E-01  0.10425065828E+00 -0.12633310479E-01  0.11619032060E+00  0.51100000000E-03 0. -1.
         11    1    4    4    0    0 -0.10362510563E-02  0.12534177268E-01  0.48570283149E-03  0.12596683860E-01  0.51100000000E-03 0.  1.
</event>
<event>
 8    1  0.1097777E+005  0.1043930E+01  0.7957747E-01            NaN
         13   -1    0    0    0    0  0.00000000000E+00  0.00000000000E+00  0.74505805969E-08  0.10566000000E+00  0.10566000000E+00 0. -1.
     999900   -1    0    0    0    0 -0.00000000000E+00 -0.00000000000E+00 -0.74505805969E-08  0.93827000000E+00  0.93827000000E+00 0. -1.
     999902    2    1    2    0    0  0.42227132632E-02 -0.22527122693E-01  0.45209093913E-02  0.10205688959E+01  0.10203014898E+01 0.  0.
     999903    2    3    3    0    0 -0.12876188356E-01 -0.12940734321E+00 -0.22006557868E-01  0.13354045186E+00  0.20897535512E-01 0.  0.
         14    1    1    2    0    0 -0.42227132632E-02  0.22527122693E-01 -0.45209093913E-02  0.23361104123E-01  0.00000000000E+00 0.  1.
     999901    1    3    3    0    0  0.17098901619E-01  0.10688022052E+00  0.26527467259E-01  0.88702844402E+00  0.88000000000E+00 0.  1.
        -11    1    4    4    0    0 -0.49202377343E-02 -0.70539131899E-01 -0.22263331093E-01  0.74134303132E-01  0.51100000000E-03 0.  1.
         11    1    4    4    0    0 -0.79559506212E-02 -0.58868211312E-01  0.25677322485E-03  0.59406148729E-01  0.51100000000E-03 0. -1.
</event>
<event>
 8    1  0.1097777E+005  0.1043930E+01  0.7957747E-01            NaN
         13   -1    0    0    0    0  0.00000000000E+00  0.00000000000E+00  0.74505805969E-08  0.10566000000E+00  0.10566000000E+00 0.  1.
     999900   -1    0    0    0    0 -0.00000000000E+00 -0.00000000000E+00 -0.74505805969E-08  0.93827000000E+00  0.93827000000E+00 0.  1.
     999902    2    1    2    0    0 -0.49588637413E-02 -0.23390850339E-01 -0.31408411501E-02  0.10198138831E+01  0.10195286995E+01 0.  0.
     999903    2    3    3    0    0  0.77423243054E-01 -0.97515074127E-01  0.38656652929E-01  0.13187906426E+00  0.19854534173E-01 0.  0.
         14    1    1    2    0    0  0.49588637413E-02  0.23390850339E-01  0.31408411501E-02  0.24116116858E-01  0.00000000000E+00 0.  1.
     999901    1    3    3    0    0 -0.82382106796E-01  0.74124223788E-01 -0.41797494079E-01  0.88793481888E+00  0.88000000000E+00 0.  1.
        -11    1    4    4    0    0  0.13804102399E-01 -0.29338030401E-01  0.53926848511E-02  0.32872715765E-01  0.51100000000E-03 0.  1.
         11    1    4    4    0    0  0.63619140656E-01 -0.68177043726E-01  0.33263968078E-01  0.99006348495E-01  0.51100000000E-03 0. -1.
</event>
<event>
 8    1  0.1097777E+005  0.1043930E+01  0.7957747E-01            NaN
         13   -1    0    0    0    0  0.00000000000E+00  0.00000000000E+00  0.74505805969E-08  0.10566000000E+00  0.10566000000E+00 0. -1.
     999900   -1    0    0    0    0 -0.00000000000E+00 -0.00000000000E+00 -0.74505805969E-08  0.93827000000E+00  0.93827000000E+00 0. -1.
     999902    2    1    2    0    0 -0.20698264869E-01 -0.10524031200E-01  0.28928693595E-03  0.10207080903E+01  0.10204438978E+01 0.  0.
     999903    2    3    3    0    0 -0.81796311301E-01  0.93560057080E-02 -0.10193936517E+00  0.13246325672E+00  0.19408988209E-01 0.  0.
         14    1    1    2    0    0  0.20698264869E-01  0.10524031200E-01 -0.28928693595E-03  0.23221909659E-01  0.00000000000E+00 0.  1.
     999901    1    3    3    0    0  0.61098046432E-01 -0.19880036908E-01  0.10222865211E+00  0.88824483362E+00  0.88000000000E+00 0.  1.
        -11    1    4    4    0    0 -0.22346000300E-01  0.11403067843E-01 -0.30981758117E-01  0.39868585913E-01  0.51100000000E-03 0.  1.
         11    1    4    4    0    0 -0.59450311001E-01 -0.20470621354E-02 -0.70957607056E-01  0.92594670805E-01  0.51100000000E-03 0. -1.
</event>
<event>
 8    1  0.1097777E+005  0.1043930E+01  0.7957747E-01            NaN
         13   -1    0    0    0    0  0.00000000000E+00  0.00000000000E+00  0.74505805969E-08  0.10566000000E+00  0.10566000000E+00 0.  1.
     999900   -1    0    0    0    0 -0.00000000000E+00 -0.00000000000E+00 -0.74505805969E-08  0.93827000000E+00  0.93827000000E+00 0.  1.
     999902    2    1    2    0    0  0.20773074410E-01  0.10520993940E-01  0.68883101831E-02  0.10196470687E+01  0.10193578783E+01 0.  0.
     999903    2    3    3    0    0  0.11247248050E+00  0.43375131267E-01 -0.51111397468E-01  0.13237476470E+00  0.19474149417E-01 0.  0.
         14    1    1    2    0    0 -0.20773074410E-01 -0.10520993940E-01 -0.68883101831E-02  0.24282931271E-01  0.00000000000E+00 0.  1.
     999901    1    3    3    0    0 -0.91699406088E-01 -0.32854137327E-01  0.57999707651E-01  0.88727230403E+00  0.88000000000E+00 0. -1.
        -11    1    4    4    0    0  0.13972318950E-01  0.52346420088E-03 -0.10668486462E-01  0.17594812758E-01  0.51100000000E-03 0.  1.
         11    1    4    4    0    0  0.98500161547E-01  0.42851667066E-01 -0.40442911006E-01  0.11477995194E+00  0.51100000000E-03 0. -1.
</event>
<event>
 8    1  0.1097777E+005  0.1043930E+01  0.7957747E-01            NaN
         13   -1    0    0    0    0  0.00000000000E+00  0.00000000000E+00  0.74505805969E-08  0.10566000000E+00  0.10566000000E+00 0. -1.
     999900   -1    0    0    0    0 -0.00000000000E+00 -0.00000000000E+00 -0.74505805969E-08  0.93827000000E+00  0.93827000000E+00 0. -1.
     999902    2    1    2    0    0 -0.11572133346E-01  0.95926178985E-03 -0.21197545601E-01  0.10197603829E+01  0.10194739173E+01 0.  0.
     999903    2    3    3    0    0  0.23603296429E-01 -0.12561754702E+00 -0.11988356480E-01  0.12996051291E+00  0.20226974641E-01 0.  0.
         14    1    1    2    0    0  0.11572133346E-01 -0.95926178985E-03  0.21197545601E-01  0.24169617144E-01  0.00000000000E+00 0. -1.
     999901    1    3    3    0    0 -0.35175429775E-01  0.12657680881E+00 -0.92091891212E-02  0.88979986994E+00  0.88000000000E+00 0. -1.
        -11    1    4    4    0    0  0.47937932379E-02 -0.51828830078E-01  0.37995026546E-02  0.52191047339E-01  0.51100000000E-03 0.  1.
         11    1    4    4    0    0  0.18809503191E-01 -0.73788716943E-01 -0.15787859134E-01  0.77769465573E-01  0.51100000000E-03 0. -1.
</event>
<event>
 8    1  0.1097777E+005  0.1043930E+01  0.7957747E-01            NaN
         13   -1    0    0    0    0  0.00000000000E+00  0.00000000000E+00  0.74505805969E-08  0.10566000000E+00  0.10566000000E+00 0. -1.
     999900   -1    0    0    0    0 -0.00000000000E+00 -0.00000000000E+00 -0.74505805969E-08  0.93827000000E+00  0.93827000000E+00 0. -1.
     999902    2    1    2    0    0  0.18968676043E-01 -0.12936612732E-01  0.59999482624E-02  0.10201988812E+01  0.10199228359E+01 0.  0.
     999903    2    3    3    0    0  0.32601751859E-01 -0.87619618568E-01  0.91628207588E-01  0.13278938672E+00  0.22298453256E-01 0.  0.
         14    1    1    2    0    0 -0.18968676043E-01  0.12936612732E-01 -0.59999482624E-02  0.23731118789E-01  0.00000000000E+00 0. -1.
     999901    1    3    3    0    0 -0.13633075815E-01  0.74683005836E-01 -0.85628259326E-01  0.88740949449E+00  0.88000000000E+00 0.  1.
        -11    1    4    4    0    0 -0.34161592880E-02 -0.78074239676E-02  0.76309271223E-02  0.11450684828E-01  0.51100000000E-03 0. -1.
         11    1    4    4    0    0  0.36017911147E-01 -0.79812194600E-01  0.83997280466E-01  0.12133870189E+00  0.51100000000E-03 0.  1.
</event>
<event>
 8    1  0.1097777E+005  0.1043930E+01  0.7957747E-01            NaN
         13   -1    0    0    0    0  0.00000000000E+00  0.00000000000E+00  0.74505805969E-08  0.10566000000E+00  0.10566000000E+00 0.  1.
     999900   -1    0    0    0    0 -0.00000000000E+00 -0.00000000000E+00 -0.74505805969E-08  0.93827000000E+00  0.93827000000E+00 0.  1.
     999902    2    1    2    0    0  0.82894532397E-02  0.95914956037E-02  0.20133928273E-01  0.10201374194E+01  0.10198599255E+01 0.  0.
     999903    2    3    3    0    0  0.54333293683E-01 -0.10150706762E+00  0.59606018972E-01  0.13108119401E+00  0.19329002720E-01 0.  0.
         14    1    1    2    0    0 -0.82894532397E-02 -0.95914956037E-02 -0.20133928273E-01  0.23792580580E-01  0.00000000000E+00 0. -1.
     999901    1    3    3    0    0 -0.46043840444E-01  0.11109856323E+00 -0.39472090699E-01  0.88905622541E+00  0.88000000000E+00 0.  1.
        -11    1    4    4    0    0  0.23034502811E-01 -0.33824104976E-01  0.12153335314E-01  0.42692189888E-01  0.51100000000E-03 0.  1.
         11    1    4    4    0    0  0.31298790872E-01 -0.67682962646E-01  0.47452683658E-01  0.88389004124E-01  0.51100000000E-03 0. -1.
</event>
<event>
 8    1  0.1097777E+005  0.1043930E+01  0.7957747E-01            NaN
         13   -1    0    0    0    0  0.00000000000E+00  0.00000000000E+00  0.74505805969E-08  0.10566000000E+00  0.10566000000E+00 0.  1.
     999900   -1    0    0    0    0 -0.00000000000E+00 -0.00000000000E+00 -0.74505805969E-08  0.93827000000E+00  0.93827000000E+00 0.  1.
     999902    2    1    2    0    0 -0.72610451636E-02 -0.20996198376E-01  0.69307237924E-02  0.10206577406E+01  0.10203923880E+01 0.  0.
     999903    2    3    3    0    0  0.89639103359E-01  0.85498872019E-01 -0.28028668223E-01  0.12827161464E+00  0.17965937552E-01 0.  0.
         14    1    1    2    0    0  0.72610451636E-02  0.20996198376E-01 -0.69307237924E-02  0.23272259353E-01  0.00000000000E+00 0. -1.
     999901    1    3    3    0    0 -0.96900148522E-01 -0.10649507039E+00  0.34959392015E-01  0.89238612601E+00  0.88000000000E+00 0. -1.
        -11    1    4    4    0    0  0.72187186234E-01  0.77112794846E-01 -0.26102908864E-01  0.10880715030E+00  0.51100000000E-03 0. -1.
         11    1    4    4    0    0  0.17451917125E-01  0.83860771735E-02 -0.19257593587E-02  0.19464464334E-01  0.51100000000E-03 0.  1.
</event>
<event>
 8    1  0.1097777E+005  0.1043930E+01  0.7957747E-01            NaN
         13   -1    0    0    0    0  0.00000000000E+00  0.00000000000E+00  0.74505805969E-08  0.10566000000E+00  0.10566000000E+00 0. -1.
     999900   -1    0    0    0    0 -0.00000000000E+00 -0.00000000000E+00 -0.74505805969E-08  0.93827000000E+00  0.93827000000E+00 0.  1.
     999902    2    1    2    0    0 -0.22455730072E-01  0.82885305022E-02 -0.10079911929E-01  0.10179576267E+01  0.10176262406E+01 0.  0.
     999903    2    3    3    0    0  0.14179389248E-01 -0.63892155993E-01 -0.10916616902E+00  0.12870497990E+00  0.19090749515E-01 0.  0.
         14    1    1    2    0    0  0.22455730072E-01 -0.82885305022E-02  0.10079911929E-01  0.25972373312E-01  0.00000000000E+00 0. -1.
     999901    1    3    3    0    0 -0.36635119320E-01  0.72180686495E-01  0.99086257088E-01  0.88925264679E+00  0.88000000000E+00 0. -1.
        -11    1    4    4    0    0 -0.31684852973E-02 -0.19443491250E-01 -0.23720714330E-01  0.30838645567E-01  0.51100000000E-03 0.  1.
         11    1    4    4    0    0  0.17347874546E-01 -0.44448664743E-01 -0.85445454687E-01  0.97866334336E-01  0.51100000000E-03 0. -1.
</event>
<event>
 7    1  0.1097777E+005  0.1043930E+01  0.7957747E-01            NaN
         13   -1    0    0    0    0  0.00000000000E+00  0.00000000000E+00  0.74505805969E-08  0.10566000000E+00  0.10566000000E+00 0. -1.
     999900   -1    0    0    0    0 -0.00000000000E+00 -0.00000000000E+00 -0.74505805969E-08  0.93827000000E+00  0.93827000000E+00 0.  1.
     999903    2    1    2    0    0 -0.33798732198E-01 -0.42204280767E-01  0.59753008328E-01  0.83199751869E-01  0.20693503653E-01 0.  0.
         14    1    1    2    0    0 -0.18334726825E-01  0.72913924073E-01  0.10249567544E-01  0.75879220912E-01  0.00000000000E+00 0.  1.
     999901    1    1    2    0    0  0.52133459023E-01 -0.30709643305E-01 -0.70002575873E-01  0.88485102722E+00  0.88000000000E+00 0.  1.
        -11    1    3    3    0    0 -0.20249399904E-01 -0.99707919468E-02  0.19068228725E-01  0.29551875680E-01  0.51100000000E-03 0.  1.
         11    1    3    3    0    0 -0.13549332294E-01 -0.32233488820E-01  0.40684779604E-01  0.53647876189E-01  0.51100000000E-03 0. -1.
</event>
<event>
 8    1  0.1097777E+005  0.1043930E+01  0.7957747E-01            NaN
         13   -1    0    0    0    0  0.00000000000E+00  0.00000000000E+00  0.74505805969E-08  0.10566000000E+00  0.10566000000E+00 0.  1.
     999900   -1    0    0    0    0 -0.00000000000E+00 -0.00000000000E+00 -0.74505805969E-08  0.93827000000E+00  0.93827000000E+00 0. -1.
     999902    2    1    2    0    0  0.19047601135E-01 -0.14572621162E-01  0.32746918815E-02  0.10197247113E+01  0.10194373893E+01 0.  0.
     999903    2    3    3    0    0 -0.96886302214E-01 -0.47731925697E-01  0.68038439410E-01  0.12914369168E+00  0.19584983441E-01 0.  0.
         14    1    1    2    0    0 -0.19047601135E-01  0.14572621162E-01 -0.32746918815E-02  0.24205288749E-01  0.00000000000E+00 0.  1.
     999901    1    3    3    0    0  0.11593390335E+00  0.33159304535E-01 -0.64763747529E-01  0.89058101957E+00  0.88000000000E+00 0.  1.
        -11    1    4    4    0    0 -0.64501804708E-01 -0.21913887659E-01  0.46269587813E-01  0.82351910484E-01  0.51100000000E-03 0.  1.
         11    1    4    4    0    0 -0.32384497506E-01 -0.25818038037E-01  0.21768851597E-01  0.46791781198E-01  0.51100000000E-03 0. -1.
</event>
<event>
 8    1  0.1097777E+005  0.1043930E+01  0.7957747E-01            NaN
         13   -1    0    0    0    0  0.00000000000E+00  0.00000000000E+00  0.74505805969E-08  0.10566000000E+00  0.10566000000E+00 0.  1.
     999900   -1    0    0    0    0 -0.00000000000E+00 -0.00000000000E+00 -0.74505805969E-08  0.93827000000E+00  0.93827000000E+00 0. -1.
     999902    2    1    2    0    0 -0.91571701336E-02  0.80052168501E-02  0.19328211234E-01  0.10210932531E+01  0.10208378492E+01 0.  0.
     999903    2    3    3    0    0 -0.12358053924E+00 -0.39446423595E-01  0.16964130333E-01  0.13241448406E+00  0.20436336685E-01 0.  0.
         14    1    1    2    0    0  0.91571701336E-02 -0.80052168501E-02 -0.19328211234E-01  0.22836746948E-01  0.00000000000E+00 0. -1.
     999901    1    3    3    0    0  0.11442336911E+00  0.47451640445E-01  0.23640809003E-02  0.88867876899E+00  0.88000000000E+00 0. -1.
        -11    1    4    4    0    0 -0.73003750956E-01 -0.30001542698E-01  0.25118494412E-02  0.78969682325E-01  0.51100000000E-03 0. -1.
         11    1    4    4    0    0 -0.50576788286E-01 -0.94448808968E-02  0.14452280892E-01  0.53444801735E-01  0.51100000000E-03 0.  1.
</event>
<event>
 8    1  0.1097777E+005  0.1043930E+01  0.7957747E-01            NaN
         13   -1    0    0    0    0  0.00000000000E+00  0.00000000000E+00  0.74505805969E-08  0.10566000000E+00  0.10566000000E+00 0. -1.
     999900   -1    0    0    0    0 -0.00000000000E+00 -0.00000000000E+00 -0.74505805969E-08  0.93827000000E+00  0.93827000000E+00 0.  1.
     999902    2    1    2    0    0  0.14058587625E-01 -0.19564885568E-01  0.23209931891E-03  0.10198367955E+01  0.10195521600E+01 0.  0.
     999903    2    3    3    0    0  0.40433813241E-01 -0.12415841087E+00  0.16389013671E-01  0.13310318051E+00  0.19941229874E-01 0.  0.
         14    1    1    2    0    0 -0.14058587625E-01  0.19564885568E-01 -0.23209931891E-03  0.24093204507E-01  0.00000000000E+00 0. -1.
     999901    1    3    3    0    0 -0.26375225616E-01  0.10459352530E+00 -0.16156914352E-01  0.88673361498E+00  0.88000000000E+00 0.  1.
        -11    1    4    4    0    0  0.15716021292E-01 -0.49863924636E-01  0.16422990867E-01  0.54803102607E-01  0.51100000000E-03 0.  1.
         11    1    4    4    0    0  0.24717791950E-01 -0.74294486237E-01 -0.33977195273E-04  0.78300077902E-01  0.51100000000E-03 0. -1.
</event>
<event>
 8    1  0.1097777E+005  0.1043930E+01  0.7957747E-01            NaN
         13   -1    0    0    0    0  0.00000000000E+00  0.00000000000E+00  0.74505805969E-08  0.10566000000E+00  0.10566000000E+00 0.  1.
     999900   -1    0    0    0    0 -0.00000000000E+00 -0.00000000000E+00 -0.74505805969E-08  0.93827000000E+00  0.93827000000E+00 0.  1.
     999902    2    1    2    0    0 -0.11112062369E-01  0.12883640026E-01 -0.92890991366E-02  0.10245456384E+01  0.10243622464E+01 0.  0.
     999903    2    3    3    0    0  0.10748886294E+00 -0.28587556067E-01 -0.70979483748E-01  0.13348349518E+00  0.20215151592E-01 0.  0.
         14    1    1    2    0    0  0.11112062369E-01 -0.12883640026E-01  0.92890991366E-02  0.19384361562E-01  0.00000000000E+00 0.  1.
     999901    1    3    3    0    0 -0.11860092531E+00  0.41471196092E-01  0.61690384612E-01  0.89106214326E+00  0.88000000000E+00 0. -1.
        -11    1    4    4    0    0  0.53431546649E-01 -0.23668823288E-01 -0.41830366169E-01  0.71869214745E-01  0.51100000000E-03 0. -1.
         11    1    4    4    0    0  0.54057316295E-01 -0.49187327790E-02 -0.29149117579E-01  0.61614280437E-01  0.51100000000E-03 0.  1.
</event>
<event>
 8    1  0.1097777E+005  0.1043930E+01  0.7957747E-01            NaN
         13   -1    0    0    0    0  0.00000000000E+00  0.00000000000E+00  0.74505805969E-08  0.10566000000E+00  0.10566000000E+00 0. -1.
     999900   -1    0    0    0    0 -0.00000000000E+00 -0.00000000000E+00 -0.74505805969E-08  0.93827000000E+00  0.93827000000E+00 0. -1.
     999902    2    1    2    0    0  0.60401834640E-02  0.22485943477E-01  0.12068348414E-01  0.10177050786E+01  0.10173671316E+01 0.  0.
     999903    2    3    3    0    0  0.89215025823E-01  0.92657541179E-01 -0.10803224964E-01  0.13070721139E+00  0.20565132363E-01 0.  0.
         14    1    1    2    0    0 -0.60401834640E-02 -0.22485943477E-01 -0.12068348414E-01  0.26224921426E-01  0.00000000000E+00 0.  1.
     999901    1    3    3    0    0 -0.83174842359E-01 -0.70171597702E-01  0.22871573378E-01  0.88699786719E+00  0.88000000000E+00 0. -1.
        -11    1    4    4    0    0  0.65284405568E-01  0.55904630398E-01 -0.20134095785E-02  0.85974974553E-01  0.51100000000E-03 0.  1.
         11    1    4    4    0    0  0.23930620255E-01  0.36752910781E-01 -0.87898153855E-02  0.44732236834E-01  0.51100000000E-03 0. -1.
</event>
<event>
 8    1  0.1097777E+005  0.1043930E+01  0.7957747E-01            NaN
         13   -1    0    0    0    0  0.00000000000E+00  0.00000000000E+00  0.74505805969E-08  0.10566000000E+00  0.10566000000E+00 0.  1.
     999900   -1    0    0    0    0 -0.00000000000E+00 -0.00000000000E+00 -0.74505805969E-08  0.93827000000E+00  0.93827000000E+00 0.  1.
     999902    2    1    2    0    0 -0.10068678150E-01  0.48975663584E-02 -0.20885868329E-01  0.10202322378E+01  0.10199569771E+01 0.  0.
     999903    2    3    3    0    0 -0.10323772854E+00  0.71945985577E-01  0.31397409715E-01  0.13123870375E+00  0.20088469125E-01 0.  0.
         14    1    1    2    0    0  0.10068678150E-01 -0.48975663584E-02  0.20885868329E-01  0.23697762168E-01  0.00000000000E+00 0.  1.
     999901    1    3    3    0    0  0.93169050388E-01 -0.67048419219E-01 -0.52283278044E-01  0.88899353408E+00  0.88000000000E+00 0.  1.
        -11    1    4    4    0    0 -0.26125421345E-01  0.91284635679E-02  0.10512096056E-01  0.29607968050E-01  0.51100000000E-03 0. -1.
         11    1    4    4    0    0 -0.77112307193E-01  0.62817522009E-01  0.20885313659E-01  0.10163073570E+00  0.51100000000E-03 0.  1.
</event>
<event>
 8    1  0.1097777E+005  0.1043930E+01  0.7957747E-01            NaN
         13   -1    0    0    0    0  0.00000000000E+00  0.00000000000E+00  0.74505805969E-08  0.10566000000E+00  0.10566000000E+00 0.  1.
     999900   -1    0    0    0    0 -0.00000000000E+00 -0.00000000000E+00 -0.74505805969E-08  0.93827000000E+00  0.93827000000E+00 0. -1.
     999902    2    1    2    0    0  0.20125052470E-01  0.10896776807E-01 -0.50403953589E-03  0.10210387017E+01  0.10207820624E+01 0.  0.
     999903    2    3    3    0    0  0.62290880711E-01 -0.10026793428E+00  0.54722715966E-01  0.13132776855E+00  0.17849220798E-01 0.  0.
         14    1    1    2    0    0 -0.20125052470E-01 -0.10896776807E-01  0.50403953589E-03  0.22891298293E-01  0.00000000000E+00 0. -1.
     999901    1    3    3    0    0 -0.42165828241E-01  0.11116471109E+00 -0.55226755502E-01  0.88971093316E+00  0.88000000000E+00 0. -1.
        -11    1    4    4    0    0  0.28464321056E-01 -0.30209647450E-01  0.16842298453E-01  0.44796925234E-01  0.51100000000E-03 0. -1.
         11    1    4    4    0    0  0.33826559654E-01 -0.70058286835E-01  0.37880417513E-01  0.86530843312E-01  0.51100000000E-03 0.  1.
</event>
<event>
 8    1  0.1097777E+005  0.1043930E+01  0.7957747E-01            NaN
         13   -1    0    0    0    0  0.00000000000E+00  0.00000000000E+00  0.74505805969E-08  0.10566000000E+00  0.10566000000E+00 0.  1.
     999900   -1    0    0    0    0 -0.00000000000E+00 -0.00000000000E+00 -0.74505805969E-08  0.93827000000E+00  0.93827000000E+00 0. -1.
     999902    2    1    2    0    0  0.18138348952E-02  0.22634424515E-01 -0.76402657926E-02  0.10199721029E+01  0.10196906933E+01 0.  0.
     999903    2    3    3    0    0  0.60410172957E-01 -0.99113827991E-01  0.49951977948E-01  0.12779889422E+00  0.19089718877E-01 0.  0.
         14    1    1    2    0    0 -0.18138348952E-02 -0.22634424515E-01  0.76402657926E-02  0.23957897060E-01  0.00000000000E+00 0.  1.
     999901    1    3    3    0    0 -0.58596338061E-01  0.12174825251E+00 -0.57592243740E-01  0.89217320872E+00  0.88000000000E+00 0. -1.
        -11    1    4    4    0    0  0.35870522766E-01 -0.46987208027E-01  0.17405420155E-01  0.61625497105E-01  0.51100000000E-03 0.  1.
         11    1    4    4    0    0  0.24539650191E-01 -0.52126619964E-01  0.32546557793E-01  0.66173397113E-01  0.51100000000E-03 0. -1.
</event>
<event>
 8    1  0.1097777E+005  0.1043930E+01  0.7957747E-01            NaN
         13   -1    0    0    0    0  0.00000000000E+00  0.00000000000E+00  0.74505805969E-08  0.10566000000E+00  0.10566000000E+00 0. -1.
     999900   -1    0    0    0    0 -0.00000000000E+00 -0.00000000000E+00 -0.74505805969E-08  0.93827000000E+00  0.93827000000E+00 0.  1.
     999902    2    1    2    0    0 -0.65797978895E-02  0.25158170649E-02 -0.22291574200E-01  0.10205518616E+01  0.10202840608E+01 0.  0.
     999903    2    3    3    0    0  0.79357395811E-01  0.69218668243E-01 -0.77228318917E-01  0.13215301110E+00  0.20282623004E-01 0.  0.
         14    1    1    2    0    0  0.65797978895E-02 -0.25158170649E-02  0.22291574200E-01  0.23378138422E-01  0.00000000000E+00 0. -1.
     999901    1    3    3    0    0 -0.85937193701E-01 -0.66702851178E-01  0.54936744718E-01  0.88839885048E+00  0.88000000000E+00 0.  1.
        -11    1    4    4    0    0  0.13315517016E-02  0.68406061874E-02 -0.79525843654E-02  0.10586389471E-01  0.51100000000E-03 0. -1.
         11    1    4    4    0    0  0.78025844110E-01  0.62378062055E-01 -0.69275734552E-01  0.12156662163E+00  0.51100000000E-03 0.  1.
</event>
<event>
 8    1  0.1097777E+005  0.1043930E+01  0.7957747E-01            NaN
         13   -1    0    0    0    0  0.00000000000E+00  0.00000000000E+00  0.74505805969E-08  0.10566000000E+00  0.10566000000E+00 0.  1.
     999900   -1    0    0    0    0 -0.00000000000E+00 -0.00000000000E+00 -0.74505805969E-08  0.93827000000E+00  0.93827000000E+00 0.  1.
     999902    2    1    2    0    0 -0.10045362373E-01  0.42961672791E-02  0.20566471278E-01  0.10206416746E+01  0.10203759512E+01 0.  0.
     999903    2    3    3    0    0  0.98323642346E-01 -0.78966732255E-01 -0.18033616979E-01  0.12925706714E+00  0.21883660974E-01 0.  0.
         14    1    1    2    0    0  0.10045362373E-01 -0.42961672791E-02 -0.20566471278E-01  0.23288325387E-01  0.00000000000E+00 0. -1.
     999901    1    3    3    0    0 -0.10836900472E+00  0.83262899534E-01  0.38600088257E-01  0.89138460747E+00  0.88000000000E+00 0. -1.
        -11    1    4    4    0    0  0.11194962330E-01 -0.11116272003E-01 -0.96631174500E-02  0.18507718516E-01  0.51100000000E-03 0.  1.
         11    1    4    4    0    0  0.87128680016E-01 -0.67850460252E-01 -0.83704995288E-02  0.11074934863E+00  0.51100000000E-03 0. -1.
</event>
<event>
 8    1  0.1097777E+005  0.1043930E+01  0.7957747E-01            NaN
         13   -1    0    0    0    0  0.00000000000E+00  0.00000000000E+00  0.74505805969E-08  0.10566000000E+00  0.10566000000E+00 0.  1.
     999900   -1    0    0    0    0 -0.00000000000E+00 -0.00000000000E+00 -0.74505805969E-08  0.93827000000E+00  0.93827000000E+00 0. -1.
     999902    2    1    2    0    0  0.68885839992E-02  0.25978293914E-01  0.29395290820E-02  0.10168936324E+01  0.10165341580E+01 0.  0.
     999903    2    3    3    0    0 -0.76075565031E-01  0.98988204335E-01 -0.27785916266E-01  0.12944923971E+00  0.19972288969E-01 0.  0.
         14    1    1    2    0    0 -0.68885839992E-02 -0.25978293914E-01 -0.29395290820E-02  0.27036367645E-01  0.00000000000E+00 0.  1.
     999901    1    3    3    0    0  0.82964149030E-01 -0.73009910421E-01  0.30725445348E-01  0.88744439264E+00  0.88000000000E+00 0.  1.
        -11    1    4    4    0    0 -0.67721045541E-01  0.78108994129E-01 -0.27408629709E-01  0.10695162026E+00  0.51100000000E-03 0. -1.
         11    1    4    4    0    0 -0.83545194903E-02  0.20879210206E-01 -0.37728655716E-03  0.22497619450E-01  0.51100000000E-03 0.  1.
</event>
<event>
 8    1  0.1097777E+005  0.1043930E+01  0.7957747E-01            NaN
         13   -1    0    0    0    0  0.00000000000E+00  0.00000000000E+00  0.74505805969E-08  0.10566000000E+00  0.10566000000E+00 0. -1.
     999900   -1    0    0    0    0 -0.00000000000E+00 -0.00000000000E+00 -0.74505805969E-08  0.93827000000E+00  0.93827000000E+00 0. -1.
     999902    2    1    2    0    0  0.19278014362E-01 -0.10992427591E-01  0.66581535476E-02  0.10207609191E+01  0.10204979410E+01 0.  0.
     999903    2    3    3    0    0 -0.33226235794E-01  0.99119230437E-01 -0.72563599170E-01  0.12882069708E+00  0.20017279631E-01 0.  0.
         14    1    1    2    0    0 -0.19278014362E-01  0.10992427591E-01 -0.66581535476E-02  0.23169080921E-01  0.00000000000E+00 0.  1.
     999901    1    3    3    0    0  0.52504250155E-01 -0.11011165803E+00  0.79221752717E-01  0.89194022200E+00  0.88000000000E+00 0. -1.
        -11    1    4    4    0    0 -0.20185000129E-01  0.54751762703E-01 -0.28504791122E-01  0.64945931260E-01  0.51100000000E-03 0. -1.
         11    1    4    4    0    0 -0.13041235665E-01  0.44367467734E-01 -0.44058808048E-01  0.63874765819E-01  0.51100000000E-03 0.  1.
</event>
<event>
 8    1  0.1097777E+005  0.1043930E+01  0.7957747E-01            NaN
         13   -1    0    0    0    0  0.00000000000E+00  0.00000000000E+00  0.74505805969E-08  0.10566000000E+00  0.10566000000E+00 0.  1.
     999900   -1    0    0    0    0 -0.00000000000E+00 -0.00000000000E+00 -0.74505805969E-08  0.93827000000E+00  0.93827000000E+00 0.  1.
     999902    2    1    2    0    0  0.20326654561E-01 -0.12486361401E-01 -0.14541956038E-02  0.10200302763E+01  0.10197502478E+01 0.  0.
     999903    2    3    3    0    0  0.74088281552E-01 -0.37079483065E-01 -0.10124556297E+00  0.13241918403E+00  0.20499140257E-01 0.  0.
         14    1    1    2    0    0 -0.20326654561E-01  0.12486361401E-01  0.14541956038E-02  0.23899723671E-01  0.00000000000E+00 0. -1.
     999901    1    3    3    0    0 -0.53761626991E-01  0.24593121664E-01  0.99791367364E-01  0.88761109230E+00  0.88000000000E+00 0.  1.
        -11    1    4    4    0    0  0.39197822538E-01 -0.20385169785E-01 -0.37977905371E-01  0.58263254769E-01  0.51100000000E-03 0. -1.
         11    1    4    4    0    0  0.34890459014E-01 -0.16694313280E-01 -0.63267657596E-01  0.74155929263E-01  0.51100000000E-03 0.  1.
</event>
<event>
 8    1  0.1097777E+005  0.1043930E+01  0.7957747E-01            NaN
         13   -1    0    0    0    0  0.00000000000E+00  0.00000000000E+00  0.74505805969E-08  0.10566000000E+00  0.10566000000E+00 0.  1.
     999900   -1    0    0    0    0 -0.00000000000E+00 -0.00000000000E+00 -0.74505805969E-08  0.93827000000E+00  0.93827000000E+00 0. -1.
     999902    2    1    2    0    0  0.41049410520E-02 -0.80363124283E-02 -0.29060271168E-01  0.10135008656E+01  0.10130439637E+01 0.  0.
     999903    2    3    3    0    0 -0.70523088863E-01  0.95138711466E-01 -0.32282987781E-01  0.12433000785E+00  0.19770661876E-01 0.  0.
         14    1    1    2    0    0 -0.41049410520E-02  0.80363124283E-02  0.29060271168E-01  0.30429134376E-01  0.00000000000E+00 0.  1.
     999901    1    3    3    0    0  0.74628029915E-01 -0.10317502389E+00  0.32227166126E-02  0.88917085777E+00  0.88000000000E+00 0. -1.
        -11    1    4    4    0    0 -0.63042762859E-01  0.77786522666E-01 -0.32968032433E-01  0.10541482505E+00  0.51100000000E-03 0. -1.
         11    1    4    4    0    0 -0.74803260036E-02  0.17352188800E-01  0.68504465199E-03  0.18915182802E-01  0.51100000000E-03 0.  1.
</event>
<event>
 8    1  0.1097777E+005  0.1043930E+01  0.7957747E-01            NaN
         13   -1    0    0    0    0  0.00000000000E+00  0.00000000000E+00  0.74505805969E-08  0.10566000000E+00  0.10566000000E+00 0. -1.
     999900   -1    0    0    0    0 -0.00000000000E+00 -0.00000000000E+00 -0.74505805969E-08  0.93827000000E+00  0.93827000000E+00 0.  1.
     999902    2    1    2    0    0  0.82572826103E-02  0.13151767803E-01 -0.84838672221E-02  0.10262345849E+01  0.10260820121E+01 0.  0.
     999903    2    3    3    0    0 -0.27324511382E-01 -0.29733025469E-01  0.12731824749E+00  0.13407575156E+00  0.11648574451E-01 0.  0.
         14    1    1    2    0    0 -0.82572826103E-02 -0.13151767803E-01  0.84838672221E-02  0.17695415098E-01  0.00000000000E+00 0. -1.
     999901    1    3    3    0    0  0.35581793992E-01  0.42884793272E-01 -0.13580211471E+00  0.89215883335E+00  0.88000000000E+00 0.  1.
        -11    1    4    4    0    0 -0.18075030461E-01 -0.26502061359E-01  0.10182649067E+00  0.10676123504E+00  0.51100000000E-03 0.  1.
         11    1    4    4    0    0 -0.92494809211E-02 -0.32309641104E-02  0.25491756812E-01  0.27314516521E-01  0.51100000000E-03 0. -1.
</event>
<event>
 8    1  0.1097777E+005  0.1043930E+01  0.7957747E-01            NaN
         13   -1    0    0    0    0  0.00000000000E+00  0.00000000000E+00  0.74505805969E-08  0.10566000000E+00  0.10566000000E+00 0. -1.
     999900   -1    0    0    0    0 -0.00000000000E+00 -0.00000000000E+00 -0.74505805969E-08  0.93827000000E+00  0.93827000000E+00 0.  1.
     999902    2    1    2    0    0  0.16822183467E-01 -0.11192893360E-01 -0.10775091210E-01  0.10210308885E+01  0.10207740719E+01 0.  0.
     999903    2    3    3    0    0  0.31284423312E-01 -0.26428470862E-01  0.12255679738E+00  0.13073954755E+00  0.19886716559E-01 0.  0.
         14    1    1    2    0    0 -0.16822183467E-01  0.11192893360E-01  0.10775091210E-01  0.22899111532E-01  0.00000000000E+00 0. -1.
     999901    1    3    3    0    0 -0.14462239846E-01  0.15235577502E-01 -0.13333188859E+00  0.89029134092E+00  0.88000000000E+00 0.  1.
        -11    1    4    4    0    0  0.16341207265E-01 -0.23932415434E-01  0.94560668899E-01  0.98902865414E-01  0.51100000000E-03 0. -1.
         11    1    4    4    0    0  0.14943216047E-01 -0.24960554280E-02  0.27996128478E-01  0.31836682134E-01  0.51100000000E-03 0.  1.
</event>
<event>
 8    1  0.1097777E+005  0.1043930E+01  0.7957747E-01            NaN
         13   -1    0    0    0    0  0.00000000000E+00  0.00000000000E+00  0.74505805969E-08  0.10566000000E+00  0.10566000000E+00 0.  1.
     999900   -1    0    0    0    0 -0.00000000000E+00 -0.00000000000E+00 -0.74505805969E-08  0.93827000000E+00  0.93827000000E+00 0.  1.
     999902    2    1    2    0    0  0.13168083864E-01  0.20312461199E-01  0.67835758797E-02  0.10187901628E+01  0.10184799381E+01 0.  0.
     999903    2    3    3    0    0 -0.96548163157E-01  0.40406975975E-01 -0.71578321179E-01  0.12829477747E+00  0.19540275003E-01 0.  0.
         14    1    1    2    0    0 -0.13168083864E-01 -0.20312461199E-01 -0.67835758797E-02  0.25139837198E-01  0.00000000000E+00 0. -1.
     999901    1    3    3    0    0  0.10971624702E+00 -0.20094514776E-01  0.78361897058E-01  0.89049538533E+00  0.88000000000E+00 0. -1.
        -11    1    4    4    0    0 -0.65019141067E-01  0.36631792945E-01 -0.52503270714E-01  0.91248186371E-01  0.51100000000E-03 0. -1.
         11    1    4    4    0    0 -0.31529022091E-01  0.37751830301E-02 -0.19075050465E-01  0.37046591100E-01  0.51100000000E-03 0.  1.
</event>
<event>
 8    1  0.1097777E+005  0.1043930E+01  0.7957747E-01            NaN
         13   -1    0    0    0    0  0.00000000000E+00  0.00000000000E+00  0.74505805969E-08  0.10566000000E+00  0.10566000000E+00 0.  1.
     999900   -1    0    0    0    0 -0.00000000000E+00 -0.00000000000E+00 -0.74505805969E-08  0.93827000000E+00  0.93827000000E+00 0. -1.
     999902    2    1    2    0    0  0.18752311819E-01  0.62399892320E-02  0.13277139879E-01  0.10201209868E+01  0.10198431049E+01 0.  0.
     999903    2    3    3    0    0 -0.17448772599E-02  0.10240563265E+00  0.80869846647E-01  0.13206877005E+00  0.20304426380E-01 0.  0.
         14    1    1    2    0    0 -0.18752311819E-01 -0.62399892320E-02 -0.13277139879E-01  0.23809013158E-01  0.00000000000E+00 0. -1.
     999901    1    3    3    0    0  0.20497189079E-01 -0.96165643422E-01 -0.67592706768E-01  0.88805221679E+00  0.88000000000E+00 0. -1.
        -11    1    4    4    0    0 -0.82782289014E-02  0.80132306983E-01  0.68587596188E-01  0.10580281267E+00  0.51100000000E-03 0.  1.
         11    1    4    4    0    0  0.65333516415E-02  0.22273325671E-01  0.12282250459E-01  0.26265957387E-01  0.51100000000E-03 0. -1.
</event>
<event>
 8    1  0.1097777E+005  0.1043930E+01  0.7957747E-01            NaN
         13   -1    0    0    0    0  0.00000000000E+00  0.00000000000E+00  0.74505805969E-08  0.10566000000E+00  0.10566000000E+00 0. -1.
     999900   -1    0    0    0    0 -0.00000000000E+00 -0.00000000000E+00 -0.74505805969E-08  0.93827000000E+00  0.93827000000E+00 0.  1.
     999902    2    1    2    0    0 -0.23880763291E-01  0.13494057722E-02 -0.24647320544E-02  0.10198844878E+01  0.10196009915E+01 0.  0.
     999903    2    3    3    0    0 -0.87427197417E-01 -0.84592049952E-01 -0.47576017968E-01  0.13227020718E+00  0.20799049459E-01 0.  0.
         14    1    1    2    0    0  0.23880763291E-01 -0.13494057722E-02  0.24647320544E-02  0.24045512168E-01  0.00000000000E+00 0. -1.
     999901    1    3    3    0    0  0.63546434126E-01  0.85941455724E-01  0.45111285913E-01  0.88761428065E+00  0.88000000000E+00 0. -1.
        -11    1    4    4    0    0 -0.64521518927E-01 -0.52144512194E-01 -0.38830018511E-01  0.91597532801E-01  0.51100000000E-03 0. -1.
         11    1    4    4    0    0 -0.22905678490E-01 -0.32447537758E-01 -0.87459994567E-02  0.40672674379E-01  0.51100000000E-03 0.  1.
</event>
<event>
 8    1  0.1097777E+005  0.1043930E+01  0.7957747E-01            NaN
         13   -1    0    0    0    0  0.00000000000E+00  0.00000000000E+00  0.74505805969E-08  0.10566000000E+00  0.10566000000E+00 0. -1.
     999900   -1    0    0    0    0 -0.00000000000E+00 -0.00000000000E+00 -0.74505805969E-08  0.93827000000E+00  0.93827000000E+00 0.  1.
     999902    2    1    2    0    0  0.33574093639E-02  0.16223502366E-02  0.28915924658E-01  0.10147746417E+01  0.10143557258E+01 0.  0.
     999903    2    3    3    0    0 -0.11861038596E+00 -0.31403568020E-01  0.17893000779E-01  0.12568051890E+00  0.20514034530E-01 0.  0.
         14    1    1    2    0    0 -0.33574093639E-02 -0.16223502366E-02 -0.28915924658E-01  0.29155358286E-01  0.00000000000E+00 0.  1.
     999901    1    3    3    0    0  0.12196779532E+00  0.33025918256E-01  0.11022923879E-01  0.88909412281E+00  0.88000000000E+00 0. -1.
        -11    1    4    4    0    0 -0.61217228768E-01 -0.24552858362E-01  0.15872472451E-01  0.67842379487E-01  0.51100000000E-03 0.  1.
         11    1    4    4    0    0 -0.57393157190E-01 -0.68507096581E-02  0.20205283282E-02  0.57838139413E-01  0.51100000000E-03 0. -1.
</event>
<event>
 8    1  0.1097777E+005  0.1043930E+01  0.7957747E-01            NaN
         13   -1    0    0    0    0  0.00000000000E+00  0.00000000000E+00  0.74505805969E-08  0.10566000000E+00  0.10566000000E+00 0. -1.
     999900   -1    0    0    0    0 -0.00000000000E+00 -0.00000000000E+00 -0.74505805969E-08  0.93827000000E+00  0.93827000000E+00 0. -1.
     999902    2    1    2    0    0 -0.47779886958E-02  0.26113978887E-01  0.62751470244E-02  0.10166509505E+01  0.10162849053E+01 0.  0.
     999903    2    3    3    0    0 -0.99971540718E-01  0.80144018122E-01  0.65854230349E-02  0.12986960559E+00  0.20133903352E-01 0.  0.
         14    1    1    2    0    0  0.47779886958E-02 -0.26113978887E-01 -0.62751470244E-02  0.27279049460E-01  0.00000000000E+00 0.  1.
     999901    1    3    3    0    0  0.95193552023E-01 -0.54030039235E-01 -0.31027601047E-03  0.88678134495E+00  0.88000000000E+00 0.  1.
        -11    1    4    4    0    0 -0.76219635432E-01  0.54436511174E-01  0.12068089101E-01  0.94438691593E-01  0.51100000000E-03 0.  1.
         11    1    4    4    0    0 -0.23751905286E-01  0.25707506948E-01 -0.54826660660E-02  0.35430913993E-01  0.51100000000E-03 0. -1.
</event>
<event>
 8    1  0.1097777E+005  0.1043930E+01  0.7957747E-01            NaN
         13   -1    0    0    0    0  0.00000000000E+00  0.00000000000E+00  0.74505805969E-08  0.10566000000E+00  0.10566000000E+00 0.  1.
     999900   -1    0    0    0    0 -0.00000000000E+00 -0.00000000000E+00 -0.74505805969E-08  0.93827000000E+00  0.93827000000E+00 0.  1.
     999902    2    1    2    0    0 -0.54529023069E-02 -0.19458573137E-01  0.17426154202E-01  0.10172459024E+01  0.10168958575E+01 0.  0.
     999903    2    3    3    0    0 -0.81900587282E-01 -0.67423256222E-01  0.74053480901E-01  0.13081964297E+00  0.19397403843E-01 0.  0.
         14    1    1    2    0    0  0.54529023069E-02  0.19458573137E-01 -0.17426154202E-01  0.26684097555E-01  0.00000000000E+00 0. -1.
     999901    1    3    3    0    0  0.76447684975E-01  0.47964683085E-01 -0.56627326699E-01  0.88642625948E+00  0.88000000000E+00 0.  1.
        -11    1    4    4    0    0 -0.52858835665E-01 -0.40572757779E-01  0.35151167374E-01  0.75339703148E-01  0.51100000000E-03 0.  1.
         11    1    4    4    0    0 -0.29041751617E-01 -0.26850498443E-01  0.38902313527E-01  0.55479939820E-01  0.51100000000E-03 0. -1.
</event>
<event>
 8    1  0.1097777E+005  0.1043930E+01  0.7957747E-01            NaN
         13   -1    0    0    0    0  0.00000000000E+00  0.00000000000E+00  0.74505805969E-08  0.10566000000E+00  0.10566000000E+00 0. -1.
     999900   -1    0    0    0    0 -0.00000000000E+00 -0.00000000000E+00 -0.74505805969E-08  0.93827000000E+00  0.93827000000E+00 0.  1.
     999902    2    1    2    0    0 -0.17068151967E-01  0.15304185642E-01 -0.50124542865E-02  0.10204637560E+01  0.10201939094E+01 0.  0.
     999903    2    3    3    0    0 -0.11906570052E+00 -0.51549891319E-01  0.97772703212E-02  0.13193029941E+00  0.21816886856E-01 0.  0.
         14    1    1    2    0    0  0.17068151967E-01 -0.15304185642E-01  0.50124542865E-02  0.23466244005E-01  0.00000000000E+00 0. -1.
     999901    1    3    3    0    0  0.10199754855E+00  0.66854076961E-01 -0.14789724608E-01  0.88853345659E+00  0.88000000000E+00 0. -1.
        -11    1    4    4    0    0 -0.28823240503E-01 -0.10004773752E-01  0.11386100200E-01  0.32569603769E-01  0.51100000000E-03 0.  1.
         11    1    4    4    0    0 -0.90242460018E-01 -0.41545117567E-01 -0.16088298787E-02  0.99360695641E-01  0.51100000000E-03 0. -1.
</event>
<event>
 8    1  0.1194901E+005  0.1043930E+01  0.7957747E-01            NaN
         13   -1    0    0    0    0  0.00000000000E+00  0.00000000000E+00  0.74505805969E-08  0.10566000000E+00  0.10566000000E+00 0. -1.
     999900   -1    0    0    0    0 -0.00000000000E+00 -0.00000000000E+00 -0.74505805969E-08  0.93827000000E+00  0.93827000000E+00 0.  1.
     999902    2    1    2    0    0  0.13883685588E-01 -0.19034826113E-01  0.38995394282E-02  0.10200493020E+01  0.10197697244E+01 0.  0.
     999903    2    3    3    0    0  0.11164656580E-01  0.19122314767E-01 -0.12614594621E+00  0.12967006319E+00  0.20278389061E-01 0.  0.
         14    1    1    2    0    0 -0.13883685588E-01  0.19034826113E-01 -0.38995394282E-02  0.23880698030E-01  0.00000000000E+00 0.  1.
     999901    1    3    3    0    0  0.27190290078E-02 -0.38157140879E-01  0.13004548564E+00  0.89037923878E+00  0.88000000000E+00 0. -1.
        -11    1    4    4    0    0  0.15901438079E-01  0.79719509421E-02 -0.69629562655E-01  0.71867550753E-01  0.51100000000E-03 0. -1.
         11    1    4    4    0    0 -0.47367814988E-02  0.11150363824E-01 -0.56516383557E-01  0.57802512435E-01  0.51100000000E-03 0.  1.
</event>
<event>
 8    1  0.1097777E+005  0.1043930E+01  0.7957747E-01            NaN
         13   -1    0    0    0    0  0.00000000000E+00  0.00000000000E+00  0.74505805969E-08  0.10566000000E+00  0.10566000000E+00 0.  1.
     999900   -1    0    0    0    0 -0.00000000000E+00 -0.00000000000E+00 -0.74505805969E-08  0.93827000000E+00  0.93827000000E+00 0. -1.
     999902    2    1    2    0    0 -0.15961313037E-01  0.13464857944E-01 -0.10159391523E-01  0.10207076153E+01  0.10204434119E+01 0.  0.
     999903    2    3    3    0    0 -0.99045638923E-01  0.81362531559E-01 -0.33283809375E-01  0.13388867215E+00  0.19709501081E-01 0.  0.
         14    1    1    2    0    0  0.15961313037E-01 -0.13464857944E-01  0.10159391523E-01  0.23222384662E-01  0.00000000000E+00 0. -1.
     999901    1    3    3    0    0  0.83084325887E-01 -0.67897673616E-01  0.23124417852E-01  0.88681894318E+00  0.88000000000E+00 0.  1.
        -11    1    4    4    0    0 -0.90086627756E-02  0.14057497423E-01 -0.86352261066E-02  0.18804188090E-01  0.51100000000E-03 0.  1.
         11    1    4    4    0    0 -0.90036976148E-01  0.67305034136E-01 -0.24648583268E-01  0.11508448406E+00  0.51100000000E-03 0. -1.
</event>
<event>
 8    1  0.1097777E+005  0.1043930E+01  0.7957747E-01            NaN
         13   -1    0    0    0    0  0.00000000000E+00  0.00000000000E+00  0.74505805969E-08  0.10566000000E+00  0.10566000000E+00 0. -1.
     999900   -1    0    0    0    0 -0.00000000000E+00 -0.00000000000E+00 -0.74505805969E-08  0.93827000000E+00  0.93827000000E+00 0. -1.
     999902    2    1    2    0    0 -0.17170501063E-01  0.98642141515E-02 -0.65278655155E-03  0.10241170003E+01  0.10239253270E+01 0.  0.
     999903    2    3    3    0    0 -0.11038018411E+00  0.71428649482E-01  0.30461505841E-01  0.13650992285E+00  0.20523612934E-01 0.  0.
         14    1    1    2    0    0  0.17170501063E-01 -0.98642141515E-02  0.65278655155E-03  0.19812999719E-01  0.00000000000E+00 0. -1.
     999901    1    3    3    0    0  0.93209683047E-01 -0.61564435331E-01 -0.31114292392E-01  0.88760707743E+00  0.88000000000E+00 0.  1.
        -11    1    4    4    0    0 -0.60591786743E-01  0.50644089573E-01  0.14998619054E-01  0.80382884521E-01  0.51100000000E-03 0. -1.
         11    1    4    4    0    0 -0.49788397367E-01  0.20784559909E-01  0.15462886786E-01  0.56127038331E-01  0.51100000000E-03 0.  1.
</event>
<event>
 8    1  0.1097777E+005  0.1043930E+01  0.7957747E-01            NaN
         13   -1    0    0    0    0  0.00000000000E+00  0.00000000000E+00  0.74505805969E-08  0.10566000000E+00  0.10566000000E+00 0.  1.
     999900   -1    0    0    0    0 -0.00000000000E+00 -0.00000000000E+00 -0.74505805969E-08  0.93827000000E+00  0.93827000000E+00 0. -1.
     999902    2    1    2    0    0 -0.22829478201E-01  0.31582083654E-02  0.25056785783E-02  0.10207472957E+01  0.10204840047E+01 0.  0.
     999903    2    3    3    0    0  0.12221206553E+00  0.14816067756E-01  0.30059942558E-01  0.12837282687E+00  0.20510429216E-01 0.  0.
         14    1    1    2    0    0  0.22829478201E-01 -0.31582083654E-02 -0.25056785783E-02  0.23182704332E-01  0.00000000000E+00 0. -1.
     999901    1    3    3    0    0 -0.14504154374E+00 -0.11657859391E-01 -0.27554263979E-01  0.89237446880E+00  0.88000000000E+00 0.  1.
        -11    1    4    4    0    0  0.20557876712E-01  0.73726090104E-02  0.11778054199E-01  0.24818649041E-01  0.51100000000E-03 0.  1.
         11    1    4    4    0    0  0.10165418882E+00  0.74434587457E-02  0.18281888359E-01  0.10355417783E+00  0.51100000000E-03 0. -1.
</event>
<event>
 8    1  0.1097777E+005  0.1043930E+01  0.7957747E-01            NaN
         13   -1    0    0    0    0  0.00000000000E+00  0.00000000000E+00  0.74505805969E-08  0.10566000000E+00  0.10566000000E+00 0. -1.
     999900   -1    0    0    0    0 -0.00000000000E+00 -0.00000000000E+00 -0.74505805969E-08  0.93827000000E+00  0.93827000000E+00 0.  1.
     999902    2    1    2    0    0  0.12714033676E-01 -0.77316601873E-02  0.19141453361E-01  0.10196849911E+01  0.10193967140E+01 0.  0.
     999903    2    3    3    0    0  0.44283321567E-01 -0.11023754947E+00 -0.50322287866E-01  0.13045538707E+00  0.19311796311E-01 0.  0.
         14    1    1    2    0    0 -0.12714033676E-01  0.77316601873E-02 -0.19141453361E-01  0.24245008936E-01  0.00000000000E+00 0.  1.
     999901    1    3    3    0    0 -0.31569287892E-01  0.10250588928E+00  0.69463741227E-01  0.88922960399E+00  0.88000000000E+00 0. -1.
        -11    1    4    4    0    0  0.43262791856E-01 -0.92351456373E-01 -0.46712573367E-01  0.11217301942E+00  0.51100000000E-03 0. -1.
         11    1    4    4    0    0  0.10205297108E-02 -0.17886093099E-01 -0.36097144987E-02  0.18282367653E-01  0.51100000000E-03 0.  1.
</event>
<event>
 8    1  0.1097777E+005  0.1043930E+01  0.7957747E-01            NaN
         13   -1    0    0    0    0  0.00000000000E+00  0.00000000000E+00  0.74505805969E-08  0.10566000000E+00  0.10566000000E+00 0. -1.
     999900   -1    0    0    0    0 -0.00000000000E+00 -0.00000000000E+00 -0.74505805969E-08  0.93827000000E+00  0.93827000000E+00 0.  1.
     999902    2    1    2    0    0  0.20345384991E-01 -0.71924871478E-02 -0.10035032292E-01  0.10201315035E+01  0.10198538699E+01 0.  0.
     999903    2    3    3    0    0 -0.70392048032E-01  0.77789578396E-01  0.70111784233E-01  0.12778698181E+00  0.20188895438E-01 0.  0.
         14    1    1    2    0    0 -0.20345384991E-01  0.71924871478E-02  0.10035032292E-01  0.23798496484E-01  0.00000000000E+00 0.  1.
     999901    1    3    3    0    0  0.90737433023E-01 -0.84982065544E-01 -0.80146816526E-01  0.89234452170E+00  0.88000000000E+00 0.  1.
        -11    1    4    4    0    0 -0.22326625282E-01  0.39079233979E-01  0.26743217033E-01  0.52355759025E-01  0.51100000000E-03 0.  1.
         11    1    4    4    0    0 -0.48065422750E-01  0.38710344417E-01  0.43368567201E-01  0.75431222786E-01  0.51100000000E-03 0. -1.
</event>
<event>
 8    1  0.1097777E+005  0.1043930E+01  0.7957747E-01            NaN
         13   -1    0    0    0    0  0.00000000000E+00  0.00000000000E+00  0.74505805969E-08  0.10566000000E+00  0.10566000000E+00 0.  1.
     999900   -1    0    0    0    0 -0.00000000000E+00 -0.00000000000E+00 -0.74505805969E-08  0.93827000000E+00  0.93827000000E+00 0. -1.
     999902    2    1    2    0    0 -0.43405149183E-02 -0.22245860948E-01 -0.44172165000E-02  0.10208382222E+01  0.10205770161E+01 0.  0.
     999903    2    3    3    0    0 -0.36864521476E-01  0.46364887765E-01 -0.11507256664E+00  0.13066416489E+00  0.17964760879E-01 0.  0.
         14    1    1    2    0    0  0.43405149183E-02  0.22245860948E-01  0.44172165000E-02  0.23091777772E-01  0.00000000000E+00 0. -1.
     999901    1    3    3    0    0  0.32524006557E-01 -0.68610748712E-01  0.11065535014E+00  0.89017405734E+00  0.88000000000E+00 0.  1.
        -11    1    4    4    0    0 -0.27815882249E-01  0.25394940733E-01 -0.57659809490E-01  0.68873369828E-01  0.51100000000E-03 0.  1.
         11    1    4    4    0    0 -0.90486392268E-02  0.20969947031E-01 -0.57412757147E-01  0.61790795063E-01  0.51100000000E-03 0. -1.
</event>
<event>
 8    1  0.1097777E+005  0.1043930E+01  0.7957747E-01            NaN
         13   -1    0    0    0    0  0.00000000000E+00  0.00000000000E+00  0.74505805969E-08  0.10566000000E+00  0.10566000000E+00 0.  1.
     999900   -1    0    0    0    0 -0.00000000000E+00 -0.00000000000E+00 -0.74505805969E-08  0.93827000000E+00  0.93827000000E+00 0. -1.
     999902    2    1    2    0    0 -0.11349056613E-01 -0.17323400103E-01 -0.11697107614E-01  0.10201450551E+01  0.10198677414E+01 0.  0.
     999903    2    3    3    0    0  0.36654287324E-01  0.12498883170E-01  0.12070424287E+00  0.12844790516E+00  0.20726582787E-01 0.  0.
         14    1    1    2    0    0  0.11349056613E-01  0.17323400103E-01  0.11697107614E-01  0.23784944895E-01  0.00000000000E+00 0.  1.
     999901    1    3    3    0    0 -0.48003343937E-01 -0.29822283273E-01 -0.13240135048E+00  0.89169714994E+00  0.88000000000E+00 0. -1.
        -11    1    4    4    0    0  0.25542628157E-01  0.18253132983E-01  0.86873388898E-01  0.92373424406E-01  0.51100000000E-03 0. -1.
         11    1    4    4    0    0  0.11111659168E-01 -0.57542498132E-02  0.33830853970E-01  0.36074480755E-01  0.51100000000E-03 0.  1.
</event>
<event>
 8    1  0.1097777E+005  0.1043930E+01  0.7957747E-01            NaN
         13   -1    0    0    0    0  0.00000000000E+00  0.00000000000E+00  0.74505805969E-08  0.10566000000E+00  0.10566000000E+00 0.  1.
     999900   -1    0    0    0    0 -0.00000000000E+00 -0.00000000000E+00 -0.74505805969E-08  0.93827000000E+00  0.93827000000E+00 0.  1.
     999902    2    1    2    0    0 -0.20049568917E-01 -0.11999320933E-01  0.48229511691E-02  0.10200714633E+01  0.10197924105E+01 0.  0.
     999903    2    3    3    0    0  0.13841716420E-02 -0.56714779553E-01 -0.11577003513E+00  0.13046393980E+00  0.19991408241E-01 0.  0.
         14    1    1    2    0    0  0.20049568917E-01  0.11999320933E-01 -0.48229511691E-02  0.23858536724E-01  0.00000000000E+00 0.  1.
     999901    1    3    3    0    0 -0.21433740559E-01  0.44715458619E-01  0.12059298630E+00  0.88960752347E+00  0.88000000000E+00 0. -1.
        -11    1    4    4    0    0  0.79583302537E-02 -0.49699807289E-01 -0.93144919617E-01  0.10587560171E+00  0.51100000000E-03 0. -1.
         11    1    4    4    0    0 -0.65741586117E-02 -0.70149722640E-02 -0.22625115516E-01  0.24588338098E-01  0.51100000000E-03 0.  1.
</event>
<event>
 8    1  0.1097777E+005  0.1043930E+01  0.7957747E-01            NaN
         13   -1    0    0    0    0  0.00000000000E+00  0.00000000000E+00  0.74505805969E-08  0.10566000000E+00  0.10566000000E+00 0. -1.
     999900   -1    0    0    0    0 -0.00000000000E+00 -0.00000000000E+00 -0.74505805969E-08  0.93827000000E+00  0.93827000000E+00 0. -1.
     999902    2    1    2    0    0  0.17857958370E-01  0.10433875755E-01  0.67406865552E-02  0.10221766256E+01  0.10219451280E+01 0.  0.
     999903    2    3    3    0    0  0.76623471630E-01 -0.41354622892E-01 -0.97794366533E-01  0.13253455635E+00  0.20501445376E-01 0.  0.
         14    1    1    2    0    0 -0.17857958370E-01 -0.10433875755E-01 -0.67406865552E-02  0.21753374351E-01  0.00000000000E+00 0.  1.
     999901    1    3    3    0    0 -0.58765513260E-01  0.51788498647E-01  0.10453505309E+00  0.88964206930E+00  0.88000000000E+00 0.  1.
        -11    1    4    4    0    0  0.17601750427E-01 -0.62564091531E-02 -0.10394151838E-01  0.21383727155E-01  0.51100000000E-03 0.  1.
         11    1    4    4    0    0  0.59021721203E-01 -0.35098213739E-01 -0.87400214694E-01  0.11115082920E+00  0.51100000000E-03 0. -1.
</event>
<event>
 8    1  0.1097777E+005  0.1043930E+01  0.7957747E-01            NaN
         13   -1    0    0    0    0  0.00000000000E+00  0.00000000000E+00  0.74505805969E-08  0.10566000000E+00  0.10566000000E+00 0.  1.
     999900   -1    0    0    0    0 -0.00000000000E+00 -0.00000000000E+00 -0.74505805969E-08  0.93827000000E+00  0.93827000000E+00 0.  1.
     999902    2    1    2    0    0 -0.43663016611E-02  0.10376626887E-02 -0.22544571499E-01  0.10209430681E+01  0.10206842554E+01 0.  0.
     999903    2    3    3    0    0 -0.50628107327E-01 -0.34883761911E-01  0.11155362317E+00  0.12885964755E+00  0.19506814895E-01 0.  0.
         14    1    1    2    0    0  0.43663016611E-02 -0.10376626887E-02  0.22544571499E-01  0.22986931899E-01  0.00000000000E+00 0.  1.
     999901    1    3    3    0    0  0.46261805666E-01  0.35921424600E-01 -0.13409819467E+00  0.89208342055E+00  0.88000000000E+00 0.  1.
        -11    1    4    4    0    0 -0.12130954867E-01 -0.15169051978E-01  0.49871372967E-01  0.53522660308E-01  0.51100000000E-03 0. -1.
         11    1    4    4    0    0 -0.38497152460E-01 -0.19714709933E-01  0.61682250205E-01  0.75336987242E-01  0.51100000000E-03 0.  1.
</event>
<event>
 8    1  0.1097777E+005  0.1043930E+01  0.7957747E-01            NaN
         13   -1    0    0    0    0  0.00000000000E+00  0.00000000000E+00  0.74505805969E-08  0.10566000000E+00  0.10566000000E+00 0. -1.
     999900   -1    0    0    0    0 -0.00000000000E+00 -0.00000000000E+00 -0.74505805969E-08  0.93827000000E+00  0.93827000000E+00 0.  1.
     999902    2    1    2    0    0  0.89215132771E-02  0.50517175724E-03 -0.22204062188E-01  0.10199953186E+01  0.10197144605E+01 0.  0.
     999903    2    3    3    0    0  0.10965280714E+00  0.14812502308E-01  0.63075932662E-01  0.13003792027E+00  0.26232405296E-01 0.  0.
         14    1    1    2    0    0 -0.89215132771E-02 -0.50517175724E-03  0.22204062188E-01  0.23934681433E-01  0.00000000000E+00 0. -1.
     999901    1    3    3    0    0 -0.10073129386E+00 -0.14307330551E-01 -0.85279994850E-01  0.88995739830E+00  0.88000000000E+00 0.  1.
        -11    1    4    4    0    0  0.67731615845E-01  0.69762707451E-03  0.26863222901E-01  0.72869419746E-01  0.51100000000E-03 0. -1.
         11    1    4    4    0    0  0.41921191294E-01  0.14114875234E-01  0.36212709761E-01  0.57168500519E-01  0.51100000000E-03 0.  1.
</event>
<event>
 8    1  0.1097777E+005  0.1043930E+01  0.7957747E-01            NaN
         13   -1    0    0    0    0  0.00000000000E+00  0.00000000000E+00  0.74505805969E-08  0.10566000000E+00  0.10566000000E+00 0. -1.
     999900   -1    0    0    0    0 -0.00000000000E+00 -0.00000000000E+00 -0.74505805969E-08  0.93827000000E+00  0.93827000000E+00 0. -1.
     999902    2    1    2    0    0 -0.15699013473E-01 -0.95535446652E-02  0.92746158375E-02  0.10233448661E+01  0.10231378046E+01 0.  0.
     999903    2    3    3    0    0 -0.52596124568E-01 -0.41375099416E-01  0.11607678896E+00  0.13554944351E+00  0.20532401926E-01 0.  0.
         14    1    1    2    0    0  0.15699013473E-01  0.95535446652E-02 -0.92746158375E-02  0.20585133923E-01  0.00000000000E+00 0.  1.
     999901    1    3    3    0    0  0.36897111095E-01  0.31821554751E-01 -0.10680217312E+00  0.88779542257E+00  0.88000000000E+00 0. -1.
        -11    1    4    4    0    0 -0.74208250170E-02 -0.15073974892E-01  0.19608229216E-01  0.25827062105E-01  0.51100000000E-03 0.  1.
         11    1    4    4    0    0 -0.45175299551E-01 -0.26301124524E-01  0.96468559742E-01  0.10972238140E+00  0.51100000000E-03 0. -1.
</event>
<event>
 8    1  0.1097777E+005  0.1043930E+01  0.7957747E-01            NaN
         13   -1    0    0    0    0  0.00000000000E+00  0.00000000000E+00  0.74505805969E-08  0.10566000000E+00  0.10566000000E+00 0. -1.
     999900   -1    0    0    0    0 -0.00000000000E+00 -0.00000000000E+00 -0.74505805969E-08  0.93827000000E+00  0.93827000000E+00 0.  1.
     999902    2    1    2    0    0  0.15923399166E-01 -0.15759397597E-01  0.75092528117E-02  0.10203015821E+01  0.10200279488E+01 0.  0.
     999903    2    3    3    0    0 -0.78718163287E-01  0.15362746567E-01  0.10002584442E+00  0.12986071776E+00  0.20641541913E-01 0.  0.
         14    1    1    2    0    0 -0.15923399166E-01  0.15759397597E-01 -0.75092528117E-02  0.23628417878E-01  0.00000000000E+00 0.  1.
     999901    1    3    3    0    0  0.94641562453E-01 -0.31122144165E-01 -0.92516591607E-01  0.89044086436E+00  0.88000000000E+00 0. -1.
        -11    1    4    4    0    0 -0.27383052624E-01  0.15294374069E-01  0.41220221567E-01  0.51798815008E-01  0.51100000000E-03 0.  1.
         11    1    4    4    0    0 -0.51335110663E-01  0.68372498017E-04  0.58805622851E-01  0.78061902754E-01  0.51100000000E-03 0. -1.
</event>
<event>
 8    1  0.1097777E+005  0.1043930E+01  0.7957747E-01            NaN
         13   -1    0    0    0    0  0.00000000000E+00  0.00000000000E+00  0.74505805969E-08  0.10566000000E+00  0.10566000000E+00 0.  1.
     999900   -1    0    0    0    0 -0.00000000000E+00 -0.00000000000E+00 -0.74505805969E-08  0.93827000000E+00  0.93827000000E+00 0. -1.
     999902    2    1    2    0    0 -0.15090718745E-01  0.58565232870E-02 -0.15516895045E-01  0.10215067378E+01  0.10212605998E+01 0.  0.
     999903    2    3    3    0    0 -0.38476094640E-01  0.12449654892E+00  0.15165726641E-01  0.13270768581E+00  0.20038214928E-01 0.  0.
         14    1    1    2    0    0  0.15090718745E-01 -0.58565232870E-02  0.15516895045E-01  0.22423262231E-01  0.00000000000E+00 0.  1.
     999901    1    3    3    0    0  0.23385375895E-01 -0.11864002563E+00 -0.30682621686E-01  0.88879905196E+00  0.88000000000E+00 0. -1.
        -11    1    4    4    0    0 -0.11066885136E-01  0.31694877672E-01  0.12740174850E-01  0.35911201504E-01  0.51100000000E-03 0. -1.
         11    1    4    4    0    0 -0.27409209504E-01  0.92801671247E-01  0.24255517914E-02  0.96796484307E-01  0.51100000000E-03 0.  1.
</event>
<event>
 8    1  0.1097777E+005  0.1043930E+01  0.7957747E-01            NaN
         13   -1    0    0    0    0  0.00000000000E+00  0.00000000000E+00  0.74505805969E-08  0.10566000000E+00  0.10566000000E+00 0. -1.
     999900   -1    0    0    0    0 -0.00000000000E+00 -0.00000000000E+00 -0.74505805969E-08  0.93827000000E+00  0.93827000000E+00 0.  1.
     999902    2    1    2    0    0  0.15839835226E-01  0.37031584120E-02  0.17051737046E-01  0.10203635939E+01  0.10200914117E+01 0.  0.
     999903    2    3    3    0    0  0.10371368999E+00 -0.56665992540E-01  0.57607605212E-01  0.13300175831E+00  0.20081517239E-01 0.  0.
         14    1    1    2    0    0 -0.15839835226E-01 -0.37031584120E-02 -0.17051737046E-01  0.23566406143E-01  0.00000000000E+00 0. -1.
     999901    1    3    3    0    0 -0.87873854762E-01  0.60369150952E-01 -0.40555868166E-01  0.88736183554E+00  0.88000000000E+00 0.  1.
        -11    1    4    4    0    0  0.56672881849E-01 -0.39892397584E-01  0.40134035544E-01  0.80088831008E-01  0.51100000000E-03 0. -1.
         11    1    4    4    0    0  0.47040808139E-01 -0.16773594956E-01  0.17473569668E-01  0.52912927306E-01  0.51100000000E-03 0.  1.
</event>
<event>
 8    1  0.1097777E+005  0.1043930E+01  0.7957747E-01            NaN
         13   -1    0    0    0    0  0.00000000000E+00  0.00000000000E+00  0.74505805969E-08  0.10566000000E+00  0.10566000000E+00 0.  1.
     999900   -1    0    0    0    0 -0.00000000000E+00 -0.00000000000E+00 -0.74505805969E-08  0.93827000000E+00  0.93827000000E+00 0. -1.
     999902    2    1    2    0    0  0.32982366724E-02  0.17159746030E-01 -0.17953333162E-01  0.10188769080E+01  0.10185688470E+01 0.  0.
     999903    2    3    3    0    0 -0.21336277341E-01  0.44540292871E-01  0.11626439368E+00  0.12793866553E+00  0.20293311256E-01 0.  0.
         14    1    1    2    0    0 -0.32982366724E-02 -0.17159746030E-01  0.17953333162E-01  0.25053092036E-01  0.00000000000E+00 0.  1.
     999901    1    3    3    0    0  0.24634514013E-01 -0.27380546841E-01 -0.13421772684E+00  0.89093824243E+00  0.88000000000E+00 0. -1.
        -11    1    4    4    0    0 -0.12298381930E-01  0.25242388601E-01  0.40868277007E-01  0.49587352893E-01  0.51100000000E-03 0.  1.
         11    1    4    4    0    0 -0.90378954104E-02  0.19297904270E-01  0.75396116670E-01  0.78351312641E-01  0.51100000000E-03 0. -1.
</event>
<event>
 8    1  0.1097777E+005  0.1043930E+01  0.7957747E-01            NaN
         13   -1    0    0    0    0  0.00000000000E+00  0.00000000000E+00  0.74505805969E-08  0.10566000000E+00  0.10566000000E+00 0.  1.
     999900   -1    0    0    0    0 -0.00000000000E+00 -0.00000000000E+00 -0.74505805969E-08  0.93827000000E+00  0.93827000000E+00 0.  1.
     999902    2    1    2    0    0 -0.67265565752E-02 -0.21265300747E-01 -0.71007789012E-02  0.10205231497E+01  0.10202546831E+01 0.  0.
     999903    2    3    3    0    0 -0.58725290726E-02  0.12626568345E+00 -0.81338960050E-02  0.12824113825E+00  0.20052926483E-01 0.  0.
         14    1    1    2    0    0  0.67265565752E-02  0.21265300747E-01  0.71007789012E-02  0.23406850284E-01  0.00000000000E+00 0.  1.
     999901    1    3    3    0    0 -0.85402750259E-03 -0.14753098419E+00  0.10331171038E-02  0.89228201147E+00  0.88000000000E+00 0. -1.
        -11    1    4    4    0    0 -0.11663497129E-01  0.88592188290E-01 -0.47209184649E-03  0.89359369867E-01  0.51100000000E-03 0. -1.
         11    1    4    4    0    0  0.57909680568E-02  0.37673495157E-01 -0.76618041585E-02  0.38881768380E-01  0.51100000000E-03 0.  1.
</event>
<event>
 8    1  0.1097777E+005  0.1043930E+01  0.7957747E-01            NaN
         13   -1    0    0    0    0  0.00000000000E+00  0.00000000000E+00  0.74505805969E-08  0.10566000000E+00  0.10566000000E+00 0.  1.
     999900   -1    0    0    0    0 -0.00000000000E+00 -0.00000000000E+00 -0.74505805969E-08  0.93827000000E+00  0.93827000000E+00 0. -1.
     999902    2    1    2    0    0 -0.11721015881E-01  0.93141465603E-02  0.19832000902E-01  0.10190815836E+01  0.10187785972E+01 0.  0.
     999903    2    3    3    0    0  0.37193997686E-01  0.22262590632E-02 -0.11948513871E+00  0.12675194599E+00  0.20025177809E-01 0.  0.
         14    1    1    2    0    0  0.11721015881E-01 -0.93141465603E-02 -0.19832000902E-01  0.24848416433E-01  0.00000000000E+00 0. -1.
     999901    1    3    3    0    0 -0.48915013567E-01  0.70878874971E-02  0.13931713962E+00  0.89232963757E+00  0.88000000000E+00 0.  1.
        -11    1    4    4    0    0  0.30999664486E-01  0.69948976638E-02 -0.73109736072E-01  0.79719523463E-01  0.51100000000E-03 0.  1.
         11    1    4    4    0    0  0.61943331999E-02 -0.47686386006E-02 -0.46375402642E-01  0.47032422531E-01  0.51100000000E-03 0. -1.
</event>
<event>
 8    1  0.1097777E+005  0.1043930E+01  0.7957747E-01            NaN
         13   -1    0    0    0    0  0.00000000000E+00  0.00000000000E+00  0.74505805969E-08  0.10566000000E+00  0.10566000000E+00 0. -1.
     999900   -1    0    0    0    0 -0.00000000000E+00 -0.00000000000E+00 -0.74505805969E-08  0.93827000000E+00  0.93827000000E+00 0.  1.
     999902    2    1    2    0    0  0.10598615890E-01 -0.10311539416E-01  0.16123202557E-01  0.10220527021E+01  0.10218185307E+01 0.  0.
     999903    2    3    3    0    0  0.97902081900E-01  0.86890668100E-01 -0.45259590226E-02  0.13216700593E+00  0.17686924788E-01 0.  0.
         14    1    1    2    0    0 -0.10598615890E-01  0.10311539416E-01 -0.16123202557E-01  0.21877297927E-01  0.00000000000E+00 0.  1.
     999901    1    3    3    0    0 -0.87303466011E-01 -0.97202207516E-01  0.20649161579E-01  0.88988569614E+00  0.88000000000E+00 0.  1.
        -11    1    4    4    0    0  0.36521731990E-01  0.32965403127E-01  0.68402266837E-02  0.49674989008E-01  0.51100000000E-03 0.  1.
         11    1    4    4    0    0  0.61380349910E-01  0.53925264973E-01 -0.11366185706E-01  0.82492016923E-01  0.51100000000E-03 0. -1.
</event>
<event>
 8    1  0.1097777E+005  0.1043930E+01  0.7957747E-01            NaN
         13   -1    0    0    0    0  0.00000000000E+00  0.00000000000E+00  0.74505805969E-08  0.10566000000E+00  0.10566000000E+00 0. -1.
     999900   -1    0    0    0    0 -0.00000000000E+00 -0.00000000000E+00 -0.74505805969E-08  0.93827000000E+00  0.93827000000E+00 0.  1.
     999902    2    1    2    0    0 -0.36141332087E-02  0.13702143571E-01  0.19388118886E-01  0.10199152160E+01  0.10196324524E+01 0.  0.
     999903    2    3    3    0    0 -0.10568405251E+00  0.17089306635E-01  0.75577201093E-01  0.13222892328E+00  0.17646854418E-01 0.  0.
         14    1    1    2    0    0  0.36141332087E-02 -0.13702143571E-01 -0.19388118886E-01  0.24014784014E-01  0.00000000000E+00 0.  1.
     999901    1    3    3    0    0  0.10206991930E+00 -0.33871630641E-02 -0.56189082207E-01  0.88768629271E+00  0.88000000000E+00 0. -1.
        -11    1    4    4    0    0 -0.98570229168E-01  0.11599741995E-01  0.71636707451E-01  0.12240393404E+00  0.51100000000E-03 0. -1.
         11    1    4    4    0    0 -0.71138233403E-02  0.54895646403E-02  0.39404936416E-02  0.98249892416E-02  0.51100000000E-03 0.  1.
</event>
<event>
 8    1  0.1097777E+005  0.1043930E+01  0.7957747E-01            NaN
         13   -1    0    0    0    0  0.00000000000E+00  0.00000000000E+00  0.74505805969E-08  0.10566000000E+00  0.10566000000E+00 0. -1.
     999900   -1    0    0    0    0 -0.00000000000E+00 -0.00000000000E+00 -0.74505805969E-08  0.93827000000E+00  0.93827000000E+00 0. -1.
     999902    2    1    2    0    0  0.15420062180E-01 -0.72510626799E-02 -0.15818276963E-01  0.10206797502E+01  0.10204149050E+01 0.  0.
     999903    2    3    3    0    0  0.12111267576E+00  0.49235969269E-02 -0.53878078302E-01  0.13345503272E+00  0.14658663036E-01 0.  0.
         14    1    1    2    0    0 -0.15420062180E-01  0.72510626799E-02  0.15818276963E-01  0.23250249756E-01  0.00000000000E+00 0. -1.
     999901    1    3    3    0    0 -0.10569261358E+00 -0.12174659607E-01  0.38059801339E-01  0.88722471752E+00  0.88000000000E+00 0.  1.
        -11    1    4    4    0    0  0.69670303784E-01 -0.12891968561E-02 -0.24363547900E-01  0.73820436501E-01  0.51100000000E-03 0. -1.
         11    1    4    4    0    0  0.51442371973E-01  0.62127937830E-02 -0.29514530402E-01  0.59634596223E-01  0.51100000000E-03 0.  1.
</event>
<event>
 8    1  0.1097777E+005  0.1043930E+01  0.7957747E-01            NaN
         13   -1    0    0    0    0  0.00000000000E+00  0.00000000000E+00  0.74505805969E-08  0.10566000000E+00  0.10566000000E+00 0.  1.
     999900   -1    0    0    0    0 -0.00000000000E+00 -0.00000000000E+00 -0.74505805969E-08  0.93827000000E+00  0.93827000000E+00 0. -1.
     999902    2    1    2    0    0 -0.10330064700E-01  0.20084684011E-01  0.73597444873E-02  0.10201756192E+01  0.10198990261E+01 0.  0.
     999903    2    3    3    0    0 -0.32979795875E-01  0.80790727661E-01  0.98357725771E-01  0.13311368976E+00  0.20741349287E-01 0.  0.
         14    1    1    2    0    0  0.10330064700E-01 -0.20084684011E-01 -0.73597444873E-02  0.23754380806E-01  0.00000000000E+00 0.  1.
     999901    1    3    3    0    0  0.22649731175E-01 -0.60706043650E-01 -0.90997981283E-01  0.88706192944E+00  0.88000000000E+00 0. -1.
        -11    1    4    4    0    0 -0.15528935709E-01  0.41397496809E-01  0.65036604111E-01  0.78644272402E-01  0.51100000000E-03 0.  1.
         11    1    4    4    0    0 -0.17450860166E-01  0.39393230851E-01  0.33321121660E-01  0.54469417356E-01  0.51100000000E-03 0. -1.
</event>
<event>
 8    1  0.1097777E+005  0.1043930E+01  0.7957747E-01            NaN
         13   -1    0    0    0    0  0.00000000000E+00  0.00000000000E+00  0.74505805969E-08  0.10566000000E+00  0.10566000000E+00 0.  1.
     999900   -1    0    0    0    0 -0.00000000000E+00 -0.00000000000E+00 -0.74505805969E-08  0.93827000000E+00  0.93827000000E+00 0. -1.
     999902    2    1    2    0    0 -0.12069159050E-01  0.17174641962E-01 -0.10599966566E-01  0.10204142134E+01  0.10201432129E+01 0.  0.
     999903    2    3    3    0    0 -0.12937660928E+00  0.19342930595E-01  0.52646735293E-02  0.13248548535E+00  0.20303473801E-01 0.  0.
         14    1    1    2    0    0  0.12069159050E-01 -0.17174641962E-01  0.10599966566E-01  0.23515786568E-01  0.00000000000E+00 0.  1.
     999901    1    3    3    0    0  0.11730745023E+00 -0.21682886325E-02 -0.15864640095E-01  0.88792872809E+00  0.88000000000E+00 0.  1.
        -11    1    4    4    0    0 -0.48247231840E-01  0.42654427901E-02  0.11320795443E-01  0.49743450955E-01  0.51100000000E-03 0. -1.
         11    1    4    4    0    0 -0.81129377436E-01  0.15077487805E-01 -0.60561219142E-02  0.82742034392E-01  0.51100000000E-03 0.  1.
</event>
<event>
 8    1  0.1097777E+005  0.1043930E+01  0.7957747E-01            NaN
         13   -1    0    0    0    0  0.00000000000E+00  0.00000000000E+00  0.74505805969E-08  0.10566000000E+00  0.10566000000E+00 0.  1.
     999900   -1    0    0    0    0 -0.00000000000E+00 -0.00000000000E+00 -0.74505805969E-08  0.93827000000E+00  0.93827000000E+00 0. -1.
     999902    2    1    2    0    0  0.20892019363E-01  0.97591425787E-02 -0.39520825157E-02  0.10205347805E+01  0.10202665838E+01 0.  0.
     999903    2    3    3    0    0  0.12162016916E+00 -0.36993544817E-01 -0.33754128874E-01  0.13305512675E+00  0.20108148425E-01 0.  0.
         14    1    1    2    0    0 -0.20892019363E-01 -0.97591425787E-02  0.39520825157E-02  0.23395219450E-01  0.00000000000E+00 0. -1.
     999901    1    3    3    0    0 -0.10072814980E+00  0.46752687395E-01  0.29802046359E-01  0.88747965380E+00  0.88000000000E+00 0.  1.
        -11    1    4    4    0    0  0.68028199373E-01 -0.23375918567E-01 -0.90886787892E-02  0.72506100998E-01  0.51100000000E-03 0.  1.
         11    1    4    4    0    0  0.53591969790E-01 -0.13617626250E-01 -0.24665450085E-01  0.60549025753E-01  0.51100000000E-03 0. -1.
</event>
<event>
 8    1  0.1097777E+005  0.1043930E+01  0.7957747E-01            NaN
         13   -1    0    0    0    0  0.00000000000E+00  0.00000000000E+00  0.74505805969E-08  0.10566000000E+00  0.10566000000E+00 0. -1.
     999900   -1    0    0    0    0 -0.00000000000E+00 -0.00000000000E+00 -0.74505805969E-08  0.93827000000E+00  0.93827000000E+00 0.  1.
     999902    2    1    2    0    0  0.63367312797E-02 -0.20750004319E-01  0.87323958564E-02  0.10205425765E+01  0.10202745605E+01 0.  0.
     999903    2    3    3    0    0 -0.12592771650E+00  0.18346319435E-01 -0.10187927627E-01  0.12959903991E+00  0.22310088681E-01 0.  0.
         14    1    1    2    0    0 -0.63367312797E-02  0.20750004319E-01 -0.87323958564E-02  0.23387423542E-01  0.00000000000E+00 0. -1.
     999901    1    3    3    0    0  0.13226444778E+00 -0.39096323755E-01  0.18920323484E-01  0.89094353655E+00  0.88000000000E+00 0.  1.
        -11    1    4    4    0    0 -0.11331900691E+00  0.12660720847E-01 -0.31430863048E-02  0.11406853769E+00  0.51100000000E-03 0. -1.
         11    1    4    4    0    0 -0.12608709590E-01  0.56855985886E-02 -0.70448413225E-02  0.15530502216E-01  0.51100000000E-03 0.  1.
</event>
<event>
 8    1  0.1097777E+005  0.1043930E+01  0.7957747E-01            NaN
         13   -1    0    0    0    0  0.00000000000E+00  0.00000000000E+00  0.74505805969E-08  0.10566000000E+00  0.10566000000E+00 0.  1.
     999900   -1    0    0    0    0 -0.00000000000E+00 -0.00000000000E+00 -0.74505805969E-08  0.93827000000E+00  0.93827000000E+00 0.  1.
     999902    2    1    2    0    0 -0.17388589915E-01  0.12523371693E-01 -0.11672586407E-01  0.10195282138E+01  0.10192361510E+01 0.  0.
     999903    2    3    3    0    0 -0.45154531701E-01 -0.92613600039E-01 -0.77735153071E-01  0.13037749929E+00  0.18420848303E-01 0.  0.
         14    1    1    2    0    0  0.17388589915E-01 -0.12523371693E-01  0.11672586407E-01  0.24401786231E-01  0.00000000000E+00 0.  1.
     999901    1    3    3    0    0  0.27765941786E-01  0.10513697173E+00  0.66062566664E-01  0.88915071448E+00  0.88000000000E+00 0. -1.
        -11    1    4    4    0    0 -0.10811841988E-01 -0.34235808247E-01 -0.35858299083E-01  0.50745100528E-01  0.51100000000E-03 0.  1.
         11    1    4    4    0    0 -0.34342689713E-01 -0.58377791792E-01 -0.41876853988E-01  0.79632398760E-01  0.51100000000E-03 0. -1.
</event>
<event>
 8    1  0.1097777E+005  0.1043930E+01  0.7957747E-01            NaN
         13   -1    0    0    0    0  0.00000000000E+00  0.00000000000E+00  0.74505805969E-08  0.10566000000E+00  0.10566000000E+00 0.  1.
     999900   -1    0    0    0    0 -0.00000000000E+00 -0.00000000000E+00 -0.74505805969E-08  0.93827000000E+00  0.93827000000E+00 0. -1.
     999902    2    1    2    0    0  0.22409236674E-02  0.24415545906E-01  0.52556932528E-02  0.10188548543E+01  0.10185462440E+01 0.  0.
     999903    2    3    3    0    0  0.10688029136E+00  0.58694424648E-01  0.43590794791E-01  0.13116458240E+00  0.20870029206E-01 0.  0.
         14    1    1    2    0    0 -0.22409236674E-02 -0.24415545906E-01 -0.52556932528E-02  0.25075145709E-01  0.00000000000E+00 0. -1.
     999901    1    3    3    0    0 -0.10463936770E+00 -0.34278878742E-01 -0.38335101538E-01  0.88769027189E+00  0.88000000000E+00 0. -1.
        -11    1    4    4    0    0  0.32610815544E-01  0.21573030193E-01  0.23903129907E-01  0.45831012016E-01  0.51100000000E-03 0.  1.
         11    1    4    4    0    0  0.74269475820E-01  0.37121394455E-01  0.19687664884E-01  0.85333570384E-01  0.51100000000E-03 0. -1.
</event>
<event>
 8    1  0.1097777E+005  0.1043930E+01  0.7957747E-01            NaN
         13   -1    0    0    0    0  0.00000000000E+00  0.00000000000E+00  0.74505805969E-08  0.10566000000E+00  0.10566000000E+00 0. -1.
     999900   -1    0    0    0    0 -0.00000000000E+00 -0.00000000000E+00 -0.74505805969E-08  0.93827000000E+00  0.93827000000E+00 0. -1.
     999902    2    1    2    0    0 -0.12352135841E-01  0.15813794176E-01 -0.13345538777E-01  0.10198311463E+01  0.10195463757E+01 0.  0.
     999903    2    3    3    0    0 -0.10829332686E+00  0.66148244425E-01 -0.34246469708E-01  0.13294044391E+00  0.19932537608E-01 0.  0.
         14    1    1    2    0    0  0.12352135841E-01 -0.15813794176E-01  0.13345538777E-01  0.24098853735E-01  0.00000000000E+00 0. -1.
     999901    1    3    3    0    0  0.95941191020E-01 -0.50334450249E-01  0.20900930931E-01  0.88689070236E+00  0.88000000000E+00 0.  1.
        -11    1    4    4    0    0 -0.30127098821E-01  0.17135256421E-01 -0.40099300986E-03  0.34665270983E-01  0.51100000000E-03 0.  1.
         11    1    4    4    0    0 -0.78166228041E-01  0.49012988004E-01 -0.33845476699E-01  0.98275172924E-01  0.51100000000E-03 0. -1.
</event>
<event>
 8    1  0.1097777E+005  0.1043930E+01  0.7957747E-01            NaN
         13   -1    0    0    0    0  0.00000000000E+00  0.00000000000E+00  0.74505805969E-08  0.10566000000E+00  0.10566000000E+00 0.  1.
     999900   -1    0    0    0    0 -0.00000000000E+00 -0.00000000000E+00 -0.74505805969E-08  0.93827000000E+00  0.93827000000E+00 0. -1.
     999902    2    1    2    0    0 -0.20594751885E-01 -0.84592360310E-02 -0.84442917189E-02  0.10201180588E+01  0.10198401078E+01 0.  0.
     999903    2    3    3    0    0 -0.37690356807E-01  0.12302547159E+00  0.19920441844E-02  0.13012401102E+00  0.19299231782E-01 0.  0.
         14    1    1    2    0    0  0.20594751885E-01  0.84592360310E-02  0.84442917189E-02  0.23811941165E-01  0.00000000000E+00 0.  1.
     999901    1    3    3    0    0  0.17095604922E-01 -0.13148470762E+00 -0.10436335903E-01  0.88999404782E+00  0.88000000000E+00 0.  1.
        -11    1    4    4    0    0 -0.15490175047E-01  0.42587857164E-01 -0.82040237776E-02  0.46056902066E-01  0.51100000000E-03 0. -1.
         11    1    4    4    0    0 -0.22200181760E-01  0.80437614424E-01  0.10196067962E-01  0.84067108950E-01  0.51100000000E-03 0.  1.
</event>
<event>
 8    1  0.1097777E+005  0.1043930E+01  0.7957747E-01            NaN
         13   -1    0    0    0    0  0.00000000000E+00  0.00000000000E+00  0.74505805969E-08  0.10566000000E+00  0.10566000000E+00 0.  1.
     999900   -1    0    0    0    0 -0.00000000000E+00 -0.00000000000E+00 -0.74505805969E-08  0.93827000000E+00  0.93827000000E+00 0. -1.
     999902    2    1    2    0    0 -0.45718985008E-02  0.19445584307E-01 -0.15655615271E-01  0.10185502582E+01  0.10182340090E+01 0.  0.
     999903    2    3    3    0    0  0.11898797756E+00 -0.13055377619E-01  0.39970888904E-01  0.12758580128E+00  0.18758545811E-01 0.  0.
         14    1    1    2    0    0  0.45718985008E-02 -0.19445584307E-01  0.15655615271E-01  0.25379741813E-01  0.00000000000E+00 0.  1.
     999901    1    3    3    0    0 -0.12355987606E+00  0.32500961927E-01 -0.55626504176E-01  0.89096445690E+00  0.88000000000E+00 0.  1.
        -11    1    4    4    0    0  0.41411499048E-01 -0.12245104637E-01  0.94041151031E-02  0.44199019704E-01  0.51100000000E-03 0. -1.
         11    1    4    4    0    0  0.77576478512E-01 -0.81027298262E-03  0.30566773801E-01  0.83386781580E-01  0.51100000000E-03 0.  1.
</event>
<event>
 8    1  0.1097777E+005  0.1043930E+01  0.7957747E-01            NaN
         13   -1    0    0    0    0  0.00000000000E+00  0.00000000000E+00  0.74505805969E-08  0.10566000000E+00  0.10566000000E+00 0. -1.
     999900   -1    0    0    0    0 -0.00000000000E+00 -0.00000000000E+00 -0.74505805969E-08  0.93827000000E+00  0.93827000000E+00 0.  1.
     999902    2    1    2    0    0  0.58050041329E-02 -0.13279570539E-03 -0.22583249814E-01  0.10206122197E+01  0.10203458159E+01 0.  0.
     999903    2    3    3    0    0  0.93325134422E-01 -0.49374357268E-01 -0.78647478046E-01  0.13312830303E+00  0.19756300122E-01 0.  0.
         14    1    1    2    0    0 -0.58050041329E-02  0.13279570539E-03  0.22583249814E-01  0.23317780337E-01  0.00000000000E+00 0. -1.
     999901    1    3    3    0    0 -0.87520130289E-01  0.49241561563E-01  0.56064228232E-01  0.88748391663E+00  0.88000000000E+00 0. -1.
        -11    1    4    4    0    0  0.73228916193E-01 -0.28928678861E-01 -0.57200972405E-01  0.97321914246E-01  0.51100000000E-03 0. -1.
         11    1    4    4    0    0  0.20096218229E-01 -0.20445678407E-01 -0.21446505642E-01  0.35806388786E-01  0.51100000000E-03 0.  1.
</event>
<event>
 8    1  0.1097777E+005  0.1043930E+01  0.7957747E-01            NaN
         13   -1    0    0    0    0  0.00000000000E+00  0.00000000000E+00  0.74505805969E-08  0.10566000000E+00  0.10566000000E+00 0.  1.
     999900   -1    0    0    0    0 -0.00000000000E+00 -0.00000000000E+00 -0.74505805969E-08  0.93827000000E+00  0.93827000000E+00 0.  1.
     999902    2    1    2    0    0  0.42620534910E-02  0.19632500663E-01 -0.13208474300E-01  0.10198870390E+01  0.10196036035E+01 0.  0.
     999903    2    3    3    0    0 -0.10242163251E+00 -0.57849361139E-01 -0.49982026202E-01  0.12930456558E+00  0.19614493314E-01 0.  0.
         14    1    1    2    0    0 -0.42620534910E-02 -0.19632500663E-01  0.13208474300E-01  0.24042961040E-01  0.00000000000E+00 0. -1.
     999901    1    3    3    0    0  0.10668368600E+00  0.77481861802E-01  0.36773551902E-01  0.89058247338E+00  0.88000000000E+00 0. -1.
        -11    1    4    4    0    0 -0.71832298023E-01 -0.48400882194E-01 -0.30540331423E-01  0.91844963938E-01  0.51100000000E-03 0.  1.
         11    1    4    4    0    0 -0.30589334484E-01 -0.94484789451E-02 -0.19441694779E-01  0.37459601645E-01  0.51100000000E-03 0. -1.
</event>
<event>
 8    1  0.1097777E+005  0.1043930E+01  0.7957747E-01            NaN
         13   -1    0    0    0    0  0.00000000000E+00  0.00000000000E+00  0.74505805969E-08  0.10566000000E+00  0.10566000000E+00 0.  1.
     999900   -1    0    0    0    0 -0.00000000000E+00 -0.00000000000E+00 -0.74505805969E-08  0.93827000000E+00  0.93827000000E+00 0.  1.
     999902    2    1    2    0    0  0.27668269910E-02 -0.18852987976E-01  0.14539976254E-01  0.10199612412E+01  0.10196795733E+01 0.  0.
     999903    2    3    3    0    0  0.20340081645E-01 -0.10248051960E+00  0.80220075720E-01  0.13338566138E+00  0.20988051280E-01 0.  0.
         14    1    1    2    0    0 -0.27668269910E-02  0.18852987976E-01 -0.14539976254E-01  0.23968758764E-01  0.00000000000E+00 0. -1.
     999901    1    3    3    0    0 -0.17573254654E-01  0.83627531619E-01 -0.65680099465E-01  0.88657557985E+00  0.88000000000E+00 0.  1.
        -11    1    4    4    0    0  0.14645952317E-01 -0.26472422409E-01  0.20409097420E-01  0.36497745765E-01  0.51100000000E-03 0.  1.
         11    1    4    4    0    0  0.56941293279E-02 -0.76008097186E-01  0.59810978300E-01  0.96887915618E-01  0.51100000000E-03 0. -1.
</event>
<event>
 8    1  0.1097777E+005  0.1043930E+01  0.7957747E-01            NaN
         13   -1    0    0    0    0  0.00000000000E+00  0.00000000000E+00  0.74505805969E-08  0.10566000000E+00  0.10566000000E+00 0. -1.
     999900   -1    0    0    0    0 -0.00000000000E+00 -0.00000000000E+00 -0.74505805969E-08  0.93827000000E+00  0.93827000000E+00 0. -1.
     999902    2    1    2    0    0  0.12320312265E-01  0.34244021991E-02 -0.18638165081E-01  0.10213269510E+01  0.10210768057E+01 0.  0.
     999903    2    3    3    0    0 -0.10759846480E+00  0.15013361639E-01  0.66645954266E-01  0.12903316641E+00  0.20125708884E-01 0.  0.
         14    1    1    2    0    0 -0.12320312265E-01 -0.34244021991E-02  0.18638165081E-01  0.22603048960E-01  0.00000000000E+00 0. -1.
     999901    1    3    3    0    0  0.11991877707E+00 -0.11588959439E-01 -0.85284119346E-01  0.89229378463E+00  0.88000000000E+00 0. -1.
        -11    1    4    4    0    0 -0.73677347327E-01  0.19463596960E-01  0.48058277342E-01  0.90094629462E-01  0.51100000000E-03 0. -1.
         11    1    4    4    0    0 -0.33921117477E-01 -0.44502353212E-02  0.18587676923E-01  0.38938536949E-01  0.51100000000E-03 0.  1.
</event>
<event>
 8    1  0.1097777E+005  0.1043930E+01  0.7957747E-01            NaN
         13   -1    0    0    0    0  0.00000000000E+00  0.00000000000E+00  0.74505805969E-08  0.10566000000E+00  0.10566000000E+00 0. -1.
     999900   -1    0    0    0    0 -0.00000000000E+00 -0.00000000000E+00 -0.74505805969E-08  0.93827000000E+00  0.93827000000E+00 0.  1.
     999902    2    1    2    0    0  0.53755944793E-02 -0.21694525246E-01 -0.55881963893E-02  0.10208913937E+01  0.10206314028E+01 0.  0.
     999903    2    3    3    0    0 -0.44461079523E-01  0.25798205841E-01  0.11738585093E+00  0.12967768762E+00  0.19862770466E-01 0.  0.
         14    1    1    2    0    0 -0.53755944793E-02  0.21694525246E-01  0.55881963893E-02  0.23038606306E-01  0.00000000000E+00 0.  1.
     999901    1    3    3    0    0  0.49836674002E-01 -0.47492731088E-01 -0.12297404732E+00  0.89121370607E+00  0.88000000000E+00 0.  1.
        -11    1    4    4    0    0 -0.32532096938E-01  0.17518355217E-01  0.59875597299E-01  0.70360346600E-01  0.51100000000E-03 0.  1.
         11    1    4    4    0    0 -0.11928982584E-01  0.82798506248E-02  0.57510253631E-01  0.59317341019E-01  0.51100000000E-03 0. -1.
</event>
<event>
 8    1  0.1097777E+005  0.1043930E+01  0.7957747E-01            NaN
         13   -1    0    0    0    0  0.00000000000E+00  0.00000000000E+00  0.74505805969E-08  0.10566000000E+00  0.10566000000E+00 0. -1.
     999900   -1    0    0    0    0 -0.00000000000E+00 -0.00000000000E+00 -0.74505805969E-08  0.93827000000E+00  0.93827000000E+00 0.  1.
     999902    2    1    2    0    0 -0.11371299682E-01 -0.17698240515E-01  0.61686030705E-02  0.10220077319E+01  0.10217725864E+01 0.  0.
     999903    2    3    3    0    0  0.39715978349E-01  0.12053413935E+00  0.17501593923E-01  0.12968125720E+00  0.20126723346E-01 0.  0.
         14    1    1    2    0    0  0.11371299682E-01  0.17698240515E-01 -0.61686030705E-02  0.21922268076E-01  0.00000000000E+00 0.  1.
     999901    1    3    3    0    0 -0.51087278031E-01 -0.13823237987E+00 -0.11332990852E-01  0.89232647473E+00  0.88000000000E+00 0.  1.
        -11    1    4    4    0    0  0.22319733596E-01  0.70387125954E-01  0.20121929152E-01  0.76535424227E-01  0.51100000000E-03 0.  1.
         11    1    4    4    0    0  0.17396244753E-01  0.50147013397E-01 -0.26203352293E-02  0.53145832968E-01  0.51100000000E-03 0. -1.
</event>
<event>
 8    1  0.1097777E+005  0.1043930E+01  0.7957747E-01            NaN
         13   -1    0    0    0    0  0.00000000000E+00  0.00000000000E+00  0.74505805969E-08  0.10566000000E+00  0.10566000000E+00 0.  1.
     999900   -1    0    0    0    0 -0.00000000000E+00 -0.00000000000E+00 -0.74505805969E-08  0.93827000000E+00  0.93827000000E+00 0. -1.
     999902    2    1    2    0    0 -0.85548080397E-02  0.22011108984E-01 -0.19370226660E-02  0.10202355763E+01  0.10199603940E+01 0.  0.
     999903    2    3    3    0    0 -0.62334920890E-01  0.10708334187E+00 -0.45489019661E-01  0.13342874172E+00  0.19531864730E-01 0.  0.
         14    1    1    2    0    0  0.85548080397E-02 -0.22011108984E-01  0.19370226660E-02  0.23694423735E-01  0.00000000000E+00 0.  1.
     999901    1    3    3    0    0  0.53780112850E-01 -0.85072232886E-01  0.43551996995E-01  0.88680683454E+00  0.88000000000E+00 0.  1.
        -11    1    4    4    0    0 -0.13152800526E-01  0.37103851682E-01 -0.20107987434E-01  0.44207287306E-01  0.51100000000E-03 0.  1.
         11    1    4    4    0    0 -0.49182120364E-01  0.69979490189E-01 -0.25381032227E-01  0.89221454418E-01  0.51100000000E-03 0. -1.
</event>
<event>
 8    1  0.1097777E+005  0.1043930E+01  0.7957747E-01            NaN
         13   -1    0    0    0    0  0.00000000000E+00  0.00000000000E+00  0.74505805969E-08  0.10566000000E+00  0.10566000000E+00 0. -1.
     999900   -1    0    0    0    0 -0.00000000000E+00 -0.00000000000E+00 -0.74505805969E-08  0.93827000000E+00  0.93827000000E+00 0. -1.
     999902    2    1    2    0    0 -0.12948319530E-01  0.94611823354E-02 -0.17532935896E-01  0.10201691753E+01  0.10198924303E+01 0.  0.
     999903    2    3    3    0    0  0.42496802734E-01 -0.11876285531E+00  0.14832525452E-01  0.12856214946E+00  0.19940622334E-01 0.  0.
         14    1    1    2    0    0  0.12948319530E-01 -0.94611823354E-02  0.17532935896E-01  0.23760824711E-01  0.00000000000E+00 0.  1.
     999901    1    3    3    0    0 -0.55445122264E-01  0.12822403765E+00 -0.32365461348E-01  0.89160702583E+00  0.88000000000E+00 0.  1.
        -11    1    4    4    0    0  0.41567476549E-02 -0.35459714144E-01  0.80857019099E-02  0.36610238658E-01  0.51100000000E-03 0.  1.
         11    1    4    4    0    0  0.38340055079E-01 -0.83303141167E-01  0.67468235417E-02  0.91951910805E-01  0.51100000000E-03 0. -1.
</event>
<event>
 8    1  0.1097777E+005  0.1043930E+01  0.7957747E-01            NaN
         13   -1    0    0    0    0  0.00000000000E+00  0.00000000000E+00  0.74505805969E-08  0.10566000000E+00  0.10566000000E+00 0. -1.
     999900   -1    0    0    0    0 -0.00000000000E+00 -0.00000000000E+00 -0.74505805969E-08  0.93827000000E+00  0.93827000000E+00 0.  1.
     999902    2    1    2    0    0  0.60824749414E-02 -0.19650166732E-01  0.96895788031E-02  0.10211920693E+01  0.10209388958E+01 0.  0.
     999903    2    3    3    0    0  0.13012158662E+00 -0.74964602358E-02 -0.89524431709E-02  0.13221460122E+00  0.20315765233E-01 0.  0.
         14    1    1    2    0    0 -0.60824749414E-02  0.19650166732E-01 -0.96895788031E-02  0.22737930675E-01  0.00000000000E+00 0. -1.
     999901    1    3    3    0    0 -0.12403911168E+00 -0.12153706496E-01  0.18642021974E-01  0.88897746810E+00  0.88000000000E+00 0.  1.
        -11    1    4    4    0    0  0.19107526379E-01 -0.75955032051E-02  0.19751063494E-02  0.20662802311E-01  0.51100000000E-03 0.  1.
         11    1    4    4    0    0  0.11101406024E+00  0.99042969368E-04 -0.10927549520E-01  0.11155179891E+00  0.51100000000E-03 0. -1.
</event>
<event>
 8    1  0.1097777E+005  0.1043930E+01  0.7957747E-01            NaN
         13   -1    0    0    0    0  0.00000000000E+00  0.00000000000E+00  0.74505805969E-08  0.10566000000E+00  0.10566000000E+00 0. -1.
     999900   -1    0    0    0    0 -0.00000000000E+00 -0.00000000000E+00 -0.74505805969E-08  0.93827000000E+00  0.93827000000E+00 0.  1.
     999902    2    1    2    0    0 -0.65293668692E-02  0.31675552063E-02 -0.20614998985E-01  0.10220749269E+01  0.10218412362E+01 0.  0.
     999903    2    3    3    0    0 -0.35577344533E-01  0.12342943045E+00  0.25200922309E-01  0.13224022185E+00  0.18756813282E-01 0.  0.
         14    1    1    2    0    0  0.65293668692E-02 -0.31675552063E-02  0.20614998985E-01  0.21855073115E-01  0.00000000000E+00 0. -1.
     999901    1    3    3    0    0  0.29047977663E-01 -0.12026187524E+00 -0.45815921294E-01  0.88983470504E+00  0.88000000000E+00 0.  1.
        -11    1    4    4    0    0 -0.51867834096E-03  0.13388212107E-01 -0.20834934469E-02  0.13568909926E-01  0.51100000000E-03 0. -1.
         11    1    4    4    0    0 -0.35058666192E-01  0.11004121834E+00  0.27284415756E-01  0.11867131192E+00  0.51100000000E-03 0.  1.
</event>
<event>
 8    1  0.1097777E+005  0.1043930E+01  0.7957747E-01            NaN
         13   -1    0    0    0    0  0.00000000000E+00  0.00000000000E+00  0.74505805969E-08  0.10566000000E+00  0.10566000000E+00 0.  1.
     999900   -1    0    0    0    0 -0.00000000000E+00 -0.00000000000E+00 -0.74505805969E-08  0.93827000000E+00  0.93827000000E+00 0. -1.
     999902    2    1    2    0    0 -0.11272419250E-01 -0.17067586135E-01  0.11403261895E-01  0.10205119661E+01  0.10202432399E+01 0.  0.
     999903    2    3    3    0    0  0.12649240005E-01 -0.11151580497E+00 -0.65829096072E-01  0.13177266291E+00  0.20851541213E-01 0.  0.
         14    1    1    2    0    0  0.11272419250E-01  0.17067586135E-01 -0.11403261895E-01  0.23418033949E-01  0.00000000000E+00 0. -1.
     999901    1    3    3    0    0 -0.23921659254E-01  0.94448218836E-01  0.77232357967E-01  0.88873930314E+00  0.88000000000E+00 0.  1.
        -11    1    4    4    0    0  0.41771166515E-02 -0.81515813860E-01 -0.38226882800E-01  0.90132302214E-01  0.51100000000E-03 0.  1.
         11    1    4    4    0    0  0.84721233532E-02 -0.29999991111E-01 -0.27602213272E-01  0.41640360700E-01  0.51100000000E-03 0. -1.
</event>
<event>
 8    1  0.1097777E+005  0.1043930E+01  0.7957747E-01            NaN
         13   -1    0    0    0    0  0.00000000000E+00  0.00000000000E+00  0.74505805969E-08  0.10566000000E+00  0.10566000000E+00 0. -1.
     999900   -1    0    0    0    0 -0.00000000000E+00 -0.00000000000E+00 -0.74505805969E-08  0.93827000000E+00  0.93827000000E+00 0.  1.
     999902    2    1    2    0    0 -0.80501920226E-03  0.22019513358E-01 -0.11763058289E-03  0.10218954621E+01  0.10216578755E+01 0.  0.
     999903    2    3    3    0    0  0.11393932916E-01 -0.12711231035E+00 -0.19830059081E-02  0.12926306579E+00  0.20436406618E-01 0.  0.
         14    1    1    2    0    0  0.80501920226E-03 -0.22019513358E-01  0.11763058289E-03  0.22034537921E-01  0.00000000000E+00 0. -1.
     999901    1    3    3    0    0 -0.12198952119E-01  0.14913182371E+00  0.18653753253E-02  0.89263239629E+00  0.88000000000E+00 0. -1.
        -11    1    4    4    0    0  0.12170222915E-01 -0.67157233940E-01  0.70820979842E-02  0.68619426034E-01  0.51100000000E-03 0.  1.
         11    1    4    4    0    0 -0.77628999897E-03 -0.59955076411E-01 -0.90651038923E-02  0.60643639758E-01  0.51100000000E-03 0. -1.
</event>
<event>
 8    1  0.1097777E+005  0.1043930E+01  0.7957747E-01            NaN
         13   -1    0    0    0    0  0.00000000000E+00  0.00000000000E+00  0.74505805969E-08  0.10566000000E+00  0.10566000000E+00 0.  1.
     999900   -1    0    0    0    0 -0.00000000000E+00 -0.00000000000E+00 -0.74505805969E-08  0.93827000000E+00  0.93827000000E+00 0.  1.
     999902    2    1    2    0    0  0.16204379436E-01 -0.14809340741E-01  0.10186249023E-01  0.10197296249E+01  0.10194424210E+01 0.  0.
     999903    2    3    3    0    0 -0.94993116359E-01 -0.41880874858E-01  0.75190170423E-01  0.12994130129E+00  0.21295074959E-01 0.  0.
         14    1    1    2    0    0 -0.16204379436E-01  0.14809340741E-01 -0.10186249023E-01  0.24200375105E-01  0.00000000000E+00 0. -1.
     999901    1    3    3    0    0  0.11119749580E+00  0.27071534117E-01 -0.65003921400E-01  0.88978832361E+00  0.88000000000E+00 0.  1.
        -11    1    4    4    0    0 -0.40609437236E-01 -0.26045940697E-01  0.43893945395E-01  0.65226198593E-01  0.51100000000E-03 0. -1.
         11    1    4    4    0    0 -0.54383679123E-01 -0.15834934160E-01  0.31296225027E-01  0.64715102695E-01  0.51100000000E-03 0.  1.
</event>
<event>
 8    1  0.1097777E+005  0.1043930E+01  0.7957747E-01            NaN
         13   -1    0    0    0    0  0.00000000000E+00  0.00000000000E+00  0.74505805969E-08  0.10566000000E+00  0.10566000000E+00 0.  1.
     999900   -1    0    0    0    0 -0.00000000000E+00 -0.00000000000E+00 -0.74505805969E-08  0.93827000000E+00  0.93827000000E+00 0. -1.
     999902    2    1    2    0    0  0.89889630927E-02  0.39528745850E-02 -0.21637006464E-01  0.10201689663E+01  0.10198922164E+01 0.  0.
     999903    2    3    3    0    0 -0.18881068483E-01  0.72002479963E-01 -0.10824040673E+00  0.13286539004E+00  0.19909152523E-01 0.  0.
         14    1    1    2    0    0 -0.89889630927E-02 -0.39528745850E-02  0.21637006464E-01  0.23761033726E-01  0.00000000000E+00 0.  1.
     999901    1    3    3    0    0  0.27870031575E-01 -0.68049605378E-01  0.86603400269E-01  0.88730357623E+00  0.88000000000E+00 0.  1.
        -11    1    4    4    0    0 -0.15098016881E-01  0.21950972918E-01 -0.32961504986E-01  0.42385342486E-01  0.51100000000E-03 0.  1.
         11    1    4    4    0    0 -0.37830516021E-02  0.50051507045E-01 -0.75278901747E-01  0.90480047558E-01  0.51100000000E-03 0. -1.
</event>
<event>
 8    1  0.1097777E+005  0.1043930E+01  0.7957747E-01            NaN
         13   -1    0    0    0    0  0.00000000000E+00  0.00000000000E+00  0.74505805969E-08  0.10566000000E+00  0.10566000000E+00 0.  1.
     999900   -1    0    0    0    0 -0.00000000000E+00 -0.00000000000E+00 -0.74505805969E-08  0.93827000000E+00  0.93827000000E+00 0.  1.
     999902    2    1    2    0    0  0.11262598569E-01 -0.21551731490E-01 -0.99176431102E-02  0.10176681855E+01  0.10173292745E+01 0.  0.
     999903    2    3    3    0    0 -0.88873574664E-01  0.79450083856E-01 -0.35228109881E-01  0.12588949118E+00  0.19907691100E-01 0.  0.
         14    1    1    2    0    0 -0.11262598569E-01  0.21551731490E-01  0.99176431102E-02  0.26261814515E-01  0.00000000000E+00 0.  1.
     999901    1    3    3    0    0  0.10013617323E+00 -0.10100181535E+00  0.25310466771E-01  0.89177869431E+00  0.88000000000E+00 0.  1.
        -11    1    4    4    0    0 -0.91574374823E-02  0.12605821253E-01  0.12650368578E-02  0.15640550820E-01  0.51100000000E-03 0. -1.
         11    1    4    4    0    0 -0.79716137182E-01  0.66844262603E-01 -0.36493146739E-01  0.11024894036E+00  0.51100000000E-03 0.  1.
</event>
<event>
 8    1  0.1097777E+005  0.1043930E+01  0.7957747E-01            NaN
         13   -1    0    0    0    0  0.00000000000E+00  0.00000000000E+00  0.74505805969E-08  0.10566000000E+00  0.10566000000E+00 0.  1.
     999900   -1    0    0    0    0 -0.00000000000E+00 -0.00000000000E+00 -0.74505805969E-08  0.93827000000E+00  0.93827000000E+00 0. -1.
     999902    2    1    2    0    0  0.14542072126E-01 -0.17091327983E-01  0.77248307486E-02  0.10201969352E+01  0.10199208441E+01 0.  0.
     999903    2    3    3    0    0 -0.88138032603E-01  0.82796684381E-01 -0.34457928529E-01  0.12761629230E+00  0.21793702924E-01 0.  0.
         14    1    1    2    0    0 -0.14542072126E-01  0.17091327983E-01 -0.77248307486E-02  0.23733064784E-01  0.00000000000E+00 0.  1.
     999901    1    3    3    0    0  0.10268010473E+00 -0.99888012364E-01  0.42182759278E-01  0.89258064291E+00  0.88000000000E+00 0.  1.
        -11    1    4    4    0    0 -0.44434824281E-01  0.35633584786E-01 -0.59196498042E-02  0.57267000518E-01  0.51100000000E-03 0.  1.
         11    1    4    4    0    0 -0.43703208322E-01  0.47163099595E-01 -0.28538278725E-01  0.70349291785E-01  0.51100000000E-03 0. -1.
</event>
<event>
 8    1  0.1097777E+005  0.1043930E+01  0.7957747E-01            NaN
         13   -1    0    0    0    0  0.00000000000E+00  0.00000000000E+00  0.74505805969E-08  0.10566000000E+00  0.10566000000E+00 0.  1.
     999900   -1    0    0    0    0 -0.00000000000E+00 -0.00000000000E+00 -0.74505805969E-08  0.93827000000E+00  0.93827000000E+00 0.  1.
     999902    2    1    2    0    0  0.54206913933E-02 -0.28847674886E-02 -0.22976686520E-01  0.10201469409E+01  0.10198696716E+01 0.  0.
     999903    2    3    3    0    0  0.11951502438E+00 -0.45935262586E-01 -0.25389554617E-01  0.13173448942E+00  0.17761104033E-01 0.  0.
         14    1    1    2    0    0 -0.54206913933E-02  0.28847674886E-02  0.22976686520E-01  0.23783059140E-01  0.00000000000E+00 0.  1.
     999901    1    3    3    0    0 -0.11409433299E+00  0.43050495098E-01  0.24128680970E-02  0.88841245144E+00  0.88000000000E+00 0. -1.
        -11    1    4    4    0    0  0.60012082845E-01 -0.31185261861E-01 -0.86481755750E-02  0.68183742244E-01  0.51100000000E-03 0. -1.
         11    1    4    4    0    0  0.59502941536E-01 -0.14750000725E-01 -0.16741379042E-01  0.63550747171E-01  0.51100000000E-03 0.  1.
</event>
<event>
 8    1  0.1097777E+005  0.1043930E+01  0.7957747E-01            NaN
         13   -1    0    0    0    0  0.00000000000E+00  0.00000000000E+00  0.74505805969E-08  0.10566000000E+00  0.10566000000E+00 0.  1.
     999900   -1    0    0    0    0 -0.00000000000E+00 -0.00000000000E+00 -0.74505805969E-08  0.93827000000E+00  0.93827000000E+00 0. -1.
     999902    2    1    2    0    0  0.16888357918E-01 -0.66166668841E-02 -0.17190670364E-01  0.10189396806E+01  0.10186331807E+01 0.  0.
     999903    2    3    3    0    0 -0.98583201029E-01  0.77911161512E-01  0.92379041905E-03  0.12719601322E+00  0.19727538565E-01 0.  0.
         14    1    1    2    0    0 -0.16888357918E-01  0.66166668841E-02  0.17190670364E-01  0.24990319354E-01  0.00000000000E+00 0.  1.
     999901    1    3    3    0    0  0.11547155895E+00 -0.84527828396E-01 -0.18114460783E-01  0.89174366742E+00  0.88000000000E+00 0.  1.
        -11    1    4    4    0    0 -0.31226553336E-01  0.34473159804E-01  0.59143420670E-02  0.46890691434E-01  0.51100000000E-03 0.  1.
         11    1    4    4    0    0 -0.67356647693E-01  0.43438001709E-01 -0.49905516479E-02  0.80305321789E-01  0.51100000000E-03 0. -1.
</event>
<event>
 8    1  0.1097777E+005  0.1043930E+01  0.7957747E-01            NaN
         13   -1    0    0    0    0  0.00000000000E+00  0.00000000000E+00  0.74505805969E-08  0.10566000000E+00  0.10566000000E+00 0.  1.
     999900   -1    0    0    0    0 -0.00000000000E+00 -0.00000000000E+00 -0.74505805969E-08  0.93827000000E+00  0.93827000000E+00 0. -1.
     999902    2    1    2    0    0 -0.18752967316E-01  0.72659291786E-02 -0.97726552729E-02  0.10215699396E+01  0.10213252025E+01 0.  0.
     999903    2    3    3    0    0  0.12371337017E-01  0.12597467940E+00  0.31156634679E-01  0.13211184813E+00  0.21450750658E-01 0.  0.
         14    1    1    2    0    0  0.18752967316E-01 -0.72659291786E-02  0.97726552729E-02  0.22360060399E-01  0.00000000000E+00 0.  1.
     999901    1    3    3    0    0 -0.31124304333E-01 -0.11870875022E+00 -0.40929289952E-01  0.88945809147E+00  0.88000000000E+00 0. -1.
        -11    1    4    4    0    0  0.42389677844E-02  0.39297395592E-02  0.32543266483E-02  0.66530792731E-02  0.51100000000E-03 0.  1.
         11    1    4    4    0    0  0.81323692326E-02  0.12204493984E+00  0.27902308031E-01  0.12545876886E+00  0.51100000000E-03 0. -1.
</event>
<event>
 8    1  0.1097777E+005  0.1043930E+01  0.7957747E-01            NaN
         13   -1    0    0    0    0  0.00000000000E+00  0.00000000000E+00  0.74505805969E-08  0.10566000000E+00  0.10566000000E+00 0. -1.
     999900   -1    0    0    0    0 -0.00000000000E+00 -0.00000000000E+00 -0.74505805969E-08  0.93827000000E+00  0.93827000000E+00 0.  1.
     999902    2    1    2    0    0 -0.33310934268E-02 -0.22555779043E-01 -0.60466059216E-02  0.10203414266E+01  0.10200687261E+01 0.  0.
     999903    2    3    3    0    0 -0.85419187492E-01 -0.10033085075E+00  0.30120155219E-02  0.13305935444E+00  0.18248352310E-01 0.  0.
         14    1    1    2    0    0  0.33310934268E-02  0.22555779043E-01  0.60466059216E-02  0.23588573395E-01  0.00000000000E+00 0. -1.
     999901    1    3    3    0    0  0.82088094066E-01  0.77775071706E-01 -0.90586214436E-02  0.88728207217E+00  0.88000000000E+00 0. -1.
        -11    1    4    4    0    0 -0.68311176500E-01 -0.73979954019E-01  0.89080752931E-02  0.10108939291E+00  0.51100000000E-03 0. -1.
         11    1    4    4    0    0 -0.17108010992E-01 -0.26350896730E-01 -0.58960597711E-02  0.31969961533E-01  0.51100000000E-03 0.  1.
</event>
<event>
 8    1  0.1097777E+005  0.1043930E+01  0.7957747E-01            NaN
         13   -1    0    0    0    0  0.00000000000E+00  0.00000000000E+00  0.74505805969E-08  0.10566000000E+00  0.10566000000E+00 0.  1.
     999900   -1    0    0    0    0 -0.00000000000E+00 -0.00000000000E+00 -0.74505805969E-08  0.93827000000E+00  0.93827000000E+00 0. -1.
     999902    2    1    2    0    0 -0.19851358010E-01 -0.95553632592E-02 -0.12026730362E-01  0.10188297286E+01  0.10185204918E+01 0.  0.
     999903    2    3    3    0    0  0.88036997303E-01  0.81771587350E-01  0.33706487788E-01  0.12637690834E+00  0.19947186546E-01 0.  0.
         14    1    1    2    0    0  0.19851358010E-01  0.95553632592E-02  0.12026730362E-01  0.25100271414E-01  0.00000000000E+00 0.  1.
     999901    1    3    3    0    0 -0.10788835531E+00 -0.91326950609E-01 -0.45733218150E-01  0.89245282024E+00  0.88000000000E+00 0.  1.
        -11    1    4    4    0    0  0.54732162091E-01  0.40571405499E-01  0.12288125222E-01  0.69230828782E-01  0.51100000000E-03 0.  1.
         11    1    4    4    0    0  0.33304835211E-01  0.41200181851E-01  0.21418362565E-01  0.57146079559E-01  0.51100000000E-03 0. -1.
</event>
<event>
 8    1  0.1097777E+005  0.1043930E+01  0.7957747E-01            NaN
         13   -1    0    0    0    0  0.00000000000E+00  0.00000000000E+00  0.74505805969E-08  0.10566000000E+00  0.10566000000E+00 0. -1.
     999900   -1    0    0    0    0 -0.00000000000E+00 -0.00000000000E+00 -0.74505805969E-08  0.93827000000E+00  0.93827000000E+00 0.  1.
     999902    2    1    2    0    0  0.49419750178E-02 -0.20791089213E-01 -0.10098813889E-01  0.10202936181E+01  0.10200197981E+01 0.  0.
     999903    2    3    3    0    0  0.13558139898E-01 -0.79086015747E-01  0.10045382279E+00  0.13142106129E+00  0.27241582091E-01 0.  0.
         14    1    1    2    0    0 -0.49419750178E-02  0.20791089213E-01  0.10098813889E-01  0.23636381908E-01  0.00000000000E+00 0. -1.
     999901    1    3    3    0    0 -0.86161648807E-02  0.58294926534E-01 -0.11055263667E+00  0.88887255680E+00  0.88000000000E+00 0.  1.
        -11    1    4    4    0    0 -0.78139753820E-03 -0.63082993717E-01  0.71383570584E-01  0.95267780224E-01  0.51100000000E-03 0.  1.
         11    1    4    4    0    0  0.14339537437E-01 -0.16003022029E-01  0.29070252201E-01  0.36153281068E-01  0.51100000000E-03 0. -1.
</event>
<event>
 8    1  0.1097777E+005  0.1043930E+01  0.7957747E-01            NaN
         13   -1    0    0    0    0  0.00000000000E+00  0.00000000000E+00  0.74505805969E-08  0.10566000000E+00  0.10566000000E+00 0.  1.
     999900   -1    0    0    0    0 -0.00000000000E+00 -0.00000000000E+00 -0.74505805969E-08  0.93827000000E+00  0.93827000000E+00 0.  1.
     999902    2    1    2    0    0 -0.11947000573E-01 -0.68642279836E-02 -0.18000683719E-01  0.10212612316E+01  0.10210096131E+01 0.  0.
     999903    2    3    3    0    0  0.95440975684E-01 -0.88905144431E-01 -0.90901761950E-02  0.13090046953E+00  0.62607565803E-02 0.  0.
         14    1    1    2    0    0  0.11947000573E-01  0.68642279836E-02  0.18000683719E-01  0.22668768446E-01  0.00000000000E+00 0.  1.
     999901    1    3    3    0    0 -0.10738797626E+00  0.82040916448E-01 -0.89105075236E-02  0.89036076203E+00  0.88000000000E+00 0. -1.
        -11    1    4    4    0    0  0.72074790221E-01 -0.65760158838E-01 -0.92729292797E-02  0.98007255926E-01  0.51100000000E-03 0.  1.
         11    1    4    4    0    0  0.23366185463E-01 -0.23144985593E-01  0.18275308466E-03  0.32893213599E-01  0.51100000000E-03 0. -1.
</event>
<event>
 8    1  0.1097777E+005  0.1043930E+01  0.7957747E-01            NaN
         13   -1    0    0    0    0  0.00000000000E+00  0.00000000000E+00  0.74505805969E-08  0.10566000000E+00  0.10566000000E+00 0.  1.
     999900   -1    0    0    0    0 -0.00000000000E+00 -0.00000000000E+00 -0.74505805969E-08  0.93827000000E+00  0.93827000000E+00 0. -1.
     999902    2    1    2    0    0  0.18980809771E-01  0.13745732212E-01 -0.24453933842E-02  0.10203673974E+01  0.10200953041E+01 0.  0.
     999903    2    3    3    0    0 -0.20650165036E-01 -0.62063000063E-01 -0.11007373741E+00  0.12969268768E+00  0.20632990042E-01 0.  0.
         14    1    1    2    0    0 -0.18980809771E-01 -0.13745732212E-01  0.24453933842E-02  0.23562602624E-01  0.00000000000E+00 0. -1.
     999901    1    3    3    0    0  0.39630974806E-01  0.75808732275E-01  0.10762834402E+00  0.89067470970E+00  0.88000000000E+00 0.  1.
        -11    1    4    4    0    0 -0.22138773894E-02 -0.31080218292E-01 -0.64030807744E-01  0.71211562850E-01  0.51100000000E-03 0. -1.
         11    1    4    4    0    0 -0.18436287646E-01 -0.30982781771E-01 -0.46042929664E-01  0.58481124831E-01  0.51100000000E-03 0.  1.
</event>
<event>
 8    1  0.1097777E+005  0.1043930E+01  0.7957747E-01            NaN
         13   -1    0    0    0    0  0.00000000000E+00  0.00000000000E+00  0.74505805969E-08  0.10566000000E+00  0.10566000000E+00 0.  1.
     999900   -1    0    0    0    0 -0.00000000000E+00 -0.00000000000E+00 -0.74505805969E-08  0.93827000000E+00  0.93827000000E+00 0. -1.
     999902    2    1    2    0    0 -0.23156126076E-02 -0.20531150799E-02 -0.24408822954E-01  0.10193257731E+01  0.10190287845E+01 0.  0.
     999903    2    3    3    0    0 -0.57358042571E-01  0.64085586624E-01 -0.98165825020E-01  0.13205800500E+00  0.20146464257E-01 0.  0.
         14    1    1    2    0    0  0.23156126076E-02  0.20531150799E-02  0.24408822954E-01  0.24604226898E-01  0.00000000000E+00 0.  1.
     999901    1    3    3    0    0  0.55042429963E-01 -0.66138701704E-01  0.73757002067E-01  0.88726776810E+00  0.88000000000E+00 0. -1.
        -11    1    4    4    0    0 -0.70283592688E-02  0.79558341806E-03 -0.11621876421E-01  0.13614694985E-01  0.51100000000E-03 0. -1.
         11    1    4    4    0    0 -0.50329683302E-01  0.63290003206E-01 -0.86543948599E-01  0.11844331001E+00  0.51100000000E-03 0.  1.
</event>
<event>
 8    1  0.1097777E+005  0.1043930E+01  0.7957747E-01            NaN
         13   -1    0    0    0    0  0.00000000000E+00  0.00000000000E+00  0.74505805969E-08  0.10566000000E+00  0.10566000000E+00 0.  1.
     999900   -1    0    0    0    0 -0.00000000000E+00 -0.00000000000E+00 -0.74505805969E-08  0.93827000000E+00  0.93827000000E+00 0.  1.
     999902    2    1    2    0    0 -0.10096199291E-01  0.20628433271E-01 -0.51365183906E-02  0.10203959965E+01  0.10201245710E+01 0.  0.
     999903    2    3    3    0    0  0.35400649135E-01  0.85945333117E-02 -0.12397397132E+00  0.13116199008E+00  0.22513331955E-01 0.  0.
         14    1    1    2    0    0  0.10096199291E-01 -0.20628433271E-01  0.51365183906E-02  0.23534003495E-01  0.00000000000E+00 0. -1.
     999901    1    3    3    0    0 -0.45496848426E-01  0.12033899959E-01  0.11883745293E+00  0.88923400643E+00  0.88000000000E+00 0. -1.
        -11    1    4    4    0    0  0.35041229237E-01  0.47207584573E-02 -0.86005328601E-01  0.92991133855E-01  0.51100000000E-03 0.  1.
         11    1    4    4    0    0  0.35941989788E-03  0.38737748544E-02 -0.37968642716E-01  0.38170856225E-01  0.51100000000E-03 0. -1.
</event>
<event>
 8    1  0.1097777E+005  0.1043930E+01  0.7957747E-01            NaN
         13   -1    0    0    0    0  0.00000000000E+00  0.00000000000E+00  0.74505805969E-08  0.10566000000E+00  0.10566000000E+00 0. -1.
     999900   -1    0    0    0    0 -0.00000000000E+00 -0.00000000000E+00 -0.74505805969E-08  0.93827000000E+00  0.93827000000E+00 0. -1.
     999902    2    1    2    0    0 -0.10261882877E-01 -0.60476283464E-02  0.19701762751E-01  0.10209074132E+01  0.10206477878E+01 0.  0.
     999903    2    3    3    0    0  0.46847135332E-01 -0.91713557806E-03 -0.11872458131E+00  0.12824307836E+00  0.12460566313E-01 0.  0.
         14    1    1    2    0    0  0.10261882877E-01  0.60476283464E-02 -0.19701762751E-01  0.23022586829E-01  0.00000000000E+00 0.  1.
     999901    1    3    3    0    0 -0.57109018209E-01 -0.51304927684E-02  0.13842634406E+00  0.89266433481E+00  0.88000000000E+00 0.  1.
        -11    1    4    4    0    0  0.15322462053E-01 -0.58624380043E-02 -0.35564199166E-01  0.39169112908E-01  0.51100000000E-03 0.  1.
         11    1    4    4    0    0  0.31524673279E-01  0.49453024263E-02 -0.83160382145E-01  0.89073965450E-01  0.51100000000E-03 0. -1.
</event>
<event>
 8    1  0.1097777E+005  0.1043930E+01  0.7957747E-01            NaN
         13   -1    0    0    0    0  0.00000000000E+00  0.00000000000E+00  0.74505805969E-08  0.10566000000E+00  0.10566000000E+00 0. -1.
     999900   -1    0    0    0    0 -0.00000000000E+00 -0.00000000000E+00 -0.74505805969E-08  0.93827000000E+00  0.93827000000E+00 0.  1.
     999902    2    1    2    0    0 -0.16500584904E-01  0.89172004465E-02 -0.14632466255E-01  0.10201414558E+01  0.10198640571E+01 0.  0.
     999903    2    3    3    0    0  0.79551136575E-01  0.98701650559E-01  0.19223418794E-01  0.12972952775E+00  0.19743641672E-01 0.  0.
         14    1    1    2    0    0  0.16500584904E-01 -0.89172004465E-02  0.14632466255E-01  0.23788544190E-01  0.00000000000E+00 0. -1.
     999901    1    3    3    0    0 -0.96051721479E-01 -0.89784450112E-01 -0.33855885049E-01  0.89041192806E+00  0.88000000000E+00 0. -1.
        -11    1    4    4    0    0  0.40984783840E-01  0.48780311734E-01  0.19539822675E-01  0.66643357586E-01  0.51100000000E-03 0.  1.
         11    1    4    4    0    0  0.38566352735E-01  0.49921338825E-01 -0.31640388045E-03  0.63086170162E-01  0.51100000000E-03 0. -1.
</event>
<event>
 8    1  0.1398228E+005  0.1043930E+01  0.7957747E-01            NaN
         13   -1    0    0    0    0  0.00000000000E+00  0.00000000000E+00  0.74505805969E-08  0.10566000000E+00  0.10566000000E+00 0. -1.
     999900   -1    0    0    0    0 -0.00000000000E+00 -0.00000000000E+00 -0.74505805969E-08  0.93827000000E+00  0.93827000000E+00 0.  1.
     999902    2    1    2    0    0  0.11652389266E-01 -0.13846942106E-01  0.14798007371E-01  0.10205527246E+01  0.10202849439E+01 0.  0.
     999903    2    3    3    0    0  0.30573588335E-01  0.53299666667E-04 -0.12420100514E+00  0.12933336108E+00  0.19143705686E-01 0.  0.
         14    1    1    2    0    0 -0.11652389266E-01  0.13846942106E-01 -0.14798007371E-01  0.23377275364E-01  0.00000000000E+00 0.  1.
     999901    1    3    3    0    0 -0.18921199069E-01 -0.13900241773E-01  0.13899901251E+00  0.89121936355E+00  0.88000000000E+00 0. -1.
        -11    1    4    4    0    0  0.60098813371E-02  0.31047521256E-02 -0.62249071909E-01  0.62617619198E-01  0.51100000000E-03 0.  1.
         11    1    4    4    0    0  0.24563706998E-01 -0.30514524589E-02 -0.61951933227E-01  0.66715741885E-01  0.51100000000E-03 0. -1.
</event>
<event>
 8    1  0.1097777E+005  0.1043930E+01  0.7957747E-01            NaN
         13   -1    0    0    0    0  0.00000000000E+00  0.00000000000E+00  0.74505805969E-08  0.10566000000E+00  0.10566000000E+00 0.  1.
     999900   -1    0    0    0    0 -0.00000000000E+00 -0.00000000000E+00 -0.74505805969E-08  0.93827000000E+00  0.93827000000E+00 0.  1.
     999902    2    1    2    0    0  0.22788124869E-01 -0.14864415816E-02 -0.45531862672E-02  0.10206439602E+01  0.10203782896E+01 0.  0.
     999903    2    3    3    0    0 -0.77590256501E-01  0.97015511661E-01  0.28074432141E-01  0.12887996917E+00  0.19738675414E-01 0.  0.
         14    1    1    2    0    0 -0.22788124869E-01  0.14864415816E-02  0.45531862672E-02  0.23286039783E-01  0.00000000000E+00 0. -1.
     999901    1    3    3    0    0  0.10037838137E+00 -0.98501953243E-01 -0.32627618409E-01  0.89176399104E+00  0.88000000000E+00 0.  1.
        -11    1    4    4    0    0 -0.42437933473E-01  0.47855987653E-01  0.48976829846E-02  0.64151556266E-01  0.51100000000E-03 0.  1.
         11    1    4    4    0    0 -0.35152323029E-01  0.49159524008E-01  0.23176749157E-01  0.64728412907E-01  0.51100000000E-03 0. -1.
</event>
<event>
 8    1  0.1097777E+005  0.1043930E+01  0.7957747E-01            NaN
         13   -1    0    0    0    0  0.00000000000E+00  0.00000000000E+00  0.74505805969E-08  0.10566000000E+00  0.10566000000E+00 0. -1.
     999900   -1    0    0    0    0 -0.00000000000E+00 -0.00000000000E+00 -0.74505805969E-08  0.93827000000E+00  0.93827000000E+00 0.  1.
     999902    2    1    2    0    0 -0.23529801430E-01  0.33730089073E-02 -0.73619669585E-02  0.10190457218E+01  0.10187418494E+01 0.  0.
     999903    2    3    3    0    0  0.39147972145E-02 -0.85924465864E-01  0.93257207755E-01  0.12839906721E+00  0.19775595853E-01 0.  0.
         14    1    1    2    0    0  0.23529801430E-01 -0.33730089073E-02  0.73619669585E-02  0.24884278208E-01  0.00000000000E+00 0.  1.
     999901    1    3    3    0    0 -0.27444598645E-01  0.89297474772E-01 -0.10061917471E+00  0.89064665458E+00  0.88000000000E+00 0.  1.
        -11    1    4    4    0    0 -0.33635213688E-02 -0.73536536619E-01  0.74142559739E-01  0.10448117428E+00  0.51100000000E-03 0.  1.
         11    1    4    4    0    0  0.72783185832E-02 -0.12387929245E-01  0.19114648016E-01  0.23917892929E-01  0.51100000000E-03 0. -1.
</event>
<event>
 8    1  0.1097777E+005  0.1043930E+01  0.7957747E-01            NaN
         13   -1    0    0    0    0  0.00000000000E+00  0.00000000000E+00  0.74505805969E-08  0.10566000000E+00  0.10566000000E+00 0.  1.
     999900   -1    0    0    0    0 -0.00000000000E+00 -0.00000000000E+00 -0.74505805969E-08  0.93827000000E+00  0.93827000000E+00 0. -1.
     999902    2    1    2    0    0  0.82345358925E-02  0.23028475200E-01  0.37016017805E-02  0.10191950024E+01  0.10188948095E+01 0.  0.
     999903    2    3    3    0    0 -0.30721691203E-01 -0.93042987195E-01 -0.78037513946E-01  0.12696663753E+00  0.20732913098E-01 0.  0.
         14    1    1    2    0    0 -0.82345358925E-02 -0.23028475200E-01 -0.37016017805E-02  0.24734997618E-01  0.00000000000E+00 0.  1.
     999901    1    3    3    0    0  0.38956227096E-01  0.11607146240E+00  0.81739115726E-01  0.89222836486E+00  0.88000000000E+00 0.  1.
        -11    1    4    4    0    0 -0.88105736062E-02 -0.36256408603E-01 -0.42197093264E-01  0.56329469845E-01  0.51100000000E-03 0. -1.
         11    1    4    4    0    0 -0.21911117597E-01 -0.56786578592E-01 -0.35840420682E-01  0.70637167683E-01  0.51100000000E-03 0.  1.
</event>
<event>
 8    1  0.1097777E+005  0.1043930E+01  0.7957747E-01            NaN
         13   -1    0    0    0    0  0.00000000000E+00  0.00000000000E+00  0.74505805969E-08  0.10566000000E+00  0.10566000000E+00 0. -1.
     999900   -1    0    0    0    0 -0.00000000000E+00 -0.00000000000E+00 -0.74505805969E-08  0.93827000000E+00  0.93827000000E+00 0. -1.
     999902    2    1    2    0    0  0.13555185485E-01  0.97271948941E-02 -0.22438680691E-01  0.10159683161E+01  0.10155834597E+01 0.  0.
     999903    2    3    3    0    0 -0.79536836832E-01 -0.50238792440E-01 -0.82672074499E-01  0.12698569200E+00  0.20991650554E-01 0.  0.
         14    1    1    2    0    0 -0.13555185485E-01 -0.97271948941E-02  0.22438680691E-01  0.27961683876E-01  0.00000000000E+00 0. -1.
     999901    1    3    3    0    0  0.93092022318E-01  0.59965987334E-01  0.60233393808E-01  0.88898262412E+00  0.88000000000E+00 0. -1.
        -11    1    4    4    0    0 -0.51022088606E-01 -0.43014874789E-01 -0.61355638437E-01  0.90654886619E-01  0.51100000000E-03 0. -1.
         11    1    4    4    0    0 -0.28514748226E-01 -0.72239176504E-02 -0.21316436061E-01  0.36330805386E-01  0.51100000000E-03 0.  1.
</event>
<event>
 8    1  0.1097777E+005  0.1043930E+01  0.7957747E-01            NaN
         13   -1    0    0    0    0  0.00000000000E+00  0.00000000000E+00  0.74505805969E-08  0.10566000000E+00  0.10566000000E+00 0.  1.
     999900   -1    0    0    0    0 -0.00000000000E+00 -0.00000000000E+00 -0.74505805969E-08  0.93827000000E+00  0.93827000000E+00 0.  1.
     999902    2    1    2    0    0 -0.73552894187E-02  0.56827188955E-02  0.21300923047E-01  0.10206894557E+01  0.10204248341E+01 0.  0.
     999903    2    3    3    0    0  0.57150963284E-01  0.86458230715E-01  0.80505055621E-01  0.13266306575E+00  0.19420781919E-01 0.  0.
         14    1    1    2    0    0  0.73552894187E-02 -0.56827188955E-02 -0.21300923047E-01  0.23240544295E-01  0.00000000000E+00 0. -1.
     999901    1    3    3    0    0 -0.64506252703E-01 -0.80775511820E-01 -0.59204132574E-01  0.88802638996E+00  0.88000000000E+00 0.  1.
        -11    1    4    4    0    0  0.45770176657E-01  0.53977546574E-01  0.49804309655E-01  0.86540250674E-01  0.51100000000E-03 0. -1.
         11    1    4    4    0    0  0.11380786627E-01  0.32480684141E-01  0.30700745965E-01  0.46122815074E-01  0.51100000000E-03 0.  1.
</event>
<event>
 8    1  0.1097777E+005  0.1043930E+01  0.7957747E-01            NaN
         13   -1    0    0    0    0  0.00000000000E+00  0.00000000000E+00  0.74505805969E-08  0.10566000000E+00  0.10566000000E+00 0.  1.
     999900   -1    0    0    0    0 -0.00000000000E+00 -0.00000000000E+00 -0.74505805969E-08  0.93827000000E+00  0.93827000000E+00 0. -1.
     999902    2    1    2    0    0  0.18380816633E-01  0.14286224620E-01  0.66528073213E-02  0.10197182161E+01  0.10194307381E+01 0.  0.
     999903    2    3    3    0    0  0.27514411283E-01 -0.11092077423E+00  0.57223152139E-01  0.12937133152E+00  0.20049720561E-01 0.  0.
         14    1    1    2    0    0 -0.18380816633E-01 -0.14286224620E-01 -0.66528073213E-02  0.24211783893E-01  0.00000000000E+00 0.  1.
     999901    1    3    3    0    0 -0.91335946499E-02  0.12520699885E+00 -0.50570344817E-01  0.89034688458E+00  0.88000000000E+00 0. -1.
        -11    1    4    4    0    0  0.19804010150E-01 -0.93581255090E-01  0.54782313535E-01  0.11023163393E+00  0.51100000000E-03 0.  1.
         11    1    4    4    0    0  0.77104011331E-02 -0.17339519144E-01  0.24408386038E-02  0.19139697591E-01  0.51100000000E-03 0. -1.
</event>
<event>
 8    1  0.1097777E+005  0.1043930E+01  0.7957747E-01            NaN
         13   -1    0    0    0    0  0.00000000000E+00  0.00000000000E+00  0.74505805969E-08  0.10566000000E+00  0.10566000000E+00 0. -1.
     999900   -1    0    0    0    0 -0.00000000000E+00 -0.00000000000E+00 -0.74505805969E-08  0.93827000000E+00  0.93827000000E+00 0. -1.
     999902    2    1    2    0    0  0.12754446652E-01  0.13761520736E-01  0.15370740352E-01  0.10196747939E+01  0.10193862714E+01 0.  0.
     999903    2    3    3    0    0 -0.21699789504E-01 -0.82342650385E-02  0.12794688589E+00  0.13156202096E+00  0.19986889814E-01 0.  0.
         14    1    1    2    0    0 -0.12754446652E-01 -0.13761520736E-01 -0.15370740352E-01  0.24255206066E-01  0.00000000000E+00 0. -1.
     999901    1    3    3    0    0  0.34454236156E-01  0.21995785774E-01 -0.11257614554E+00  0.88811277298E+00  0.88000000000E+00 0. -1.
        -11    1    4    4    0    0 -0.15513681904E-01 -0.10372176230E-01  0.50548339432E-01  0.53885546358E-01  0.51100000000E-03 0. -1.
         11    1    4    4    0    0 -0.61861076000E-02  0.21379111917E-02  0.77398546456E-01  0.77676474599E-01  0.51100000000E-03 0.  1.
</event>
<event>
 7    1  0.1097777E+005  0.1043930E+01  0.7957747E-01            NaN
         13   -1    0    0    0    0  0.00000000000E+00  0.00000000000E+00  0.74505805969E-08  0.10566000000E+00  0.10566000000E+00 0.  1.
     999900   -1    0    0    0    0 -0.00000000000E+00 -0.00000000000E+00 -0.74505805969E-08  0.93827000000E+00  0.93827000000E+00 0.  1.
     999903    2    1    2    0    0  0.55904833662E-01  0.66726011311E-01 -0.64744727543E-01  0.11027669235E+00  0.19782773264E-01 0.  0.
         14    1    1    2    0    0 -0.11993845774E-01 -0.15122949351E-01 -0.40432991147E-01  0.44803824687E-01  0.00000000000E+00 0. -1.
     999901    1    1    2    0    0 -0.43910987888E-01 -0.51603061960E-01  0.10517771869E+00  0.88884948297E+00  0.88000000000E+00 0. -1.
        -11    1    3    3    0    0  0.14856323184E-01  0.11611358108E-01 -0.57905434442E-02  0.19731332698E-01  0.51100000000E-03 0. -1.
         11    1    3    3    0    0  0.41048510479E-01  0.55114653203E-01 -0.58954184098E-01  0.90545359649E-01  0.51100000000E-03 0.  1.
</event>
<event>
 8    1  0.1097777E+005  0.1043930E+01  0.7957747E-01            NaN
         13   -1    0    0    0    0  0.00000000000E+00  0.00000000000E+00  0.74505805969E-08  0.10566000000E+00  0.10566000000E+00 0. -1.
     999900   -1    0    0    0    0 -0.00000000000E+00 -0.00000000000E+00 -0.74505805969E-08  0.93827000000E+00  0.93827000000E+00 0. -1.
     999902    2    1    2    0    0  0.15715094678E-01 -0.15764804647E-02 -0.16936075090E-01  0.10207722771E+01  0.10205095597E+01 0.  0.
     999903    2    3    3    0    0 -0.54627938001E-01  0.63938972231E-02 -0.11840531849E+00  0.13211729537E+00  0.20250105104E-01 0.  0.
         14    1    1    2    0    0 -0.15715094678E-01  0.15764804647E-02  0.16936075090E-01  0.23157722920E-01  0.00000000000E+00 0. -1.
     999901    1    3    3    0    0  0.70343032679E-01 -0.79703776879E-02  0.10146924340E+00  0.88865498171E+00  0.88000000000E+00 0.  1.
        -11    1    4    4    0    0 -0.35355099927E-01  0.11492936891E-01 -0.62035545485E-01  0.72323859921E-01  0.51100000000E-03 0. -1.
         11    1    4    4    0    0 -0.19272838074E-01 -0.50990396675E-02 -0.56369773004E-01  0.59793435446E-01  0.51100000000E-03 0.  1.
</event>
<event>
 8    1  0.1097777E+005  0.1043930E+01  0.7957747E-01            NaN
         13   -1    0    0    0    0  0.00000000000E+00  0.00000000000E+00  0.74505805969E-08  0.10566000000E+00  0.10566000000E+00 0.  1.
     999900   -1    0    0    0    0 -0.00000000000E+00 -0.00000000000E+00 -0.74505805969E-08  0.93827000000E+00  0.93827000000E+00 0. -1.
     999902    2    1    2    0    0 -0.13881383612E-01  0.15106331179E-01 -0.53548717139E-02  0.10227269648E+01  0.10225071519E+01 0.  0.
     999903    2    3    3    0    0 -0.97879056569E-01  0.67938102508E-01  0.59895344804E-01  0.13474926465E+00  0.19339506375E-01 0.  0.
         14    1    1    2    0    0  0.13881383612E-01 -0.15106331179E-01  0.53548717139E-02  0.21203035249E-01  0.00000000000E+00 0.  1.
     999901    1    3    3    0    0  0.83997672957E-01 -0.52831771329E-01 -0.65250216518E-01  0.88797770010E+00  0.88000000000E+00 0. -1.
        -11    1    4    4    0    0 -0.11719154382E-01  0.92328965714E-02  0.15226547342E-01  0.21323550911E-01  0.51100000000E-03 0. -1.
         11    1    4    4    0    0 -0.86159902187E-01  0.58705205937E-01  0.44668797463E-01  0.11342571374E+00  0.51100000000E-03 0.  1.
</event>
<event>
 8    1  0.1097777E+005  0.1043930E+01  0.7957747E-01            NaN
         13   -1    0    0    0    0  0.00000000000E+00  0.00000000000E+00  0.74505805969E-08  0.10566000000E+00  0.10566000000E+00 0. -1.
     999900   -1    0    0    0    0 -0.00000000000E+00 -0.00000000000E+00 -0.74505805969E-08  0.93827000000E+00  0.93827000000E+00 0.  1.
     999902    2    1    2    0    0  0.14342444975E-01  0.46074942354E-02  0.18213591020E-01  0.10202938068E+01  0.10200199913E+01 0.  0.
     999903    2    3    3    0    0  0.33689697311E-01 -0.10335039538E+00  0.72049218282E-01  0.13185275819E+00  0.19436050441E-01 0.  0.
         14    1    1    2    0    0 -0.14342444975E-01 -0.46074942354E-02 -0.18213591020E-01  0.23636193197E-01  0.00000000000E+00 0.  1.
     999901    1    3    3    0    0 -0.19347252336E-01  0.10795788961E+00 -0.53835627262E-01  0.88844104862E+00  0.88000000000E+00 0. -1.
        -11    1    4    4    0    0  0.30685595969E-01 -0.78328308467E-01  0.62883648990E-01  0.10503115794E+00  0.51100000000E-03 0.  1.
         11    1    4    4    0    0  0.30041013421E-02 -0.25022086912E-01  0.91655692916E-02  0.26821600246E-01  0.51100000000E-03 0. -1.
</event>
<event>
 8    1  0.1097777E+005  0.1043930E+01  0.7957747E-01            NaN
         13   -1    0    0    0    0  0.00000000000E+00  0.00000000000E+00  0.74505805969E-08  0.10566000000E+00  0.10566000000E+00 0. -1.
     999900   -1    0    0    0    0 -0.00000000000E+00 -0.00000000000E+00 -0.74505805969E-08  0.93827000000E+00  0.93827000000E+00 0.  1.
     999902    2    1    2    0    0  0.21855069796E-01  0.31148679886E-03  0.57629816706E-03  0.10220651145E+01  0.10218312116E+01 0.  0.
     999903    2    3    3    0    0  0.11512215555E+00 -0.48785690774E-01  0.45643207157E-01  0.13463043607E+00  0.20221217442E-01 0.  0.
         14    1    1    2    0    0 -0.21855069796E-01 -0.31148679886E-03 -0.57629816706E-03  0.21864885533E-01  0.00000000000E+00 0.  1.
     999901    1    3    3    0    0 -0.93267085754E-01  0.49097177573E-01 -0.45066908990E-01  0.88743467839E+00  0.88000000000E+00 0.  1.
        -11    1    4    4    0    0  0.20657145640E-01 -0.13894546292E-01  0.16215018019E-01  0.29714710381E-01  0.51100000000E-03 0.  1.
         11    1    4    4    0    0  0.94465009910E-01 -0.34891144483E-01  0.29428189138E-01  0.10491572569E+00  0.51100000000E-03 0. -1.
</event>
<event>
 8    1  0.1097777E+005  0.1043930E+01  0.7957747E-01            NaN
         13   -1    0    0    0    0  0.00000000000E+00  0.00000000000E+00  0.74505805969E-08  0.10566000000E+00  0.10566000000E+00 0.  1.
     999900   -1    0    0    0    0 -0.00000000000E+00 -0.00000000000E+00 -0.74505805969E-08  0.93827000000E+00  0.93827000000E+00 0. -1.
     999902    2    1    2    0    0 -0.10702107816E-02 -0.10974169198E-01  0.20694573906E-01  0.10204812659E+01  0.10202118265E+01 0.  0.
     999903    2    3    3    0    0 -0.39830218288E-01  0.21984731098E-01  0.12343711749E+00  0.13304413713E+00  0.19855622901E-01 0.  0.
         14    1    1    2    0    0  0.10702107816E-02  0.10974169198E-01 -0.20694573906E-01  0.23448734078E-01  0.00000000000E+00 0. -1.
     999901    1    3    3    0    0  0.38760007507E-01 -0.32958900296E-01 -0.10274254358E+00  0.88743712879E+00  0.88000000000E+00 0. -1.
        -11    1    4    4    0    0 -0.36131880116E-01  0.11440305123E-01  0.86248393314E-01  0.94209552659E-01  0.51100000000E-03 0.  1.
         11    1    4    4    0    0 -0.36983381726E-02  0.10544425976E-01  0.37188724177E-01  0.38834584474E-01  0.51100000000E-03 0. -1.
</event>
<event>
 8    1  0.1097777E+005  0.1043930E+01  0.7957747E-01            NaN
         13   -1    0    0    0    0  0.00000000000E+00  0.00000000000E+00  0.74505805969E-08  0.10566000000E+00  0.10566000000E+00 0. -1.
     999900   -1    0    0    0    0 -0.00000000000E+00 -0.00000000000E+00 -0.74505805969E-08  0.93827000000E+00  0.93827000000E+00 0. -1.
     999902    2    1    2    0    0  0.10572014143E-01 -0.14936449935E-01 -0.18694565602E-01  0.10177698814E+01  0.10174336243E+01 0.  0.
     999903    2    3    3    0    0 -0.12227276790E+00  0.14506613093E-01  0.19667724919E-01  0.12648637133E+00  0.21234668196E-01 0.  0.
         14    1    1    2    0    0 -0.10572014143E-01  0.14936449935E-01  0.18694565602E-01  0.26160118554E-01  0.00000000000E+00 0. -1.
     999901    1    3    3    0    0  0.13284478205E+00 -0.29443063029E-01 -0.38362290521E-01  0.89128351012E+00  0.88000000000E+00 0. -1.
        -11    1    4    4    0    0 -0.65398603154E-01  0.16711267122E-01  0.16444075691E-01  0.69475984985E-01  0.51100000000E-03 0.  1.
         11    1    4    4    0    0 -0.56874164750E-01 -0.22046540292E-02  0.32236492283E-02  0.57010386341E-01  0.51100000000E-03 0. -1.
</event>
<event>
 8    1  0.1097777E+005  0.1043930E+01  0.7957747E-01            NaN
         13   -1    0    0    0    0  0.00000000000E+00  0.00000000000E+00  0.74505805969E-08  0.10566000000E+00  0.10566000000E+00 0. -1.
     999900   -1    0    0    0    0 -0.00000000000E+00 -0.00000000000E+00 -0.74505805969E-08  0.93827000000E+00  0.93827000000E+00 0. -1.
     999902    2    1    2    0    0 -0.16525840202E-01 -0.10142928643E-01 -0.90387310277E-03  0.10245186790E+01  0.10243347716E+01 0.  0.
     999903    2    3    3    0    0  0.50380288620E-01  0.96141058366E-02  0.12145070445E+00  0.13331869409E+00  0.19824128443E-01 0.  0.
         14    1    1    2    0    0  0.16525840202E-01  0.10142928643E-01  0.90387310277E-03  0.19411320986E-01  0.00000000000E+00 0.  1.
     999901    1    3    3    0    0 -0.66906128822E-01 -0.19757034480E-01 -0.12235457756E+00  0.89119998493E+00  0.88000000000E+00 0. -1.
        -11    1    4    4    0    0  0.16445497582E-01 -0.20909674533E-02  0.58974227876E-01  0.61262118885E-01  0.51100000000E-03 0. -1.
         11    1    4    4    0    0  0.33934791038E-01  0.11705073290E-01  0.62476476576E-01  0.72056575202E-01  0.51100000000E-03 0.  1.
</event>
<event>
 8    1  0.1097777E+005  0.1043930E+01  0.7957747E-01            NaN
         13   -1    0    0    0    0  0.00000000000E+00  0.00000000000E+00  0.74505805969E-08  0.10566000000E+00  0.10566000000E+00 0. -1.
     999900   -1    0    0    0    0 -0.00000000000E+00 -0.00000000000E+00 -0.74505805969E-08  0.93827000000E+00  0.93827000000E+00 0.  1.
     999902    2    1    2    0    0 -0.63095263161E-02 -0.13120741855E-01 -0.17281399977E-01  0.10213333017E+01  0.10210832985E+01 0.  0.
     999903    2    3    3    0    0 -0.50868039674E-01  0.87415308722E-01 -0.83220605953E-01  0.13204092150E+00  0.16737444175E-01 0.  0.
         14    1    1    2    0    0  0.63095263161E-02  0.13120741855E-01  0.17281399977E-01  0.22596698306E-01  0.00000000000E+00 0. -1.
     999901    1    3    3    0    0  0.44558513358E-01 -0.10053605058E+00  0.65939205976E-01  0.88929238019E+00  0.88000000000E+00 0.  1.
        -11    1    4    4    0    0 -0.16133584377E-01  0.43760640337E-01 -0.35274777046E-01  0.58479545178E-01  0.51100000000E-03 0.  1.
         11    1    4    4    0    0 -0.34734455297E-01  0.43654668384E-01 -0.47945828907E-01  0.73561376327E-01  0.51100000000E-03 0. -1.
</event>
<event>
 8    1  0.1097777E+005  0.1043930E+01  0.7957747E-01            NaN
         13   -1    0    0    0    0  0.00000000000E+00  0.00000000000E+00  0.74505805969E-08  0.10566000000E+00  0.10566000000E+00 0.  1.
     999900   -1    0    0    0    0 -0.00000000000E+00 -0.00000000000E+00 -0.74505805969E-08  0.93827000000E+00  0.93827000000E+00 0. -1.
     999902    2    1    2    0    0 -0.14824757797E-01  0.78489867848E-02 -0.17159676171E-01  0.10199334477E+01  0.10196511184E+01 0.  0.
     999903    2    3    3    0    0 -0.10435351397E+00 -0.72304165473E-01  0.24317947147E-01  0.13079885762E+00  0.19985754394E-01 0.  0.
         14    1    1    2    0    0  0.14824757797E-01 -0.78489867848E-02  0.17159676171E-01  0.23996552327E-01  0.00000000000E+00 0.  1.
     999901    1    3    3    0    0  0.89528756169E-01  0.80153152257E-01 -0.41477623317E-01  0.88913459006E+00  0.88000000000E+00 0. -1.
        -11    1    4    4    0    0 -0.32438004071E-01 -0.20645650100E-01 -0.17489894253E-02  0.38493987338E-01  0.51100000000E-03 0.  1.
         11    1    4    4    0    0 -0.71915509895E-01 -0.51658515372E-01  0.26066936572E-01  0.92304870279E-01  0.51100000000E-03 0. -1.
</event>
<event>
 8    1  0.1097777E+005  0.1043930E+01  0.7957747E-01            NaN
         13   -1    0    0    0    0  0.00000000000E+00  0.00000000000E+00  0.74505805969E-08  0.10566000000E+00  0.10566000000E+00 0. -1.
     999900   -1    0    0    0    0 -0.00000000000E+00 -0.00000000000E+00 -0.74505805969E-08  0.93827000000E+00  0.93827000000E+00 0.  1.
     999902    2    1    2    0    0 -0.94157620179E-02  0.17281129655E-01  0.12268983756E-01  0.10207390108E+01  0.10204755295E+01 0.  0.
     999903    2    3    3    0    0  0.77894607163E-01  0.91934423300E-01 -0.48343393709E-01  0.13120538295E+00  0.18927778185E-01 0.  0.
         14    1    1    2    0    0  0.94157620179E-02 -0.17281129655E-01 -0.12268983756E-01  0.23190989176E-01  0.00000000000E+00 0.  1.
     999901    1    3    3    0    0 -0.87310369181E-01 -0.74653293645E-01  0.60612377465E-01  0.88953362788E+00  0.88000000000E+00 0. -1.
        -11    1    4    4    0    0  0.24677364252E-01  0.43444672786E-01 -0.18956702295E-01  0.53441833640E-01  0.51100000000E-03 0.  1.
         11    1    4    4    0    0  0.53217242910E-01  0.48489750514E-01 -0.29386691414E-01  0.77763549309E-01  0.51100000000E-03 0. -1.
</event>
<event>
 8    1  0.1097777E+005  0.1043930E+01  0.7957747E-01            NaN
         13   -1    0    0    0    0  0.00000000000E+00  0.00000000000E+00  0.74505805969E-08  0.10566000000E+00  0.10566000000E+00 0.  1.
     999900   -1    0    0    0    0 -0.00000000000E+00 -0.00000000000E+00 -0.74505805969E-08  0.93827000000E+00  0.93827000000E+00 0.  1.
     999902    2    1    2    0    0  0.55097622634E-02 -0.63801227530E-02  0.22220825444E-01  0.10201638785E+01  0.10198870087E+01 0.  0.
     999903    2    3    3    0    0  0.44266739200E-01  0.83557699612E-01 -0.84479176767E-01  0.12832543709E+00  0.19729499054E-01 0.  0.
         14    1    1    2    0    0 -0.55097622634E-02  0.63801227530E-02 -0.22220825444E-01  0.23766121475E-01  0.00000000000E+00 0. -1.
     999901    1    3    3    0    0 -0.38756976937E-01 -0.89937822365E-01  0.10670000221E+00  0.89183844144E+00  0.88000000000E+00 0.  1.
        -11    1    4    4    0    0  0.12634460205E-02  0.18828867189E-01 -0.16975724697E-01  0.25388164279E-01  0.51100000000E-03 0.  1.
         11    1    4    4    0    0  0.43003293180E-01  0.64728832423E-01 -0.67503452069E-01  0.10293727281E+00  0.51100000000E-03 0. -1.
</event>
<event>
 8    1  0.1097777E+005  0.1043930E+01  0.7957747E-01            NaN
         13   -1    0    0    0    0  0.00000000000E+00  0.00000000000E+00  0.74505805969E-08  0.10566000000E+00  0.10566000000E+00 0.  1.
     999900   -1    0    0    0    0 -0.00000000000E+00 -0.00000000000E+00 -0.74505805969E-08  0.93827000000E+00  0.93827000000E+00 0. -1.
     999902    2    1    2    0    0  0.15236850231E-01 -0.89036840867E-02 -0.11647407943E-01  0.10227852771E+01  0.10225666842E+01 0.  0.
     999903    2    3    3    0    0 -0.43409215838E-01  0.55052265089E-01 -0.11111857977E+00  0.13294021275E+00  0.20264488286E-01 0.  0.
         14    1    1    2    0    0 -0.15236850231E-01  0.89036840867E-02  0.11647407943E-01  0.21144722913E-01  0.00000000000E+00 0.  1.
     999901    1    3    3    0    0  0.58646066069E-01 -0.63955949175E-01  0.99471171824E-01  0.88984506434E+00  0.88000000000E+00 0.  1.
        -11    1    4    4    0    0 -0.43094359106E-01  0.45374661725E-01 -0.89096690325E-01  0.10887821206E+00  0.51100000000E-03 0. -1.
         11    1    4    4    0    0 -0.31485673226E-03  0.96776033631E-02 -0.22021889443E-01  0.24062000691E-01  0.51100000000E-03 0.  1.
</event>
<event>
 8    1  0.1097777E+005  0.1043930E+01  0.7957747E-01            NaN
         13   -1    0    0    0    0  0.00000000000E+00  0.00000000000E+00  0.74505805969E-08  0.10566000000E+00  0.10566000000E+00 0. -1.
     999900   -1    0    0    0    0 -0.00000000000E+00 -0.00000000000E+00 -0.74505805969E-08  0.93827000000E+00  0.93827000000E+00 0.  1.
     999902    2    1    2    0    0  0.14253212127E-01  0.67616181596E-04 -0.18350665317E-01  0.10206941323E+01  0.10204296185E+01 0.  0.
     999903    2    3    3    0    0  0.45148380770E-01 -0.11651187882E+00  0.33915066575E-01  0.13093180632E+00  0.19481067002E-01 0.  0.
         14    1    1    2    0    0 -0.14253212127E-01 -0.67616181596E-04  0.18350665317E-01  0.23235867650E-01  0.00000000000E+00 0.  1.
     999901    1    3    3    0    0 -0.30895168644E-01  0.11657949500E+00 -0.52265731892E-01  0.88976232603E+00  0.88000000000E+00 0.  1.
        -11    1    4    4    0    0  0.16482836656E-01 -0.60214003775E-01  0.92629836198E-02  0.63114769598E-01  0.51100000000E-03 0.  1.
         11    1    4    4    0    0  0.28665544114E-01 -0.56297875046E-01  0.24652082955E-01  0.67817036717E-01  0.51100000000E-03 0. -1.
</event>
<event>
 8    1  0.1097777E+005  0.1043930E+01  0.7957747E-01            NaN
         13   -1    0    0    0    0  0.00000000000E+00  0.00000000000E+00  0.74505805969E-08  0.10566000000E+00  0.10566000000E+00 0. -1.
     999900   -1    0    0    0    0 -0.00000000000E+00 -0.00000000000E+00 -0.74505805969E-08  0.93827000000E+00  0.93827000000E+00 0. -1.
     999902    2    1    2    0    0 -0.13107320055E-01 -0.18303833253E-01  0.86652006947E-02  0.10198070264E+01  0.10195216787E+01 0.  0.
     999903    2    3    3    0    0  0.12079579768E+00 -0.26875888933E-01 -0.29910259476E-01  0.12880108301E+00  0.19523248186E-01 0.  0.
         14    1    1    2    0    0  0.13107320055E-01  0.18303833253E-01 -0.86652006947E-02  0.24122973570E-01  0.00000000000E+00 0. -1.
     999901    1    3    3    0    0 -0.13390311774E+00  0.85720556796E-02  0.38575460171E-01  0.89100594342E+00  0.88000000000E+00 0.  1.
        -11    1    4    4    0    0  0.42687498946E-01 -0.43195530386E-02 -0.24166717698E-02  0.42976534622E-01  0.51100000000E-03 0.  1.
         11    1    4    4    0    0  0.78108298736E-01 -0.22556335894E-01 -0.27493587706E-01  0.85824548390E-01  0.51100000000E-03 0. -1.
</event>
<event>
 8    1  0.1097777E+005  0.1043930E+01  0.7957747E-01            NaN
         13   -1    0    0    0    0  0.00000000000E+00  0.00000000000E+00  0.74505805969E-08  0.10566000000E+00  0.10566000000E+00 0.  1.
     999900   -1    0    0    0    0 -0.00000000000E+00 -0.00000000000E+00 -0.74505805969E-08  0.93827000000E+00  0.93827000000E+00 0.  1.
     999902    2    1    2    0    0  0.62076800967E-02 -0.16692634523E-01 -0.28892981029E-01  0.10099891147E+01  0.10094186585E+01 0.  0.
     999903    2    3    3    0    0 -0.36095364496E-01 -0.10149314895E+00  0.52055008661E-01  0.12120722256E+00  0.19435335134E-01 0.  0.
         14    1    1    2    0    0 -0.62076800967E-02  0.16692634523E-01  0.28892981029E-01  0.33940885261E-01  0.00000000000E+00 0.  1.
     999901    1    3    3    0    0  0.42303044593E-01  0.84800514430E-01 -0.80947989690E-01  0.88878189218E+00  0.88000000000E+00 0. -1.
        -11    1    4    4    0    0 -0.28046348806E-01 -0.62600207089E-01  0.24401022003E-01  0.72808341588E-01  0.51100000000E-03 0. -1.
         11    1    4    4    0    0 -0.80490156900E-02 -0.38892941863E-01  0.27653986658E-01  0.48398880973E-01  0.51100000000E-03 0.  1.
</event>
<event>
 8    1  0.1097777E+005  0.1043930E+01  0.7957747E-01            NaN
         13   -1    0    0    0    0  0.00000000000E+00  0.00000000000E+00  0.74505805969E-08  0.10566000000E+00  0.10566000000E+00 0. -1.
     999900   -1    0    0    0    0 -0.00000000000E+00 -0.00000000000E+00 -0.74505805969E-08  0.93827000000E+00  0.93827000000E+00 0. -1.
     999902    2    1    2    0    0 -0.27620804597E-03 -0.11262970121E-01  0.20365285390E-01  0.10206560739E+01  0.10203906828E+01 0.  0.
     999903    2    3    3    0    0  0.11749647492E+00 -0.50961086798E-01  0.24755324337E-01  0.13191223130E+00  0.19635597695E-01 0.  0.
         14    1    1    2    0    0  0.27620804597E-03  0.11262970121E-01 -0.20365285390E-01  0.23273926095E-01  0.00000000000E+00 0.  1.
     999901    1    3    3    0    0 -0.11777268297E+00  0.39698116677E-01 -0.43900389471E-02  0.88874384260E+00  0.88000000000E+00 0.  1.
        -11    1    4    4    0    0  0.71107853020E-01 -0.20969643872E-01  0.17709401862E-01  0.76222941169E-01  0.51100000000E-03 0.  1.
         11    1    4    4    0    0  0.46388621905E-01 -0.29991442926E-01  0.70459224755E-02  0.55689290134E-01  0.51100000000E-03 0. -1.
</event>
<event>
 8    1  0.1097777E+005  0.1043930E+01  0.7957747E-01            NaN
         13   -1    0    0    0    0  0.00000000000E+00  0.00000000000E+00  0.74505805969E-08  0.10566000000E+00  0.10566000000E+00 0.  1.
     999900   -1    0    0    0    0 -0.00000000000E+00 -0.00000000000E+00 -0.74505805969E-08  0.93827000000E+00  0.93827000000E+00 0.  1.
     999902    2    1    2    0    0 -0.21198560276E-02 -0.19608871012E-01  0.12303483495E-01  0.10206839827E+01  0.10204192351E+01 0.  0.
     999903    2    3    3    0    0  0.91849268571E-01  0.79670333918E-01 -0.36223941862E-01  0.12880872918E+00  0.22268015323E-01 0.  0.
         14    1    1    2    0    0  0.21198560276E-02  0.19608871012E-01 -0.12303483495E-01  0.23246017251E-01  0.00000000000E+00 0. -1.
     999901    1    3    3    0    0 -0.93969124599E-01 -0.99279204930E-01  0.48527425356E-01  0.89187525356E+00  0.88000000000E+00 0. -1.
        -11    1    4    4    0    0  0.16788344437E-01  0.26040500867E-01 -0.13488222103E-01  0.33795701662E-01  0.51100000000E-03 0.  1.
         11    1    4    4    0    0  0.75060924134E-01  0.53629833050E-01 -0.22735719758E-01  0.95013027522E-01  0.51100000000E-03 0. -1.
</event>
<event>
 8    1  0.1097777E+005  0.1043930E+01  0.7957747E-01            NaN
         13   -1    0    0    0    0  0.00000000000E+00  0.00000000000E+00  0.74505805969E-08  0.10566000000E+00  0.10566000000E+00 0. -1.
     999900   -1    0    0    0    0 -0.00000000000E+00 -0.00000000000E+00 -0.74505805969E-08  0.93827000000E+00  0.93827000000E+00 0.  1.
     999902    2    1    2    0    0 -0.10525287160E-02 -0.14400058562E-01 -0.17554895689E-01  0.10212001987E+01  0.10209472082E+01 0.  0.
     999903    2    3    3    0    0 -0.96468823771E-01 -0.87135903096E-01  0.16147118880E-01  0.13241979940E+00  0.19374577583E-01 0.  0.
         14    1    1    2    0    0  0.10525287160E-02  0.14400058562E-01  0.17554895689E-01  0.22729801274E-01  0.00000000000E+00 0. -1.
     999901    1    3    3    0    0  0.95416295055E-01  0.72735844534E-01 -0.33702014569E-01  0.88878039933E+00  0.88000000000E+00 0.  1.
        -11    1    4    4    0    0 -0.58354769116E-01 -0.61251464731E-01  0.17203878955E-01  0.86332239530E-01  0.51100000000E-03 0. -1.
         11    1    4    4    0    0 -0.38114054656E-01 -0.25884438365E-01 -0.10567600750E-02  0.46087559869E-01  0.51100000000E-03 0.  1.
</event>
<event>
 8    1  0.1097777E+005  0.1043930E+01  0.7957747E-01            NaN
         13   -1    0    0    0    0  0.00000000000E+00  0.00000000000E+00  0.74505805969E-08  0.10566000000E+00  0.10566000000E+00 0.  1.
     999900   -1    0    0    0    0 -0.00000000000E+00 -0.00000000000E+00 -0.74505805969E-08  0.93827000000E+00  0.93827000000E+00 0.  1.
     999902    2    1    2    0    0 -0.19899494745E-01 -0.74240618641E-02  0.13746340229E-01  0.10186304258E+01  0.10183161964E+01 0.  0.
     999903    2    3    3    0    0  0.38379409601E-01 -0.82581352017E-01  0.91589091714E-01  0.13008974416E+00  0.15560238794E-01 0.  0.
         14    1    1    2    0    0  0.19899494745E-01  0.74240618641E-02 -0.13746340229E-01  0.25299574213E-01  0.00000000000E+00 0. -1.
     999901    1    3    3    0    0 -0.58278904346E-01  0.75157290153E-01 -0.77842751485E-01  0.88854068163E+00  0.88000000000E+00 0.  1.
        -11    1    4    4    0    0  0.84680262538E-02 -0.36277925576E-01  0.36729467807E-01  0.52317399392E-01  0.51100000000E-03 0.  1.
         11    1    4    4    0    0  0.29911383348E-01 -0.46303426441E-01  0.54859623907E-01  0.77772344764E-01  0.51100000000E-03 0. -1.
</event>
<event>
 8    1  0.1097777E+005  0.1043930E+01  0.7957747E-01            NaN
         13   -1    0    0    0    0  0.00000000000E+00  0.00000000000E+00  0.74505805969E-08  0.10566000000E+00  0.10566000000E+00 0.  1.
     999900   -1    0    0    0    0 -0.00000000000E+00 -0.00000000000E+00 -0.74505805969E-08  0.93827000000E+00  0.93827000000E+00 0. -1.
     999902    2    1    2    0    0  0.84267886724E-02 -0.19798825832E-01 -0.18253525680E-01  0.10157130641E+01  0.10153210493E+01 0.  0.
     999903    2    3    3    0    0 -0.10995749953E+00 -0.58391201374E-01 -0.14000952867E-01  0.12693733563E+00  0.20417551150E-01 0.  0.
         14    1    1    2    0    0 -0.84267886724E-02  0.19798825832E-01  0.18253525680E-01  0.28216935897E-01  0.00000000000E+00 0.  1.
     999901    1    3    3    0    0  0.11838428820E+00  0.38592375542E-01 -0.42525728126E-02  0.88877572847E+00  0.88000000000E+00 0.  1.
        -11    1    4    4    0    0 -0.45605201280E-01 -0.32944494139E-01  0.34515345834E-03  0.56263259146E-01  0.51100000000E-03 0.  1.
         11    1    4    4    0    0 -0.64352298253E-01 -0.25446707235E-01 -0.14346106325E-01  0.70674076487E-01  0.51100000000E-03 0. -1.
</event>
<event>
 8    1  0.1097777E+005  0.1043930E+01  0.7957747E-01            NaN
         13   -1    0    0    0    0  0.00000000000E+00  0.00000000000E+00  0.74505805969E-08  0.10566000000E+00  0.10566000000E+00 0. -1.
     999900   -1    0    0    0    0 -0.00000000000E+00 -0.00000000000E+00 -0.74505805969E-08  0.93827000000E+00  0.93827000000E+00 0. -1.
     999902    2    1    2    0    0 -0.70983386481E-03 -0.70096578262E-02  0.70088359906E-02  0.10339920450E+01  0.10339442859E+01 0.  0.
     999903    2    3    3    0    0  0.10322533029E+00  0.68549795148E-01 -0.65741655165E-01  0.14168919104E+00  0.19982952848E-01 0.  0.
         14    1    1    2    0    0  0.70983386481E-03  0.70096578262E-02 -0.70088359906E-02  0.99379549657E-02  0.00000000000E+00 0. -1.
     999901    1    3    3    0    0 -0.10393516416E+00 -0.75559452975E-01  0.72750491156E-01  0.89230285399E+00  0.88000000000E+00 0. -1.
        -11    1    4    4    0    0  0.73329747387E-01  0.38593796492E-01 -0.38658065017E-01  0.91440910381E-01  0.51100000000E-03 0.  1.
         11    1    4    4    0    0  0.29895582908E-01  0.29955998656E-01 -0.27083590148E-01  0.50248280659E-01  0.51100000000E-03 0. -1.
</event>
<event>
 8    1  0.1097777E+005  0.1043930E+01  0.7957747E-01            NaN
         13   -1    0    0    0    0  0.00000000000E+00  0.00000000000E+00  0.74505805969E-08  0.10566000000E+00  0.10566000000E+00 0.  1.
     999900   -1    0    0    0    0 -0.00000000000E+00 -0.00000000000E+00 -0.74505805969E-08  0.93827000000E+00  0.93827000000E+00 0.  1.
     999902    2    1    2    0    0 -0.18781326079E-01  0.86607746491E-02  0.13318898380E-01  0.10193304008E+01  0.10190335253E+01 0.  0.
     999903    2    3    3    0    0 -0.12986567265E+00  0.84472083512E-02 -0.64404129787E-02  0.13212681196E+00  0.21899024149E-01 0.  0.
         14    1    1    2    0    0  0.18781326079E-01 -0.86607746491E-02 -0.13318898380E-01  0.24599599201E-01  0.00000000000E+00 0. -1.
     999901    1    3    3    0    0  0.11108434657E+00  0.21356629792E-03  0.19759311359E-01  0.88720358884E+00  0.88000000000E+00 0. -1.
        -11    1    4    4    0    0 -0.66696912917E-01  0.77854775092E-02  0.70736230509E-02  0.67523248713E-01  0.51100000000E-03 0.  1.
         11    1    4    4    0    0 -0.63168759729E-01  0.66173084196E-03 -0.13514036030E-01  0.64603563247E-01  0.51100000000E-03 0. -1.
</event>
<event>
 8    1  0.1097777E+005  0.1043930E+01  0.7957747E-01            NaN
         13   -1    0    0    0    0  0.00000000000E+00  0.00000000000E+00  0.74505805969E-08  0.10566000000E+00  0.10566000000E+00 0. -1.
     999900   -1    0    0    0    0 -0.00000000000E+00 -0.00000000000E+00 -0.74505805969E-08  0.93827000000E+00  0.93827000000E+00 0. -1.
     999902    2    1    2    0    0 -0.15639933118E-01  0.70233659409E-03  0.18201862626E-01  0.10199214893E+01  0.10196388751E+01 0.  0.
     999903    2    3    3    0    0 -0.34515265520E-01 -0.10073443679E+00 -0.70511492868E-01  0.12946331697E+00  0.21216727018E-01 0.  0.
         14    1    1    2    0    0  0.15639933118E-01 -0.70233659409E-03 -0.18201862626E-01  0.24008510734E-01  0.00000000000E+00 0.  1.
     999901    1    3    3    0    0  0.18875332402E-01  0.10143677338E+00  0.88713355495E-01  0.89045817230E+00  0.88000000000E+00 0.  1.
        -11    1    4    4    0    0 -0.94958060951E-02 -0.52471098999E-01 -0.43170740222E-01  0.68610206936E-01  0.51100000000E-03 0.  1.
         11    1    4    4    0    0 -0.25019459424E-01 -0.48263337788E-01 -0.27340752647E-01  0.60853110032E-01  0.51100000000E-03 0. -1.
</event>
<event>
 8    1  0.1097777E+005  0.1043930E+01  0.7957747E-01            NaN
         13   -1    0    0    0    0  0.00000000000E+00  0.00000000000E+00  0.74505805969E-08  0.10566000000E+00  0.10566000000E+00 0.  1.
     999900   -1    0    0    0    0 -0.00000000000E+00 -0.00000000000E+00 -0.74505805969E-08  0.93827000000E+00  0.93827000000E+00 0. -1.
     999902    2    1    2    0    0  0.62236730739E-02 -0.10154154807E-01 -0.20071917291E-01  0.10205907020E+01  0.10203238007E+01 0.  0.
     999903    2    3    3    0    0  0.10163946090E+00  0.52841673120E-01 -0.62920471974E-01  0.13216026268E+00  0.19609355136E-01 0.  0.
         14    1    1    2    0    0 -0.62236730739E-02  0.10154154807E-01  0.20071917291E-01  0.23339297978E-01  0.00000000000E+00 0.  1.
     999901    1    3    3    0    0 -0.95415787828E-01 -0.62995827928E-01  0.42848554683E-01  0.88843043934E+00  0.88000000000E+00 0.  1.
        -11    1    4    4    0    0  0.17279085364E-01  0.52749158849E-02 -0.31295272800E-02  0.18342480492E-01  0.51100000000E-03 0. -1.
         11    1    4    4    0    0  0.84360375537E-01  0.47566757235E-01 -0.59790944694E-01  0.11381778219E+00  0.51100000000E-03 0.  1.
</event>
<event>
 8    1  0.1097777E+005  0.1043930E+01  0.7957747E-01            NaN
         13   -1    0    0    0    0  0.00000000000E+00  0.00000000000E+00  0.74505805969E-08  0.10566000000E+00  0.10566000000E+00 0.  1.
     999900   -1    0    0    0    0 -0.00000000000E+00 -0.00000000000E+00 -0.74505805969E-08  0.93827000000E+00  0.93827000000E+00 0. -1.
     999902    2    1    2    0    0 -0.17633176811E-01 -0.65736948272E-03  0.15534878159E-01  0.10204205658E+01  0.10201497133E+01 0.  0.
     999903    2    3    3    0    0 -0.65408168961E-01  0.94531954839E-01  0.63166548278E-01  0.13272003442E+00  0.20250324983E-01 0.  0.
         14    1    1    2    0    0  0.17633176811E-01  0.65736948272E-03 -0.15534878159E-01  0.23509434244E-01  0.00000000000E+00 0. -1.
     999901    1    3    3    0    0  0.47774992151E-01 -0.95189324321E-01 -0.47631670119E-01  0.88770053134E+00  0.88000000000E+00 0. -1.
        -11    1    4    4    0    0 -0.24168249779E-01  0.46109131357E-01  0.19623413236E-01  0.55637179655E-01  0.51100000000E-03 0. -1.
         11    1    4    4    0    0 -0.41239919182E-01  0.48422823481E-01  0.43543135042E-01  0.77082854763E-01  0.51100000000E-03 0.  1.
</event>
<event>
 8    1  0.1097777E+005  0.1043930E+01  0.7957747E-01            NaN
         13   -1    0    0    0    0  0.00000000000E+00  0.00000000000E+00  0.74505805969E-08  0.10566000000E+00  0.10566000000E+00 0. -1.
     999900   -1    0    0    0    0 -0.00000000000E+00 -0.00000000000E+00 -0.74505805969E-08  0.93827000000E+00  0.93827000000E+00 0. -1.
     999902    2    1    2    0    0 -0.25722249126E-01  0.58919334578E-02  0.13946903102E-02  0.10175047443E+01  0.10171615459E+01 0.  0.
     999903    2    3    3    0    0 -0.60028701877E-01  0.97813252655E-01 -0.57722362259E-01  0.13008078271E+00  0.20451442051E-01 0.  0.
         14    1    1    2    0    0  0.25722249126E-01 -0.58919334578E-02 -0.13946903102E-02  0.26425255742E-01  0.00000000000E+00 0.  1.
     999901    1    3    3    0    0  0.34306452751E-01 -0.91921319197E-01  0.59117052570E-01  0.88742396155E+00  0.88000000000E+00 0. -1.
        -11    1    4    4    0    0 -0.12677738414E-01  0.37902786429E-01 -0.23808605053E-01  0.46523725839E-01  0.51100000000E-03 0. -1.
         11    1    4    4    0    0 -0.47350963463E-01  0.59910466226E-01 -0.33913757206E-01  0.83557056872E-01  0.51100000000E-03 0.  1.
</event>
<event>
 8    1  0.1097777E+005  0.1043930E+01  0.7957747E-01            NaN
         13   -1    0    0    0    0  0.00000000000E+00  0.00000000000E+00  0.74505805969E-08  0.10566000000E+00  0.10566000000E+00 0. -1.
     999900   -1    0    0    0    0 -0.00000000000E+00 -0.00000000000E+00 -0.74505805969E-08  0.93827000000E+00  0.93827000000E+00 0. -1.
     999902    2    1    2    0    0 -0.59604966144E-02 -0.10966185962E-01 -0.19688955916E-01  0.10206182060E+01  0.10203519406E+01 0.  0.
     999903    2    3    3    0    0 -0.93560799958E-01  0.86663037418E-01  0.16473162674E-01  0.13016159435E+00  0.20163586310E-01 0.  0.
         14    1    1    2    0    0  0.59604966144E-02  0.10966185962E-01  0.19688955916E-01  0.23311794000E-01  0.00000000000E+00 0. -1.
     999901    1    3    3    0    0  0.87600303344E-01 -0.97629223379E-01 -0.36162118590E-01  0.89045661165E+00  0.88000000000E+00 0.  1.
        -11    1    4    4    0    0 -0.10611188376E-01  0.65418487010E-02 -0.38520730807E-02  0.13057284986E-01  0.51100000000E-03 0.  1.
         11    1    4    4    0    0 -0.82949611582E-01  0.80121188717E-01  0.20325235755E-01  0.11710430937E+00  0.51100000000E-03 0. -1.
</event>
<event>
 8    1  0.1097777E+005  0.1043930E+01  0.7957747E-01            NaN
         13   -1    0    0    0    0  0.00000000000E+00  0.00000000000E+00  0.74505805969E-08  0.10566000000E+00  0.10566000000E+00 0.  1.
     999900   -1    0    0    0    0 -0.00000000000E+00 -0.00000000000E+00 -0.74505805969E-08  0.93827000000E+00  0.93827000000E+00 0. -1.
     999902    2    1    2    0    0 -0.17350346247E-01  0.90776148150E-02 -0.11530325965E-01  0.10212058714E+01  0.10209530086E+01 0.  0.
     999903    2    3    3    0    0  0.44799594980E-01  0.14993343734E-01 -0.12172416441E+00  0.13213877992E+00  0.20299775645E-01 0.  0.
         14    1    1    2    0    0  0.17350346247E-01 -0.90776148150E-02  0.11530325965E-01  0.22724128641E-01  0.00000000000E+00 0.  1.
     999901    1    3    3    0    0 -0.62149941227E-01 -0.59157289188E-02  0.11019383845E+00  0.88906709144E+00  0.88000000000E+00 0. -1.
        -11    1    4    4    0    0  0.12613149013E-01  0.14419948523E-01 -0.48499884635E-01  0.52149078362E-01  0.51100000000E-03 0.  1.
         11    1    4    4    0    0  0.32186445967E-01  0.57339521110E-03 -0.73224279776E-01  0.79989701561E-01  0.51100000000E-03 0. -1.
</event>
<event>
 8    1  0.1126558E+005  0.1043930E+01  0.7957747E-01            NaN
         13   -1    0    0    0    0  0.00000000000E+00  0.00000000000E+00  0.74505805969E-08  0.10566000000E+00  0.10566000000E+00 0.  1.
     999900   -1    0    0    0    0 -0.00000000000E+00 -0.00000000000E+00 -0.74505805969E-08  0.93827000000E+00  0.93827000000E+00 0. -1.
     999902    2    1    2    0    0 -0.22953541467E-01 -0.43904052494E-02  0.12607859668E-02  0.10205263613E+01  0.10202579692E+01 0.  0.
     999903    2    3    3    0    0  0.25451477781E-02 -0.12406610886E-01 -0.12842333503E+00  0.13062051573E+00  0.20217922216E-01 0.  0.
         14    1    1    2    0    0  0.22953541467E-01  0.43904052494E-02 -0.12607859668E-02  0.23403638722E-01  0.00000000000E+00 0. -1.
     999901    1    3    3    0    0 -0.25498689246E-01  0.80162056363E-02  0.12968412099E+00  0.88990584555E+00  0.88000000000E+00 0.  1.
        -11    1    4    4    0    0 -0.87412685345E-02 -0.52499170984E-02 -0.46012687724E-01  0.47131729841E-01  0.51100000000E-03 0. -1.
         11    1    4    4    0    0  0.11286416313E-01 -0.71566937873E-02 -0.82410647303E-01  0.83488785888E-01  0.51100000000E-03 0.  1.
</event>
<event>
 8    1  0.1097777E+005  0.1043930E+01  0.7957747E-01            NaN
         13   -1    0    0    0    0  0.00000000000E+00  0.00000000000E+00  0.74505805969E-08  0.10566000000E+00  0.10566000000E+00 0.  1.
     999900   -1    0    0    0    0 -0.00000000000E+00 -0.00000000000E+00 -0.74505805969E-08  0.93827000000E+00  0.93827000000E+00 0.  1.
     999902    2    1    2    0    0 -0.37733753657E-03 -0.14978361638E-01  0.18118442719E-01  0.10204189033E+01  0.10201480121E+01 0.  0.
     999903    2    3    3    0    0 -0.10785518264E+00  0.56376891350E-01 -0.38675189489E-01  0.12920143491E+00  0.19650603094E-01 0.  0.
         14    1    1    2    0    0  0.37733753657E-03  0.14978361638E-01 -0.18118442719E-01  0.23511096689E-01  0.00000000000E+00 0. -1.
     999901    1    3    3    0    0  0.10747784510E+00 -0.71355252988E-01  0.56793632209E-01  0.89121746840E+00  0.88000000000E+00 0.  1.
        -11    1    4    4    0    0 -0.38723552703E-01  0.19967117479E-01 -0.23851481588E-01  0.49672463290E-01  0.51100000000E-03 0. -1.
         11    1    4    4    0    0 -0.69131629933E-01  0.36409773871E-01 -0.14823707901E-01  0.79528971623E-01  0.51100000000E-03 0.  1.
</event>
<event>
 8    1  0.1097777E+005  0.1043930E+01  0.7957747E-01            NaN
         13   -1    0    0    0    0  0.00000000000E+00  0.00000000000E+00  0.74505805969E-08  0.10566000000E+00  0.10566000000E+00 0.  1.
     999900   -1    0    0    0    0 -0.00000000000E+00 -0.00000000000E+00 -0.74505805969E-08  0.93827000000E+00  0.93827000000E+00 0. -1.
     999902    2    1    2    0    0  0.12372804020E-01  0.17426489136E-01 -0.73280096331E-02  0.10213364494E+01  0.10210865166E+01 0.  0.
     999903    2    3    3    0    0 -0.10270714477E+00  0.43449053480E-01  0.64716136894E-01  0.13054414617E+00  0.20421015896E-01 0.  0.
         14    1    1    2    0    0 -0.12372804020E-01 -0.17426489136E-01  0.73280096331E-02  0.22593550587E-01  0.00000000000E+00 0. -1.
     999901    1    3    3    0    0  0.11507994879E+00 -0.26022564344E-01 -0.72044146527E-01  0.89079230324E+00  0.88000000000E+00 0. -1.
        -11    1    4    4    0    0 -0.48603699788E-01  0.31337527462E-01  0.35725808240E-01  0.67977604811E-01  0.51100000000E-03 0. -1.
         11    1    4    4    0    0 -0.54103444980E-01  0.12111526019E-01  0.28990328654E-01  0.62566541359E-01  0.51100000000E-03 0.  1.
</event>
<event>
 7    1  0.1097777E+005  0.1043930E+01  0.7957747E-01            NaN
         13   -1    0    0    0    0  0.00000000000E+00  0.00000000000E+00  0.74505805969E-08  0.10566000000E+00  0.10566000000E+00 0. -1.
     999900   -1    0    0    0    0 -0.00000000000E+00 -0.00000000000E+00 -0.74505805969E-08  0.93827000000E+00  0.93827000000E+00 0. -1.
     999903    2    1    2    0    0 -0.78337219654E-01  0.74491645155E-01  0.14433876985E-01  0.11063313355E+00  0.18591079910E-01 0.  0.
         14    1    1    2    0    0  0.90373398329E-02  0.33752494454E-01 -0.26540139331E-01  0.43878051334E-01  0.00000000000E+00 0. -1.
     999901    1    1    2    0    0  0.69299879821E-01 -0.10824413961E+00  0.12106262346E-01  0.88941881512E+00  0.88000000000E+00 0.  1.
        -11    1    3    3    0    0 -0.74678497651E-01  0.73881932381E-01  0.16527993187E-01  0.10634309392E+00  0.51100000000E-03 0. -1.
         11    1    3    3    0    0 -0.36587220024E-02  0.60971277414E-03 -0.20941162014E-02  0.42900396295E-02  0.51100000000E-03 0.  1.
</event>
<event>
 8    1  0.1097777E+005  0.1043930E+01  0.7957747E-01            NaN
         13   -1    0    0    0    0  0.00000000000E+00  0.00000000000E+00  0.74505805969E-08  0.10566000000E+00  0.10566000000E+00 0. -1.
     999900   -1    0    0    0    0 -0.00000000000E+00 -0.00000000000E+00 -0.74505805969E-08  0.93827000000E+00  0.93827000000E+00 0.  1.
     999902    2    1    2    0    0 -0.70535248031E-02  0.42315116267E-02  0.16739564329E-01  0.10252787020E+01  0.10251090410E+01 0.  0.
     999903    2    3    3    0    0  0.13219805787E+00 -0.57034592508E-02 -0.56346094106E-02  0.13399293943E+00  0.20334774180E-01 0.  0.
         14    1    1    2    0    0  0.70535248031E-02 -0.42315116267E-02 -0.16739564329E-01  0.18651297991E-01  0.00000000000E+00 0.  1.
     999901    1    3    3    0    0 -0.13925158268E+00  0.99349708775E-02  0.22374173740E-01  0.89128576258E+00  0.88000000000E+00 0. -1.
        -11    1    4    4    0    0  0.34489889559E-01 -0.10397481505E-01 -0.35602937878E-03  0.36028432957E-01  0.51100000000E-03 0.  1.
         11    1    4    4    0    0  0.97708168316E-01  0.46940222543E-02 -0.52785800318E-02  0.97964506474E-01  0.51100000000E-03 0. -1.
</event>
<event>
 8    1  0.1097777E+005  0.1043930E+01  0.7957747E-01            NaN
         13   -1    0    0    0    0  0.00000000000E+00  0.00000000000E+00  0.74505805969E-08  0.10566000000E+00  0.10566000000E+00 0.  1.
     999900   -1    0    0    0    0 -0.00000000000E+00 -0.00000000000E+00 -0.74505805969E-08  0.93827000000E+00  0.93827000000E+00 0.  1.
     999902    2    1    2    0    0  0.11761147636E-01 -0.12994341376E-01  0.15390433436E-01  0.10206052719E+01  0.10203387075E+01 0.  0.
     999903    2    3    3    0    0 -0.12032286572E+00 -0.27595388789E-01  0.37339380999E-01  0.13035747856E+00  0.18966954079E-01 0.  0.
         14    1    1    2    0    0 -0.11761147636E-01  0.12994341376E-01 -0.15390433436E-01  0.23324728141E-01  0.00000000000E+00 0. -1.
     999901    1    3    3    0    0  0.13208401335E+00  0.14601047412E-01 -0.21948947563E-01  0.89024779330E+00  0.88000000000E+00 0.  1.
        -11    1    4    4    0    0 -0.60643910758E-01 -0.77725790378E-02  0.26072768468E-01  0.66469145274E-01  0.51100000000E-03 0.  1.
         11    1    4    4    0    0 -0.59678954960E-01 -0.19822809751E-01  0.11266612531E-01  0.63888333289E-01  0.51100000000E-03 0. -1.
</event>
<event>
 8    1  0.1097777E+005  0.1043930E+01  0.7957747E-01            NaN
         13   -1    0    0    0    0  0.00000000000E+00  0.00000000000E+00  0.74505805969E-08  0.10566000000E+00  0.10566000000E+00 0.  1.
     999900   -1    0    0    0    0 -0.00000000000E+00 -0.00000000000E+00 -0.74505805969E-08  0.93827000000E+00  0.93827000000E+00 0.  1.
     999902    2    1    2    0    0 -0.10133982990E-01 -0.95243715789E-03 -0.14989174451E-01  0.10258114984E+01  0.10256514760E+01 0.  0.
     999903    2    3    3    0    0 -0.71518529852E-01  0.92190709829E-01 -0.69471232181E-01  0.13709781956E+00  0.18855581055E-01 0.  0.
         14    1    1    2    0    0  0.10133982990E-01  0.95243715789E-03  0.14989174451E-01  0.18118501553E-01  0.00000000000E+00 0.  1.
     999901    1    3    3    0    0  0.61384546862E-01 -0.93143146987E-01  0.54482057730E-01  0.88871367889E+00  0.88000000000E+00 0. -1.
        -11    1    4    4    0    0 -0.60031413955E-01  0.64499368768E-01 -0.49420518766E-01  0.10102765972E+00  0.51100000000E-03 0.  1.
         11    1    4    4    0    0 -0.11487115897E-01  0.27691341061E-01 -0.20050713415E-01  0.36070159839E-01  0.51100000000E-03 0. -1.
</event>
<event>
 8    1  0.1097777E+005  0.1043930E+01  0.7957747E-01            NaN
         13   -1    0    0    0    0  0.00000000000E+00  0.00000000000E+00  0.74505805969E-08  0.10566000000E+00  0.10566000000E+00 0. -1.
     999900   -1    0    0    0    0 -0.00000000000E+00 -0.00000000000E+00 -0.74505805969E-08  0.93827000000E+00  0.93827000000E+00 0. -1.
     999902    2    1    2    0    0  0.20062277017E-01  0.55607203308E-02 -0.20010150452E-02  0.10230153967E+01  0.10228015845E+01 0.  0.
     999903    2    3    3    0    0  0.10761754047E+00 -0.72781841330E-01  0.29124657362E-01  0.13466170104E+00  0.20169199685E-01 0.  0.
         14    1    1    2    0    0 -0.20062277017E-01 -0.55607203308E-02  0.20010150452E-02  0.20914603293E-01  0.00000000000E+00 0.  1.
     999901    1    3    3    0    0 -0.87555263453E-01  0.78342561660E-01 -0.31125672407E-01  0.88835369567E+00  0.88000000000E+00 0. -1.
        -11    1    4    4    0    0  0.44241000000E-01 -0.41819358932E-01  0.11516727868E-01  0.61959833798E-01  0.51100000000E-03 0. -1.
         11    1    4    4    0    0  0.63376540469E-01 -0.30962482397E-01  0.17607929494E-01  0.72701867240E-01  0.51100000000E-03 0.  1.
</event>
<event>
 8    1  0.1097777E+005  0.1043930E+01  0.7957747E-01            NaN
         13   -1    0    0    0    0  0.00000000000E+00  0.00000000000E+00  0.74505805969E-08  0.10566000000E+00  0.10566000000E+00 0. -1.
     999900   -1    0    0    0    0 -0.00000000000E+00 -0.00000000000E+00 -0.74505805969E-08  0.93827000000E+00  0.93827000000E+00 0.  1.
     999902    2    1    2    0    0 -0.20123370915E-01 -0.76774544167E-02 -0.13086063764E-01  0.10187280471E+01  0.10184162683E+01 0.  0.
     999903    2    3    3    0    0 -0.88298785520E-01 -0.87158287592E-01  0.37251866718E-01  0.13109129866E+00  0.20099362932E-01 0.  0.
         14    1    1    2    0    0  0.20123370915E-01  0.76774544167E-02  0.13086063764E-01  0.25201952864E-01  0.00000000000E+00 0. -1.
     999901    1    3    3    0    0  0.68175414605E-01  0.79480833176E-01 -0.50337930483E-01  0.88763674848E+00  0.88000000000E+00 0. -1.
        -11    1    4    4    0    0 -0.27377427983E-01 -0.30932778901E-01  0.21974028373E-01  0.46791873412E-01  0.51100000000E-03 0.  1.
         11    1    4    4    0    0 -0.60921357536E-01 -0.56225508692E-01  0.15277838345E-01  0.84299425248E-01  0.51100000000E-03 0. -1.
</event>
<event>
 8    1  0.1097777E+005  0.1043930E+01  0.7957747E-01            NaN
         13   -1    0    0    0    0  0.00000000000E+00  0.00000000000E+00  0.74505805969E-08  0.10566000000E+00  0.10566000000E+00 0.  1.
     999900   -1    0    0    0    0 -0.00000000000E+00 -0.00000000000E+00 -0.74505805969E-08  0.93827000000E+00  0.93827000000E+00 0.  1.
     999902    2    1    2    0    0 -0.24220911225E-02  0.14331377885E-01  0.19543907487E-01  0.10195739076E+01  0.10192829508E+01 0.  0.
     999903    2    3    3    0    0  0.72110238260E-01 -0.71178248887E-01 -0.74268819592E-01  0.12734759541E+00  0.20864393497E-01 0.  0.
         14    1    1    2    0    0  0.24220911225E-02 -0.14331377885E-01 -0.19543907487E-01  0.24356092407E-01  0.00000000000E+00 0. -1.
     999901    1    3    3    0    0 -0.74532329382E-01  0.85509626771E-01  0.93812727079E-01  0.89222631219E+00  0.88000000000E+00 0. -1.
        -11    1    4    4    0    0  0.18917801005E-01 -0.72449480959E-02 -0.13703851995E-01  0.24462811537E-01  0.51100000000E-03 0.  1.
         11    1    4    4    0    0  0.53192437255E-01 -0.63933300791E-01 -0.60564967596E-01  0.10288478387E+00  0.51100000000E-03 0. -1.
</event>
<event>
 8    1  0.1097777E+005  0.1043930E+01  0.7957747E-01            NaN
         13   -1    0    0    0    0  0.00000000000E+00  0.00000000000E+00  0.74505805969E-08  0.10566000000E+00  0.10566000000E+00 0. -1.
     999900   -1    0    0    0    0 -0.00000000000E+00 -0.00000000000E+00 -0.74505805969E-08  0.93827000000E+00  0.93827000000E+00 0. -1.
     999902    2    1    2    0    0  0.15042175287E-01 -0.15504615457E-01 -0.32708443233E-02  0.10220814632E+01  0.10218479138E+01 0.  0.
     999903    2    3    3    0    0  0.11085988942E+00 -0.41117738412E-01 -0.61442325916E-01  0.13460132952E+00  0.19020383794E-01 0.  0.
         14    1    1    2    0    0 -0.15042175287E-01  0.15504615457E-01  0.32708443233E-02  0.21848536803E-01  0.00000000000E+00 0. -1.
     999901    1    3    3    0    0 -0.95817714130E-01  0.25613122955E-01  0.58171481593E-01  0.88748013368E+00  0.88000000000E+00 0.  1.
        -11    1    4    4    0    0  0.67976673603E-01 -0.27554645112E-01 -0.47982240461E-01  0.87650688201E-01  0.51100000000E-03 0.  1.
         11    1    4    4    0    0  0.42883215814E-01 -0.13563093300E-01 -0.13460085455E-01  0.46950641315E-01  0.51100000000E-03 0. -1.
</event>
<event>
 8    1  0.1097777E+005  0.1043930E+01  0.7957747E-01            NaN
         13   -1    0    0    0    0  0.00000000000E+00  0.00000000000E+00  0.74505805969E-08  0.10566000000E+00  0.10566000000E+00 0.  1.
     999900   -1    0    0    0    0 -0.00000000000E+00 -0.00000000000E+00 -0.74505805969E-08  0.93827000000E+00  0.93827000000E+00 0. -1.
     999902    2    1    2    0    0  0.18328845984E-01 -0.20611708106E-02  0.15328783723E-01  0.10199473681E+01  0.10196653702E+01 0.  0.
     999903    2    3    3    0    0  0.60362363654E-01 -0.93347624000E-01 -0.65895920720E-01  0.13051075671E+00  0.18259008688E-01 0.  0.
         14    1    1    2    0    0 -0.18328845984E-01  0.20611708106E-02 -0.15328783723E-01  0.23982631854E-01  0.00000000000E+00 0. -1.
     999901    1    3    3    0    0 -0.42033517671E-01  0.91286453190E-01  0.81224704443E-01  0.88943661143E+00  0.88000000000E+00 0.  1.
        -11    1    4    4    0    0  0.13719023069E-01 -0.28049233984E-01 -0.10291217471E-01  0.32880714699E-01  0.51100000000E-03 0. -1.
         11    1    4    4    0    0  0.46643340585E-01 -0.65298390016E-01 -0.55604703249E-01  0.97630042016E-01  0.51100000000E-03 0.  1.
</event>
<event>
 8    1  0.1097777E+005  0.1043930E+01  0.7957747E-01            NaN
         13   -1    0    0    0    0  0.00000000000E+00  0.00000000000E+00  0.74505805969E-08  0.10566000000E+00  0.10566000000E+00 0. -1.
     999900   -1    0    0    0    0 -0.00000000000E+00 -0.00000000000E+00 -0.74505805969E-08  0.93827000000E+00  0.93827000000E+00 0. -1.
     999902    2    1    2    0    0  0.30796052064E-02 -0.22986688092E-01 -0.11481438825E-01  0.10180515295E+01  0.10177225661E+01 0.  0.
     999903    2    3    3    0    0  0.40274097561E-01 -0.10788074308E+00 -0.60931102176E-01  0.13180342652E+00  0.19982151284E-01 0.  0.
         14    1    1    2    0    0 -0.30796052064E-02  0.22986688092E-01  0.11481438825E-01  0.25878470495E-01  0.00000000000E+00 0. -1.
     999901    1    3    3    0    0 -0.37194492355E-01  0.84894054983E-01  0.49449663351E-01  0.88624810298E+00  0.88000000000E+00 0.  1.
        -11    1    4    4    0    0  0.21394953791E-02 -0.18406281260E-01 -0.35465425584E-02  0.18873465909E-01  0.51100000000E-03 0. -1.
         11    1    4    4    0    0  0.38134602182E-01 -0.89474461815E-01 -0.57384559618E-01  0.11292996061E+00  0.51100000000E-03 0.  1.
</event>
<event>
 8    1  0.1097777E+005  0.1043930E+01  0.7957747E-01            NaN
         13   -1    0    0    0    0  0.00000000000E+00  0.00000000000E+00  0.74505805969E-08  0.10566000000E+00  0.10566000000E+00 0. -1.
     999900   -1    0    0    0    0 -0.00000000000E+00 -0.00000000000E+00 -0.74505805969E-08  0.93827000000E+00  0.93827000000E+00 0.  1.
     999902    2    1    2    0    0 -0.12366224590E-01  0.18866052377E-01 -0.76057654339E-02  0.10201245571E+01  0.10198467595E+01 0.  0.
     999903    2    3    3    0    0 -0.11462056565E+00  0.15417832240E-01 -0.61768894420E-01  0.13254273834E+00  0.19406121403E-01 0.  0.
         14    1    1    2    0    0  0.12366224590E-01 -0.18866052377E-01  0.76057654339E-02  0.23805442880E-01  0.00000000000E+00 0.  1.
     999901    1    3    3    0    0  0.10225434106E+00  0.34482201372E-02  0.54163128986E-01  0.88758181878E+00  0.88000000000E+00 0. -1.
        -11    1    4    4    0    0 -0.39477830134E-01 -0.78615753487E-03 -0.28921393062E-01  0.48947167572E-01  0.51100000000E-03 0. -1.
         11    1    4    4    0    0 -0.75142735516E-01  0.16203989775E-01 -0.32847501359E-01  0.83595570767E-01  0.51100000000E-03 0.  1.
</event>
<event>
 8    1  0.1097777E+005  0.1043930E+01  0.7957747E-01            NaN
         13   -1    0    0    0    0  0.00000000000E+00  0.00000000000E+00  0.74505805969E-08  0.10566000000E+00  0.10566000000E+00 0. -1.
     999900   -1    0    0    0    0 -0.00000000000E+00 -0.00000000000E+00 -0.74505805969E-08  0.93827000000E+00  0.93827000000E+00 0. -1.
     999902    2    1    2    0    0 -0.15879851621E-01  0.16801890822E-01  0.23967160373E-02  0.10206874212E+01  0.10204227527E+01 0.  0.
     999903    2    3    3    0    0 -0.98727759054E-01 -0.19994798567E-01 -0.82850699496E-01  0.13193273400E+00  0.19875751974E-01 0.  0.
         14    1    1    2    0    0  0.15879851621E-01 -0.16801890822E-01 -0.23967160373E-02  0.23242578826E-01  0.00000000000E+00 0.  1.
     999901    1    3    3    0    0  0.82847907433E-01  0.36796689390E-01  0.85247415533E-01  0.88875468717E+00  0.88000000000E+00 0.  1.
        -11    1    4    4    0    0 -0.20501741598E-01 -0.12604722043E-01 -0.18175437200E-01  0.30163024795E-01  0.51100000000E-03 0.  1.
         11    1    4    4    0    0 -0.78226017456E-01 -0.73900765247E-02 -0.64675262296E-01  0.10176970921E+00  0.51100000000E-03 0. -1.
</event>
<event>
 8    1  0.1097777E+005  0.1043930E+01  0.7957747E-01            NaN
         13   -1    0    0    0    0  0.00000000000E+00  0.00000000000E+00  0.74505805969E-08  0.10566000000E+00  0.10566000000E+00 0.  1.
     999900   -1    0    0    0    0 -0.00000000000E+00 -0.00000000000E+00 -0.74505805969E-08  0.93827000000E+00  0.93827000000E+00 0.  1.
     999902    2    1    2    0    0 -0.18972397822E-01 -0.11826071434E-01  0.42932660924E-03  0.10215694954E+01  0.10213247484E+01 0.  0.
     999903    2    3    3    0    0 -0.61369397024E-01 -0.55195230949E-01 -0.10287702246E+00  0.13345317909E+00  0.20331080859E-01 0.  0.
         14    1    1    2    0    0  0.18972397822E-01  0.11826071434E-01 -0.42932660924E-03  0.22360504601E-01  0.00000000000E+00 0. -1.
     999901    1    3    3    0    0  0.42396999202E-01  0.43369159515E-01  0.10330634907E+00  0.88811631631E+00  0.88000000000E+00 0. -1.
        -11    1    4    4    0    0 -0.38658257751E-01 -0.27037300461E-01 -0.44993628045E-01  0.65193283352E-01  0.51100000000E-03 0. -1.
         11    1    4    4    0    0 -0.22711139273E-01 -0.28157930487E-01 -0.57883394412E-01  0.68259895737E-01  0.51100000000E-03 0.  1.
</event>
<event>
 8    1  0.1097777E+005  0.1043930E+01  0.7957747E-01            NaN
         13   -1    0    0    0    0  0.00000000000E+00  0.00000000000E+00  0.74505805969E-08  0.10566000000E+00  0.10566000000E+00 0.  1.
     999900   -1    0    0    0    0 -0.00000000000E+00 -0.00000000000E+00 -0.74505805969E-08  0.93827000000E+00  0.93827000000E+00 0. -1.
     999902    2    1    2    0    0 -0.17566653356E-04 -0.19885490182E-01 -0.12607077121E-01  0.10203849066E+01  0.10201132223E+01 0.  0.
     999903    2    3    3    0    0 -0.77669870208E-01  0.80215321367E-01 -0.62063648188E-01  0.12993782502E+00  0.23766266528E-01 0.  0.
         14    1    1    2    0    0  0.17566653356E-04  0.19885490182E-01  0.12607077121E-01  0.23545093372E-01  0.00000000000E+00 0.  1.
     999901    1    3    3    0    0  0.77652303554E-01 -0.10010081155E+00  0.49456571067E-01  0.89044708161E+00  0.88000000000E+00 0. -1.
        -11    1    4    4    0    0 -0.29863302768E-01  0.33295568248E-01 -0.38220897108E-01  0.58834597083E-01  0.51100000000E-03 0. -1.
         11    1    4    4    0    0 -0.47806567440E-01  0.46919753120E-01 -0.23842751080E-01  0.71103227938E-01  0.51100000000E-03 0.  1.
</event>
<event>
 8    1  0.1097777E+005  0.1043930E+01  0.7957747E-01            NaN
         13   -1    0    0    0    0  0.00000000000E+00  0.00000000000E+00  0.74505805969E-08  0.10566000000E+00  0.10566000000E+00 0.  1.
     999900   -1    0    0    0    0 -0.00000000000E+00 -0.00000000000E+00 -0.74505805969E-08  0.93827000000E+00  0.93827000000E+00 0.  1.
     999902    2    1    2    0    0  0.13538775500E-01  0.18277673908E-01  0.58922455674E-02  0.10204333968E+01  0.10201628433E+01 0.  0.
     999903    2    3    3    0    0  0.93753946398E-01  0.45025658645E-01  0.80864203386E-01  0.13320697539E+00  0.19696865291E-01 0.  0.
         14    1    1    2    0    0 -0.13538775500E-01 -0.18277673908E-01 -0.58922455674E-02  0.23496603231E-01  0.00000000000E+00 0.  1.
     999901    1    3    3    0    0 -0.80215170898E-01 -0.26747984737E-01 -0.74971957819E-01  0.88722642138E+00  0.88000000000E+00 0.  1.
        -11    1    4    4    0    0  0.33483310653E-01  0.26653610840E-01  0.30835757744E-01  0.52750849659E-01  0.51100000000E-03 0.  1.
         11    1    4    4    0    0  0.60270635745E-01  0.18372047805E-01  0.50028445642E-01  0.80456125734E-01  0.51100000000E-03 0. -1.
</event>
<event>
 8    1  0.1097777E+005  0.1043930E+01  0.7957747E-01            NaN
         13   -1    0    0    0    0  0.00000000000E+00  0.00000000000E+00  0.74505805969E-08  0.10566000000E+00  0.10566000000E+00 0. -1.
     999900   -1    0    0    0    0 -0.00000000000E+00 -0.00000000000E+00 -0.74505805969E-08  0.93827000000E+00  0.93827000000E+00 0. -1.
     999902    2    1    2    0    0  0.15415197474E-01 -0.15722208868E-01 -0.10313979857E-01  0.10196155116E+01  0.10193255600E+01 0.  0.
     999903    2    3    3    0    0  0.40210867241E-01  0.10790818803E+00  0.53299800590E-01  0.12835459957E+00  0.19311747746E-01 0.  0.
         14    1    1    2    0    0 -0.15415197474E-01  0.15722208868E-01  0.10313979857E-01  0.24314488384E-01  0.00000000000E+00 0. -1.
     999901    1    3    3    0    0 -0.24795669766E-01 -0.12363039689E+00 -0.63613780447E-01  0.89126091204E+00  0.88000000000E+00 0.  1.
        -11    1    4    4    0    0  0.36272305349E-01  0.81548956377E-01  0.34289161976E-01  0.95613389081E-01  0.51100000000E-03 0.  1.
         11    1    4    4    0    0  0.39385618915E-02  0.26359231650E-01  0.19010638614E-01  0.32741210491E-01  0.51100000000E-03 0. -1.
</event>
<event>
 8    1  0.1097777E+005  0.1043930E+01  0.7957747E-01            NaN
         13   -1    0    0    0    0  0.00000000000E+00  0.00000000000E+00  0.74505805969E-08  0.10566000000E+00  0.10566000000E+00 0.  1.
     999900   -1    0    0    0    0 -0.00000000000E+00 -0.00000000000E+00 -0.74505805969E-08  0.93827000000E+00  0.93827000000E+00 0. -1.
     999902    2    1    2    0    0  0.60157131837E-02 -0.66799691189E-02  0.20512488149E-01  0.10215341753E+01  0.10212886460E+01 0.  0.
     999903    2    3    3    0    0 -0.22355266751E-01  0.10908084589E+00  0.68672241117E-01  0.13219462229E+00  0.19004014596E-01 0.  0.
         14    1    1    2    0    0 -0.60157131837E-02  0.66799691189E-02 -0.20512488149E-01  0.22395824669E-01  0.00000000000E+00 0. -1.
     999901    1    3    3    0    0  0.28370979935E-01 -0.11576081501E+00 -0.48159752968E-01  0.88933955304E+00  0.88000000000E+00 0. -1.
        -11    1    4    4    0    0 -0.23155316312E-01  0.10570332281E+00  0.62150405179E-01  0.12478900237E+00  0.51100000000E-03 0.  1.
         11    1    4    4    0    0  0.80004956103E-03  0.33775230805E-02  0.65218359384E-02  0.74056199245E-02  0.51100000000E-03 0. -1.
</event>
<event>
 8    1  0.1097777E+005  0.1043930E+01  0.7957747E-01            NaN
         13   -1    0    0    0    0  0.00000000000E+00  0.00000000000E+00  0.74505805969E-08  0.10566000000E+00  0.10566000000E+00 0.  1.
     999900   -1    0    0    0    0 -0.00000000000E+00 -0.00000000000E+00 -0.74505805969E-08  0.93827000000E+00  0.93827000000E+00 0. -1.
     999902    2    1    2    0    0 -0.50225451731E-02 -0.23323208762E-01 -0.41354667411E-02  0.10197163652E+01  0.10194288427E+01 0.  0.
     999903    2    3    3    0    0 -0.86871134702E-01 -0.94765781162E-01  0.25473208393E-01  0.13254112520E+00  0.19776708508E-01 0.  0.
         14    1    1    2    0    0  0.50225451731E-02  0.23323208762E-01  0.41354667411E-02  0.24213634839E-01  0.00000000000E+00 0.  1.
     999901    1    3    3    0    0  0.81848589529E-01  0.71442572401E-01 -0.29608675134E-01  0.88717523996E+00  0.88000000000E+00 0.  1.
        -11    1    4    4    0    0 -0.46672457650E-01 -0.36420561386E-01  0.12506746881E-01  0.60509961439E-01  0.51100000000E-03 0.  1.
         11    1    4    4    0    0 -0.40198677051E-01 -0.58345219777E-01  0.12966461512E-01  0.72031163760E-01  0.51100000000E-03 0. -1.
</event>
<event>
 8    1  0.1097777E+005  0.1043930E+01  0.7957747E-01            NaN
         13   -1    0    0    0    0  0.00000000000E+00  0.00000000000E+00  0.74505805969E-08  0.10566000000E+00  0.10566000000E+00 0.  1.
     999900   -1    0    0    0    0 -0.00000000000E+00 -0.00000000000E+00 -0.74505805969E-08  0.93827000000E+00  0.93827000000E+00 0.  1.
     999902    2    1    2    0    0 -0.11027868240E-01 -0.92371514988E-04  0.19683184995E-01  0.10213678595E+01  0.10211186289E+01 0.  0.
     999903    2    3    3    0    0  0.87678676422E-01  0.78223647975E-01 -0.50845860266E-01  0.12959954485E+00  0.20105997049E-01 0.  0.
         14    1    1    2    0    0  0.11027868240E-01  0.92371514988E-04 -0.19683184995E-01  0.22562140456E-01  0.00000000000E+00 0. -1.
     999901    1    3    3    0    0 -0.98706544662E-01 -0.78316019490E-01  0.70529045261E-01  0.89176831469E+00  0.88000000000E+00 0. -1.
        -11    1    4    4    0    0  0.73206597904E-01  0.56559038692E-01 -0.33958412879E-01  0.98547276780E-01  0.51100000000E-03 0.  1.
         11    1    4    4    0    0  0.14472078518E-01  0.21664609283E-01 -0.16887447387E-01  0.31052268069E-01  0.51100000000E-03 0. -1.
</event>
<event>
 8    1  0.1097777E+005  0.1043930E+01  0.7957747E-01            NaN
         13   -1    0    0    0    0  0.00000000000E+00  0.00000000000E+00  0.74505805969E-08  0.10566000000E+00  0.10566000000E+00 0. -1.
     999900   -1    0    0    0    0 -0.00000000000E+00 -0.00000000000E+00 -0.74505805969E-08  0.93827000000E+00  0.93827000000E+00 0. -1.
     999902    2    1    2    0    0 -0.48555923950E-02  0.31906986641E-02  0.23624023737E-01  0.10196019949E+01  0.10193117169E+01 0.  0.
     999903    2    3    3    0    0 -0.15341136749E-01 -0.11255295050E+00 -0.56303093757E-01  0.12836976753E+00  0.20130616128E-01 0.  0.
         14    1    1    2    0    0  0.48555923950E-02 -0.31906986641E-02 -0.23624023737E-01  0.24328005117E-01  0.00000000000E+00 0.  1.
     999901    1    3    3    0    0  0.10485544354E-01  0.11574364916E+00  0.79927117494E-01  0.89123222735E+00  0.88000000000E+00 0.  1.
        -11    1    4    4    0    0 -0.23791795834E-05 -0.31184365294E-01 -0.24531836462E-01  0.39680433033E-01  0.51100000000E-03 0.  1.
         11    1    4    4    0    0 -0.15338757570E-01 -0.81368585206E-01 -0.31771257294E-01  0.88689334496E-01  0.51100000000E-03 0. -1.
</event>
<event>
 8    1  0.1097777E+005  0.1043930E+01  0.7957747E-01            NaN
         13   -1    0    0    0    0  0.00000000000E+00  0.00000000000E+00  0.74505805969E-08  0.10566000000E+00  0.10566000000E+00 0. -1.
     999900   -1    0    0    0    0 -0.00000000000E+00 -0.00000000000E+00 -0.74505805969E-08  0.93827000000E+00  0.93827000000E+00 0. -1.
     999902    2    1    2    0    0  0.11292172204E-01  0.12787005175E-01  0.16354481255E-01  0.10202976131E+01  0.10200238868E+01 0.  0.
     999903    2    3    3    0    0  0.10147334887E+00 -0.36566286837E-01  0.74393318376E-01  0.13241423185E+00  0.19110968373E-01 0.  0.
         14    1    1    2    0    0 -0.11292172204E-01 -0.12787005175E-01 -0.16354481255E-01  0.23632386920E-01  0.00000000000E+00 0.  1.
     999901    1    3    3    0    0 -0.90181176667E-01  0.49353292012E-01 -0.58038837121E-01  0.88788338123E+00  0.88000000000E+00 0. -1.
        -11    1    4    4    0    0  0.45623590515E-01 -0.22197548617E-01  0.25399630308E-01  0.56741920278E-01  0.51100000000E-03 0. -1.
         11    1    4    4    0    0  0.55849758356E-01 -0.14368738220E-01  0.48993688068E-01  0.75672311567E-01  0.51100000000E-03 0.  1.
</event>
<event>
 8    1  0.1097777E+005  0.1043930E+01  0.7957747E-01            NaN
         13   -1    0    0    0    0  0.00000000000E+00  0.00000000000E+00  0.74505805969E-08  0.10566000000E+00  0.10566000000E+00 0.  1.
     999900   -1    0    0    0    0 -0.00000000000E+00 -0.00000000000E+00 -0.74505805969E-08  0.93827000000E+00  0.93827000000E+00 0. -1.
     999902    2    1    2    0    0 -0.41866612388E-02 -0.12765936782E-01  0.19763437650E-01  0.10200324951E+01  0.10197525191E+01 0.  0.
     999903    2    3    3    0    0  0.69571313888E-01 -0.10244748074E+00 -0.36270008790E-01  0.13063788898E+00  0.20373769210E-01 0.  0.
         14    1    1    2    0    0  0.41866612388E-02  0.12765936782E-01 -0.19763437650E-01  0.23897504932E-01  0.00000000000E+00 0. -1.
     999901    1    3    3    0    0 -0.73757975127E-01  0.89681543962E-01  0.56033446440E-01  0.88939460609E+00  0.88000000000E+00 0. -1.
        -11    1    4    4    0    0  0.33996735290E-01 -0.34395031209E-01 -0.93136155082E-02  0.49252418591E-01  0.51100000000E-03 0.  1.
         11    1    4    4    0    0  0.35574578598E-01 -0.68052449536E-01 -0.26956393282E-01  0.81385470386E-01  0.51100000000E-03 0. -1.
</event>
<event>
 8    1  0.1097777E+005  0.1043930E+01  0.7957747E-01            NaN
         13   -1    0    0    0    0  0.00000000000E+00  0.00000000000E+00  0.74505805969E-08  0.10566000000E+00  0.10566000000E+00 0.  1.
     999900   -1    0    0    0    0 -0.00000000000E+00 -0.00000000000E+00 -0.74505805969E-08  0.93827000000E+00  0.93827000000E+00 0. -1.
     999902    2    1    2    0    0 -0.16736106817E-01  0.12009494523E-01  0.10547003284E-01  0.10207877333E+01  0.10205253705E+01 0.  0.
     999903    2    3    3    0    0 -0.42047653083E-01  0.98845499085E-02  0.12437805185E+00  0.13309257313E+00  0.19442833714E-01 0.  0.
         14    1    1    2    0    0  0.16736106817E-01 -0.12009494523E-01 -0.10547003284E-01  0.23142266707E-01  0.00000000000E+00 0.  1.
     999901    1    3    3    0    0  0.25311546266E-01  0.21249446142E-02 -0.11383104857E+00  0.88769516017E+00  0.88000000000E+00 0. -1.
        -11    1    4    4    0    0 -0.13670638479E-02 -0.27964617028E-02  0.21617083515E-01  0.21846017539E-01  0.51100000000E-03 0.  1.
         11    1    4    4    0    0 -0.40680589235E-01  0.12681011611E-01  0.10276096833E+00  0.11124655559E+00  0.51100000000E-03 0. -1.
</event>
<event>
 8    1  0.1097777E+005  0.1043930E+01  0.7957747E-01            NaN
         13   -1    0    0    0    0  0.00000000000E+00  0.00000000000E+00  0.74505805969E-08  0.10566000000E+00  0.10566000000E+00 0.  1.
     999900   -1    0    0    0    0 -0.00000000000E+00 -0.00000000000E+00 -0.74505805969E-08  0.93827000000E+00  0.93827000000E+00 0.  1.
     999902    2    1    2    0    0  0.12538301174E-01  0.17971632533E-01  0.10909035092E-01  0.10194515274E+01  0.10191576037E+01 0.  0.
     999903    2    3    3    0    0 -0.31323745811E-01  0.10638894808E+00  0.68799260641E-01  0.13204362852E+00  0.20059816588E-01 0.  0.
         14    1    1    2    0    0 -0.12538301174E-01 -0.17971632533E-01 -0.10909035092E-01  0.24478472560E-01  0.00000000000E+00 0. -1.
     999901    1    3    3    0    0  0.43862046986E-01 -0.88417315550E-01 -0.57890225549E-01  0.88740789892E+00  0.88000000000E+00 0.  1.
        -11    1    4    4    0    0 -0.23556860508E-01  0.92010972722E-01  0.65470483494E-01  0.11535852854E+00  0.51100000000E-03 0.  1.
         11    1    4    4    0    0 -0.77668853030E-02  0.14377975362E-01  0.33287771472E-02  0.16685099973E-01  0.51100000000E-03 0. -1.
</event>
<event>
 8    1  0.1097777E+005  0.1043930E+01  0.7957747E-01            NaN
         13   -1    0    0    0    0  0.00000000000E+00  0.00000000000E+00  0.74505805969E-08  0.10566000000E+00  0.10566000000E+00 0. -1.
     999900   -1    0    0    0    0 -0.00000000000E+00 -0.00000000000E+00 -0.74505805969E-08  0.93827000000E+00  0.93827000000E+00 0. -1.
     999902    2    1    2    0    0  0.15193286076E-01  0.15569010307E-01 -0.10463802819E-02  0.10221509978E+01  0.10219189486E+01 0.  0.
     999903    2    3    3    0    0  0.12126576166E+00 -0.43323864160E-01  0.28379947523E-01  0.13333962892E+00  0.19791236980E-01 0.  0.
         14    1    1    2    0    0 -0.15193286076E-01 -0.15569010307E-01  0.10463802819E-02  0.21779002168E-01  0.00000000000E+00 0.  1.
     999901    1    3    3    0    0 -0.10607247559E+00  0.58892874466E-01 -0.29426327805E-01  0.88881136891E+00  0.88000000000E+00 0. -1.
        -11    1    4    4    0    0  0.18237474324E-01 -0.13004244498E-01  0.62727933420E-03  0.22413621863E-01  0.51100000000E-03 0. -1.
         11    1    4    4    0    0  0.10302828734E+00 -0.30319619662E-01  0.27752668189E-01  0.11092600706E+00  0.51100000000E-03 0.  1.
</event>
<event>
 8    1  0.1097777E+005  0.1043930E+01  0.7957747E-01            NaN
         13   -1    0    0    0    0  0.00000000000E+00  0.00000000000E+00  0.74505805969E-08  0.10566000000E+00  0.10566000000E+00 0.  1.
     999900   -1    0    0    0    0 -0.00000000000E+00 -0.00000000000E+00 -0.74505805969E-08  0.93827000000E+00  0.93827000000E+00 0.  1.
     999902    2    1    2    0    0 -0.48568146578E-02 -0.21412809823E-01 -0.83800408233E-02  0.10204284648E+01  0.10201577964E+01 0.  0.
     999903    2    3    3    0    0 -0.48327020181E-02  0.46574746212E-01  0.11838212282E+00  0.12874973650E+00  0.19225130742E-01 0.  0.
         14    1    1    2    0    0  0.48568146578E-02  0.21412809823E-01  0.83800408233E-02  0.23501535212E-01  0.00000000000E+00 0. -1.
     999901    1    3    3    0    0 -0.24112639689E-04 -0.67987556035E-01 -0.12676216364E+00  0.89167872829E+00  0.88000000000E+00 0.  1.
        -11    1    4    4    0    0  0.49035601671E-02  0.28964114040E-01  0.82941365096E-01  0.87991453957E-01  0.51100000000E-03 0.  1.
         11    1    4    4    0    0 -0.97362621852E-02  0.17610632172E-01  0.35440757719E-01  0.40758282540E-01  0.51100000000E-03 0. -1.
</event>
<event>
 8    1  0.1202781E+005  0.1043930E+01  0.7957747E-01            NaN
         13   -1    0    0    0    0  0.00000000000E+00  0.00000000000E+00  0.74505805969E-08  0.10566000000E+00  0.10566000000E+00 0. -1.
     999900   -1    0    0    0    0 -0.00000000000E+00 -0.00000000000E+00 -0.74505805969E-08  0.93827000000E+00  0.93827000000E+00 0.  1.
     999902    2    1    2    0    0  0.18068067700E-01 -0.13435100844E-01  0.94128442992E-02  0.10195259298E+01  0.10192338117E+01 0.  0.
     999903    2    3    3    0    0 -0.35725916185E-01 -0.10201153580E+00  0.71429725065E-01  0.13127727596E+00  0.21185443957E-01 0.  0.
         14    1    1    2    0    0 -0.18068067700E-01  0.13435100844E-01 -0.94128442992E-02  0.24404070211E-01  0.00000000000E+00 0. -1.
     999901    1    3    3    0    0  0.53793983884E-01  0.88576434961E-01 -0.62016880765E-01  0.88824865383E+00  0.88000000000E+00 0.  1.
        -11    1    4    4    0    0 -0.34119681167E-01 -0.67927904754E-01  0.49513285320E-01  0.90720336371E-01  0.51100000000E-03 0. -1.
         11    1    4    4    0    0 -0.16062350181E-02 -0.34083631051E-01  0.21916439745E-01  0.40556939587E-01  0.51100000000E-03 0.  1.
</event>
<event>
 8    1  0.1097777E+005  0.1043930E+01  0.7957747E-01            NaN
         13   -1    0    0    0    0  0.00000000000E+00  0.00000000000E+00  0.74505805969E-08  0.10566000000E+00  0.10566000000E+00 0.  1.
     999900   -1    0    0    0    0 -0.00000000000E+00 -0.00000000000E+00 -0.74505805969E-08  0.93827000000E+00  0.93827000000E+00 0. -1.
     999902    2    1    2    0    0  0.83489074372E-02 -0.17503280239E-01 -0.14941123575E-01  0.10194492678E+01  0.10191552892E+01 0.  0.
     999903    2    3    3    0    0  0.51309502275E-01 -0.66949008657E-03 -0.11939332899E+00  0.13207152840E+00  0.23558615538E-01 0.  0.
         14    1    1    2    0    0 -0.83489074372E-02  0.17503280239E-01  0.14941123575E-01  0.24480732182E-01  0.00000000000E+00 0.  1.
     999901    1    3    3    0    0 -0.42960594838E-01 -0.16833790152E-01  0.10445220541E+00  0.88737773942E+00  0.88000000000E+00 0.  1.
        -11    1    4    4    0    0  0.31620798325E-01  0.82643632742E-02 -0.53246714172E-01  0.62479182758E-01  0.51100000000E-03 0. -1.
         11    1    4    4    0    0  0.19688703950E-01 -0.89338533608E-02 -0.66146614817E-01  0.69592345641E-01  0.51100000000E-03 0.  1.
</event>
<event>
 8    1  0.1097777E+005  0.1043930E+01  0.7957747E-01            NaN
         13   -1    0    0    0    0  0.00000000000E+00  0.00000000000E+00  0.74505805969E-08  0.10566000000E+00  0.10566000000E+00 0.  1.
     999900   -1    0    0    0    0 -0.00000000000E+00 -0.00000000000E+00 -0.74505805969E-08  0.93827000000E+00  0.93827000000E+00 0. -1.
     999902    2    1    2    0    0 -0.21576762886E-01  0.79988632810E-02  0.27866455027E-02  0.10207501833E+01  0.10204869586E+01 0.  0.
     999903    2    3    3    0    0 -0.10372226008E+00 -0.45165322217E-01 -0.66483669650E-01  0.13262142578E+00  0.19239300348E-01 0.  0.
         14    1    1    2    0    0  0.21576762886E-01 -0.79988632810E-02 -0.27866455027E-02  0.23179816729E-01  0.00000000000E+00 0.  1.
     999901    1    3    3    0    0  0.82145497192E-01  0.53164185498E-01  0.69270315153E-01  0.88812875750E+00  0.88000000000E+00 0.  1.
        -11    1    4    4    0    0 -0.41987547926E-01 -0.10051062273E-01 -0.31518073881E-01  0.53456787556E-01  0.51100000000E-03 0. -1.
         11    1    4    4    0    0 -0.61734712153E-01 -0.35114259943E-01 -0.34965595769E-01  0.79164638219E-01  0.51100000000E-03 0.  1.
</event>
<event>
 8    1  0.1097777E+005  0.1043930E+01  0.7957747E-01            NaN
         13   -1    0    0    0    0  0.00000000000E+00  0.00000000000E+00  0.74505805969E-08  0.10566000000E+00  0.10566000000E+00 0. -1.
     999900   -1    0    0    0    0 -0.00000000000E+00 -0.00000000000E+00 -0.74505805969E-08  0.93827000000E+00  0.93827000000E+00 0. -1.
     999902    2    1    2    0    0 -0.10655208318E-01  0.77626932621E-02 -0.20133128925E-01  0.10198647605E+01  0.10195807933E+01 0.  0.
     999903    2    3    3    0    0  0.69150561071E-01 -0.99920455943E-01  0.35131245457E-01  0.12800223046E+00  0.19607880618E-01 0.  0.
         14    1    1    2    0    0  0.10655208318E-01 -0.77626932621E-02  0.20133128925E-01  0.24065239482E-01  0.00000000000E+00 0. -1.
     999901    1    3    3    0    0 -0.79805769389E-01  0.10768314921E+00 -0.55264374383E-01  0.89186253006E+00  0.88000000000E+00 0. -1.
        -11    1    4    4    0    0  0.19964304856E-01 -0.40790361656E-01  0.62559103488E-02  0.45845660729E-01  0.51100000000E-03 0. -1.
         11    1    4    4    0    0  0.49186256215E-01 -0.59130094288E-01  0.28875335108E-01  0.82156569728E-01  0.51100000000E-03 0.  1.
</event>
<event>
 8    1  0.1097777E+005  0.1043930E+01  0.7957747E-01            NaN
         13   -1    0    0    0    0  0.00000000000E+00  0.00000000000E+00  0.74505805969E-08  0.10566000000E+00  0.10566000000E+00 0. -1.
     999900   -1    0    0    0    0 -0.00000000000E+00 -0.00000000000E+00 -0.74505805969E-08  0.93827000000E+00  0.93827000000E+00 0. -1.
     999902    2    1    2    0    0 -0.25923249454E-01  0.25803682871E-02 -0.16700587294E-02  0.10178251679E+01  0.10174903489E+01 0.  0.
     999903    2    3    3    0    0 -0.11253292499E-01  0.12530942208E+00  0.19234167719E-01  0.12894125255E+00  0.20659272662E-01 0.  0.
         14    1    1    2    0    0  0.25923249454E-01 -0.25803682871E-02  0.16700587294E-02  0.26104832099E-01  0.00000000000E+00 0. -1.
     999901    1    3    3    0    0 -0.14669956954E-01 -0.12272905380E+00 -0.20904226448E-01  0.88888391535E+00  0.88000000000E+00 0. -1.
        -11    1    4    4    0    0  0.81173243002E-03  0.60087419559E-01  0.81402780437E-03  0.60100587860E-01  0.51100000000E-03 0. -1.
         11    1    4    4    0    0 -0.12065024929E-01  0.65222002524E-01  0.18420139914E-01  0.68840664692E-01  0.51100000000E-03 0.  1.
</event>
<event>
 8    1  0.1097777E+005  0.1043930E+01  0.7957747E-01            NaN
         13   -1    0    0    0    0  0.00000000000E+00  0.00000000000E+00  0.74505805969E-08  0.10566000000E+00  0.10566000000E+00 0.  1.
     999900   -1    0    0    0    0 -0.00000000000E+00 -0.00000000000E+00 -0.74505805969E-08  0.93827000000E+00  0.93827000000E+00 0.  1.
     999902    2    1    2    0    0 -0.14332966101E-01 -0.15667634724E-02 -0.18450481263E-01  0.10205140028E+01  0.10202453239E+01 0.  0.
     999903    2    3    3    0    0 -0.84708834860E-02  0.69802653447E-01  0.10623916478E+00  0.12884395986E+00  0.19231213294E-01 0.  0.
         14    1    1    2    0    0  0.14332966101E-01  0.15667634724E-02  0.18450481263E-01  0.23415997178E-01  0.00000000000E+00 0.  1.
     999901    1    3    3    0    0 -0.58620826148E-02 -0.71369416920E-01 -0.12468964604E+00  0.89167004296E+00  0.88000000000E+00 0.  1.
        -11    1    4    4    0    0  0.29227005415E-03  0.39884865636E-01  0.45069621441E-01  0.60186541904E-01  0.51100000000E-03 0.  1.
         11    1    4    4    0    0 -0.87631535401E-02  0.29917787812E-01  0.61169543336E-01  0.68657417957E-01  0.51100000000E-03 0. -1.
</event>
<event>
 8    1  0.1097777E+005  0.1043930E+01  0.7957747E-01            NaN
         13   -1    0    0    0    0  0.00000000000E+00  0.00000000000E+00  0.74505805969E-08  0.10566000000E+00  0.10566000000E+00 0. -1.
     999900   -1    0    0    0    0 -0.00000000000E+00 -0.00000000000E+00 -0.74505805969E-08  0.93827000000E+00  0.93827000000E+00 0.  1.
     999902    2    1    2    0    0  0.22268216328E-01  0.55411809927E-02  0.23926914539E-02  0.10208583048E+01  0.10205975580E+01 0.  0.
     999903    2    3    3    0    0 -0.17210343956E-01 -0.56631859351E-01 -0.11412613115E+00  0.13012788564E+00  0.20127825959E-01 0.  0.
         14    1    1    2    0    0 -0.22268216328E-01 -0.55411809927E-02 -0.23926914539E-02  0.23071695162E-01  0.00000000000E+00 0.  1.
     999901    1    3    3    0    0  0.39478560284E-01  0.62173040344E-01  0.11651882260E+00  0.89073041920E+00  0.88000000000E+00 0. -1.
        -11    1    4    4    0    0 -0.97772119431E-04 -0.14528613923E-01 -0.45911530016E-01  0.48158279572E-01  0.51100000000E-03 0.  1.
         11    1    4    4    0    0 -0.17112571836E-01 -0.42103245429E-01 -0.68214601130E-01  0.81969606067E-01  0.51100000000E-03 0. -1.
</event>
<event>
 8    1  0.1097777E+005  0.1043930E+01  0.7957747E-01            NaN
         13   -1    0    0    0    0  0.00000000000E+00  0.00000000000E+00  0.74505805969E-08  0.10566000000E+00  0.10566000000E+00 0.  1.
     999900   -1    0    0    0    0 -0.00000000000E+00 -0.00000000000E+00 -0.74505805969E-08  0.93827000000E+00  0.93827000000E+00 0.  1.
     999902    2    1    2    0    0 -0.17756906243E-01  0.16115051717E-01  0.78992200914E-02  0.10186832123E+01  0.10183703092E+01 0.  0.
     999903    2    3    3    0    0  0.48474839162E-01 -0.57633260024E-01  0.10176304337E+00  0.12815759509E+00  0.19931118673E-01 0.  0.
         14    1    1    2    0    0  0.17756906243E-01 -0.16115051717E-01 -0.78992200914E-02  0.25246787701E-01  0.00000000000E+00 0.  1.
     999901    1    3    3    0    0 -0.66231745405E-01  0.73748311741E-01 -0.93863823275E-01  0.89052561721E+00  0.88000000000E+00 0.  1.
        -11    1    4    4    0    0  0.13168977211E-01 -0.10487634754E-01  0.11567174628E-01  0.20432158315E-01  0.51100000000E-03 0.  1.
         11    1    4    4    0    0  0.35305861951E-01 -0.47145625270E-01  0.90195868738E-01  0.10772543678E+00  0.51100000000E-03 0. -1.
</event>
<event>
 8    1  0.1097777E+005  0.1043930E+01  0.7957747E-01            NaN
         13   -1    0    0    0    0  0.00000000000E+00  0.00000000000E+00  0.74505805969E-08  0.10566000000E+00  0.10566000000E+00 0.  1.
     999900   -1    0    0    0    0 -0.00000000000E+00 -0.00000000000E+00 -0.74505805969E-08  0.93827000000E+00  0.93827000000E+00 0. -1.
     999902    2    1    2    0    0  0.13411565865E-01  0.17778564308E-01 -0.71688846823E-02  0.10205346937E+01  0.10202664950E+01 0.  0.
     999903    2    3    3    0    0  0.12281581911E-01  0.97150161009E-02  0.12794185083E+00  0.13018576858E+00  0.18275621887E-01 0.  0.
         14    1    1    2    0    0 -0.13411565865E-01 -0.17778564308E-01  0.71688846823E-02  0.23395306268E-01  0.00000000000E+00 0.  1.
     999901    1    3    3    0    0  0.11299839540E-02  0.80635482067E-02 -0.13511073551E+00  0.89034892515E+00  0.88000000000E+00 0. -1.
        -11    1    4    4    0    0  0.88062985117E-02 -0.40710277547E-02  0.45528483979E-01  0.46553497558E-01  0.51100000000E-03 0. -1.
         11    1    4    4    0    0  0.34752833991E-02  0.13786043856E-01  0.82413366847E-01  0.83632271020E-01  0.51100000000E-03 0.  1.
</event>
<event>
 8    1  0.1097777E+005  0.1043930E+01  0.7957747E-01            NaN
         13   -1    0    0    0    0  0.00000000000E+00  0.00000000000E+00  0.74505805969E-08  0.10566000000E+00  0.10566000000E+00 0. -1.
     999900   -1    0    0    0    0 -0.00000000000E+00 -0.00000000000E+00 -0.74505805969E-08  0.93827000000E+00  0.93827000000E+00 0. -1.
     999902    2    1    2    0    0  0.20689310971E-01 -0.11961396319E-02 -0.12748963715E-01  0.10195986537E+01  0.10193082949E+01 0.  0.
     999903    2    3    3    0    0 -0.77932374616E-01  0.97835820047E-01  0.18383895663E-01  0.12802542570E+00  0.20180171135E-01 0.  0.
         14    1    1    2    0    0 -0.20689310971E-01  0.11961396319E-02  0.12748963715E-01  0.24331346331E-01  0.00000000000E+00 0. -1.
     999901    1    3    3    0    0  0.98621685588E-01 -0.99031959679E-01 -0.31132859377E-01  0.89157322797E+00  0.88000000000E+00 0.  1.
        -11    1    4    4    0    0 -0.38888455552E-02  0.11351903013E-01  0.62213117179E-02  0.13526073423E-01  0.51100000000E-03 0.  1.
         11    1    4    4    0    0 -0.74043529061E-01  0.86483917034E-01  0.12162583945E-01  0.11449935227E+00  0.51100000000E-03 0. -1.
</event>
<event>
 8    1  0.1097777E+005  0.1043930E+01  0.7957747E-01            NaN
         13   -1    0    0    0    0  0.00000000000E+00  0.00000000000E+00  0.74505805969E-08  0.10566000000E+00  0.10566000000E+00 0. -1.
     999900   -1    0    0    0    0 -0.00000000000E+00 -0.00000000000E+00 -0.74505805969E-08  0.93827000000E+00  0.93827000000E+00 0.  1.
     999902    2    1    2    0    0  0.34568137065E-03 -0.20922803376E-01 -0.88544290132E-02  0.10212081139E+01  0.10209553015E+01 0.  0.
     999903    2    3    3    0    0 -0.24141845648E-01  0.10726508226E+00  0.63663102303E-01  0.12863287033E+00  0.20119596240E-01 0.  0.
         14    1    1    2    0    0 -0.34568137065E-03  0.20922803376E-01  0.88544290132E-02  0.22721886143E-01  0.00000000000E+00 0. -1.
     999901    1    3    3    0    0  0.24487527019E-01 -0.12818788563E+00 -0.72517531316E-01  0.89257524352E+00  0.88000000000E+00 0. -1.
        -11    1    4    4    0    0 -0.54593511920E-02  0.68613263345E-01  0.38422457865E-01  0.78829758414E-01  0.51100000000E-03 0. -1.
         11    1    4    4    0    0 -0.18682494456E-01  0.38651818911E-01  0.25240644439E-01  0.49803111920E-01  0.51100000000E-03 0.  1.
</event>
<event>
 8    1  0.1097777E+005  0.1043930E+01  0.7957747E-01            NaN
         13   -1    0    0    0    0  0.00000000000E+00  0.00000000000E+00  0.74505805969E-08  0.10566000000E+00  0.10566000000E+00 0.  1.
     999900   -1    0    0    0    0 -0.00000000000E+00 -0.00000000000E+00 -0.74505805969E-08  0.93827000000E+00  0.93827000000E+00 0. -1.
     999902    2    1    2    0    0  0.16550238982E-01  0.17702014414E-01  0.13235377522E-01  0.10163175582E+01  0.10159423862E+01 0.  0.
     999903    2    3    3    0    0  0.10905628444E+00  0.67878161982E-01  0.52460755086E-03  0.12995613196E+00  0.19687635005E-01 0.  0.
         14    1    1    2    0    0 -0.16550238982E-01 -0.17702014414E-01 -0.13235377522E-01  0.27612441812E-01  0.00000000000E+00 0.  1.
     999901    1    3    3    0    0 -0.92506045454E-01 -0.50176147568E-01  0.12710769971E-01  0.88636142623E+00  0.88000000000E+00 0.  1.
        -11    1    4    4    0    0  0.48381628763E-01  0.25461792827E-01 -0.86582107898E-02  0.55356215828E-01  0.51100000000E-03 0. -1.
         11    1    4    4    0    0  0.60674655673E-01  0.42416369155E-01  0.91828183407E-02  0.74599916132E-01  0.51100000000E-03 0.  1.
</event>
<event>
 8    1  0.1097777E+005  0.1043930E+01  0.7957747E-01            NaN
         13   -1    0    0    0    0  0.00000000000E+00  0.00000000000E+00  0.74505805969E-08  0.10566000000E+00  0.10566000000E+00 0. -1.
     999900   -1    0    0    0    0 -0.00000000000E+00 -0.00000000000E+00 -0.74505805969E-08  0.93827000000E+00  0.93827000000E+00 0.  1.
     999902    2    1    2    0    0 -0.44978009591E-02  0.19308762357E-01 -0.12993692765E-01  0.10202256846E+01  0.10199502698E+01 0.  0.
     999903    2    3    3    0    0  0.65290525139E-01  0.11223872320E+00  0.13552974373E-01  0.13218789620E+00  0.20726146016E-01 0.  0.
         14    1    1    2    0    0  0.44978009591E-02 -0.19308762357E-01  0.12993692765E-01  0.23704315407E-01  0.00000000000E+00 0. -1.
     999901    1    3    3    0    0 -0.69788326099E-01 -0.92929960841E-01 -0.26546667138E-01  0.88803778840E+00  0.88000000000E+00 0. -1.
        -11    1    4    4    0    0  0.45382253214E-01  0.76641441569E-01 -0.41763395179E-03  0.89072414426E-01  0.51100000000E-03 0.  1.
         11    1    4    4    0    0  0.19908271926E-01  0.35597281630E-01  0.13970608325E-01  0.43115481772E-01  0.51100000000E-03 0. -1.
</event>
<event>
 8    1  0.1097777E+005  0.1043930E+01  0.7957747E-01            NaN
         13   -1    0    0    0    0  0.00000000000E+00  0.00000000000E+00  0.74505805969E-08  0.10566000000E+00  0.10566000000E+00 0. -1.
     999900   -1    0    0    0    0 -0.00000000000E+00 -0.00000000000E+00 -0.74505805969E-08  0.93827000000E+00  0.93827000000E+00 0. -1.
     999902    2    1    2    0    0  0.30586645947E-02 -0.22152656292E-01  0.74527582860E-02  0.10203579993E+01  0.10200856864E+01 0.  0.
     999903    2    3    3    0    0 -0.47530380172E-01  0.11712792551E+00  0.28073442142E-02  0.12795679370E+00  0.19671601342E-01 0.  0.
         14    1    1    2    0    0 -0.30586645947E-02  0.22152656292E-01 -0.74527582860E-02  0.23572000678E-01  0.00000000000E+00 0.  1.
     999901    1    3    3    0    0  0.50589044767E-01 -0.13928058180E+00  0.46454140718E-02  0.89240120562E+00  0.88000000000E+00 0.  1.
        -11    1    4    4    0    0 -0.37596111674E-01  0.70525571520E-01  0.63426643521E-02  0.80173651303E-01  0.51100000000E-03 0. -1.
         11    1    4    4    0    0 -0.99342684983E-02  0.46602353991E-01 -0.35353201379E-02  0.47783142399E-01  0.51100000000E-03 0.  1.
</event>
<event>
 8    1  0.1097777E+005  0.1043930E+01  0.7957747E-01            NaN
         13   -1    0    0    0    0  0.00000000000E+00  0.00000000000E+00  0.74505805969E-08  0.10566000000E+00  0.10566000000E+00 0.  1.
     999900   -1    0    0    0    0 -0.00000000000E+00 -0.00000000000E+00 -0.74505805969E-08  0.93827000000E+00  0.93827000000E+00 0.  1.
     999902    2    1    2    0    0  0.12099623753E-02  0.23606216332E-01  0.49681247812E-02  0.10197763311E+01  0.10194902480E+01 0.  0.
     999903    2    3    3    0    0 -0.71412859427E-01 -0.10379165424E+00  0.25405717100E-02  0.12763834585E+00  0.20312283114E-01 0.  0.
         14    1    1    2    0    0 -0.12099623753E-02 -0.23606216332E-01 -0.49681247812E-02  0.24153668920E-01  0.00000000000E+00 0. -1.
     999901    1    3    3    0    0  0.72622821802E-01  0.12739787057E+00  0.24275530712E-02  0.89213798523E+00  0.88000000000E+00 0. -1.
        -11    1    4    4    0    0 -0.42533179249E-01 -0.53566665081E-01  0.10336993699E-01  0.69177839694E-01  0.51100000000E-03 0.  1.
         11    1    4    4    0    0 -0.28879680177E-01 -0.50224989161E-01 -0.77964219895E-02  0.58460506158E-01  0.51100000000E-03 0. -1.
</event>
<event>
 8    1  0.1097777E+005  0.1043930E+01  0.7957747E-01            NaN
         13   -1    0    0    0    0  0.00000000000E+00  0.00000000000E+00  0.74505805969E-08  0.10566000000E+00  0.10566000000E+00 0.  1.
     999900   -1    0    0    0    0 -0.00000000000E+00 -0.00000000000E+00 -0.74505805969E-08  0.93827000000E+00  0.93827000000E+00 0.  1.
     999902    2    1    2    0    0  0.12959323034E-01  0.19602608060E-01 -0.28785697167E-02  0.10202552780E+01  0.10199805586E+01 0.  0.
     999903    2    3    3    0    0  0.50397197871E-01  0.38538393974E-01  0.11361698102E+00  0.13158696432E+00  0.19524995261E-01 0.  0.
         14    1    1    2    0    0 -0.12959323034E-01 -0.19602608060E-01  0.28785697167E-02  0.23674721960E-01  0.00000000000E+00 0.  1.
     999901    1    3    3    0    0 -0.37437874837E-01 -0.18935785913E-01 -0.11649555074E+00  0.88866831372E+00  0.88000000000E+00 0.  1.
        -11    1    4    4    0    0  0.15954393799E-01  0.18734969085E-02  0.27458278669E-01  0.31816204372E-01  0.51100000000E-03 0. -1.
         11    1    4    4    0    0  0.34442804072E-01  0.36664897065E-01  0.86158702354E-01  0.99770759952E-01  0.51100000000E-03 0.  1.
</event>
<event>
 8    1  0.1097777E+005  0.1043930E+01  0.7957747E-01            NaN
         13   -1    0    0    0    0  0.00000000000E+00  0.00000000000E+00  0.74505805969E-08  0.10566000000E+00  0.10566000000E+00 0.  1.
     999900   -1    0    0    0    0 -0.00000000000E+00 -0.00000000000E+00 -0.74505805969E-08  0.93827000000E+00  0.93827000000E+00 0. -1.
     999902    2    1    2    0    0 -0.16532431675E-01 -0.70361310619E-02 -0.14976728433E-01  0.10205391721E+01  0.10202710771E+01 0.  0.
     999903    2    3    3    0    0 -0.63698449014E-01  0.10239366975E+00 -0.49413292045E-01  0.13184046529E+00  0.19956924708E-01 0.  0.
         14    1    1    2    0    0  0.16532431675E-01  0.70361310619E-02  0.14976728433E-01  0.23390827945E-01  0.00000000000E+00 0. -1.
     999901    1    3    3    0    0  0.47166017338E-01 -0.10942980082E+00  0.34436563612E-01  0.88869870677E+00  0.88000000000E+00 0.  1.
        -11    1    4    4    0    0 -0.23529655910E-01  0.45408511825E-01 -0.11289349212E-01  0.52376408621E-01  0.51100000000E-03 0. -1.
         11    1    4    4    0    0 -0.40168793104E-01  0.56985157928E-01 -0.38123942833E-01  0.79464056665E-01  0.51100000000E-03 0.  1.
</event>
<event>
 8    1  0.1097777E+005  0.1043930E+01  0.7957747E-01            NaN
         13   -1    0    0    0    0  0.00000000000E+00  0.00000000000E+00  0.74505805969E-08  0.10566000000E+00  0.10566000000E+00 0. -1.
     999900   -1    0    0    0    0 -0.00000000000E+00 -0.00000000000E+00 -0.74505805969E-08  0.93827000000E+00  0.93827000000E+00 0.  1.
     999902    2    1    2    0    0 -0.21073439836E-01 -0.50602089964E-02 -0.78021936571E-02  0.10208958990E+01  0.10206360110E+01 0.  0.
     999903    2    3    3    0    0  0.80168490280E-01  0.86543934444E-02 -0.10003537876E+00  0.13019674715E+00  0.21029279712E-01 0.  0.
         14    1    1    2    0    0  0.21073439836E-01  0.50602089964E-02  0.78021936571E-02  0.23034100969E-01  0.00000000000E+00 0.  1.
     999901    1    3    3    0    0 -0.10124193012E+00 -0.13714602441E-01  0.92233185098E-01  0.89069915188E+00  0.88000000000E+00 0. -1.
        -11    1    4    4    0    0  0.75025268114E-02  0.63693442169E-03 -0.18284070473E-02  0.77651649914E-02  0.51100000000E-03 0.  1.
         11    1    4    4    0    0  0.72665963468E-01  0.80174590227E-02 -0.98206971708E-01  0.12243158216E+00  0.51100000000E-03 0. -1.
</event>
<event>
 7    1  0.1097777E+005  0.1043930E+01  0.7957747E-01            NaN
         13   -1    0    0    0    0  0.00000000000E+00  0.00000000000E+00  0.74505805969E-08  0.10566000000E+00  0.10566000000E+00 0. -1.
     999900   -1    0    0    0    0 -0.00000000000E+00 -0.00000000000E+00 -0.74505805969E-08  0.93827000000E+00  0.93827000000E+00 0. -1.
     999903    2    1    2    0    0 -0.21678631695E-01  0.22286102345E-01  0.56689904724E-01  0.67817321830E-01  0.20464857991E-01 0.  0.
         14    1    1    2    0    0 -0.59527705205E-01  0.15800453174E-01  0.57444605484E-01  0.84220453019E-01  0.00000000000E+00 0. -1.
     999901    1    1    2    0    0  0.81206336901E-01 -0.38086555519E-01 -0.11413451021E+00  0.89189222515E+00  0.88000000000E+00 0. -1.
        -11    1    3    3    0    0 -0.11791197016E-01  0.11145652975E-01  0.47758527541E-01  0.50442006117E-01  0.51100000000E-03 0. -1.
         11    1    3    3    0    0 -0.98874346791E-02  0.11140449370E-01  0.89313771839E-02  0.17375315712E-01  0.51100000000E-03 0.  1.
</event>
<event>
 8    1  0.1097777E+005  0.1043930E+01  0.7957747E-01            NaN
         13   -1    0    0    0    0  0.00000000000E+00  0.00000000000E+00  0.74505805969E-08  0.10566000000E+00  0.10566000000E+00 0. -1.
     999900   -1    0    0    0    0 -0.00000000000E+00 -0.00000000000E+00 -0.74505805969E-08  0.93827000000E+00  0.93827000000E+00 0.  1.
     999902    2    1    2    0    0 -0.21916473038E-01  0.83361614672E-02 -0.62445001416E-02  0.10196644450E+01  0.10193756732E+01 0.  0.
     999903    2    3    3    0    0 -0.52455829828E-02  0.21927022151E-01 -0.12757517901E+00  0.13107918531E+00  0.19950340380E-01 0.  0.
         14    1    1    2    0    0  0.21916473038E-01 -0.83361614672E-02  0.62445001416E-02  0.24265555021E-01  0.00000000000E+00 0.  1.
     999901    1    3    3    0    0 -0.16670890055E-01 -0.13590860684E-01  0.12133067887E+00  0.88858525967E+00  0.88000000000E+00 0. -1.
        -11    1    4    4    0    0 -0.12767772694E-01  0.15529422674E-01 -0.80190203797E-01  0.82673507814E-01  0.51100000000E-03 0. -1.
         11    1    4    4    0    0  0.75221897117E-02  0.63975994770E-02 -0.47384975210E-01  0.48405677495E-01  0.51100000000E-03 0.  1.
</event>
<event>
 8    1  0.1097777E+005  0.1043930E+01  0.7957747E-01            NaN
         13   -1    0    0    0    0  0.00000000000E+00  0.00000000000E+00  0.74505805969E-08  0.10566000000E+00  0.10566000000E+00 0.  1.
     999900   -1    0    0    0    0 -0.00000000000E+00 -0.00000000000E+00 -0.74505805969E-08  0.93827000000E+00  0.93827000000E+00 0.  1.
     999902    2    1    2    0    0  0.18977639634E-01  0.41802235488E-02 -0.13901593345E-01  0.10200369179E+01  0.10197570468E+01 0.  0.
     999903    2    3    3    0    0 -0.82241929632E-01  0.75359024682E-01  0.62591620715E-01  0.12809351457E+00  0.68934679998E-02 0.  0.
         14    1    1    2    0    0 -0.18977639634E-01 -0.41802235488E-02  0.13901593345E-01  0.23893082105E-01  0.00000000000E+00 0. -1.
     999901    1    3    3    0    0  0.10121956927E+00 -0.71178801133E-01 -0.76493214060E-01  0.89194340332E+00  0.88000000000E+00 0.  1.
        -11    1    4    4    0    0 -0.76702649478E-01  0.67824747935E-01  0.57650667363E-01  0.11750469539E+00  0.51100000000E-03 0. -1.
         11    1    4    4    0    0 -0.55392801541E-02  0.75342767469E-02  0.49409533519E-02  0.10588819186E-01  0.51100000000E-03 0.  1.
</event>
<event>
 8    1  0.1097777E+005  0.1043930E+01  0.7957747E-01            NaN
         13   -1    0    0    0    0  0.00000000000E+00  0.00000000000E+00  0.74505805969E-08  0.10566000000E+00  0.10566000000E+00 0. -1.
     999900   -1    0    0    0    0 -0.00000000000E+00 -0.00000000000E+00 -0.74505805969E-08  0.93827000000E+00  0.93827000000E+00 0. -1.
     999902    2    1    2    0    0 -0.57181592542E-02 -0.58535539630E-03  0.12444396398E-01  0.10302222289E+01  0.10301310295E+01 0.  0.
     999903    2    3    3    0    0 -0.11979751787E+00  0.14652767792E-01 -0.66647388550E-01  0.13921055060E+00  0.19275738816E-01 0.  0.
         14    1    1    2    0    0  0.57181592542E-02  0.58535539630E-03 -0.12444396398E-01  0.13707771078E-01  0.00000000000E+00 0.  1.
     999901    1    3    3    0    0  0.11407935861E+00 -0.15238123189E-01  0.79091784949E-01  0.89101167832E+00  0.88000000000E+00 0. -1.
        -11    1    4    4    0    0 -0.67925990828E-01  0.14735313740E-01 -0.46150494578E-01  0.83433799936E-01  0.51100000000E-03 0.  1.
         11    1    4    4    0    0 -0.51871527038E-01 -0.82545947875E-04 -0.20496893972E-01  0.55776750664E-01  0.51100000000E-03 0. -1.
</event>
<event>
 8    1  0.1097777E+005  0.1043930E+01  0.7957747E-01            NaN
         13   -1    0    0    0    0  0.00000000000E+00  0.00000000000E+00  0.74505805969E-08  0.10566000000E+00  0.10566000000E+00 0. -1.
     999900   -1    0    0    0    0 -0.00000000000E+00 -0.00000000000E+00 -0.74505805969E-08  0.93827000000E+00  0.93827000000E+00 0. -1.
     999902    2    1    2    0    0  0.19485068977E-02  0.76235500758E-02  0.22463689543E-01  0.10201280559E+01  0.10198503409E+01 0.  0.
     999903    2    3    3    0    0 -0.96404964899E-01  0.80154107921E-01  0.34660678188E-01  0.13159957928E+00  0.19962173747E-01 0.  0.
         14    1    1    2    0    0 -0.19485068977E-02 -0.76235500758E-02 -0.22463689543E-01  0.23801944097E-01  0.00000000000E+00 0.  1.
     999901    1    3    3    0    0  0.98353471797E-01 -0.72530557846E-01 -0.12196988645E-01  0.88852847662E+00  0.88000000000E+00 0.  1.
        -11    1    4    4    0    0 -0.92721628245E-01  0.70840080981E-01  0.29683046262E-01  0.12040332958E+00  0.51100000000E-03 0.  1.
         11    1    4    4    0    0 -0.36833366536E-02  0.93140269407E-02  0.49776319266E-02  0.11196249700E-01  0.51100000000E-03 0. -1.
</event>
<event>
 7    1  0.1097777E+005  0.1043930E+01  0.7957747E-01            NaN
         13   -1    0    0    0    0  0.00000000000E+00  0.00000000000E+00  0.74505805969E-08  0.10566000000E+00  0.10566000000E+00 0. -1.
     999900   -1    0    0    0    0 -0.00000000000E+00 -0.00000000000E+00 -0.74505805969E-08  0.93827000000E+00  0.93827000000E+00 0. -1.
     999902    2    1    2    0    0 -0.16147078417E-01 -0.15205736912E-01  0.49093635328E-02  0.10212133887E+01  0.10209606951E+01 0.  0.
         14    1    1    2    0    0  0.16147078417E-01  0.15205736912E-01 -0.49093635328E-02  0.22716611251E-01  0.00000000000E+00 0.  1.
     999901    1    3    3    0    0 -0.94263331371E-01 -0.83095064951E-01 -0.59651827700E-01  0.89092575785E+00  0.88000000000E+00 0. -1.
        -11    1    3    3    0    0  0.51366620855E-01  0.67140305065E-01  0.38363382565E-01  0.92835125600E-01  0.51100000000E-03 0. -1.
         11    1    3    3    0    0  0.26749632099E-01  0.74902297328E-03  0.26197808668E-01  0.37452505295E-01  0.51100000000E-03 0.  1.
</event>
<event>
 8    1  0.1097777E+005  0.1043930E+01  0.7957747E-01            NaN
         13   -1    0    0    0    0  0.00000000000E+00  0.00000000000E+00  0.74505805969E-08  0.10566000000E+00  0.10566000000E+00 0. -1.
     999900   -1    0    0    0    0 -0.00000000000E+00 -0.00000000000E+00 -0.74505805969E-08  0.93827000000E+00  0.93827000000E+00 0.  1.
     999902    2    1    2    0    0  0.22026656688E-01  0.54955646030E-02  0.84713313683E-02  0.10196990634E+01  0.10194111249E+01 0.  0.
     999903    2    3    3    0    0 -0.11632968080E+00  0.36521799700E-01 -0.31268349080E-01  0.12746347475E+00  0.20069660005E-01 0.  0.
         14    1    1    2    0    0 -0.22026656688E-01 -0.54955646030E-02 -0.84713313683E-02  0.24230936637E-01  0.00000000000E+00 0.  1.
     999901    1    3    3    0    0  0.13835633749E+00 -0.31026235097E-01  0.39739680448E-01  0.89223558861E+00  0.88000000000E+00 0.  1.
        -11    1    4    4    0    0 -0.61347465420E-01  0.28347965896E-01 -0.22230486150E-01  0.71144742036E-01  0.51100000000E-03 0.  1.
         11    1    4    4    0    0 -0.54982215379E-01  0.81738338036E-02 -0.90378629306E-02  0.56318732713E-01  0.51100000000E-03 0. -1.
</event>
<event>
 8    1  0.1097777E+005  0.1043930E+01  0.7957747E-01            NaN
         13   -1    0    0    0    0  0.00000000000E+00  0.00000000000E+00  0.74505805969E-08  0.10566000000E+00  0.10566000000E+00 0.  1.
     999900   -1    0    0    0    0 -0.00000000000E+00 -0.00000000000E+00 -0.74505805969E-08  0.93827000000E+00  0.93827000000E+00 0.  1.
     999902    2    1    2    0    0 -0.11272219141E-01 -0.56794828661E-02  0.20265610780E-01  0.10200550250E+01  0.10197755830E+01 0.  0.
     999903    2    3    3    0    0 -0.72921819788E-01 -0.46644956800E-01 -0.94222677366E-01  0.12955718031E+00  0.20342228075E-01 0.  0.
         14    1    1    2    0    0  0.11272219141E-01  0.56794828661E-02 -0.20265610780E-01  0.23874974980E-01  0.00000000000E+00 0. -1.
     999901    1    3    3    0    0  0.61649600647E-01  0.40965473934E-01  0.11448828815E+00  0.89049784471E+00  0.88000000000E+00 0. -1.
        -11    1    4    4    0    0 -0.46567482414E-01 -0.36389936343E-01 -0.74403723735E-01  0.95020698335E-01  0.51100000000E-03 0.  1.
         11    1    4    4    0    0 -0.26354337374E-01 -0.10255020456E-01 -0.19818953631E-01  0.34536481972E-01  0.51100000000E-03 0. -1.
</event>
<event>
 8    1  0.1097777E+005  0.1043930E+01  0.7957747E-01            NaN
         13   -1    0    0    0    0  0.00000000000E+00  0.00000000000E+00  0.74505805969E-08  0.10566000000E+00  0.10566000000E+00 0.  1.
     999900   -1    0    0    0    0 -0.00000000000E+00 -0.00000000000E+00 -0.74505805969E-08  0.93827000000E+00  0.93827000000E+00 0.  1.
     999902    2    1    2    0    0  0.96947971587E-02 -0.21216189495E-01 -0.17814427882E-02  0.10205357843E+01  0.10202676109E+01 0.  0.
     999903    2    3    3    0    0 -0.11980998354E+00  0.32560534003E-01 -0.28523835041E-01  0.12903223427E+00  0.20520423593E-01 0.  0.
         14    1    1    2    0    0 -0.96947971587E-02  0.21216189495E-01  0.17814427882E-02  0.23394215675E-01  0.00000000000E+00 0. -1.
     999901    1    3    3    0    0  0.12950478070E+00 -0.53776723498E-01  0.26742392253E-01  0.89150355005E+00  0.88000000000E+00 0.  1.
        -11    1    4    4    0    0 -0.12232007759E-01 -0.15853989360E-02  0.94326506307E-03  0.12380887431E-01  0.51100000000E-03 0.  1.
         11    1    4    4    0    0 -0.10757797578E+00  0.34145932939E-01 -0.29467100104E-01  0.11665134684E+00  0.51100000000E-03 0. -1.
</event>
<event>
 8    1  0.1097777E+005  0.1043930E+01  0.7957747E-01            NaN
         13   -1    0    0    0    0  0.00000000000E+00  0.00000000000E+00  0.74505805969E-08  0.10566000000E+00  0.10566000000E+00 0.  1.
     999900   -1    0    0    0    0 -0.00000000000E+00 -0.00000000000E+00 -0.74505805969E-08  0.93827000000E+00  0.93827000000E+00 0. -1.
     999902    2    1    2    0    0  0.17759209682E-01 -0.13257261753E-01 -0.10036361548E-01  0.10196015584E+01  0.10193112698E+01 0.  0.
     999903    2    3    3    0    0  0.71350511742E-01 -0.96407304718E-01  0.50816419234E-01  0.13197043105E+00  0.21180705365E-01 0.  0.
         14    1    1    2    0    0 -0.17759209682E-01  0.13257261753E-01  0.10036361548E-01  0.24328441603E-01  0.00000000000E+00 0.  1.
     999901    1    3    3    0    0 -0.53591302060E-01  0.83150042965E-01 -0.60852780782E-01  0.88763112734E+00  0.88000000000E+00 0. -1.
        -11    1    4    4    0    0  0.14770539412E-01 -0.13111746512E-01  0.14120440934E-02  0.19807617742E-01  0.51100000000E-03 0.  1.
         11    1    4    4    0    0  0.56579972330E-01 -0.83295558206E-01  0.49404375141E-01  0.11216281331E+00  0.51100000000E-03 0. -1.
</event>
<event>
 8    1  0.1097777E+005  0.1043930E+01  0.7957747E-01            NaN
         13   -1    0    0    0    0  0.00000000000E+00  0.00000000000E+00  0.74505805969E-08  0.10566000000E+00  0.10566000000E+00 0. -1.
     999900   -1    0    0    0    0 -0.00000000000E+00 -0.00000000000E+00 -0.74505805969E-08  0.93827000000E+00  0.93827000000E+00 0.  1.
     999902    2    1    2    0    0  0.14566176243E-01  0.67071459856E-02 -0.15517646296E-01  0.10216150578E+01  0.10213713182E+01 0.  0.
     999903    2    3    3    0    0  0.11741945498E+00 -0.27510110852E-01 -0.54821272915E-01  0.13409356925E+00  0.20774473391E-01 0.  0.
         14    1    1    2    0    0 -0.14566176243E-01 -0.67071459856E-02  0.15517646296E-01  0.22314942173E-01  0.00000000000E+00 0. -1.
     999901    1    3    3    0    0 -0.10285327874E+00  0.34217256838E-01  0.39303626619E-01  0.88752148857E+00  0.88000000000E+00 0.  1.
        -11    1    4    4    0    0  0.93855652330E-01 -0.17057501590E-01 -0.35154198790E-01  0.10166572996E+00  0.51100000000E-03 0. -1.
         11    1    4    4    0    0  0.23563802650E-01 -0.10452609262E-01 -0.19667074124E-01  0.32427839295E-01  0.51100000000E-03 0.  1.
</event>
<event>
 8    1  0.1097777E+005  0.1043930E+01  0.7957747E-01            NaN
         13   -1    0    0    0    0  0.00000000000E+00  0.00000000000E+00  0.74505805969E-08  0.10566000000E+00  0.10566000000E+00 0.  1.
     999900   -1    0    0    0    0 -0.00000000000E+00 -0.00000000000E+00 -0.74505805969E-08  0.93827000000E+00  0.93827000000E+00 0.  1.
     999902    2    1    2    0    0 -0.14389631124E-01 -0.22980597474E-02 -0.18125944096E-01  0.10206729062E+01  0.10204079033E+01 0.  0.
     999903    2    3    3    0    0 -0.92834475324E-01 -0.37934065809E-01 -0.86358766584E-01  0.13383626027E+00  0.19926736790E-01 0.  0.
         14    1    1    2    0    0  0.14389631124E-01  0.22980597474E-02  0.18125944096E-01  0.23257093797E-01  0.00000000000E+00 0.  1.
     999901    1    3    3    0    0  0.78444844200E-01  0.35636006062E-01  0.68232822488E-01  0.88683664594E+00  0.88000000000E+00 0. -1.
        -11    1    4    4    0    0 -0.38994120847E-01 -0.17400860503E-01 -0.24234733869E-01  0.49101067744E-01  0.51100000000E-03 0. -1.
         11    1    4    4    0    0 -0.53840354477E-01 -0.20533205306E-01 -0.62124032715E-01  0.84735192524E-01  0.51100000000E-03 0.  1.
</event>
<event>
 8    1  0.1097777E+005  0.1043930E+01  0.7957747E-01            NaN
         13   -1    0    0    0    0  0.00000000000E+00  0.00000000000E+00  0.74505805969E-08  0.10566000000E+00  0.10566000000E+00 0.  1.
     999900   -1    0    0    0    0 -0.00000000000E+00 -0.00000000000E+00 -0.74505805969E-08  0.93827000000E+00  0.93827000000E+00 0.  1.
     999902    2    1    2    0    0  0.84183863907E-02  0.18877952645E-01 -0.65138904906E-02  0.10222579651E+01  0.10220282140E+01 0.  0.
     999903    2    3    3    0    0 -0.99535702707E-01 -0.70235458098E-01  0.40622603876E-01  0.12994796608E+00  0.19897292662E-01 0.  0.
         14    1    1    2    0    0 -0.84183863907E-02 -0.18877952645E-01  0.65138904906E-02  0.21672034856E-01  0.00000000000E+00 0. -1.
     999901    1    3    3    0    0  0.10795408910E+00  0.89113410743E-01 -0.47136494367E-01  0.89230999906E+00  0.88000000000E+00 0.  1.
        -11    1    4    4    0    0 -0.48796242336E-01 -0.41714821782E-01  0.29649603893E-01  0.70714636070E-01  0.51100000000E-03 0.  1.
         11    1    4    4    0    0 -0.50739460371E-01 -0.28520636316E-01  0.10972999983E-01  0.59233330011E-01  0.51100000000E-03 0. -1.
</event>
<event>
 8    1  0.1097777E+005  0.1043930E+01  0.7957747E-01            NaN
         13   -1    0    0    0    0  0.00000000000E+00  0.00000000000E+00  0.74505805969E-08  0.10566000000E+00  0.10566000000E+00 0. -1.
     999900   -1    0    0    0    0 -0.00000000000E+00 -0.00000000000E+00 -0.74505805969E-08  0.93827000000E+00  0.93827000000E+00 0.  1.
     999902    2    1    2    0    0  0.18264206249E-01  0.26039370282E-02 -0.13944920877E-01  0.10208037695E+01  0.10205417744E+01 0.  0.
     999903    2    3    3    0    0  0.35915415973E-01  0.86510530875E-01 -0.92423145393E-01  0.13316042142E+00  0.20388010508E-01 0.  0.
         14    1    1    2    0    0 -0.18264206249E-01 -0.26039370282E-02  0.13944920877E-01  0.23126230481E-01  0.00000000000E+00 0.  1.
     999901    1    3    3    0    0 -0.17651209724E-01 -0.83906593847E-01  0.78478224516E-01  0.88764334810E+00  0.88000000000E+00 0. -1.
        -11    1    4    4    0    0  0.30212088056E-01  0.46599140345E-01 -0.54167568542E-01  0.77579873346E-01  0.51100000000E-03 0.  1.
         11    1    4    4    0    0  0.57033279167E-02  0.39911390530E-01 -0.38255576851E-01  0.55580548078E-01  0.51100000000E-03 0. -1.
</event>
<event>
 7    1  0.1097777E+005  0.1043930E+01  0.7957747E-01            NaN
         13   -1    0    0    0    0  0.00000000000E+00  0.00000000000E+00  0.74505805969E-08  0.10566000000E+00  0.10566000000E+00 0.  1.
     999900   -1    0    0    0    0 -0.00000000000E+00 -0.00000000000E+00 -0.74505805969E-08  0.93827000000E+00  0.93827000000E+00 0.  1.
     999903    2    1    2    0    0  0.54335664380E-01 -0.39780792028E-01  0.24593901168E-01  0.74195433390E-01  0.19110900642E-01 0.  0.
         14    1    1    2    0    0  0.71982895459E-02  0.24419261281E-01 -0.81730736654E-01  0.85603907667E-01  0.00000000000E+00 0. -1.
     999901    1    1    2    0    0 -0.61533953926E-01  0.15361530747E-01  0.57136835486E-01  0.88413065894E+00  0.88000000000E+00 0. -1.
        -11    1    3    3    0    0  0.41158010530E-01 -0.38012265218E-01  0.23776968485E-01  0.60864763937E-01  0.51100000000E-03 0. -1.
         11    1    3    3    0    0  0.13177653850E-01 -0.17685268107E-02  0.81693268278E-03  0.13330669454E-01  0.51100000000E-03 0.  1.
</event>
<event>
 8    1  0.1097777E+005  0.1043930E+01  0.7957747E-01            NaN
         13   -1    0    0    0    0  0.00000000000E+00  0.00000000000E+00  0.74505805969E-08  0.10566000000E+00  0.10566000000E+00 0. -1.
     999900   -1    0    0    0    0 -0.00000000000E+00 -0.00000000000E+00 -0.74505805969E-08  0.93827000000E+00  0.93827000000E+00 0.  1.
     999902    2    1    2    0    0  0.19698553057E-01  0.57609876599E-02  0.11834039415E-01  0.10202389371E+01  0.10199638339E+01 0.  0.
     999903    2    3    3    0    0 -0.82644350462E-01  0.89571808475E-01  0.40207011738E-01  0.12990004145E+00  0.20105209269E-01 0.  0.
         14    1    1    2    0    0 -0.19698553057E-01 -0.57609876599E-02 -0.11834039415E-01  0.23691062876E-01  0.00000000000E+00 0.  1.
     999901    1    3    3    0    0  0.10234290352E+00 -0.83810820815E-01 -0.28372972323E-01  0.89033889567E+00  0.88000000000E+00 0.  1.
        -11    1    4    4    0    0 -0.41919176838E-01  0.51155591167E-01  0.31435535701E-01  0.73229542674E-01  0.51100000000E-03 0. -1.
         11    1    4    4    0    0 -0.40725173624E-01  0.38416217308E-01  0.87714760365E-02  0.56670498779E-01  0.51100000000E-03 0.  1.
</event>
<event>
 8    1  0.1097777E+005  0.1043930E+01  0.7957747E-01            NaN
         13   -1    0    0    0    0  0.00000000000E+00  0.00000000000E+00  0.74505805969E-08  0.10566000000E+00  0.10566000000E+00 0. -1.
     999900   -1    0    0    0    0 -0.00000000000E+00 -0.00000000000E+00 -0.74505805969E-08  0.93827000000E+00  0.93827000000E+00 0. -1.
     999902    2    1    2    0    0 -0.72333753902E-02  0.20796061279E-01 -0.86446638082E-02  0.10202756537E+01  0.10200014125E+01 0.  0.
     999903    2    3    3    0    0  0.16056483522E-01 -0.54999969314E-01  0.11320224283E+00  0.12834845692E+00  0.19384821987E-01 0.  0.
         14    1    1    2    0    0  0.72333753902E-02 -0.20796061279E-01  0.86446638082E-02  0.23654346252E-01  0.00000000000E+00 0. -1.
     999901    1    3    3    0    0 -0.23289858912E-01  0.75796030593E-01 -0.12184690664E+00  0.89192719683E+00  0.88000000000E+00 0. -1.
        -11    1    4    4    0    0  0.16635004807E-01 -0.24745460495E-01  0.63560384580E-01  0.70208580736E-01  0.51100000000E-03 0. -1.
         11    1    4    4    0    0 -0.57852128536E-03 -0.30254508818E-01  0.49641858255E-01  0.58139876184E-01  0.51100000000E-03 0.  1.
</event>
<event>
 8    1  0.1097777E+005  0.1043930E+01  0.7957747E-01            NaN
         13   -1    0    0    0    0  0.00000000000E+00  0.00000000000E+00  0.74505805969E-08  0.10566000000E+00  0.10566000000E+00 0. -1.
     999900   -1    0    0    0    0 -0.00000000000E+00 -0.00000000000E+00 -0.74505805969E-08  0.93827000000E+00  0.93827000000E+00 0.  1.
     999902    2    1    2    0    0  0.88845143654E-03  0.16872456651E-01 -0.16947757335E-01  0.10199989403E+01  0.10197181682E+01 0.  0.
     999903    2    3    3    0    0 -0.12558710728E+00 -0.16518164794E-01  0.19132600062E-01  0.12959858499E+00  0.19615441969E-01 0.  0.
         14    1    1    2    0    0 -0.88845143654E-03 -0.16872456651E-01  0.16947757335E-01  0.23931059694E-01  0.00000000000E+00 0. -1.
     999901    1    3    3    0    0  0.12647555872E+00  0.33390621446E-01 -0.36080357397E-01  0.89040035531E+00  0.88000000000E+00 0.  1.
        -11    1    4    4    0    0 -0.13898195988E-01 -0.64451469375E-02 -0.20727146297E-02  0.15467935793E-01  0.51100000000E-03 0.  1.
         11    1    4    4    0    0 -0.11168891129E+00 -0.10073017857E-01  0.21205314692E-01  0.11413064920E+00  0.51100000000E-03 0. -1.
</event>
<event>
 8    1  0.1097777E+005  0.1043930E+01  0.7957747E-01            NaN
         13   -1    0    0    0    0  0.00000000000E+00  0.00000000000E+00  0.74505805969E-08  0.10566000000E+00  0.10566000000E+00 0.  1.
     999900   -1    0    0    0    0 -0.00000000000E+00 -0.00000000000E+00 -0.74505805969E-08  0.93827000000E+00  0.93827000000E+00 0. -1.
     999902    2    1    2    0    0 -0.48236261400E-02  0.75329878679E-02 -0.24992284469E-01  0.10173851783E+01  0.10170388260E+01 0.  0.
     999903    2    3    3    0    0  0.48909091643E-01  0.11207996822E+00  0.31277395540E-01  0.12778776771E+00  0.19935385240E-01 0.  0.
         14    1    1    2    0    0  0.48236261400E-02 -0.75329878679E-02  0.24992284469E-01  0.26544821686E-01  0.00000000000E+00 0.  1.
     999901    1    3    3    0    0 -0.53732717783E-01 -0.10454698035E+00 -0.56269680009E-01  0.88959741060E+00  0.88000000000E+00 0. -1.
        -11    1    4    4    0    0  0.26099682704E-01  0.36941126458E-01  0.85081868449E-02  0.46027064056E-01  0.51100000000E-03 0. -1.
         11    1    4    4    0    0  0.22809408939E-01  0.75138841758E-01  0.22769208695E-01  0.81760703657E-01  0.51100000000E-03 0.  1.
</event>
<event>
 8    1  0.1097777E+005  0.1043930E+01  0.7957747E-01            NaN
         13   -1    0    0    0    0  0.00000000000E+00  0.00000000000E+00  0.74505805969E-08  0.10566000000E+00  0.10566000000E+00 0.  1.
     999900   -1    0    0    0    0 -0.00000000000E+00 -0.00000000000E+00 -0.74505805969E-08  0.93827000000E+00  0.93827000000E+00 0. -1.
     999902    2    1    2    0    0 -0.20261942969E-01 -0.10636075922E-01  0.68959052489E-02  0.10200296663E+01  0.10197496232E+01 0.  0.
     999903    2    3    3    0    0  0.71680670351E-01 -0.27072102615E-01 -0.10119502253E+00  0.12851004461E+00  0.20084365494E-01 0.  0.
         14    1    1    2    0    0  0.20261942969E-01  0.10636075922E-01 -0.68959052489E-02  0.23900333744E-01  0.00000000000E+00 0.  1.
     999901    1    3    3    0    0 -0.91942613320E-01  0.16436026693E-01  0.10809092778E+00  0.89151962165E+00  0.88000000000E+00 0.  1.
        -11    1    4    4    0    0  0.33172359283E-01 -0.56591209403E-02 -0.31772008874E-01  0.46283395933E-01  0.51100000000E-03 0. -1.
         11    1    4    4    0    0  0.38508311068E-01 -0.21412981675E-01 -0.69423013658E-01  0.82226648673E-01  0.51100000000E-03 0.  1.
</event>
<event>
 8    1  0.1097777E+005  0.1043930E+01  0.7957747E-01            NaN
         13   -1    0    0    0    0  0.00000000000E+00  0.00000000000E+00  0.74505805969E-08  0.10566000000E+00  0.10566000000E+00 0. -1.
     999900   -1    0    0    0    0 -0.00000000000E+00 -0.00000000000E+00 -0.74505805969E-08  0.93827000000E+00  0.93827000000E+00 0.  1.
     999902    2    1    2    0    0 -0.12394724028E-01  0.15492010036E-01 -0.12199526303E-01  0.10206392293E+01  0.10203734495E+01 0.  0.
     999903    2    3    3    0    0  0.11428706823E+00  0.53234377170E-01 -0.26892021604E-01  0.13064561572E+00  0.21205263565E-01 0.  0.
         14    1    1    2    0    0  0.12394724028E-01 -0.15492010036E-01  0.12199526303E-01  0.23290770719E-01  0.00000000000E+00 0. -1.
     999901    1    3    3    0    0 -0.12668179226E+00 -0.37742367135E-01  0.14692495301E-01  0.88999361356E+00  0.88000000000E+00 0.  1.
        -11    1    4    4    0    0  0.19453009280E-01  0.31350245284E-02 -0.98844709879E-02  0.22050211713E-01  0.51100000000E-03 0.  1.
         11    1    4    4    0    0  0.94834058949E-01  0.50099352642E-01 -0.17007550616E-01  0.10859540400E+00  0.51100000000E-03 0. -1.
</event>
<event>
 8    1  0.1097777E+005  0.1043930E+01  0.7957747E-01            NaN
         13   -1    0    0    0    0  0.00000000000E+00  0.00000000000E+00  0.74505805969E-08  0.10566000000E+00  0.10566000000E+00 0. -1.
     999900   -1    0    0    0    0 -0.00000000000E+00 -0.00000000000E+00 -0.74505805969E-08  0.93827000000E+00  0.93827000000E+00 0.  1.
     999902    2    1    2    0    0 -0.29906582983E-02 -0.23343907470E-01 -0.31637120788E-02  0.10201836081E+01  0.10199072032E+01 0.  0.
     999903    2    3    3    0    0  0.41638605011E-01 -0.12387790082E+00  0.15678122552E-01  0.13313576855E+00  0.19995539574E-01 0.  0.
         14    1    1    2    0    0  0.29906582983E-02  0.23343907470E-01  0.31637120788E-02  0.23746391876E-01  0.00000000000E+00 0.  1.
     999901    1    3    3    0    0 -0.44629263309E-01  0.10053399335E+00 -0.18841834630E-01  0.88704783957E+00  0.88000000000E+00 0.  1.
        -11    1    4    4    0    0  0.18838415158E-01 -0.56993529560E-01 -0.28017811207E-02  0.60093755048E-01  0.51100000000E-03 0. -1.
         11    1    4    4    0    0  0.22800189853E-01 -0.66884371255E-01  0.18479903672E-01  0.73042013501E-01  0.51100000000E-03 0.  1.
</event>
<event>
 7    1  0.1097777E+005  0.1043930E+01  0.7957747E-01            NaN
         13   -1    0    0    0    0  0.00000000000E+00  0.00000000000E+00  0.74505805969E-08  0.10566000000E+00  0.10566000000E+00 0.  1.
     999900   -1    0    0    0    0 -0.00000000000E+00 -0.00000000000E+00 -0.74505805969E-08  0.93827000000E+00  0.93827000000E+00 0. -1.
     999903    2    1    2    0    0 -0.46421139409E-01 -0.48572968367E-01  0.83274548825E-01  0.10857676066E+00  0.18439279653E-01 0.  0.
         14    1    1    2    0    0  0.28184338804E-01  0.34900556870E-01  0.19817218775E-01  0.49042104193E-01  0.00000000000E+00 0.  1.
     999901    1    1    2    0    0  0.18236800605E-01  0.13672411497E-01 -0.10309176760E+00  0.88631113514E+00  0.88000000000E+00 0. -1.
        -11    1    3    3    0    0 -0.78727079691E-02 -0.20359783244E-01  0.28327182255E-01  0.35765775261E-01  0.51100000000E-03 0. -1.
         11    1    3    3    0    0 -0.38548431440E-01 -0.28213185123E-01  0.54947366570E-01  0.72810985402E-01  0.51100000000E-03 0.  1.
</event>
<event>
 8    1  0.1097777E+005  0.1043930E+01  0.7957747E-01            NaN
         13   -1    0    0    0    0  0.00000000000E+00  0.00000000000E+00  0.74505805969E-08  0.10566000000E+00  0.10566000000E+00 0.  1.
     999900   -1    0    0    0    0 -0.00000000000E+00 -0.00000000000E+00 -0.74505805969E-08  0.93827000000E+00  0.93827000000E+00 0.  1.
     999902    2    1    2    0    0  0.47960185036E-02 -0.11217745983E-01 -0.19862969969E-01  0.10206195475E+01  0.10203533131E+01 0.  0.
     999903    2    3    3    0    0 -0.64862142625E-01  0.92511836239E-01  0.56734153235E-01  0.12849892512E+00  0.22971117169E-01 0.  0.
         14    1    1    2    0    0 -0.47960185036E-02  0.11217745983E-01  0.19862969969E-01  0.23310452471E-01  0.00000000000E+00 0.  1.
     999901    1    3    3    0    0  0.69658161129E-01 -0.10372958222E+00 -0.76597123205E-01  0.89212062241E+00  0.88000000000E+00 0. -1.
        -11    1    4    4    0    0 -0.59696871462E-01  0.91560053130E-01  0.56884836494E-01  0.12321974491E+00  0.51100000000E-03 0. -1.
         11    1    4    4    0    0 -0.51652711633E-02  0.95178310911E-03 -0.15068325908E-03  0.52791802131E-02  0.51100000000E-03 0.  1.
</event>
<event>
 8    1  0.1097777E+005  0.1043930E+01  0.7957747E-01            NaN
         13   -1    0    0    0    0  0.00000000000E+00  0.00000000000E+00  0.74505805969E-08  0.10566000000E+00  0.10566000000E+00 0.  1.
     999900   -1    0    0    0    0 -0.00000000000E+00 -0.00000000000E+00 -0.74505805969E-08  0.93827000000E+00  0.93827000000E+00 0.  1.
     999902    2    1    2    0    0 -0.23737012878E-01 -0.60623658385E-02  0.89801303544E-03  0.10194146071E+01  0.10191197853E+01 0.  0.
     999903    2    3    3    0    0  0.32616226859E-01 -0.46475511868E-01  0.11468720641E+00  0.12938264674E+00  0.19050525036E-01 0.  0.
         14    1    1    2    0    0  0.23737012878E-01  0.60623658385E-02 -0.89801303544E-03  0.24515392865E-01  0.00000000000E+00 0. -1.
     999901    1    3    3    0    0 -0.56353239736E-01  0.40413146030E-01 -0.11378919338E+00  0.89003196040E+00  0.88000000000E+00 0.  1.
        -11    1    4    4    0    0  0.95215920758E-02 -0.14418402380E-01  0.56205604735E-01  0.58803759807E-01  0.51100000000E-03 0.  1.
         11    1    4    4    0    0  0.23094634783E-01 -0.32057109489E-01  0.58481601677E-01  0.70578886930E-01  0.51100000000E-03 0. -1.
</event>
<event>
 8    1  0.1097777E+005  0.1043930E+01  0.7957747E-01            NaN
         13   -1    0    0    0    0  0.00000000000E+00  0.00000000000E+00  0.74505805969E-08  0.10566000000E+00  0.10566000000E+00 0.  1.
     999900   -1    0    0    0    0 -0.00000000000E+00 -0.00000000000E+00 -0.74505805969E-08  0.93827000000E+00  0.93827000000E+00 0.  1.
     999902    2    1    2    0    0 -0.12537014432E-01  0.19463928436E-01 -0.26778075270E-02  0.10206235225E+01  0.10203573799E+01 0.  0.
     999903    2    3    3    0    0  0.98770852340E-01  0.19564705911E-01  0.77713025202E-01  0.12997648951E+00  0.26760316691E-01 0.  0.
         14    1    1    2    0    0  0.12537014432E-01 -0.19463928436E-01  0.26778075270E-02  0.23306477516E-01  0.00000000000E+00 0.  1.
     999901    1    3    3    0    0 -0.11130786677E+00 -0.10077747499E-03 -0.80390832729E-01  0.89064703298E+00  0.88000000000E+00 0.  1.
        -11    1    4    4    0    0  0.36204142145E-01  0.58278207942E-02  0.44989598533E-01  0.58043332957E-01  0.51100000000E-03 0.  1.
         11    1    4    4    0    0  0.62566710196E-01  0.13736885117E-01  0.32723426669E-01  0.71933156551E-01  0.51100000000E-03 0. -1.
</event>
<event>
 8    1  0.1097777E+005  0.1043930E+01  0.7957747E-01            NaN
         13   -1    0    0    0    0  0.00000000000E+00  0.00000000000E+00  0.74505805969E-08  0.10566000000E+00  0.10566000000E+00 0. -1.
     999900   -1    0    0    0    0 -0.00000000000E+00 -0.00000000000E+00 -0.74505805969E-08  0.93827000000E+00  0.93827000000E+00 0. -1.
     999902    2    1    2    0    0 -0.15532423157E-01  0.70416784273E-02 -0.16304868121E-01  0.10203357183E+01  0.10200628843E+01 0.  0.
     999903    2    3    3    0    0 -0.11058547002E+00 -0.39338604820E-01 -0.59068233589E-01  0.13297169051E+00  0.20389758471E-01 0.  0.
         14    1    1    2    0    0  0.15532423157E-01 -0.70416784273E-02  0.16304868121E-01  0.23594281694E-01  0.00000000000E+00 0. -1.
     999901    1    3    3    0    0  0.95053046862E-01  0.46380283247E-01  0.42763365467E-01  0.88736402779E+00  0.88000000000E+00 0. -1.
        -11    1    4    4    0    0 -0.29767863580E-01 -0.17919002723E-01 -0.10600388024E-01  0.36329680813E-01  0.51100000000E-03 0. -1.
         11    1    4    4    0    0 -0.80817606439E-01 -0.21419602098E-01 -0.48467845565E-01  0.96642009702E-01  0.51100000000E-03 0.  1.
</event>
<event>
 8    1  0.1097777E+005  0.1043930E+01  0.7957747E-01            NaN
         13   -1    0    0    0    0  0.00000000000E+00  0.00000000000E+00  0.74505805969E-08  0.10566000000E+00  0.10566000000E+00 0.  1.
     999900   -1    0    0    0    0 -0.00000000000E+00 -0.00000000000E+00 -0.74505805969E-08  0.93827000000E+00  0.93827000000E+00 0.  1.
     999902    2    1    2    0    0 -0.19877529563E-01 -0.13101899571E-01  0.51986170259E-03  0.10201172679E+01  0.10198392982E+01 0.  0.
     999903    2    3    3    0    0 -0.20889299160E-01  0.10457082949E+00 -0.70640185781E-01  0.12943682734E+00  0.19809977910E-01 0.  0.
         14    1    1    2    0    0  0.19877529563E-01  0.13101899571E-01 -0.51986170259E-03  0.23812732100E-01  0.00000000000E+00 0. -1.
     999901    1    3    3    0    0  0.10117695970E-02 -0.11767272906E+00  0.71160047483E-01  0.89068044056E+00  0.88000000000E+00 0.  1.
        -11    1    4    4    0    0 -0.23891881585E-01  0.83123739072E-01 -0.52461626958E-01  0.10115760687E+00  0.51100000000E-03 0.  1.
         11    1    4    4    0    0  0.30025824253E-02  0.21447090416E-01 -0.18178558822E-01  0.28279220470E-01  0.51100000000E-03 0. -1.
</event>
<event>
 8    1  0.1097777E+005  0.1043930E+01  0.7957747E-01            NaN
         13   -1    0    0    0    0  0.00000000000E+00  0.00000000000E+00  0.74505805969E-08  0.10566000000E+00  0.10566000000E+00 0.  1.
     999900   -1    0    0    0    0 -0.00000000000E+00 -0.00000000000E+00 -0.74505805969E-08  0.93827000000E+00  0.93827000000E+00 0.  1.
     999902    2    1    2    0    0  0.47424368698E-02 -0.22692091615E-01  0.32691108229E-02  0.10205182761E+01  0.10202496964E+01 0.  0.
     999903    2    3    3    0    0 -0.40256072392E-01  0.86866884305E-01  0.83761140880E-01  0.12894270336E+00  0.21068580295E-01 0.  0.
         14    1    1    2    0    0 -0.47424368698E-02  0.22692091615E-01 -0.32691108229E-02  0.23411723877E-01  0.00000000000E+00 0.  1.
     999901    1    3    3    0    0  0.44998509262E-01 -0.10955897592E+00 -0.80492030057E-01  0.89157557276E+00  0.88000000000E+00 0.  1.
        -11    1    4    4    0    0 -0.13776807273E-01  0.54359951697E-01  0.46593422325E-01  0.72910992944E-01  0.51100000000E-03 0. -1.
         11    1    4    4    0    0 -0.26479265119E-01  0.32506932608E-01  0.37167718555E-01  0.56031710419E-01  0.51100000000E-03 0.  1.
</event>
<event>
 8    1  0.1097777E+005  0.1043930E+01  0.7957747E-01            NaN
         13   -1    0    0    0    0  0.00000000000E+00  0.00000000000E+00  0.74505805969E-08  0.10566000000E+00  0.10566000000E+00 0.  1.
     999900   -1    0    0    0    0 -0.00000000000E+00 -0.00000000000E+00 -0.74505805969E-08  0.93827000000E+00  0.93827000000E+00 0. -1.
     999902    2    1    2    0    0  0.16060912682E-01  0.21394134138E-01 -0.20352987087E-01  0.10103159259E+01  0.10097565866E+01 0.  0.
     999903    2    3    3    0    0  0.75782937219E-01 -0.89822589721E-01  0.18893712446E-01  0.12044167454E+00  0.18386772354E-01 0.  0.
         14    1    1    2    0    0 -0.16060912682E-01 -0.21394134138E-01  0.20352987087E-01  0.33614074062E-01  0.00000000000E+00 0.  1.
     999901    1    3    3    0    0 -0.59722024538E-01  0.11121672386E+00 -0.39246699534E-01  0.88987425140E+00  0.88000000000E+00 0.  1.
        -11    1    4    4    0    0  0.56223781766E-01 -0.70951671402E-01  0.21760358982E-01  0.93107613303E-01  0.51100000000E-03 0.  1.
         11    1    4    4    0    0  0.19559155453E-01 -0.18870918319E-01 -0.28666465359E-02  0.27334061235E-01  0.51100000000E-03 0. -1.
</event>
<event>
 8    1  0.1097777E+005  0.1043930E+01  0.7957747E-01            NaN
         13   -1    0    0    0    0  0.00000000000E+00  0.00000000000E+00  0.74505805969E-08  0.10566000000E+00  0.10566000000E+00 0. -1.
     999900   -1    0    0    0    0 -0.00000000000E+00 -0.00000000000E+00 -0.74505805969E-08  0.93827000000E+00  0.93827000000E+00 0.  1.
     999902    2    1    2    0    0  0.22409137652E-01  0.55549390309E-02  0.49905109316E-02  0.10203094158E+01  0.10200359660E+01 0.  0.
     999903    2    3    3    0    0  0.99360961055E-01  0.79888364558E-01  0.33482963421E-01  0.13337150303E+00  0.20300187405E-01 0.  0.
         14    1    1    2    0    0 -0.22409137652E-01 -0.55549390309E-02 -0.49905109316E-02  0.23620584187E-01  0.00000000000E+00 0.  1.
     999901    1    3    3    0    0 -0.76951823403E-01 -0.74333425527E-01 -0.28492452490E-01  0.88693791278E+00  0.88000000000E+00 0. -1.
        -11    1    4    4    0    0  0.77832572287E-01  0.52250671892E-01  0.28498409534E-01  0.97981949812E-01  0.51100000000E-03 0. -1.
         11    1    4    4    0    0  0.21528388768E-01  0.27637692666E-01  0.49845538869E-02  0.35389553223E-01  0.51100000000E-03 0.  1.
</event>
<event>
 8    1  0.1097777E+005  0.1043930E+01  0.7957747E-01            NaN
         13   -1    0    0    0    0  0.00000000000E+00  0.00000000000E+00  0.74505805969E-08  0.10566000000E+00  0.10566000000E+00 0.  1.
     999900   -1    0    0    0    0 -0.00000000000E+00 -0.00000000000E+00 -0.74505805969E-08  0.93827000000E+00  0.93827000000E+00 0. -1.
     999902    2    1    2    0    0  0.18492185698E-01 -0.13854354594E-01 -0.83037094435E-02  0.10193768808E+01  0.10190811398E+01 0.  0.
     999903    2    3    3    0    0 -0.78352204850E-01 -0.16911116852E-01  0.97417663924E-01  0.12776867727E+00  0.20238077189E-01 0.  0.
         14    1    1    2    0    0 -0.18492185698E-01  0.13854354594E-01  0.83037094435E-02  0.24553119224E-01  0.00000000000E+00 0.  1.
     999901    1    3    3    0    0  0.96844390548E-01  0.30567622576E-02 -0.10572137337E+00  0.89160820351E+00  0.88000000000E+00 0. -1.
        -11    1    4    4    0    0 -0.60704913501E-02 -0.12274387311E-02  0.18915157983E-01  0.19909841626E-01  0.51100000000E-03 0. -1.
         11    1    4    4    0    0 -0.72281713500E-01 -0.15683678121E-01  0.78502505941E-01  0.10785883564E+00  0.51100000000E-03 0.  1.
</event>
<event>
 8    1  0.1097777E+005  0.1043930E+01  0.7957747E-01            NaN
         13   -1    0    0    0    0  0.00000000000E+00  0.00000000000E+00  0.74505805969E-08  0.10566000000E+00  0.10566000000E+00 0. -1.
     999900   -1    0    0    0    0 -0.00000000000E+00 -0.00000000000E+00 -0.74505805969E-08  0.93827000000E+00  0.93827000000E+00 0. -1.
     999902    2    1    2    0    0 -0.87618009243E-02  0.21278499556E-01  0.44977422956E-02  0.10204827532E+01  0.10202133483E+01 0.  0.
     999903    2    3    3    0    0  0.68222551243E-01 -0.60026107504E-01  0.89643841863E-01  0.12931111543E+00  0.20685649877E-01 0.  0.
         14    1    1    2    0    0  0.87618009243E-02 -0.21278499556E-01 -0.44977422956E-02  0.23447246844E-01  0.00000000000E+00 0. -1.
     999901    1    3    3    0    0 -0.76984352167E-01  0.81304607061E-01 -0.85146099567E-01  0.89117163772E+00  0.88000000000E+00 0. -1.
        -11    1    4    4    0    0  0.19245058801E-01 -0.29168229116E-01  0.39304974115E-01  0.52595627092E-01  0.51100000000E-03 0. -1.
         11    1    4    4    0    0  0.48977492442E-01 -0.30857878388E-01  0.50338867748E-01  0.76715488343E-01  0.51100000000E-03 0.  1.
</event>
<event>
 8    1  0.1097777E+005  0.1043930E+01  0.7957747E-01            NaN
         13   -1    0    0    0    0  0.00000000000E+00  0.00000000000E+00  0.74505805969E-08  0.10566000000E+00  0.10566000000E+00 0.  1.
     999900   -1    0    0    0    0 -0.00000000000E+00 -0.00000000000E+00 -0.74505805969E-08  0.93827000000E+00  0.93827000000E+00 0.  1.
     999902    2    1    2    0    0  0.13209435988E-01  0.19165812875E-01  0.65473083637E-02  0.10197497430E+01  0.10194630221E+01 0.  0.
     999903    2    3    3    0    0  0.72167714666E-01 -0.99797802752E-01  0.33980362713E-01  0.12936724488E+00  0.20333187737E-01 0.  0.
         14    1    1    2    0    0 -0.13209435988E-01 -0.19165812875E-01 -0.65473083637E-02  0.24180257011E-01  0.00000000000E+00 0.  1.
     999901    1    3    3    0    0 -0.58958278678E-01  0.11896361563E+00 -0.27433054350E-01  0.89038249811E+00  0.88000000000E+00 0.  1.
        -11    1    4    4    0    0  0.51967596777E-01 -0.85512754270E-01  0.27958766077E-01  0.10389906631E+00  0.51100000000E-03 0.  1.
         11    1    4    4    0    0  0.20200117889E-01 -0.14285048482E-01  0.60215966369E-02  0.25468178575E-01  0.51100000000E-03 0. -1.
</event>
<event>
 7    1  0.1097777E+005  0.1043930E+01  0.7957747E-01            NaN
         13   -1    0    0    0    0  0.00000000000E+00  0.00000000000E+00  0.74505805969E-08  0.10566000000E+00  0.10566000000E+00 0. -1.
     999900   -1    0    0    0    0 -0.00000000000E+00 -0.00000000000E+00 -0.74505805969E-08  0.93827000000E+00  0.93827000000E+00 0.  1.
     999902    2    1    2    0    0  0.16970919414E-01  0.17347163553E-01 -0.29936405296E-02  0.10194780456E+01  0.10191847661E+01 0.  0.
         14    1    1    2    0    0 -0.16970919414E-01 -0.17347163553E-01  0.29936405296E-02  0.24451954374E-01  0.00000000000E+00 0.  1.
     999901    1    3    3    0    0  0.13411046712E+00  0.30454253963E-01  0.27358222769E-01  0.89110131373E+00  0.88000000000E+00 0.  1.
        -11    1    3    3    0    0 -0.51987058945E-01  0.12625822110E-02 -0.33021624437E-01  0.61603061718E-01  0.51100000000E-03 0.  1.
         11    1    3    3    0    0 -0.65152488766E-01 -0.14369672620E-01  0.26697611386E-02  0.66773670178E-01  0.51100000000E-03 0. -1.
</event>
<event>
 8    1  0.1097777E+005  0.1043930E+01  0.7957747E-01            NaN
         13   -1    0    0    0    0  0.00000000000E+00  0.00000000000E+00  0.74505805969E-08  0.10566000000E+00  0.10566000000E+00 0. -1.
     999900   -1    0    0    0    0 -0.00000000000E+00 -0.00000000000E+00 -0.74505805969E-08  0.93827000000E+00  0.93827000000E+00 0.  1.
     999902    2    1    2    0    0  0.17499729646E-01 -0.89631981006E-02  0.12187369230E-01  0.10207975244E+01  0.10205353862E+01 0.  0.
     999903    2    3    3    0    0  0.19500740551E-01 -0.36794981432E-01 -0.12161994041E+00  0.13024544378E+00  0.20936002010E-01 0.  0.
         14    1    1    2    0    0 -0.17499729646E-01  0.89631981006E-02 -0.12187369230E-01  0.23132475584E-01  0.00000000000E+00 0.  1.
     999901    1    3    3    0    0 -0.20010109047E-02  0.27831783331E-01  0.13380730964E+00  0.89055208063E+00  0.88000000000E+00 0. -1.
        -11    1    4    4    0    0  0.13677714881E-01 -0.30122434550E-01 -0.65015324732E-01  0.72949945296E-01  0.51100000000E-03 0.  1.
         11    1    4    4    0    0  0.58230256698E-02 -0.66725468821E-02 -0.56604615678E-01  0.57295498487E-01  0.51100000000E-03 0. -1.
</event>
<event>
 8    1  0.1097777E+005  0.1043930E+01  0.7957747E-01            NaN
         13   -1    0    0    0    0  0.00000000000E+00  0.00000000000E+00  0.74505805969E-08  0.10566000000E+00  0.10566000000E+00 0.  1.
     999900   -1    0    0    0    0 -0.00000000000E+00 -0.00000000000E+00 -0.74505805969E-08  0.93827000000E+00  0.93827000000E+00 0. -1.
     999902    2    1    2    0    0  0.21440103212E-01  0.69061820959E-02  0.82225470264E-02  0.10199511832E+01  0.10196692760E+01 0.  0.
     999903    2    3    3    0    0 -0.29126513598E-01 -0.12031634946E+00 -0.28849372374E-01  0.12859441819E+00  0.19490006696E-01 0.  0.
         14    1    1    2    0    0 -0.21440103212E-01 -0.69061820959E-02 -0.82225470264E-02  0.23978816829E-01  0.00000000000E+00 0. -1.
     999901    1    3    3    0    0  0.50566616810E-01  0.12722253156E+00  0.37071919400E-01  0.89135676498E+00  0.88000000000E+00 0.  1.
        -11    1    4    4    0    0 -0.48223452355E-02 -0.50693430263E-01 -0.18226848662E-01  0.54088427769E-01  0.51100000000E-03 0.  1.
         11    1    4    4    0    0 -0.24304168362E-01 -0.69622919199E-01 -0.10622523712E-01  0.74505990421E-01  0.51100000000E-03 0. -1.
</event>
<event>
 8    1  0.1097777E+005  0.1043930E+01  0.7957747E-01            NaN
         13   -1    0    0    0    0  0.00000000000E+00  0.00000000000E+00  0.74505805969E-08  0.10566000000E+00  0.10566000000E+00 0. -1.
     999900   -1    0    0    0    0 -0.00000000000E+00 -0.00000000000E+00 -0.74505805969E-08  0.93827000000E+00  0.93827000000E+00 0. -1.
     999902    2    1    2    0    0 -0.75277136418E-02  0.21951612507E-01  0.49270259831E-02  0.10202062703E+01  0.10199303989E+01 0.  0.
     999903    2    3    3    0    0 -0.60893639399E-01 -0.61705042272E-01  0.94921016553E-01  0.13006848535E+00  0.19805654136E-01 0.  0.
         14    1    1    2    0    0  0.75277136418E-02 -0.21951612507E-01 -0.49270259831E-02  0.23723729668E-01  0.00000000000E+00 0. -1.
     999901    1    3    3    0    0  0.53365925758E-01  0.83656654779E-01 -0.89993990570E-01  0.89013778499E+00  0.88000000000E+00 0. -1.
        -11    1    4    4    0    0 -0.55167462669E-01 -0.62163120125E-01  0.87704821570E-01  0.12083087059E+00  0.51100000000E-03 0.  1.
         11    1    4    4    0    0 -0.57261767306E-02  0.45807785333E-03  0.72161949828E-02  0.92376147516E-02  0.51100000000E-03 0. -1.
</event>
<event>
 8    1  0.1097777E+005  0.1043930E+01  0.7957747E-01            NaN
         13   -1    0    0    0    0  0.00000000000E+00  0.00000000000E+00  0.74505805969E-08  0.10566000000E+00  0.10566000000E+00 0. -1.
     999900   -1    0    0    0    0 -0.00000000000E+00 -0.00000000000E+00 -0.74505805969E-08  0.93827000000E+00  0.93827000000E+00 0. -1.
     999902    2    1    2    0    0  0.12413933966E-01  0.11824843365E-01  0.12074915854E-01  0.10229601104E+01  0.10227451546E+01 0.  0.
     999903    2    3    3    0    0 -0.33307120044E-02  0.12469281290E+00  0.47390144345E-01  0.13490930228E+00  0.19882223976E-01 0.  0.
         14    1    1    2    0    0 -0.12413933966E-01 -0.11824843365E-01 -0.12074915854E-01  0.20969889604E-01  0.00000000000E+00 0.  1.
     999901    1    3    3    0    0  0.15744645971E-01 -0.11286796954E+00 -0.35315228491E-01  0.88805080811E+00  0.88000000000E+00 0.  1.
        -11    1    4    4    0    0  0.50577440670E-02  0.99284553927E-01  0.34756762180E-01  0.10531522711E+00  0.51100000000E-03 0.  1.
         11    1    4    4    0    0 -0.83884560714E-02  0.25408258974E-01  0.12633382165E-01  0.29594075172E-01  0.51100000000E-03 0. -1.
</event>
<event>
 7    1  0.1097777E+005  0.1043930E+01  0.7957747E-01            NaN
         13   -1    0    0    0    0  0.00000000000E+00  0.00000000000E+00  0.74505805969E-08  0.10566000000E+00  0.10566000000E+00 0.  1.
     999900   -1    0    0    0    0 -0.00000000000E+00 -0.00000000000E+00 -0.74505805969E-08  0.93827000000E+00  0.93827000000E+00 0. -1.
     999903    2    1    2    0    0  0.50349744329E-01 -0.10326022494E+00  0.42303461804E-02  0.11807267367E+00  0.26934914691E-01 0.  0.
         14    1    1    2    0    0 -0.11238123729E-01  0.28556221950E-02  0.36552242858E-01  0.38347313609E-01  0.00000000000E+00 0.  1.
     999901    1    1    2    0    0 -0.39111620600E-01  0.10040460274E+00 -0.40782589038E-01  0.88751001272E+00  0.88000000000E+00 0.  1.
        -11    1    3    3    0    0  0.21726611270E-01 -0.19481845739E-01 -0.24334321807E-02  0.29287722067E-01  0.51100000000E-03 0. -1.
         11    1    3    3    0    0  0.28623133059E-01 -0.83778379200E-01  0.66637783611E-02  0.88784951600E-01  0.51100000000E-03 0.  1.
</event>
<event>
 8    1  0.1097777E+005  0.1043930E+01  0.7957747E-01            NaN
         13   -1    0    0    0    0  0.00000000000E+00  0.00000000000E+00  0.74505805969E-08  0.10566000000E+00  0.10566000000E+00 0. -1.
     999900   -1    0    0    0    0 -0.00000000000E+00 -0.00000000000E+00 -0.74505805969E-08  0.93827000000E+00  0.93827000000E+00 0. -1.
     999902    2    1    2    0    0 -0.11285158910E-01 -0.20460091279E-01  0.47611238085E-02  0.10200838589E+01  0.10198050994E+01 0.  0.
     999903    2    3    3    0    0 -0.97358259204E-01 -0.39995317525E-01  0.77989859284E-01  0.13264222622E+00  0.20815522265E-01 0.  0.
         14    1    1    2    0    0  0.11285158910E-01  0.20460091279E-01 -0.47611238085E-02  0.23846141128E-01  0.00000000000E+00 0.  1.
     999901    1    3    3    0    0  0.86073100294E-01  0.19535226246E-01 -0.73228735476E-01  0.88744163265E+00  0.88000000000E+00 0.  1.
        -11    1    4    4    0    0 -0.56406012230E-01 -0.31327382537E-01  0.55565964324E-01  0.85152102878E-01  0.51100000000E-03 0.  1.
         11    1    4    4    0    0 -0.40952246974E-01 -0.86679349879E-02  0.22423894961E-01  0.47490123345E-01  0.51100000000E-03 0. -1.
</event>
<event>
 8    1  0.1097777E+005  0.1043930E+01  0.7957747E-01            NaN
         13   -1    0    0    0    0  0.00000000000E+00  0.00000000000E+00  0.74505805969E-08  0.10566000000E+00  0.10566000000E+00 0. -1.
     999900   -1    0    0    0    0 -0.00000000000E+00 -0.00000000000E+00 -0.74505805969E-08  0.93827000000E+00  0.93827000000E+00 0. -1.
     999902    2    1    2    0    0 -0.30971764200E-01  0.10327356827E-01 -0.96205149587E-02  0.10098938606E+01  0.10093201429E+01 0.  0.
     999903    2    3    3    0    0 -0.98480937253E-01  0.36534289497E-01 -0.65113732513E-01  0.12517707600E+00  0.19906101667E-01 0.  0.
         14    1    1    2    0    0  0.30971764200E-01 -0.10327356827E-01  0.96205149587E-02  0.34036139393E-01  0.00000000000E+00 0. -1.
     999901    1    3    3    0    0  0.67509173052E-01 -0.26206932670E-01  0.55493217554E-01  0.88471678460E+00  0.88000000000E+00 0. -1.
        -11    1    4    4    0    0 -0.56243325751E-01  0.28638697661E-01 -0.31047733570E-01  0.70339957180E-01  0.51100000000E-03 0.  1.
         11    1    4    4    0    0 -0.42237611502E-01  0.78955918367E-02 -0.34065998942E-01  0.54837118823E-01  0.51100000000E-03 0. -1.
</event>
<event>
 8    1  0.1097777E+005  0.1043930E+01  0.7957747E-01            NaN
         13   -1    0    0    0    0  0.00000000000E+00  0.00000000000E+00  0.74505805969E-08  0.10566000000E+00  0.10566000000E+00 0. -1.
     999900   -1    0    0    0    0 -0.00000000000E+00 -0.00000000000E+00 -0.74505805969E-08  0.93827000000E+00  0.93827000000E+00 0. -1.
     999902    2    1    2    0    0 -0.20626678194E-01 -0.95676377393E-02  0.66102731084E-02  0.10202509955E+01  0.10199761755E+01 0.  0.
     999903    2    3    3    0    0  0.42984790234E-01  0.80962159344E-01 -0.88113471064E-01  0.12827865801E+00  0.16996084268E-01 0.  0.
         14    1    1    2    0    0  0.20626678194E-01  0.95676377393E-02 -0.66102731084E-02  0.23679004536E-01  0.00000000000E+00 0.  1.
     999901    1    3    3    0    0 -0.63611468428E-01 -0.90529797083E-01  0.94723744173E-01  0.89197233746E+00  0.88000000000E+00 0.  1.
        -11    1    4    4    0    0  0.32059694469E-01  0.56446770762E-01 -0.72106704609E-01  0.97024223313E-01  0.51100000000E-03 0. -1.
         11    1    4    4    0    0  0.10925095765E-01  0.24515388582E-01 -0.16006766455E-01  0.31254434696E-01  0.51100000000E-03 0.  1.
</event>
<event>
 8    1  0.1097777E+005  0.1043930E+01  0.7957747E-01            NaN
         13   -1    0    0    0    0  0.00000000000E+00  0.00000000000E+00  0.74505805969E-08  0.10566000000E+00  0.10566000000E+00 0. -1.
     999900   -1    0    0    0    0 -0.00000000000E+00 -0.00000000000E+00 -0.74505805969E-08  0.93827000000E+00  0.93827000000E+00 0. -1.
     999902    2    1    2    0    0 -0.23628636833E-01  0.29189499151E-01 -0.37064276541E-02  0.10061930560E+01  0.10054851510E+01 0.  0.
     999903    2    3    3    0    0 -0.67249922996E-01 -0.64100477130E-01 -0.69816827918E-01  0.11772447391E+00  0.18794653079E-01 0.  0.
         14    1    1    2    0    0  0.23628636833E-01 -0.29189499151E-01  0.37064276541E-02  0.37736944037E-01  0.00000000000E+00 0. -1.
     999901    1    3    3    0    0  0.43621286163E-01  0.93289976281E-01  0.66110400264E-01  0.88846858206E+00  0.88000000000E+00 0.  1.
        -11    1    4    4    0    0 -0.16449838851E-01 -0.23795622803E-01 -0.29736542964E-01  0.41489178966E-01  0.51100000000E-03 0.  1.
         11    1    4    4    0    0 -0.50800084145E-01 -0.40304854327E-01 -0.40080284955E-01  0.76235294940E-01  0.51100000000E-03 0. -1.
</event>
<event>
 8    1  0.1097777E+005  0.1043930E+01  0.7957747E-01            NaN
         13   -1    0    0    0    0  0.00000000000E+00  0.00000000000E+00  0.74505805969E-08  0.10566000000E+00  0.10566000000E+00 0. -1.
     999900   -1    0    0    0    0 -0.00000000000E+00 -0.00000000000E+00 -0.74505805969E-08  0.93827000000E+00  0.93827000000E+00 0.  1.
     999902    2    1    2    0    0  0.48473974382E-02 -0.21906947348E-01  0.75356366534E-02  0.10202615099E+01  0.10199869368E+01 0.  0.
     999903    2    3    3    0    0  0.10914968802E+00 -0.66451335434E-01 -0.25851461319E-01  0.13235505725E+00  0.22806331416E-01 0.  0.
         14    1    1    2    0    0 -0.48473974382E-02  0.21906947348E-01 -0.75356366534E-02  0.23668490104E-01  0.00000000000E+00 0. -1.
     999901    1    3    3    0    0 -0.10430229058E+00  0.44544388085E-01  0.33387097972E-01  0.88790645264E+00  0.88000000000E+00 0.  1.
        -11    1    4    4    0    0  0.92792930802E-01 -0.52282819944E-01 -0.29228371579E-01  0.11044718237E+00  0.51100000000E-03 0.  1.
         11    1    4    4    0    0  0.16356757219E-01 -0.14168515489E-01  0.33769102607E-02  0.21907874881E-01  0.51100000000E-03 0. -1.
</event>
<event>
 8    1  0.1097777E+005  0.1043930E+01  0.7957747E-01            NaN
         13   -1    0    0    0    0  0.00000000000E+00  0.00000000000E+00  0.74505805969E-08  0.10566000000E+00  0.10566000000E+00 0. -1.
     999900   -1    0    0    0    0 -0.00000000000E+00 -0.00000000000E+00 -0.74505805969E-08  0.93827000000E+00  0.93827000000E+00 0. -1.
     999902    2    1    2    0    0 -0.69866210885E-02 -0.82934204021E-02  0.20397673417E-01  0.10208289442E+01  0.10205675258E+01 0.  0.
     999903    2    3    3    0    0 -0.74443281027E-01 -0.92728583605E-01  0.55878415746E-01  0.13350793084E+00  0.23697635814E-01 0.  0.
         14    1    1    2    0    0  0.69866210885E-02  0.82934204021E-02 -0.20397673417E-01  0.23101055756E-01  0.00000000000E+00 0.  1.
     999901    1    3    3    0    0  0.67456659938E-01  0.84435163203E-01 -0.35480742329E-01  0.88732101341E+00  0.88000000000E+00 0.  1.
        -11    1    4    4    0    0 -0.69996496860E-01 -0.73854639205E-01  0.44929156993E-01  0.11123357215E+00  0.51100000000E-03 0. -1.
         11    1    4    4    0    0 -0.44467841671E-02 -0.18873944400E-01  0.10949258752E-01  0.22274358686E-01  0.51100000000E-03 0.  1.
</event>
<event>
 8    1  0.1097777E+005  0.1043930E+01  0.7957747E-01            NaN
         13   -1    0    0    0    0  0.00000000000E+00  0.00000000000E+00  0.74505805969E-08  0.10566000000E+00  0.10566000000E+00 0. -1.
     999900   -1    0    0    0    0 -0.00000000000E+00 -0.00000000000E+00 -0.74505805969E-08  0.93827000000E+00  0.93827000000E+00 0.  1.
     999902    2    1    2    0    0  0.40660873387E-02 -0.82781479002E-02  0.21778656983E-01  0.10202789810E+01  0.10200048178E+01 0.  0.
     999903    2    3    3    0    0 -0.26912366228E-01 -0.11982903487E+00  0.45388464673E-01  0.13238220324E+00  0.19536170442E-01 0.  0.
         14    1    1    2    0    0 -0.40660873387E-02  0.82781479002E-02 -0.21778656983E-01  0.23651018982E-01  0.00000000000E+00 0.  1.
     999901    1    3    3    0    0  0.30978453567E-01  0.11155088697E+00 -0.23609807691E-01  0.88789677778E+00  0.88000000000E+00 0. -1.
        -11    1    4    4    0    0 -0.13405312320E-02 -0.46275028425E-01  0.20447740926E-01  0.50611723046E-01  0.51100000000E-03 0. -1.
         11    1    4    4    0    0 -0.25571834996E-01 -0.73554006445E-01  0.24940723748E-01  0.81770480194E-01  0.51100000000E-03 0.  1.
</event>
<event>
 8    1  0.1097777E+005  0.1043930E+01  0.7957747E-01            NaN
         13   -1    0    0    0    0  0.00000000000E+00  0.00000000000E+00  0.74505805969E-08  0.10566000000E+00  0.10566000000E+00 0.  1.
     999900   -1    0    0    0    0 -0.00000000000E+00 -0.00000000000E+00 -0.74505805969E-08  0.93827000000E+00  0.93827000000E+00 0. -1.
     999902    2    1    2    0    0  0.20940233768E-01 -0.29723093755E-02 -0.10186053964E-01  0.10204548278E+01  0.10201847734E+01 0.  0.
     999903    2    3    3    0    0 -0.24882925624E-01 -0.11177155976E+00 -0.60698685520E-01  0.13113566984E+00  0.20004797456E-01 0.  0.
         14    1    1    2    0    0 -0.20940233768E-01  0.29723093755E-02  0.10186053964E-01  0.23475172175E-01  0.00000000000E+00 0.  1.
     999901    1    3    3    0    0  0.45823159392E-01  0.10879925038E+00  0.50512631556E-01  0.88931915799E+00  0.88000000000E+00 0.  1.
        -11    1    4    4    0    0 -0.12353611732E-02 -0.87764411134E-02  0.72120843373E-03  0.89069241857E-02  0.51100000000E-03 0. -1.
         11    1    4    4    0    0 -0.23647564451E-01 -0.10299511864E+00 -0.61419893953E-01  0.12222874565E+00  0.51100000000E-03 0.  1.
</event>
<event>
 8    1  0.1097777E+005  0.1043930E+01  0.7957747E-01            NaN
         13   -1    0    0    0    0  0.00000000000E+00  0.00000000000E+00  0.74505805969E-08  0.10566000000E+00  0.10566000000E+00 0. -1.
     999900   -1    0    0    0    0 -0.00000000000E+00 -0.00000000000E+00 -0.74505805969E-08  0.93827000000E+00  0.93827000000E+00 0. -1.
     999902    2    1    2    0    0  0.74508132324E-02 -0.20722860372E-01  0.41320585884E-02  0.10215240752E+01  0.10212783218E+01 0.  0.
     999903    2    3    3    0    0  0.10755112399E+00 -0.56596995815E-01 -0.50922790147E-01  0.13341481264E+00  0.20878636663E-01 0.  0.
         14    1    1    2    0    0 -0.74508132324E-02  0.20722860372E-01 -0.41320585884E-02  0.22405924842E-01  0.00000000000E+00 0.  1.
     999901    1    3    3    0    0 -0.10010031075E+00  0.35874135443E-01  0.55054848735E-01  0.88810926252E+00  0.88000000000E+00 0.  1.
        -11    1    4    4    0    0  0.19858477730E-01 -0.16078422310E-01 -0.34837096801E-02  0.25792870252E-01  0.51100000000E-03 0. -1.
         11    1    4    4    0    0  0.87692646255E-01 -0.40518573505E-01 -0.47439080467E-01  0.10762194238E+00  0.51100000000E-03 0.  1.
</event>
<event>
 8    1  0.1097777E+005  0.1043930E+01  0.7957747E-01            NaN
         13   -1    0    0    0    0  0.00000000000E+00  0.00000000000E+00  0.74505805969E-08  0.10566000000E+00  0.10566000000E+00 0.  1.
     999900   -1    0    0    0    0 -0.00000000000E+00 -0.00000000000E+00 -0.74505805969E-08  0.93827000000E+00  0.93827000000E+00 0. -1.
     999902    2    1    2    0    0 -0.10448534289E-01 -0.21406609096E-01  0.64938481967E-02  0.10192402279E+01  0.10189411452E+01 0.  0.
     999903    2    3    3    0    0  0.52753651027E-01 -0.47406918768E-01  0.10826551386E+00  0.13074261718E+00  0.18489099783E-01 0.  0.
         14    1    1    2    0    0  0.10448534289E-01  0.21406609096E-01 -0.64938481967E-02  0.24689772097E-01  0.00000000000E+00 0. -1.
     999901    1    3    3    0    0 -0.63202185316E-01  0.26000309671E-01 -0.10177166567E+00  0.88849761073E+00  0.88000000000E+00 0. -1.
        -11    1    4    4    0    0  0.37502044226E-01 -0.24371507601E-01  0.76721735396E-01  0.88807992360E-01  0.51100000000E-03 0. -1.
         11    1    4    4    0    0  0.15251606801E-01 -0.23035411167E-01  0.31543778468E-01  0.41934624818E-01  0.51100000000E-03 0.  1.
</event>
<event>
 8    1  0.1097777E+005  0.1043930E+01  0.7957747E-01            NaN
         13   -1    0    0    0    0  0.00000000000E+00  0.00000000000E+00  0.74505805969E-08  0.10566000000E+00  0.10566000000E+00 0. -1.
     999900   -1    0    0    0    0 -0.00000000000E+00 -0.00000000000E+00 -0.74505805969E-08  0.93827000000E+00  0.93827000000E+00 0. -1.
     999902    2    1    2    0    0  0.17597215865E-01 -0.52352436099E-03  0.15789022388E-01  0.10202819702E+01  0.10200078772E+01 0.  0.
     999903    2    3    3    0    0 -0.32250354319E-01  0.12380880372E+00  0.11951937447E-01  0.13013702064E+00  0.20593447992E-01 0.  0.
         14    1    1    2    0    0 -0.17597215865E-01  0.52352436099E-03 -0.15789022388E-01  0.23648029768E-01  0.00000000000E+00 0. -1.
     999901    1    3    3    0    0  0.49847570184E-01 -0.12433232808E+00  0.38370849406E-02  0.89014494959E+00  0.88000000000E+00 0.  1.
        -11    1    4    4    0    0 -0.51684275900E-02  0.12306205504E-01 -0.47618594343E-02  0.14180682774E-01  0.51100000000E-03 0.  1.
         11    1    4    4    0    0 -0.27081926729E-01  0.11150259822E+00  0.16713796882E-01  0.11595633787E+00  0.51100000000E-03 0. -1.
</event>
<event>
 8    1  0.1097777E+005  0.1043930E+01  0.7957747E-01            NaN
         13   -1    0    0    0    0  0.00000000000E+00  0.00000000000E+00  0.74505805969E-08  0.10566000000E+00  0.10566000000E+00 0.  1.
     999900   -1    0    0    0    0 -0.00000000000E+00 -0.00000000000E+00 -0.74505805969E-08  0.93827000000E+00  0.93827000000E+00 0.  1.
     999902    2    1    2    0    0  0.15083038976E-01  0.17836479086E-01  0.27287502057E-02  0.10204122593E+01  0.10201412131E+01 0.  0.
     999903    2    3    3    0    0  0.19821815391E-01 -0.12525149819E+00  0.93414681941E-02  0.12881798312E+00  0.20638982129E-01 0.  0.
         14    1    1    2    0    0 -0.15083038976E-01 -0.17836479086E-01 -0.27287502057E-02  0.23517740721E-01  0.00000000000E+00 0.  1.
     999901    1    3    3    0    0 -0.47387764155E-02  0.14308797727E+00 -0.66127179884E-02  0.89159427616E+00  0.88000000000E+00 0.  1.
        -11    1    4    4    0    0  0.31119088454E-03 -0.67727382056E-01  0.54225843897E-02  0.67946748725E-01  0.51100000000E-03 0. -1.
         11    1    4    4    0    0  0.19510624507E-01 -0.57524116132E-01  0.39188838043E-02  0.60871234394E-01  0.51100000000E-03 0.  1.
</event>
<event>
 8    1  0.1097777E+005  0.1043930E+01  0.7957747E-01            NaN
         13   -1    0    0    0    0  0.00000000000E+00  0.00000000000E+00  0.74505805969E-08  0.10566000000E+00  0.10566000000E+00 0.  1.
     999900   -1    0    0    0    0 -0.00000000000E+00 -0.00000000000E+00 -0.74505805969E-08  0.93827000000E+00  0.93827000000E+00 0. -1.
     999902    2    1    2    0    0  0.11013309452E-01 -0.20777785847E-01  0.83646707997E-02  0.10189704910E+01  0.10186647557E+01 0.  0.
     999903    2    3    3    0    0  0.89590879570E-02 -0.12387907503E+00  0.41003902831E-01  0.13234801494E+00  0.20208575546E-01 0.  0.
         14    1    1    2    0    0 -0.11013309452E-01  0.20777785847E-01 -0.83646707997E-02  0.24959508957E-01  0.00000000000E+00 0. -1.
     999901    1    3    3    0    0  0.20542214953E-02  0.10310128918E+00 -0.32639232031E-01  0.88662247610E+00  0.88000000000E+00 0. -1.
        -11    1    4    4    0    0  0.13927833864E-01 -0.59745161620E-01  0.23336976624E-01  0.65637980561E-01  0.51100000000E-03 0.  1.
         11    1    4    4    0    0 -0.49687459066E-02 -0.64133913407E-01  0.17666926208E-01  0.66710034383E-01  0.51100000000E-03 0. -1.
</event>
<event>
 8    1  0.1097777E+005  0.1043930E+01  0.7957747E-01            NaN
         13   -1    0    0    0    0  0.00000000000E+00  0.00000000000E+00  0.74505805969E-08  0.10566000000E+00  0.10566000000E+00 0.  1.
     999900   -1    0    0    0    0 -0.00000000000E+00 -0.00000000000E+00 -0.74505805969E-08  0.93827000000E+00  0.93827000000E+00 0.  1.
     999902    2    1    2    0    0  0.29765679472E-02  0.38042448164E-02 -0.22886898880E-01  0.10205389253E+01  0.10202708247E+01 0.  0.
     999903    2    3    3    0    0  0.47774713399E-01  0.11411335007E+00  0.36883713720E-01  0.13051224105E+00  0.19203042006E-01 0.  0.
         14    1    1    2    0    0 -0.29765679472E-02 -0.38042448164E-02  0.22886898880E-01  0.23391074702E-01  0.00000000000E+00 0.  1.
     999901    1    3    3    0    0 -0.44798145452E-01 -0.11030910525E+00 -0.59770612600E-01  0.89002668425E+00  0.88000000000E+00 0.  1.
        -11    1    4    4    0    0  0.41822934069E-01  0.81105035520E-01  0.31499319879E-01  0.96538349244E-01  0.51100000000E-03 0.  1.
         11    1    4    4    0    0  0.59517793302E-02  0.33008314550E-01  0.53843938406E-02  0.33973891809E-01  0.51100000000E-03 0. -1.
</event>
<event>
 8    1  0.1097777E+005  0.1043930E+01  0.7957747E-01            NaN
         13   -1    0    0    0    0  0.00000000000E+00  0.00000000000E+00  0.74505805969E-08  0.10566000000E+00  0.10566000000E+00 0. -1.
     999900   -1    0    0    0    0 -0.00000000000E+00 -0.00000000000E+00 -0.74505805969E-08  0.93827000000E+00  0.93827000000E+00 0.  1.
     999902    2    1    2    0    0  0.97864521543E-02  0.12449595529E-01  0.20295585238E-01  0.10181874699E+01  0.10178619975E+01 0.  0.
     999903    2    3    3    0    0 -0.46644375399E-01  0.32534702547E-01 -0.11098989849E+00  0.12643429328E+00  0.20800680854E-01 0.  0.
         14    1    1    2    0    0 -0.97864521543E-02 -0.12449595529E-01 -0.20295585238E-01  0.25742530077E-01  0.00000000000E+00 0.  1.
     999901    1    3    3    0    0  0.56430827553E-01 -0.20085107018E-01  0.13128548373E+00  0.89175317665E+00  0.88000000000E+00 0. -1.
        -11    1    4    4    0    0 -0.10703435870E-01  0.18829114489E-01 -0.47352052513E-01  0.52072805667E-01  0.51100000000E-03 0. -1.
         11    1    4    4    0    0 -0.35940939529E-01  0.13705588058E-01 -0.63637845974E-01  0.74361487609E-01  0.51100000000E-03 0.  1.
</event>
<event>
 8    1  0.1097777E+005  0.1043930E+01  0.7957747E-01            NaN
         13   -1    0    0    0    0  0.00000000000E+00  0.00000000000E+00  0.74505805969E-08  0.10566000000E+00  0.10566000000E+00 0. -1.
     999900   -1    0    0    0    0 -0.00000000000E+00 -0.00000000000E+00 -0.74505805969E-08  0.93827000000E+00  0.93827000000E+00 0.  1.
     999902    2    1    2    0    0 -0.31873744941E-02 -0.23141256860E-01  0.54923562692E-02  0.10199332689E+01  0.10196509353E+01 0.  0.
     999903    2    3    3    0    0  0.12060013806E+00 -0.35773995854E-01  0.29554213360E-01  0.13085402199E+00  0.20619201351E-01 0.  0.
         14    1    1    2    0    0  0.31873744941E-02  0.23141256860E-01 -0.54923562692E-02  0.23996731082E-01  0.00000000000E+00 0. -1.
     999901    1    3    3    0    0 -0.12378751255E+00  0.12632738993E-01 -0.24061857091E-01  0.88907924693E+00  0.88000000000E+00 0.  1.
        -11    1    4    4    0    0  0.52011244919E-01 -0.24718641173E-01  0.18612814367E-01  0.60521721714E-01  0.51100000000E-03 0.  1.
         11    1    4    4    0    0  0.68588893136E-01 -0.11055354681E-01  0.10941398993E-01  0.70332300273E-01  0.51100000000E-03 0. -1.
</event>
<event>
 8    1  0.1097777E+005  0.1043930E+01  0.7957747E-01            NaN
         13   -1    0    0    0    0  0.00000000000E+00  0.00000000000E+00  0.74505805969E-08  0.10566000000E+00  0.10566000000E+00 0.  1.
     999900   -1    0    0    0    0 -0.00000000000E+00 -0.00000000000E+00 -0.74505805969E-08  0.93827000000E+00  0.93827000000E+00 0.  1.
     999902    2    1    2    0    0 -0.14062095612E-01  0.77801090417E-02  0.15821179470E-01  0.10213782296E+01  0.10211292306E+01 0.  0.
     999903    2    3    3    0    0 -0.49284770108E-01 -0.58267360251E-01 -0.10311632053E+00  0.13022783042E+00  0.22410676519E-01 0.  0.
         14    1    1    2    0    0  0.14062095612E-01 -0.77801090417E-02 -0.15821179470E-01  0.22551770430E-01  0.00000000000E+00 0. -1.
     999901    1    3    3    0    0  0.35222674497E-01  0.66047469293E-01  0.11893750000E+00  0.89115039915E+00  0.88000000000E+00 0. -1.
        -11    1    4    4    0    0 -0.29380384031E-01 -0.31159540541E-01 -0.39481484961E-01  0.58250945986E-01  0.51100000000E-03 0. -1.
         11    1    4    4    0    0 -0.19904386077E-01 -0.27107819710E-01 -0.63634835565E-01  0.71976884435E-01  0.51100000000E-03 0.  1.
</event>
<event>
 8    1  0.1097777E+005  0.1043930E+01  0.7957747E-01            NaN
         13   -1    0    0    0    0  0.00000000000E+00  0.00000000000E+00  0.74505805969E-08  0.10566000000E+00  0.10566000000E+00 0. -1.
     999900   -1    0    0    0    0 -0.00000000000E+00 -0.00000000000E+00 -0.74505805969E-08  0.93827000000E+00  0.93827000000E+00 0.  1.
     999902    2    1    2    0    0  0.43742995968E-02  0.49380531031E-02  0.23112357681E-01  0.10198946106E+01  0.10196113558E+01 0.  0.
     999903    2    3    3    0    0  0.50381343808E-01 -0.11750044632E+00  0.12769992266E-01  0.13016723732E+00  0.20875877982E-01 0.  0.
         14    1    1    2    0    0 -0.43742995968E-02 -0.49380531031E-02 -0.23112357681E-01  0.24035389387E-01  0.00000000000E+00 0.  1.
     999901    1    3    3    0    0 -0.46007044212E-01  0.12243849942E+00  0.10342365415E-01  0.88972737329E+00  0.88000000000E+00 0.  1.
        -11    1    4    4    0    0  0.35945141480E-01 -0.57949210084E-01  0.46337672808E-02  0.68351276986E-01  0.51100000000E-03 0. -1.
         11    1    4    4    0    0  0.14436202328E-01 -0.59551236234E-01  0.81362249847E-02  0.61815960339E-01  0.51100000000E-03 0.  1.
</event>
<event>
 8    1  0.1097777E+005  0.1043930E+01  0.7957747E-01            NaN
         13   -1    0    0    0    0  0.00000000000E+00  0.00000000000E+00  0.74505805969E-08  0.10566000000E+00  0.10566000000E+00 0. -1.
     999900   -1    0    0    0    0 -0.00000000000E+00 -0.00000000000E+00 -0.74505805969E-08  0.93827000000E+00  0.93827000000E+00 0.  1.
     999902    2    1    2    0    0 -0.82984934839E-02  0.22422222862E-01  0.61333859942E-02  0.10192472227E+01  0.10189483115E+01 0.  0.
     999903    2    3    3    0    0  0.10346122094E+00  0.36707001935E-01 -0.65162921491E-01  0.12920371131E+00  0.19893829444E-01 0.  0.
         14    1    1    2    0    0  0.82984934839E-02 -0.22422222862E-01 -0.61333859942E-02  0.24682777314E-01  0.00000000000E+00 0.  1.
     999901    1    3    3    0    0 -0.11175971442E+00 -0.14284779073E-01  0.71296307485E-01  0.89004351138E+00  0.88000000000E+00 0. -1.
        -11    1    4    4    0    0  0.36323173828E-01  0.16469778228E-01 -0.34231311891E-01  0.52561110972E-01  0.51100000000E-03 0.  1.
         11    1    4    4    0    0  0.67138047110E-01  0.20237223707E-01 -0.30931609600E-01  0.76642600338E-01  0.51100000000E-03 0. -1.
</event>
<event>
 8    1  0.1097777E+005  0.1043930E+01  0.7957747E-01            NaN
         13   -1    0    0    0    0  0.00000000000E+00  0.00000000000E+00  0.74505805969E-08  0.10566000000E+00  0.10566000000E+00 0. -1.
     999900   -1    0    0    0    0 -0.00000000000E+00 -0.00000000000E+00 -0.74505805969E-08  0.93827000000E+00  0.93827000000E+00 0.  1.
     999902    2    1    2    0    0 -0.16445497481E-01 -0.42404577123E-02  0.15621602150E-01  0.10208546815E+01  0.10205938519E+01 0.  0.
     999903    2    3    3    0    0 -0.60741141032E-01 -0.11062142421E+00  0.37098170869E-01  0.13308204336E+00  0.20198274085E-01 0.  0.
         14    1    1    2    0    0  0.16445497481E-01  0.42404577123E-02 -0.15621602150E-01  0.23075318475E-01  0.00000000000E+00 0.  1.
     999901    1    3    3    0    0  0.44295643551E-01  0.10638096649E+00 -0.21476568719E-01  0.88777263816E+00  0.88000000000E+00 0.  1.
        -11    1    4    4    0    0 -0.18823067063E-04 -0.11278005317E-01  0.46740090653E-02  0.12218888656E-01  0.51100000000E-03 0.  1.
         11    1    4    4    0    0 -0.60722317965E-01 -0.99343418888E-01  0.32424161804E-01  0.12086315470E+00  0.51100000000E-03 0. -1.
</event>
<event>
 7    1  0.1160900E+005  0.1043930E+01  0.7957747E-01            NaN
         13   -1    0    0    0    0  0.00000000000E+00  0.00000000000E+00  0.74505805969E-08  0.10566000000E+00  0.10566000000E+00 0.  1.
     999900   -1    0    0    0    0 -0.00000000000E+00 -0.00000000000E+00 -0.74505805969E-08  0.93827000000E+00  0.93827000000E+00 0.  1.
     999903    2    1    2    0    0 -0.11628696179E-01 -0.59548102696E-01 -0.95927126399E-01  0.11507593368E+00  0.18953992264E-01 0.  0.
         14    1    1    2    0    0 -0.33689431989E-01  0.93139205941E-03  0.26763198555E-01  0.43036195415E-01  0.00000000000E+00 0. -1.
     999901    1    1    2    0    0  0.45318128168E-01  0.58616710637E-01  0.69163927845E-01  0.88581787091E+00  0.88000000000E+00 0.  1.
        -11    1    3    3    0    0 -0.13486916597E-01 -0.21281056730E-01 -0.35864135519E-01  0.43832381094E-01  0.51100000000E-03 0. -1.
         11    1    3    3    0    0  0.18582204177E-02 -0.38267045966E-01 -0.60062990880E-01  0.71243552583E-01  0.51100000000E-03 0.  1.
</event>
<event>
 8    1  0.1097777E+005  0.1043930E+01  0.7957747E-01            NaN
         13   -1    0    0    0    0  0.00000000000E+00  0.00000000000E+00  0.74505805969E-08  0.10566000000E+00  0.10566000000E+00 0.  1.
     999900   -1    0    0    0    0 -0.00000000000E+00 -0.00000000000E+00 -0.74505805969E-08  0.93827000000E+00  0.93827000000E+00 0. -1.
     999902    2    1    2    0    0  0.15358426437E-01 -0.16340194814E-01  0.88023018863E-02  0.10198392601E+01  0.10195546835E+01 0.  0.
     999903    2    3    3    0    0  0.65103448258E-01  0.53906966762E-01 -0.96873723895E-01  0.12934689445E+00  0.14201432380E-01 0.  0.
         14    1    1    2    0    0 -0.15358426437E-01  0.16340194814E-01 -0.88023018863E-02  0.24090739874E-01  0.00000000000E+00 0.  1.
     999901    1    3    3    0    0 -0.49745021821E-01 -0.70247161575E-01  0.10567602578E+00  0.89049236568E+00  0.88000000000E+00 0.  1.
        -11    1    4    4    0    0  0.59933112607E-01  0.46257812505E-01 -0.80268272049E-01  0.11034047228E+00  0.51100000000E-03 0.  1.
         11    1    4    4    0    0  0.51703356510E-02  0.76491542563E-02 -0.16605451846E-01  0.19006422167E-01  0.51100000000E-03 0. -1.
</event>
<event>
 8    1  0.1097777E+005  0.1043930E+01  0.7957747E-01            NaN
         13   -1    0    0    0    0  0.00000000000E+00  0.00000000000E+00  0.74505805969E-08  0.10566000000E+00  0.10566000000E+00 0.  1.
     999900   -1    0    0    0    0 -0.00000000000E+00 -0.00000000000E+00 -0.74505805969E-08  0.93827000000E+00  0.93827000000E+00 0.  1.
     999902    2    1    2    0    0  0.22629937474E-01 -0.91217500404E-02  0.93422323784E-02  0.10178034292E+01  0.10174680451E+01 0.  0.
     999903    2    3    3    0    0  0.21319734066E-01 -0.65630919905E-01 -0.10651848770E+00  0.12841110334E+00  0.19526252378E-01 0.  0.
         14    1    1    2    0    0 -0.22629937474E-01  0.91217500404E-02 -0.93422323784E-02  0.26126570760E-01  0.00000000000E+00 0.  1.
     999901    1    3    3    0    0  0.13102034076E-02  0.56509169864E-01  0.11586072008E+00  0.88939232590E+00  0.88000000000E+00 0. -1.
        -11    1    4    4    0    0  0.18627550501E-01 -0.43712884960E-01 -0.86039734666E-01  0.98289872375E-01  0.51100000000E-03 0. -1.
         11    1    4    4    0    0  0.26921835647E-02 -0.21918034945E-01 -0.20478753031E-01  0.30121230966E-01  0.51100000000E-03 0.  1.
</event>
<event>
 8    1  0.1097777E+005  0.1043930E+01  0.7957747E-01            NaN
         13   -1    0    0    0    0  0.00000000000E+00  0.00000000000E+00  0.74505805969E-08  0.10566000000E+00  0.10566000000E+00 0.  1.
     999900   -1    0    0    0    0 -0.00000000000E+00 -0.00000000000E+00 -0.74505805969E-08  0.93827000000E+00  0.93827000000E+00 0. -1.
     999902    2    1    2    0    0 -0.52870764218E-02  0.23264459508E-01 -0.20095075681E-02  0.10199878536E+01  0.10197068182E+01 0.  0.
     999903    2    3    3    0    0 -0.91188265371E-01  0.63603136008E-01 -0.68807983560E-01  0.13236841968E+00  0.20644642792E-01 0.  0.
         14    1    1    2    0    0  0.52870764218E-02 -0.23264459508E-01  0.20095075681E-02  0.23942146394E-01  0.00000000000E+00 0.  1.
     999901    1    3    3    0    0  0.85901188949E-01 -0.40338676500E-01  0.66798475992E-01  0.88761943392E+00  0.88000000000E+00 0.  1.
        -11    1    4    4    0    0 -0.20960549239E-01  0.21896040617E-01 -0.27066833922E-01  0.40640568877E-01  0.51100000000E-03 0.  1.
         11    1    4    4    0    0 -0.70227716133E-01  0.41707095390E-01 -0.41741149638E-01  0.91727850804E-01  0.51100000000E-03 0. -1.
</event>
<event>
 8    1  0.1097777E+005  0.1043930E+01  0.7957747E-01            NaN
         13   -1    0    0    0    0  0.00000000000E+00  0.00000000000E+00  0.74505805969E-08  0.10566000000E+00  0.10566000000E+00 0.  1.
     999900   -1    0    0    0    0 -0.00000000000E+00 -0.00000000000E+00 -0.74505805969E-08  0.93827000000E+00  0.93827000000E+00 0. -1.
     999902    2    1    2    0    0  0.20697321589E-01  0.81647935202E-02  0.60293014690E-02  0.10208779838E+01  0.10206176867E+01 0.  0.
     999903    2    3    3    0    0  0.50025993544E-01  0.79570756413E-01 -0.90967608519E-01  0.13218940895E+00  0.19100490399E-01 0.  0.
         14    1    1    2    0    0 -0.20697321589E-01 -0.81647935202E-02 -0.60293014690E-02  0.23052016190E-01  0.00000000000E+00 0.  1.
     999901    1    3    3    0    0 -0.29328671954E-01 -0.71405962893E-01  0.96996909988E-01  0.88868857486E+00  0.88000000000E+00 0.  1.
        -11    1    4    4    0    0  0.32826859012E-01  0.47601633631E-01 -0.67851325592E-01  0.89149210331E-01  0.51100000000E-03 0.  1.
         11    1    4    4    0    0  0.17199134531E-01  0.31969122783E-01 -0.23116282926E-01  0.43040198622E-01  0.51100000000E-03 0. -1.
</event>
<event>
 8    1  0.1097777E+005  0.1043930E+01  0.7957747E-01            NaN
         13   -1    0    0    0    0  0.00000000000E+00  0.00000000000E+00  0.74505805969E-08  0.10566000000E+00  0.10566000000E+00 0. -1.
     999900   -1    0    0    0    0 -0.00000000000E+00 -0.00000000000E+00 -0.74505805969E-08  0.93827000000E+00  0.93827000000E+00 0. -1.
     999902    2    1    2    0    0  0.57504689160E-02  0.10564152003E-01 -0.20468687640E-01  0.10201889728E+01  0.10199126942E+01 0.  0.
     999903    2    3    3    0    0 -0.71324682699E-03 -0.92159258773E-01 -0.91410623971E-01  0.13135454664E+00  0.20106641926E-01 0.  0.
         14    1    1    2    0    0 -0.57504689160E-02 -0.10564152003E-01  0.20468687640E-01  0.23741027231E-01  0.00000000000E+00 0. -1.
     999901    1    3    3    0    0  0.64637157429E-02  0.10272341078E+00  0.70941936332E-01  0.88883442613E+00  0.88000000000E+00 0. -1.
        -11    1    4    4    0    0  0.42222201772E-02 -0.34727404967E-01 -0.22884759452E-01  0.41806615926E-01  0.51100000000E-03 0.  1.
         11    1    4    4    0    0 -0.49354670042E-02 -0.57431853806E-01 -0.68525864519E-01  0.89547930714E-01  0.51100000000E-03 0. -1.
</event>
<event>
 8    1  0.1097777E+005  0.1043930E+01  0.7957747E-01            NaN
         13   -1    0    0    0    0  0.00000000000E+00  0.00000000000E+00  0.74505805969E-08  0.10566000000E+00  0.10566000000E+00 0. -1.
     999900   -1    0    0    0    0 -0.00000000000E+00 -0.00000000000E+00 -0.74505805969E-08  0.93827000000E+00  0.93827000000E+00 0.  1.
     999902    2    1    2    0    0 -0.94301234061E-03  0.18892933234E-01  0.13722541298E-01  0.10205603543E+01  0.10202927504E+01 0.  0.
     999903    2    3    3    0    0 -0.15908194449E-01  0.66168328391E-01 -0.10956684250E+00  0.13058328058E+00  0.20390729740E-01 0.  0.
         14    1    1    2    0    0  0.94301234061E-03 -0.18892933234E-01 -0.13722541298E-01  0.23369645658E-01  0.00000000000E+00 0.  1.
     999901    1    3    3    0    0  0.14965182108E-01 -0.47275395157E-01  0.12328938380E+00  0.88997707376E+00  0.88000000000E+00 0. -1.
        -11    1    4    4    0    0 -0.60771559638E-02  0.18254364325E-01 -0.16107126206E-01  0.25096897760E-01  0.51100000000E-03 0.  1.
         11    1    4    4    0    0 -0.98310384852E-02  0.47913964066E-01 -0.93459716293E-01  0.10548638282E+00  0.51100000000E-03 0. -1.
</event>
<event>
 8    1  0.1097777E+005  0.1043930E+01  0.7957747E-01            NaN
         13   -1    0    0    0    0  0.00000000000E+00  0.00000000000E+00  0.74505805969E-08  0.10566000000E+00  0.10566000000E+00 0.  1.
     999900   -1    0    0    0    0 -0.00000000000E+00 -0.00000000000E+00 -0.74505805969E-08  0.93827000000E+00  0.93827000000E+00 0.  1.
     999902    2    1    2    0    0  0.90796019332E-03  0.20765594323E-01  0.10649603094E-01  0.10205751644E+01  0.10203079035E+01 0.  0.
     999903    2    3    3    0    0 -0.45001035231E-01  0.98548822781E-01 -0.72775235115E-01  0.13202715213E+00  0.19949195757E-01 0.  0.
         14    1    1    2    0    0 -0.90796019332E-03 -0.20765594323E-01 -0.10649603094E-01  0.23354835589E-01  0.00000000000E+00 0.  1.
     999901    1    3    3    0    0  0.45908995424E-01 -0.77783228458E-01  0.83424838209E-01  0.88854801228E+00  0.88000000000E+00 0. -1.
        -11    1    4    4    0    0 -0.43120217638E-02  0.44882309409E-02 -0.10165258164E-01  0.11930270039E-01  0.51100000000E-03 0. -1.
         11    1    4    4    0    0 -0.40689013467E-01  0.94060591840E-01 -0.62609976951E-01  0.12009688210E+00  0.51100000000E-03 0.  1.
</event>
<event>
 8    1  0.1097777E+005  0.1043930E+01  0.7957747E-01            NaN
         13   -1    0    0    0    0  0.00000000000E+00  0.00000000000E+00  0.74505805969E-08  0.10566000000E+00  0.10566000000E+00 0.  1.
     999900   -1    0    0    0    0 -0.00000000000E+00 -0.00000000000E+00 -0.74505805969E-08  0.93827000000E+00  0.93827000000E+00 0.  1.
     999902    2    1    2    0    0  0.10858166122E-01  0.13819571798E-01  0.15754319155E-01  0.10203274809E+01  0.10200544541E+01 0.  0.
     999903    2    3    3    0    0  0.58581572384E-01  0.19605352944E-01 -0.11234078907E+00  0.12975499338E+00  0.19993372184E-01 0.  0.
         14    1    1    2    0    0 -0.10858166122E-01 -0.13819571798E-01 -0.15754319155E-01  0.23602519108E-01  0.00000000000E+00 0. -1.
     999901    1    3    3    0    0 -0.47723406262E-01 -0.57857811452E-02  0.12809510822E+00  0.89057248752E+00  0.88000000000E+00 0. -1.
        -11    1    4    4    0    0  0.20039367636E-01 -0.15739411018E-03 -0.49751100220E-01  0.53637991408E-01  0.51100000000E-03 0.  1.
         11    1    4    4    0    0  0.38542204748E-01  0.19762747054E-01 -0.62589688845E-01  0.76117001969E-01  0.51100000000E-03 0. -1.
</event>
<event>
 8    1  0.1097777E+005  0.1043930E+01  0.7957747E-01            NaN
         13   -1    0    0    0    0  0.00000000000E+00  0.00000000000E+00  0.74505805969E-08  0.10566000000E+00  0.10566000000E+00 0. -1.
     999900   -1    0    0    0    0 -0.00000000000E+00 -0.00000000000E+00 -0.74505805969E-08  0.93827000000E+00  0.93827000000E+00 0. -1.
     999902    2    1    2    0    0 -0.17722289737E-01 -0.77153868180E-02  0.13837179715E-01  0.10201587087E+01  0.10198817170E+01 0.  0.
     999903    2    3    3    0    0 -0.11548184642E+00 -0.62996303374E-01  0.23067229477E-02  0.13294629779E+00  0.19099896125E-01 0.  0.
         14    1    1    2    0    0  0.17722289737E-01  0.77153868180E-02 -0.13837179715E-01  0.23771291293E-01  0.00000000000E+00 0.  1.
     999901    1    3    3    0    0  0.97759556687E-01  0.55280916556E-01  0.11530456768E-01  0.88721241092E+00  0.88000000000E+00 0.  1.
        -11    1    4    4    0    0 -0.56437920712E-02 -0.61006564263E-02 -0.36748315587E-02  0.91014232821E-02  0.51100000000E-03 0. -1.
         11    1    4    4    0    0 -0.10983805435E+00 -0.56895646948E-01  0.59815545064E-02  0.12384487450E+00  0.51100000000E-03 0.  1.
</event>
<event>
 8    1  0.1097777E+005  0.1043930E+01  0.7957747E-01            NaN
         13   -1    0    0    0    0  0.00000000000E+00  0.00000000000E+00  0.74505805969E-08  0.10566000000E+00  0.10566000000E+00 0.  1.
     999900   -1    0    0    0    0 -0.00000000000E+00 -0.00000000000E+00 -0.74505805969E-08  0.93827000000E+00  0.93827000000E+00 0.  1.
     999902    2    1    2    0    0 -0.21426413169E-01 -0.79335929910E-02  0.73083862062E-02  0.10199415530E+01  0.10196594167E+01 0.  0.
     999903    2    3    3    0    0  0.30300586565E-01 -0.79079706325E-01  0.97838133904E-01  0.13093475488E+00  0.19997102055E-01 0.  0.
         14    1    1    2    0    0  0.21426413169E-01  0.79335929910E-02 -0.73083862062E-02  0.23988446969E-01  0.00000000000E+00 0. -1.
     999901    1    3    3    0    0 -0.51726999734E-01  0.71146113334E-01 -0.90529747697E-01  0.88900679815E+00  0.88000000000E+00 0.  1.
        -11    1    4    4    0    0  0.20065094999E-01 -0.34187679319E-01  0.34028930008E-01  0.52245905610E-01  0.51100000000E-03 0. -1.
         11    1    4    4    0    0  0.10235491565E-01 -0.44892027006E-01  0.63809203895E-01  0.78688849268E-01  0.51100000000E-03 0.  1.
</event>
<event>
 8    1  0.1097777E+005  0.1043930E+01  0.7957747E-01            NaN
         13   -1    0    0    0    0  0.00000000000E+00  0.00000000000E+00  0.74505805969E-08  0.10566000000E+00  0.10566000000E+00 0.  1.
     999900   -1    0    0    0    0 -0.00000000000E+00 -0.00000000000E+00 -0.74505805969E-08  0.93827000000E+00  0.93827000000E+00 0.  1.
     999902    2    1    2    0    0  0.84246191816E-02 -0.93731197300E-02 -0.19957423938E-01  0.10203264335E+01  0.10200533822E+01 0.  0.
     999903    2    3    3    0    0 -0.33139623588E-01 -0.30899847398E-01 -0.12357664776E+00  0.13301142188E+00  0.19178510283E-01 0.  0.
         14    1    1    2    0    0 -0.84246191816E-02  0.93731197300E-02  0.19957423938E-01  0.23603566512E-01  0.00000000000E+00 0.  1.
     999901    1    3    3    0    0  0.41564242769E-01  0.21526727668E-01  0.10361922383E+00  0.88731501161E+00  0.88000000000E+00 0. -1.
        -11    1    4    4    0    0 -0.17941885813E-01 -0.24799345161E-01 -0.97699050963E-01  0.10238302822E+00  0.51100000000E-03 0.  1.
         11    1    4    4    0    0 -0.15197737775E-01 -0.61005022369E-02 -0.25877596801E-01  0.30628393661E-01  0.51100000000E-03 0. -1.
</event>
<event>
 8    1  0.1097777E+005  0.1043930E+01  0.7957747E-01            NaN
         13   -1    0    0    0    0  0.00000000000E+00  0.00000000000E+00  0.74505805969E-08  0.10566000000E+00  0.10566000000E+00 0. -1.
     999900   -1    0    0    0    0 -0.00000000000E+00 -0.00000000000E+00 -0.74505805969E-08  0.93827000000E+00  0.93827000000E+00 0. -1.
     999902    2    1    2    0    0  0.15212094833E-01 -0.16057309299E-01 -0.98310130735E-02  0.10197247562E+01  0.10194374353E+01 0.  0.
     999903    2    3    3    0    0 -0.31079037190E-01 -0.11746028004E+00 -0.47480104338E-01  0.13189431883E+00  0.19466049767E-01 0.  0.
         14    1    1    2    0    0 -0.15212094833E-01  0.16057309299E-01  0.98310130735E-02  0.24205243836E-01  0.00000000000E+00 0. -1.
     999901    1    3    3    0    0  0.46291132023E-01  0.10140297074E+00  0.37649091264E-01  0.88783043733E+00  0.88000000000E+00 0. -1.
        -11    1    4    4    0    0 -0.21342106950E-01 -0.46463984340E-01 -0.23975553214E-01  0.56475442829E-01  0.51100000000E-03 0.  1.
         11    1    4    4    0    0 -0.97369302400E-02 -0.70996295696E-01 -0.23504551123E-01  0.75418876003E-01  0.51100000000E-03 0. -1.
</event>
<event>
 8    1  0.1097777E+005  0.1043930E+01  0.7957747E-01            NaN
         13   -1    0    0    0    0  0.00000000000E+00  0.00000000000E+00  0.74505805969E-08  0.10566000000E+00  0.10566000000E+00 0. -1.
     999900   -1    0    0    0    0 -0.00000000000E+00 -0.00000000000E+00 -0.74505805969E-08  0.93827000000E+00  0.93827000000E+00 0. -1.
     999902    2    1    2    0    0 -0.19338963335E-01  0.97457819151E-02  0.51687787441E-02  0.10216658575E+01  0.10214232386E+01 0.  0.
     999903    2    3    3    0    0  0.10859366315E+00 -0.27173294988E-01  0.62810717721E-01  0.12978449302E+00  0.19179591497E-01 0.  0.
         14    1    1    2    0    0  0.19338963335E-01 -0.97457819151E-02 -0.51687787441E-02  0.22264142510E-01  0.00000000000E+00 0. -1.
     999901    1    3    3    0    0 -0.12793262649E+00  0.36919076903E-01 -0.57641938977E-01  0.89188136447E+00  0.88000000000E+00 0. -1.
        -11    1    4    4    0    0  0.71490284215E-01 -0.84062206783E-02  0.40434526580E-01  0.82563535195E-01  0.51100000000E-03 0.  1.
         11    1    4    4    0    0  0.37103378940E-01 -0.18767074310E-01  0.22376191141E-01  0.47220957825E-01  0.51100000000E-03 0. -1.
</event>
<event>
 8    1  0.1097777E+005  0.1043930E+01  0.7957747E-01            NaN
         13   -1    0    0    0    0  0.00000000000E+00  0.00000000000E+00  0.74505805969E-08  0.10566000000E+00  0.10566000000E+00 0. -1.
     999900   -1    0    0    0    0 -0.00000000000E+00 -0.00000000000E+00 -0.74505805969E-08  0.93827000000E+00  0.93827000000E+00 0. -1.
     999902    2    1    2    0    0  0.71208453005E-02 -0.12513470622E-01  0.19143287252E-01  0.10199767365E+01  0.10196954370E+01 0.  0.
     999903    2    3    3    0    0  0.12104643040E+00 -0.47161736805E-01 -0.12594129608E-02  0.13172237460E+00  0.21742357652E-01 0.  0.
         14    1    1    2    0    0 -0.71208453005E-02  0.12513470622E-01 -0.19143287252E-01  0.23953263486E-01  0.00000000000E+00 0.  1.
     999901    1    3    3    0    0 -0.11392558510E+00  0.34648266182E-01  0.20402700213E-01  0.88825436192E+00  0.88000000000E+00 0.  1.
        -11    1    4    4    0    0  0.80753797097E-01 -0.27811878901E-01  0.89264617390E-02  0.85875603019E-01  0.51100000000E-03 0.  1.
         11    1    4    4    0    0  0.40292633307E-01 -0.19349857904E-01 -0.10185874700E-01  0.45846771578E-01  0.51100000000E-03 0. -1.
</event>
<event>
 8    1  0.1097777E+005  0.1043930E+01  0.7957747E-01            NaN
         13   -1    0    0    0    0  0.00000000000E+00  0.00000000000E+00  0.74505805969E-08  0.10566000000E+00  0.10566000000E+00 0.  1.
     999900   -1    0    0    0    0 -0.00000000000E+00 -0.00000000000E+00 -0.74505805969E-08  0.93827000000E+00  0.93827000000E+00 0.  1.
     999902    2    1    2    0    0 -0.22043935353E-01  0.58134566421E-02  0.53768662626E-02  0.10205068906E+01  0.10202380466E+01 0.  0.
     999903    2    3    3    0    0  0.68622199327E-01  0.81158161261E-01 -0.71313705811E-01  0.12933989370E+00  0.18641622398E-01 0.  0.
         14    1    1    2    0    0  0.22043935353E-01 -0.58134566421E-02 -0.53768662626E-02  0.23423109417E-01  0.00000000000E+00 0. -1.
     999901    1    3    3    0    0 -0.90666134680E-01 -0.75344704619E-01  0.76690572073E-01  0.89116699688E+00  0.88000000000E+00 0.  1.
        -11    1    4    4    0    0  0.45489426069E-01  0.61957066700E-01 -0.58780824530E-01  0.96764727311E-01  0.51100000000E-03 0.  1.
         11    1    4    4    0    0  0.23132773258E-01  0.19201094561E-01 -0.12532881281E-01  0.32575166387E-01  0.51100000000E-03 0. -1.
</event>
<event>
 8    1  0.1097777E+005  0.1043930E+01  0.7957747E-01            NaN
         13   -1    0    0    0    0  0.00000000000E+00  0.00000000000E+00  0.74505805969E-08  0.10566000000E+00  0.10566000000E+00 0.  1.
     999900   -1    0    0    0    0 -0.00000000000E+00 -0.00000000000E+00 -0.74505805969E-08  0.93827000000E+00  0.93827000000E+00 0. -1.
     999902    2    1    2    0    0  0.52398677653E-02 -0.69152192496E-02  0.22201606007E-01  0.10200933102E+01  0.10198147742E+01 0.  0.
     999903    2    3    3    0    0  0.42134185129E-01 -0.12201133366E+00 -0.12329651075E-01  0.13116096523E+00  0.19726211163E-01 0.  0.
         14    1    1    2    0    0 -0.52398677653E-02  0.69152192496E-02 -0.22201606007E-01  0.23836689802E-01  0.00000000000E+00 0. -1.
     999901    1    3    3    0    0 -0.36894317364E-01  0.11509611441E+00  0.34531257082E-01  0.88893234496E+00  0.88000000000E+00 0.  1.
        -11    1    4    4    0    0  0.19658222074E-01 -0.31954677797E-01 -0.71513741634E-02  0.38196209258E-01  0.51100000000E-03 0.  1.
         11    1    4    4    0    0  0.22475963055E-01 -0.90056655866E-01 -0.51782769121E-02  0.92964755976E-01  0.51100000000E-03 0. -1.
</event>
<event>
 8    1  0.1097777E+005  0.1043930E+01  0.7957747E-01            NaN
         13   -1    0    0    0    0  0.00000000000E+00  0.00000000000E+00  0.74505805969E-08  0.10566000000E+00  0.10566000000E+00 0.  1.
     999900   -1    0    0    0    0 -0.00000000000E+00 -0.00000000000E+00 -0.74505805969E-08  0.93827000000E+00  0.93827000000E+00 0. -1.
     999902    2    1    2    0    0 -0.89672078781E-02 -0.97558769061E-02  0.18946312960E-01  0.10208096469E+01  0.10205477865E+01 0.  0.
     999903    2    3    3    0    0 -0.12904700269E+00 -0.23171221431E-01  0.54336479309E-02  0.13245064252E+00  0.17989268160E-01 0.  0.
         14    1    1    2    0    0  0.89672078781E-02  0.97558769061E-02 -0.18946312960E-01  0.23120353071E-01  0.00000000000E+00 0. -1.
     999901    1    3    3    0    0  0.12007979481E+00  0.13415344525E-01  0.13512665029E-01  0.88835900440E+00  0.88000000000E+00 0.  1.
        -11    1    4    4    0    0 -0.62455304037E-01 -0.31793208212E-02  0.68043842029E-02  0.62907343360E-01  0.51100000000E-03 0.  1.
         11    1    4    4    0    0 -0.66591698654E-01 -0.19991900610E-01 -0.13707362720E-02  0.69543299164E-01  0.51100000000E-03 0. -1.
</event>
<event>
 8    1  0.1097777E+005  0.1043930E+01  0.7957747E-01            NaN
         13   -1    0    0    0    0  0.00000000000E+00  0.00000000000E+00  0.74505805969E-08  0.10566000000E+00  0.10566000000E+00 0. -1.
     999900   -1    0    0    0    0 -0.00000000000E+00 -0.00000000000E+00 -0.74505805969E-08  0.93827000000E+00  0.93827000000E+00 0. -1.
     999902    2    1    2    0    0  0.18082468639E-01 -0.99834502006E-02 -0.10646996481E-01  0.10206920250E+01  0.10204274626E+01 0.  0.
     999903    2    3    3    0    0 -0.26654002728E-01 -0.48761741456E-01 -0.11828373750E+00  0.13215909042E+00  0.19668231559E-01 0.  0.
         14    1    1    2    0    0 -0.18082468639E-01  0.99834502006E-02  0.10646996481E-01  0.23237975042E-01  0.00000000000E+00 0. -1.
     999901    1    3    3    0    0  0.44736471367E-01  0.38778291255E-01  0.10763674102E+00  0.88853293454E+00  0.88000000000E+00 0.  1.
        -11    1    4    4    0    0 -0.75786614622E-02 -0.23626301133E-01 -0.33489594496E-01  0.41682757530E-01  0.51100000000E-03 0. -1.
         11    1    4    4    0    0 -0.19075341266E-01 -0.25135440323E-01 -0.84794143002E-01  0.90476332890E-01  0.51100000000E-03 0.  1.
</event>
<event>
 8    1  0.1097777E+005  0.1043930E+01  0.7957747E-01            NaN
         13   -1    0    0    0    0  0.00000000000E+00  0.00000000000E+00  0.74505805969E-08  0.10566000000E+00  0.10566000000E+00 0.  1.
     999900   -1    0    0    0    0 -0.00000000000E+00 -0.00000000000E+00 -0.74505805969E-08  0.93827000000E+00  0.93827000000E+00 0.  1.
     999902    2    1    2    0    0 -0.19771049574E-01  0.12485582963E-01  0.10681918150E-04  0.10205465807E+01  0.10202786576E+01 0.  0.
     999903    2    3    3    0    0  0.10863484129E+00  0.32432155019E-01 -0.58440355227E-01  0.12908572219E+00  0.19861398040E-01 0.  0.
         14    1    1    2    0    0  0.19771049574E-01 -0.12485582963E-01 -0.10681918150E-04  0.23383419281E-01  0.00000000000E+00 0.  1.
     999901    1    3    3    0    0 -0.12840589087E+00 -0.19946572056E-01  0.58451037145E-01  0.89146085853E+00  0.88000000000E+00 0. -1.
        -11    1    4    4    0    0  0.77360706087E-01  0.18449217667E-01 -0.49496068120E-01  0.93675900632E-01  0.51100000000E-03 0.  1.
         11    1    4    4    0    0  0.31274135206E-01  0.13982937352E-01 -0.89442871067E-02  0.35409821557E-01  0.51100000000E-03 0. -1.
</event>
<event>
 8    1  0.1097777E+005  0.1043930E+01  0.7957747E-01            NaN
         13   -1    0    0    0    0  0.00000000000E+00  0.00000000000E+00  0.74505805969E-08  0.10566000000E+00  0.10566000000E+00 0.  1.
     999900   -1    0    0    0    0 -0.00000000000E+00 -0.00000000000E+00 -0.74505805969E-08  0.93827000000E+00  0.93827000000E+00 0. -1.
     999902    2    1    2    0    0  0.11359569496E-01  0.16563604730E-01  0.14018264345E-01  0.10194370509E+01  0.10191427752E+01 0.  0.
     999903    2    3    3    0    0  0.11046917195E-01 -0.12212360488E+00 -0.29196786382E-01  0.12752798576E+00  0.19357829639E-01 0.  0.
         14    1    1    2    0    0 -0.11359569496E-01 -0.16563604730E-01 -0.14018264345E-01  0.24492949108E-01  0.00000000000E+00 0.  1.
     999901    1    3    3    0    0  0.31265230126E-03  0.13868720961E+00  0.43215050727E-01  0.89190906513E+00  0.88000000000E+00 0. -1.
        -11    1    4    4    0    0  0.16555790219E-01 -0.85815711584E-01 -0.19676616169E-01  0.89587169223E-01  0.51100000000E-03 0.  1.
         11    1    4    4    0    0 -0.55088730237E-02 -0.36307893293E-01 -0.95201702132E-02  0.37940816534E-01  0.51100000000E-03 0. -1.
</event>
<event>
 8    1  0.1097777E+005  0.1043930E+01  0.7957747E-01            NaN
         13   -1    0    0    0    0  0.00000000000E+00  0.00000000000E+00  0.74505805969E-08  0.10566000000E+00  0.10566000000E+00 0. -1.
     999900   -1    0    0    0    0 -0.00000000000E+00 -0.00000000000E+00 -0.74505805969E-08  0.93827000000E+00  0.93827000000E+00 0.  1.
     999902    2    1    2    0    0  0.70977204561E-02 -0.19622067168E-01 -0.65612207088E-03  0.10230533707E+01  0.10228403422E+01 0.  0.
     999903    2    3    3    0    0  0.39582647974E-01 -0.66963761600E-01  0.10801309685E+00  0.13451214728E+00  0.19384459915E-01 0.  0.
         14    1    1    2    0    0 -0.70977204561E-02  0.19622067168E-01  0.65612207088E-03  0.20876629321E-01  0.00000000000E+00 0. -1.
     999901    1    3    3    0    0 -0.32484927517E-01  0.47341694432E-01 -0.10866921892E+00  0.88854122340E+00  0.88000000000E+00 0.  1.
        -11    1    4    4    0    0  0.20481058292E-01 -0.38178817995E-01  0.75609599633E-01  0.87144526907E-01  0.51100000000E-03 0.  1.
         11    1    4    4    0    0  0.19101589681E-01 -0.28784943605E-01  0.32403497213E-01  0.47367620368E-01  0.51100000000E-03 0. -1.
</event>
<event>
 8    1  0.1097777E+005  0.1043930E+01  0.7957747E-01            NaN
         13   -1    0    0    0    0  0.00000000000E+00  0.00000000000E+00  0.74505805969E-08  0.10566000000E+00  0.10566000000E+00 0.  1.
     999900   -1    0    0    0    0 -0.00000000000E+00 -0.00000000000E+00 -0.74505805969E-08  0.93827000000E+00  0.93827000000E+00 0.  1.
     999902    2    1    2    0    0  0.10666829359E-01  0.21630755401E-01 -0.15221890387E-03  0.10198116668E+01  0.10195264301E+01 0.  0.
     999903    2    3    3    0    0  0.63214645478E-01 -0.10453523972E+00 -0.34866704665E-01  0.12858541780E+00  0.19869947922E-01 0.  0.
         14    1    1    2    0    0 -0.10666829359E-01 -0.21630755401E-01  0.15221890387E-03  0.24118333242E-01  0.00000000000E+00 0.  1.
     999901    1    3    3    0    0 -0.52547816119E-01  0.12616599512E+00  0.34714485761E-01  0.89122624895E+00  0.88000000000E+00 0. -1.
        -11    1    4    4    0    0  0.61742813032E-01 -0.91845530496E-01 -0.28393597462E-01  0.11425512650E+00  0.51100000000E-03 0. -1.
         11    1    4    4    0    0  0.14718324457E-02 -0.12689709227E-01 -0.64731072031E-02  0.14330291305E-01  0.51100000000E-03 0.  1.
</event>
<event>
 8    1  0.1097777E+005  0.1043930E+01  0.7957747E-01            NaN
         13   -1    0    0    0    0  0.00000000000E+00  0.00000000000E+00  0.74505805969E-08  0.10566000000E+00  0.10566000000E+00 0.  1.
     999900   -1    0    0    0    0 -0.00000000000E+00 -0.00000000000E+00 -0.74505805969E-08  0.93827000000E+00  0.93827000000E+00 0. -1.
     999902    2    1    2    0    0  0.14580933582E-01  0.12522343986E-01  0.14782909356E-01  0.10196823788E+01  0.10193940389E+01 0.  0.
     999903    2    3    3    0    0 -0.10721858083E+00  0.34468611268E-01  0.61459231590E-01  0.12979730793E+00  0.19651838638E-01 0.  0.
         14    1    1    2    0    0 -0.14580933582E-01 -0.12522343986E-01 -0.14782909356E-01  0.24247621163E-01  0.00000000000E+00 0. -1.
     999901    1    3    3    0    0  0.12179951441E+00 -0.21946267282E-01 -0.46676322234E-01  0.88988507090E+00  0.88000000000E+00 0. -1.
        -11    1    4    4    0    0 -0.42021889556E-01  0.11175295694E-01  0.13349640520E-01  0.45488465117E-01  0.51100000000E-03 0. -1.
         11    1    4    4    0    0 -0.65196691273E-01  0.23293315574E-01  0.48109591070E-01  0.84308842818E-01  0.51100000000E-03 0.  1.
</event>
<event>
 8    1  0.1097777E+005  0.1043930E+01  0.7957747E-01            NaN
         13   -1    0    0    0    0  0.00000000000E+00  0.00000000000E+00  0.74505805969E-08  0.10566000000E+00  0.10566000000E+00 0.  1.
     999900   -1    0    0    0    0 -0.00000000000E+00 -0.00000000000E+00 -0.74505805969E-08  0.93827000000E+00  0.93827000000E+00 0.  1.
     999902    2    1    2    0    0 -0.20744122011E-02 -0.40400913700E-02 -0.20899861189E-01  0.10225423933E+01  0.10223186961E+01 0.  0.
     999903    2    3    3    0    0  0.10660029358E+00  0.61281882139E-01  0.41754567984E-01  0.13124966391E+00  0.19077176409E-01 0.  0.
         14    1    1    2    0    0  0.20744122011E-02  0.40400913700E-02  0.20899861189E-01  0.21387606738E-01  0.00000000000E+00 0.  1.
     999901    1    3    3    0    0 -0.10867470578E+00 -0.65321973509E-01 -0.62654429173E-01  0.89129272935E+00  0.88000000000E+00 0.  1.
        -11    1    4    4    0    0  0.36790128681E-01  0.23814164972E-01  0.24319143209E-01  0.50122947530E-01  0.51100000000E-03 0. -1.
         11    1    4    4    0    0  0.69810164897E-01  0.37467717167E-01  0.17435424775E-01  0.81126716381E-01  0.51100000000E-03 0.  1.
</event>
<event>
 8    1  0.1097777E+005  0.1043930E+01  0.7957747E-01            NaN
         13   -1    0    0    0    0  0.00000000000E+00  0.00000000000E+00  0.74505805969E-08  0.10566000000E+00  0.10566000000E+00 0.  1.
     999900   -1    0    0    0    0 -0.00000000000E+00 -0.00000000000E+00 -0.74505805969E-08  0.93827000000E+00  0.93827000000E+00 0. -1.
     999902    2    1    2    0    0  0.19547295847E-01 -0.17518709392E-01 -0.41859612146E-02  0.10173494766E+01  0.10170021796E+01 0.  0.
     999903    2    3    3    0    0 -0.10198949017E+00 -0.62292075155E-01  0.36387139002E-01  0.12694393915E+00  0.22551742063E-01 0.  0.
         14    1    1    2    0    0 -0.19547295847E-01  0.17518709392E-01  0.41859612146E-02  0.26580523414E-01  0.00000000000E+00 0.  1.
     999901    1    3    3    0    0  0.12153678602E+00  0.44773365763E-01 -0.40573100216E-01  0.89040553744E+00  0.88000000000E+00 0. -1.
        -11    1    4    4    0    0 -0.59372898071E-01 -0.27977654283E-01  0.10719740444E-01  0.66506120926E-01  0.51100000000E-03 0. -1.
         11    1    4    4    0    0 -0.42616592097E-01 -0.34314420872E-01  0.25667398558E-01  0.60437818223E-01  0.51100000000E-03 0.  1.
</event>
<event>
 7    1  0.1097777E+005  0.1043930E+01  0.7957747E-01            NaN
         13   -1    0    0    0    0  0.00000000000E+00  0.00000000000E+00  0.74505805969E-08  0.10566000000E+00  0.10566000000E+00 0. -1.
     999900   -1    0    0    0    0 -0.00000000000E+00 -0.00000000000E+00 -0.74505805969E-08  0.93827000000E+00  0.93827000000E+00 0. -1.
     999903    2    1    2    0    0 -0.38470817071E-01  0.10833630340E+00  0.27122921534E-01  0.11976551614E+00  0.19783012527E-01 0.  0.
         14    1    1    2    0    0  0.31473296147E-01 -0.14276247423E-01 -0.18243969738E-01  0.39079688364E-01  0.00000000000E+00 0.  1.
     999901    1    1    2    0    0  0.69975209235E-02 -0.94060055973E-01 -0.88789517967E-02  0.88508479549E+00  0.88000000000E+00 0.  1.
        -11    1    3    3    0    0 -0.15860400220E-01  0.21791902244E-01  0.95924845736E-02  0.28613216873E-01  0.51100000000E-03 0.  1.
         11    1    3    3    0    0 -0.22610416851E-01  0.86544401153E-01  0.17530436961E-01  0.91152299269E-01  0.51100000000E-03 0. -1.
</event>
<event>
 8    1  0.1097777E+005  0.1043930E+01  0.7957747E-01            NaN
         13   -1    0    0    0    0  0.00000000000E+00  0.00000000000E+00  0.74505805969E-08  0.10566000000E+00  0.10566000000E+00 0.  1.
     999900   -1    0    0    0    0 -0.00000000000E+00 -0.00000000000E+00 -0.74505805969E-08  0.93827000000E+00  0.93827000000E+00 0. -1.
     999902    2    1    2    0    0  0.26873531077E-03 -0.98359450866E-02  0.17571791741E-01  0.10237908367E+01  0.10235927371E+01 0.  0.
     999903    2    3    3    0    0  0.12514235341E+00 -0.38037302110E-01 -0.19754291890E-01  0.13374478531E+00  0.19748179135E-01 0.  0.
         14    1    1    2    0    0 -0.26873531077E-03  0.98359450866E-02 -0.17571791741E-01  0.20139163324E-01  0.00000000000E+00 0. -1.
     999901    1    3    3    0    0 -0.12487361810E+00  0.28201357023E-01  0.37326083631E-01  0.89004605137E+00  0.88000000000E+00 0.  1.
        -11    1    4    4    0    0  0.42106561634E-01 -0.21836775577E-01 -0.32423713363E-02  0.47545571751E-01  0.51100000000E-03 0.  1.
         11    1    4    4    0    0  0.83035791780E-01 -0.16200526533E-01 -0.16511920554E-01  0.86199213557E-01  0.51100000000E-03 0. -1.
</event>
<event>
 8    1  0.1097777E+005  0.1043930E+01  0.7957747E-01            NaN
         13   -1    0    0    0    0  0.00000000000E+00  0.00000000000E+00  0.74505805969E-08  0.10566000000E+00  0.10566000000E+00 0. -1.
     999900   -1    0    0    0    0 -0.00000000000E+00 -0.00000000000E+00 -0.74505805969E-08  0.93827000000E+00  0.93827000000E+00 0. -1.
     999902    2    1    2    0    0 -0.22422514086E-01  0.34544562438E-02  0.81074561533E-02  0.10198378176E+01  0.10195532066E+01 0.  0.
     999903    2    3    3    0    0 -0.53501605831E-01 -0.67193201328E-01  0.97979939743E-01  0.13189972026E+00  0.20496816366E-01 0.  0.
         14    1    1    2    0    0  0.22422514086E-01 -0.34544562438E-02 -0.81074561533E-02  0.24092182366E-01  0.00000000000E+00 0.  1.
     999901    1    3    3    0    0  0.31079091745E-01  0.70647657572E-01 -0.89872483589E-01  0.88793809738E+00  0.88000000000E+00 0. -1.
        -11    1    4    4    0    0 -0.45249514324E-01 -0.58297723848E-01  0.71441987831E-01  0.10271495460E+00  0.51100000000E-03 0. -1.
         11    1    4    4    0    0 -0.82520915077E-02 -0.88954774799E-02  0.26537951912E-01  0.29184765658E-01  0.51100000000E-03 0.  1.
</event>
<event>
 8    1  0.1097777E+005  0.1043930E+01  0.7957747E-01            NaN
         13   -1    0    0    0    0  0.00000000000E+00  0.00000000000E+00  0.74505805969E-08  0.10566000000E+00  0.10566000000E+00 0.  1.
     999900   -1    0    0    0    0 -0.00000000000E+00 -0.00000000000E+00 -0.74505805969E-08  0.93827000000E+00  0.93827000000E+00 0.  1.
     999902    2    1    2    0    0  0.22241645597E-01  0.90786846609E-02 -0.28905662041E-02  0.10197335398E+01  0.10194464299E+01 0.  0.
     999903    2    3    3    0    0 -0.71613389136E-02  0.12472354403E+00  0.33798128250E-01  0.13092291355E+00  0.19780005324E-01 0.  0.
         14    1    1    2    0    0 -0.22241645597E-01 -0.90786846609E-02  0.28905662041E-02  0.24196460217E-01  0.00000000000E+00 0. -1.
     999901    1    3    3    0    0  0.29402984511E-01 -0.11564485937E+00 -0.36688694454E-01  0.88881062623E+00  0.88000000000E+00 0.  1.
        -11    1    4    4    0    0  0.61017789132E-02  0.65844860204E-01  0.17647378221E-01  0.68443176433E-01  0.51100000000E-03 0. -1.
         11    1    4    4    0    0 -0.13263117827E-01  0.58878683823E-01  0.16150750029E-01  0.62479737121E-01  0.51100000000E-03 0.  1.
</event>
<event>
 8    1  0.1097777E+005  0.1043930E+01  0.7957747E-01            NaN
         13   -1    0    0    0    0  0.00000000000E+00  0.00000000000E+00  0.74505805969E-08  0.10566000000E+00  0.10566000000E+00 0.  1.
     999900   -1    0    0    0    0 -0.00000000000E+00 -0.00000000000E+00 -0.74505805969E-08  0.93827000000E+00  0.93827000000E+00 0. -1.
     999902    2    1    2    0    0 -0.65175567945E-02  0.20234348170E-01  0.94669176105E-02  0.10206592045E+01  0.10203938857E+01 0.  0.
     999903    2    3    3    0    0  0.37618493279E-01 -0.11209655495E+00  0.46278416323E-01  0.12891117663E+00  0.22262321871E-01 0.  0.
         14    1    1    2    0    0  0.65175567945E-02 -0.20234348170E-01 -0.94669176105E-02  0.23270795463E-01  0.00000000000E+00 0. -1.
     999901    1    3    3    0    0 -0.44136050074E-01  0.13233090312E+00 -0.36811498713E-01  0.89174802791E+00  0.88000000000E+00 0. -1.
        -11    1    4    4    0    0  0.21426728891E-01 -0.52970569203E-01  0.11036718043E-01  0.58198420759E-01  0.51100000000E-03 0.  1.
         11    1    4    4    0    0  0.16191764389E-01 -0.59125985746E-01  0.35241698280E-01  0.70712755873E-01  0.51100000000E-03 0. -1.
</event>
<event>
 8    1  0.1097777E+005  0.1043930E+01  0.7957747E-01            NaN
         13   -1    0    0    0    0  0.00000000000E+00  0.00000000000E+00  0.74505805969E-08  0.10566000000E+00  0.10566000000E+00 0. -1.
     999900   -1    0    0    0    0 -0.00000000000E+00 -0.00000000000E+00 -0.74505805969E-08  0.93827000000E+00  0.93827000000E+00 0.  1.
     999902    2    1    2    0    0  0.76681523704E-02  0.56187756481E-02  0.22068057639E-01  0.10199014676E+01  0.10196183763E+01 0.  0.
     999903    2    3    3    0    0  0.11949517419E+00 -0.42764691450E-01  0.30988526144E-01  0.13146136414E+00  0.14624842556E-01 0.  0.
         14    1    1    2    0    0 -0.76681523704E-02 -0.56187756481E-02 -0.22068057639E-01  0.24028532384E-01  0.00000000000E+00 0.  1.
     999901    1    3    3    0    0 -0.11182702182E+00  0.48383467099E-01 -0.89204685050E-02  0.88844010347E+00  0.88000000000E+00 0.  1.
        -11    1    4    4    0    0  0.68521306955E-01 -0.19277588655E-01  0.11861234329E-01  0.72164706970E-01  0.51100000000E-03 0. -1.
         11    1    4    4    0    0  0.50973867238E-01 -0.23487102795E-01  0.19127291815E-01  0.59296657175E-01  0.51100000000E-03 0.  1.
</event>
<event>
 8    1  0.1097777E+005  0.1043930E+01  0.7957747E-01            NaN
         13   -1    0    0    0    0  0.00000000000E+00  0.00000000000E+00  0.74505805969E-08  0.10566000000E+00  0.10566000000E+00 0.  1.
     999900   -1    0    0    0    0 -0.00000000000E+00 -0.00000000000E+00 -0.74505805969E-08  0.93827000000E+00  0.93827000000E+00 0. -1.
     999902    2    1    2    0    0  0.16789537048E-01 -0.15491435176E-01  0.77649266044E-02  0.10198018587E+01  0.10195163872E+01 0.  0.
     999903    2    3    3    0    0  0.97075942745E-01  0.27119304425E-01 -0.80399058967E-01  0.13073804184E+00  0.21661753616E-01 0.  0.
         14    1    1    2    0    0 -0.16789537048E-01  0.15491435176E-01 -0.77649266044E-02  0.24128141314E-01  0.00000000000E+00 0.  1.
     999901    1    3    3    0    0 -0.80286405698E-01 -0.42610739601E-01  0.88163985571E-01  0.88906381684E+00  0.88000000000E+00 0.  1.
        -11    1    4    4    0    0  0.59574577887E-01  0.25388852648E-01 -0.58514017789E-01  0.87280442071E-01  0.51100000000E-03 0. -1.
         11    1    4    4    0    0  0.37501364858E-01  0.17304517763E-02 -0.21885041177E-01  0.43457599772E-01  0.51100000000E-03 0.  1.
</event>
<event>
 8    1  0.1097777E+005  0.1043930E+01  0.7957747E-01            NaN
         13   -1    0    0    0    0  0.00000000000E+00  0.00000000000E+00  0.74505805969E-08  0.10566000000E+00  0.10566000000E+00 0.  1.
     999900   -1    0    0    0    0 -0.00000000000E+00 -0.00000000000E+00 -0.74505805969E-08  0.93827000000E+00  0.93827000000E+00 0.  1.
     999902    2    1    2    0    0 -0.26732125986E-02  0.16564197982E-01  0.16231617590E-01  0.10205851048E+01  0.10203180740E+01 0.  0.
     999903    2    3    3    0    0 -0.11290147819E+00  0.50819414737E-01 -0.38740834600E-01  0.13134629501E+00  0.20533880688E-01 0.  0.
         14    1    1    2    0    0  0.26732125986E-02 -0.16564197982E-01 -0.16231617590E-01  0.23344895158E-01  0.00000000000E+00 0. -1.
     999901    1    3    3    0    0  0.11022826559E+00 -0.34255216755E-01  0.54972452190E-01  0.88923880983E+00  0.88000000000E+00 0.  1.
        -11    1    4    4    0    0 -0.45634056233E-01  0.31531277886E-01 -0.19022537836E-01  0.58641339004E-01  0.51100000000E-03 0. -1.
         11    1    4    4    0    0 -0.67267421955E-01  0.19288136851E-01 -0.19718296764E-01  0.72704956007E-01  0.51100000000E-03 0.  1.
</event>
<event>
 8    1  0.1097777E+005  0.1043930E+01  0.7957747E-01            NaN
         13   -1    0    0    0    0  0.00000000000E+00  0.00000000000E+00  0.74505805969E-08  0.10566000000E+00  0.10566000000E+00 0. -1.
     999900   -1    0    0    0    0 -0.00000000000E+00 -0.00000000000E+00 -0.74505805969E-08  0.93827000000E+00  0.93827000000E+00 0.  1.
     999902    2    1    2    0    0  0.10385619728E-01  0.38107178811E-02  0.21183857121E-01  0.10200314965E+01  0.10197514969E+01 0.  0.
     999903    2    3    3    0    0  0.85985020176E-01  0.64260283848E-01 -0.71438831452E-01  0.12989196707E+00  0.15671907870E-01 0.  0.
         14    1    1    2    0    0 -0.10385619728E-01 -0.38107178811E-02 -0.21183857121E-01  0.23898503519E-01  0.00000000000E+00 0.  1.
     999901    1    3    3    0    0 -0.75599400449E-01 -0.60449565967E-01  0.92622688574E-01  0.89013952941E+00  0.88000000000E+00 0. -1.
        -11    1    4    4    0    0  0.40615753078E-01  0.23802220348E-01 -0.24392848633E-01  0.53023176791E-01  0.51100000000E-03 0.  1.
         11    1    4    4    0    0  0.45369267098E-01  0.40458063500E-01 -0.47045982819E-01  0.76868790284E-01  0.51100000000E-03 0. -1.
</event>
<event>
 8    1  0.1097777E+005  0.1043930E+01  0.7957747E-01            NaN
         13   -1    0    0    0    0  0.00000000000E+00  0.00000000000E+00  0.74505805969E-08  0.10566000000E+00  0.10566000000E+00 0.  1.
     999900   -1    0    0    0    0 -0.00000000000E+00 -0.00000000000E+00 -0.74505805969E-08  0.93827000000E+00  0.93827000000E+00 0.  1.
     999902    2    1    2    0    0  0.48379536195E-02  0.22559761050E-01  0.46387045166E-02  0.10203956380E+01  0.10201242042E+01 0.  0.
     999903    2    3    3    0    0  0.83440579611E-01 -0.17682083945E-01 -0.94966311476E-01  0.13038499870E+00  0.26583099007E-01 0.  0.
         14    1    1    2    0    0 -0.48379536195E-02 -0.22559761050E-01 -0.46387045166E-02  0.23534361973E-01  0.00000000000E+00 0. -1.
     999901    1    3    3    0    0 -0.78602625991E-01  0.40241844995E-01  0.99605015992E-01  0.89001063933E+00  0.88000000000E+00 0. -1.
        -11    1    4    4    0    0  0.10971202999E-01  0.63030482896E-02 -0.97857486960E-02  0.16003678062E-01  0.51100000000E-03 0.  1.
         11    1    4    4    0    0  0.72469376612E-01 -0.23985132235E-01 -0.85180562780E-01  0.11438132064E+00  0.51100000000E-03 0. -1.
</event>
<event>
 8    1  0.1097777E+005  0.1043930E+01  0.7957747E-01            NaN
         13   -1    0    0    0    0  0.00000000000E+00  0.00000000000E+00  0.74505805969E-08  0.10566000000E+00  0.10566000000E+00 0.  1.
     999900   -1    0    0    0    0 -0.00000000000E+00 -0.00000000000E+00 -0.74505805969E-08  0.93827000000E+00  0.93827000000E+00 0. -1.
     999902    2    1    2    0    0 -0.12645419058E-01  0.26188703010E-01 -0.35593488496E-02  0.10146311305E+01  0.10142080197E+01 0.  0.
     999903    2    3    3    0    0 -0.83003766664E-01 -0.52486046541E-01  0.74575470240E-01  0.12488674967E+00  0.19768386904E-01 0.  0.
         14    1    1    2    0    0  0.12645419058E-01 -0.26188703010E-01  0.35593488496E-02  0.29298869479E-01  0.00000000000E+00 0. -1.
     999901    1    3    3    0    0  0.70358347606E-01  0.78674749551E-01 -0.78134819090E-01  0.88974438085E+00  0.88000000000E+00 0. -1.
        -11    1    4    4    0    0 -0.50505258847E-01 -0.34939531225E-01  0.34729995149E-01  0.70554841771E-01  0.51100000000E-03 0.  1.
         11    1    4    4    0    0 -0.32498507817E-01 -0.17546515316E-01  0.39845475092E-01  0.54331907903E-01  0.51100000000E-03 0. -1.
</event>
<event>
 7    1  0.1097777E+005  0.1043930E+01  0.7957747E-01            NaN
         13   -1    0    0    0    0  0.00000000000E+00  0.00000000000E+00  0.74505805969E-08  0.10566000000E+00  0.10566000000E+00 0.  1.
     999900   -1    0    0    0    0 -0.00000000000E+00 -0.00000000000E+00 -0.74505805969E-08  0.93827000000E+00  0.93827000000E+00 0. -1.
     999903    2    1    2    0    0  0.16217141853E-01 -0.55349125665E-02  0.10389073256E+00  0.10718156977E+00  0.20024326157E-01 0.  0.
         14    1    1    2    0    0  0.27121180210E-01  0.35594122087E-01  0.14982621039E-01  0.47190877046E-01  0.00000000000E+00 0. -1.
     999901    1    1    2    0    0 -0.43338322062E-01 -0.30059209521E-01 -0.11887335360E+00  0.88955755319E+00  0.88000000000E+00 0. -1.
        -11    1    3    3    0    0  0.56043461649E-02  0.42722128667E-02  0.10361323279E-01  0.12541078096E-01  0.51100000000E-03 0.  1.
         11    1    3    3    0    0  0.10612795688E-01 -0.98071254332E-02  0.93529409285E-01  0.94640491671E-01  0.51100000000E-03 0. -1.
</event>
<event>
 8    1  0.1097777E+005  0.1043930E+01  0.7957747E-01            NaN
         13   -1    0    0    0    0  0.00000000000E+00  0.00000000000E+00  0.74505805969E-08  0.10566000000E+00  0.10566000000E+00 0.  1.
     999900   -1    0    0    0    0 -0.00000000000E+00 -0.00000000000E+00 -0.74505805969E-08  0.93827000000E+00  0.93827000000E+00 0.  1.
     999902    2    1    2    0    0  0.25164839814E-02 -0.23155918319E-01 -0.45177512858E-02  0.10202036576E+01  0.10199277248E+01 0.  0.
     999903    2    3    3    0    0 -0.11044925317E+00 -0.68943138614E-01  0.47581349686E-02  0.13175345117E+00  0.19599442844E-01 0.  0.
         14    1    1    2    0    0 -0.25164839814E-02  0.23155918319E-01  0.45177512858E-02  0.23726342354E-01  0.00000000000E+00 0.  1.
     999901    1    3    3    0    0  0.11296573715E+00  0.45787220295E-01 -0.92758862544E-02  0.88845020647E+00  0.88000000000E+00 0.  1.
        -11    1    4    4    0    0 -0.20091151605E-01 -0.47370208570E-02  0.31976616690E-02  0.20894494504E-01  0.51100000000E-03 0. -1.
         11    1    4    4    0    0 -0.90358101567E-01 -0.64206117757E-01  0.15604732996E-02  0.11085895667E+00  0.51100000000E-03 0.  1.
</event>
<event>
 8    1  0.1097777E+005  0.1043930E+01  0.7957747E-01            NaN
         13   -1    0    0    0    0  0.00000000000E+00  0.00000000000E+00  0.74505805969E-08  0.10566000000E+00  0.10566000000E+00 0. -1.
     999900   -1    0    0    0    0 -0.00000000000E+00 -0.00000000000E+00 -0.74505805969E-08  0.93827000000E+00  0.93827000000E+00 0.  1.
     999902    2    1    2    0    0  0.14085124088E-01 -0.19808098937E-02  0.18073883799E-01  0.10209304434E+01  0.10206713431E+01 0.  0.
     999903    2    3    3    0    0  0.30458266159E-01 -0.60230505294E-02 -0.12378099343E+00  0.12941082741E+00  0.21481266283E-01 0.  0.
         14    1    1    2    0    0 -0.14085124088E-01  0.19808098937E-02 -0.18073883799E-01  0.22999556605E-01  0.00000000000E+00 0.  1.
     999901    1    3    3    0    0 -0.16373142070E-01  0.40422406357E-02  0.14185487723E+00  0.89151961598E+00  0.88000000000E+00 0. -1.
        -11    1    4    4    0    0  0.12934809800E-02  0.55674654451E-02 -0.29173048609E-01  0.29732097986E-01  0.51100000000E-03 0. -1.
         11    1    4    4    0    0  0.29164785179E-01 -0.11590515975E-01 -0.94607944823E-01  0.99678729425E-01  0.51100000000E-03 0.  1.
</event>
<event>
 8    1  0.1097777E+005  0.1043930E+01  0.7957747E-01            NaN
         13   -1    0    0    0    0  0.00000000000E+00  0.00000000000E+00  0.74505805969E-08  0.10566000000E+00  0.10566000000E+00 0.  1.
     999900   -1    0    0    0    0 -0.00000000000E+00 -0.00000000000E+00 -0.74505805969E-08  0.93827000000E+00  0.93827000000E+00 0. -1.
     999902    2    1    2    0    0 -0.14908773209E-01  0.15906050230E-01 -0.82757824091E-02  0.10206112838E+01  0.10203448584E+01 0.  0.
     999903    2    3    3    0    0  0.90588740846E-01 -0.87172680675E-01 -0.15913798984E-01  0.12830343916E+00  0.20078029750E-01 0.  0.
         14    1    1    2    0    0  0.14908773209E-01 -0.15906050230E-01  0.82757824091E-02  0.23318716238E-01  0.00000000000E+00 0. -1.
     999901    1    3    3    0    0 -0.10549751405E+00  0.10307873091E+00  0.76380165753E-02  0.89230784460E+00  0.88000000000E+00 0.  1.
        -11    1    4    4    0    0  0.86886749890E-01 -0.81100402121E-01 -0.10439081130E-01  0.11931394749E+00  0.51100000000E-03 0.  1.
         11    1    4    4    0    0  0.37019909552E-02 -0.60722785542E-02 -0.54747178545E-02  0.89894916686E-02  0.51100000000E-03 0. -1.
</event>
<event>
 8    1  0.1097777E+005  0.1043930E+01  0.7957747E-01            NaN
         13   -1    0    0    0    0  0.00000000000E+00  0.00000000000E+00  0.74505805969E-08  0.10566000000E+00  0.10566000000E+00 0.  1.
     999900   -1    0    0    0    0 -0.00000000000E+00 -0.00000000000E+00 -0.74505805969E-08  0.93827000000E+00  0.93827000000E+00 0. -1.
     999902    2    1    2    0    0  0.73082858786E-02  0.19524223137E-01  0.10665505811E-01  0.10205129262E+01  0.10202442223E+01 0.  0.
     999903    2    3    3    0    0  0.10104807255E+00  0.46215125861E-01 -0.68139051111E-01  0.13163176986E+00  0.18369586982E-01 0.  0.
         14    1    1    2    0    0 -0.73082858786E-02 -0.19524223137E-01 -0.10665505811E-01  0.23417073809E-01  0.00000000000E+00 0. -1.
     999901    1    3    3    0    0 -0.93739786667E-01 -0.26690902725E-01  0.78804556923E-01  0.88888115633E+00  0.88000000000E+00 0. -1.
        -11    1    4    4    0    0  0.47642854677E-01  0.27281940121E-01 -0.42529590389E-01  0.69449067943E-01  0.51100000000E-03 0. -1.
         11    1    4    4    0    0  0.53405217868E-01  0.18933185741E-01 -0.25609460723E-01  0.62182701914E-01  0.51100000000E-03 0.  1.
</event>
<event>
 8    1  0.1097777E+005  0.1043930E+01  0.7957747E-01            NaN
         13   -1    0    0    0    0  0.00000000000E+00  0.00000000000E+00  0.74505805969E-08  0.10566000000E+00  0.10566000000E+00 0.  1.
     999900   -1    0    0    0    0 -0.00000000000E+00 -0.00000000000E+00 -0.74505805969E-08  0.93827000000E+00  0.93827000000E+00 0.  1.
     999902    2    1    2    0    0 -0.36438132643E-02  0.22185710736E-01 -0.49606572174E-02  0.10209062893E+01  0.10206466383E+01 0.  0.
     999903    2    3    3    0    0 -0.17294895503E-01 -0.12540947039E+00 -0.88578442374E-02  0.12850174109E+00  0.20188793518E-01 0.  0.
         14    1    1    2    0    0  0.36438132643E-02 -0.22185710736E-01  0.49606572174E-02  0.23023710735E-01  0.00000000000E+00 0.  1.
     999901    1    3    3    0    0  0.13651082239E-01  0.14759518113E+00  0.38971870200E-02  0.89240454818E+00  0.88000000000E+00 0. -1.
        -11    1    4    4    0    0 -0.11213442135E-01 -0.90055055976E-01  0.27492922813E-02  0.90793579731E-01  0.51100000000E-03 0. -1.
         11    1    4    4    0    0 -0.60814533677E-02 -0.35354414417E-01 -0.11607136519E-01  0.37708161358E-01  0.51100000000E-03 0.  1.
</event>
<event>
 8    1  0.1097777E+005  0.1043930E+01  0.7957747E-01            NaN
         13   -1    0    0    0    0  0.00000000000E+00  0.00000000000E+00  0.74505805969E-08  0.10566000000E+00  0.10566000000E+00 0. -1.
     999900   -1    0    0    0    0 -0.00000000000E+00 -0.00000000000E+00 -0.74505805969E-08  0.93827000000E+00  0.93827000000E+00 0.  1.
     999902    2    1    2    0    0 -0.10798172128E-01 -0.20390186808E-01 -0.52260972103E-02  0.10202726051E+01  0.10199982924E+01 0.  0.
     999903    2    3    3    0    0  0.87916589305E-02  0.69676801797E-02  0.12756978067E+00  0.12967339138E+00  0.20378853245E-01 0.  0.
         14    1    1    2    0    0  0.10798172128E-01  0.20390186808E-01  0.52260972103E-02  0.23657394857E-01  0.00000000000E+00 0.  1.
     999901    1    3    3    0    0 -0.19589831058E-01 -0.27357866988E-01 -0.13279587788E+00  0.89059921376E+00  0.88000000000E+00 0.  1.
        -11    1    4    4    0    0  0.19630641007E-02  0.10073775347E-01  0.28102979747E-01  0.29922786670E-01  0.51100000000E-03 0. -1.
         11    1    4    4    0    0  0.68285948297E-02 -0.31060951669E-02  0.99466800920E-01  0.99750604714E-01  0.51100000000E-03 0.  1.
</event>
<event>
 8    1  0.1097777E+005  0.1043930E+01  0.7957747E-01            NaN
         13   -1    0    0    0    0  0.00000000000E+00  0.00000000000E+00  0.74505805969E-08  0.10566000000E+00  0.10566000000E+00 0.  1.
     999900   -1    0    0    0    0 -0.00000000000E+00 -0.00000000000E+00 -0.74505805969E-08  0.93827000000E+00  0.93827000000E+00 0.  1.
     999902    2    1    2    0    0 -0.11200960688E-03 -0.12809868280E-01 -0.17614692906E-01  0.10221496722E+01  0.10219175944E+01 0.  0.
     999903    2    3    3    0    0 -0.36461382307E-01 -0.54458886604E-01 -0.11631353551E+00  0.13490822868E+00  0.19395589561E-01 0.  0.
         14    1    1    2    0    0  0.11200960688E-03  0.12809868280E-01  0.17614692906E-01  0.21780327768E-01  0.00000000000E+00 0.  1.
     999901    1    3    3    0    0  0.36349372700E-01  0.41649018324E-01  0.98698842599E-01  0.88724144355E+00  0.88000000000E+00 0.  1.
        -11    1    4    4    0    0 -0.55510136942E-02 -0.24891642129E-01 -0.46246719486E-01  0.52815033704E-01  0.51100000000E-03 0. -1.
         11    1    4    4    0    0 -0.30910368613E-01 -0.29567244475E-01 -0.70066816019E-01  0.82093194978E-01  0.51100000000E-03 0.  1.
</event>
<event>
 8    1  0.1097777E+005  0.1043930E+01  0.7957747E-01            NaN
         13   -1    0    0    0    0  0.00000000000E+00  0.00000000000E+00  0.74505805969E-08  0.10566000000E+00  0.10566000000E+00 0.  1.
     999900   -1    0    0    0    0 -0.00000000000E+00 -0.00000000000E+00 -0.74505805969E-08  0.93827000000E+00  0.93827000000E+00 0. -1.
     999902    2    1    2    0    0 -0.14627118448E-01  0.24279407079E-02  0.18874237892E-01  0.10199282429E+01  0.10196457896E+01 0.  0.
     999903    2    3    3    0    0  0.12027247727E+00  0.58415700398E-02 -0.37834364297E-01  0.12783776574E+00  0.20284538427E-01 0.  0.
         14    1    1    2    0    0  0.14627118448E-01 -0.24279407079E-02 -0.18874237892E-01  0.24001757148E-01  0.00000000000E+00 0. -1.
     999901    1    3    3    0    0 -0.13489959572E+00 -0.34136293319E-02  0.56708602189E-01  0.89209047711E+00  0.88000000000E+00 0.  1.
        -11    1    4    4    0    0  0.10721522495E+00  0.11571775543E-01 -0.33110786556E-01  0.11280778234E+00  0.51100000000E-03 0.  1.
         11    1    4    4    0    0  0.13057252320E-01 -0.57302055033E-02 -0.47235777411E-02  0.15029983398E-01  0.51100000000E-03 0. -1.
</event>
<event>
 8    1  0.1097777E+005  0.1043930E+01  0.7957747E-01            NaN
         13   -1    0    0    0    0  0.00000000000E+00  0.00000000000E+00  0.74505805969E-08  0.10566000000E+00  0.10566000000E+00 0. -1.
     999900   -1    0    0    0    0 -0.00000000000E+00 -0.00000000000E+00 -0.74505805969E-08  0.93827000000E+00  0.93827000000E+00 0. -1.
     999902    2    1    2    0    0 -0.98157063815E-02  0.20372348993E-01  0.17528421178E-01  0.10153183547E+01  0.10149151370E+01 0.  0.
     999903    2    3    3    0    0  0.36852396940E-01  0.74980905675E-01  0.96367469284E-01  0.12887850803E+00  0.18513382206E-01 0.  0.
         14    1    1    2    0    0  0.98157063815E-02 -0.20372348993E-01 -0.17528421178E-01  0.28611645256E-01  0.00000000000E+00 0. -1.
     999901    1    3    3    0    0 -0.46668103321E-01 -0.54608556683E-01 -0.78839048106E-01  0.88643984671E+00  0.88000000000E+00 0. -1.
        -11    1    4    4    0    0  0.36594903606E-01  0.60465785712E-01  0.75155782638E-01  0.10316952552E+00  0.51100000000E-03 0.  1.
         11    1    4    4    0    0  0.25749333323E-03  0.14515119964E-01  0.21211686645E-01  0.25708982510E-01  0.51100000000E-03 0. -1.
</event>
<event>
 8    1  0.1097777E+005  0.1043930E+01  0.7957747E-01            NaN
         13   -1    0    0    0    0  0.00000000000E+00  0.00000000000E+00  0.74505805969E-08  0.10566000000E+00  0.10566000000E+00 0. -1.
     999900   -1    0    0    0    0 -0.00000000000E+00 -0.00000000000E+00 -0.74505805969E-08  0.93827000000E+00  0.93827000000E+00 0. -1.
     999902    2    1    2    0    0 -0.14140424077E-01  0.20499216813E-01  0.68496792192E-02  0.10181019612E+01  0.10177742951E+01 0.  0.
     999903    2    3    3    0    0 -0.35129962917E-01  0.12524720761E+00 -0.33891789604E-02  0.13158205926E+00  0.19528811444E-01 0.  0.
         14    1    1    2    0    0  0.14140424077E-01 -0.20499216813E-01 -0.68496792192E-02  0.25828038803E-01  0.00000000000E+00 0. -1.
     999901    1    3    3    0    0  0.20989538840E-01 -0.10474799080E+00  0.10238858180E-01  0.88651990194E+00  0.88000000000E+00 0. -1.
        -11    1    4    4    0    0 -0.35881968394E-01  0.11378473747E+00 -0.70426538014E-02  0.11951712107E+00  0.51100000000E-03 0. -1.
         11    1    4    4    0    0  0.75200547700E-03  0.11462470143E-01  0.36534748410E-02  0.12064938185E-01  0.51100000000E-03 0.  1.
</event>
<event>
 8    1  0.1097777E+005  0.1043930E+01  0.7957747E-01            NaN
         13   -1    0    0    0    0  0.00000000000E+00  0.00000000000E+00  0.74505805969E-08  0.10566000000E+00  0.10566000000E+00 0. -1.
     999900   -1    0    0    0    0 -0.00000000000E+00 -0.00000000000E+00 -0.74505805969E-08  0.93827000000E+00  0.93827000000E+00 0.  1.
     999902    2    1    2    0    0 -0.11283134438E-01  0.20575345927E-01  0.17507019590E-02  0.10203987667E+01  0.10201274058E+01 0.  0.
     999903    2    3    3    0    0 -0.12055167438E-02 -0.85671189241E-01 -0.94236133518E-01  0.12876915908E+00  0.18974760441E-01 0.  0.
         14    1    1    2    0    0  0.11283134438E-01 -0.20575345927E-01 -0.17507019590E-02  0.23531233289E-01  0.00000000000E+00 0.  1.
     999901    1    3    3    0    0 -0.10077617694E-01  0.10624653517E+00  0.95986835477E-01  0.89162960763E+00  0.88000000000E+00 0. -1.
        -11    1    4    4    0    0  0.67477685035E-02 -0.62378763691E-01 -0.62017425167E-01  0.88221679222E-01  0.51100000000E-03 0. -1.
         11    1    4    4    0    0 -0.79532852473E-02 -0.23292425550E-01 -0.32218708352E-01  0.40547479861E-01  0.51100000000E-03 0.  1.
</event>
<event>
 8    1  0.1097777E+005  0.1043930E+01  0.7957747E-01            NaN
         13   -1    0    0    0    0  0.00000000000E+00  0.00000000000E+00  0.74505805969E-08  0.10566000000E+00  0.10566000000E+00 0. -1.
     999900   -1    0    0    0    0 -0.00000000000E+00 -0.00000000000E+00 -0.74505805969E-08  0.93827000000E+00  0.93827000000E+00 0. -1.
     999902    2    1    2    0    0  0.33141043187E-02  0.18687810578E-01  0.15550693131E-01  0.10193934638E+01  0.10190981270E+01 0.  0.
     999903    2    3    3    0    0  0.91316004825E-01  0.88462660272E-01 -0.26040686849E-01  0.13128158626E+00  0.19811171606E-01 0.  0.
         14    1    1    2    0    0 -0.33141043187E-02 -0.18687810578E-01 -0.15550693131E-01  0.24536536196E-01  0.00000000000E+00 0.  1.
     999901    1    3    3    0    0 -0.88001900506E-01 -0.69774849694E-01  0.41591379980E-01  0.88811187754E+00  0.88000000000E+00 0.  1.
        -11    1    4    4    0    0  0.34193972290E-01  0.31133305498E-01  0.56383469018E-04  0.46246889109E-01  0.51100000000E-03 0. -1.
         11    1    4    4    0    0  0.57122032535E-01  0.57329354773E-01 -0.26097070318E-01  0.85034697153E-01  0.51100000000E-03 0.  1.
</event>
<event>
 8    1  0.1097777E+005  0.1043930E+01  0.7957747E-01            NaN
         13   -1    0    0    0    0  0.00000000000E+00  0.00000000000E+00  0.74505805969E-08  0.10566000000E+00  0.10566000000E+00 0. -1.
     999900   -1    0    0    0    0 -0.00000000000E+00 -0.00000000000E+00 -0.74505805969E-08  0.93827000000E+00  0.93827000000E+00 0.  1.
     999902    2    1    2    0    0 -0.83572029266E-03 -0.20756940428E-01 -0.11433138536E-01  0.10202178584E+01  0.10199422596E+01 0.  0.
     999903    2    3    3    0    0 -0.11723362935E+00 -0.78692199918E-03 -0.55427185535E-01  0.13123937097E+00  0.20180597148E-01 0.  0.
         14    1    1    2    0    0  0.83572029266E-03  0.20756940428E-01  0.11433138536E-01  0.23712141639E-01  0.00000000000E+00 0.  1.
     999901    1    3    3    0    0  0.11639790905E+00 -0.19970018428E-01  0.43994047000E-01  0.88897848739E+00  0.88000000000E+00 0.  1.
        -11    1    4    4    0    0 -0.30908982779E-01 -0.25791972373E-02 -0.24479031377E-01  0.39515839520E-01  0.51100000000E-03 0.  1.
         11    1    4    4    0    0 -0.86324646566E-01  0.17922752381E-02 -0.30948154158E-01  0.91723531453E-01  0.51100000000E-03 0. -1.
</event>
<event>
 8    1  0.1097777E+005  0.1043930E+01  0.7957747E-01            NaN
         13   -1    0    0    0    0  0.00000000000E+00  0.00000000000E+00  0.74505805969E-08  0.10566000000E+00  0.10566000000E+00 0. -1.
     999900   -1    0    0    0    0 -0.00000000000E+00 -0.00000000000E+00 -0.74505805969E-08  0.93827000000E+00  0.93827000000E+00 0. -1.
     999902    2    1    2    0    0 -0.12344674462E-01  0.10399764991E-01 -0.10349757648E-01  0.10247554444E+01  0.10245760378E+01 0.  0.
     999903    2    3    3    0    0  0.79371097561E-01  0.48237344245E-01 -0.96186929741E-01  0.13502993315E+00  0.18829362321E-01 0.  0.
         14    1    1    2    0    0  0.12344674462E-01 -0.10399764991E-01  0.10349757648E-01  0.19174555609E-01  0.00000000000E+00 0. -1.
     999901    1    3    3    0    0 -0.91715772022E-01 -0.37837579253E-01  0.85837172093E-01  0.88972551124E+00  0.88000000000E+00 0.  1.
        -11    1    4    4    0    0  0.64260426834E-01  0.44829994016E-01 -0.86692187677E-01  0.11685429965E+00  0.51100000000E-03 0. -1.
         11    1    4    4    0    0  0.15110670727E-01  0.34073502285E-02 -0.94947420638E-02  0.18175633503E-01  0.51100000000E-03 0.  1.
</event>
<event>
 8    1  0.1097777E+005  0.1043930E+01  0.7957747E-01            NaN
         13   -1    0    0    0    0  0.00000000000E+00  0.00000000000E+00  0.74505805969E-08  0.10566000000E+00  0.10566000000E+00 0.  1.
     999900   -1    0    0    0    0 -0.00000000000E+00 -0.00000000000E+00 -0.74505805969E-08  0.93827000000E+00  0.93827000000E+00 0.  1.
     999902    2    1    2    0    0 -0.16415942945E-01  0.81135240023E-02  0.15508855190E-01  0.10199333952E+01  0.10196510646E+01 0.  0.
     999903    2    3    3    0    0  0.25528784494E-01  0.11461337275E+00  0.54620245356E-01  0.13165906885E+00  0.23723304060E-01 0.  0.
         14    1    1    2    0    0  0.16415942945E-01 -0.81135240023E-02 -0.15508855190E-01  0.23996604839E-01  0.00000000000E+00 0. -1.
     999901    1    3    3    0    0 -0.41944727439E-01 -0.10649984875E+00 -0.39111390166E-01  0.88827432631E+00  0.88000000000E+00 0. -1.
        -11    1    4    4    0    0  0.24145877164E-01  0.78539338939E-01  0.47333062543E-01  0.94826847863E-01  0.51100000000E-03 0.  1.
         11    1    4    4    0    0  0.13829073309E-02  0.36074033815E-01  0.72871828132E-02  0.36832220986E-01  0.51100000000E-03 0. -1.
</event>
<event>
 8    1  0.1097777E+005  0.1043930E+01  0.7957747E-01            NaN
         13   -1    0    0    0    0  0.00000000000E+00  0.00000000000E+00  0.74505805969E-08  0.10566000000E+00  0.10566000000E+00 0.  1.
     999900   -1    0    0    0    0 -0.00000000000E+00 -0.00000000000E+00 -0.74505805969E-08  0.93827000000E+00  0.93827000000E+00 0.  1.
     999902    2    1    2    0    0  0.17018266630E-01 -0.10363442882E-01 -0.11959098886E-01  0.10206911878E+01  0.10204266061E+01 0.  0.
     999903    2    3    3    0    0 -0.67852795123E-01  0.10497171412E+00 -0.24941888515E-01  0.12902205161E+00  0.20038199200E-01 0.  0.
         14    1    1    2    0    0 -0.17018266630E-01  0.10363442882E-01  0.11959098886E-01  0.23238812224E-01  0.00000000000E+00 0. -1.
     999901    1    3    3    0    0  0.84871061753E-01 -0.11533515700E+00  0.12982789629E-01  0.89166913617E+00  0.88000000000E+00 0. -1.
        -11    1    4    4    0    0 -0.35323007255E-02  0.11285655672E-01  0.25365180123E-02  0.12105297063E-01  0.51100000000E-03 0.  1.
         11    1    4    4    0    0 -0.64320494398E-01  0.93686058450E-01 -0.27478406527E-01  0.11691675455E+00  0.51100000000E-03 0. -1.
</event>
<event>
 8    1  0.1097777E+005  0.1043930E+01  0.7957747E-01            NaN
         13   -1    0    0    0    0  0.00000000000E+00  0.00000000000E+00  0.74505805969E-08  0.10566000000E+00  0.10566000000E+00 0.  1.
     999900   -1    0    0    0    0 -0.00000000000E+00 -0.00000000000E+00 -0.74505805969E-08  0.93827000000E+00  0.93827000000E+00 0.  1.
     999902    2    1    2    0    0  0.51937640352E-02  0.56052863006E-02 -0.22053642027E-01  0.10205899583E+01  0.10203230398E+01 0.  0.
     999903    2    3    3    0    0 -0.89535898286E-01  0.37246147762E-02 -0.95513971648E-01  0.13246065135E+00  0.19807966583E-01 0.  0.
         14    1    1    2    0    0 -0.51937640352E-02 -0.56052863006E-02  0.22053642027E-01  0.23340041689E-01  0.00000000000E+00 0.  1.
     999901    1    3    3    0    0  0.94729662321E-01  0.18806715244E-02  0.73460329620E-01  0.88812930696E+00  0.88000000000E+00 0.  1.
        -11    1    4    4    0    0 -0.59279317203E-01 -0.68393791376E-02 -0.60042546241E-01  0.84653310834E-01  0.51100000000E-03 0. -1.
         11    1    4    4    0    0 -0.30256581083E-01  0.10563993914E-01 -0.35471425406E-01  0.47807340520E-01  0.51100000000E-03 0.  1.
</event>
<event>
 8    1  0.1097777E+005  0.1043930E+01  0.7957747E-01            NaN
         13   -1    0    0    0    0  0.00000000000E+00  0.00000000000E+00  0.74505805969E-08  0.10566000000E+00  0.10566000000E+00 0. -1.
     999900   -1    0    0    0    0 -0.00000000000E+00 -0.00000000000E+00 -0.74505805969E-08  0.93827000000E+00  0.93827000000E+00 0. -1.
     999902    2    1    2    0    0 -0.17260212931E-01 -0.12562343848E-01  0.10002823193E-01  0.10203549304E+01  0.10200825458E+01 0.  0.
     999903    2    3    3    0    0 -0.58142675112E-01 -0.96789018676E-01  0.68154393014E-01  0.13348001617E+00  0.20572035021E-01 0.  0.
         14    1    1    2    0    0  0.17260212931E-01  0.12562343848E-01 -0.10002823193E-01  0.23575069569E-01  0.00000000000E+00 0.  1.
     999901    1    3    3    0    0  0.40882462181E-01  0.84226674829E-01 -0.58151569821E-01  0.88687491426E+00  0.88000000000E+00 0.  1.
        -11    1    4    4    0    0 -0.40399504347E-01 -0.58151992534E-01  0.52584316536E-01  0.88199465156E-01  0.51100000000E-03 0.  1.
         11    1    4    4    0    0 -0.17743170765E-01 -0.38637026142E-01  0.15570076478E-01  0.45280551017E-01  0.51100000000E-03 0. -1.
</event>
<event>
 8    1  0.1097777E+005  0.1043930E+01  0.7957747E-01            NaN
         13   -1    0    0    0    0  0.00000000000E+00  0.00000000000E+00  0.74505805969E-08  0.10566000000E+00  0.10566000000E+00 0.  1.
     999900   -1    0    0    0    0 -0.00000000000E+00 -0.00000000000E+00 -0.74505805969E-08  0.93827000000E+00  0.93827000000E+00 0. -1.
     999902    2    1    2    0    0 -0.17196483755E-01  0.18055411150E-01 -0.33792215252E-02  0.10187678049E+01  0.10184570213E+01 0.  0.
     999903    2    3    3    0    0  0.98658390900E-01 -0.61295460206E-01 -0.46325153607E-01  0.12660007073E+00  0.19772367477E-01 0.  0.
         14    1    1    2    0    0  0.17196483755E-01 -0.18055411150E-01  0.33792215252E-02  0.25162195124E-01  0.00000000000E+00 0.  1.
     999901    1    3    3    0    0 -0.11585487466E+00  0.79350871355E-01  0.42945932082E-01  0.89216773414E+00  0.88000000000E+00 0.  1.
        -11    1    4    4    0    0  0.51699631291E-01 -0.21445402801E-01 -0.26226141068E-01  0.61812852816E-01  0.51100000000E-03 0. -1.
         11    1    4    4    0    0  0.46958759609E-01 -0.39850057405E-01 -0.20099012539E-01  0.64787217916E-01  0.51100000000E-03 0.  1.
</event>
<event>
 8    1  0.1097777E+005  0.1043930E+01  0.7957747E-01            NaN
         13   -1    0    0    0    0  0.00000000000E+00  0.00000000000E+00  0.74505805969E-08  0.10566000000E+00  0.10566000000E+00 0. -1.
     999900   -1    0    0    0    0 -0.00000000000E+00 -0.00000000000E+00 -0.74505805969E-08  0.93827000000E+00  0.93827000000E+00 0.  1.
     999902    2    1    2    0    0 -0.30457017699E-02 -0.22201387447E-01 -0.94003188931E-02  0.10196288910E+01  0.10193392622E+01 0.  0.
     999903    2    3    3    0    0 -0.27420586170E-01 -0.12388330666E+00 -0.33080646377E-01  0.13312220427E+00  0.22983252393E-01 0.  0.
         14    1    1    2    0    0  0.30457017699E-02  0.22201387447E-01  0.94003188931E-02  0.24301109010E-01  0.00000000000E+00 0. -1.
     999901    1    3    3    0    0  0.24374884400E-01  0.10168191921E+00  0.23680327484E-01  0.88650668672E+00  0.88000000000E+00 0. -1.
        -11    1    4    4    0    0 -0.34323064822E-02 -0.67904304737E-01 -0.19283943487E-01  0.70674655478E-01  0.51100000000E-03 0. -1.
         11    1    4    4    0    0 -0.23988279687E-01 -0.55979001924E-01 -0.13796702890E-01  0.62447548794E-01  0.51100000000E-03 0.  1.
</event>
<event>
 8    1  0.1097777E+005  0.1043930E+01  0.7957747E-01            NaN
         13   -1    0    0    0    0  0.00000000000E+00  0.00000000000E+00  0.74505805969E-08  0.10566000000E+00  0.10566000000E+00 0. -1.
     999900   -1    0    0    0    0 -0.00000000000E+00 -0.00000000000E+00 -0.74505805969E-08  0.93827000000E+00  0.93827000000E+00 0. -1.
     999902    2    1    2    0    0  0.12818864070E-01 -0.20235953860E-01 -0.42573807582E-02  0.10196001337E+01  0.10193098107E+01 0.  0.
     999903    2    3    3    0    0 -0.68933737025E-02 -0.94264806984E-01 -0.90105661101E-01  0.13210998125E+00  0.20016107158E-01 0.  0.
         14    1    1    2    0    0 -0.12818864070E-01  0.20235953860E-01  0.42573807582E-02  0.24329866329E-01  0.00000000000E+00 0.  1.
     999901    1    3    3    0    0  0.19712237772E-01  0.74028853123E-01  0.85848280343E-01  0.88749015242E+00  0.88000000000E+00 0.  1.
        -11    1    4    4    0    0 -0.13378967215E-01 -0.50496641570E-01 -0.52085631702E-01  0.73770466479E-01  0.51100000000E-03 0.  1.
         11    1    4    4    0    0  0.64855935124E-02 -0.43768165413E-01 -0.38020029399E-01  0.58339514768E-01  0.51100000000E-03 0. -1.
</event>
<event>
 8    1  0.1097777E+005  0.1043930E+01  0.7957747E-01            NaN
         13   -1    0    0    0    0  0.00000000000E+00  0.00000000000E+00  0.74505805969E-08  0.10566000000E+00  0.10566000000E+00 0.  1.
     999900   -1    0    0    0    0 -0.00000000000E+00 -0.00000000000E+00 -0.74505805969E-08  0.93827000000E+00  0.93827000000E+00 0.  1.
     999902    2    1    2    0    0  0.12655995896E-01 -0.20479321931E-01  0.45400807302E-03  0.10198513169E+01  0.10195670284E+01 0.  0.
     999903    2    3    3    0    0  0.61644084319E-01  0.10431854132E+00 -0.37204040540E-01  0.12890099943E+00  0.23430233186E-01 0.  0.
         14    1    1    2    0    0 -0.12655995896E-01  0.20479321931E-01 -0.45400807302E-03  0.24078683149E-01  0.00000000000E+00 0. -1.
     999901    1    3    3    0    0 -0.48988088424E-01 -0.12479786325E+00  0.37658048613E-01  0.89095031742E+00  0.88000000000E+00 0. -1.
        -11    1    4    4    0    0  0.40644172952E-02  0.25240400222E-01 -0.87265905950E-02  0.27018730461E-01  0.51100000000E-03 0.  1.
         11    1    4    4    0    0  0.57579667024E-01  0.79078141101E-01 -0.28477449945E-01  0.10188226897E+00  0.51100000000E-03 0. -1.
</event>
<event>
 8    1  0.1097777E+005  0.1043930E+01  0.7957747E-01            NaN
         13   -1    0    0    0    0  0.00000000000E+00  0.00000000000E+00  0.74505805969E-08  0.10566000000E+00  0.10566000000E+00 0. -1.
     999900   -1    0    0    0    0 -0.00000000000E+00 -0.00000000000E+00 -0.74505805969E-08  0.93827000000E+00  0.93827000000E+00 0. -1.
     999902    2    1    2    0    0  0.16182667579E-01  0.18328136368E-01  0.22323187111E-01  0.10108222366E+01  0.10102798969E+01 0.  0.
     999903    2    3    3    0    0  0.83197926625E-01 -0.85793398958E-01  0.15745644985E-01  0.12212903697E+00  0.19625851191E-01 0.  0.
         14    1    1    2    0    0 -0.16182667579E-01 -0.18328136368E-01 -0.22323187111E-01  0.33107763372E-01  0.00000000000E+00 0.  1.
     999901    1    3    3    0    0 -0.67015259046E-01  0.10412153533E+00  0.65775421262E-02  0.88869319966E+00  0.88000000000E+00 0.  1.
        -11    1    4    4    0    0  0.34050733494E-01 -0.22196627070E-01  0.31405705845E-02  0.40770908861E-01  0.51100000000E-03 0.  1.
         11    1    4    4    0    0  0.49147193131E-01 -0.63596771888E-01  0.12605074401E-01  0.81358128106E-01  0.51100000000E-03 0. -1.
</event>
<event>
 8    1  0.1097777E+005  0.1043930E+01  0.7957747E-01            NaN
         13   -1    0    0    0    0  0.00000000000E+00  0.00000000000E+00  0.74505805969E-08  0.10566000000E+00  0.10566000000E+00 0. -1.
     999900   -1    0    0    0    0 -0.00000000000E+00 -0.00000000000E+00 -0.74505805969E-08  0.93827000000E+00  0.93827000000E+00 0.  1.
     999902    2    1    2    0    0 -0.11223444223E-01 -0.10896079164E-01  0.19503947367E-01  0.10189281160E+01  0.10186213287E+01 0.  0.
     999903    2    3    3    0    0 -0.20973384470E-01 -0.62597390431E-02 -0.12375082079E+00  0.12727880960E+00  0.20163395951E-01 0.  0.
         14    1    1    2    0    0  0.11223444223E-01  0.10896079164E-01 -0.19503947367E-01  0.25001884014E-01  0.00000000000E+00 0.  1.
     999901    1    3    3    0    0  0.97499402469E-02 -0.46363401212E-02  0.14325476816E+00  0.89164930639E+00  0.88000000000E+00 0. -1.
        -11    1    4    4    0    0  0.36553376846E-02 -0.32605937031E-02 -0.18863577280E-01  0.19495861963E-01  0.51100000000E-03 0. -1.
         11    1    4    4    0    0 -0.24628722154E-01 -0.29991453401E-02 -0.10488724351E+00  0.10778294763E+00  0.51100000000E-03 0.  1.
</event>
<event>
 8    1  0.1097777E+005  0.1043930E+01  0.7957747E-01            NaN
         13   -1    0    0    0    0  0.00000000000E+00  0.00000000000E+00  0.74505805969E-08  0.10566000000E+00  0.10566000000E+00 0.  1.
     999900   -1    0    0    0    0 -0.00000000000E+00 -0.00000000000E+00 -0.74505805969E-08  0.93827000000E+00  0.93827000000E+00 0.  1.
     999902    2    1    2    0    0  0.55295599255E-02  0.46631368103E-02 -0.22530345763E-01  0.10202670045E+01  0.10199925603E+01 0.  0.
     999903    2    3    3    0    0 -0.12610251979E+00 -0.22749798706E-01 -0.83803695276E-03  0.12979014922E+00  0.20624783441E-01 0.  0.
         14    1    1    2    0    0 -0.55295599255E-02 -0.46631368103E-02  0.22530345763E-01  0.23662995544E-01  0.00000000000E+00 0.  1.
     999901    1    3    3    0    0  0.13163207971E+00  0.27412935516E-01 -0.21692308811E-01  0.89047685523E+00  0.88000000000E+00 0. -1.
        -11    1    4    4    0    0 -0.35154644452E-01 -0.32930038254E-02 -0.89531556783E-02  0.36429562423E-01  0.51100000000E-03 0.  1.
         11    1    4    4    0    0 -0.90947875335E-01 -0.19456794881E-01  0.81151187256E-02  0.93360586801E-01  0.51100000000E-03 0. -1.
</event>
<event>
 8    1  0.1097777E+005  0.1043930E+01  0.7957747E-01            NaN
         13   -1    0    0    0    0  0.00000000000E+00  0.00000000000E+00  0.74505805969E-08  0.10566000000E+00  0.10566000000E+00 0. -1.
     999900   -1    0    0    0    0 -0.00000000000E+00 -0.00000000000E+00 -0.74505805969E-08  0.93827000000E+00  0.93827000000E+00 0.  1.
     999902    2    1    2    0    0  0.77890228844E-02 -0.22442129868E-01 -0.31104082708E-02  0.10199718550E+01  0.10196904395E+01 0.  0.
     999903    2    3    3    0    0  0.32104823154E-01  0.88597813133E-01 -0.85692813203E-01  0.12882597434E+00  0.19302364294E-01 0.  0.
         14    1    1    2    0    0 -0.77890228844E-02  0.22442129868E-01  0.31104082708E-02  0.23958144964E-01  0.00000000000E+00 0. -1.
     999901    1    3    3    0    0 -0.24315800270E-01 -0.11103994300E+00  0.82582404932E-01  0.89114588070E+00  0.88000000000E+00 0. -1.
        -11    1    4    4    0    0 -0.14282379274E-02  0.17587694785E-01 -0.15105874713E-01  0.23233928709E-01  0.51100000000E-03 0. -1.
         11    1    4    4    0    0  0.33533061082E-01  0.71010118348E-01 -0.70586938490E-01  0.10559204563E+00  0.51100000000E-03 0.  1.
</event>
<event>
 8    1  0.1097777E+005  0.1043930E+01  0.7957747E-01            NaN
         13   -1    0    0    0    0  0.00000000000E+00  0.00000000000E+00  0.74505805969E-08  0.10566000000E+00  0.10566000000E+00 0. -1.
     999900   -1    0    0    0    0 -0.00000000000E+00 -0.00000000000E+00 -0.74505805969E-08  0.93827000000E+00  0.93827000000E+00 0. -1.
     999902    2    1    2    0    0 -0.63914025784E-02  0.22623235123E-01 -0.14568036226E-02  0.10203761665E+01  0.10201042781E+01 0.  0.
     999903    2    3    3    0    0 -0.46180208322E-01  0.35120930428E-01 -0.11680270527E+00  0.13186954389E+00  0.19509311925E-01 0.  0.
         14    1    1    2    0    0  0.63914025784E-02 -0.22623235123E-01  0.14568036226E-02  0.23553833470E-01  0.00000000000E+00 0. -1.
     999901    1    3    3    0    0  0.39788805743E-01 -0.12497695306E-01  0.11534590165E+00  0.88850662264E+00  0.88000000000E+00 0.  1.
        -11    1    4    4    0    0 -0.32527274107E-01  0.15161324031E-01 -0.56973371228E-01  0.67335840808E-01  0.51100000000E-03 0.  1.
         11    1    4    4    0    0 -0.13652934215E-01  0.19959606398E-01 -0.59829334044E-01  0.64533703081E-01  0.51100000000E-03 0. -1.
</event>
<event>
 8    1  0.1097777E+005  0.1043930E+01  0.7957747E-01            NaN
         13   -1    0    0    0    0  0.00000000000E+00  0.00000000000E+00  0.74505805969E-08  0.10566000000E+00  0.10566000000E+00 0. -1.
     999900   -1    0    0    0    0 -0.00000000000E+00 -0.00000000000E+00 -0.74505805969E-08  0.93827000000E+00  0.93827000000E+00 0.  1.
     999902    2    1    2    0    0 -0.21437166552E-01  0.94700349539E-02 -0.80102562245E-03  0.10204805797E+01  0.10202111243E+01 0.  0.
     999903    2    3    3    0    0  0.11552222884E+00  0.22860600422E-01 -0.46462016172E-01  0.12861617894E+00  0.22702645905E-01 0.  0.
         14    1    1    2    0    0  0.21437166552E-01 -0.94700349539E-02  0.80102562245E-03  0.23449420331E-01  0.00000000000E+00 0. -1.
     999901    1    3    3    0    0 -0.13695939539E+00 -0.13390565468E-01  0.45660990549E-01  0.89186440073E+00  0.88000000000E+00 0.  1.
        -11    1    4    4    0    0  0.83343399241E-01  0.74847830960E-02 -0.38290488887E-01  0.92024816410E-01  0.51100000000E-03 0.  1.
         11    1    4    4    0    0  0.32178829597E-01  0.15375817326E-01 -0.81715272849E-02  0.36591362531E-01  0.51100000000E-03 0. -1.
</event>
<event>
 8    1  0.1097777E+005  0.1043930E+01  0.7957747E-01            NaN
         13   -1    0    0    0    0  0.00000000000E+00  0.00000000000E+00  0.74505805969E-08  0.10566000000E+00  0.10566000000E+00 0. -1.
     999900   -1    0    0    0    0 -0.00000000000E+00 -0.00000000000E+00 -0.74505805969E-08  0.93827000000E+00  0.93827000000E+00 0. -1.
     999902    2    1    2    0    0  0.21059377431E-01 -0.58098769897E-02 -0.22117477757E-01  0.10128424644E+01  0.10123652615E+01 0.  0.
     999903    2    3    3    0    0  0.86359814121E-01 -0.42136930726E-01  0.76084714246E-01  0.12423261052E+00  0.20281009566E-01 0.  0.
         14    1    1    2    0    0 -0.21059377431E-01  0.58098769897E-02  0.22117477757E-01  0.31087535617E-01  0.00000000000E+00 0. -1.
     999901    1    3    3    0    0 -0.65300436690E-01  0.36327053736E-01 -0.98202192003E-01  0.88860985386E+00  0.88000000000E+00 0. -1.
        -11    1    4    4    0    0  0.72037403967E-01 -0.39429972300E-01  0.71654640678E-01  0.10898971941E+00  0.51100000000E-03 0. -1.
         11    1    4    4    0    0  0.14322410155E-01 -0.27069584260E-02  0.44300735682E-02  0.15242891110E-01  0.51100000000E-03 0.  1.
</event>
<event>
 8    1  0.1097777E+005  0.1043930E+01  0.7957747E-01            NaN
         13   -1    0    0    0    0  0.00000000000E+00  0.00000000000E+00  0.74505805969E-08  0.10566000000E+00  0.10566000000E+00 0.  1.
     999900   -1    0    0    0    0 -0.00000000000E+00 -0.00000000000E+00 -0.74505805969E-08  0.93827000000E+00  0.93827000000E+00 0.  1.
     999902    2    1    2    0    0 -0.41143924950E-02 -0.84223942083E-02 -0.20975383082E-01  0.10209554131E+01  0.10206968815E+01 0.  0.
     999903    2    3    3    0    0 -0.66791593239E-01 -0.47417752772E-01  0.98702271371E-01  0.12979223470E+00  0.19857633527E-01 0.  0.
         14    1    1    2    0    0  0.41143924950E-02  0.84223942083E-02  0.20975383082E-01  0.22974586944E-01  0.00000000000E+00 0.  1.
     999901    1    3    3    0    0  0.62677200744E-01  0.38995358564E-01 -0.11967765445E+00  0.89116317836E+00  0.88000000000E+00 0.  1.
        -11    1    4    4    0    0 -0.37960215517E-01 -0.17109256190E-01  0.58210348748E-01  0.71571016703E-01  0.51100000000E-03 0.  1.
         11    1    4    4    0    0 -0.28831377723E-01 -0.30308496582E-01  0.40491922622E-01  0.58221217997E-01  0.51100000000E-03 0. -1.
</event>
<event>
 8    1  0.1097777E+005  0.1043930E+01  0.7957747E-01            NaN
         13   -1    0    0    0    0  0.00000000000E+00  0.00000000000E+00  0.74505805969E-08  0.10566000000E+00  0.10566000000E+00 0.  1.
     999900   -1    0    0    0    0 -0.00000000000E+00 -0.00000000000E+00 -0.74505805969E-08  0.93827000000E+00  0.93827000000E+00 0. -1.
     999902    2    1    2    0    0  0.10077442059E-01 -0.11174601240E-02 -0.21947737381E-01  0.10197534260E+01  0.10194667935E+01 0.  0.
     999903    2    3    3    0    0 -0.55653153644E-01 -0.11005539911E+00 -0.33999664287E-01  0.13052160316E+00  0.25892997819E-01 0.  0.
         14    1    1    2    0    0 -0.10077442059E-01  0.11174601240E-02  0.21947737381E-01  0.24176574028E-01  0.00000000000E+00 0.  1.
     999901    1    3    3    0    0  0.65730595703E-01  0.10893793898E+00  0.12051926905E-01  0.88923182281E+00  0.88000000000E+00 0.  1.
        -11    1    4    4    0    0 -0.39175176137E-01 -0.80880975397E-01 -0.12570021910E-01  0.90745210223E-01  0.51100000000E-03 0.  1.
         11    1    4    4    0    0 -0.16477977507E-01 -0.29174423711E-01 -0.21429642376E-01  0.39776392936E-01  0.51100000000E-03 0. -1.
</event>
<event>
 8    1  0.1097777E+005  0.1043930E+01  0.7957747E-01            NaN
         13   -1    0    0    0    0  0.00000000000E+00  0.00000000000E+00  0.74505805969E-08  0.10566000000E+00  0.10566000000E+00 0.  1.
     999900   -1    0    0    0    0 -0.00000000000E+00 -0.00000000000E+00 -0.74505805969E-08  0.93827000000E+00  0.93827000000E+00 0. -1.
     999902    2    1    2    0    0  0.15909974390E-01  0.86779771549E-03  0.16856560343E-01  0.10207346560E+01  0.10204710745E+01 0.  0.
     999903    2    3    3    0    0  0.79250070134E-01 -0.82946011655E-01  0.64476666900E-01  0.13320753136E+00  0.20649246268E-01 0.  0.
         14    1    1    2    0    0 -0.15909974390E-01 -0.86779771549E-03 -0.16856560343E-01  0.23195344028E-01  0.00000000000E+00 0. -1.
     999901    1    3    3    0    0 -0.63340095744E-01  0.83813809370E-01 -0.47620106557E-01  0.88752712461E+00  0.88000000000E+00 0. -1.
        -11    1    4    4    0    0  0.45304420450E-01 -0.60962428157E-01  0.45395912521E-01  0.88487050769E-01  0.51100000000E-03 0. -1.
         11    1    4    4    0    0  0.33945649684E-01 -0.21983583498E-01  0.19080754379E-01  0.44720480594E-01  0.51100000000E-03 0.  1.
</event>
<event>
 8    1  0.1097777E+005  0.1043930E+01  0.7957747E-01            NaN
         13   -1    0    0    0    0  0.00000000000E+00  0.00000000000E+00  0.74505805969E-08  0.10566000000E+00  0.10566000000E+00 0. -1.
     999900   -1    0    0    0    0 -0.00000000000E+00 -0.00000000000E+00 -0.74505805969E-08  0.93827000000E+00  0.93827000000E+00 0. -1.
     999902    2    1    2    0    0 -0.96182581904E-02  0.14464001462E-01  0.13826645440E-01  0.10217287759E+01  0.10214875413E+01 0.  0.
     999903    2    3    3    0    0 -0.39123455181E-01  0.11733353754E+00  0.49108484892E-01  0.13454361690E+00  0.19812566240E-01 0.  0.
         14    1    1    2    0    0  0.96182581904E-02 -0.14464001462E-01 -0.13826645440E-01  0.22201224134E-01  0.00000000000E+00 0.  1.
     999901    1    3    3    0    0  0.29505196991E-01 -0.10286953608E+00 -0.35281839452E-01  0.88718515897E+00  0.88000000000E+00 0. -1.
        -11    1    4    4    0    0 -0.77638862526E-02  0.41584851764E-01  0.89128329917E-02  0.43235142407E-01  0.51100000000E-03 0.  1.
         11    1    4    4    0    0 -0.31359568929E-01  0.75748685780E-01  0.40195651900E-01  0.91308474489E-01  0.51100000000E-03 0. -1.
</event>
<event>
 8    1  0.1097777E+005  0.1043930E+01  0.7957747E-01            NaN
         13   -1    0    0    0    0  0.00000000000E+00  0.00000000000E+00  0.74505805969E-08  0.10566000000E+00  0.10566000000E+00 0.  1.
     999900   -1    0    0    0    0 -0.00000000000E+00 -0.00000000000E+00 -0.74505805969E-08  0.93827000000E+00  0.93827000000E+00 0. -1.
     999902    2    1    2    0    0  0.15348392013E-01  0.11386746357E-01 -0.13165504098E-01  0.10207230694E+01  0.10204592215E+01 0.  0.
     999903    2    3    3    0    0  0.12146728259E+00 -0.48330538745E-01 -0.32946891197E-02  0.13228353512E+00  0.19948357585E-01 0.  0.
         14    1    1    2    0    0 -0.15348392013E-01 -0.11386746357E-01  0.13165504098E-01  0.23206930606E-01  0.00000000000E+00 0.  1.
     999901    1    3    3    0    0 -0.10611889058E+00  0.59717285103E-01 -0.98708149788E-02  0.88843953428E+00  0.88000000000E+00 0.  1.
        -11    1    4    4    0    0  0.40224370141E-01 -0.21742411183E-01 -0.90161651002E-02  0.46607775654E-01  0.51100000000E-03 0.  1.
         11    1    4    4    0    0  0.81242912453E-01 -0.26588127563E-01  0.57214759805E-02  0.85675759463E-01  0.51100000000E-03 0. -1.
</event>
<event>
 8    1  0.1097777E+005  0.1043930E+01  0.7957747E-01            NaN
         13   -1    0    0    0    0  0.00000000000E+00  0.00000000000E+00  0.74505805969E-08  0.10566000000E+00  0.10566000000E+00 0.  1.
     999900   -1    0    0    0    0 -0.00000000000E+00 -0.00000000000E+00 -0.74505805969E-08  0.93827000000E+00  0.93827000000E+00 0. -1.
     999902    2    1    2    0    0 -0.81064255121E-02  0.20360575471E-01 -0.40529424004E-02  0.10216433782E+01  0.10214002637E+01 0.  0.
     999903    2    3    3    0    0  0.34930022111E-01 -0.18199410088E-01  0.12348292223E+00  0.13057413003E+00  0.15819177546E-01 0.  0.
         14    1    1    2    0    0  0.81064255121E-02 -0.20360575471E-01  0.40529424004E-02  0.22286621776E-01  0.00000000000E+00 0.  1.
     999901    1    3    3    0    0 -0.43036447623E-01  0.38559985559E-01 -0.12753586463E+00  0.89106924819E+00  0.88000000000E+00 0.  1.
        -11    1    4    4    0    0  0.73818171001E-02 -0.11264950040E-01  0.30451761157E-01  0.33301069077E-01  0.51100000000E-03 0. -1.
         11    1    4    4    0    0  0.27548205011E-01 -0.69344600486E-02  0.93031161074E-01  0.97273060953E-01  0.51100000000E-03 0.  1.
</event>
<event>
 8    1  0.1097777E+005  0.1043930E+01  0.7957747E-01            NaN
         13   -1    0    0    0    0  0.00000000000E+00  0.00000000000E+00  0.74505805969E-08  0.10566000000E+00  0.10566000000E+00 0. -1.
     999900   -1    0    0    0    0 -0.00000000000E+00 -0.00000000000E+00 -0.74505805969E-08  0.93827000000E+00  0.93827000000E+00 0. -1.
     999902    2    1    2    0    0 -0.19262858863E-02 -0.19588944022E-01  0.13570244280E-01  0.10200220759E+01  0.10197418529E+01 0.  0.
     999903    2    3    3    0    0 -0.72244973754E-01  0.97952061852E-01 -0.34736820299E-01  0.12811727245E+00  0.19835477328E-01 0.  0.
         14    1    1    2    0    0  0.19262858863E-02  0.19588944022E-01 -0.13570244280E-01  0.23907924106E-01  0.00000000000E+00 0.  1.
     999901    1    3    3    0    0  0.70318687868E-01 -0.11754100587E+00  0.48307064578E-01  0.89190480345E+00  0.88000000000E+00 0. -1.
        -11    1    4    4    0    0 -0.39168050695E-01  0.39484821012E-01 -0.98834450219E-02  0.56490095522E-01  0.51100000000E-03 0. -1.
         11    1    4    4    0    0 -0.33076923059E-01  0.58467240840E-01 -0.24853375277E-01  0.71627176924E-01  0.51100000000E-03 0.  1.
</event>
<event>
 8    1  0.1097777E+005  0.1043930E+01  0.7957747E-01            NaN
         13   -1    0    0    0    0  0.00000000000E+00  0.00000000000E+00  0.74505805969E-08  0.10566000000E+00  0.10566000000E+00 0.  1.
     999900   -1    0    0    0    0 -0.00000000000E+00 -0.00000000000E+00 -0.74505805969E-08  0.93827000000E+00  0.93827000000E+00 0.  1.
     999902    2    1    2    0    0 -0.47704585865E-02  0.39514230182E-02 -0.24923922278E-01  0.10182478482E+01  0.10179239203E+01 0.  0.
     999903    2    3    3    0    0 -0.77305832461E-01  0.55323976021E-01  0.82272556129E-01  0.12729801536E+00  0.19976915869E-01 0.  0.
         14    1    1    2    0    0  0.47704585865E-02 -0.39514230182E-02  0.24923922278E-01  0.25682151793E-01  0.00000000000E+00 0.  1.
     999901    1    3    3    0    0  0.72535373875E-01 -0.51372553003E-01 -0.10719647841E+00  0.89094983285E+00  0.88000000000E+00 0.  1.
        -11    1    4    4    0    0 -0.18676722402E-01  0.51075151189E-02  0.11244477669E-01  0.22396563786E-01  0.51100000000E-03 0.  1.
         11    1    4    4    0    0 -0.58629110059E-01  0.50216460902E-01  0.71028078460E-01  0.10490145157E+00  0.51100000000E-03 0. -1.
</event>
<event>
 8    1  0.1097777E+005  0.1043930E+01  0.7957747E-01            NaN
         13   -1    0    0    0    0  0.00000000000E+00  0.00000000000E+00  0.74505805969E-08  0.10566000000E+00  0.10566000000E+00 0. -1.
     999900   -1    0    0    0    0 -0.00000000000E+00 -0.00000000000E+00 -0.74505805969E-08  0.93827000000E+00  0.93827000000E+00 0. -1.
     999902    2    1    2    0    0  0.12349656378E-02  0.22356663965E-01 -0.85693565075E-02  0.10199554419E+01  0.10196736361E+01 0.  0.
     999903    2    3    3    0    0  0.99006701697E-01 -0.60610056496E-01  0.51686635131E-01  0.12862297107E+00  0.19911165379E-01 0.  0.
         14    1    1    2    0    0 -0.12349656378E-02 -0.22356663965E-01  0.85693565075E-02  0.23974558071E-01  0.00000000000E+00 0.  1.
     999901    1    3    3    0    0 -0.97771736059E-01  0.82966720461E-01 -0.60255991639E-01  0.89133247086E+00  0.88000000000E+00 0. -1.
        -11    1    4    4    0    0  0.16637058483E-01 -0.22470498659E-02  0.63130075042E-02  0.17943136092E-01  0.51100000000E-03 0.  1.
         11    1    4    4    0    0  0.82369643213E-01 -0.58363006630E-01  0.45373627627E-01  0.11067983498E+00  0.51100000000E-03 0. -1.
</event>
<event>
 8    1  0.1097777E+005  0.1043930E+01  0.7957747E-01            NaN
         13   -1    0    0    0    0  0.00000000000E+00  0.00000000000E+00  0.74505805969E-08  0.10566000000E+00  0.10566000000E+00 0.  1.
     999900   -1    0    0    0    0 -0.00000000000E+00 -0.00000000000E+00 -0.74505805969E-08  0.93827000000E+00  0.93827000000E+00 0. -1.
     999902    2    1    2    0    0  0.10120031244E-01 -0.21860111494E-01  0.45108211540E-02  0.10194223070E+01  0.10191276726E+01 0.  0.
     999903    2    3    3    0    0 -0.49248766004E-02  0.11289727750E+00  0.55783015640E-01  0.12756203711E+00  0.19755475248E-01 0.  0.
         14    1    1    2    0    0 -0.10120031244E-01  0.21860111494E-01 -0.45108211540E-02  0.24507692963E-01  0.00000000000E+00 0. -1.
     999901    1    3    3    0    0  0.15044907844E-01 -0.13475738899E+00 -0.51272194486E-01  0.89186026992E+00  0.88000000000E+00 0. -1.
        -11    1    4    4    0    0 -0.56590630286E-02  0.71935441605E-01  0.45544614509E-01  0.85330567706E-01  0.51100000000E-03 0.  1.
         11    1    4    4    0    0  0.73418642825E-03  0.40961835895E-01  0.10238401131E-01  0.42231469407E-01  0.51100000000E-03 0. -1.
</event>
<event>
 8    1  0.1097777E+005  0.1043930E+01  0.7957747E-01            NaN
         13   -1    0    0    0    0  0.00000000000E+00  0.00000000000E+00  0.74505805969E-08  0.10566000000E+00  0.10566000000E+00 0. -1.
     999900   -1    0    0    0    0 -0.00000000000E+00 -0.00000000000E+00 -0.74505805969E-08  0.93827000000E+00  0.93827000000E+00 0. -1.
     999902    2    1    2    0    0 -0.71898772572E-02 -0.15492438095E-01  0.15323911071E-01  0.10209837100E+01  0.10207258221E+01 0.  0.
     999903    2    3    3    0    0 -0.79336180237E-01 -0.55149997527E-01  0.90168041451E-01  0.13397781664E+00  0.22000634761E-01 0.  0.
         14    1    1    2    0    0  0.71898772572E-02  0.15492438095E-01 -0.15323911071E-01  0.22946289975E-01  0.00000000000E+00 0.  1.
     999901    1    3    3    0    0  0.72146302980E-01  0.39657559432E-01 -0.74844130379E-01  0.88700589339E+00  0.88000000000E+00 0. -1.
        -11    1    4    4    0    0 -0.61041097707E-01 -0.32379131352E-01  0.55401589642E-01  0.88566477926E-01  0.51100000000E-03 0.  1.
         11    1    4    4    0    0 -0.18295082530E-01 -0.22770866174E-01  0.34766451808E-01  0.45411338710E-01  0.51100000000E-03 0. -1.
</event>
<event>
 8    1  0.1097777E+005  0.1043930E+01  0.7957747E-01            NaN
         13   -1    0    0    0    0  0.00000000000E+00  0.00000000000E+00  0.74505805969E-08  0.10566000000E+00  0.10566000000E+00 0.  1.
     999900   -1    0    0    0    0 -0.00000000000E+00 -0.00000000000E+00 -0.74505805969E-08  0.93827000000E+00  0.93827000000E+00 0. -1.
     999902    2    1    2    0    0  0.19084324000E-01  0.14318101604E-01 -0.46964779488E-02  0.10196138251E+01  0.10193238327E+01 0.  0.
     999903    2    3    3    0    0  0.33010006638E-01  0.11925344078E+00  0.41362261405E-01  0.13207410346E+00  0.20535054415E-01 0.  0.
         14    1    1    2    0    0 -0.19084324000E-01 -0.14318101604E-01  0.46964779488E-02  0.24316174889E-01  0.00000000000E+00 0. -1.
     999901    1    3    3    0    0 -0.13925682639E-01 -0.10493533917E+00 -0.46058739353E-01  0.88753972165E+00  0.88000000000E+00 0. -1.
        -11    1    4    4    0    0  0.23591269365E-01  0.61324279421E-01  0.13393618972E-01  0.67058671229E-01  0.51100000000E-03 0. -1.
         11    1    4    4    0    0  0.94187372736E-02  0.57929161356E-01  0.27968642433E-01  0.65015432228E-01  0.51100000000E-03 0.  1.
</event>
<event>
 8    1  0.1097777E+005  0.1043930E+01  0.7957747E-01            NaN
         13   -1    0    0    0    0  0.00000000000E+00  0.00000000000E+00  0.74505805969E-08  0.10566000000E+00  0.10566000000E+00 0.  1.
     999900   -1    0    0    0    0 -0.00000000000E+00 -0.00000000000E+00 -0.74505805969E-08  0.93827000000E+00  0.93827000000E+00 0. -1.
     999902    2    1    2    0    0  0.12426480597E-01  0.20004394085E-01  0.49618255717E-02  0.10198631573E+01  0.10195791518E+01 0.  0.
     999903    2    3    3    0    0  0.11376457775E+00 -0.14206617985E-01 -0.59853002880E-01  0.13102078365E+00  0.20972759663E-01 0.  0.
         14    1    1    2    0    0 -0.12426480597E-01 -0.20004394085E-01 -0.49618255717E-02  0.24066842662E-01  0.00000000000E+00 0. -1.
     999901    1    3    3    0    0 -0.10133809716E+00  0.34211012069E-01  0.64814828451E-01  0.88884237369E+00  0.88000000000E+00 0. -1.
        -11    1    4    4    0    0  0.16893782668E-01  0.32488344172E-02 -0.15085618291E-01  0.22886498599E-01  0.51100000000E-03 0.  1.
         11    1    4    4    0    0  0.96870795085E-01 -0.17455452402E-01 -0.44767384589E-01  0.10813428505E+00  0.51100000000E-03 0. -1.
</event>
<event>
 8    1  0.1097777E+005  0.1043930E+01  0.7957747E-01            NaN
         13   -1    0    0    0    0  0.00000000000E+00  0.00000000000E+00  0.74505805969E-08  0.10566000000E+00  0.10566000000E+00 0. -1.
     999900   -1    0    0    0    0 -0.00000000000E+00 -0.00000000000E+00 -0.74505805969E-08  0.93827000000E+00  0.93827000000E+00 0.  1.
     999902    2    1    2    0    0  0.64196914161E-02 -0.14281748785E-01 -0.17815864246E-01  0.10202111087E+01  0.10199353511E+01 0.  0.
     999903    2    3    3    0    0 -0.47224131977E-01 -0.94153500401E-01 -0.78551140410E-01  0.13288595393E+00  0.19834182953E-01 0.  0.
         14    1    1    2    0    0 -0.64196914161E-02  0.14281748785E-01  0.17815864246E-01  0.23718891312E-01  0.00000000000E+00 0. -1.
     999901    1    3    3    0    0  0.53643823393E-01  0.79871751616E-01  0.60735276164E-01  0.88732515476E+00  0.88000000000E+00 0. -1.
        -11    1    4    4    0    0 -0.11528195822E-01 -0.86979846740E-02 -0.12824835088E-01  0.19320759621E-01  0.51100000000E-03 0. -1.
         11    1    4    4    0    0 -0.35695936155E-01 -0.85455515727E-01 -0.65726305323E-01  0.11356519431E+00  0.51100000000E-03 0.  1.
</event>
<event>
 8    1  0.1097777E+005  0.1043930E+01  0.7957747E-01            NaN
         13   -1    0    0    0    0  0.00000000000E+00  0.00000000000E+00  0.74505805969E-08  0.10566000000E+00  0.10566000000E+00 0. -1.
     999900   -1    0    0    0    0 -0.00000000000E+00 -0.00000000000E+00 -0.74505805969E-08  0.93827000000E+00  0.93827000000E+00 0.  1.
     999902    2    1    2    0    0  0.14809307034E-01 -0.15822303999E-01 -0.50677234283E-02  0.10216737043E+01  0.10214312582E+01 0.  0.
     999903    2    3    3    0    0  0.56218240546E-01 -0.15179485461E-01  0.11692239473E+00  0.13229375065E+00  0.20973381276E-01 0.  0.
         14    1    1    2    0    0 -0.14809307034E-01  0.15822303999E-01  0.50677234283E-02  0.22256295726E-01  0.00000000000E+00 0. -1.
     999901    1    3    3    0    0 -0.41408933512E-01 -0.64281853838E-03 -0.12199011815E+00  0.88937995363E+00  0.88000000000E+00 0.  1.
        -11    1    4    4    0    0  0.69816114948E-02 -0.45052591502E-02  0.36148280519E-01  0.37094468112E-01  0.51100000000E-03 0.  1.
         11    1    4    4    0    0  0.49236629052E-01 -0.10674226311E-01  0.80774114208E-01  0.95199282533E-01  0.51100000000E-03 0. -1.
</event>
<event>
 8    1  0.1097777E+005  0.1043930E+01  0.7957747E-01            NaN
         13   -1    0    0    0    0  0.00000000000E+00  0.00000000000E+00  0.74505805969E-08  0.10566000000E+00  0.10566000000E+00 0.  1.
     999900   -1    0    0    0    0 -0.00000000000E+00 -0.00000000000E+00 -0.74505805969E-08  0.93827000000E+00  0.93827000000E+00 0.  1.
     999902    2    1    2    0    0 -0.49682008262E-02  0.13197680555E-02 -0.22929767891E-01  0.10204310838E+01  0.10201604765E+01 0.  0.
     999903    2    3    3    0    0 -0.22446352240E-01 -0.27442900942E-01 -0.12713787242E+00  0.13364356361E+00  0.20966925130E-01 0.  0.
         14    1    1    2    0    0  0.49682008262E-02 -0.13197680555E-02  0.22929767891E-01  0.23498916203E-01  0.00000000000E+00 0.  1.
     999901    1    3    3    0    0  0.17478151414E-01  0.28762668997E-01  0.10420810453E+00  0.88678752018E+00  0.88000000000E+00 0. -1.
        -11    1    4    4    0    0  0.34671731326E-02 -0.69858558656E-02 -0.31926339285E-01  0.32869069547E-01  0.51100000000E-03 0. -1.
         11    1    4    4    0    0 -0.25913525372E-01 -0.20457045076E-01 -0.95211533139E-01  0.10077449407E+00  0.51100000000E-03 0.  1.
</event>
<event>
 8    1  0.1097777E+005  0.1043930E+01  0.7957747E-01            NaN
         13   -1    0    0    0    0  0.00000000000E+00  0.00000000000E+00  0.74505805969E-08  0.10566000000E+00  0.10566000000E+00 0.  1.
     999900   -1    0    0    0    0 -0.00000000000E+00 -0.00000000000E+00 -0.74505805969E-08  0.93827000000E+00  0.93827000000E+00 0. -1.
     999902    2    1    2    0    0  0.13923766738E-01 -0.18156442300E-01  0.66826132393E-02  0.10200933686E+01  0.10198148340E+01 0.  0.
     999903    2    3    3    0    0  0.98468144350E-01  0.87856915890E-02 -0.83595575226E-01  0.13103556300E+00  0.20222135047E-01 0.  0.
         14    1    1    2    0    0 -0.13923766738E-01  0.18156442300E-01 -0.66826132393E-02  0.23836631408E-01  0.00000000000E+00 0.  1.
     999901    1    3    3    0    0 -0.84544377613E-01 -0.26942133889E-01  0.90278188466E-01  0.88905780559E+00  0.88000000000E+00 0. -1.
        -11    1    4    4    0    0  0.54238273615E-01  0.77477376717E-02 -0.58572003802E-01  0.80204479389E-01  0.51100000000E-03 0.  1.
         11    1    4    4    0    0  0.44229870735E-01  0.10379539173E-02 -0.25023571425E-01  0.50831083615E-01  0.51100000000E-03 0. -1.
</event>
<event>
 8    1  0.1097777E+005  0.1043930E+01  0.7957747E-01            NaN
         13   -1    0    0    0    0  0.00000000000E+00  0.00000000000E+00  0.74505805969E-08  0.10566000000E+00  0.10566000000E+00 0. -1.
     999900   -1    0    0    0    0 -0.00000000000E+00 -0.00000000000E+00 -0.74505805969E-08  0.93827000000E+00  0.93827000000E+00 0. -1.
     999902    2    1    2    0    0  0.18041801419E-01  0.14378528190E-01  0.51850518272E-02  0.10202839975E+01  0.10200099520E+01 0.  0.
     999903    2    3    3    0    0 -0.23356206386E-01 -0.36481068039E-01 -0.11998123794E+00  0.12901125941E+00  0.19287998733E-01 0.  0.
         14    1    1    2    0    0 -0.18041801419E-01 -0.14378528190E-01 -0.51850518272E-02  0.23646002491E-01  0.00000000000E+00 0.  1.
     999901    1    3    3    0    0  0.41398007804E-01  0.50859596229E-01  0.12516628977E+00  0.89127273810E+00  0.88000000000E+00 0.  1.
        -11    1    4    4    0    0 -0.78411622207E-02 -0.14990206428E-03 -0.22185698198E-01  0.23536622977E-01  0.51100000000E-03 0. -1.
         11    1    4    4    0    0 -0.15515044165E-01 -0.36331165975E-01 -0.97795539744E-01  0.10547463644E+00  0.51100000000E-03 0.  1.
</event>
<event>
 8    1  0.1097777E+005  0.1043930E+01  0.7957747E-01            NaN
         13   -1    0    0    0    0  0.00000000000E+00  0.00000000000E+00  0.74505805969E-08  0.10566000000E+00  0.10566000000E+00 0. -1.
     999900   -1    0    0    0    0 -0.00000000000E+00 -0.00000000000E+00 -0.74505805969E-08  0.93827000000E+00  0.93827000000E+00 0.  1.
     999902    2    1    2    0    0 -0.17588704334E-01  0.14280048344E-01  0.75911677833E-02  0.10200363161E+01  0.10197564308E+01 0.  0.
     999903    2    3    3    0    0 -0.26735133679E-01  0.13398413904E-01  0.12690190281E+00  0.13193751197E+00  0.20226943903E-01 0.  0.
         14    1    1    2    0    0  0.17588704334E-01 -0.14280048344E-01 -0.75911677833E-02  0.23893683876E-01  0.00000000000E+00 0. -1.
     999901    1    3    3    0    0  0.91464293450E-02  0.88163443976E-03 -0.11931073503E+00  0.88809880416E+00  0.88000000000E+00 0.  1.
        -11    1    4    4    0    0 -0.17331145181E-01  0.10950297296E-01  0.44913703248E-01  0.49373874312E-01  0.51100000000E-03 0. -1.
         11    1    4    4    0    0 -0.94039884979E-02  0.24481166085E-02  0.81988199562E-01  0.82563637657E-01  0.51100000000E-03 0.  1.
</event>
<event>
 8    1  0.1097777E+005  0.1043930E+01  0.7957747E-01            NaN
         13   -1    0    0    0    0  0.00000000000E+00  0.00000000000E+00  0.74505805969E-08  0.10566000000E+00  0.10566000000E+00 0.  1.
     999900   -1    0    0    0    0 -0.00000000000E+00 -0.00000000000E+00 -0.74505805969E-08  0.93827000000E+00  0.93827000000E+00 0.  1.
     999902    2    1    2    0    0 -0.20707008570E-02 -0.16916663214E-01 -0.17671586802E-01  0.10193791084E+01  0.10190834217E+01 0.  0.
     999903    2    3    3    0    0  0.81368338158E-01 -0.10113216303E+00 -0.39406111377E-02  0.13132344389E+00  0.19539642909E-01 0.  0.
         14    1    1    2    0    0  0.20707008570E-02  0.16916663214E-01  0.17671586802E-01  0.24550891561E-01  0.00000000000E+00 0.  1.
     999901    1    3    3    0    0 -0.83439039015E-01  0.84215499819E-01 -0.13730975665E-01  0.88805566455E+00  0.88000000000E+00 0. -1.
        -11    1    4    4    0    0  0.55875984804E-01 -0.81383742616E-01 -0.67473514277E-02  0.98950629671E-01  0.51100000000E-03 0. -1.
         11    1    4    4    0    0  0.25492353354E-01 -0.19748420418E-01  0.28067402899E-02  0.32372814221E-01  0.51100000000E-03 0.  1.
</event>
<event>
 8    1  0.1097777E+005  0.1043930E+01  0.7957747E-01            NaN
         13   -1    0    0    0    0  0.00000000000E+00  0.00000000000E+00  0.74505805969E-08  0.10566000000E+00  0.10566000000E+00 0. -1.
     999900   -1    0    0    0    0 -0.00000000000E+00 -0.00000000000E+00 -0.74505805969E-08  0.93827000000E+00  0.93827000000E+00 0.  1.
     999902    2    1    2    0    0 -0.11457562202E-01 -0.20950302210E-01 -0.56482502998E-03  0.10200446505E+01  0.10197649627E+01 0.  0.
     999903    2    3    3    0    0 -0.56433296482E-01  0.88183182853E-01 -0.73091734667E-01  0.12920623255E+00  0.19770133130E-01 0.  0.
         14    1    1    2    0    0  0.11457562202E-01  0.20950302210E-01  0.56482502998E-03  0.23885349518E-01  0.00000000000E+00 0.  1.
     999901    1    3    3    0    0  0.44975734281E-01 -0.10913348506E+00  0.72526909637E-01  0.89083841793E+00  0.88000000000E+00 0. -1.
        -11    1    4    4    0    0 -0.32699974992E-01  0.38699735928E-01 -0.26314943110E-01  0.57093741139E-01  0.51100000000E-03 0. -1.
         11    1    4    4    0    0 -0.23733321490E-01  0.49483446926E-01 -0.46776791557E-01  0.72112491414E-01  0.51100000000E-03 0.  1.
</event>
<event>
 8    1  0.1097777E+005  0.1043930E+01  0.7957747E-01            NaN
         13   -1    0    0    0    0  0.00000000000E+00  0.00000000000E+00  0.74505805969E-08  0.10566000000E+00  0.10566000000E+00 0. -1.
     999900   -1    0    0    0    0 -0.00000000000E+00 -0.00000000000E+00 -0.74505805969E-08  0.93827000000E+00  0.93827000000E+00 0. -1.
     999902    2    1    2    0    0  0.62142921921E-02 -0.57512423325E-02 -0.23415609155E-01  0.10190305027E+01  0.10187262539E+01 0.  0.
     999903    2    3    3    0    0 -0.73643103329E-01 -0.90018052401E-01  0.50386948036E-01  0.12834261324E+00  0.20159995435E-01 0.  0.
         14    1    1    2    0    0 -0.62142921921E-02  0.57512423325E-02  0.23415609155E-01  0.24899497343E-01  0.00000000000E+00 0. -1.
     999901    1    3    3    0    0  0.79857395521E-01  0.84266810069E-01 -0.73802557192E-01  0.89068788941E+00  0.88000000000E+00 0. -1.
        -11    1    4    4    0    0 -0.52176375375E-01 -0.50044284228E-01  0.35822108710E-01  0.80686362693E-01  0.51100000000E-03 0. -1.
         11    1    4    4    0    0 -0.21466727954E-01 -0.39973768173E-01  0.14564839326E-01  0.47656250551E-01  0.51100000000E-03 0.  1.
</event>
<event>
 8    1  0.1097777E+005  0.1043930E+01  0.7957747E-01            NaN
         13   -1    0    0    0    0  0.00000000000E+00  0.00000000000E+00  0.74505805969E-08  0.10566000000E+00  0.10566000000E+00 0. -1.
     999900   -1    0    0    0    0 -0.00000000000E+00 -0.00000000000E+00 -0.74505805969E-08  0.93827000000E+00  0.93827000000E+00 0. -1.
     999902    2    1    2    0    0 -0.22490455960E-01  0.76250497735E-03 -0.64721413888E-02  0.10205143933E+01  0.10202457235E+01 0.  0.
     999903    2    3    3    0    0  0.11517833646E+00 -0.50955984866E-01 -0.13258438425E-01  0.12828485309E+00  0.20461079129E-01 0.  0.
         14    1    1    2    0    0  0.22490455960E-01 -0.76250497735E-03  0.64721413888E-02  0.23415606703E-01  0.00000000000E+00 0.  1.
     999901    1    3    3    0    0 -0.13766879242E+00  0.51718489843E-01  0.67862970366E-02  0.89222954021E+00  0.88000000000E+00 0.  1.
        -11    1    4    4    0    0  0.91405053256E-01 -0.31900137751E-01 -0.62342962065E-02  0.97013556370E-01  0.51100000000E-03 0. -1.
         11    1    4    4    0    0  0.23773283201E-01 -0.19055847114E-01 -0.70241422190E-02  0.31271296716E-01  0.51100000000E-03 0.  1.
</event>
<event>
 8    1  0.1097777E+005  0.1043930E+01  0.7957747E-01            NaN
         13   -1    0    0    0    0  0.00000000000E+00  0.00000000000E+00  0.74505805969E-08  0.10566000000E+00  0.10566000000E+00 0. -1.
     999900   -1    0    0    0    0 -0.00000000000E+00 -0.00000000000E+00 -0.74505805969E-08  0.93827000000E+00  0.93827000000E+00 0.  1.
     999902    2    1    2    0    0  0.21433221143E-01  0.11563256250E-01 -0.62686561857E-02  0.10187826758E+01  0.10184722640E+01 0.  0.
     999903    2    3    3    0    0  0.61944013203E-01  0.91373127232E-01  0.68026817926E-01  0.13112814996E+00  0.19514984077E-01 0.  0.
         14    1    1    2    0    0 -0.21433221143E-01 -0.11563256250E-01  0.62686561857E-02  0.25147324193E-01  0.00000000000E+00 0. -1.
     999901    1    3    3    0    0 -0.40510792060E-01 -0.79809870982E-01 -0.74295474111E-01  0.88765452584E+00  0.88000000000E+00 0.  1.
        -11    1    4    4    0    0  0.48211186858E-01  0.69411127784E-01  0.61174016199E-01  0.10432997928E+00  0.51100000000E-03 0.  1.
         11    1    4    4    0    0  0.13732826346E-01  0.21961999449E-01  0.68528017269E-02  0.26798170679E-01  0.51100000000E-03 0. -1.
</event>
<event>
 8    1  0.1097777E+005  0.1043930E+01  0.7957747E-01            NaN
         13   -1    0    0    0    0  0.00000000000E+00  0.00000000000E+00  0.74505805969E-08  0.10566000000E+00  0.10566000000E+00 0.  1.
     999900   -1    0    0    0    0 -0.00000000000E+00 -0.00000000000E+00 -0.74505805969E-08  0.93827000000E+00  0.93827000000E+00 0. -1.
     999902    2    1    2    0    0  0.13429792418E-01  0.19136113773E-01  0.49597078497E-02  0.10200312788E+01  0.10197512740E+01 0.  0.
     999903    2    3    3    0    0 -0.12146302207E+00 -0.30220966938E-01  0.25397099228E-01  0.12815130938E+00  0.10543854839E-01 0.  0.
         14    1    1    2    0    0 -0.13429792418E-01 -0.19136113773E-01 -0.49597078497E-02  0.23898721235E-01  0.00000000000E+00 0.  1.
     999901    1    3    3    0    0  0.13489281449E+00  0.49357080711E-01 -0.20437391378E-01  0.89187996938E+00  0.88000000000E+00 0. -1.
        -11    1    4    4    0    0 -0.63823829313E-01 -0.14098329745E-01  0.18302757289E-01  0.67878539578E-01  0.51100000000E-03 0.  1.
         11    1    4    4    0    0 -0.57639192755E-01 -0.16122637193E-01  0.70943419385E-02  0.60272769806E-01  0.51100000000E-03 0. -1.
</event>
<event>
 8    1  0.1097777E+005  0.1043930E+01  0.7957747E-01            NaN
         13   -1    0    0    0    0  0.00000000000E+00  0.00000000000E+00  0.74505805969E-08  0.10566000000E+00  0.10566000000E+00 0. -1.
     999900   -1    0    0    0    0 -0.00000000000E+00 -0.00000000000E+00 -0.74505805969E-08  0.93827000000E+00  0.93827000000E+00 0. -1.
     999902    2    1    2    0    0  0.22550030680E-01 -0.74365237641E-02  0.12886452277E-02  0.10201504631E+01  0.10198732769E+01 0.  0.
     999903    2    3    3    0    0  0.10272100728E+00  0.59592679512E-01  0.55140089253E-01  0.13233275792E+00  0.19199911152E-01 0.  0.
         14    1    1    2    0    0 -0.22550030680E-01  0.74365237641E-02 -0.12886452277E-02  0.23779536915E-01  0.00000000000E+00 0. -1.
     999901    1    3    3    0    0 -0.80170976598E-01 -0.67029203277E-01 -0.53851444025E-01  0.88781770516E+00  0.88000000000E+00 0.  1.
        -11    1    4    4    0    0  0.29530044915E-01  0.77876214005E-02  0.11895519305E-01  0.32778576850E-01  0.51100000000E-03 0. -1.
         11    1    4    4    0    0  0.73190962363E-01  0.51805058112E-01  0.43244569948E-01  0.99554181071E-01  0.51100000000E-03 0.  1.
</event>
<event>
 8    1  0.1097777E+005  0.1043930E+01  0.7957747E-01            NaN
         13   -1    0    0    0    0  0.00000000000E+00  0.00000000000E+00  0.74505805969E-08  0.10566000000E+00  0.10566000000E+00 0.  1.
     999900   -1    0    0    0    0 -0.00000000000E+00 -0.00000000000E+00 -0.74505805969E-08  0.93827000000E+00  0.93827000000E+00 0. -1.
     999902    2    1    2    0    0  0.11523513532E-01  0.65191375069E-02 -0.19633287049E-01  0.10202497027E+01  0.10199748524E+01 0.  0.
     999903    2    3    3    0    0 -0.30286475819E-01 -0.47763617804E-01 -0.11773922715E+00  0.13215090856E+00  0.20067466750E-01 0.  0.
         14    1    1    2    0    0 -0.11523513532E-01 -0.65191375069E-02  0.19633287049E-01  0.23680297260E-01  0.00000000000E+00 0.  1.
     999901    1    3    3    0    0  0.41809989351E-01  0.54282755311E-01  0.98105940099E-01  0.88809879418E+00  0.88000000000E+00 0.  1.
        -11    1    4    4    0    0 -0.19823407687E-01 -0.42691027066E-01 -0.10391629019E+00  0.11408044430E+00  0.51100000000E-03 0.  1.
         11    1    4    4    0    0 -0.10463068132E-01 -0.50725907381E-02 -0.13822936960E-01  0.18070464264E-01  0.51100000000E-03 0. -1.
</event>
<event>
 8    1  0.1097777E+005  0.1043930E+01  0.7957747E-01            NaN
         13   -1    0    0    0    0  0.00000000000E+00  0.00000000000E+00  0.74505805969E-08  0.10566000000E+00  0.10566000000E+00 0. -1.
     999900   -1    0    0    0    0 -0.00000000000E+00 -0.00000000000E+00 -0.74505805969E-08  0.93827000000E+00  0.93827000000E+00 0. -1.
     999902    2    1    2    0    0 -0.16155073756E-02  0.22892253437E-01  0.46772666223E-02  0.10205090275E+01  0.10202402331E+01 0.  0.
     999903    2    3    3    0    0 -0.80814055386E-02 -0.11966449936E+00  0.40896504892E-01  0.12827807708E+00  0.19945912432E-01 0.  0.
         14    1    1    2    0    0  0.16155073756E-02 -0.22892253437E-01 -0.46772666223E-02  0.23420972537E-01  0.00000000000E+00 0. -1.
     999901    1    3    3    0    0  0.64658981630E-02  0.14255675280E+00 -0.36219238270E-01  0.89223095039E+00  0.88000000000E+00 0. -1.
        -11    1    4    4    0    0 -0.77719039282E-02 -0.37117666604E-01  0.21052880020E-01  0.43377511950E-01  0.51100000000E-03 0. -1.
         11    1    4    4    0    0 -0.30950161041E-03 -0.82546832759E-01  0.19843624872E-01  0.84900565126E-01  0.51100000000E-03 0.  1.
</event>
<event>
 8    1  0.1097777E+005  0.1043930E+01  0.7957747E-01            NaN
         13   -1    0    0    0    0  0.00000000000E+00  0.00000000000E+00  0.74505805969E-08  0.10566000000E+00  0.10566000000E+00 0. -1.
     999900   -1    0    0    0    0 -0.00000000000E+00 -0.00000000000E+00 -0.74505805969E-08  0.93827000000E+00  0.93827000000E+00 0. -1.
     999902    2    1    2    0    0  0.18567277665E-01 -0.14375555144E-01 -0.17097029545E-02  0.10203859250E+01  0.10201142644E+01 0.  0.
     999903    2    3    3    0    0  0.76867021030E-02 -0.14262162438E-01 -0.12863598553E+00  0.13121289287E+00  0.20177012023E-01 0.  0.
         14    1    1    2    0    0 -0.18567277665E-01  0.14375555144E-01  0.17097029545E-02  0.23544075047E-01  0.00000000000E+00 0. -1.
     999901    1    3    3    0    0  0.10880575562E-01 -0.11339270584E-03  0.12692628258E+00  0.88917303209E+00  0.88000000000E+00 0.  1.
        -11    1    4    4    0    0  0.11358046650E-01 -0.11773744391E-02 -0.75689302169E-01  0.76547521306E-01  0.51100000000E-03 0. -1.
         11    1    4    4    0    0 -0.36713445474E-02 -0.13084787999E-01 -0.52946683362E-01  0.54665371560E-01  0.51100000000E-03 0.  1.
</event>
<event>
 8    1  0.1097777E+005  0.1043930E+01  0.7957747E-01            NaN
         13   -1    0    0    0    0  0.00000000000E+00  0.00000000000E+00  0.74505805969E-08  0.10566000000E+00  0.10566000000E+00 0.  1.
     999900   -1    0    0    0    0 -0.00000000000E+00 -0.00000000000E+00 -0.74505805969E-08  0.93827000000E+00  0.93827000000E+00 0. -1.
     999902    2    1    2    0    0  0.89750519316E-02 -0.20401738861E-02 -0.22811229243E-01  0.10193319097E+01  0.10190350711E+01 0.  0.
     999903    2    3    3    0    0  0.62653824462E-01  0.10417658878E+00  0.38293138690E-01  0.12922115532E+00  0.21295049719E-01 0.  0.
         14    1    1    2    0    0 -0.89750519316E-02  0.20401738861E-02  0.22811229243E-01  0.24598090296E-01  0.00000000000E+00 0.  1.
     999901    1    3    3    0    0 -0.53678772531E-01 -0.10621676266E+00 -0.61104367933E-01  0.89011075438E+00  0.88000000000E+00 0. -1.
        -11    1    4    4    0    0  0.43050779802E-01  0.86305526052E-01  0.25477070198E-01  0.99756481972E-01  0.51100000000E-03 0. -1.
         11    1    4    4    0    0  0.19603044660E-01  0.17871062724E-01  0.12816068492E-01  0.29464673347E-01  0.51100000000E-03 0.  1.
</event>
<event>
 8    1  0.1097777E+005  0.1043930E+01  0.7957747E-01            NaN
         13   -1    0    0    0    0  0.00000000000E+00  0.00000000000E+00  0.74505805969E-08  0.10566000000E+00  0.10566000000E+00 0. -1.
     999900   -1    0    0    0    0 -0.00000000000E+00 -0.00000000000E+00 -0.74505805969E-08  0.93827000000E+00  0.93827000000E+00 0. -1.
     999902    2    1    2    0    0 -0.15914478868E-01 -0.17462403459E-02  0.18790049710E-01  0.10192442559E+01  0.10189452720E+01 0.  0.
     999903    2    3    3    0    0  0.49953613583E-01  0.10123722308E+00  0.60952993575E-01  0.12979391262E+00  0.19668591232E-01 0.  0.
         14    1    1    2    0    0  0.15914478868E-01  0.17462403459E-02 -0.18790049710E-01  0.24685744086E-01  0.00000000000E+00 0.  1.
     999901    1    3    3    0    0 -0.65868092451E-01 -0.10298346343E+00 -0.42162943866E-01  0.88945034329E+00  0.88000000000E+00 0.  1.
        -11    1    4    4    0    0  0.24074666959E-01  0.39066520207E-01  0.34616975793E-01  0.57483725734E-01  0.51100000000E-03 0.  1.
         11    1    4    4    0    0  0.25878946624E-01  0.62170702876E-01  0.26336017783E-01  0.72310186890E-01  0.51100000000E-03 0. -1.
</event>
<event>
 8    1  0.1097777E+005  0.1043930E+01  0.7957747E-01            NaN
         13   -1    0    0    0    0  0.00000000000E+00  0.00000000000E+00  0.74505805969E-08  0.10566000000E+00  0.10566000000E+00 0.  1.
     999900   -1    0    0    0    0 -0.00000000000E+00 -0.00000000000E+00 -0.74505805969E-08  0.93827000000E+00  0.93827000000E+00 0.  1.
     999902    2    1    2    0    0 -0.86493382319E-02 -0.20739193990E-01 -0.50027697744E-02  0.10209092936E+01  0.10206497111E+01 0.  0.
     999903    2    3    3    0    0  0.26737953933E-01  0.77759031280E-01 -0.98482800769E-01  0.12979051528E+00  0.19629841626E-01 0.  0.
         14    1    1    2    0    0  0.86493382319E-02  0.20739193990E-01  0.50027697744E-02  0.23020706432E-01  0.00000000000E+00 0. -1.
     999901    1    3    3    0    0 -0.35387292165E-01 -0.98498225271E-01  0.93480030995E-01  0.89111877829E+00  0.88000000000E+00 0. -1.
        -11    1    4    4    0    0  0.53467840554E-02  0.14205133706E-01 -0.79941777301E-02  0.17162223688E-01  0.51100000000E-03 0.  1.
         11    1    4    4    0    0  0.21391169878E-01  0.63553897574E-01 -0.90488623039E-01  0.11262829159E+00  0.51100000000E-03 0. -1.
</event>
<event>
 8    1  0.1097777E+005  0.1043930E+01  0.7957747E-01            NaN
         13   -1    0    0    0    0  0.00000000000E+00  0.00000000000E+00  0.74505805969E-08  0.10566000000E+00  0.10566000000E+00 0. -1.
     999900   -1    0    0    0    0 -0.00000000000E+00 -0.00000000000E+00 -0.74505805969E-08  0.93827000000E+00  0.93827000000E+00 0.  1.
     999902    2    1    2    0    0  0.15100866205E-01  0.60984772287E-02  0.24496570703E-02  0.10274609865E+01  0.10273289884E+01 0.  0.
     999903    2    3    3    0    0  0.74830408304E-01 -0.29018115223E-01 -0.10988548983E+00  0.13761831590E+00  0.20550887505E-01 0.  0.
         14    1    1    2    0    0 -0.15100866205E-01 -0.60984772287E-02 -0.24496570703E-02  0.16469013462E-01  0.00000000000E+00 0.  1.
     999901    1    3    3    0    0 -0.59729542099E-01  0.35116592451E-01  0.11233514690E+00  0.88984267064E+00  0.88000000000E+00 0. -1.
        -11    1    4    4    0    0  0.24986029761E-01 -0.14737977988E-01 -0.25772178716E-01  0.38806906540E-01  0.51100000000E-03 0. -1.
         11    1    4    4    0    0  0.49844378543E-01 -0.14280137235E-01 -0.84113311113E-01  0.98811409357E-01  0.51100000000E-03 0.  1.
</event>
<event>
 8    1  0.1097777E+005  0.1043930E+01  0.7957747E-01            NaN
         13   -1    0    0    0    0  0.00000000000E+00  0.00000000000E+00  0.74505805969E-08  0.10566000000E+00  0.10566000000E+00 0. -1.
     999900   -1    0    0    0    0 -0.00000000000E+00 -0.00000000000E+00 -0.74505805969E-08  0.93827000000E+00  0.93827000000E+00 0. -1.
     999902    2    1    2    0    0  0.20832805830E-01  0.61853501034E-02  0.89079323078E-02  0.10204435015E+01  0.10201731834E+01 0.  0.
     999903    2    3    3    0    0 -0.10711098978E+00  0.43635894782E-01  0.54155298929E-01  0.12925357654E+00  0.19920722914E-01 0.  0.
         14    1    1    2    0    0 -0.20832805830E-01 -0.61853501034E-02 -0.89079323078E-02  0.23486498518E-01  0.00000000000E+00 0. -1.
     999901    1    3    3    0    0  0.12794379561E+00 -0.37450544678E-01 -0.45247366622E-01  0.89118992494E+00  0.88000000000E+00 0.  1.
        -11    1    4    4    0    0 -0.32605883009E-01  0.10556850524E-01  0.25952960981E-01  0.42993115779E-01  0.51100000000E-03 0. -1.
         11    1    4    4    0    0 -0.74505106770E-01  0.33079044257E-01  0.28202337949E-01  0.86260460761E-01  0.51100000000E-03 0.  1.
</event>
<event>
 8    1  0.1097777E+005  0.1043930E+01  0.7957747E-01            NaN
         13   -1    0    0    0    0  0.00000000000E+00  0.00000000000E+00  0.74505805969E-08  0.10566000000E+00  0.10566000000E+00 0.  1.
     999900   -1    0    0    0    0 -0.00000000000E+00 -0.00000000000E+00 -0.74505805969E-08  0.93827000000E+00  0.93827000000E+00 0.  1.
     999902    2    1    2    0    0 -0.56206564101E-02  0.36662806740E-02 -0.23596515667E-01  0.10193977978E+01  0.10191025666E+01 0.  0.
     999903    2    3    3    0    0  0.54380503153E-01 -0.91086388922E-01  0.67972609913E-01  0.12756647278E+00  0.19973980835E-01 0.  0.
         14    1    1    2    0    0  0.56206564101E-02 -0.36662806740E-02  0.23596515667E-01  0.24532202186E-01  0.00000000000E+00 0.  1.
     999901    1    3    3    0    0 -0.60001159563E-01  0.94752669596E-01 -0.91569125579E-01  0.89183132503E+00  0.88000000000E+00 0.  1.
        -11    1    4    4    0    0  0.37353843014E-01 -0.75049115917E-01  0.46792789107E-01  0.96007841457E-01  0.51100000000E-03 0.  1.
         11    1    4    4    0    0  0.17026660139E-01 -0.16037273005E-01  0.21179820806E-01  0.31558631328E-01  0.51100000000E-03 0. -1.
</event>
<event>
 8    1  0.1119294E+005  0.1043930E+01  0.7957747E-01            NaN
         13   -1    0    0    0    0  0.00000000000E+00  0.00000000000E+00  0.74505805969E-08  0.10566000000E+00  0.10566000000E+00 0.  1.
     999900   -1    0    0    0    0 -0.00000000000E+00 -0.00000000000E+00 -0.74505805969E-08  0.93827000000E+00  0.93827000000E+00 0. -1.
     999902    2    1    2    0    0  0.95603984742E-02  0.13781827079E-01 -0.16478152966E-01  0.10204168228E+01  0.10201458831E+01 0.  0.
     999903    2    3    3    0    0  0.53549687624E-02  0.13093971974E+00 -0.15884494377E-02  0.13251741368E+00  0.19607546057E-01 0.  0.
         14    1    1    2    0    0 -0.95603984742E-02 -0.13781827079E-01  0.16478152966E-01  0.23513177195E-01  0.00000000000E+00 0.  1.
     999901    1    3    3    0    0  0.42054297118E-02 -0.11715789266E+00 -0.14889703528E-01  0.88789940912E+00  0.88000000000E+00 0. -1.
        -11    1    4    4    0    0 -0.65618699689E-02  0.64111463013E-01  0.26303466997E-02  0.64502074942E-01  0.51100000000E-03 0.  1.
         11    1    4    4    0    0  0.11916838731E-01  0.66828256723E-01 -0.42187961374E-02  0.68015338740E-01  0.51100000000E-03 0. -1.
</event>
<event>
 8    1  0.1097777E+005  0.1043930E+01  0.7957747E-01            NaN
         13   -1    0    0    0    0  0.00000000000E+00  0.00000000000E+00  0.74505805969E-08  0.10566000000E+00  0.10566000000E+00 0.  1.
     999900   -1    0    0    0    0 -0.00000000000E+00 -0.00000000000E+00 -0.74505805969E-08  0.93827000000E+00  0.93827000000E+00 0. -1.
     999902    2    1    2    0    0  0.98420665434E-02 -0.13673702278E-01  0.88031038261E-02  0.10249212903E+01  0.10247450025E+01 0.  0.
     999903    2    3    3    0    0  0.11310668265E+00  0.52314077950E-01  0.48943599831E-01  0.13552305131E+00  0.21003263075E-01 0.  0.
         14    1    1    2    0    0 -0.98420665434E-02  0.13673702278E-01 -0.88031038261E-02  0.19008709709E-01  0.00000000000E+00 0. -1.
     999901    1    3    3    0    0 -0.10326461611E+00 -0.65987780228E-01 -0.40140496005E-01  0.88939823898E+00  0.88000000000E+00 0. -1.
        -11    1    4    4    0    0  0.70576153524E-01  0.43361529363E-01  0.29844442867E-01  0.88046394395E-01  0.51100000000E-03 0.  1.
         11    1    4    4    0    0  0.42530529130E-01  0.89525485869E-02  0.19099156964E-01  0.47476656917E-01  0.51100000000E-03 0. -1.
</event>
<event>
 8    1  0.1097777E+005  0.1043930E+01  0.7957747E-01            NaN
         13   -1    0    0    0    0  0.00000000000E+00  0.00000000000E+00  0.74505805969E-08  0.10566000000E+00  0.10566000000E+00 0. -1.
     999900   -1    0    0    0    0 -0.00000000000E+00 -0.00000000000E+00 -0.74505805969E-08  0.93827000000E+00  0.93827000000E+00 0. -1.
     999902    2    1    2    0    0  0.21459472891E-01 -0.51529291584E-02  0.88284656765E-02  0.10201601985E+01  0.10198832419E+01 0.  0.
     999903    2    3    3    0    0  0.68754579029E-01  0.37208616293E-01  0.10521810387E+00  0.13262299371E+00  0.20157773049E-01 0.  0.
         14    1    1    2    0    0 -0.21459472891E-01  0.51529291584E-02 -0.88284656765E-02  0.23769801469E-01  0.00000000000E+00 0.  1.
     999901    1    3    3    0    0 -0.47295106138E-01 -0.42361545451E-01 -0.96389638191E-01  0.88753720482E+00  0.88000000000E+00 0.  1.
        -11    1    4    4    0    0  0.48146809291E-01  0.35843669351E-01  0.76234959502E-01  0.97030479998E-01  0.51100000000E-03 0.  1.
         11    1    4    4    0    0  0.20607769738E-01  0.13649469413E-02  0.28983144366E-01  0.35592513708E-01  0.51100000000E-03 0. -1.
</event>
<event>
 8    1  0.1097777E+005  0.1043930E+01  0.7957747E-01            NaN
         13   -1    0    0    0    0  0.00000000000E+00  0.00000000000E+00  0.74505805969E-08  0.10566000000E+00  0.10566000000E+00 0. -1.
     999900   -1    0    0    0    0 -0.00000000000E+00 -0.00000000000E+00 -0.74505805969E-08  0.93827000000E+00  0.93827000000E+00 0.  1.
     999902    2    1    2    0    0  0.56212424713E-02  0.12362641466E-01 -0.19188786646E-01  0.10204216440E+01  0.10201508166E+01 0.  0.
     999903    2    3    3    0    0  0.91206570026E-01 -0.41964146998E-02  0.89302745492E-01  0.12948423696E+00  0.21329298096E-01 0.  0.
         14    1    1    2    0    0 -0.56212424713E-02 -0.12362641466E-01  0.19188786646E-01  0.23508356044E-01  0.00000000000E+00 0. -1.
     999901    1    3    3    0    0 -0.85585327555E-01  0.16559056166E-01 -0.10849153214E+00  0.89093740699E+00  0.88000000000E+00 0.  1.
        -11    1    4    4    0    0  0.96190662196E-02  0.61852247523E-02  0.12562345272E-01  0.16995795948E-01  0.51100000000E-03 0.  1.
         11    1    4    4    0    0  0.81587503806E-01 -0.10381639452E-01  0.76740400220E-01  0.11248844101E+00  0.51100000000E-03 0. -1.
</event>
<event>
 8    1  0.1097777E+005  0.1043930E+01  0.7957747E-01            NaN
         13   -1    0    0    0    0  0.00000000000E+00  0.00000000000E+00  0.74505805969E-08  0.10566000000E+00  0.10566000000E+00 0.  1.
     999900   -1    0    0    0    0 -0.00000000000E+00 -0.00000000000E+00 -0.74505805969E-08  0.93827000000E+00  0.93827000000E+00 0. -1.
     999902    2    1    2    0    0 -0.11682288950E-01  0.28472976939E-03  0.20393841522E-01  0.10204254107E+01  0.10201546712E+01 0.  0.
     999903    2    3    3    0    0 -0.11945832016E+00  0.51385515960E-01  0.12439462674E-01  0.13234307477E+00  0.21194048724E-01 0.  0.
         14    1    1    2    0    0  0.11682288950E-01 -0.28472976939E-03 -0.20393841522E-01  0.23504589301E-01  0.00000000000E+00 0. -1.
     999901    1    3    3    0    0  0.10777603121E+00 -0.51100786191E-01  0.79543788483E-02  0.88808233593E+00  0.88000000000E+00 0. -1.
        -11    1    4    4    0    0 -0.83384944983E-01  0.45773351962E-01  0.11540049652E-01  0.95821097190E-01  0.51100000000E-03 0. -1.
         11    1    4    4    0    0 -0.36073375176E-01  0.56121639979E-02  0.89941302202E-03  0.36521977577E-01  0.51100000000E-03 0.  1.
</event>
<event>
 8    1  0.1097777E+005  0.1043930E+01  0.7957747E-01            NaN
         13   -1    0    0    0    0  0.00000000000E+00  0.00000000000E+00  0.74505805969E-08  0.10566000000E+00  0.10566000000E+00 0.  1.
     999900   -1    0    0    0    0 -0.00000000000E+00 -0.00000000000E+00 -0.74505805969E-08  0.93827000000E+00  0.93827000000E+00 0. -1.
     999902    2    1    2    0    0  0.23089287718E-01  0.69918900036E-02  0.21146630907E-02  0.10197127844E+01  0.10194251758E+01 0.  0.
     999903    2    3    3    0    0 -0.55065955379E-02 -0.89642369312E-01  0.91101321412E-01  0.12950239913E+00  0.20133147992E-01 0.  0.
         14    1    1    2    0    0 -0.23089287718E-01 -0.69918900036E-02 -0.21146630907E-02  0.24217215636E-01  0.00000000000E+00 0. -1.
     999901    1    3    3    0    0  0.28595883256E-01  0.96634259316E-01 -0.88986658322E-01  0.89021038523E+00  0.88000000000E+00 0.  1.
        -11    1    4    4    0    0 -0.52226312520E-02 -0.15105985841E-01  0.26064547755E-01  0.30579216081E-01  0.51100000000E-03 0.  1.
         11    1    4    4    0    0 -0.28396428594E-03 -0.74536383471E-01  0.65036773657E-01  0.98923183053E-01  0.51100000000E-03 0. -1.
</event>
<event>
 8    1  0.1097777E+005  0.1043930E+01  0.7957747E-01            NaN
         13   -1    0    0    0    0  0.00000000000E+00  0.00000000000E+00  0.74505805969E-08  0.10566000000E+00  0.10566000000E+00 0. -1.
     999900   -1    0    0    0    0 -0.00000000000E+00 -0.00000000000E+00 -0.74505805969E-08  0.93827000000E+00  0.93827000000E+00 0.  1.
     999902    2    1    2    0    0 -0.13170291033E-01  0.17521038935E-01  0.92583161036E-02  0.10201358875E+01  0.10198583574E+01 0.  0.
     999903    2    3    3    0    0  0.97824623074E-01  0.28216619715E-01 -0.76447078865E-01  0.12896829323E+00  0.20562837429E-01 0.  0.
         14    1    1    2    0    0  0.13170291033E-01 -0.17521038935E-01 -0.92583161036E-02  0.23794112472E-01  0.00000000000E+00 0. -1.
     999901    1    3    3    0    0 -0.11099491411E+00 -0.10695580780E-01  0.85705394968E-01  0.89116759430E+00  0.88000000000E+00 0.  1.
        -11    1    4    4    0    0  0.45895383435E-01  0.21664448261E-01 -0.29802806260E-01  0.58857479738E-01  0.51100000000E-03 0.  1.
         11    1    4    4    0    0  0.51929239639E-01  0.65521714537E-02 -0.46644272605E-01  0.70110813489E-01  0.51100000000E-03 0. -1.
</event>
<event>
 8    1  0.1097777E+005  0.1043930E+01  0.7957747E-01            NaN
         13   -1    0    0    0    0  0.00000000000E+00  0.00000000000E+00  0.74505805969E-08  0.10566000000E+00  0.10566000000E+00 0.  1.
     999900   -1    0    0    0    0 -0.00000000000E+00 -0.00000000000E+00 -0.74505805969E-08  0.93827000000E+00  0.93827000000E+00 0. -1.
     999902    2    1    2    0    0  0.46796862056E-02  0.23200942731E-01 -0.34230445909E-02  0.10200155600E+01  0.10197351824E+01 0.  0.
     999903    2    3    3    0    0 -0.79791809425E-01 -0.38360013118E-01 -0.92131720539E-01  0.12940093287E+00  0.20448081572E-01 0.  0.
         14    1    1    2    0    0 -0.46796862056E-02 -0.23200942731E-01  0.34230445909E-02  0.23914440007E-01  0.00000000000E+00 0. -1.
     999901    1    3    3    0    0  0.84471495630E-01  0.61560955849E-01  0.88708675948E-01  0.89061462712E+00  0.88000000000E+00 0.  1.
        -11    1    4    4    0    0 -0.94820917608E-02  0.21182540734E-02 -0.10262541051E-01  0.14141355462E-01  0.51100000000E-03 0. -1.
         11    1    4    4    0    0 -0.70309717664E-01 -0.40478267192E-01 -0.81869179488E-01  0.11525957741E+00  0.51100000000E-03 0.  1.
</event>
<event>
 8    1  0.1097777E+005  0.1043930E+01  0.7957747E-01            NaN
         13   -1    0    0    0    0  0.00000000000E+00  0.00000000000E+00  0.74505805969E-08  0.10566000000E+00  0.10566000000E+00 0.  1.
     999900   -1    0    0    0    0 -0.00000000000E+00 -0.00000000000E+00 -0.74505805969E-08  0.93827000000E+00  0.93827000000E+00 0.  1.
     999902    2    1    2    0    0  0.14998994701E-01 -0.16839860699E-01  0.61027278045E-02  0.10205677647E+01  0.10203003324E+01 0.  0.
     999903    2    3    3    0    0 -0.56740648763E-01 -0.56779680840E-01 -0.10048000661E+00  0.13034215009E+00  0.21199315639E-01 0.  0.
         14    1    1    2    0    0 -0.14998994701E-01  0.16839860699E-01 -0.61027278045E-02  0.23362235275E-01  0.00000000000E+00 0. -1.
     999901    1    3    3    0    0  0.71739643464E-01  0.39939820141E-01  0.10658273441E+00  0.89022561464E+00  0.88000000000E+00 0. -1.
        -11    1    4    4    0    0 -0.31324649813E-01 -0.16580853196E-01 -0.44125334926E-01  0.56599157961E-01  0.51100000000E-03 0. -1.
         11    1    4    4    0    0 -0.25415998950E-01 -0.40198827644E-01 -0.56354671683E-01  0.73742992129E-01  0.51100000000E-03 0.  1.
</event>
<event>
 8    1  0.1097777E+005  0.1043930E+01  0.7957747E-01            NaN
         13   -1    0    0    0    0  0.00000000000E+00  0.00000000000E+00  0.74505805969E-08  0.10566000000E+00  0.10566000000E+00 0. -1.
     999900   -1    0    0    0    0 -0.00000000000E+00 -0.00000000000E+00 -0.74505805969E-08  0.93827000000E+00  0.93827000000E+00 0. -1.
     999902    2    1    2    0    0 -0.10069233073E-01  0.26962935262E-02  0.21391341410E-01  0.10201340142E+01  0.10198564399E+01 0.  0.
     999903    2    3    3    0    0 -0.38344329004E-01  0.20227399363E-01 -0.11938879448E+00  0.12832357055E+00  0.18270721386E-01 0.  0.
         14    1    1    2    0    0  0.10069233073E-01 -0.26962935262E-02 -0.21391341410E-01  0.23795985813E-01  0.00000000000E+00 0.  1.
     999901    1    3    3    0    0  0.28275095931E-01 -0.17531105837E-01  0.14078013589E+00  0.89181044364E+00  0.88000000000E+00 0.  1.
        -11    1    4    4    0    0 -0.14008853675E-01  0.59107514254E-02 -0.20797828988E-01  0.25768115478E-01  0.51100000000E-03 0. -1.
         11    1    4    4    0    0 -0.24335475330E-01  0.14316647937E-01 -0.98590965489E-01  0.10255545507E+00  0.51100000000E-03 0.  1.
</event>
<event>
 8    1  0.1097777E+005  0.1043930E+01  0.7957747E-01            NaN
         13   -1    0    0    0    0  0.00000000000E+00  0.00000000000E+00  0.74505805969E-08  0.10566000000E+00  0.10566000000E+00 0.  1.
     999900   -1    0    0    0    0 -0.00000000000E+00 -0.00000000000E+00 -0.74505805969E-08  0.93827000000E+00  0.93827000000E+00 0. -1.
     999902    2    1    2    0    0  0.12433637243E-02  0.24460311192E-01  0.59235405043E-03  0.10194309457E+01  0.10191365215E+01 0.  0.
     999903    2    3    3    0    0  0.95755671992E-01 -0.34763142636E-01 -0.76605517740E-01  0.12903805194E+00  0.20119361213E-01 0.  0.
         14    1    1    2    0    0 -0.12433637243E-02 -0.24460311192E-01 -0.59235405043E-03  0.24499054273E-01  0.00000000000E+00 0. -1.
     999901    1    3    3    0    0 -0.94512308268E-01  0.59223453828E-01  0.77197871791E-01  0.89039289379E+00  0.88000000000E+00 0.  1.
        -11    1    4    4    0    0  0.86568101637E-01 -0.31211836447E-01 -0.60428354500E-01  0.11009115361E+00  0.51100000000E-03 0.  1.
         11    1    4    4    0    0  0.91875703545E-02 -0.35513061893E-02 -0.16177163240E-01  0.18946898326E-01  0.51100000000E-03 0. -1.
</event>
<event>
 8    1  0.1097777E+005  0.1043930E+01  0.7957747E-01            NaN
         13   -1    0    0    0    0  0.00000000000E+00  0.00000000000E+00  0.74505805969E-08  0.10566000000E+00  0.10566000000E+00 0. -1.
     999900   -1    0    0    0    0 -0.00000000000E+00 -0.00000000000E+00 -0.74505805969E-08  0.93827000000E+00  0.93827000000E+00 0.  1.
     999902    2    1    2    0    0 -0.14770520960E-01  0.16097941367E-01 -0.81824993314E-02  0.10206005058E+01  0.10203338312E+01 0.  0.
     999903    2    3    3    0    0 -0.78399358367E-01 -0.88280881808E-01 -0.52982325056E-01  0.13102162109E+00  0.20483284422E-01 0.  0.
         14    1    1    2    0    0  0.14770520960E-01 -0.16097941367E-01  0.81824993314E-02  0.23329494229E-01  0.00000000000E+00 0.  1.
     999901    1    3    3    0    0  0.63628837407E-01  0.10437882317E+00  0.44799825725E-01  0.88957888468E+00  0.88000000000E+00 0.  1.
        -11    1    4    4    0    0 -0.49340688314E-01 -0.45493445005E-01 -0.38206621216E-01  0.77228000670E-01  0.51100000000E-03 0.  1.
         11    1    4    4    0    0 -0.29058670053E-01 -0.42787436803E-01 -0.14775703840E-01  0.53793620424E-01  0.51100000000E-03 0. -1.
</event>
<event>
 8    1  0.1097777E+005  0.1043930E+01  0.7957747E-01            NaN
         13   -1    0    0    0    0  0.00000000000E+00  0.00000000000E+00  0.74505805969E-08  0.10566000000E+00  0.10566000000E+00 0.  1.
     999900   -1    0    0    0    0 -0.00000000000E+00 -0.00000000000E+00 -0.74505805969E-08  0.93827000000E+00  0.93827000000E+00 0.  1.
     999902    2    1    2    0    0 -0.49373479398E-03 -0.43339013165E-02 -0.23497053779E-01  0.10200315061E+01  0.10197515067E+01 0.  0.
     999903    2    3    3    0    0  0.10076896868E+00  0.19336095919E-01 -0.80665746788E-01  0.13206604317E+00  0.20154587548E-01 0.  0.
         14    1    1    2    0    0  0.49373479398E-03  0.43339013165E-02  0.23497053779E-01  0.23898493905E-01  0.00000000000E+00 0.  1.
     999901    1    3    3    0    0 -0.10126270348E+00 -0.23669997235E-01  0.57168693009E-01  0.88796546292E+00  0.88000000000E+00 0. -1.
        -11    1    4    4    0    0  0.65351410957E-01  0.51331250145E-02 -0.58924561306E-01  0.88144886027E-01  0.51100000000E-03 0. -1.
         11    1    4    4    0    0  0.35417557726E-01  0.14202970904E-01 -0.21741185481E-01  0.43921157144E-01  0.51100000000E-03 0.  1.
</event>
<event>
 8    1  0.1097777E+005  0.1043930E+01  0.7957747E-01            NaN
         13   -1    0    0    0    0  0.00000000000E+00  0.00000000000E+00  0.74505805969E-08  0.10566000000E+00  0.10566000000E+00 0.  1.
     999900   -1    0    0    0    0 -0.00000000000E+00 -0.00000000000E+00 -0.74505805969E-08  0.93827000000E+00  0.93827000000E+00 0. -1.
     999902    2    1    2    0    0  0.23129630154E-02 -0.12559362567E-01 -0.19974365618E-01  0.10202221391E+01  0.10199466410E+01 0.  0.
     999903    2    3    3    0    0  0.17601996891E-01  0.12224274600E+00  0.27410541571E-01  0.12856598764E+00  0.22907556518E-01 0.  0.
         14    1    1    2    0    0 -0.23129630154E-02  0.12559362567E-01  0.19974365618E-01  0.23707860887E-01  0.00000000000E+00 0.  1.
     999901    1    3    3    0    0 -0.15289033876E-01 -0.13480210856E+00 -0.47384907189E-01  0.89165615147E+00  0.88000000000E+00 0. -1.
        -11    1    4    4    0    0  0.29803019436E-03  0.79201831688E-01  0.18213682375E-01  0.81271263749E-01  0.51100000000E-03 0. -1.
         11    1    4    4    0    0  0.17303966697E-01  0.43040914307E-01  0.91968591959E-02  0.47294723891E-01  0.51100000000E-03 0.  1.
</event>
<event>
 8    1  0.1097777E+005  0.1043930E+01  0.7957747E-01            NaN
         13   -1    0    0    0    0  0.00000000000E+00  0.00000000000E+00  0.74505805969E-08  0.10566000000E+00  0.10566000000E+00 0. -1.
     999900   -1    0    0    0    0 -0.00000000000E+00 -0.00000000000E+00 -0.74505805969E-08  0.93827000000E+00  0.93827000000E+00 0. -1.
     999902    2    1    2    0    0  0.63462854300E-02  0.22914693516E-01 -0.15492469489E-02  0.10201023127E+01  0.10198239895E+01 0.  0.
     999903    2    3    3    0    0 -0.96868170998E-01 -0.81220224541E-01 -0.98701622697E-04  0.12797036656E+00  0.19905716485E-01 0.  0.
         14    1    1    2    0    0 -0.63462854300E-02 -0.22914693516E-01  0.15492469489E-02  0.23827687337E-01  0.00000000000E+00 0.  1.
     999901    1    3    3    0    0  0.10321445643E+00  0.10413491806E+00 -0.14505453262E-02  0.89213194610E+00  0.88000000000E+00 0. -1.
        -11    1    4    4    0    0 -0.15161099823E-01 -0.21433212289E-01  0.43990121761E-02  0.26624311559E-01  0.51100000000E-03 0.  1.
         11    1    4    4    0    0 -0.81707071175E-01 -0.59787012252E-01 -0.44977137988E-02  0.10134605500E+00  0.51100000000E-03 0. -1.
</event>
<event>
 8    1  0.1097777E+005  0.1043930E+01  0.7957747E-01            NaN
         13   -1    0    0    0    0  0.00000000000E+00  0.00000000000E+00  0.74505805969E-08  0.10566000000E+00  0.10566000000E+00 0.  1.
     999900   -1    0    0    0    0 -0.00000000000E+00 -0.00000000000E+00 -0.74505805969E-08  0.93827000000E+00  0.93827000000E+00 0. -1.
     999902    2    1    2    0    0  0.73933547902E-02 -0.17807795603E-01 -0.13719373598E-01  0.10202656705E+01  0.10199911950E+01 0.  0.
     999903    2    3    3    0    0  0.28190055178E-01  0.12060855405E+00 -0.30227261168E-01  0.12905071384E+00  0.19982414881E-01 0.  0.
         14    1    1    2    0    0 -0.73933547902E-02  0.17807795603E-01  0.13719373598E-01  0.23664329511E-01  0.00000000000E+00 0.  1.
     999901    1    3    3    0    0 -0.20796700387E-01 -0.13841634965E+00  0.16507887570E-01  0.89121495665E+00  0.88000000000E+00 0.  1.
        -11    1    4    4    0    0  0.17333162627E-01  0.36470963754E-01 -0.13503091339E-01  0.42581267249E-01  0.51100000000E-03 0. -1.
         11    1    4    4    0    0  0.10856892550E-01  0.84137590296E-01 -0.16724169829E-01  0.86469446594E-01  0.51100000000E-03 0.  1.
</event>
<event>
 8    1  0.1097777E+005  0.1043930E+01  0.7957747E-01            NaN
         13   -1    0    0    0    0  0.00000000000E+00  0.00000000000E+00  0.74505805969E-08  0.10566000000E+00  0.10566000000E+00 0.  1.
     999900   -1    0    0    0    0 -0.00000000000E+00 -0.00000000000E+00 -0.74505805969E-08  0.93827000000E+00  0.93827000000E+00 0. -1.
     999902    2    1    2    0    0  0.18449540136E-03  0.19977473660E-01 -0.12559704076E-01  0.10203317022E+01  0.10200587742E+01 0.  0.
     999903    2    3    3    0    0 -0.59622894706E-01  0.80815543845E-01  0.81954513444E-01  0.13116853832E+00  0.20064931370E-01 0.  0.
         14    1    1    2    0    0 -0.18449540136E-03 -0.19977473660E-01  0.12559704076E-01  0.23598297796E-01  0.00000000000E+00 0. -1.
     999901    1    3    3    0    0  0.59807390107E-01 -0.60838070185E-01 -0.94514217520E-01  0.88916316388E+00  0.88000000000E+00 0. -1.
        -11    1    4    4    0    0 -0.20136035739E-01  0.43759501367E-01  0.35878651830E-01  0.60065736267E-01  0.51100000000E-03 0. -1.
         11    1    4    4    0    0 -0.39486858967E-01  0.37056042479E-01  0.46075861614E-01  0.71102802052E-01  0.51100000000E-03 0.  1.
</event>
<event>
 8    1  0.1097777E+005  0.1043930E+01  0.7957747E-01            NaN
         13   -1    0    0    0    0  0.00000000000E+00  0.00000000000E+00  0.74505805969E-08  0.10566000000E+00  0.10566000000E+00 0. -1.
     999900   -1    0    0    0    0 -0.00000000000E+00 -0.00000000000E+00 -0.74505805969E-08  0.93827000000E+00  0.93827000000E+00 0. -1.
     999902    2    1    2    0    0  0.23598154520E-01  0.49574198577E-03  0.46898012892E-02  0.10198652354E+01  0.10195812795E+01 0.  0.
     999903    2    3    3    0    0  0.16005107319E-01  0.11459394124E+00 -0.55913913883E-01  0.13039974217E+00  0.22131248580E-01 0.  0.
         14    1    1    2    0    0 -0.23598154520E-01 -0.49574198577E-03 -0.46898012892E-02  0.24064764553E-01  0.00000000000E+00 0.  1.
     999901    1    3    3    0    0  0.75930472010E-02 -0.11409819925E+00  0.60603715173E-01  0.88946549328E+00  0.88000000000E+00 0. -1.
        -11    1    4    4    0    0  0.16452487916E-01  0.76598976436E-01 -0.47011915869E-01  0.91369956246E-01  0.51100000000E-03 0. -1.
         11    1    4    4    0    0 -0.44738059730E-03  0.37994964801E-01 -0.89019980139E-02  0.39029785924E-01  0.51100000000E-03 0.  1.
</event>
<event>
 8    1  0.1097777E+005  0.1043930E+01  0.7957747E-01            NaN
         13   -1    0    0    0    0  0.00000000000E+00  0.00000000000E+00  0.74505805969E-08  0.10566000000E+00  0.10566000000E+00 0.  1.
     999900   -1    0    0    0    0 -0.00000000000E+00 -0.00000000000E+00 -0.74505805969E-08  0.93827000000E+00  0.93827000000E+00 0. -1.
     999902    2    1    2    0    0  0.44950922003E-02  0.14312420405E-01 -0.17363247734E-01  0.10209836800E+01  0.10207257914E+01 0.  0.
     999903    2    3    3    0    0  0.75662752788E-01 -0.10060652755E+00  0.24042949925E-01  0.12970051860E+00  0.19940800859E-01 0.  0.
         14    1    1    2    0    0 -0.44950922003E-02 -0.14312420405E-01  0.17363247734E-01  0.22946320045E-01  0.00000000000E+00 0.  1.
     999901    1    3    3    0    0 -0.71167660587E-01  0.11491894795E+00 -0.41406197659E-01  0.89128316136E+00  0.88000000000E+00 0. -1.
        -11    1    4    4    0    0  0.69007953576E-02 -0.20564643279E-01  0.70732011931E-02  0.22821411566E-01  0.51100000000E-03 0. -1.
         11    1    4    4    0    0  0.68761957430E-01 -0.80041884270E-01  0.16969748732E-01  0.10687910703E+00  0.51100000000E-03 0.  1.
</event>
<event>
 8    1  0.1097777E+005  0.1043930E+01  0.7957747E-01            NaN
         13   -1    0    0    0    0  0.00000000000E+00  0.00000000000E+00  0.74505805969E-08  0.10566000000E+00  0.10566000000E+00 0. -1.
     999900   -1    0    0    0    0 -0.00000000000E+00 -0.00000000000E+00 -0.74505805969E-08  0.93827000000E+00  0.93827000000E+00 0. -1.
     999902    2    1    2    0    0 -0.15063057297E-01 -0.17481285564E-01  0.21149011708E-02  0.10207575196E+01  0.10204944635E+01 0.  0.
     999903    2    3    3    0    0 -0.89223948704E-01  0.64226182221E-01 -0.68600893430E-01  0.13105157285E+00  0.19558033188E-01 0.  0.
         14    1    1    2    0    0  0.15063057297E-01  0.17481285564E-01 -0.21149011708E-02  0.23172480382E-01  0.00000000000E+00 0.  1.
     999901    1    3    3    0    0  0.74160891407E-01 -0.81707467785E-01  0.70715794601E-01  0.88970594677E+00  0.88000000000E+00 0.  1.
        -11    1    4    4    0    0 -0.76203862799E-01  0.60905504211E-01 -0.64668380750E-01  0.11704174357E+00  0.51100000000E-03 0. -1.
         11    1    4    4    0    0 -0.13020085906E-01  0.33206780105E-02 -0.39325126806E-02  0.14009829279E-01  0.51100000000E-03 0.  1.
</event>
<event>
 8    1  0.1097777E+005  0.1043930E+01  0.7957747E-01            NaN
         13   -1    0    0    0    0  0.00000000000E+00  0.00000000000E+00  0.74505805969E-08  0.10566000000E+00  0.10566000000E+00 0.  1.
     999900   -1    0    0    0    0 -0.00000000000E+00 -0.00000000000E+00 -0.74505805969E-08  0.93827000000E+00  0.93827000000E+00 0.  1.
     999902    2    1    2    0    0  0.17704664031E-01  0.24615637339E-02 -0.15496692203E-01  0.10202728257E+01  0.10199985182E+01 0.  0.
     999903    2    3    3    0    0  0.32655781800E-01  0.87427300603E-01 -0.92170428559E-01  0.13273602414E+00  0.20335467221E-01 0.  0.
         14    1    1    2    0    0 -0.17704664031E-01 -0.24615637339E-02  0.15496692203E-01  0.23657174254E-01  0.00000000000E+00 0. -1.
     999901    1    3    3    0    0 -0.14951117770E-01 -0.84965736869E-01  0.76673736357E-01  0.88753680161E+00  0.88000000000E+00 0. -1.
        -11    1    4    4    0    0  0.54685265485E-02  0.18043552992E-01 -0.31166807515E-01  0.36429460590E-01  0.51100000000E-03 0. -1.
         11    1    4    4    0    0  0.27187255252E-01  0.69383747611E-01 -0.61003621044E-01  0.96306563547E-01  0.51100000000E-03 0.  1.
</event>
<event>
 8    1  0.1097777E+005  0.1043930E+01  0.7957747E-01            NaN
         13   -1    0    0    0    0  0.00000000000E+00  0.00000000000E+00  0.74505805969E-08  0.10566000000E+00  0.10566000000E+00 0. -1.
     999900   -1    0    0    0    0 -0.00000000000E+00 -0.00000000000E+00 -0.74505805969E-08  0.93827000000E+00  0.93827000000E+00 0.  1.
     999902    2    1    2    0    0  0.20231512393E-01  0.42993511612E-03 -0.13855772141E-01  0.10194048831E+01  0.10191098245E+01 0.  0.
     999903    2    3    3    0    0 -0.12546391439E+00 -0.95087150882E-02  0.47849374731E-02  0.12717542258E+00  0.17862894631E-01 0.  0.
         14    1    1    2    0    0 -0.20231512393E-01 -0.42993511612E-03  0.13855772141E-01  0.24525116912E-01  0.00000000000E+00 0. -1.
     999901    1    3    3    0    0  0.14569542678E+00  0.99386502044E-02 -0.18640709614E-01  0.89222946051E+00  0.88000000000E+00 0. -1.
        -11    1    4    4    0    0 -0.68558540209E-02 -0.47955824812E-02  0.39453303604E-03  0.83914911074E-02  0.51100000000E-03 0. -1.
         11    1    4    4    0    0 -0.11860806037E+00 -0.47131326071E-02  0.43904044371E-02  0.11878393147E+00  0.51100000000E-03 0.  1.
</event>
<event>
 8    1  0.1097777E+005  0.1043930E+01  0.7957747E-01            NaN
         13   -1    0    0    0    0  0.00000000000E+00  0.00000000000E+00  0.74505805969E-08  0.10566000000E+00  0.10566000000E+00 0. -1.
     999900   -1    0    0    0    0 -0.00000000000E+00 -0.00000000000E+00 -0.74505805969E-08  0.93827000000E+00  0.93827000000E+00 0. -1.
     999902    2    1    2    0    0 -0.43769709422E-02  0.20837360485E-01  0.12325795243E-01  0.10193275876E+01  0.10190306434E+01 0.  0.
     999903    2    3    3    0    0 -0.69909918329E-01 -0.59779164216E-01 -0.86248676976E-01  0.12775004314E+00  0.20501075253E-01 0.  0.
         14    1    1    2    0    0  0.43769709422E-02 -0.20837360485E-01 -0.12325795243E-01  0.24602412382E-01  0.00000000000E+00 0.  1.
     999901    1    3    3    0    0  0.65532947387E-01  0.80616524701E-01  0.98574472219E-01  0.89157754448E+00  0.88000000000E+00 0.  1.
        -11    1    4    4    0    0 -0.25172196687E-01 -0.34730808851E-01 -0.41716801853E-01  0.59836621290E-01  0.51100000000E-03 0.  1.
         11    1    4    4    0    0 -0.44737721642E-01 -0.25048355365E-01 -0.44531875122E-01  0.67913421848E-01  0.51100000000E-03 0. -1.
</event>
<event>
 8    1  0.1097777E+005  0.1043930E+01  0.7957747E-01            NaN
         13   -1    0    0    0    0  0.00000000000E+00  0.00000000000E+00  0.74505805969E-08  0.10566000000E+00  0.10566000000E+00 0. -1.
     999900   -1    0    0    0    0 -0.00000000000E+00 -0.00000000000E+00 -0.74505805969E-08  0.93827000000E+00  0.93827000000E+00 0. -1.
     999902    2    1    2    0    0  0.17599978133E-01 -0.13720939640E-01 -0.35370560765E-02  0.10213349966E+01  0.10210850312E+01 0.  0.
     999903    2    3    3    0    0  0.99708293115E-01  0.27440542530E-02 -0.86431727483E-01  0.13348118091E+00  0.19937617504E-01 0.  0.
         14    1    1    2    0    0 -0.17599978133E-01  0.13720939640E-01  0.35370560765E-02  0.22595003442E-01  0.00000000000E+00 0. -1.
     999901    1    3    3    0    0 -0.82108314981E-01 -0.16464993893E-01  0.82894671407E-01  0.88785381565E+00  0.88000000000E+00 0. -1.
        -11    1    4    4    0    0  0.46755052025E-01  0.26005640856E-02 -0.53588969949E-01  0.71167665724E-01  0.51100000000E-03 0. -1.
         11    1    4    4    0    0  0.52953241090E-01  0.14349016743E-03 -0.32842757534E-01  0.62313515185E-01  0.51100000000E-03 0.  1.
</event>
<event>
 8    1  0.1097777E+005  0.1043930E+01  0.7957747E-01            NaN
         13   -1    0    0    0    0  0.00000000000E+00  0.00000000000E+00  0.74505805969E-08  0.10566000000E+00  0.10566000000E+00 0. -1.
     999900   -1    0    0    0    0 -0.00000000000E+00 -0.00000000000E+00 -0.74505805969E-08  0.93827000000E+00  0.93827000000E+00 0.  1.
     999902    2    1    2    0    0 -0.49327547102E-02 -0.17795480081E-01 -0.15148755269E-01  0.10200449426E+01  0.10197652617E+01 0.  0.
     999903    2    3    3    0    0  0.27667898361E-01 -0.56389398515E-01  0.11142411808E+00  0.12955463644E+00  0.20586230021E-01 0.  0.
         14    1    1    2    0    0  0.49327547102E-02  0.17795480081E-01  0.15148755269E-01  0.23885057390E-01  0.00000000000E+00 0. -1.
     999901    1    3    3    0    0 -0.32600653072E-01  0.38593918434E-01 -0.12657287335E+00  0.89049030617E+00  0.88000000000E+00 0.  1.
        -11    1    4    4    0    0  0.13035307607E-01 -0.46615737830E-01  0.78677844625E-01  0.92376461361E-01  0.51100000000E-03 0. -1.
         11    1    4    4    0    0  0.14632590754E-01 -0.97736606850E-02  0.32746273460E-01  0.37178175075E-01  0.51100000000E-03 0.  1.
</event>
<event>
 8    1  0.1097777E+005  0.1043930E+01  0.7957747E-01            NaN
         13   -1    0    0    0    0  0.00000000000E+00  0.00000000000E+00  0.74505805969E-08  0.10566000000E+00  0.10566000000E+00 0. -1.
     999900   -1    0    0    0    0 -0.00000000000E+00 -0.00000000000E+00 -0.74505805969E-08  0.93827000000E+00  0.93827000000E+00 0.  1.
     999902    2    1    2    0    0 -0.66381279583E-02  0.19708690031E-01  0.17311077194E-01  0.10168713489E+01  0.10165112737E+01 0.  0.
     999903    2    3    3    0    0  0.10828354557E+00 -0.26843261303E-01 -0.52862487414E-01  0.12541276636E+00  0.22091457006E-01 0.  0.
         14    1    1    2    0    0  0.66381279583E-02 -0.19708690031E-01 -0.17311077194E-01  0.27058651096E-01  0.00000000000E+00 0.  1.
     999901    1    3    3    0    0 -0.11492167353E+00  0.46551951333E-01  0.70173564608E-01  0.89145858254E+00  0.88000000000E+00 0.  1.
        -11    1    4    4    0    0  0.61697422166E-01 -0.22330691133E-01 -0.21413747806E-01  0.69022035500E-01  0.51100000000E-03 0. -1.
         11    1    4    4    0    0  0.46586123402E-01 -0.45125701692E-02 -0.31448739608E-01  0.56390730862E-01  0.51100000000E-03 0.  1.
</event>
<event>
 8    1  0.1097777E+005  0.1043930E+01  0.7957747E-01            NaN
         13   -1    0    0    0    0  0.00000000000E+00  0.00000000000E+00  0.74505805969E-08  0.10566000000E+00  0.10566000000E+00 0. -1.
     999900   -1    0    0    0    0 -0.00000000000E+00 -0.00000000000E+00 -0.74505805969E-08  0.93827000000E+00  0.93827000000E+00 0. -1.
     999902    2    1    2    0    0 -0.13610737965E-01 -0.24122736991E-02 -0.19317587816E-01  0.10201762540E+01  0.10198996758E+01 0.  0.
     999903    2    3    3    0    0  0.59948195602E-01 -0.61416351657E-01  0.92824929252E-01  0.12806171979E+00  0.20434827589E-01 0.  0.
         14    1    1    2    0    0  0.13610737965E-01  0.24122736991E-02  0.19317587816E-01  0.23753746049E-01  0.00000000000E+00 0.  1.
     999901    1    3    3    0    0 -0.73558933567E-01  0.59004077958E-01 -0.11214251707E+00  0.89211453416E+00  0.88000000000E+00 0. -1.
        -11    1    4    4    0    0  0.39270746726E-01 -0.52376050744E-01  0.72549963033E-01  0.97720010730E-01  0.51100000000E-03 0.  1.
         11    1    4    4    0    0  0.20677448877E-01 -0.90403009137E-02  0.20274966219E-01  0.30341709062E-01  0.51100000000E-03 0. -1.
</event>
<event>
 8    1  0.1097777E+005  0.1043930E+01  0.7957747E-01            NaN
         13   -1    0    0    0    0  0.00000000000E+00  0.00000000000E+00  0.74505805969E-08  0.10566000000E+00  0.10566000000E+00 0.  1.
     999900   -1    0    0    0    0 -0.00000000000E+00 -0.00000000000E+00 -0.74505805969E-08  0.93827000000E+00  0.93827000000E+00 0. -1.
     999902    2    1    2    0    0  0.19366134169E-01  0.64567619092E-02  0.11225185199E-01  0.10206331824E+01  0.10203672630E+01 0.  0.
     999903    2    3    3    0    0  0.15523214284E-01 -0.58765286844E-01  0.11514174894E+00  0.13211343818E+00  0.22405559113E-01 0.  0.
         14    1    1    2    0    0 -0.19366134169E-01 -0.64567619092E-02 -0.11225185199E-01  0.23296817589E-01  0.00000000000E+00 0.  1.
     999901    1    3    3    0    0  0.38429198848E-02  0.65222048753E-01 -0.10391656374E+00  0.88851974424E+00  0.88000000000E+00 0. -1.
        -11    1    4    4    0    0  0.34499410124E-02 -0.17540612935E-01  0.57546696099E-01  0.60261584348E-01  0.51100000000E-03 0.  1.
         11    1    4    4    0    0  0.12073273272E-01 -0.41224673908E-01  0.57595052837E-01  0.71851853829E-01  0.51100000000E-03 0. -1.
</event>
<event>
 8    1  0.1097777E+005  0.1043930E+01  0.7957747E-01            NaN
         13   -1    0    0    0    0  0.00000000000E+00  0.00000000000E+00  0.74505805969E-08  0.10566000000E+00  0.10566000000E+00 0. -1.
     999900   -1    0    0    0    0 -0.00000000000E+00 -0.00000000000E+00 -0.74505805969E-08  0.93827000000E+00  0.93827000000E+00 0.  1.
     999902    2    1    2    0    0  0.17539206439E-01  0.31412613266E-02  0.13054478966E-01  0.10218412991E+01  0.10216025303E+01 0.  0.
     999903    2    3    3    0    0 -0.23421254429E-01  0.11131721101E+00 -0.62178630154E-01  0.13108891145E+00  0.19443354390E-01 0.  0.
         14    1    1    2    0    0 -0.17539206439E-01 -0.31412613266E-02 -0.13054478966E-01  0.22088700874E-01  0.00000000000E+00 0. -1.
     999901    1    3    3    0    0  0.40960460868E-01 -0.10817594969E+00  0.75233109120E-01  0.89075238768E+00  0.88000000000E+00 0. -1.
        -11    1    4    4    0    0 -0.19406173390E-01  0.46959560065E-01 -0.30190507037E-01  0.59106071459E-01  0.51100000000E-03 0. -1.
         11    1    4    4    0    0 -0.40150810388E-02  0.64357650949E-01 -0.31988123117E-01  0.71982839989E-01  0.51100000000E-03 0.  1.
</event>
<event>
 8    1  0.1097777E+005  0.1043930E+01  0.7957747E-01            NaN
         13   -1    0    0    0    0  0.00000000000E+00  0.00000000000E+00  0.74505805969E-08  0.10566000000E+00  0.10566000000E+00 0.  1.
     999900   -1    0    0    0    0 -0.00000000000E+00 -0.00000000000E+00 -0.74505805969E-08  0.93827000000E+00  0.93827000000E+00 0. -1.
     999902    2    1    2    0    0 -0.21559797385E-01  0.86916040431E-02  0.55179246920E-02  0.10200382370E+01  0.10197583972E+01 0.  0.
     999903    2    3    3    0    0  0.10426360005E+00 -0.12375227233E-01 -0.68170954600E-01  0.12779085562E+00  0.25674485092E-01 0.  0.
         14    1    1    2    0    0  0.21559797385E-01 -0.86916040431E-02 -0.55179246920E-02  0.23891762954E-01  0.00000000000E+00 0. -1.
     999901    1    3    3    0    0 -0.12582339744E+00  0.21066831276E-01  0.73688879292E-01  0.89224738142E+00  0.88000000000E+00 0.  1.
        -11    1    4    4    0    0  0.71343686595E-01 -0.31861071544E-03 -0.34776930012E-01  0.79370769883E-01  0.51100000000E-03 0.  1.
         11    1    4    4    0    0  0.32919913459E-01 -0.12056616518E-01 -0.33394024588E-01  0.48420085741E-01  0.51100000000E-03 0. -1.
</event>
<event>
 8    1  0.1097777E+005  0.1043930E+01  0.7957747E-01            NaN
         13   -1    0    0    0    0  0.00000000000E+00  0.00000000000E+00  0.74505805969E-08  0.10566000000E+00  0.10566000000E+00 0. -1.
     999900   -1    0    0    0    0 -0.00000000000E+00 -0.00000000000E+00 -0.74505805969E-08  0.93827000000E+00  0.93827000000E+00 0. -1.
     999902    2    1    2    0    0 -0.20929472924E-01  0.95449342541E-02 -0.99531765513E-03  0.10209052467E+01  0.10206455719E+01 0.  0.
     999903    2    3    3    0    0  0.64736830653E-01 -0.10075473128E+00 -0.43935232225E-01  0.12885784436E+00  0.18211707869E-01 0.  0.
         14    1    1    2    0    0  0.20929472924E-01 -0.95449342541E-02  0.99531765513E-03  0.23024753289E-01  0.00000000000E+00 0.  1.
     999901    1    3    3    0    0 -0.85666303578E-01  0.11029966553E+00  0.42939914569E-01  0.89204740235E+00  0.88000000000E+00 0.  1.
        -11    1    4    4    0    0  0.40722910113E-01 -0.55303045552E-01 -0.16703876966E-01  0.70682833008E-01  0.51100000000E-03 0. -1.
         11    1    4    4    0    0  0.24013920540E-01 -0.45451685726E-01 -0.27231355259E-01  0.58175011347E-01  0.51100000000E-03 0.  1.
</event>
<event>
 8    1  0.1132404E+005  0.1043930E+01  0.7957747E-01            NaN
         13   -1    0    0    0    0  0.00000000000E+00  0.00000000000E+00  0.74505805969E-08  0.10566000000E+00  0.10566000000E+00 0.  1.
     999900   -1    0    0    0    0 -0.00000000000E+00 -0.00000000000E+00 -0.74505805969E-08  0.93827000000E+00  0.93827000000E+00 0.  1.
     999902    2    1    2    0    0 -0.83657975426E-02  0.20445059545E-01  0.55681823634E-02  0.10211486110E+01  0.10208944579E+01 0.  0.
     999903    2    3    3    0    0 -0.44091663862E-01 -0.94515468761E-01 -0.74028764475E-01  0.12939307585E+00  0.19622982712E-01 0.  0.
         14    1    1    2    0    0  0.83657975426E-02 -0.20445059545E-01 -0.55681823634E-02  0.22781388964E-01  0.00000000000E+00 0. -1.
     999901    1    3    3    0    0  0.35725866319E-01  0.11496052831E+00  0.79596946838E-01  0.89175553519E+00  0.88000000000E+00 0. -1.
        -11    1    4    4    0    0 -0.20413720742E-01 -0.45452903752E-01 -0.23517024367E-01  0.55099891198E-01  0.51100000000E-03 0. -1.
         11    1    4    4    0    0 -0.23677943120E-01 -0.49062565009E-01 -0.50511740108E-01  0.74293184650E-01  0.51100000000E-03 0.  1.
</event>
<event>
 8    1  0.1097777E+005  0.1043930E+01  0.7957747E-01            NaN
         13   -1    0    0    0    0  0.00000000000E+00  0.00000000000E+00  0.74505805969E-08  0.10566000000E+00  0.10566000000E+00 0.  1.
     999900   -1    0    0    0    0 -0.00000000000E+00 -0.00000000000E+00 -0.74505805969E-08  0.93827000000E+00  0.93827000000E+00 0.  1.
     999902    2    1    2    0    0  0.17539167731E-01 -0.14164804960E-03 -0.14605700346E-01  0.10211052557E+01  0.10208501233E+01 0.  0.
     999903    2    3    3    0    0 -0.29165110189E-01 -0.12236012210E+00  0.25943488032E-01  0.13050833138E+00  0.23168013630E-01 0.  0.
         14    1    1    2    0    0 -0.17539167731E-01  0.14164804960E-03  0.14605700346E-01  0.22824744280E-01  0.00000000000E+00 0.  1.
     999901    1    3    3    0    0  0.46704277920E-01  0.12221847405E+00 -0.40549188378E-01  0.89059692434E+00  0.88000000000E+00 0.  1.
        -11    1    4    4    0    0  0.36999428841E-02 -0.21022106792E-01  0.35379308482E-02  0.21642472756E-01  0.51100000000E-03 0.  1.
         11    1    4    4    0    0 -0.32865053073E-01 -0.10133801530E+00  0.22405557184E-01  0.10886585862E+00  0.51100000000E-03 0. -1.
</event>
<event>
 8    1  0.1097777E+005  0.1043930E+01  0.7957747E-01            NaN
         13   -1    0    0    0    0  0.00000000000E+00  0.00000000000E+00  0.74505805969E-08  0.10566000000E+00  0.10566000000E+00 0.  1.
     999900   -1    0    0    0    0 -0.00000000000E+00 -0.00000000000E+00 -0.74505805969E-08  0.93827000000E+00  0.93827000000E+00 0. -1.
     999902    2    1    2    0    0  0.48921935653E-02  0.82903708307E-02 -0.21920340271E-01  0.10199891328E+01  0.10197081278E+01 0.  0.
     999903    2    3    3    0    0 -0.14266541846E-01 -0.60545868638E-01 -0.11420213717E+00  0.13228342982E+00  0.24237187208E-01 0.  0.
         14    1    1    2    0    0 -0.48921935653E-02 -0.82903708307E-02  0.21920340271E-01  0.23940867236E-01  0.00000000000E+00 0.  1.
     999901    1    3    3    0    0  0.19158735411E-01  0.68836239469E-01  0.92281796902E-01  0.88770570295E+00  0.88000000000E+00 0.  1.
        -11    1    4    4    0    0 -0.15822070833E-01 -0.23522110138E-01 -0.62906797517E-01  0.69001115105E-01  0.51100000000E-03 0. -1.
         11    1    4    4    0    0  0.15555289877E-02 -0.37023758500E-01 -0.51295339656E-01  0.63282314712E-01  0.51100000000E-03 0.  1.
</event>
<event>
 8    1  0.1097777E+005  0.1043930E+01  0.7957747E-01            NaN
         13   -1    0    0    0    0  0.00000000000E+00  0.00000000000E+00  0.74505805969E-08  0.10566000000E+00  0.10566000000E+00 0.  1.
     999900   -1    0    0    0    0 -0.00000000000E+00 -0.00000000000E+00 -0.74505805969E-08  0.93827000000E+00  0.93827000000E+00 0. -1.
     999902    2    1    2    0    0  0.17841866552E-01 -0.15192390271E-01  0.40764316061E-02  0.10201443274E+01  0.10198669965E+01 0.  0.
     999903    2    3    3    0    0 -0.79109777347E-01  0.68085698326E-02  0.10019798134E+00  0.12934523909E+00  0.19642859153E-01 0.  0.
         14    1    1    2    0    0 -0.17841866552E-01  0.15192390271E-01 -0.40764316061E-02  0.23785672554E-01  0.00000000000E+00 0.  1.
     999901    1    3    3    0    0  0.96951643898E-01 -0.22000960104E-01 -0.96121549729E-01  0.89079908836E+00  0.88000000000E+00 0. -1.
        -11    1    4    4    0    0 -0.34361405320E-01 -0.62717036032E-02  0.38066995063E-01  0.51666214065E-01  0.51100000000E-03 0.  1.
         11    1    4    4    0    0 -0.44748372027E-01  0.13080273436E-01  0.62130986272E-01  0.77679025022E-01  0.51100000000E-03 0. -1.
</event>
<event>
 8    1  0.1097777E+005  0.1043930E+01  0.7957747E-01            NaN
         13   -1    0    0    0    0  0.00000000000E+00  0.00000000000E+00  0.74505805969E-08  0.10566000000E+00  0.10566000000E+00 0.  1.
     999900   -1    0    0    0    0 -0.00000000000E+00 -0.00000000000E+00 -0.74505805969E-08  0.93827000000E+00  0.93827000000E+00 0. -1.
     999902    2    1    2    0    0 -0.31161462943E-02  0.20543964031E-01  0.94196824388E-02  0.10211156352E+01  0.10208607374E+01 0.  0.
     999903    2    3    3    0    0  0.96237770554E-01 -0.84010313225E-01 -0.98159948675E-03  0.12931353584E+00  0.20039605891E-01 0.  0.
         14    1    1    2    0    0  0.31161462943E-02 -0.20543964031E-01 -0.94196824388E-02  0.22814364841E-01  0.00000000000E+00 0. -1.
     999901    1    3    3    0    0 -0.99353916849E-01  0.10455427726E+00  0.10401281926E-01  0.89180209932E+00  0.88000000000E+00 0.  1.
        -11    1    4    4    0    0  0.46730210893E-01 -0.27685728768E-01 -0.33486426589E-03  0.54319291624E-01  0.51100000000E-03 0. -1.
         11    1    4    4    0    0  0.49507559662E-01 -0.56324584457E-01 -0.64673522086E-03  0.74994244215E-01  0.51100000000E-03 0.  1.
</event>
<event>
 8    1  0.1097777E+005  0.1043930E+01  0.7957747E-01            NaN
         13   -1    0    0    0    0  0.00000000000E+00  0.00000000000E+00  0.74505805969E-08  0.10566000000E+00  0.10566000000E+00 0.  1.
     999900   -1    0    0    0    0 -0.00000000000E+00 -0.00000000000E+00 -0.74505805969E-08  0.93827000000E+00  0.93827000000E+00 0.  1.
     999902    2    1    2    0    0 -0.22149012072E-01  0.61548929409E-02  0.13864330499E-02  0.10208999405E+01  0.10206401447E+01 0.  0.
     999903    2    3    3    0    0 -0.10896301357E+00  0.71801139241E-01 -0.23024398265E-01  0.13385879763E+00  0.18966097741E-01 0.  0.
         14    1    1    2    0    0  0.22149012072E-01 -0.61548929409E-02 -0.13864330499E-02  0.23030059476E-01  0.00000000000E+00 0.  1.
     999901    1    3    3    0    0  0.86814001499E-01 -0.65646246300E-01  0.24410831315E-01  0.88704114290E+00  0.88000000000E+00 0. -1.
        -11    1    4    4    0    0 -0.41690292129E-01  0.23044959019E-01  0.17324489392E-04  0.47638346058E-01  0.51100000000E-03 0. -1.
         11    1    4    4    0    0 -0.67272721441E-01  0.48756180222E-01 -0.23041722754E-01  0.86220451567E-01  0.51100000000E-03 0.  1.
</event>
<event>
 8    1  0.1097777E+005  0.1043930E+01  0.7957747E-01            NaN
         13   -1    0    0    0    0  0.00000000000E+00  0.00000000000E+00  0.74505805969E-08  0.10566000000E+00  0.10566000000E+00 0.  1.
     999900   -1    0    0    0    0 -0.00000000000E+00 -0.00000000000E+00 -0.74505805969E-08  0.93827000000E+00  0.93827000000E+00 0. -1.
     999902    2    1    2    0    0  0.42538525099E-02  0.10410153717E-01 -0.20142801382E-01  0.10208605611E+01  0.10205998659E+01 0.  0.
     999903    2    3    3    0    0  0.92113490841E-01 -0.60156197729E-02 -0.92374485465E-01  0.13338856820E+00  0.27173179503E-01 0.  0.
         14    1    1    2    0    0 -0.42538525099E-02 -0.10410153717E-01  0.20142801382E-01  0.23069438855E-01  0.00000000000E+00 0.  1.
     999901    1    3    3    0    0 -0.87859638332E-01  0.16425773490E-01  0.72231684083E-01  0.88747199295E+00  0.88000000000E+00 0.  1.
        -11    1    4    4    0    0  0.81082542389E-01 -0.14374099372E-01 -0.77920321500E-01  0.11337032697E+00  0.51100000000E-03 0.  1.
         11    1    4    4    0    0  0.11030948452E-01  0.83584795992E-02 -0.14454163965E-01  0.20018241229E-01  0.51100000000E-03 0. -1.
</event>
<event>
 8    1  0.1097777E+005  0.1043930E+01  0.7957747E-01            NaN
         13   -1    0    0    0    0  0.00000000000E+00  0.00000000000E+00  0.74505805969E-08  0.10566000000E+00  0.10566000000E+00 0.  1.
     999900   -1    0    0    0    0 -0.00000000000E+00 -0.00000000000E+00 -0.74505805969E-08  0.93827000000E+00  0.93827000000E+00 0.  1.
     999902    2    1    2    0    0 -0.79294208218E-02  0.21899049589E-01 -0.78747688701E-03  0.10206262619E+01  0.10203601827E+01 0.  0.
     999903    2    3    3    0    0  0.59819990090E-01  0.11437938214E+00 -0.23724414110E-01  0.13289392747E+00  0.20901527673E-01 0.  0.
         14    1    1    2    0    0  0.79294208218E-02 -0.21899049589E-01  0.78747688701E-03  0.23303738055E-01  0.00000000000E+00 0. -1.
     999901    1    3    3    0    0 -0.67749410912E-01 -0.92480332554E-01  0.22936937223E-01  0.88773233448E+00  0.88000000000E+00 0. -1.
        -11    1    4    4    0    0  0.52335007073E-01  0.87693334227E-01 -0.12113985587E-01  0.10284008752E+00  0.51100000000E-03 0. -1.
         11    1    4    4    0    0  0.74849830172E-02  0.26686047916E-01 -0.11610428523E-01  0.30053839948E-01  0.51100000000E-03 0.  1.
</event>
<event>
 8    1  0.1097777E+005  0.1043930E+01  0.7957747E-01            NaN
         13   -1    0    0    0    0  0.00000000000E+00  0.00000000000E+00  0.74505805969E-08  0.10566000000E+00  0.10566000000E+00 0. -1.
     999900   -1    0    0    0    0 -0.00000000000E+00 -0.00000000000E+00 -0.74505805969E-08  0.93827000000E+00  0.93827000000E+00 0. -1.
     999902    2    1    2    0    0  0.11287882952E-02  0.23256134651E-01 -0.61702724039E-02  0.10198427788E+01  0.10195582864E+01 0.  0.
     999903    2    3    3    0    0  0.10839322359E+00  0.11596339138E-01 -0.69809696062E-01  0.13097181736E+00  0.19916256607E-01 0.  0.
         14    1    1    2    0    0 -0.11287882952E-02 -0.23256134651E-01  0.61702724039E-02  0.24087221165E-01  0.00000000000E+00 0.  1.
     999901    1    3    3    0    0 -0.10726443529E+00  0.11659795513E-01  0.63639423658E-01  0.88887096148E+00  0.88000000000E+00 0.  1.
        -11    1    4    4    0    0  0.53028756858E-01  0.15249178301E-01 -0.31415359406E-01  0.63496239419E-01  0.51100000000E-03 0.  1.
         11    1    4    4    0    0  0.55364466729E-01 -0.36528391636E-02 -0.38394336655E-01  0.67475577940E-01  0.51100000000E-03 0. -1.
</event>
<event>
 8    1  0.1097777E+005  0.1043930E+01  0.7957747E-01            NaN
         13   -1    0    0    0    0  0.00000000000E+00  0.00000000000E+00  0.74505805969E-08  0.10566000000E+00  0.10566000000E+00 0. -1.
     999900   -1    0    0    0    0 -0.00000000000E+00 -0.00000000000E+00 -0.74505805969E-08  0.93827000000E+00  0.93827000000E+00 0. -1.
     999902    2    1    2    0    0 -0.11851563315E-01  0.12085179355E-01 -0.26280566809E-01  0.10126701327E+01  0.10121875411E+01 0.  0.
     999903    2    3    3    0    0 -0.87485477176E-01 -0.63610031611E-01  0.54142045462E-01  0.12254764085E+00  0.19662613098E-01 0.  0.
         14    1    1    2    0    0  0.11851563315E-01 -0.12085179355E-01  0.26280566809E-01  0.31259867320E-01  0.00000000000E+00 0. -1.
     999901    1    3    3    0    0  0.75633913861E-01  0.75695210967E-01 -0.80422612271E-01  0.89012249183E+00  0.88000000000E+00 0. -1.
        -11    1    4    4    0    0 -0.43619757517E-01 -0.30076815083E-01  0.37371949489E-01  0.64839970551E-01  0.51100000000E-03 0. -1.
         11    1    4    4    0    0 -0.43865719659E-01 -0.33533216529E-01  0.16770095972E-01  0.57707670304E-01  0.51100000000E-03 0.  1.
</event>
<event>
 8    1  0.1097777E+005  0.1043930E+01  0.7957747E-01            NaN
         13   -1    0    0    0    0  0.00000000000E+00  0.00000000000E+00  0.74505805969E-08  0.10566000000E+00  0.10566000000E+00 0. -1.
     999900   -1    0    0    0    0 -0.00000000000E+00 -0.00000000000E+00 -0.74505805969E-08  0.93827000000E+00  0.93827000000E+00 0. -1.
     999902    2    1    2    0    0 -0.19106954452E-01 -0.48663865471E-04 -0.13706899511E-01  0.10204149586E+01  0.10201439754E+01 0.  0.
     999903    2    3    3    0    0 -0.65074060584E-01 -0.95208074610E-01 -0.63025840049E-01  0.13272095380E+00  0.18530629592E-01 0.  0.
         14    1    1    2    0    0  0.19106954452E-01  0.48663865471E-04  0.13706899511E-01  0.23515041374E-01  0.00000000000E+00 0. -1.
     999901    1    3    3    0    0  0.45967106132E-01  0.95159410745E-01  0.49318940538E-01  0.88769400482E+00  0.88000000000E+00 0. -1.
        -11    1    4    4    0    0 -0.41660697781E-01 -0.73480378136E-01 -0.50447520656E-01  0.98387972700E-01  0.51100000000E-03 0.  1.
         11    1    4    4    0    0 -0.23413362803E-01 -0.21727696474E-01 -0.12578319393E-01  0.34332981105E-01  0.51100000000E-03 0. -1.
</event>
<event>
 8    1  0.1097777E+005  0.1043930E+01  0.7957747E-01            NaN
         13   -1    0    0    0    0  0.00000000000E+00  0.00000000000E+00  0.74505805969E-08  0.10566000000E+00  0.10566000000E+00 0. -1.
     999900   -1    0    0    0    0 -0.00000000000E+00 -0.00000000000E+00 -0.74505805969E-08  0.93827000000E+00  0.93827000000E+00 0. -1.
     999902    2    1    2    0    0  0.11985436325E-01  0.75107249674E-02 -0.18356624898E-01  0.10207561494E+01  0.10204930618E+01 0.  0.
     999903    2    3    3    0    0  0.10518952732E+00  0.47074979676E-01  0.60212368327E-01  0.13147249415E+00  0.19457570478E-01 0.  0.
         14    1    1    2    0    0 -0.11985436325E-01 -0.75107249674E-02  0.18356624898E-01  0.23173850588E-01  0.00000000000E+00 0. -1.
     999901    1    3    3    0    0 -0.93204090990E-01 -0.39564254709E-01 -0.78568993225E-01  0.88928365527E+00  0.88000000000E+00 0. -1.
        -11    1    4    4    0    0  0.64561628984E-01  0.18569211260E-01  0.32549852965E-01  0.74651012002E-01  0.51100000000E-03 0. -1.
         11    1    4    4    0    0  0.40627898331E-01  0.28505768416E-01  0.27662515362E-01  0.56821482143E-01  0.51100000000E-03 0.  1.
</event>
<event>
 8    1  0.1097777E+005  0.1043930E+01  0.7957747E-01            NaN
         13   -1    0    0    0    0  0.00000000000E+00  0.00000000000E+00  0.74505805969E-08  0.10566000000E+00  0.10566000000E+00 0.  1.
     999900   -1    0    0    0    0 -0.00000000000E+00 -0.00000000000E+00 -0.74505805969E-08  0.93827000000E+00  0.93827000000E+00 0. -1.
     999902    2    1    2    0    0 -0.21081606605E-01  0.20402990456E-02 -0.10904921569E-01  0.10201074420E+01  0.10198292401E+01 0.  0.
     999903    2    3    3    0    0  0.11687658803E-01 -0.80415946743E-01 -0.10069416352E+00  0.13109958755E+00  0.21082253938E-01 0.  0.
         14    1    1    2    0    0  0.21081606605E-01 -0.20402990456E-02  0.10904921569E-01  0.23822558042E-01  0.00000000000E+00 0.  1.
     999901    1    3    3    0    0 -0.32769265408E-01  0.82456245789E-01  0.89789241948E-01  0.88900785441E+00  0.88000000000E+00 0.  1.
        -11    1    4    4    0    0  0.49858525715E-02 -0.55505628570E-01 -0.82373812853E-01  0.99455717250E-01  0.51100000000E-03 0. -1.
         11    1    4    4    0    0  0.67018062314E-02 -0.24910318173E-01 -0.18320350664E-01  0.31643870302E-01  0.51100000000E-03 0.  1.
</event>
<event>
 8    1  0.1097777E+005  0.1043930E+01  0.7957747E-01            NaN
         13   -1    0    0    0    0  0.00000000000E+00  0.00000000000E+00  0.74505805969E-08  0.10566000000E+00  0.10566000000E+00 0. -1.
     999900   -1    0    0    0    0 -0.00000000000E+00 -0.00000000000E+00 -0.74505805969E-08  0.93827000000E+00  0.93827000000E+00 0.  1.
     999902    2    1    2    0    0  0.12620274612E-05  0.23365126115E-01  0.31500522789E-02  0.10203534873E+01  0.10200810689E+01 0.  0.
     999903    2    3    3    0    0  0.35826970426E-01  0.12214094252E-01 -0.12322601818E+00  0.13053398987E+00  0.20535701763E-01 0.  0.
         14    1    1    2    0    0 -0.12620274612E-05 -0.23365126115E-01 -0.31500522789E-02  0.23576512662E-01  0.00000000000E+00 0.  1.
     999901    1    3    3    0    0 -0.35825708399E-01  0.11151031863E-01  0.12637607046E+00  0.88981949747E+00  0.88000000000E+00 0. -1.
        -11    1    4    4    0    0  0.69956692779E-02  0.12097916739E-01 -0.46985885811E-01  0.49022786177E-01  0.51100000000E-03 0.  1.
         11    1    4    4    0    0  0.28831301149E-01  0.11617751324E-03 -0.76240132365E-01  0.81511203691E-01  0.51100000000E-03 0. -1.
</event>
<event>
 8    1  0.1097777E+005  0.1043930E+01  0.7957747E-01            NaN
         13   -1    0    0    0    0  0.00000000000E+00  0.00000000000E+00  0.74505805969E-08  0.10566000000E+00  0.10566000000E+00 0.  1.
     999900   -1    0    0    0    0 -0.00000000000E+00 -0.00000000000E+00 -0.74505805969E-08  0.93827000000E+00  0.93827000000E+00 0. -1.
     999902    2    1    2    0    0 -0.53673060771E-03 -0.22574972595E-01  0.81024785434E-02  0.10199390095E+01  0.10196568126E+01 0.  0.
     999903    2    3    3    0    0 -0.57414074100E-01  0.10981534533E+00 -0.22671611124E-01  0.12768945186E+00  0.20852054838E-01 0.  0.
         14    1    1    2    0    0  0.53673060771E-03  0.22574972595E-01 -0.81024785434E-02  0.23990990517E-01  0.00000000000E+00 0. -1.
     999901    1    3    3    0    0  0.56877343492E-01 -0.13239031792E+00  0.30774089667E-01  0.89224955762E+00  0.88000000000E+00 0.  1.
        -11    1    4    4    0    0 -0.14048231663E-01  0.32487019007E-01 -0.15799327363E-01  0.38763888904E-01  0.51100000000E-03 0. -1.
         11    1    4    4    0    0 -0.43365842436E-01  0.77328326323E-01 -0.68722837602E-02  0.88925562957E-01  0.51100000000E-03 0.  1.
</event>
<event>
 8    1  0.1097777E+005  0.1043930E+01  0.7957747E-01            NaN
         13   -1    0    0    0    0  0.00000000000E+00  0.00000000000E+00  0.74505805969E-08  0.10566000000E+00  0.10566000000E+00 0. -1.
     999900   -1    0    0    0    0 -0.00000000000E+00 -0.00000000000E+00 -0.74505805969E-08  0.93827000000E+00  0.93827000000E+00 0.  1.
     999902    2    1    2    0    0 -0.19787348761E-01 -0.42910687118E-02  0.12672488639E-01  0.10200439285E+01  0.10197642236E+01 0.  0.
     999903    2    3    3    0    0  0.51052306747E-01  0.91207105647E-01  0.75394860828E-01  0.12983482160E+00  0.15736000632E-01 0.  0.
         14    1    1    2    0    0  0.19787348761E-01  0.42910687118E-02 -0.12672488639E-01  0.23886071464E-01  0.00000000000E+00 0.  1.
     999901    1    3    3    0    0 -0.70839655508E-01 -0.95498174359E-01 -0.62722372189E-01  0.89020910694E+00  0.88000000000E+00 0. -1.
        -11    1    4    4    0    0  0.32078201458E-01  0.61438891659E-01  0.58486395467E-01  0.90689955302E-01  0.51100000000E-03 0. -1.
         11    1    4    4    0    0  0.18974105289E-01  0.29768213989E-01  0.16908465361E-01  0.39144866298E-01  0.51100000000E-03 0.  1.
</event>
<event>
 8    1  0.1097777E+005  0.1043930E+01  0.7957747E-01            NaN
         13   -1    0    0    0    0  0.00000000000E+00  0.00000000000E+00  0.74505805969E-08  0.10566000000E+00  0.10566000000E+00 0. -1.
     999900   -1    0    0    0    0 -0.00000000000E+00 -0.00000000000E+00 -0.74505805969E-08  0.93827000000E+00  0.93827000000E+00 0. -1.
     999902    2    1    2    0    0 -0.49809013927E-02  0.21753326736E-01 -0.85319084501E-02  0.10200383683E+01  0.10197585316E+01 0.  0.
     999903    2    3    3    0    0 -0.22468336115E-01 -0.78868300611E-01  0.96176024945E-01  0.12796534800E+00  0.20006687498E-01 0.  0.
         14    1    1    2    0    0  0.49809013927E-02 -0.21753326736E-01  0.85319084501E-02  0.23891631685E-01  0.00000000000E+00 0. -1.
     999901    1    3    3    0    0  0.17487434723E-01  0.10062162735E+00 -0.10470793339E+00  0.89207302032E+00  0.88000000000E+00 0. -1.
        -11    1    4    4    0    0 -0.15449563505E-01 -0.21761432571E-01  0.34437920785E-01  0.43571555733E-01  0.51100000000E-03 0.  1.
         11    1    4    4    0    0 -0.70187726103E-02 -0.57106868041E-01  0.61738104160E-01  0.84393792264E-01  0.51100000000E-03 0. -1.
</event>
<event>
 7    1  0.1097777E+005  0.1043930E+01  0.7957747E-01            NaN
         13   -1    0    0    0    0  0.00000000000E+00  0.00000000000E+00  0.74505805969E-08  0.10566000000E+00  0.10566000000E+00 0. -1.
     999900   -1    0    0    0    0 -0.00000000000E+00 -0.00000000000E+00 -0.74505805969E-08  0.93827000000E+00  0.93827000000E+00 0. -1.
     999903    2    1    2    0    0 -0.31958808166E-01 -0.96223196581E-01 -0.29799583122E-01  0.10761350884E+00  0.20307219209E-01 0.  0.
         14    1    1    2    0    0  0.16829745707E-01 -0.25771513050E-01  0.36501008374E-01  0.47746568859E-01  0.00000000000E+00 0.  1.
     999901    1    1    2    0    0  0.15129062459E-01  0.12199470963E+00 -0.67014252519E-02  0.88856992230E+00  0.88000000000E+00 0. -1.
        -11    1    3    3    0    0 -0.15277225588E-01 -0.71437910291E-01 -0.16437482783E-01  0.74881376921E-01  0.51100000000E-03 0.  1.
         11    1    3    3    0    0 -0.16681582578E-01 -0.24785286290E-01 -0.13362100339E-01  0.32732131924E-01  0.51100000000E-03 0. -1.
</event>
<event>
 8    1  0.1097777E+005  0.1043930E+01  0.7957747E-01            NaN
         13   -1    0    0    0    0  0.00000000000E+00  0.00000000000E+00  0.74505805969E-08  0.10566000000E+00  0.10566000000E+00 0.  1.
     999900   -1    0    0    0    0 -0.00000000000E+00 -0.00000000000E+00 -0.74505805969E-08  0.93827000000E+00  0.93827000000E+00 0.  1.
     999902    2    1    2    0    0  0.15793681531E-01 -0.10284655174E-01  0.16195292167E-01  0.10190804125E+01  0.10187773973E+01 0.  0.
     999903    2    3    3    0    0 -0.78933307676E-01 -0.10019959731E+00  0.85702936540E-02  0.12940854050E+00  0.20067238481E-01 0.  0.
         14    1    1    2    0    0 -0.15793681531E-01  0.10284655174E-01 -0.16195292167E-01  0.24849587455E-01  0.00000000000E+00 0. -1.
     999901    1    3    3    0    0  0.94726989206E-01  0.89914942133E-01  0.76249985126E-02  0.88967187204E+00  0.88000000000E+00 0.  1.
        -11    1    4    4    0    0 -0.88051592578E-02 -0.21967882153E-01  0.54843874479E-02  0.24299347779E-01  0.51100000000E-03 0. -1.
         11    1    4    4    0    0 -0.70128148418E-01 -0.78231715155E-01  0.30859062061E-02  0.10510919272E+00  0.51100000000E-03 0.  1.
</event>
<event>
 8    1  0.1097777E+005  0.1043930E+01  0.7957747E-01            NaN
         13   -1    0    0    0    0  0.00000000000E+00  0.00000000000E+00  0.74505805969E-08  0.10566000000E+00  0.10566000000E+00 0. -1.
     999900   -1    0    0    0    0 -0.00000000000E+00 -0.00000000000E+00 -0.74505805969E-08  0.93827000000E+00  0.93827000000E+00 0. -1.
     999902    2    1    2    0    0 -0.72899123751E-02  0.49153964658E-02 -0.21955760404E-01  0.10202792207E+01  0.10200050632E+01 0.  0.
     999903    2    3    3    0    0  0.53117563369E-01  0.69844949780E-01  0.92123279823E-01  0.12849508910E+00  0.18013791643E-01 0.  0.
         14    1    1    2    0    0  0.72899123751E-02 -0.49153964658E-02  0.21955760404E-01  0.23650779264E-01  0.00000000000E+00 0. -1.
     999901    1    3    3    0    0 -0.60407475744E-01 -0.64929553314E-01 -0.11407904023E+00  0.89178413164E+00  0.88000000000E+00 0. -1.
        -11    1    4    4    0    0  0.18214664441E-01  0.37280595653E-01  0.48483234435E-01  0.63816157478E-01  0.51100000000E-03 0.  1.
         11    1    4    4    0    0  0.34902898929E-01  0.32564354127E-01  0.43640045388E-01  0.64678931622E-01  0.51100000000E-03 0. -1.
</event>
<event>
 8    1  0.1097777E+005  0.1043930E+01  0.7957747E-01            NaN
         13   -1    0    0    0    0  0.00000000000E+00  0.00000000000E+00  0.74505805969E-08  0.10566000000E+00  0.10566000000E+00 0.  1.
     999900   -1    0    0    0    0 -0.00000000000E+00 -0.00000000000E+00 -0.74505805969E-08  0.93827000000E+00  0.93827000000E+00 0.  1.
     999902    2    1    2    0    0  0.21027923482E-01  0.61927402116E-02 -0.98683593756E-02  0.10198902805E+01  0.10196069224E+01 0.  0.
     999903    2    3    3    0    0 -0.46160415194E-01 -0.73770406065E-01 -0.94080437966E-01  0.12972172803E+00  0.20093311634E-01 0.  0.
         14    1    1    2    0    0 -0.21027923482E-01 -0.61927402116E-02  0.98683593756E-02  0.24039719509E-01  0.00000000000E+00 0.  1.
     999901    1    3    3    0    0  0.67188338676E-01  0.79963146276E-01  0.84212078591E-01  0.89016855246E+00  0.88000000000E+00 0. -1.
        -11    1    4    4    0    0 -0.16244580291E-01 -0.14668139080E-01 -0.33088439394E-01  0.39675516826E-01  0.51100000000E-03 0. -1.
         11    1    4    4    0    0 -0.29915834903E-01 -0.59102266985E-01 -0.60991998572E-01  0.90046211200E-01  0.51100000000E-03 0.  1.
</event>
<event>
 8    1  0.1097777E+005  0.1043930E+01  0.7957747E-01            NaN
         13   -1    0    0    0    0  0.00000000000E+00  0.00000000000E+00  0.74505805969E-08  0.10566000000E+00  0.10566000000E+00 0. -1.
     999900   -1    0    0    0    0 -0.00000000000E+00 -0.00000000000E+00 -0.74505805969E-08  0.93827000000E+00  0.93827000000E+00 0. -1.
     999902    2    1    2    0    0  0.19423875521E-01  0.12873183028E-01  0.37945659573E-02  0.10203205842E+01  0.10200473960E+01 0.  0.
     999903    2    3    3    0    0  0.53355247819E-01  0.46514968630E-01  0.11046600484E+00  0.13259207640E+00  0.19170177952E-01 0.  0.
         14    1    1    2    0    0 -0.19423875521E-01 -0.12873183028E-01 -0.37945659573E-02  0.23609415756E-01  0.00000000000E+00 0.  1.
     999901    1    3    3    0    0 -0.33931372298E-01 -0.33641785603E-01 -0.10667143888E+00  0.88772850784E+00  0.88000000000E+00 0. -1.
        -11    1    4    4    0    0  0.39339636433E-01  0.28151797712E-01  0.59894158860E-01  0.76991571588E-01  0.51100000000E-03 0. -1.
         11    1    4    4    0    0  0.14015611387E-01  0.18363170918E-01  0.50571845979E-01  0.55600504813E-01  0.51100000000E-03 0.  1.
</event>
<event>
 8    1  0.1097777E+005  0.1043930E+01  0.7957747E-01            NaN
         13   -1    0    0    0    0  0.00000000000E+00  0.00000000000E+00  0.74505805969E-08  0.10566000000E+00  0.10566000000E+00 0.  1.
     999900   -1    0    0    0    0 -0.00000000000E+00 -0.00000000000E+00 -0.74505805969E-08  0.93827000000E+00  0.93827000000E+00 0.  1.
     999902    2    1    2    0    0  0.18337086368E-01 -0.18125559868E-02  0.77485619404E-02  0.10239406451E+01  0.10237455106E+01 0.  0.
     999903    2    3    3    0    0 -0.74102245755E-01  0.10299670710E+00 -0.30667746947E-01  0.13208537406E+00  0.20163601856E-01 0.  0.
         14    1    1    2    0    0 -0.18337086368E-01  0.18125559868E-02 -0.77485619404E-02  0.19989354862E-01  0.00000000000E+00 0. -1.
     999901    1    3    3    0    0  0.92439332123E-01 -0.10480926309E+00  0.38416308888E-01  0.89185527107E+00  0.88000000000E+00 0.  1.
        -11    1    4    4    0    0 -0.39766171937E-01  0.40601818313E-01 -0.18932686142E-01  0.59904622579E-01  0.51100000000E-03 0.  1.
         11    1    4    4    0    0 -0.34336073818E-01  0.62394888786E-01 -0.11735060805E-01  0.72180751486E-01  0.51100000000E-03 0. -1.
</event>
<event>
 8    1  0.1097777E+005  0.1043930E+01  0.7957747E-01            NaN
         13   -1    0    0    0    0  0.00000000000E+00  0.00000000000E+00  0.74505805969E-08  0.10566000000E+00  0.10566000000E+00 0. -1.
     999900   -1    0    0    0    0 -0.00000000000E+00 -0.00000000000E+00 -0.74505805969E-08  0.93827000000E+00  0.93827000000E+00 0.  1.
     999902    2    1    2    0    0  0.22160359124E-01 -0.81067457829E-02  0.79770319740E-02  0.10190214898E+01  0.10187170180E+01 0.  0.
     999903    2    3    3    0    0 -0.77363089111E-01  0.93231830202E-01  0.34260641857E-01  0.12724503128E+00  0.18446806932E-01 0.  0.
         14    1    1    2    0    0 -0.22160359124E-01  0.81067457829E-02 -0.79770319740E-02  0.24908510249E-01  0.00000000000E+00 0. -1.
     999901    1    3    3    0    0  0.99523448235E-01 -0.10133857598E+00 -0.26283609883E-01  0.89177645847E+00  0.88000000000E+00 0. -1.
        -11    1    4    4    0    0  0.41665265482E-03  0.43951282813E-02  0.76096953292E-03  0.45089852155E-02  0.51100000000E-03 0. -1.
         11    1    4    4    0    0 -0.77779741766E-01  0.88836701921E-01  0.33499672324E-01  0.12273604607E+00  0.51100000000E-03 0.  1.
</event>
<event>
 8    1  0.1097777E+005  0.1043930E+01  0.7957747E-01            NaN
         13   -1    0    0    0    0  0.00000000000E+00  0.00000000000E+00  0.74505805969E-08  0.10566000000E+00  0.10566000000E+00 0.  1.
     999900   -1    0    0    0    0 -0.00000000000E+00 -0.00000000000E+00 -0.74505805969E-08  0.93827000000E+00  0.93827000000E+00 0. -1.
     999902    2    1    2    0    0  0.13842981005E-01 -0.27649363530E-02  0.20546871038E-01  0.10190011632E+01  0.10186961881E+01 0.  0.
     999903    2    3    3    0    0 -0.52661059991E-01  0.58685124678E-01  0.10219796580E+00  0.13059483792E+00  0.19835734917E-01 0.  0.
         14    1    1    2    0    0 -0.13842981005E-01  0.27649363530E-02 -0.20546871038E-01  0.24928836828E-01  0.00000000000E+00 0. -1.
     999901    1    3    3    0    0  0.66504040996E-01 -0.61450061031E-01 -0.81651094763E-01  0.88840632525E+00  0.88000000000E+00 0. -1.
        -11    1    4    4    0    0 -0.17715747320E-01  0.17448483222E-01  0.18655938998E-01  0.31090230793E-01  0.51100000000E-03 0. -1.
         11    1    4    4    0    0 -0.34945312671E-01  0.41236641456E-01  0.83542026804E-01  0.99504607128E-01  0.51100000000E-03 0.  1.
</event>
<event>
 8    1  0.1097777E+005  0.1043930E+01  0.7957747E-01            NaN
         13   -1    0    0    0    0  0.00000000000E+00  0.00000000000E+00  0.74505805969E-08  0.10566000000E+00  0.10566000000E+00 0. -1.
     999900   -1    0    0    0    0 -0.00000000000E+00 -0.00000000000E+00 -0.74505805969E-08  0.93827000000E+00  0.93827000000E+00 0. -1.
     999902    2    1    2    0    0  0.27466845414E-02  0.13990492802E-01  0.18511493833E-01  0.10205643507E+01  0.10202968393E+01 0.  0.
     999903    2    3    3    0    0  0.85197924457E-01  0.53442960396E-01 -0.80411854927E-01  0.13031689457E+00  0.20039716798E-01 0.  0.
         14    1    1    2    0    0 -0.27466845414E-02 -0.13990492802E-01 -0.18511493833E-01  0.23365649332E-01  0.00000000000E+00 0.  1.
     999901    1    3    3    0    0 -0.82451239915E-01 -0.39452467594E-01  0.98923348760E-01  0.89024745610E+00  0.88000000000E+00 0. -1.
        -11    1    4    4    0    0  0.12034315679E-01  0.98918861052E-02 -0.44444645286E-02  0.16207669497E-01  0.51100000000E-03 0.  1.
         11    1    4    4    0    0  0.73163608778E-01  0.43551074291E-01 -0.75967390398E-01  0.11410922507E+00  0.51100000000E-03 0. -1.
</event>
<event>
 8    1  0.1097777E+005  0.1043930E+01  0.7957747E-01            NaN
         13   -1    0    0    0    0  0.00000000000E+00  0.00000000000E+00  0.74505805969E-08  0.10566000000E+00  0.10566000000E+00 0. -1.
     999900   -1    0    0    0    0 -0.00000000000E+00 -0.00000000000E+00 -0.74505805969E-08  0.93827000000E+00  0.93827000000E+00 0.  1.
     999902    2    1    2    0    0 -0.10537295503E-01  0.99438493003E-02 -0.19080496402E-01  0.10199721187E+01  0.10196907094E+01 0.  0.
     999903    2    3    3    0    0 -0.11694002765E+00  0.10050912345E-01 -0.58811531440E-01  0.13267278472E+00  0.19164568029E-01 0.  0.
         14    1    1    2    0    0  0.10537295503E-01 -0.99438493003E-02  0.19080496402E-01  0.23957881342E-01  0.00000000000E+00 0. -1.
     999901    1    3    3    0    0  0.10640273215E+00 -0.10706304495E-03  0.39731035038E-01  0.88729933394E+00  0.88000000000E+00 0. -1.
        -11    1    4    4    0    0 -0.60415155342E-01  0.54553663810E-03 -0.20826706279E-01  0.63908539497E-01  0.51100000000E-03 0. -1.
         11    1    4    4    0    0 -0.56524872309E-01  0.95053757072E-02 -0.37984825161E-01  0.68764245218E-01  0.51100000000E-03 0.  1.
</event>
<event>
 8    1  0.1097777E+005  0.1043930E+01  0.7957747E-01            NaN
         13   -1    0    0    0    0  0.00000000000E+00  0.00000000000E+00  0.74505805969E-08  0.10566000000E+00  0.10566000000E+00 0. -1.
     999900   -1    0    0    0    0 -0.00000000000E+00 -0.00000000000E+00 -0.74505805969E-08  0.93827000000E+00  0.93827000000E+00 0. -1.
     999902    2    1    2    0    0  0.10728472980E-01  0.43308346797E-02  0.21126746790E-01  0.10198427484E+01  0.10195582552E+01 0.  0.
     999903    2    3    3    0    0 -0.31232323408E-02 -0.12766508181E+00  0.11672472509E-01  0.12984040285E+00  0.20350820721E-01 0.  0.
         14    1    1    2    0    0 -0.10728472980E-01 -0.43308346797E-02 -0.21126746790E-01  0.24087251637E-01  0.00000000000E+00 0.  1.
     999901    1    3    3    0    0  0.13851705321E-01  0.13199591649E+00  0.94542742807E-02  0.89000234551E+00  0.88000000000E+00 0.  1.
        -11    1    4    4    0    0 -0.36024013918E-02 -0.24312202872E-01 -0.51730595736E-02  0.25121348901E-01  0.51100000000E-03 0. -1.
         11    1    4    4    0    0  0.47916905097E-03 -0.10335287894E+00  0.16845532083E-01  0.10471905395E+00  0.51100000000E-03 0.  1.
</event>
<event>
 8    1  0.1097777E+005  0.1043930E+01  0.7957747E-01            NaN
         13   -1    0    0    0    0  0.00000000000E+00  0.00000000000E+00  0.74505805969E-08  0.10566000000E+00  0.10566000000E+00 0.  1.
     999900   -1    0    0    0    0 -0.00000000000E+00 -0.00000000000E+00 -0.74505805969E-08  0.93827000000E+00  0.93827000000E+00 0. -1.
     999902    2    1    2    0    0  0.10601873144E-01 -0.18322965816E-01 -0.91150511135E-02  0.10208818993E+01  0.10206216916E+01 0.  0.
     999903    2    3    3    0    0  0.82102102723E-01 -0.71256465874E-01 -0.75586099708E-01  0.13390239637E+00  0.19958809706E-01 0.  0.
         14    1    1    2    0    0 -0.10601873144E-01  0.18322965816E-01  0.91150511135E-02  0.23048100730E-01  0.00000000000E+00 0.  1.
     999901    1    3    3    0    0 -0.71500229579E-01  0.52933500058E-01  0.66471048594E-01  0.88697950290E+00  0.88000000000E+00 0.  1.
        -11    1    4    4    0    0  0.40275537220E-01 -0.46490029352E-01 -0.36499561969E-01  0.71525665830E-01  0.51100000000E-03 0.  1.
         11    1    4    4    0    0  0.41826565503E-01 -0.24766436523E-01 -0.39086537739E-01  0.62376730543E-01  0.51100000000E-03 0. -1.
</event>
<event>
 8    1  0.1097777E+005  0.1043930E+01  0.7957747E-01            NaN
         13   -1    0    0    0    0  0.00000000000E+00  0.00000000000E+00  0.74505805969E-08  0.10566000000E+00  0.10566000000E+00 0.  1.
     999900   -1    0    0    0    0 -0.00000000000E+00 -0.00000000000E+00 -0.74505805969E-08  0.93827000000E+00  0.93827000000E+00 0. -1.
     999902    2    1    2    0    0 -0.19073016807E-01  0.33545619989E-02  0.96523164824E-02  0.10222920641E+01  0.10220630431E+01 0.  0.
     999903    2    3    3    0    0  0.32104963962E-01 -0.37746804114E-01  0.12150903179E+00  0.13278634025E+00  0.20303138139E-01 0.  0.
         14    1    1    2    0    0  0.19073016807E-01 -0.33545619989E-02 -0.96523164824E-02  0.21637935895E-01  0.00000000000E+00 0.  1.
     999901    1    3    3    0    0 -0.51177980768E-01  0.41101366113E-01 -0.11185671531E+00  0.88950572386E+00  0.88000000000E+00 0. -1.
        -11    1    4    4    0    0  0.18382063923E-01 -0.10647757170E-01  0.33396877720E-01  0.39583930695E-01  0.51100000000E-03 0.  1.
         11    1    4    4    0    0  0.13722900039E-01 -0.27099046944E-01  0.88112154071E-01  0.93202409555E-01  0.51100000000E-03 0. -1.
</event>
<event>
 8    1  0.1097777E+005  0.1043930E+01  0.7957747E-01            NaN
         13   -1    0    0    0    0  0.00000000000E+00  0.00000000000E+00  0.74505805969E-08  0.10566000000E+00  0.10566000000E+00 0. -1.
     999900   -1    0    0    0    0 -0.00000000000E+00 -0.00000000000E+00 -0.74505805969E-08  0.93827000000E+00  0.93827000000E+00 0.  1.
     999902    2    1    2    0    0  0.34021842913E-02 -0.22346490315E-01  0.77892043600E-02  0.10200215874E+01  0.10197413528E+01 0.  0.
     999903    2    3    3    0    0  0.92326998072E-01  0.26127477988E-01  0.86718646265E-01  0.13070319399E+00  0.18875423940E-01 0.  0.
         14    1    1    2    0    0 -0.34021842913E-02  0.22346490315E-01 -0.77892043600E-02  0.23908412576E-01  0.00000000000E+00 0. -1.
     999901    1    3    3    0    0 -0.88924813781E-01 -0.48473968303E-01 -0.78929441905E-01  0.88931839344E+00  0.88000000000E+00 0.  1.
        -11    1    4    4    0    0  0.29334093810E-01  0.17221200571E-01  0.33711760028E-01  0.47893660268E-01  0.51100000000E-03 0.  1.
         11    1    4    4    0    0  0.62992904262E-01  0.89062774168E-02  0.53006886237E-01  0.82809533717E-01  0.51100000000E-03 0. -1.
</event>
<event>
 8    1  0.1097777E+005  0.1043930E+01  0.7957747E-01            NaN
         13   -1    0    0    0    0  0.00000000000E+00  0.00000000000E+00  0.74505805969E-08  0.10566000000E+00  0.10566000000E+00 0.  1.
     999900   -1    0    0    0    0 -0.00000000000E+00 -0.00000000000E+00 -0.74505805969E-08  0.93827000000E+00  0.93827000000E+00 0. -1.
     999902    2    1    2    0    0 -0.34266180675E-02  0.11047418805E-01  0.21237565196E-01  0.10197469202E+01  0.10194601316E+01 0.  0.
     999903    2    3    3    0    0 -0.27123537131E-01  0.28435477293E-01 -0.12011012205E+00  0.12798290587E+00  0.20221773876E-01 0.  0.
         14    1    1    2    0    0  0.34266180675E-02 -0.11047418805E-01 -0.21237565196E-01  0.24183079810E-01  0.00000000000E+00 0.  1.
     999901    1    3    3    0    0  0.23696919064E-01 -0.17388058489E-01  0.14134768725E+00  0.89176401432E+00  0.88000000000E+00 0.  1.
        -11    1    4    4    0    0 -0.18825306685E-01  0.11100204186E-01 -0.39848807006E-01  0.45451020292E-01  0.51100000000E-03 0. -1.
         11    1    4    4    0    0 -0.82982304467E-02  0.17335273107E-01 -0.80261315048E-01  0.82531885575E-01  0.51100000000E-03 0.  1.
</event>
<event>
 8    1  0.1097777E+005  0.1043930E+01  0.7957747E-01            NaN
         13   -1    0    0    0    0  0.00000000000E+00  0.00000000000E+00  0.74505805969E-08  0.10566000000E+00  0.10566000000E+00 0.  1.
     999900   -1    0    0    0    0 -0.00000000000E+00 -0.00000000000E+00 -0.74505805969E-08  0.93827000000E+00  0.93827000000E+00 0.  1.
     999902    2    1    2    0    0  0.28074771951E-02 -0.18000541205E-01 -0.15068494236E-01  0.10202876454E+01  0.10200136854E+01 0.  0.
     999903    2    3    3    0    0  0.11711550653E+00 -0.45649435598E-01  0.32385252624E-01  0.13119673610E+00  0.19075275517E-01 0.  0.
         14    1    1    2    0    0 -0.28074771951E-02  0.18000541205E-01  0.15068494236E-01  0.23642354586E-01  0.00000000000E+00 0.  1.
     999901    1    3    3    0    0 -0.11430802933E+00  0.27648894393E-01 -0.47453746859E-01  0.88909090931E+00  0.88000000000E+00 0.  1.
        -11    1    4    4    0    0  0.80713180424E-01 -0.29658060390E-01  0.13029207470E-01  0.86972635975E-01  0.51100000000E-03 0.  1.
         11    1    4    4    0    0  0.36402326106E-01 -0.15991375208E-01  0.19356045153E-01  0.44224100126E-01  0.51100000000E-03 0. -1.
</event>
<event>
 8    1  0.1097777E+005  0.1043930E+01  0.7957747E-01            NaN
         13   -1    0    0    0    0  0.00000000000E+00  0.00000000000E+00  0.74505805969E-08  0.10566000000E+00  0.10566000000E+00 0. -1.
     999900   -1    0    0    0    0 -0.00000000000E+00 -0.00000000000E+00 -0.74505805969E-08  0.93827000000E+00  0.93827000000E+00 0.  1.
     999902    2    1    2    0    0 -0.23328976198E-01 -0.22738167601E-02 -0.26973482040E-02  0.10203357833E+01  0.10200629508E+01 0.  0.
     999903    2    3    3    0    0 -0.43223753863E-01 -0.41055094209E-01 -0.11611888290E+00  0.13198662101E+00  0.19571905923E-01 0.  0.
         14    1    1    2    0    0  0.23328976198E-01  0.22738167601E-02  0.26973482040E-02  0.23594216674E-01  0.00000000000E+00 0.  1.
     999901    1    3    3    0    0  0.19894777665E-01  0.38781277449E-01  0.11342153469E+00  0.88834916232E+00  0.88000000000E+00 0. -1.
        -11    1    4    4    0    0 -0.25087344891E-01 -0.17348276532E-01 -0.76664315927E-01  0.82510702517E-01  0.51100000000E-03 0.  1.
         11    1    4    4    0    0 -0.18136408972E-01 -0.23706817677E-01 -0.39454566970E-01  0.49475918491E-01  0.51100000000E-03 0. -1.
</event>
<event>
 8    1  0.1097777E+005  0.1043930E+01  0.7957747E-01            NaN
         13   -1    0    0    0    0  0.00000000000E+00  0.00000000000E+00  0.74505805969E-08  0.10566000000E+00  0.10566000000E+00 0.  1.
     999900   -1    0    0    0    0 -0.00000000000E+00 -0.00000000000E+00 -0.74505805969E-08  0.93827000000E+00  0.93827000000E+00 0. -1.
     999902    2    1    2    0    0  0.23668486287E-01 -0.34499695352E-02  0.29240647799E-02  0.10198333262E+01  0.10195486077E+01 0.  0.
     999903    2    3    3    0    0 -0.53353059781E-01  0.42183907451E-01  0.10773617843E+00  0.12910309294E+00  0.20844505987E-01 0.  0.
         14    1    1    2    0    0 -0.23668486287E-01  0.34499695352E-02 -0.29240647799E-02  0.24096673790E-01  0.00000000000E+00 0.  1.
     999901    1    3    3    0    0  0.77021546068E-01 -0.45633876986E-01 -0.10481211365E+00  0.89073023327E+00  0.88000000000E+00 0. -1.
        -11    1    4    4    0    0 -0.94310753390E-02  0.22761088342E-02  0.28470407983E-01  0.30082405243E-01  0.51100000000E-03 0. -1.
         11    1    4    4    0    0 -0.43921984442E-01  0.39907798616E-01  0.79265770444E-01  0.99020687701E-01  0.51100000000E-03 0.  1.
</event>
<event>
 8    1  0.1097777E+005  0.1043930E+01  0.7957747E-01            NaN
         13   -1    0    0    0    0  0.00000000000E+00  0.00000000000E+00  0.74505805969E-08  0.10566000000E+00  0.10566000000E+00 0. -1.
     999900   -1    0    0    0    0 -0.00000000000E+00 -0.00000000000E+00 -0.74505805969E-08  0.93827000000E+00  0.93827000000E+00 0.  1.
     999902    2    1    2    0    0  0.15170577163E-01  0.99594365914E-03  0.17727388762E-01  0.10205762288E+01  0.10203089925E+01 0.  0.
     999903    2    3    3    0    0  0.30497219611E-01 -0.12190405688E+00  0.33901897039E-01  0.13175626348E+00  0.20486455437E-01 0.  0.
         14    1    1    2    0    0 -0.15170577163E-01 -0.99594365914E-03 -0.17727388762E-01  0.23353771164E-01  0.00000000000E+00 0. -1.
     999901    1    3    3    0    0 -0.15326642448E-01  0.12290000053E+00 -0.16174508277E-01  0.88881996536E+00  0.88000000000E+00 0. -1.
        -11    1    4    4    0    0  0.14424532122E-01 -0.53186605269E-01  0.44704586679E-02  0.55291303373E-01  0.51100000000E-03 0.  1.
         11    1    4    4    0    0  0.16072687489E-01 -0.68717451607E-01  0.29431438371E-01  0.76464960106E-01  0.51100000000E-03 0. -1.
</event>
<event>
 8    1  0.1097777E+005  0.1043930E+01  0.7957747E-01            NaN
         13   -1    0    0    0    0  0.00000000000E+00  0.00000000000E+00  0.74505805969E-08  0.10566000000E+00  0.10566000000E+00 0.  1.
     999900   -1    0    0    0    0 -0.00000000000E+00 -0.00000000000E+00 -0.74505805969E-08  0.93827000000E+00  0.93827000000E+00 0.  1.
     999902    2    1    2    0    0  0.13863985431E-01  0.16574030730E-01  0.99357513516E-02  0.10201470704E+01  0.10198698042E+01 0.  0.
     999903    2    3    3    0    0  0.12030165060E+00  0.43833668643E-01 -0.27907903643E-01  0.13250738748E+00  0.19633619309E-01 0.  0.
         14    1    1    2    0    0 -0.13863985431E-01 -0.16574030730E-01 -0.99357513516E-02  0.23782929626E-01  0.00000000000E+00 0. -1.
     999901    1    3    3    0    0 -0.10643766517E+00 -0.27259637913E-01  0.37843654995E-01  0.88763968289E+00  0.88000000000E+00 0.  1.
        -11    1    4    4    0    0  0.10976542036E+00  0.34611508121E-01 -0.21435625000E-01  0.11707327253E+00  0.51100000000E-03 0. -1.
         11    1    4    4    0    0  0.10536230237E-01  0.92221605220E-02 -0.64722786430E-02  0.15434114945E-01  0.51100000000E-03 0.  1.
</event>
<event>
 8    1  0.1097777E+005  0.1043930E+01  0.7957747E-01            NaN
         13   -1    0    0    0    0  0.00000000000E+00  0.00000000000E+00  0.74505805969E-08  0.10566000000E+00  0.10566000000E+00 0. -1.
     999900   -1    0    0    0    0 -0.00000000000E+00 -0.00000000000E+00 -0.74505805969E-08  0.93827000000E+00  0.93827000000E+00 0.  1.
     999902    2    1    2    0    0 -0.31956697087E-03  0.79223031391E-02 -0.23042317740E-01  0.10195617129E+01  0.10192704611E+01 0.  0.
     999903    2    3    3    0    0  0.49118535075E-01 -0.58688521971E-01 -0.10559246568E+00  0.13181419535E+00  0.19189585451E-01 0.  0.
         14    1    1    2    0    0  0.31956697087E-03 -0.79223031391E-02  0.23042317740E-01  0.24368287115E-01  0.00000000000E+00 0. -1.
     999901    1    3    3    0    0 -0.49438102046E-01  0.66610825110E-01  0.82550147939E-01  0.88774751753E+00  0.88000000000E+00 0. -1.
        -11    1    4    4    0    0  0.24572933471E-01 -0.35037412370E-01 -0.43777870977E-01  0.61222646408E-01  0.51100000000E-03 0.  1.
         11    1    4    4    0    0  0.24545601604E-01 -0.23651109600E-01 -0.61814594702E-01  0.70591548947E-01  0.51100000000E-03 0. -1.
</event>
<event>
 8    1  0.1097777E+005  0.1043930E+01  0.7957747E-01            NaN
         13   -1    0    0    0    0  0.00000000000E+00  0.00000000000E+00  0.74505805969E-08  0.10566000000E+00  0.10566000000E+00 0. -1.
     999900   -1    0    0    0    0 -0.00000000000E+00 -0.00000000000E+00 -0.74505805969E-08  0.93827000000E+00  0.93827000000E+00 0.  1.
     999902    2    1    2    0    0 -0.23245619887E-01  0.62959906570E-02 -0.30105377600E-02  0.10196594071E+01  0.10193705140E+01 0.  0.
     999903    2    3    3    0    0  0.61456394241E-01 -0.24535976957E-01  0.10802903497E+00  0.12811309415E+00  0.19073278093E-01 0.  0.
         14    1    1    2    0    0  0.23245619887E-01 -0.62959906570E-02  0.30105377600E-02  0.24270592903E-01  0.00000000000E+00 0.  1.
     999901    1    3    3    0    0 -0.84702014128E-01  0.30831967614E-01 -0.11103957273E+00  0.89154631295E+00  0.88000000000E+00 0.  1.
        -11    1    4    4    0    0  0.22750866134E-01  0.17233799132E-03  0.31447441108E-01  0.38817963412E-01  0.51100000000E-03 0.  1.
         11    1    4    4    0    0  0.38705528107E-01 -0.24708314948E-01  0.76581593860E-01  0.89295130734E-01  0.51100000000E-03 0. -1.
</event>
<event>
 8    1  0.1097777E+005  0.1043930E+01  0.7957747E-01            NaN
         13   -1    0    0    0    0  0.00000000000E+00  0.00000000000E+00  0.74505805969E-08  0.10566000000E+00  0.10566000000E+00 0.  1.
     999900   -1    0    0    0    0 -0.00000000000E+00 -0.00000000000E+00 -0.74505805969E-08  0.93827000000E+00  0.93827000000E+00 0. -1.
     999902    2    1    2    0    0 -0.10478629091E-01 -0.17513684093E-01  0.13526278831E-01  0.10194454943E+01  0.10191514239E+01 0.  0.
     999903    2    3    3    0    0 -0.25375517036E-01 -0.16050478637E-01 -0.12380347471E+00  0.12866857533E+00  0.18076703178E-01 0.  0.
         14    1    1    2    0    0  0.10478629091E-01  0.17513684093E-01 -0.13526278831E-01  0.24484505655E-01  0.00000000000E+00 0.  1.
     999901    1    3    3    0    0  0.14896887945E-01 -0.14632054561E-02  0.13732975354E+00  0.89077691901E+00  0.88000000000E+00 0.  1.
        -11    1    4    4    0    0 -0.10291503615E-01 -0.16422731215E-01 -0.80748763565E-01  0.83043633624E-01  0.51100000000E-03 0.  1.
         11    1    4    4    0    0 -0.15084013421E-01  0.37225257824E-03 -0.43054711147E-01  0.45624941707E-01  0.51100000000E-03 0. -1.
</event>
<event>
 8    1  0.1097777E+005  0.1043930E+01  0.7957747E-01            NaN
         13   -1    0    0    0    0  0.00000000000E+00  0.00000000000E+00  0.74505805969E-08  0.10566000000E+00  0.10566000000E+00 0.  1.
     999900   -1    0    0    0    0 -0.00000000000E+00 -0.00000000000E+00 -0.74505805969E-08  0.93827000000E+00  0.93827000000E+00 0. -1.
     999902    2    1    2    0    0  0.19098460928E-01  0.75913575603E-02 -0.11798885988E-01  0.10202320332E+01  0.10199567677E+01 0.  0.
     999903    2    3    3    0    0 -0.12592533994E-01 -0.10038591204E+00  0.76654617147E-01  0.12866743537E+00  0.21058854300E-01 0.  0.
         14    1    1    2    0    0 -0.19098460928E-01 -0.75913575603E-02  0.11798885988E-01  0.23697966790E-01  0.00000000000E+00 0. -1.
     999901    1    3    3    0    0  0.31690994923E-01  0.10797726960E+00 -0.88453503135E-01  0.89156459784E+00  0.88000000000E+00 0. -1.
        -11    1    4    4    0    0 -0.16104795997E-01 -0.81924871348E-01  0.69203398304E-01  0.10844547228E+00  0.51100000000E-03 0.  1.
         11    1    4    4    0    0  0.35122620022E-02 -0.18461040696E-01  0.74512188437E-02  0.20221963090E-01  0.51100000000E-03 0. -1.
</event>
<event>
 7    1  0.1097777E+005  0.1043930E+01  0.7957747E-01            NaN
         13   -1    0    0    0    0  0.00000000000E+00  0.00000000000E+00  0.74505805969E-08  0.10566000000E+00  0.10566000000E+00 0. -1.
     999900   -1    0    0    0    0 -0.00000000000E+00 -0.00000000000E+00 -0.74505805969E-08  0.93827000000E+00  0.93827000000E+00 0. -1.
     999903    2    1    2    0    0 -0.42678378269E-01  0.10471528835E+00  0.17549461620E-01  0.11611031930E+00  0.19669444774E-01 0.  0.
         14    1    1    2    0    0  0.32113876863E-02 -0.17910001710E-01  0.36746462030E-01  0.41004678317E-01  0.00000000000E+00 0. -1.
     999901    1    1    2    0    0  0.39466990582E-01 -0.86805286641E-01 -0.54295923649E-01  0.88681500239E+00  0.88000000000E+00 0.  1.
        -11    1    3    3    0    0 -0.36986097528E-01  0.66664204226E-01  0.13428818442E-01  0.77412413870E-01  0.51100000000E-03 0.  1.
         11    1    3    3    0    0 -0.56922807407E-02  0.38051084126E-01  0.41206431771E-02  0.38697905426E-01  0.51100000000E-03 0. -1.
</event>
<event>
 8    1  0.1097777E+005  0.1043930E+01  0.7957747E-01            NaN
         13   -1    0    0    0    0  0.00000000000E+00  0.00000000000E+00  0.74505805969E-08  0.10566000000E+00  0.10566000000E+00 0.  1.
     999900   -1    0    0    0    0 -0.00000000000E+00 -0.00000000000E+00 -0.74505805969E-08  0.93827000000E+00  0.93827000000E+00 0. -1.
     999902    2    1    2    0    0 -0.19380810148E-01  0.10658872885E-01  0.54407489569E-02  0.10211521792E+01  0.10208981065E+01 0.  0.
     999903    2    3    3    0    0  0.10009323651E+00 -0.68646044767E-01 -0.37833422898E-01  0.12849548606E+00  0.18675829075E-01 0.  0.
         14    1    1    2    0    0  0.19380810148E-01 -0.10658872885E-01 -0.54407489569E-02  0.22777820843E-01  0.00000000000E+00 0. -1.
     999901    1    3    3    0    0 -0.11947404666E+00  0.79304917652E-01  0.43274171855E-01  0.89265669310E+00  0.88000000000E+00 0.  1.
        -11    1    4    4    0    0  0.45922856517E-01 -0.31113640017E-01 -0.27043863773E-01  0.61713847997E-01  0.51100000000E-03 0.  1.
         11    1    4    4    0    0  0.54170379991E-01 -0.37532404750E-01 -0.10789559125E-01  0.66781638059E-01  0.51100000000E-03 0. -1.
</event>
<event>
 8    1  0.1097777E+005  0.1043930E+01  0.7957747E-01            NaN
         13   -1    0    0    0    0  0.00000000000E+00  0.00000000000E+00  0.74505805969E-08  0.10566000000E+00  0.10566000000E+00 0. -1.
     999900   -1    0    0    0    0 -0.00000000000E+00 -0.00000000000E+00 -0.74505805969E-08  0.93827000000E+00  0.93827000000E+00 0. -1.
     999902    2    1    2    0    0 -0.21500460287E-01 -0.87450986224E-02  0.58894921129E-02  0.10199835460E+01  0.10197024083E+01 0.  0.
     999903    2    3    3    0    0  0.37984782961E-01  0.96743086371E-01 -0.71170193828E-01  0.12835332749E+00  0.24643694759E-01 0.  0.
         14    1    1    2    0    0  0.21500460287E-01  0.87450986224E-02 -0.58894921129E-02  0.23946454013E-01  0.00000000000E+00 0. -1.
     999901    1    3    3    0    0 -0.59485243248E-01 -0.10548818499E+00  0.77059685941E-01  0.89163021850E+00  0.88000000000E+00 0.  1.
        -11    1    4    4    0    0  0.10184452062E-01  0.23364911041E-01 -0.56159664436E-02  0.26104450423E-01  0.51100000000E-03 0.  1.
         11    1    4    4    0    0  0.27800330899E-01  0.73378175329E-01 -0.65554227385E-01  0.10224887707E+00  0.51100000000E-03 0. -1.
</event>
<event>
 8    1  0.1097777E+005  0.1043930E+01  0.7957747E-01            NaN
         13   -1    0    0    0    0  0.00000000000E+00  0.00000000000E+00  0.74505805969E-08  0.10566000000E+00  0.10566000000E+00 0.  1.
     999900   -1    0    0    0    0 -0.00000000000E+00 -0.00000000000E+00 -0.74505805969E-08  0.93827000000E+00  0.93827000000E+00 0. -1.
     999902    2    1    2    0    0  0.73108695308E-02  0.12526185021E-01  0.19907618594E-01  0.10192993808E+01  0.10190017469E+01 0.  0.
     999903    2    3    3    0    0  0.71442540908E-01 -0.51034529419E-01  0.95741237676E-01  0.13143476641E+00  0.20003834244E-01 0.  0.
         14    1    1    2    0    0 -0.73108695308E-02 -0.12526185021E-01 -0.19907618594E-01  0.24630619208E-01  0.00000000000E+00 0. -1.
     999901    1    3    3    0    0 -0.64131671377E-01  0.63560714440E-01 -0.75833619082E-01  0.88786461438E+00  0.88000000000E+00 0. -1.
        -11    1    4    4    0    0  0.17002180226E-01 -0.23025095231E-01  0.26535778705E-01  0.39033803495E-01  0.51100000000E-03 0. -1.
         11    1    4    4    0    0  0.54440360682E-01 -0.28009434188E-01  0.69205458971E-01  0.92400962912E-01  0.51100000000E-03 0.  1.
</event>
<event>
 8    1  0.1097777E+005  0.1043930E+01  0.7957747E-01            NaN
         13   -1    0    0    0    0  0.00000000000E+00  0.00000000000E+00  0.74505805969E-08  0.10566000000E+00  0.10566000000E+00 0. -1.
     999900   -1    0    0    0    0 -0.00000000000E+00 -0.00000000000E+00 -0.74505805969E-08  0.93827000000E+00  0.93827000000E+00 0. -1.
     999902    2    1    2    0    0  0.18343152209E-01  0.87543373025E-02  0.15368247944E-01  0.10184487775E+01  0.10181299621E+01 0.  0.
     999903    2    3    3    0    0 -0.37184464851E-01  0.80858874774E-03 -0.11919732501E+00  0.12645418975E+00  0.19983032167E-01 0.  0.
         14    1    1    2    0    0 -0.18343152209E-01 -0.87543373025E-02 -0.15368247944E-01  0.25481222487E-01  0.00000000000E+00 0.  1.
     999901    1    3    3    0    0  0.55527617059E-01  0.79457485548E-02  0.13456557295E+00  0.89199458776E+00  0.88000000000E+00 0.  1.
        -11    1    4    4    0    0  0.23905594941E-02  0.90437886856E-03 -0.61839349398E-02  0.67108008592E-02  0.51100000000E-03 0. -1.
         11    1    4    4    0    0 -0.39575024345E-01 -0.95790120828E-04 -0.11301339007E+00  0.11974338889E+00  0.51100000000E-03 0.  1.
</event>
<event>
 8    1  0.1097777E+005  0.1043930E+01  0.7957747E-01            NaN
         13   -1    0    0    0    0  0.00000000000E+00  0.00000000000E+00  0.74505805969E-08  0.10566000000E+00  0.10566000000E+00 0. -1.
     999900   -1    0    0    0    0 -0.00000000000E+00 -0.00000000000E+00 -0.74505805969E-08  0.93827000000E+00  0.93827000000E+00 0. -1.
     999902    2    1    2    0    0  0.31773129667E-03 -0.22167679235E-01 -0.84772783009E-02  0.10201945581E+01  0.10199184110E+01 0.  0.
     999903    2    3    3    0    0  0.57537178821E-01 -0.86413785687E-01 -0.80867247090E-01  0.13304071857E+00  0.19556376014E-01 0.  0.
         14    1    1    2    0    0 -0.31773129667E-03  0.22167679235E-01  0.84772783009E-02  0.23735441922E-01  0.00000000000E+00 0.  1.
     999901    1    3    3    0    0 -0.57219447524E-01  0.64246106453E-01  0.72389968789E-01  0.88715383951E+00  0.88000000000E+00 0.  1.
        -11    1    4    4    0    0  0.42470074393E-01 -0.67022442937E-01 -0.50798229602E-01  0.94214841336E-01  0.51100000000E-03 0. -1.
         11    1    4    4    0    0  0.15067104428E-01 -0.19391342750E-01 -0.30069017488E-01  0.38825877236E-01  0.51100000000E-03 0.  1.
</event>
<event>
 8    1  0.1097777E+005  0.1043930E+01  0.7957747E-01            NaN
         13   -1    0    0    0    0  0.00000000000E+00  0.00000000000E+00  0.74505805969E-08  0.10566000000E+00  0.10566000000E+00 0.  1.
     999900   -1    0    0    0    0 -0.00000000000E+00 -0.00000000000E+00 -0.74505805969E-08  0.93827000000E+00  0.93827000000E+00 0. -1.
     999902    2    1    2    0    0 -0.77552660481E-02 -0.31772822575E-02 -0.29886724496E-01  0.10128904192E+01  0.10124147104E+01 0.  0.
     999903    2    3    3    0    0  0.10020765211E+00  0.48582939664E-01 -0.53267964706E-01  0.12447509142E+00  0.15959221553E-01 0.  0.
         14    1    1    2    0    0  0.77552660481E-02  0.31772822575E-02  0.29886724496E-01  0.31039580782E-01  0.00000000000E+00 0.  1.
     999901    1    3    3    0    0 -0.10796291816E+00 -0.51760221921E-01  0.23381240211E-01  0.88841532780E+00  0.88000000000E+00 0.  1.
        -11    1    4    4    0    0  0.70849433761E-01  0.30713379201E-01 -0.29404652626E-01  0.82630797184E-01  0.51100000000E-03 0.  1.
         11    1    4    4    0    0  0.29358218349E-01  0.17869560463E-01 -0.23863312081E-01  0.41844294237E-01  0.51100000000E-03 0. -1.
</event>
<event>
 8    1  0.1097777E+005  0.1043930E+01  0.7957747E-01            NaN
         13   -1    0    0    0    0  0.00000000000E+00  0.00000000000E+00  0.74505805969E-08  0.10566000000E+00  0.10566000000E+00 0. -1.
     999900   -1    0    0    0    0 -0.00000000000E+00 -0.00000000000E+00 -0.74505805969E-08  0.93827000000E+00  0.93827000000E+00 0. -1.
     999902    2    1    2    0    0 -0.11703921689E-01 -0.10593781023E-01  0.16213820911E-01  0.10213004183E+01  0.10210496787E+01 0.  0.
     999903    2    3    3    0    0  0.33179047895E-01 -0.10006180037E+00 -0.75339617582E-01  0.13090666296E+00  0.18635539104E-01 0.  0.
         14    1    1    2    0    0  0.11703921689E-01  0.10593781023E-01 -0.16213820911E-01  0.22629581697E-01  0.00000000000E+00 0.  1.
     999901    1    3    3    0    0 -0.44882969583E-01  0.89468019352E-01  0.91553438493E-01  0.89039375534E+00  0.88000000000E+00 0. -1.
        -11    1    4    4    0    0  0.11387388770E-01 -0.13729699017E-01 -0.99234406222E-02  0.20418448836E-01  0.51100000000E-03 0.  1.
         11    1    4    4    0    0  0.21791659125E-01 -0.86332101358E-01 -0.65416176960E-01  0.11048821413E+00  0.51100000000E-03 0. -1.
</event>
<event>
 8    1  0.1097777E+005  0.1043930E+01  0.7957747E-01            NaN
         13   -1    0    0    0    0  0.00000000000E+00  0.00000000000E+00  0.74505805969E-08  0.10566000000E+00  0.10566000000E+00 0. -1.
     999900   -1    0    0    0    0 -0.00000000000E+00 -0.00000000000E+00 -0.74505805969E-08  0.93827000000E+00  0.93827000000E+00 0. -1.
     999902    2    1    2    0    0 -0.11196163895E-01 -0.18727384319E-01  0.20848861784E-01  0.10137514638E+01  0.10133021693E+01 0.  0.
     999903    2    3    3    0    0  0.84664304008E-01  0.55281253877E-02 -0.85209469393E-01  0.12188492184E+00  0.19916725494E-01 0.  0.
         14    1    1    2    0    0  0.11196163895E-01  0.18727384319E-01 -0.20848861784E-01  0.30178536199E-01  0.00000000000E+00 0.  1.
     999901    1    3    3    0    0 -0.95860467903E-01 -0.24255509707E-01  0.10605833118E+00  0.89186654196E+00  0.88000000000E+00 0.  1.
        -11    1    4    4    0    0  0.19027460694E-01 -0.40933604655E-02 -0.11065115335E-01  0.22394145636E-01  0.51100000000E-03 0. -1.
         11    1    4    4    0    0  0.65636843313E-01  0.96214858532E-02 -0.74144354057E-01  0.99490776204E-01  0.51100000000E-03 0.  1.
</event>
<event>
 8    1  0.1097777E+005  0.1043930E+01  0.7957747E-01            NaN
         13   -1    0    0    0    0  0.00000000000E+00  0.00000000000E+00  0.74505805969E-08  0.10566000000E+00  0.10566000000E+00 0. -1.
     999900   -1    0    0    0    0 -0.00000000000E+00 -0.00000000000E+00 -0.74505805969E-08  0.93827000000E+00  0.93827000000E+00 0.  1.
     999902    2    1    2    0    0 -0.15321000558E-01 -0.17610363205E-01 -0.12642680187E-02  0.10205535947E+01  0.10202858342E+01 0.  0.
     999903    2    3    3    0    0 -0.86800280358E-01  0.78708836636E-02  0.97163165059E-01  0.13182048463E+00  0.18431495985E-01 0.  0.
         14    1    1    2    0    0  0.15321000558E-01  0.17610363205E-01  0.12642680187E-02  0.23376405282E-01  0.00000000000E+00 0.  1.
     999901    1    3    3    0    0  0.71479279800E-01 -0.25481246868E-01 -0.98427433078E-01  0.88873311009E+00  0.88000000000E+00 0. -1.
        -11    1    4    4    0    0 -0.73776077286E-01  0.13187246225E-01  0.79986918968E-01  0.10961287046E+00  0.51100000000E-03 0.  1.
         11    1    4    4    0    0 -0.13024203072E-01 -0.53163625618E-02  0.17176246091E-01  0.22207614174E-01  0.51100000000E-03 0. -1.
</event>
<event>
 8    1  0.1097777E+005  0.1043930E+01  0.7957747E-01            NaN
         13   -1    0    0    0    0  0.00000000000E+00  0.00000000000E+00  0.74505805969E-08  0.10566000000E+00  0.10566000000E+00 0.  1.
     999900   -1    0    0    0    0 -0.00000000000E+00 -0.00000000000E+00 -0.74505805969E-08  0.93827000000E+00  0.93827000000E+00 0.  1.
     999902    2    1    2    0    0  0.11266368929E-01 -0.16906677265E-01  0.33079663005E-02  0.10233457962E+01  0.10231387536E+01 0.  0.
     999903    2    3    3    0    0  0.46305351362E-01 -0.23318373160E-01  0.12267961789E+00  0.13457224161E+00  0.19273491506E-01 0.  0.
         14    1    1    2    0    0 -0.11266368929E-01  0.16906677265E-01 -0.33079663005E-02  0.20584203799E-01  0.00000000000E+00 0.  1.
     999901    1    3    3    0    0 -0.35038982433E-01  0.64116958953E-02 -0.11937165159E+00  0.88877355459E+00  0.88000000000E+00 0.  1.
        -11    1    4    4    0    0  0.15883241346E-01 -0.92659486223E-03  0.52636111081E-01  0.54990519587E-01  0.51100000000E-03 0.  1.
         11    1    4    4    0    0  0.30422110016E-01 -0.22391778298E-01  0.70043506810E-01  0.79581722025E-01  0.51100000000E-03 0. -1.
</event>
<event>
 8    1  0.1097777E+005  0.1043930E+01  0.7957747E-01            NaN
         13   -1    0    0    0    0  0.00000000000E+00  0.00000000000E+00  0.74505805969E-08  0.10566000000E+00  0.10566000000E+00 0.  1.
     999900   -1    0    0    0    0 -0.00000000000E+00 -0.00000000000E+00 -0.74505805969E-08  0.93827000000E+00  0.93827000000E+00 0. -1.
     999902    2    1    2    0    0  0.13426291403E-01 -0.18394513549E-01 -0.68982266601E-02  0.10201348543E+01  0.10198572998E+01 0.  0.
     999903    2    3    3    0    0  0.36200975058E-01 -0.12381077976E+00 -0.27311643543E-01  0.13331582933E+00  0.19686662931E-01 0.  0.
         14    1    1    2    0    0 -0.13426291403E-01  0.18394513549E-01  0.68982266601E-02  0.23795145736E-01  0.00000000000E+00 0.  1.
     999901    1    3    3    0    0 -0.22774683654E-01  0.10541626621E+00  0.20413416883E-01  0.88681902493E+00  0.88000000000E+00 0.  1.
        -11    1    4    4    0    0  0.13919891684E-01 -0.23059400165E-01 -0.97215152108E-02  0.28640326455E-01  0.51100000000E-03 0. -1.
         11    1    4    4    0    0  0.22281083373E-01 -0.10075137959E+00 -0.17590128332E-01  0.10467550287E+00  0.51100000000E-03 0.  1.
</event>
<event>
 8    1  0.1097777E+005  0.1043930E+01  0.7957747E-01            NaN
         13   -1    0    0    0    0  0.00000000000E+00  0.00000000000E+00  0.74505805969E-08  0.10566000000E+00  0.10566000000E+00 0.  1.
     999900   -1    0    0    0    0 -0.00000000000E+00 -0.00000000000E+00 -0.74505805969E-08  0.93827000000E+00  0.93827000000E+00 0. -1.
     999902    2    1    2    0    0  0.23346833691E-01  0.38595060079E-02 -0.28652208024E-03  0.10202645711E+01  0.10199900698E+01 0.  0.
     999903    2    3    3    0    0 -0.40356017177E-01 -0.36722051686E-01  0.11573112105E+00  0.12944191224E+00  0.19606097565E-01 0.  0.
         14    1    1    2    0    0 -0.23346833691E-01 -0.38595060079E-02  0.28652208024E-03  0.23665428898E-01  0.00000000000E+00 0. -1.
     999901    1    3    3    0    0  0.63702850868E-01  0.40581557693E-01 -0.11601764313E+00  0.89082265887E+00  0.88000000000E+00 0. -1.
        -11    1    4    4    0    0 -0.21932999644E-01 -0.95464770536E-02  0.62193969763E-01  0.66637397109E-01  0.51100000000E-03 0.  1.
         11    1    4    4    0    0 -0.18423017533E-01 -0.27175574632E-01  0.53537151285E-01  0.62804515126E-01  0.51100000000E-03 0. -1.
</event>
<event>
 8    1  0.1150167E+005  0.1043930E+01  0.7957747E-01            NaN
         13   -1    0    0    0    0  0.00000000000E+00  0.00000000000E+00  0.74505805969E-08  0.10566000000E+00  0.10566000000E+00 0.  1.
     999900   -1    0    0    0    0 -0.00000000000E+00 -0.00000000000E+00 -0.74505805969E-08  0.93827000000E+00  0.93827000000E+00 0. -1.
     999902    2    1    2    0    0 -0.14916956584E-01  0.12169406287E-01 -0.14151681263E-01  0.10200369021E+01  0.10197570307E+01 0.  0.
     999903    2    3    3    0    0  0.76531211461E-01 -0.46640756639E-01  0.88643641892E-01  0.12740692215E+00  0.18505189985E-01 0.  0.
         14    1    1    2    0    0  0.14916956584E-01 -0.12169406287E-01  0.14151681263E-01  0.23893097867E-01  0.00000000000E+00 0.  1.
     999901    1    3    3    0    0 -0.91448168044E-01  0.58810162926E-01 -0.10279532315E+00  0.89262997998E+00  0.88000000000E+00 0. -1.
        -11    1    4    4    0    0  0.34521318523E-01 -0.12107280593E-01  0.42552192682E-01  0.56118249251E-01  0.51100000000E-03 0.  1.
         11    1    4    4    0    0  0.42009892938E-01 -0.34533476046E-01  0.46091449210E-01  0.71288672899E-01  0.51100000000E-03 0. -1.
</event>
<event>
 8    1  0.1097777E+005  0.1043930E+01  0.7957747E-01            NaN
         13   -1    0    0    0    0  0.00000000000E+00  0.00000000000E+00  0.74505805969E-08  0.10566000000E+00  0.10566000000E+00 0. -1.
     999900   -1    0    0    0    0 -0.00000000000E+00 -0.00000000000E+00 -0.74505805969E-08  0.93827000000E+00  0.93827000000E+00 0.  1.
     999902    2    1    2    0    0 -0.79521973399E-03 -0.18716790488E-01  0.10521665394E-01  0.10224438169E+01  0.10222180309E+01 0.  0.
     999903    2    3    3    0    0  0.11146455617E-01  0.10386463007E+00  0.72872501783E-01  0.13168210071E+00  0.33431561116E-01 0.  0.
         14    1    1    2    0    0  0.79521973399E-03  0.18716790488E-01 -0.10521665394E-01  0.21486183078E-01  0.00000000000E+00 0.  1.
     999901    1    3    3    0    0 -0.11941675351E-01 -0.12258142056E+00 -0.62350836389E-01  0.89076171621E+00  0.88000000000E+00 0. -1.
        -11    1    4    4    0    0  0.17023936263E-01  0.23300770410E-01  0.20741139223E-01  0.35541472744E-01  0.51100000000E-03 0. -1.
         11    1    4    4    0    0 -0.58774806462E-02  0.80563859658E-01  0.52131362560E-01  0.96140627963E-01  0.51100000000E-03 0.  1.
</event>
<event>
 8    1  0.1097777E+005  0.1043930E+01  0.7957747E-01            NaN
         13   -1    0    0    0    0  0.00000000000E+00  0.00000000000E+00  0.74505805969E-08  0.10566000000E+00  0.10566000000E+00 0.  1.
     999900   -1    0    0    0    0 -0.00000000000E+00 -0.00000000000E+00 -0.74505805969E-08  0.93827000000E+00  0.93827000000E+00 0.  1.
     999902    2    1    2    0    0 -0.11080267989E-01  0.14352855174E-01 -0.15690724538E-01  0.10199513506E+01  0.10196694474E+01 0.  0.
     999903    2    3    3    0    0 -0.18208804583E-01  0.53866868660E-01  0.11455924625E+00  0.12945866215E+00  0.20063005785E-01 0.  0.
         14    1    1    2    0    0  0.11080267989E-01 -0.14352855174E-01  0.15690724538E-01  0.23978649397E-01  0.00000000000E+00 0.  1.
     999901    1    3    3    0    0  0.71285365934E-02 -0.39514013486E-01 -0.13024997079E+00  0.89049268845E+00  0.88000000000E+00 0.  1.
        -11    1    4    4    0    0 -0.10955508403E-01  0.35630932723E-01  0.93548005521E-01  0.10070291450E+00  0.51100000000E-03 0.  1.
         11    1    4    4    0    0 -0.72532961798E-02  0.18235935936E-01  0.21011240729E-01  0.28755747650E-01  0.51100000000E-03 0. -1.
</event>
<event>
 8    1  0.1097777E+005  0.1043930E+01  0.7957747E-01            NaN
         13   -1    0    0    0    0  0.00000000000E+00  0.00000000000E+00  0.74505805969E-08  0.10566000000E+00  0.10566000000E+00 0.  1.
     999900   -1    0    0    0    0 -0.00000000000E+00 -0.00000000000E+00 -0.74505805969E-08  0.93827000000E+00  0.93827000000E+00 0. -1.
     999902    2    1    2    0    0  0.12050483181E-01  0.61291293398E-02 -0.19293904169E-01  0.10203708169E+01  0.10200988035E+01 0.  0.
     999903    2    3    3    0    0 -0.70141066077E-01 -0.17299471245E-01 -0.10805449739E+00  0.13178610341E+00  0.21743086034E-01 0.  0.
         14    1    1    2    0    0 -0.12050483181E-01 -0.61291293398E-02  0.19293904169E-01  0.23559183124E-01  0.00000000000E+00 0.  1.
     999901    1    3    3    0    0  0.82191549258E-01  0.23428600585E-01  0.88760593220E-01  0.88858471347E+00  0.88000000000E+00 0.  1.
        -11    1    4    4    0    0 -0.23160663175E-01 -0.32803213173E-03 -0.50597169771E-01  0.55649426175E-01  0.51100000000E-03 0. -1.
         11    1    4    4    0    0 -0.46980402903E-01 -0.16971439113E-01 -0.57457327619E-01  0.76136677237E-01  0.51100000000E-03 0.  1.
</event>
<event>
 8    1  0.1097777E+005  0.1043930E+01  0.7957747E-01            NaN
         13   -1    0    0    0    0  0.00000000000E+00  0.00000000000E+00  0.74505805969E-08  0.10566000000E+00  0.10566000000E+00 0. -1.
     999900   -1    0    0    0    0 -0.00000000000E+00 -0.00000000000E+00 -0.74505805969E-08  0.93827000000E+00  0.93827000000E+00 0. -1.
     999902    2    1    2    0    0 -0.16903040113E-01 -0.11861646438E-01  0.12430045304E-01  0.10198277709E+01  0.10195429196E+01 0.  0.
     999903    2    3    3    0    0 -0.14036840859E-01  0.25144942778E-02 -0.12625028666E+00  0.12884678177E+00  0.21424348494E-01 0.  0.
         14    1    1    2    0    0  0.16903040113E-01  0.11861646438E-01 -0.12430045304E-01  0.24102229099E-01  0.00000000000E+00 0.  1.
     999901    1    3    3    0    0 -0.28661992545E-02 -0.14376140715E-01  0.13868033196E+00  0.89098098913E+00  0.88000000000E+00 0.  1.
        -11    1    4    4    0    0 -0.12473283513E-01 -0.42938082709E-02 -0.36332003958E-01  0.38656114958E-01  0.51100000000E-03 0. -1.
         11    1    4    4    0    0 -0.15635573459E-02  0.68083025487E-02 -0.89918282700E-01  0.90190666811E-01  0.51100000000E-03 0.  1.
</event>
<event>
 8    1  0.1097777E+005  0.1043930E+01  0.7957747E-01            NaN
         13   -1    0    0    0    0  0.00000000000E+00  0.00000000000E+00  0.74505805969E-08  0.10566000000E+00  0.10566000000E+00 0.  1.
     999900   -1    0    0    0    0 -0.00000000000E+00 -0.00000000000E+00 -0.74505805969E-08  0.93827000000E+00  0.93827000000E+00 0. -1.
     999902    2    1    2    0    0 -0.14046102552E-01 -0.19882687614E-01  0.12416157095E-02  0.10195546872E+01  0.10192632655E+01 0.  0.
     999903    2    3    3    0    0  0.10610285726E+00 -0.71697625135E-01 -0.10124345970E-01  0.12980767521E+00  0.18685941023E-01 0.  0.
         14    1    1    2    0    0  0.14046102552E-01  0.19882687614E-01 -0.12416157095E-02  0.24375312782E-01  0.00000000000E+00 0. -1.
     999901    1    3    3    0    0 -0.12014895982E+00  0.51814937522E-01  0.11365961679E-01  0.88974701201E+00  0.88000000000E+00 0.  1.
        -11    1    4    4    0    0  0.70111931391E-01 -0.57044920690E-01 -0.41051329137E-02  0.90481595572E-01  0.51100000000E-03 0. -1.
         11    1    4    4    0    0  0.35990925873E-01 -0.14652704445E-01 -0.60192130560E-02  0.39326079636E-01  0.51100000000E-03 0.  1.
</event>
<event>
 8    1  0.1097777E+005  0.1043930E+01  0.7957747E-01            NaN
         13   -1    0    0    0    0  0.00000000000E+00  0.00000000000E+00  0.74505805969E-08  0.10566000000E+00  0.10566000000E+00 0. -1.
     999900   -1    0    0    0    0 -0.00000000000E+00 -0.00000000000E+00 -0.74505805969E-08  0.93827000000E+00  0.93827000000E+00 0. -1.
     999902    2    1    2    0    0 -0.10611374723E-01 -0.18130290563E-01 -0.10803369276E-01  0.10203075214E+01  0.10200340272E+01 0.  0.
     999903    2    3    3    0    0 -0.11661598288E+00 -0.38395904822E-01 -0.45401967811E-01  0.13303939103E+00  0.23761479628E-01 0.  0.
         14    1    1    2    0    0  0.10611374723E-01  0.18130290563E-01  0.10803369276E-01  0.23622478641E-01  0.00000000000E+00 0. -1.
     999901    1    3    3    0    0  0.10600460816E+00  0.20265614259E-01  0.34598598535E-01  0.88726813033E+00  0.88000000000E+00 0.  1.
        -11    1    4    4    0    0 -0.64376283783E-01 -0.87111021827E-02 -0.23369629866E-01  0.69040494900E-01  0.51100000000E-03 0.  1.
         11    1    4    4    0    0 -0.52239699101E-01 -0.29684802639E-01 -0.22032337945E-01  0.63998896133E-01  0.51100000000E-03 0. -1.
</event>
<event>
 8    1  0.1097777E+005  0.1043930E+01  0.7957747E-01            NaN
         13   -1    0    0    0    0  0.00000000000E+00  0.00000000000E+00  0.74505805969E-08  0.10566000000E+00  0.10566000000E+00 0. -1.
     999900   -1    0    0    0    0 -0.00000000000E+00 -0.00000000000E+00 -0.74505805969E-08  0.93827000000E+00  0.93827000000E+00 0. -1.
     999902    2    1    2    0    0  0.36304053337E-02 -0.10892067611E-01  0.24961412663E-01  0.10164547547E+01  0.10160833526E+01 0.  0.
     999903    2    3    3    0    0 -0.39176911687E-01  0.11281043945E+00 -0.31006331663E-01  0.12501369385E+00  0.20149575368E-01 0.  0.
         14    1    1    2    0    0 -0.36304053337E-02  0.10892067611E-01 -0.24961412663E-01  0.27475245255E-01  0.00000000000E+00 0.  1.
     999901    1    3    3    0    0  0.42807317021E-01 -0.12370250707E+00  0.55967744325E-01  0.89144106089E+00  0.88000000000E+00 0. -1.
        -11    1    4    4    0    0 -0.16604199090E-01  0.22400849531E-01 -0.59192523213E-02  0.28509580077E-01  0.51100000000E-03 0. -1.
         11    1    4    4    0    0 -0.22572712597E-01  0.90409589924E-01 -0.25087079341E-01  0.96504113773E-01  0.51100000000E-03 0.  1.
</event>
<event>
 8    1  0.1097777E+005  0.1043930E+01  0.7957747E-01            NaN
         13   -1    0    0    0    0  0.00000000000E+00  0.00000000000E+00  0.74505805969E-08  0.10566000000E+00  0.10566000000E+00 0. -1.
     999900   -1    0    0    0    0 -0.00000000000E+00 -0.00000000000E+00 -0.74505805969E-08  0.93827000000E+00  0.93827000000E+00 0. -1.
     999902    2    1    2    0    0 -0.14080353244E-01  0.65102979783E-02 -0.17898104532E-01  0.10202449314E+01  0.10199699690E+01 0.  0.
     999903    2    3    3    0    0 -0.11620135616E+00 -0.56118259431E-01 -0.19868924978E-01  0.13212617835E+00  0.20261752404E-01 0.  0.
         14    1    1    2    0    0  0.14080353244E-01 -0.65102979783E-02  0.17898104532E-01  0.23685068568E-01  0.00000000000E+00 0. -1.
     999901    1    3    3    0    0  0.10212100292E+00  0.62628557409E-01  0.19708204459E-02  0.88811875308E+00  0.88000000000E+00 0. -1.
        -11    1    4    4    0    0 -0.11697929944E-01 -0.13201572209E-01 -0.23369228558E-02  0.17800151775E-01  0.51100000000E-03 0.  1.
         11    1    4    4    0    0 -0.10450342622E+00 -0.42916687222E-01 -0.17532002122E-01  0.11432602658E+00  0.51100000000E-03 0. -1.
</event>
<event>
 8    1  0.1097777E+005  0.1043930E+01  0.7957747E-01            NaN
         13   -1    0    0    0    0  0.00000000000E+00  0.00000000000E+00  0.74505805969E-08  0.10566000000E+00  0.10566000000E+00 0.  1.
     999900   -1    0    0    0    0 -0.00000000000E+00 -0.00000000000E+00 -0.74505805969E-08  0.93827000000E+00  0.93827000000E+00 0.  1.
     999902    2    1    2    0    0 -0.15409207301E-01  0.12376245128E-01  0.62695443942E-02  0.10231954322E+01  0.10229853226E+01 0.  0.
     999903    2    3    3    0    0 -0.91915661613E-01  0.57093515919E-01  0.79328162487E-01  0.13573251272E+00  0.20547487322E-01 0.  0.
         14    1    1    2    0    0  0.15409207301E-01 -0.12376245128E-01 -0.62695443942E-02  0.20734567756E-01  0.00000000000E+00 0. -1.
     999901    1    3    3    0    0  0.76506454312E-01 -0.44717270791E-01 -0.73058618092E-01  0.88746291953E+00  0.88000000000E+00 0.  1.
        -11    1    4    4    0    0 -0.47563553826E-01  0.22707547933E-01  0.28031253270E-01  0.59698715787E-01  0.51100000000E-03 0.  1.
         11    1    4    4    0    0 -0.44352107787E-01  0.34385967985E-01  0.51296909217E-01  0.76033796930E-01  0.51100000000E-03 0. -1.
</event>
<event>
 8    1  0.1097777E+005  0.1043930E+01  0.7957747E-01            NaN
         13   -1    0    0    0    0  0.00000000000E+00  0.00000000000E+00  0.74505805969E-08  0.10566000000E+00  0.10566000000E+00 0. -1.
     999900   -1    0    0    0    0 -0.00000000000E+00 -0.00000000000E+00 -0.74505805969E-08  0.93827000000E+00  0.93827000000E+00 0. -1.
     999902    2    1    2    0    0  0.17519029642E-01 -0.10672913551E-01 -0.10305229761E-01  0.10209729696E+01  0.10207148375E+01 0.  0.
     999903    2    3    3    0    0  0.66368006266E-02 -0.13079512358E+00  0.15262592942E-02  0.13266685550E+00  0.21136546730E-01 0.  0.
         14    1    1    2    0    0 -0.17519029642E-01  0.10672913551E-01  0.10305229761E-01  0.22957030376E-01  0.00000000000E+00 0. -1.
     999901    1    3    3    0    0  0.10882229016E-01  0.12012221003E+00 -0.11831489055E-01  0.88830611412E+00  0.88000000000E+00 0. -1.
        -11    1    4    4    0    0  0.10582581848E-01 -0.88048603634E-01  0.88167197562E-02  0.89120947642E-01  0.51100000000E-03 0. -1.
         11    1    4    4    0    0 -0.39457812212E-02 -0.42746519943E-01 -0.72904604620E-02  0.43545907861E-01  0.51100000000E-03 0.  1.
</event>
<event>
 8    1  0.1097777E+005  0.1043930E+01  0.7957747E-01            NaN
         13   -1    0    0    0    0  0.00000000000E+00  0.00000000000E+00  0.74505805969E-08  0.10566000000E+00  0.10566000000E+00 0.  1.
     999900   -1    0    0    0    0 -0.00000000000E+00 -0.00000000000E+00 -0.74505805969E-08  0.93827000000E+00  0.93827000000E+00 0. -1.
     999902    2    1    2    0    0  0.20723064511E-01 -0.93020919484E-02  0.86038794413E-02  0.10196400626E+01  0.10193507032E+01 0.  0.
     999903    2    3    3    0    0 -0.78244385076E-01 -0.79203881005E-01 -0.61130023434E-01  0.12860491548E+00  0.20171910155E-01 0.  0.
         14    1    1    2    0    0 -0.20723064511E-01  0.93020919484E-02 -0.86038794413E-02  0.24289937398E-01  0.00000000000E+00 0.  1.
     999901    1    3    3    0    0  0.98967449587E-01  0.69901789056E-01  0.69733902876E-01  0.89103514712E+00  0.88000000000E+00 0. -1.
        -11    1    4    4    0    0 -0.18068148984E-01 -0.94064244888E-02 -0.16445658872E-01  0.26185103515E-01  0.51100000000E-03 0.  1.
         11    1    4    4    0    0 -0.60176236092E-01 -0.69797456516E-01 -0.44684364563E-01  0.10241981197E+00  0.51100000000E-03 0. -1.
</event>
<event>
 8    1  0.1097777E+005  0.1043930E+01  0.7957747E-01            NaN
         13   -1    0    0    0    0  0.00000000000E+00  0.00000000000E+00  0.74505805969E-08  0.10566000000E+00  0.10566000000E+00 0. -1.
     999900   -1    0    0    0    0 -0.00000000000E+00 -0.00000000000E+00 -0.74505805969E-08  0.93827000000E+00  0.93827000000E+00 0. -1.
     999902    2    1    2    0    0 -0.13402372569E-01 -0.12553463428E-02  0.19841862225E-01  0.10199529489E+01  0.10196710837E+01 0.  0.
     999903    2    3    3    0    0  0.53762229731E-01 -0.10297271418E+00 -0.50807433100E-01  0.12874655882E+00  0.22372392315E-01 0.  0.
         14    1    1    2    0    0  0.13402372569E-01  0.12553463428E-02 -0.19841862225E-01  0.23977051143E-01  0.00000000000E+00 0.  1.
     999901    1    3    3    0    0 -0.67164602300E-01  0.10171736783E+00  0.70649295325E-01  0.89120639004E+00  0.88000000000E+00 0.  1.
        -11    1    4    4    0    0  0.49124443179E-01 -0.90918766198E-01 -0.52143008452E-01  0.11575226743E+00  0.51100000000E-03 0.  1.
         11    1    4    4    0    0  0.46377865525E-02 -0.12053947979E-01  0.13355753522E-02  0.12994291382E-01  0.51100000000E-03 0. -1.
</event>
<event>
 8    1  0.1097777E+005  0.1043930E+01  0.7957747E-01            NaN
         13   -1    0    0    0    0  0.00000000000E+00  0.00000000000E+00  0.74505805969E-08  0.10566000000E+00  0.10566000000E+00 0.  1.
     999900   -1    0    0    0    0 -0.00000000000E+00 -0.00000000000E+00 -0.74505805969E-08  0.93827000000E+00  0.93827000000E+00 0.  1.
     999902    2    1    2    0    0  0.90277365369E-03  0.19434024858E-01  0.14785854278E-01  0.10194940059E+01  0.10192011137E+01 0.  0.
     999903    2    3    3    0    0  0.84021277449E-01  0.91792191869E-01  0.39920927457E-01  0.13226451926E+00  0.20367647229E-01 0.  0.
         14    1    1    2    0    0 -0.90277365369E-03 -0.19434024858E-01 -0.14785854278E-01  0.24435994131E-01  0.00000000000E+00 0. -1.
     999901    1    3    3    0    0 -0.83118503795E-01 -0.72358167011E-01 -0.25135073180E-01  0.88722948661E+00  0.88000000000E+00 0.  1.
        -11    1    4    4    0    0  0.30292206024E-01  0.24709433613E-01  0.46904465183E-02  0.39375566851E-01  0.51100000000E-03 0. -1.
         11    1    4    4    0    0  0.53729071425E-01  0.67082758256E-01  0.35230480939E-01  0.92888952409E-01  0.51100000000E-03 0.  1.
</event>
<event>
 8    1  0.1097777E+005  0.1043930E+01  0.7957747E-01            NaN
         13   -1    0    0    0    0  0.00000000000E+00  0.00000000000E+00  0.74505805969E-08  0.10566000000E+00  0.10566000000E+00 0. -1.
     999900   -1    0    0    0    0 -0.00000000000E+00 -0.00000000000E+00 -0.74505805969E-08  0.93827000000E+00  0.93827000000E+00 0. -1.
     999902    2    1    2    0    0 -0.10034700258E-01  0.56579385112E-02 -0.21042483254E-01  0.10199405528E+01  0.10196583926E+01 0.  0.
     999903    2    3    3    0    0 -0.53870524570E-01 -0.59289460215E-01  0.98288978543E-01  0.12843635093E+00  0.20442588592E-01 0.  0.
         14    1    1    2    0    0  0.10034700258E-01 -0.56579385112E-02  0.21042483254E-01  0.23989447242E-01  0.00000000000E+00 0. -1.
     999901    1    3    3    0    0  0.43835824311E-01  0.64947398726E-01 -0.11933146180E+00  0.89150420182E+00  0.88000000000E+00 0. -1.
        -11    1    4    4    0    0 -0.14581520885E-01 -0.26039244926E-01  0.47671658727E-01  0.56245099293E-01  0.51100000000E-03 0.  1.
         11    1    4    4    0    0 -0.39289003685E-01 -0.33250215289E-01  0.50617319816E-01  0.72191251642E-01  0.51100000000E-03 0. -1.
</event>
<event>
 8    1  0.1097777E+005  0.1043930E+01  0.7957747E-01            NaN
         13   -1    0    0    0    0  0.00000000000E+00  0.00000000000E+00  0.74505805969E-08  0.10566000000E+00  0.10566000000E+00 0. -1.
     999900   -1    0    0    0    0 -0.00000000000E+00 -0.00000000000E+00 -0.74505805969E-08  0.93827000000E+00  0.93827000000E+00 0. -1.
     999902    2    1    2    0    0 -0.62279010783E-03  0.18793859126E-02  0.18684422324E-01  0.10251409714E+01  0.10249687720E+01 0.  0.
     999903    2    3    3    0    0 -0.82059390684E-01 -0.52644815518E-01  0.93485501695E-01  0.13654657013E+00  0.20005164015E-01 0.  0.
         14    1    1    2    0    0  0.62279010783E-03 -0.18793859126E-02 -0.18684422324E-01  0.18789028620E-01  0.00000000000E+00 0.  1.
     999901    1    3    3    0    0  0.81436600576E-01  0.54524201430E-01 -0.74801079371E-01  0.88859440125E+00  0.88000000000E+00 0. -1.
        -11    1    4    4    0    0 -0.58661895894E-01 -0.46374114222E-01  0.76350306793E-01  0.10687098282E+00  0.51100000000E-03 0. -1.
         11    1    4    4    0    0 -0.23397494789E-01 -0.62707012954E-02  0.17135194901E-01  0.29675587315E-01  0.51100000000E-03 0.  1.
</event>
<event>
 8    1  0.1097777E+005  0.1043930E+01  0.7957747E-01            NaN
         13   -1    0    0    0    0  0.00000000000E+00  0.00000000000E+00  0.74505805969E-08  0.10566000000E+00  0.10566000000E+00 0.  1.
     999900   -1    0    0    0    0 -0.00000000000E+00 -0.00000000000E+00 -0.74505805969E-08  0.93827000000E+00  0.93827000000E+00 0. -1.
     999902    2    1    2    0    0  0.38698307139E-02  0.16940644619E-01  0.15576716123E-01  0.10205934382E+01  0.10203266002E+01 0.  0.
     999903    2    3    3    0    0 -0.64642557077E-01 -0.51910720159E-01 -0.96193336114E-01  0.12822187757E+00  0.17728759712E-01 0.  0.
         14    1    1    2    0    0 -0.38698307139E-02 -0.16940644619E-01 -0.15576716123E-01  0.23336561766E-01  0.00000000000E+00 0. -1.
     999901    1    3    3    0    0  0.68512387791E-01  0.68851364779E-01  0.11177005224E+00  0.89237156067E+00  0.88000000000E+00 0.  1.
        -11    1    4    4    0    0 -0.44882571346E-01 -0.28599020044E-01 -0.70232973001E-01  0.88120830543E-01  0.51100000000E-03 0. -1.
         11    1    4    4    0    0 -0.19759985731E-01 -0.23311700115E-01 -0.25960363113E-01  0.40101047023E-01  0.51100000000E-03 0.  1.
</event>
<event>
 8    1  0.1097777E+005  0.1043930E+01  0.7957747E-01            NaN
         13   -1    0    0    0    0  0.00000000000E+00  0.00000000000E+00  0.74505805969E-08  0.10566000000E+00  0.10566000000E+00 0. -1.
     999900   -1    0    0    0    0 -0.00000000000E+00 -0.00000000000E+00 -0.74505805969E-08  0.93827000000E+00  0.93827000000E+00 0. -1.
     999902    2    1    2    0    0 -0.96325820297E-02 -0.40772215877E-02  0.21249022159E-01  0.10202460114E+01  0.10199710743E+01 0.  0.
     999903    2    3    3    0    0  0.63163743758E-01  0.57020688634E-01  0.96115376782E-01  0.13196833482E+00  0.30601605912E-01 0.  0.
         14    1    1    2    0    0  0.96325820297E-02  0.40772215877E-02 -0.21249022159E-01  0.23683988582E-01  0.00000000000E+00 0.  1.
     999901    1    3    3    0    0 -0.72796325788E-01 -0.61097910221E-01 -0.74866354623E-01  0.88827767659E+00  0.88000000000E+00 0. -1.
        -11    1    4    4    0    0  0.35293629516E-01  0.16066258744E-01  0.28412933821E-01  0.48076198724E-01  0.51100000000E-03 0.  1.
         11    1    4    4    0    0  0.27870114242E-01  0.40954429890E-01  0.67702442961E-01  0.83892136099E-01  0.51100000000E-03 0. -1.
</event>
<event>
 8    1  0.1097777E+005  0.1043930E+01  0.7957747E-01            NaN
         13   -1    0    0    0    0  0.00000000000E+00  0.00000000000E+00  0.74505805969E-08  0.10566000000E+00  0.10566000000E+00 0.  1.
     999900   -1    0    0    0    0 -0.00000000000E+00 -0.00000000000E+00 -0.74505805969E-08  0.93827000000E+00  0.93827000000E+00 0. -1.
     999902    2    1    2    0    0  0.11335426932E-01  0.12973661311E-02 -0.20532191544E-01  0.10204407269E+01  0.10201703442E+01 0.  0.
     999903    2    3    3    0    0 -0.76936663773E-01 -0.44402529191E-01 -0.94855468584E-01  0.13173133008E+00  0.21558028053E-01 0.  0.
         14    1    1    2    0    0 -0.11335426932E-01 -0.12973661311E-02  0.20532191544E-01  0.23489273131E-01  0.00000000000E+00 0.  1.
     999901    1    3    3    0    0  0.88272090705E-01  0.45699895322E-01  0.74323277039E-01  0.88870939679E+00  0.88000000000E+00 0.  1.
        -11    1    4    4    0    0 -0.33738918718E-01 -0.30271048102E-01 -0.55050279528E-01  0.71312308802E-01  0.51100000000E-03 0. -1.
         11    1    4    4    0    0 -0.43197745055E-01 -0.14131481089E-01 -0.39805189055E-01  0.60419021279E-01  0.51100000000E-03 0.  1.
</event>
<event>
 8    1  0.1097777E+005  0.1043930E+01  0.7957747E-01            NaN
         13   -1    0    0    0    0  0.00000000000E+00  0.00000000000E+00  0.74505805969E-08  0.10566000000E+00  0.10566000000E+00 0.  1.
     999900   -1    0    0    0    0 -0.00000000000E+00 -0.00000000000E+00 -0.74505805969E-08  0.93827000000E+00  0.93827000000E+00 0. -1.
     999902    2    1    2    0    0 -0.10730192000E-01 -0.28388234322E-01  0.41466563037E-02  0.10132995637E+01  0.10128365032E+01 0.  0.
     999903    2    3    3    0    0 -0.99406188858E-01 -0.70780250103E-01  0.30270103039E-01  0.12744238003E+00  0.20828991866E-01 0.  0.
         14    1    1    2    0    0  0.10730192000E-01  0.28388234322E-01 -0.41466563037E-02  0.30630436281E-01  0.00000000000E+00 0. -1.
     999901    1    3    3    0    0  0.88675996858E-01  0.42392015781E-01 -0.26123446735E-01  0.88585718369E+00  0.88000000000E+00 0.  1.
        -11    1    4    4    0    0 -0.54838009081E-01 -0.35665772620E-01  0.26480685958E-01  0.70574375139E-01  0.51100000000E-03 0. -1.
         11    1    4    4    0    0 -0.44568179778E-01 -0.35114477483E-01  0.37894170806E-02  0.56868004892E-01  0.51100000000E-03 0.  1.
</event>
<event>
 8    1  0.1097777E+005  0.1043930E+01  0.7957747E-01            NaN
         13   -1    0    0    0    0  0.00000000000E+00  0.00000000000E+00  0.74505805969E-08  0.10566000000E+00  0.10566000000E+00 0. -1.
     999900   -1    0    0    0    0 -0.00000000000E+00 -0.00000000000E+00 -0.74505805969E-08  0.93827000000E+00  0.93827000000E+00 0. -1.
     999902    2    1    2    0    0 -0.14733624919E-01 -0.14474381068E-01  0.11859628719E-01  0.10201132369E+01  0.10198351719E+01 0.  0.
     999903    2    3    3    0    0 -0.64210907983E-01  0.52924601676E-01  0.10014008122E+00  0.13175291435E+00  0.20167806171E-01 0.  0.
         14    1    1    2    0    0  0.14733624919E-01  0.14474381068E-01 -0.11859628719E-01  0.23816763086E-01  0.00000000000E+00 0.  1.
     999901    1    3    3    0    0  0.49477283063E-01 -0.67398982744E-01 -0.88280452503E-01  0.88836032257E+00  0.88000000000E+00 0. -1.
        -11    1    4    4    0    0 -0.36600110985E-01  0.42346794875E-01  0.62890301449E-01  0.84191865983E-01  0.51100000000E-03 0. -1.
         11    1    4    4    0    0 -0.27610796997E-01  0.10577806801E-01  0.37249779772E-01  0.47561048366E-01  0.51100000000E-03 0.  1.
</event>
<event>
 8    1  0.1097777E+005  0.1043930E+01  0.7957747E-01            NaN
         13   -1    0    0    0    0  0.00000000000E+00  0.00000000000E+00  0.74505805969E-08  0.10566000000E+00  0.10566000000E+00 0. -1.
     999900   -1    0    0    0    0 -0.00000000000E+00 -0.00000000000E+00 -0.74505805969E-08  0.93827000000E+00  0.93827000000E+00 0. -1.
     999902    2    1    2    0    0 -0.21965712674E-01 -0.64777912183E-02  0.44054195681E-02  0.10206091502E+01  0.10203426755E+01 0.  0.
     999903    2    3    3    0    0 -0.13118525948E+00 -0.54848804010E-02  0.15174620430E-01  0.13379131608E+00  0.20741044693E-01 0.  0.
         14    1    1    2    0    0  0.21965712674E-01  0.64777912183E-02 -0.44054195681E-02  0.23320849768E-01  0.00000000000E+00 0. -1.
     999901    1    3    3    0    0  0.10921954681E+00 -0.99291081725E-03 -0.10769200862E-01  0.88681783415E+00  0.88000000000E+00 0.  1.
        -11    1    4    4    0    0 -0.92101169868E-01 -0.88641356297E-03  0.19653409119E-01  0.94180299591E-01  0.51100000000E-03 0. -1.
         11    1    4    4    0    0 -0.39084089617E-01 -0.45984668380E-02 -0.44787886881E-02  0.39611016492E-01  0.51100000000E-03 0.  1.
</event>
<event>
 8    1  0.1097777E+005  0.1043930E+01  0.7957747E-01            NaN
         13   -1    0    0    0    0  0.00000000000E+00  0.00000000000E+00  0.74505805969E-08  0.10566000000E+00  0.10566000000E+00 0.  1.
     999900   -1    0    0    0    0 -0.00000000000E+00 -0.00000000000E+00 -0.74505805969E-08  0.93827000000E+00  0.93827000000E+00 0. -1.
     999902    2    1    2    0    0  0.13489730010E-01  0.69667625041E-02  0.18453634239E-01  0.10200334477E+01  0.10197534943E+01 0.  0.
     999903    2    3    3    0    0  0.11272430704E+00 -0.37249484261E-01 -0.50732465963E-01  0.13065765860E+00  0.20083505004E-01 0.  0.
         14    1    1    2    0    0 -0.13489730010E-01 -0.69667625041E-02 -0.18453634239E-01  0.23896552307E-01  0.00000000000E+00 0. -1.
     999901    1    3    3    0    0 -0.99234577033E-01  0.44216246765E-01  0.69186100202E-01  0.88937578909E+00  0.88000000000E+00 0.  1.
        -11    1    4    4    0    0  0.86247042982E-01 -0.22165529591E-01 -0.44497184437E-01  0.99549604063E-01  0.51100000000E-03 0. -1.
         11    1    4    4    0    0  0.26477264061E-01 -0.15083954671E-01 -0.62352815253E-02  0.31108054541E-01  0.51100000000E-03 0.  1.
</event>
<event>
 8    1  0.1097777E+005  0.1043930E+01  0.7957747E-01            NaN
         13   -1    0    0    0    0  0.00000000000E+00  0.00000000000E+00  0.74505805969E-08  0.10566000000E+00  0.10566000000E+00 0.  1.
     999900   -1    0    0    0    0 -0.00000000000E+00 -0.00000000000E+00 -0.74505805969E-08  0.93827000000E+00  0.93827000000E+00 0. -1.
     999902    2    1    2    0    0 -0.11349600953E-01  0.21512475025E-01 -0.16685829522E-02  0.10195500043E+01  0.10192584692E+01 0.  0.
     999903    2    3    3    0    0  0.90071171465E-01 -0.87041574457E-01 -0.51688077242E-02  0.12709137423E+00  0.20891367033E-01 0.  0.
         14    1    1    2    0    0  0.11349600953E-01 -0.21512475025E-01  0.16685829522E-02  0.24379995746E-01  0.00000000000E+00 0.  1.
     999901    1    3    3    0    0 -0.10142077242E+00  0.10855404948E+00  0.35002247720E-02  0.89245863003E+00  0.88000000000E+00 0. -1.
        -11    1    4    4    0    0  0.66528505707E-01 -0.69728354383E-01  0.40003343284E-02  0.96459054901E-01  0.51100000000E-03 0.  1.
         11    1    4    4    0    0  0.23542665758E-01 -0.17313220074E-01 -0.91691420525E-02  0.30632319326E-01  0.51100000000E-03 0. -1.
</event>
<event>
 8    1  0.1097777E+005  0.1043930E+01  0.7957747E-01            NaN
         13   -1    0    0    0    0  0.00000000000E+00  0.00000000000E+00  0.74505805969E-08  0.10566000000E+00  0.10566000000E+00 0.  1.
     999900   -1    0    0    0    0 -0.00000000000E+00 -0.00000000000E+00 -0.74505805969E-08  0.93827000000E+00  0.93827000000E+00 0. -1.
     999902    2    1    2    0    0 -0.22865410253E-01  0.31030691447E-02 -0.70506920945E-02  0.10198018363E+01  0.10195163643E+01 0.  0.
     999903    2    3    3    0    0 -0.12453581265E+00  0.20912347915E-01 -0.37634199876E-01  0.13324140854E+00  0.19759681719E-01 0.  0.
         14    1    1    2    0    0  0.22865410253E-01 -0.31030691447E-02  0.70506920945E-02  0.24128163692E-01  0.00000000000E+00 0. -1.
     999901    1    3    3    0    0  0.10167040240E+00 -0.17809278770E-01  0.30583507781E-01  0.88656042777E+00  0.88000000000E+00 0. -1.
        -11    1    4    4    0    0 -0.90888526092E-01  0.23783724995E-01 -0.29903603439E-01  0.98594504763E-01  0.51100000000E-03 0.  1.
         11    1    4    4    0    0 -0.33647286559E-01 -0.28713770801E-02 -0.77305964372E-02  0.34646903778E-01  0.51100000000E-03 0. -1.
</event>
<event>
 8    1  0.1097777E+005  0.1043930E+01  0.7957747E-01            NaN
         13   -1    0    0    0    0  0.00000000000E+00  0.00000000000E+00  0.74505805969E-08  0.10566000000E+00  0.10566000000E+00 0. -1.
     999900   -1    0    0    0    0 -0.00000000000E+00 -0.00000000000E+00 -0.74505805969E-08  0.93827000000E+00  0.93827000000E+00 0. -1.
     999902    2    1    2    0    0  0.56478848681E-02 -0.13099569353E-01 -0.23194444742E-01  0.10166998772E+01  0.10163351616E+01 0.  0.
     999903    2    3    3    0    0 -0.92230539010E-01 -0.86148674898E-01 -0.11541797548E-01  0.12818868320E+00  0.19262889111E-01 0.  0.
         14    1    1    2    0    0 -0.56478848681E-02  0.13099569353E-01  0.23194444742E-01  0.27230122798E-01  0.00000000000E+00 0. -1.
     999901    1    3    3    0    0  0.97878423878E-01  0.73049105545E-01 -0.11652647194E-01  0.88851119400E+00  0.88000000000E+00 0.  1.
        -11    1    4    4    0    0 -0.71682309000E-01 -0.76836871279E-01 -0.86530037143E-02  0.10543905256E+00  0.51100000000E-03 0. -1.
         11    1    4    4    0    0 -0.20548230010E-01 -0.93118036193E-02 -0.28887938334E-02  0.22749630634E-01  0.51100000000E-03 0.  1.
</event>
<event>
 8    1  0.1097777E+005  0.1043930E+01  0.7957747E-01            NaN
         13   -1    0    0    0    0  0.00000000000E+00  0.00000000000E+00  0.74505805969E-08  0.10566000000E+00  0.10566000000E+00 0. -1.
     999900   -1    0    0    0    0 -0.00000000000E+00 -0.00000000000E+00 -0.74505805969E-08  0.93827000000E+00  0.93827000000E+00 0. -1.
     999902    2    1    2    0    0  0.10792301182E-01 -0.14747564999E-02 -0.20582141835E-01  0.10206432391E+01  0.10203775518E+01 0.  0.
     999903    2    3    3    0    0 -0.26173458470E-01 -0.58406437343E-01 -0.11482750300E+00  0.13301163094E+00  0.20257755790E-01 0.  0.
         14    1    1    2    0    0 -0.10792301182E-01  0.14747564999E-02  0.20582141835E-01  0.23286760918E-01  0.00000000000E+00 0. -1.
     999901    1    3    3    0    0  0.36965759653E-01  0.56931680843E-01  0.94245361163E-01  0.88763160814E+00  0.88000000000E+00 0.  1.
        -11    1    4    4    0    0 -0.16891354744E-01 -0.14545255260E-01 -0.38201904335E-01  0.44232668148E-01  0.51100000000E-03 0. -1.
         11    1    4    4    0    0 -0.92821037267E-02 -0.43861182082E-01 -0.76625598662E-01  0.88778962793E-01  0.51100000000E-03 0.  1.
</event>
<event>
 8    1  0.1097777E+005  0.1043930E+01  0.7957747E-01            NaN
         13   -1    0    0    0    0  0.00000000000E+00  0.00000000000E+00  0.74505805969E-08  0.10566000000E+00  0.10566000000E+00 0. -1.
     999900   -1    0    0    0    0 -0.00000000000E+00 -0.00000000000E+00 -0.74505805969E-08  0.93827000000E+00  0.93827000000E+00 0. -1.
     999902    2    1    2    0    0  0.19351078960E-02 -0.44773998562E-02 -0.22878738795E-01  0.10205370857E+01  0.10202689424E+01 0.  0.
     999903    2    3    3    0    0 -0.86405540087E-01 -0.19248979891E-01  0.91171638665E-01  0.12866839676E+00  0.20170474527E-01 0.  0.
         14    1    1    2    0    0 -0.19351078960E-02  0.44773998562E-02  0.22878738795E-01  0.23392914331E-01  0.00000000000E+00 0. -1.
     999901    1    3    3    0    0  0.88340647983E-01  0.14771580035E-01 -0.11405037746E+00  0.89186868891E+00  0.88000000000E+00 0. -1.
        -11    1    4    4    0    0 -0.11457864638E-01 -0.27188292238E-02  0.23732528936E-01  0.26498466845E-01  0.51100000000E-03 0.  1.
         11    1    4    4    0    0 -0.74947675450E-01 -0.16530150667E-01  0.67439109728E-01  0.10216992991E+00  0.51100000000E-03 0. -1.
</event>
<event>
 8    1  0.1097777E+005  0.1043930E+01  0.7957747E-01            NaN
         13   -1    0    0    0    0  0.00000000000E+00  0.00000000000E+00  0.74505805969E-08  0.10566000000E+00  0.10566000000E+00 0. -1.
     999900   -1    0    0    0    0 -0.00000000000E+00 -0.00000000000E+00 -0.74505805969E-08  0.93827000000E+00  0.93827000000E+00 0. -1.
     999902    2    1    2    0    0  0.18348466107E-01  0.89450168384E-02  0.12784871953E-01  0.10198440604E+01  0.10195595986E+01 0.  0.
     999903    2    3    3    0    0  0.39920042888E-02 -0.57795505252E-01 -0.11263467214E+00  0.12833384324E+00  0.20657914403E-01 0.  0.
         14    1    1    2    0    0 -0.18348466107E-01 -0.89450168384E-02 -0.12784871953E-01  0.24085939582E-01  0.00000000000E+00 0. -1.
     999901    1    3    3    0    0  0.14356461818E-01  0.66740522090E-01  0.12541954410E+00  0.89151021717E+00  0.88000000000E+00 0.  1.
        -11    1    4    4    0    0  0.12467675736E-01 -0.31895492353E-01 -0.62925473037E-01  0.71642457025E-01  0.51100000000E-03 0. -1.
         11    1    4    4    0    0 -0.84756714473E-02 -0.25900012898E-01 -0.49709199106E-01  0.56691386218E-01  0.51100000000E-03 0.  1.
</event>
<event>
 8    1  0.1097777E+005  0.1043930E+01  0.7957747E-01            NaN
         13   -1    0    0    0    0  0.00000000000E+00  0.00000000000E+00  0.74505805969E-08  0.10566000000E+00  0.10566000000E+00 0. -1.
     999900   -1    0    0    0    0 -0.00000000000E+00 -0.00000000000E+00 -0.74505805969E-08  0.93827000000E+00  0.93827000000E+00 0.  1.
     999902    2    1    2    0    0  0.44319773065E-02 -0.24868006576E-01 -0.22395264924E-02  0.10185710636E+01  0.10182553393E+01 0.  0.
     999903    2    3    3    0    0  0.39778595299E-01  0.11148161194E+00 -0.39877419507E-01  0.12657486811E+00  0.20506150395E-01 0.  0.
         14    1    1    2    0    0 -0.44319773065E-02  0.24868006576E-01  0.22395264924E-02  0.25358936351E-01  0.00000000000E+00 0. -1.
     999901    1    3    3    0    0 -0.35346617993E-01 -0.13634961852E+00  0.37637893015E-01  0.89199619554E+00  0.88000000000E+00 0. -1.
        -11    1    4    4    0    0  0.29605351473E-01  0.86489532292E-01 -0.21464016027E-01  0.93903573611E-01  0.51100000000E-03 0.  1.
         11    1    4    4    0    0  0.10173243827E-01  0.24992079651E-01 -0.18413403480E-01  0.32671294495E-01  0.51100000000E-03 0. -1.
</event>
<event>
 8    1  0.1097777E+005  0.1043930E+01  0.7957747E-01            NaN
         13   -1    0    0    0    0  0.00000000000E+00  0.00000000000E+00  0.74505805969E-08  0.10566000000E+00  0.10566000000E+00 0. -1.
     999900   -1    0    0    0    0 -0.00000000000E+00 -0.00000000000E+00 -0.74505805969E-08  0.93827000000E+00  0.93827000000E+00 0. -1.
     999902    2    1    2    0    0 -0.22037115795E-02  0.10103025386E-01 -0.19822002644E-01  0.10215729149E+01  0.10213282436E+01 0.  0.
     999903    2    3    3    0    0 -0.10106054665E+00 -0.28883528776E-01  0.74218445106E-01  0.13020529651E+00  0.19938638908E-01 0.  0.
         14    1    1    2    0    0  0.22037115795E-02 -0.10103025386E-01  0.19822002644E-01  0.22357085129E-01  0.00000000000E+00 0.  1.
     999901    1    3    3    0    0  0.98856835073E-01  0.38986554162E-01 -0.94040447749E-01  0.89136761836E+00  0.88000000000E+00 0. -1.
        -11    1    4    4    0    0 -0.86722109040E-01 -0.25848949507E-01  0.71405171887E-01  0.11527294600E+00  0.51100000000E-03 0.  1.
         11    1    4    4    0    0 -0.14338437612E-01 -0.30345792692E-02  0.28132732182E-02  0.14932350508E-01  0.51100000000E-03 0. -1.
</event>
<event>
 8    1  0.1097777E+005  0.1043930E+01  0.7957747E-01            NaN
         13   -1    0    0    0    0  0.00000000000E+00  0.00000000000E+00  0.74505805969E-08  0.10566000000E+00  0.10566000000E+00 0. -1.
     999900   -1    0    0    0    0 -0.00000000000E+00 -0.00000000000E+00 -0.74505805969E-08  0.93827000000E+00  0.93827000000E+00 0. -1.
     999902    2    1    2    0    0 -0.16091787341E-01  0.11635898847E-01 -0.45484299789E-02  0.10235577646E+01  0.10233550065E+01 0.  0.
     999903    2    3    3    0    0 -0.32780671064E-01  0.93474405674E-01  0.88959431905E-01  0.13467094371E+00  0.20259458103E-01 0.  0.
         14    1    1    2    0    0  0.16091787341E-01 -0.11635898847E-01  0.45484299789E-02  0.20372235447E-01  0.00000000000E+00 0.  1.
     999901    1    3    3    0    0  0.16688883723E-01 -0.81838506827E-01 -0.93507861883E-01  0.88888682085E+00  0.88000000000E+00 0. -1.
        -11    1    4    4    0    0 -0.27999738601E-01  0.90482032942E-01  0.79560564733E-01  0.12369772928E+00  0.51100000000E-03 0.  1.
         11    1    4    4    0    0 -0.47809324629E-02  0.29923727321E-02  0.93988671718E-02  0.10973214429E-01  0.51100000000E-03 0. -1.
</event>
<event>
 8    1  0.1097777E+005  0.1043930E+01  0.7957747E-01            NaN
         13   -1    0    0    0    0  0.00000000000E+00  0.00000000000E+00  0.74505805969E-08  0.10566000000E+00  0.10566000000E+00 0.  1.
     999900   -1    0    0    0    0 -0.00000000000E+00 -0.00000000000E+00 -0.74505805969E-08  0.93827000000E+00  0.93827000000E+00 0.  1.
     999902    2    1    2    0    0  0.11327086559E-01 -0.11797107657E-01  0.17272056056E-01  0.10201434795E+01  0.10198661285E+01 0.  0.
     999903    2    3    3    0    0  0.14749977481E-01  0.12234397367E+00  0.35284549547E-01  0.12978961958E+00  0.20365072661E-01 0.  0.
         14    1    1    2    0    0 -0.11327086559E-01  0.11797107657E-01 -0.17272056056E-01  0.23786520540E-01  0.00000000000E+00 0. -1.
     999901    1    3    3    0    0 -0.34228909224E-02 -0.13414108133E+00 -0.18012493491E-01  0.89035385988E+00  0.88000000000E+00 0.  1.
        -11    1    4    4    0    0  0.10188683404E-01  0.20419858329E-01  0.78448523791E-02  0.24136750269E-01  0.51100000000E-03 0. -1.
         11    1    4    4    0    0  0.45612940772E-02  0.10192411534E+00  0.27439697168E-01  0.10565286931E+00  0.51100000000E-03 0.  1.
</event>
<event>
 8    1  0.1097777E+005  0.1043930E+01  0.7957747E-01            NaN
         13   -1    0    0    0    0  0.00000000000E+00  0.00000000000E+00  0.74505805969E-08  0.10566000000E+00  0.10566000000E+00 0. -1.
     999900   -1    0    0    0    0 -0.00000000000E+00 -0.00000000000E+00 -0.74505805969E-08  0.93827000000E+00  0.93827000000E+00 0.  1.
     999902    2    1    2    0    0  0.80385913912E-02  0.66698709646E-02  0.17874641921E-01  0.10232271269E+01  0.10230176657E+01 0.  0.
     999903    2    3    3    0    0 -0.99883189290E-01 -0.74864716926E-01  0.40210052978E-01  0.13261280502E+00  0.19695947620E-01 0.  0.
         14    1    1    2    0    0 -0.80385913912E-02 -0.66698709646E-02 -0.17874641921E-01  0.20702873087E-01  0.00000000000E+00 0.  1.
     999901    1    3    3    0    0  0.10792178068E+00  0.81534587890E-01 -0.22335411057E-01  0.89061432189E+00  0.88000000000E+00 0. -1.
        -11    1    4    4    0    0 -0.29319917875E-01 -0.33606560692E-01  0.15493922405E-01  0.47216324065E-01  0.51100000000E-03 0. -1.
         11    1    4    4    0    0 -0.70563271415E-01 -0.41258156234E-01  0.24716130573E-01  0.85396480958E-01  0.51100000000E-03 0.  1.
</event>
<event>
 8    1  0.1097777E+005  0.1043930E+01  0.7957747E-01            NaN
         13   -1    0    0    0    0  0.00000000000E+00  0.00000000000E+00  0.74505805969E-08  0.10566000000E+00  0.10566000000E+00 0. -1.
     999900   -1    0    0    0    0 -0.00000000000E+00 -0.00000000000E+00 -0.74505805969E-08  0.93827000000E+00  0.93827000000E+00 0. -1.
     999902    2    1    2    0    0  0.23021262771E-01  0.47194718704E-03  0.83988644561E-02  0.10194199572E+01  0.10191252656E+01 0.  0.
     999903    2    3    3    0    0  0.12030821566E+00 -0.23970858946E-01  0.46804027766E-01  0.13288898846E+00  0.20498717163E-01 0.  0.
         14    1    1    2    0    0 -0.23021262771E-01 -0.47194718704E-03 -0.83988644561E-02  0.24510042796E-01  0.00000000000E+00 0.  1.
     999901    1    3    3    0    0 -0.97286952888E-01  0.24442806133E-01 -0.38405163310E-01  0.88653096874E+00  0.88000000000E+00 0. -1.
        -11    1    4    4    0    0  0.10685420245E+00 -0.22258739467E-01  0.34238632799E-01  0.11439325662E+00  0.51100000000E-03 0. -1.
         11    1    4    4    0    0  0.13454013209E-01 -0.17121194791E-02  0.12565394967E-01  0.18495731838E-01  0.51100000000E-03 0.  1.
</event>
<event>
 8    1  0.1097777E+005  0.1043930E+01  0.7957747E-01            NaN
         13   -1    0    0    0    0  0.00000000000E+00  0.00000000000E+00  0.74505805969E-08  0.10566000000E+00  0.10566000000E+00 0.  1.
     999900   -1    0    0    0    0 -0.00000000000E+00 -0.00000000000E+00 -0.74505805969E-08  0.93827000000E+00  0.93827000000E+00 0. -1.
     999902    2    1    2    0    0  0.11387423193E-01 -0.20668361827E-01  0.48467901655E-02  0.10198396293E+01  0.10195550615E+01 0.  0.
     999903    2    3    3    0    0 -0.50612482537E-01 -0.72569086304E-01 -0.93832589597E-01  0.13064038640E+00  0.20843704384E-01 0.  0.
         14    1    1    2    0    0 -0.11387423193E-01  0.20668361827E-01 -0.48467901655E-02  0.24090370742E-01  0.00000000000E+00 0. -1.
     999901    1    3    3    0    0  0.61999905730E-01  0.51900724477E-01  0.98679379762E-01  0.88919924286E+00  0.88000000000E+00 0.  1.
        -11    1    4    4    0    0 -0.20659389964E-01 -0.40221979925E-01 -0.59648854742E-01  0.74852288247E-01  0.51100000000E-03 0. -1.
         11    1    4    4    0    0 -0.29953092572E-01 -0.32347106379E-01 -0.34183734854E-01  0.55788098151E-01  0.51100000000E-03 0.  1.
</event>
<event>
 8    1  0.1097777E+005  0.1043930E+01  0.7957747E-01            NaN
         13   -1    0    0    0    0  0.00000000000E+00  0.00000000000E+00  0.74505805969E-08  0.10566000000E+00  0.10566000000E+00 0.  1.
     999900   -1    0    0    0    0 -0.00000000000E+00 -0.00000000000E+00 -0.74505805969E-08  0.93827000000E+00  0.93827000000E+00 0. -1.
     999902    2    1    2    0    0  0.11847046954E-01  0.49943049994E-02 -0.18776858729E-01  0.10211733300E+01  0.10209197343E+01 0.  0.
     999903    2    3    3    0    0 -0.39716319454E-01  0.61463051347E-01 -0.10948686758E+00  0.13321172852E+00  0.20072312538E-01 0.  0.
         14    1    1    2    0    0 -0.11847046954E-01 -0.49943049994E-02  0.18776858729E-01  0.22756669960E-01  0.00000000000E+00 0.  1.
     999901    1    3    3    0    0  0.51563366408E-01 -0.56468746348E-01  0.90710008852E-01  0.88796160152E+00  0.88000000000E+00 0.  1.
        -11    1    4    4    0    0 -0.13517280486E-01  0.32684562931E-01 -0.38700560976E-01  0.52430831259E-01  0.51100000000E-03 0.  1.
         11    1    4    4    0    0 -0.26199038968E-01  0.28778488416E-01 -0.70786306605E-01  0.80780897260E-01  0.51100000000E-03 0. -1.
</event>
<event>
 8    1  0.1097777E+005  0.1043930E+01  0.7957747E-01            NaN
         13   -1    0    0    0    0  0.00000000000E+00  0.00000000000E+00  0.74505805969E-08  0.10566000000E+00  0.10566000000E+00 0. -1.
     999900   -1    0    0    0    0 -0.00000000000E+00 -0.00000000000E+00 -0.74505805969E-08  0.93827000000E+00  0.93827000000E+00 0.  1.
     999902    2    1    2    0    0 -0.16694804658E-01  0.12575895359E-01  0.10149397328E-01  0.10206946839E+01  0.10204301828E+01 0.  0.
     999903    2    3    3    0    0 -0.11880401255E+00 -0.54000617686E-01  0.64427362261E-02  0.13228460871E+00  0.20669996175E-01 0.  0.
         14    1    1    2    0    0  0.16694804658E-01 -0.12575895359E-01 -0.10149397328E-01  0.23235316068E-01  0.00000000000E+00 0.  1.
     999901    1    3    3    0    0  0.10210920789E+00  0.66576513045E-01  0.37066611023E-02  0.88841007523E+00  0.88000000000E+00 0. -1.
        -11    1    4    4    0    0 -0.84707952047E-01 -0.48263430288E-01  0.30828945222E-02  0.97542612241E-01  0.51100000000E-03 0.  1.
         11    1    4    4    0    0 -0.34096060505E-01 -0.57371873979E-02  0.33598417039E-02  0.34741996466E-01  0.51100000000E-03 0. -1.
</event>
<event>
 8    1  0.1097777E+005  0.1043930E+01  0.7957747E-01            NaN
         13   -1    0    0    0    0  0.00000000000E+00  0.00000000000E+00  0.74505805969E-08  0.10566000000E+00  0.10566000000E+00 0. -1.
     999900   -1    0    0    0    0 -0.00000000000E+00 -0.00000000000E+00 -0.74505805969E-08  0.93827000000E+00  0.93827000000E+00 0.  1.
     999902    2    1    2    0    0 -0.96582595466E-02  0.12136604720E-01 -0.17718254760E-01  0.10203818429E+01  0.10201100870E+01 0.  0.
     999903    2    3    3    0    0  0.80570346692E-01  0.44418326055E-01 -0.92008843505E-01  0.13206748271E+00  0.22619112532E-01 0.  0.
         14    1    1    2    0    0  0.96582595466E-02 -0.12136604720E-01  0.17718254760E-01  0.23548157111E-01  0.00000000000E+00 0. -1.
     999901    1    3    3    0    0 -0.90228606239E-01 -0.32281721336E-01  0.74290588745E-01  0.88831436017E+00  0.88000000000E+00 0. -1.
        -11    1    4    4    0    0  0.39922017592E-01  0.92338545624E-02 -0.39639074444E-01  0.57013585245E-01  0.51100000000E-03 0. -1.
         11    1    4    4    0    0  0.40648329100E-01  0.35184471493E-01 -0.52369769060E-01  0.75053897469E-01  0.51100000000E-03 0.  1.
</event>
<event>
 8    1  0.1097777E+005  0.1043930E+01  0.7957747E-01            NaN
         13   -1    0    0    0    0  0.00000000000E+00  0.00000000000E+00  0.74505805969E-08  0.10566000000E+00  0.10566000000E+00 0.  1.
     999900   -1    0    0    0    0 -0.00000000000E+00 -0.00000000000E+00 -0.74505805969E-08  0.93827000000E+00  0.93827000000E+00 0.  1.
     999902    2    1    2    0    0  0.20919983198E-01 -0.24497296441E-02  0.11313232991E-01  0.10200210872E+01  0.10197408407E+01 0.  0.
     999903    2    3    3    0    0  0.76042983249E-01  0.97002590271E-01  0.43026161753E-01  0.13213876449E+00  0.20429504742E-01 0.  0.
         14    1    1    2    0    0 -0.20919983198E-01  0.24497296441E-02 -0.11313232991E-01  0.23908912837E-01  0.00000000000E+00 0. -1.
     999901    1    3    3    0    0 -0.55123000051E-01 -0.99452319915E-01 -0.31712928762E-01  0.88788232268E+00  0.88000000000E+00 0. -1.
        -11    1    4    4    0    0  0.36288693193E-01  0.58793453614E-01  0.30858173305E-01  0.75670518845E-01  0.51100000000E-03 0. -1.
         11    1    4    4    0    0  0.39754290056E-01  0.38209136657E-01  0.12167988449E-01  0.56468245642E-01  0.51100000000E-03 0.  1.
</event>
<event>
 8    1  0.1097777E+005  0.1043930E+01  0.7957747E-01            NaN
         13   -1    0    0    0    0  0.00000000000E+00  0.00000000000E+00  0.74505805969E-08  0.10566000000E+00  0.10566000000E+00 0. -1.
     999900   -1    0    0    0    0 -0.00000000000E+00 -0.00000000000E+00 -0.74505805969E-08  0.93827000000E+00  0.93827000000E+00 0. -1.
     999902    2    1    2    0    0  0.20839669899E-01 -0.15926179448E-02 -0.10352177578E-01  0.10206062813E+01  0.10203397403E+01 0.  0.
     999903    2    3    3    0    0 -0.71337425827E-02 -0.35765790360E-01 -0.12545601285E+00  0.13201232993E+00  0.18919885068E-01 0.  0.
         14    1    1    2    0    0 -0.20839669899E-01  0.15926179448E-02  0.10352177578E-01  0.23323718700E-01  0.00000000000E+00 0. -1.
     999901    1    3    3    0    0  0.27973412481E-01  0.34173172415E-01  0.11510383527E+00  0.88859395137E+00  0.88000000000E+00 0.  1.
        -11    1    4    4    0    0  0.29884487393E-02 -0.13048727471E-01 -0.69454673056E-01  0.70734806459E-01  0.51100000000E-03 0. -1.
         11    1    4    4    0    0 -0.10122191322E-01 -0.22717062889E-01 -0.56001339790E-01  0.61277523471E-01  0.51100000000E-03 0.  1.
</event>
<event>
 7    1  0.1141451E+005  0.1043930E+01  0.7957747E-01            NaN
         13   -1    0    0    0    0  0.00000000000E+00  0.00000000000E+00  0.74505805969E-08  0.10566000000E+00  0.10566000000E+00 0. -1.
     999900   -1    0    0    0    0 -0.00000000000E+00 -0.00000000000E+00 -0.74505805969E-08  0.93827000000E+00  0.93827000000E+00 0. -1.
     999903    2    1    2    0    0  0.77727501993E-01  0.73835173284E-02 -0.56576096219E-01  0.98442473434E-01  0.19849055854E-01 0.  0.
         14    1    1    2    0    0 -0.10657711252E-01 -0.58775072751E-01  0.23933361361E-02  0.59781469068E-01  0.00000000000E+00 0.  1.
     999901    1    1    2    0    0 -0.67069790740E-01  0.51391555423E-01  0.54182760083E-01  0.88570605750E+00  0.88000000000E+00 0.  1.
        -11    1    3    3    0    0  0.44215805762E-01 -0.21967044237E-02 -0.22366738430E-01  0.49602369888E-01  0.51100000000E-03 0. -1.
         11    1    3    3    0    0  0.33511696231E-01  0.95802217521E-02 -0.34209357789E-01  0.48840103547E-01  0.51100000000E-03 0.  1.
</event>
<event>
 8    1  0.1097777E+005  0.1043930E+01  0.7957747E-01            NaN
         13   -1    0    0    0    0  0.00000000000E+00  0.00000000000E+00  0.74505805969E-08  0.10566000000E+00  0.10566000000E+00 0. -1.
     999900   -1    0    0    0    0 -0.00000000000E+00 -0.00000000000E+00 -0.74505805969E-08  0.93827000000E+00  0.93827000000E+00 0.  1.
     999902    2    1    2    0    0 -0.25492636931E-02 -0.21672090481E-01 -0.50361705182E-02  0.10215348830E+01  0.10212893694E+01 0.  0.
     999903    2    3    3    0    0  0.25104523107E-01  0.12057150269E+00 -0.34140291779E-01  0.12920925770E+00  0.19019684865E-01 0.  0.
         14    1    1    2    0    0  0.25492636931E-02  0.21672090481E-01  0.50361705182E-02  0.22395116983E-01  0.00000000000E+00 0. -1.
     999901    1    3    3    0    0 -0.27653786800E-01 -0.14224359317E+00  0.29104121261E-01  0.89232562532E+00  0.88000000000E+00 0. -1.
        -11    1    4    4    0    0  0.45547131399E-02  0.59036675589E-01 -0.22218198255E-01  0.63245426168E-01  0.51100000000E-03 0.  1.
         11    1    4    4    0    0  0.20549809967E-01  0.61534827097E-01 -0.11922093524E-01  0.65963831533E-01  0.51100000000E-03 0. -1.
</event>
<event>
 8    1  0.1097777E+005  0.1043930E+01  0.7957747E-01            NaN
         13   -1    0    0    0    0  0.00000000000E+00  0.00000000000E+00  0.74505805969E-08  0.10566000000E+00  0.10566000000E+00 0.  1.
     999900   -1    0    0    0    0 -0.00000000000E+00 -0.00000000000E+00 -0.74505805969E-08  0.93827000000E+00  0.93827000000E+00 0.  1.
     999902    2    1    2    0    0  0.21205961864E-01 -0.74825182213E-02 -0.69417477459E-02  0.10203955835E+01  0.10201241484E+01 0.  0.
     999903    2    3    3    0    0 -0.47414018866E-01  0.98425207051E-02 -0.12016691918E+00  0.13032322793E+00  0.14109956536E-01 0.  0.
         14    1    1    2    0    0 -0.21205961864E-01  0.74825182213E-02  0.69417477459E-02  0.23534416484E-01  0.00000000000E+00 0.  1.
     999901    1    3    3    0    0  0.68619980730E-01 -0.17325038926E-01  0.11322517144E+00  0.89007235558E+00  0.88000000000E+00 0. -1.
        -11    1    4    4    0    0 -0.25520165270E-01  0.74412445761E-02 -0.48041531263E-01  0.54908112364E-01  0.51100000000E-03 0.  1.
         11    1    4    4    0    0 -0.21893853596E-01  0.24012761290E-02 -0.72125387921E-01  0.75415115567E-01  0.51100000000E-03 0. -1.
</event>
<event>
 8    1  0.1097777E+005  0.1043930E+01  0.7957747E-01            NaN
         13   -1    0    0    0    0  0.00000000000E+00  0.00000000000E+00  0.74505805969E-08  0.10566000000E+00  0.10566000000E+00 0.  1.
     999900   -1    0    0    0    0 -0.00000000000E+00 -0.00000000000E+00 -0.74505805969E-08  0.93827000000E+00  0.93827000000E+00 0.  1.
     999902    2    1    2    0    0 -0.18423055738E-01  0.12849034498E-01 -0.90999248230E-02  0.10196954110E+01  0.10194073847E+01 0.  0.
     999903    2    3    3    0    0  0.33780348579E-01  0.11765205048E+00 -0.42964936668E-01  0.13129476572E+00  0.20229008629E-01 0.  0.
         14    1    1    2    0    0  0.18423055738E-01 -0.12849034498E-01  0.90999248230E-02  0.24234588959E-01  0.00000000000E+00 0.  1.
     999901    1    3    3    0    0 -0.52203404317E-01 -0.10480301598E+00  0.33865011845E-01  0.88840064532E+00  0.88000000000E+00 0. -1.
        -11    1    4    4    0    0  0.29609870306E-01  0.70264687384E-01 -0.22450203920E-01  0.79486750403E-01  0.51100000000E-03 0.  1.
         11    1    4    4    0    0  0.41704782736E-02  0.47387363095E-01 -0.20514732748E-01  0.51808015315E-01  0.51100000000E-03 0. -1.
</event>
<event>
 8    1  0.1097777E+005  0.1043930E+01  0.7957747E-01            NaN
         13   -1    0    0    0    0  0.00000000000E+00  0.00000000000E+00  0.74505805969E-08  0.10566000000E+00  0.10566000000E+00 0.  1.
     999900   -1    0    0    0    0 -0.00000000000E+00 -0.00000000000E+00 -0.74505805969E-08  0.93827000000E+00  0.93827000000E+00 0.  1.
     999902    2    1    2    0    0  0.88373412202E-02  0.19647713685E-01  0.11566687873E-01  0.10194776070E+01  0.10191843169E+01 0.  0.
     999903    2    3    3    0    0  0.14682966187E-01 -0.20893958672E-01  0.12688956678E+00  0.13100860650E+00  0.20252057051E-01 0.  0.
         14    1    1    2    0    0 -0.88373412202E-02 -0.19647713685E-01 -0.11566687873E-01  0.24452392955E-01  0.00000000000E+00 0. -1.
     999901    1    3    3    0    0 -0.58456249673E-02  0.40541672357E-01 -0.11532287891E+00  0.88846900054E+00  0.88000000000E+00 0.  1.
        -11    1    4    4    0    0 -0.29285665794E-02 -0.12297137520E-01  0.59229976752E-01  0.60566057825E-01  0.51100000000E-03 0.  1.
         11    1    4    4    0    0  0.17611532767E-01 -0.85968211522E-02  0.67659590027E-01  0.70442548676E-01  0.51100000000E-03 0. -1.
</event>
<event>
 8    1  0.1097777E+005  0.1043930E+01  0.7957747E-01            NaN
         13   -1    0    0    0    0  0.00000000000E+00  0.00000000000E+00  0.74505805969E-08  0.10566000000E+00  0.10566000000E+00 0.  1.
     999900   -1    0    0    0    0 -0.00000000000E+00 -0.00000000000E+00 -0.74505805969E-08  0.93827000000E+00  0.93827000000E+00 0.  1.
     999902    2    1    2    0    0  0.20622288864E-01 -0.60789686847E-02  0.11459945287E-01  0.10195668515E+01  0.10192757241E+01 0.  0.
     999903    2    3    3    0    0  0.46378184069E-01  0.91446056506E-01  0.79175257075E-01  0.13122015110E+00  0.20897117378E-01 0.  0.
         14    1    1    2    0    0 -0.20622288864E-01  0.60789686847E-02 -0.11459945287E-01  0.24363148488E-01  0.00000000000E+00 0. -1.
     999901    1    3    3    0    0 -0.25755895205E-01 -0.97525025191E-01 -0.67715311787E-01  0.88834670041E+00  0.88000000000E+00 0.  1.
        -11    1    4    4    0    0  0.10364162458E-01  0.87467310313E-02  0.16582534588E-01  0.21428083012E-01  0.51100000000E-03 0. -1.
         11    1    4    4    0    0  0.36014021611E-01  0.82699325474E-01  0.62592722487E-01  0.10979206809E+00  0.51100000000E-03 0.  1.
</event>
<event>
 8    1  0.1097777E+005  0.1043930E+01  0.7957747E-01            NaN
         13   -1    0    0    0    0  0.00000000000E+00  0.00000000000E+00  0.74505805969E-08  0.10566000000E+00  0.10566000000E+00 0.  1.
     999900   -1    0    0    0    0 -0.00000000000E+00 -0.00000000000E+00 -0.74505805969E-08  0.93827000000E+00  0.93827000000E+00 0. -1.
     999902    2    1    2    0    0 -0.12780126339E-01 -0.18399609044E-01  0.51262948476E-02  0.10209483521E+01  0.10206896597E+01 0.  0.
     999903    2    3    3    0    0  0.21697122584E-01  0.78277799404E-01  0.99435143323E-01  0.12997733072E+00  0.20213356143E-01 0.  0.
         14    1    1    2    0    0  0.12780126339E-01  0.18399609044E-01 -0.51262948476E-02  0.22981647919E-01  0.00000000000E+00 0. -1.
     999901    1    3    3    0    0 -0.34477248923E-01 -0.96677408448E-01 -0.94308848475E-01  0.89097102136E+00  0.88000000000E+00 0. -1.
        -11    1    4    4    0    0  0.11933958724E-02  0.40371838567E-01  0.52763047983E-01  0.66449303205E-01  0.51100000000E-03 0.  1.
         11    1    4    4    0    0  0.20503726712E-01  0.37905960837E-01  0.46672095340E-01  0.63528027519E-01  0.51100000000E-03 0. -1.
</event>
<event>
 8    1  0.1097777E+005  0.1043930E+01  0.7957747E-01            NaN
         13   -1    0    0    0    0  0.00000000000E+00  0.00000000000E+00  0.74505805969E-08  0.10566000000E+00  0.10566000000E+00 0.  1.
     999900   -1    0    0    0    0 -0.00000000000E+00 -0.00000000000E+00 -0.74505805969E-08  0.93827000000E+00  0.93827000000E+00 0. -1.
     999902    2    1    2    0    0  0.19346478613E-01  0.11849990945E-01  0.10339230191E-01  0.10189979283E+01  0.10186928731E+01 0.  0.
     999903    2    3    3    0    0 -0.52856463551E-01  0.11647678688E+00  0.90770280807E-02  0.12986260423E+00  0.20524519955E-01 0.  0.
         14    1    1    2    0    0 -0.19346478613E-01 -0.11849990945E-01 -0.10339230191E-01  0.24932071736E-01  0.00000000000E+00 0. -1.
     999901    1    3    3    0    0  0.72202942163E-01 -0.10462679593E+00  0.12622021102E-02  0.88913532403E+00  0.88000000000E+00 0.  1.
        -11    1    4    4    0    0 -0.18647852110E-01  0.49860764928E-01  0.13244042786E-01  0.54858946926E-01  0.51100000000E-03 0.  1.
         11    1    4    4    0    0 -0.34208611440E-01  0.66616021949E-01 -0.41670147052E-02  0.75003657308E-01  0.51100000000E-03 0. -1.
</event>
<event>
 7    1  0.1341802E+005  0.1043930E+01  0.7957747E-01            NaN
         13   -1    0    0    0    0  0.00000000000E+00  0.00000000000E+00  0.74505805969E-08  0.10566000000E+00  0.10566000000E+00 0. -1.
     999900   -1    0    0    0    0 -0.00000000000E+00 -0.00000000000E+00 -0.74505805969E-08  0.93827000000E+00  0.93827000000E+00 0. -1.
     999903    2    1    2    0    0 -0.13932094175E-01 -0.97169767721E-01  0.57380328324E-01  0.11541468018E+00  0.19798467525E-01 0.  0.
         14    1    1    2    0    0 -0.34725712893E-01  0.72345053458E-02 -0.22302772434E-01  0.41900201213E-01  0.00000000000E+00 0.  1.
     999901    1    1    2    0    0  0.48657807068E-01  0.89935262375E-01 -0.35077555890E-01  0.88661511860E+00  0.88000000000E+00 0. -1.
        -11    1    3    3    0    0 -0.13607080876E-01 -0.34664526490E-01  0.26396509212E-01  0.45648864897E-01  0.51100000000E-03 0. -1.
         11    1    3    3    0    0 -0.32501329944E-03 -0.62505241231E-01  0.30983819112E-01  0.69765815288E-01  0.51100000000E-03 0.  1.
</event>
<event>
 8    1  0.1097777E+005  0.1043930E+01  0.7957747E-01            NaN
         13   -1    0    0    0    0  0.00000000000E+00  0.00000000000E+00  0.74505805969E-08  0.10566000000E+00  0.10566000000E+00 0.  1.
     999900   -1    0    0    0    0 -0.00000000000E+00 -0.00000000000E+00 -0.74505805969E-08  0.93827000000E+00  0.93827000000E+00 0. -1.
     999902    2    1    2    0    0 -0.61013823177E-02  0.22217624409E-01  0.27564072616E-02  0.10207255288E+01  0.10204617375E+01 0.  0.
     999903    2    3    3    0    0  0.11984413853E+00  0.77321224734E-03 -0.46679805964E-01  0.13012681101E+00  0.19767833988E-01 0.  0.
         14    1    1    2    0    0  0.61013823177E-02 -0.22217624409E-01 -0.27564072616E-02  0.23204471154E-01  0.00000000000E+00 0.  1.
     999901    1    3    3    0    0 -0.12594552085E+00  0.21444412161E-01  0.49436213225E-01  0.89059871784E+00  0.88000000000E+00 0.  1.
        -11    1    4    4    0    0  0.44557197682E-03 -0.17247843874E-02  0.12335202597E-03  0.18573508801E-02  0.51100000000E-03 0.  1.
         11    1    4    4    0    0  0.11939856656E+00  0.24979966347E-02 -0.46803157990E-01  0.12826946013E+00  0.51100000000E-03 0. -1.
</event>
<event>
 8    1  0.1097777E+005  0.1043930E+01  0.7957747E-01            NaN
         13   -1    0    0    0    0  0.00000000000E+00  0.00000000000E+00  0.74505805969E-08  0.10566000000E+00  0.10566000000E+00 0. -1.
     999900   -1    0    0    0    0 -0.00000000000E+00 -0.00000000000E+00 -0.74505805969E-08  0.93827000000E+00  0.93827000000E+00 0.  1.
     999902    2    1    2    0    0 -0.17230737950E-01  0.93022302899E-02 -0.12430839113E-01  0.10207361306E+01  0.10204725830E+01 0.  0.
     999903    2    3    3    0    0 -0.47987827778E-01 -0.11923029352E+00  0.11577782196E-01  0.13054344234E+00  0.19719299957E-01 0.  0.
         14    1    1    2    0    0  0.17230737950E-01 -0.93022302899E-02  0.12430839113E-01  0.23193869442E-01  0.00000000000E+00 0.  1.
     999901    1    3    3    0    0  0.30757089829E-01  0.12853252381E+00 -0.24008621309E-01  0.89019268821E+00  0.88000000000E+00 0. -1.
        -11    1    4    4    0    0 -0.84760786265E-02 -0.37734105360E-01 -0.30550460583E-02  0.38798209283E-01  0.51100000000E-03 0.  1.
         11    1    4    4    0    0 -0.39511749152E-01 -0.81496188160E-01  0.14632828255E-01  0.91745233061E-01  0.51100000000E-03 0. -1.
</event>
<event>
 8    1  0.1097777E+005  0.1043930E+01  0.7957747E-01            NaN
         13   -1    0    0    0    0  0.00000000000E+00  0.00000000000E+00  0.74505805969E-08  0.10566000000E+00  0.10566000000E+00 0. -1.
     999900   -1    0    0    0    0 -0.00000000000E+00 -0.00000000000E+00 -0.74505805969E-08  0.93827000000E+00  0.93827000000E+00 0. -1.
     999902    2    1    2    0    0  0.16302252893E-01 -0.17798167126E-01  0.50892446439E-02  0.10192634515E+01  0.10189649381E+01 0.  0.
     999903    2    3    3    0    0  0.53410384650E-03  0.71050263712E-01  0.10556815353E+00  0.12896086852E+00  0.20924753944E-01 0.  0.
         14    1    1    2    0    0 -0.16302252893E-01  0.17798167126E-01 -0.50892446439E-02  0.24666548471E-01  0.00000000000E+00 0.  1.
     999901    1    3    3    0    0  0.15768149046E-01 -0.88848430838E-01 -0.10047890889E+00  0.89030258301E+00  0.88000000000E+00 0. -1.
        -11    1    4    4    0    0 -0.90357836382E-02  0.32862224914E-01  0.57295192457E-01  0.66667618916E-01  0.51100000000E-03 0.  1.
         11    1    4    4    0    0  0.95698874847E-02  0.38188038798E-01  0.48272961077E-01  0.62293249601E-01  0.51100000000E-03 0. -1.
</event>
<event>
 8    1  0.1097777E+005  0.1043930E+01  0.7957747E-01            NaN
         13   -1    0    0    0    0  0.00000000000E+00  0.00000000000E+00  0.74505805969E-08  0.10566000000E+00  0.10566000000E+00 0. -1.
     999900   -1    0    0    0    0 -0.00000000000E+00 -0.00000000000E+00 -0.74505805969E-08  0.93827000000E+00  0.93827000000E+00 0.  1.
     999902    2    1    2    0    0 -0.52171466630E-02 -0.10756743866E-01  0.19977263456E-01  0.10206487369E+01  0.10203831765E+01 0.  0.
     999903    2    3    3    0    0 -0.10276104391E+00 -0.79583733147E-01  0.16488131352E-01  0.13258109283E+00  0.20309726092E-01 0.  0.
         14    1    1    2    0    0  0.52171466630E-02  0.10756743866E-01 -0.19977263456E-01  0.23281263133E-01  0.00000000000E+00 0.  1.
     999901    1    3    3    0    0  0.97543897243E-01  0.68826989281E-01  0.34891321037E-02  0.88806764404E+00  0.88000000000E+00 0. -1.
        -11    1    4    4    0    0 -0.38393525847E-01 -0.18264827518E-01  0.81056911999E-02  0.43285449080E-01  0.51100000000E-03 0. -1.
         11    1    4    4    0    0 -0.64367518059E-01 -0.61318905629E-01  0.83824401520E-02  0.89295643749E-01  0.51100000000E-03 0.  1.
</event>
<event>
 8    1  0.1097777E+005  0.1043930E+01  0.7957747E-01            NaN
         13   -1    0    0    0    0  0.00000000000E+00  0.00000000000E+00  0.74505805969E-08  0.10566000000E+00  0.10566000000E+00 0.  1.
     999900   -1    0    0    0    0 -0.00000000000E+00 -0.00000000000E+00 -0.74505805969E-08  0.93827000000E+00  0.93827000000E+00 0. -1.
     999902    2    1    2    0    0 -0.11497105348E-01  0.31919954586E-02  0.24820772690E-01  0.10163901557E+01  0.10160169810E+01 0.  0.
     999903    2    3    3    0    0 -0.78804240720E-01  0.97459960044E-01 -0.18271630058E-01  0.12775431647E+00  0.16696129600E-01 0.  0.
         14    1    1    2    0    0  0.11497105348E-01 -0.31919954586E-02 -0.24820772690E-01  0.27539844287E-01  0.00000000000E+00 0. -1.
     999901    1    3    3    0    0  0.67307135372E-01 -0.94267964585E-01  0.43092402748E-01  0.88863583925E+00  0.88000000000E+00 0. -1.
        -11    1    4    4    0    0 -0.43015031787E-01  0.64135183507E-01 -0.68196499363E-02  0.77526662957E-01  0.51100000000E-03 0. -1.
         11    1    4    4    0    0 -0.35789208934E-01  0.33324776537E-01 -0.11451980122E-01  0.50227653509E-01  0.51100000000E-03 0.  1.
</event>
<event>
 8    1  0.1097777E+005  0.1043930E+01  0.7957747E-01            NaN
         13   -1    0    0    0    0  0.00000000000E+00  0.00000000000E+00  0.74505805969E-08  0.10566000000E+00  0.10566000000E+00 0.  1.
     999900   -1    0    0    0    0 -0.00000000000E+00 -0.00000000000E+00 -0.74505805969E-08  0.93827000000E+00  0.93827000000E+00 0. -1.
     999902    2    1    2    0    0  0.14222162481E-02 -0.82127998481E-02 -0.23722264812E-01  0.10187860419E+01  0.10184757143E+01 0.  0.
     999903    2    3    3    0    0  0.19367957863E-01 -0.55457923165E-01  0.11106478253E+00  0.12709007386E+00  0.19125948915E-01 0.  0.
         14    1    1    2    0    0 -0.14222162481E-02  0.82127998481E-02  0.23722264812E-01  0.25143958086E-01  0.00000000000E+00 0.  1.
     999901    1    3    3    0    0 -0.17945741615E-01  0.47245123317E-01 -0.13478704734E+00  0.89169596806E+00  0.88000000000E+00 0. -1.
        -11    1    4    4    0    0  0.21809286964E-01 -0.38128742307E-01  0.85183274417E-01  0.95843087123E-01  0.51100000000E-03 0.  1.
         11    1    4    4    0    0 -0.24413291013E-02 -0.17329180858E-01  0.25881508108E-01  0.31246986734E-01  0.51100000000E-03 0. -1.
</event>
<event>
 8    1  0.1097777E+005  0.1043930E+01  0.7957747E-01            NaN
         13   -1    0    0    0    0  0.00000000000E+00  0.00000000000E+00  0.74505805969E-08  0.10566000000E+00  0.10566000000E+00 0. -1.
     999900   -1    0    0    0    0 -0.00000000000E+00 -0.00000000000E+00 -0.74505805969E-08  0.93827000000E+00  0.93827000000E+00 0. -1.
     999902    2    1    2    0    0 -0.56373988283E-02  0.19049737166E-01  0.13612522405E-01  0.10198473607E+01  0.10195629777E+01 0.  0.
     999903    2    3    3    0    0  0.11713103319E+00  0.17214355737E-01  0.51531666499E-01  0.13051428581E+00  0.19038202841E-01 0.  0.
         14    1    1    2    0    0  0.56373988283E-02 -0.19049737166E-01 -0.13612522405E-01  0.24082639346E-01  0.00000000000E+00 0. -1.
     999901    1    3    3    0    0 -0.12276843202E+00  0.18353814292E-02 -0.37919144095E-01  0.88933307485E+00  0.88000000000E+00 0. -1.
        -11    1    4    4    0    0  0.11457079747E-01  0.42216686513E-02 -0.17215517988E-04  0.12220825664E-01  0.51100000000E-03 0.  1.
         11    1    4    4    0    0  0.10567395345E+00  0.12992687086E-01  0.51548882017E-01  0.11829346014E+00  0.51100000000E-03 0. -1.
</event>
<event>
 8    1  0.1097777E+005  0.1043930E+01  0.7957747E-01            NaN
         13   -1    0    0    0    0  0.00000000000E+00  0.00000000000E+00  0.74505805969E-08  0.10566000000E+00  0.10566000000E+00 0.  1.
     999900   -1    0    0    0    0 -0.00000000000E+00 -0.00000000000E+00 -0.74505805969E-08  0.93827000000E+00  0.93827000000E+00 0. -1.
     999902    2    1    2    0    0  0.24083372978E-01  0.78951857196E-02  0.53106076402E-03  0.10185799539E+01  0.10182644537E+01 0.  0.
     999903    2    3    3    0    0 -0.28262185813E-01  0.90441797467E-01 -0.85206829168E-01  0.12902670288E+00  0.20229098927E-01 0.  0.
         14    1    1    2    0    0 -0.24083372978E-01 -0.78951857196E-02 -0.53106076402E-03  0.25350046097E-01  0.00000000000E+00 0. -1.
     999901    1    3    3    0    0  0.52345558791E-01 -0.82546611747E-01  0.85737889932E-01  0.88955325102E+00  0.88000000000E+00 0.  1.
        -11    1    4    4    0    0 -0.78181492239E-02  0.11109662865E-01 -0.53182067394E-02  0.14597688522E-01  0.51100000000E-03 0. -1.
         11    1    4    4    0    0 -0.20444036589E-01  0.79332134602E-01 -0.79888622428E-01  0.11442901436E+00  0.51100000000E-03 0.  1.
</event>
<event>
 8    1  0.1097777E+005  0.1043930E+01  0.7957747E-01            NaN
         13   -1    0    0    0    0  0.00000000000E+00  0.00000000000E+00  0.74505805969E-08  0.10566000000E+00  0.10566000000E+00 0. -1.
     999900   -1    0    0    0    0 -0.00000000000E+00 -0.00000000000E+00 -0.74505805969E-08  0.93827000000E+00  0.93827000000E+00 0.  1.
     999902    2    1    2    0    0  0.20108749334E-01 -0.12359900528E-01  0.30007508104E-03  0.10203245136E+01  0.10200514174E+01 0.  0.
     999903    2    3    3    0    0  0.93901932608E-01 -0.92855738622E-01 -0.18650205327E-02  0.13357217986E+00  0.19957148774E-01 0.  0.
         14    1    1    2    0    0 -0.20108749334E-01  0.12359900528E-01 -0.30007508104E-03  0.23605486351E-01  0.00000000000E+00 0.  1.
     999901    1    3    3    0    0 -0.73793183274E-01  0.80495838095E-01  0.21650956138E-02  0.88675233379E+00  0.88000000000E+00 0.  1.
        -11    1    4    4    0    0  0.10335825478E-01 -0.20225617765E-01 -0.24558553812E-02  0.22851635586E-01  0.51100000000E-03 0.  1.
         11    1    4    4    0    0  0.83566107130E-01 -0.72630120857E-01  0.59083484848E-03  0.11072054427E+00  0.51100000000E-03 0. -1.
</event>
<event>
 8    1  0.1097777E+005  0.1043930E+01  0.7957747E-01            NaN
         13   -1    0    0    0    0  0.00000000000E+00  0.00000000000E+00  0.74505805969E-08  0.10566000000E+00  0.10566000000E+00 0.  1.
     999900   -1    0    0    0    0 -0.00000000000E+00 -0.00000000000E+00 -0.74505805969E-08  0.93827000000E+00  0.93827000000E+00 0. -1.
     999902    2    1    2    0    0  0.21636567219E-01  0.80535370675E-02  0.68710827412E-02  0.10198424041E+01  0.10195579026E+01 0.  0.
     999903    2    3    3    0    0  0.25319143060E-03  0.82364252850E-01  0.10049076810E+00  0.13150464356E+00  0.20276650391E-01 0.  0.
         14    1    1    2    0    0 -0.21636567219E-01 -0.80535370675E-02 -0.68710827412E-02  0.24087595944E-01  0.00000000000E+00 0. -1.
     999901    1    3    3    0    0  0.21383375788E-01 -0.74310715783E-01 -0.93619685357E-01  0.88833776050E+00  0.88000000000E+00 0. -1.
        -11    1    4    4    0    0  0.14622214713E-02  0.47035492934E-01  0.41571376041E-01  0.62792643789E-01  0.51100000000E-03 0.  1.
         11    1    4    4    0    0 -0.12090300407E-02  0.35328759917E-01  0.58919392057E-01  0.68711999769E-01  0.51100000000E-03 0. -1.
</event>
<event>
 8    1  0.1097777E+005  0.1043930E+01  0.7957747E-01            NaN
         13   -1    0    0    0    0  0.00000000000E+00  0.00000000000E+00  0.74505805969E-08  0.10566000000E+00  0.10566000000E+00 0. -1.
     999900   -1    0    0    0    0 -0.00000000000E+00 -0.00000000000E+00 -0.74505805969E-08  0.93827000000E+00  0.93827000000E+00 0. -1.
     999902    2    1    2    0    0 -0.23132532549E-01 -0.31610736823E-03 -0.69682947374E-02  0.10197686441E+01  0.10194823767E+01 0.  0.
     999903    2    3    3    0    0 -0.29968064448E-01 -0.51877881714E-01 -0.11566001022E+00  0.13155739106E+00  0.18458322777E-01 0.  0.
         14    1    1    2    0    0  0.23132532549E-01  0.31610736823E-03  0.69682947374E-02  0.24161355871E-01  0.00000000000E+00 0.  1.
     999901    1    3    3    0    0  0.68355318990E-02  0.51561774346E-01  0.10869171548E+00  0.88821125307E+00  0.88000000000E+00 0. -1.
        -11    1    4    4    0    0 -0.14480243692E-01 -0.28140052674E-01 -0.79785672075E-01  0.85834460511E-01  0.51100000000E-03 0. -1.
         11    1    4    4    0    0 -0.15487820756E-01 -0.23737829040E-01 -0.35874338145E-01  0.45722930545E-01  0.51100000000E-03 0.  1.
</event>
<event>
 8    1  0.1097777E+005  0.1043930E+01  0.7957747E-01            NaN
         13   -1    0    0    0    0  0.00000000000E+00  0.00000000000E+00  0.74505805969E-08  0.10566000000E+00  0.10566000000E+00 0. -1.
     999900   -1    0    0    0    0 -0.00000000000E+00 -0.00000000000E+00 -0.74505805969E-08  0.93827000000E+00  0.93827000000E+00 0.  1.
     999902    2    1    2    0    0 -0.95117617070E-02  0.20088908540E-01  0.84380325764E-02  0.10201552602E+01  0.10198781872E+01 0.  0.
     999903    2    3    3    0    0  0.14476872601E-01 -0.66769564677E-01 -0.10659390014E+00  0.12810582523E+00  0.19521483130E-01 0.  0.
         14    1    1    2    0    0  0.95117617070E-02 -0.20088908540E-01 -0.84380325764E-02  0.23774739765E-01  0.00000000000E+00 0.  1.
     999901    1    3    3    0    0 -0.23988634308E-01  0.86858473217E-01  0.11503193272E+00  0.89204943500E+00  0.88000000000E+00 0. -1.
        -11    1    4    4    0    0  0.11287183489E-01 -0.42525968220E-01 -0.50926688547E-01  0.67302653823E-01  0.51100000000E-03 0. -1.
         11    1    4    4    0    0  0.31896891119E-02 -0.24243596457E-01 -0.55667211594E-01  0.60803171409E-01  0.51100000000E-03 0.  1.
</event>
<event>
 8    1  0.1097777E+005  0.1043930E+01  0.7957747E-01            NaN
         13   -1    0    0    0    0  0.00000000000E+00  0.00000000000E+00  0.74505805969E-08  0.10566000000E+00  0.10566000000E+00 0. -1.
     999900   -1    0    0    0    0 -0.00000000000E+00 -0.00000000000E+00 -0.74505805969E-08  0.93827000000E+00  0.93827000000E+00 0. -1.
     999902    2    1    2    0    0  0.35770357810E-02  0.92667662106E-02 -0.21465816592E-01  0.10202773168E+01  0.10200031146E+01 0.  0.
     999903    2    3    3    0    0 -0.28900372496E-01  0.78341096334E-01  0.96359976168E-01  0.12914940085E+00  0.20536889438E-01 0.  0.
         14    1    1    2    0    0 -0.35770357810E-02 -0.92667662106E-02  0.21465816592E-01  0.23652683208E-01  0.00000000000E+00 0. -1.
     999901    1    3    3    0    0  0.32477408277E-01 -0.69074330123E-01 -0.11782579276E+00  0.89112791594E+00  0.88000000000E+00 0. -1.
        -11    1    4    4    0    0 -0.15240601833E-01  0.23657397331E-01  0.43900038745E-01  0.52148086403E-01  0.51100000000E-03 0. -1.
         11    1    4    4    0    0 -0.13659770663E-01  0.54683699003E-01  0.52459937423E-01  0.77001314447E-01  0.51100000000E-03 0.  1.
</event>
<event>
 8    1  0.1097777E+005  0.1043930E+01  0.7957747E-01            NaN
         13   -1    0    0    0    0  0.00000000000E+00  0.00000000000E+00  0.74505805969E-08  0.10566000000E+00  0.10566000000E+00 0.  1.
     999900   -1    0    0    0    0 -0.00000000000E+00 -0.00000000000E+00 -0.74505805969E-08  0.93827000000E+00  0.93827000000E+00 0.  1.
     999902    2    1    2    0    0 -0.85514310776E-02 -0.97261818830E-02  0.20415728760E-01  0.10197529951E+01  0.10194663522E+01 0.  0.
     999903    2    3    3    0    0 -0.97283079033E-01  0.54509905777E-02 -0.81750990744E-01  0.12928026078E+00  0.23161402684E-01 0.  0.
         14    1    1    2    0    0  0.85514310776E-02  0.97261818830E-02 -0.20415728760E-01  0.24177004949E-01  0.00000000000E+00 0. -1.
     999901    1    3    3    0    0  0.88731647955E-01 -0.15177172461E-01  0.10216671950E+00  0.89047273427E+00  0.88000000000E+00 0. -1.
        -11    1    4    4    0    0 -0.19267085615E-01  0.84752091629E-02 -0.10276748805E-01  0.23429093995E-01  0.51100000000E-03 0.  1.
         11    1    4    4    0    0 -0.78015993418E-01 -0.30242185852E-02 -0.71474241939E-01  0.10585116678E+00  0.51100000000E-03 0. -1.
</event>
<event>
 8    1  0.1097777E+005  0.1043930E+01  0.7957747E-01            NaN
         13   -1    0    0    0    0  0.00000000000E+00  0.00000000000E+00  0.74505805969E-08  0.10566000000E+00  0.10566000000E+00 0.  1.
     999900   -1    0    0    0    0 -0.00000000000E+00 -0.00000000000E+00 -0.74505805969E-08  0.93827000000E+00  0.93827000000E+00 0. -1.
     999902    2    1    2    0    0  0.12108437634E-01 -0.18335254561E-01 -0.77301524435E-02  0.10206372741E+01  0.10203714492E+01 0.  0.
     999903    2    3    3    0    0 -0.17254288120E-01  0.10011530312E+00  0.75707075532E-01  0.12830635161E+00  0.20252757820E-01 0.  0.
         14    1    1    2    0    0 -0.12108437634E-01  0.18335254561E-01  0.77301524435E-02  0.23292725872E-01  0.00000000000E+00 0. -1.
     999901    1    3    3    0    0  0.29362725753E-01 -0.11845055768E+00 -0.83437227976E-01  0.89233092252E+00  0.88000000000E+00 0. -1.
        -11    1    4    4    0    0 -0.59563997478E-02  0.51500873972E-01  0.50554437373E-01  0.72414300915E-01  0.51100000000E-03 0. -1.
         11    1    4    4    0    0 -0.11297888372E-01  0.48614429148E-01  0.25152638159E-01  0.55892050691E-01  0.51100000000E-03 0.  1.
</event>
<event>
 8    1  0.1097777E+005  0.1043930E+01  0.7957747E-01            NaN
         13   -1    0    0    0    0  0.00000000000E+00  0.00000000000E+00  0.74505805969E-08  0.10566000000E+00  0.10566000000E+00 0.  1.
     999900   -1    0    0    0    0 -0.00000000000E+00 -0.00000000000E+00 -0.74505805969E-08  0.93827000000E+00  0.93827000000E+00 0. -1.
     999902    2    1    2    0    0 -0.18317799766E-01 -0.38505410073E-02  0.13114333806E-01  0.10210749304E+01  0.10208191120E+01 0.  0.
     999903    2    3    3    0    0 -0.83243879487E-01 -0.97041837853E-01  0.33340093092E-01  0.13354515910E+00  0.19392935476E-01 0.  0.
         14    1    1    2    0    0  0.18317799766E-01  0.38505410073E-02 -0.13114333806E-01  0.22855069580E-01  0.00000000000E+00 0. -1.
     999901    1    3    3    0    0  0.64926079721E-01  0.93191296846E-01 -0.20225759286E-01  0.88752977132E+00  0.88000000000E+00 0. -1.
        -11    1    4    4    0    0 -0.64744885795E-01 -0.61899480847E-01  0.21907173112E-01  0.92215136071E-01  0.51100000000E-03 0. -1.
         11    1    4    4    0    0 -0.18498993692E-01 -0.35142357006E-01  0.11432919980E-01  0.41330023032E-01  0.51100000000E-03 0.  1.
</event>
<event>
 8    1  0.1097777E+005  0.1043930E+01  0.7957747E-01            NaN
         13   -1    0    0    0    0  0.00000000000E+00  0.00000000000E+00  0.74505805969E-08  0.10566000000E+00  0.10566000000E+00 0.  1.
     999900   -1    0    0    0    0 -0.00000000000E+00 -0.00000000000E+00 -0.74505805969E-08  0.93827000000E+00  0.93827000000E+00 0.  1.
     999902    2    1    2    0    0  0.22362937084E-01  0.45315664101E-02  0.55802953156E-02  0.10204400927E+01  0.10201696952E+01 0.  0.
     999903    2    3    3    0    0  0.83862429767E-01  0.50999377811E-01 -0.86300343916E-01  0.13230525104E+00  0.20569064887E-01 0.  0.
         14    1    1    2    0    0 -0.22362937084E-01 -0.45315664101E-02 -0.55802953156E-02  0.23489907300E-01  0.00000000000E+00 0. -1.
     999901    1    3    3    0    0 -0.61499492683E-01 -0.46467811401E-01  0.91880639231E-01  0.88813484166E+00  0.88000000000E+00 0. -1.
        -11    1    4    4    0    0  0.36028758536E-01  0.33929276905E-01 -0.42345427632E-01  0.65135732400E-01  0.51100000000E-03 0. -1.
         11    1    4    4    0    0  0.47833671231E-01  0.17070100906E-01 -0.43954916283E-01  0.67169518644E-01  0.51100000000E-03 0.  1.
</event>
<event>
 8    1  0.1097777E+005  0.1043930E+01  0.7957747E-01            NaN
         13   -1    0    0    0    0  0.00000000000E+00  0.00000000000E+00  0.74505805969E-08  0.10566000000E+00  0.10566000000E+00 0. -1.
     999900   -1    0    0    0    0 -0.00000000000E+00 -0.00000000000E+00 -0.74505805969E-08  0.93827000000E+00  0.93827000000E+00 0.  1.
     999902    2    1    2    0    0  0.14554050858E-01  0.29980271926E-03  0.19637985349E-01  0.10194849443E+01  0.10191918323E+01 0.  0.
     999903    2    3    3    0    0 -0.37254968824E-01  0.86281991875E-01  0.89242954918E-01  0.13104701000E+00  0.19403582228E-01 0.  0.
         14    1    1    2    0    0 -0.14554050858E-01 -0.29980271926E-03 -0.19637985349E-01  0.24445055668E-01  0.00000000000E+00 0.  1.
     999901    1    3    3    0    0  0.51809019682E-01 -0.85982189156E-01 -0.69604969569E-01  0.88843793433E+00  0.88000000000E+00 0.  1.
        -11    1    4    4    0    0 -0.95604131072E-02  0.18411017246E-01  0.97966442645E-02  0.22947819388E-01  0.51100000000E-03 0. -1.
         11    1    4    4    0    0 -0.27694555717E-01  0.67870974630E-01  0.79446310653E-01  0.10809919061E+00  0.51100000000E-03 0.  1.
</event>
<event>
 8    1  0.1097777E+005  0.1043930E+01  0.7957747E-01            NaN
         13   -1    0    0    0    0  0.00000000000E+00  0.00000000000E+00  0.74505805969E-08  0.10566000000E+00  0.10566000000E+00 0. -1.
     999900   -1    0    0    0    0 -0.00000000000E+00 -0.00000000000E+00 -0.74505805969E-08  0.93827000000E+00  0.93827000000E+00 0. -1.
     999902    2    1    2    0    0 -0.78050652556E-02  0.20626288624E-01  0.11480716077E-01  0.10190669819E+01  0.10187636350E+01 0.  0.
     999903    2    3    3    0    0  0.46085668316E-02  0.76655322544E-01  0.10573001760E+00  0.13217562345E+00  0.19856521580E-01 0.  0.
         14    1    1    2    0    0  0.78050652556E-02 -0.20626288624E-01 -0.11480716077E-01  0.24863018073E-01  0.00000000000E+00 0. -1.
     999901    1    3    3    0    0 -0.12413632087E-01 -0.56029033920E-01 -0.94249301527E-01  0.88689135848E+00  0.88000000000E+00 0. -1.
        -11    1    4    4    0    0  0.10657308635E-01  0.46330839304E-01  0.73255229916E-01  0.87331063941E-01  0.51100000000E-03 0.  1.
         11    1    4    4    0    0 -0.60487418035E-02  0.30324483241E-01  0.32474787687E-01  0.44844559509E-01  0.51100000000E-03 0. -1.
</event>
<event>
 8    1  0.1097777E+005  0.1043930E+01  0.7957747E-01            NaN
         13   -1    0    0    0    0  0.00000000000E+00  0.00000000000E+00  0.74505805969E-08  0.10566000000E+00  0.10566000000E+00 0. -1.
     999900   -1    0    0    0    0 -0.00000000000E+00 -0.00000000000E+00 -0.74505805969E-08  0.93827000000E+00  0.93827000000E+00 0.  1.
     999902    2    1    2    0    0  0.16132202549E-01  0.12791528563E-01  0.82769138578E-02  0.10217403974E+01  0.10214994181E+01 0.  0.
     999903    2    3    3    0    0 -0.26142370402E-02 -0.75924998364E-01 -0.10363880609E+00  0.13003014200E+00  0.19884569133E-01 0.  0.
         14    1    1    2    0    0 -0.16132202549E-01 -0.12791528563E-01 -0.82769138578E-02  0.22189602635E-01  0.00000000000E+00 0.  1.
     999901    1    3    3    0    0  0.18746439590E-01  0.88716526927E-01  0.11191571995E+00  0.89171025536E+00  0.88000000000E+00 0.  1.
        -11    1    4    4    0    0 -0.59083541819E-02 -0.63665567116E-01 -0.74092095285E-01  0.97867833275E-01  0.51100000000E-03 0. -1.
         11    1    4    4    0    0  0.32941171416E-02 -0.12259431248E-01 -0.29546710805E-01  0.32162308727E-01  0.51100000000E-03 0.  1.
</event>
<event>
 8    1  0.1119294E+005  0.1043930E+01  0.7957747E-01            NaN
         13   -1    0    0    0    0  0.00000000000E+00  0.00000000000E+00  0.74505805969E-08  0.10566000000E+00  0.10566000000E+00 0.  1.
     999900   -1    0    0    0    0 -0.00000000000E+00 -0.00000000000E+00 -0.74505805969E-08  0.93827000000E+00  0.93827000000E+00 0.  1.
     999902    2    1    2    0    0  0.69765275361E-02 -0.27045834138E-03  0.22436801434E-01  0.10204320183E+01  0.10201614328E+01 0.  0.
     999903    2    3    3    0    0 -0.15929620750E-01 -0.11334959767E+00  0.62631621499E-01  0.13199113287E+00  0.19926239879E-01 0.  0.
         14    1    1    2    0    0 -0.69765275361E-02  0.27045834138E-03 -0.22436801434E-01  0.23497981675E-01  0.00000000000E+00 0. -1.
     999901    1    3    3    0    0  0.22906148286E-01  0.11307913933E+00 -0.40194820064E-01  0.88844088545E+00  0.88000000000E+00 0.  1.
        -11    1    4    4    0    0 -0.11770774766E-01 -0.35264606427E-01  0.27601690192E-01  0.46306133800E-01  0.51100000000E-03 0.  1.
         11    1    4    4    0    0 -0.41588459839E-02 -0.78084991247E-01  0.35029931307E-01  0.85684999074E-01  0.51100000000E-03 0. -1.
</event>
<event>
 8    1  0.1097777E+005  0.1043930E+01  0.7957747E-01            NaN
         13   -1    0    0    0    0  0.00000000000E+00  0.00000000000E+00  0.74505805969E-08  0.10566000000E+00  0.10566000000E+00 0. -1.
     999900   -1    0    0    0    0 -0.00000000000E+00 -0.00000000000E+00 -0.74505805969E-08  0.93827000000E+00  0.93827000000E+00 0.  1.
     999902    2    1    2    0    0  0.54432153269E-02  0.19827064791E-01 -0.10547084529E-01  0.10208219477E+01  0.10205603690E+01 0.  0.
     999903    2    3    3    0    0  0.83792783692E-01 -0.57223405786E-01 -0.80806026122E-01  0.13120868968E+00  0.19757470028E-01 0.  0.
         14    1    1    2    0    0 -0.54432153269E-02 -0.19827064791E-01  0.10547084529E-01  0.23108052350E-01  0.00000000000E+00 0. -1.
     999901    1    3    3    0    0 -0.78349568365E-01  0.77050470577E-01  0.70258941594E-01  0.88961325797E+00  0.88000000000E+00 0.  1.
        -11    1    4    4    0    0  0.43446996688E-01 -0.41265851343E-01 -0.44643587985E-01  0.74724982954E-01  0.51100000000E-03 0.  1.
         11    1    4    4    0    0  0.40345787003E-01 -0.15957554443E-01 -0.36162438137E-01  0.56483706728E-01  0.51100000000E-03 0. -1.
</event>
<event>
 8    1  0.1097777E+005  0.1043930E+01  0.7957747E-01            NaN
         13   -1    0    0    0    0  0.00000000000E+00  0.00000000000E+00  0.74505805969E-08  0.10566000000E+00  0.10566000000E+00 0.  1.
     999900   -1    0    0    0    0 -0.00000000000E+00 -0.00000000000E+00 -0.74505805969E-08  0.93827000000E+00  0.93827000000E+00 0. -1.
     999902    2    1    2    0    0 -0.15055348549E-01 -0.11028347897E-01 -0.13160937760E-01  0.10210936636E+01  0.10208382691E+01 0.  0.
     999903    2    3    3    0    0 -0.83509787258E-02  0.10734039881E+00  0.68822307757E-01  0.12936648486E+00  0.20186066914E-01 0.  0.
         14    1    1    2    0    0  0.15055348549E-01  0.11028347897E-01  0.13160937760E-01  0.22836336396E-01  0.00000000000E+00 0.  1.
     999901    1    3    3    0    0 -0.67043698234E-02 -0.11836874670E+00 -0.81983245517E-01  0.89172717875E+00  0.88000000000E+00 0. -1.
        -11    1    4    4    0    0  0.41489088621E-02  0.41443522159E-01  0.34136533516E-01  0.53854832793E-01  0.51100000000E-03 0. -1.
         11    1    4    4    0    0 -0.12499887588E-01  0.65896876648E-01  0.34685774241E-01  0.75511652063E-01  0.51100000000E-03 0.  1.
</event>
<event>
 8    1  0.1097777E+005  0.1043930E+01  0.7957747E-01            NaN
         13   -1    0    0    0    0  0.00000000000E+00  0.00000000000E+00  0.74505805969E-08  0.10566000000E+00  0.10566000000E+00 0. -1.
     999900   -1    0    0    0    0 -0.00000000000E+00 -0.00000000000E+00 -0.74505805969E-08  0.93827000000E+00  0.93827000000E+00 0. -1.
     999902    2    1    2    0    0  0.21461952027E-01 -0.26273387837E-01  0.71824367247E-02  0.10092530092E+01  0.10086570988E+01 0.  0.
     999903    2    3    3    0    0  0.22005962054E-01  0.11413894987E+00 -0.60154023809E-02  0.11802346331E+00  0.19529223757E-01 0.  0.
         14    1    1    2    0    0 -0.21461952027E-01  0.26273387837E-01 -0.71824367247E-02  0.34676990794E-01  0.00000000000E+00 0. -1.
     999901    1    3    3    0    0 -0.54401002715E-03 -0.14041233771E+00  0.13197839106E-01  0.89122954590E+00  0.88000000000E+00 0.  1.
        -11    1    4    4    0    0  0.24374506892E-01  0.81077342468E-01 -0.26818165448E-02  0.84705993347E-01  0.51100000000E-03 0.  1.
         11    1    4    4    0    0 -0.23685448378E-02  0.33061607406E-01 -0.33335858361E-02  0.33317469959E-01  0.51100000000E-03 0. -1.
</event>
<event>
 8    1  0.1097777E+005  0.1043930E+01  0.7957747E-01            NaN
         13   -1    0    0    0    0  0.00000000000E+00  0.00000000000E+00  0.74505805969E-08  0.10566000000E+00  0.10566000000E+00 0.  1.
     999900   -1    0    0    0    0 -0.00000000000E+00 -0.00000000000E+00 -0.74505805969E-08  0.93827000000E+00  0.93827000000E+00 0. -1.
     999902    2    1    2    0    0  0.22591824980E-01 -0.93974830732E-05  0.62753713274E-02  0.10204828055E+01  0.10202134019E+01 0.  0.
     999903    2    3    3    0    0 -0.58549329308E-02 -0.82580062003E-01 -0.97955570819E-01  0.13003840973E+00  0.21469682581E-01 0.  0.
         14    1    1    2    0    0 -0.22591824980E-01  0.93974830732E-05 -0.62753713274E-02  0.23447194492E-01  0.00000000000E+00 0. -1.
     999901    1    3    3    0    0  0.28446757911E-01  0.82570664520E-01  0.10423094215E+00  0.89044439578E+00  0.88000000000E+00 0.  1.
        -11    1    4    4    0    0 -0.40664065397E-02 -0.58289224745E-01 -0.52916155223E-01  0.78832417114E-01  0.51100000000E-03 0. -1.
         11    1    4    4    0    0 -0.17885263911E-02 -0.24290837259E-01 -0.45039415596E-01  0.51205992614E-01  0.51100000000E-03 0.  1.
</event>
<event>
 8    1  0.1097777E+005  0.1043930E+01  0.7957747E-01            NaN
         13   -1    0    0    0    0  0.00000000000E+00  0.00000000000E+00  0.74505805969E-08  0.10566000000E+00  0.10566000000E+00 0.  1.
     999900   -1    0    0    0    0 -0.00000000000E+00 -0.00000000000E+00 -0.74505805969E-08  0.93827000000E+00  0.93827000000E+00 0.  1.
     999902    2    1    2    0    0  0.29001713041E-02  0.18959670947E-01 -0.27212399666E-02  0.10245577192E+01  0.10243745578E+01 0.  0.
     999903    2    3    3    0    0  0.19044935120E-01 -0.12925266734E+00  0.16914676820E-02  0.13200686766E+00  0.18814634668E-01 0.  0.
         14    1    1    2    0    0 -0.29001713041E-02 -0.18959670947E-01  0.27212399666E-02  0.19372280789E-01  0.00000000000E+00 0.  1.
     999901    1    3    3    0    0 -0.16144763816E-01  0.14821233829E+00 -0.44127076486E-02  0.89255085155E+00  0.88000000000E+00 0.  1.
        -11    1    4    4    0    0  0.11096308240E-01 -0.10793554406E+00  0.66759444626E-02  0.10871080481E+00  0.51100000000E-03 0.  1.
         11    1    4    4    0    0  0.79486268802E-02 -0.21317123285E-01 -0.49844767807E-02  0.23296062848E-01  0.51100000000E-03 0. -1.
</event>
<event>
 8    1  0.1097777E+005  0.1043930E+01  0.7957747E-01            NaN
         13   -1    0    0    0    0  0.00000000000E+00  0.00000000000E+00  0.74505805969E-08  0.10566000000E+00  0.10566000000E+00 0. -1.
     999900   -1    0    0    0    0 -0.00000000000E+00 -0.00000000000E+00 -0.74505805969E-08  0.93827000000E+00  0.93827000000E+00 0. -1.
     999902    2    1    2    0    0  0.92882709615E-02 -0.13192452497E-01  0.16614843418E-01  0.10207704274E+01  0.10205076676E+01 0.  0.
     999903    2    3    3    0    0  0.43650142734E-01  0.51617520458E-01  0.11231856078E+00  0.13254732913E+00  0.19586525586E-01 0.  0.
         14    1    1    2    0    0 -0.92882709615E-02  0.13192452497E-01 -0.16614843418E-01  0.23159572581E-01  0.00000000000E+00 0. -1.
     999901    1    3    3    0    0 -0.34361871772E-01 -0.64809972955E-01 -0.95703717357E-01  0.88822309829E+00  0.88000000000E+00 0. -1.
        -11    1    4    4    0    0  0.29051956079E-01  0.20615889576E-01  0.49490548755E-01  0.60980378747E-01  0.51100000000E-03 0. -1.
         11    1    4    4    0    0  0.14598186654E-01  0.31001630882E-01  0.62828012021E-01  0.71566950378E-01  0.51100000000E-03 0.  1.
</event>
<event>
 8    1  0.1097777E+005  0.1043930E+01  0.7957747E-01            NaN
         13   -1    0    0    0    0  0.00000000000E+00  0.00000000000E+00  0.74505805969E-08  0.10566000000E+00  0.10566000000E+00 0. -1.
     999900   -1    0    0    0    0 -0.00000000000E+00 -0.00000000000E+00 -0.74505805969E-08  0.93827000000E+00  0.93827000000E+00 0.  1.
     999902    2    1    2    0    0  0.97585531774E-02 -0.19162646312E-01  0.91517815263E-02  0.10205592602E+01  0.10202916309E+01 0.  0.
     999903    2    3    3    0    0 -0.65012944688E-01  0.72025649162E-01 -0.81042319411E-01  0.12812379588E+00  0.20820000514E-01 0.  0.
         14    1    1    2    0    0 -0.97585531774E-02  0.19162646312E-01 -0.91517815263E-02  0.23370739803E-01  0.00000000000E+00 0.  1.
     999901    1    3    3    0    0  0.74771497866E-01 -0.91188295474E-01  0.90194100937E-01  0.89243546432E+00  0.88000000000E+00 0.  1.
        -11    1    4    4    0    0 -0.21550678681E-01  0.14728058196E-01 -0.30891985003E-01  0.40446548781E-01  0.51100000000E-03 0. -1.
         11    1    4    4    0    0 -0.43462266007E-01  0.57297590966E-01 -0.50150334408E-01  0.87677247101E-01  0.51100000000E-03 0.  1.
</event>
<event>
 8    1  0.1097777E+005  0.1043930E+01  0.7957747E-01            NaN
         13   -1    0    0    0    0  0.00000000000E+00  0.00000000000E+00  0.74505805969E-08  0.10566000000E+00  0.10566000000E+00 0. -1.
     999900   -1    0    0    0    0 -0.00000000000E+00 -0.00000000000E+00 -0.74505805969E-08  0.93827000000E+00  0.93827000000E+00 0. -1.
     999902    2    1    2    0    0  0.17831741702E-01  0.73498212372E-03 -0.13609056915E-01  0.10214863452E+01  0.10212397543E+01 0.  0.
     999903    2    3    3    0    0  0.62651993988E-01 -0.87239826810E-01 -0.77094677100E-01  0.13369197374E+00  0.19846784940E-01 0.  0.
         14    1    1    2    0    0 -0.17831741702E-01 -0.73498212372E-03  0.13609056915E-01  0.22443654804E-01  0.00000000000E+00 0. -1.
     999901    1    3    3    0    0 -0.44820252286E-01  0.87974808934E-01  0.63485620185E-01  0.88779437146E+00  0.88000000000E+00 0.  1.
        -11    1    4    4    0    0  0.26268940615E-01 -0.25795724900E-01 -0.17915893916E-01  0.40947735468E-01  0.51100000000E-03 0.  1.
         11    1    4    4    0    0  0.36383053373E-01 -0.61444101910E-01 -0.59178783183E-01  0.92744238270E-01  0.51100000000E-03 0. -1.
</event>
<event>
 8    1  0.1097777E+005  0.1043930E+01  0.7957747E-01            NaN
         13   -1    0    0    0    0  0.00000000000E+00  0.00000000000E+00  0.74505805969E-08  0.10566000000E+00  0.10566000000E+00 0.  1.
     999900   -1    0    0    0    0 -0.00000000000E+00 -0.00000000000E+00 -0.74505805969E-08  0.93827000000E+00  0.93827000000E+00 0. -1.
     999902    2    1    2    0    0 -0.12598746050E-01 -0.14291242040E-02 -0.19903105845E-01  0.10203311776E+01  0.10200582373E+01 0.  0.
     999903    2    3    3    0    0 -0.36144309775E-01 -0.11372546487E+00 -0.53298708507E-01  0.13225453224E+00  0.20263673929E-01 0.  0.
         14    1    1    2    0    0  0.12598746050E-01  0.14291242040E-02  0.19903105845E-01  0.23598822435E-01  0.00000000000E+00 0. -1.
     999901    1    3    3    0    0  0.23545563725E-01  0.11229634066E+00  0.33395602662E-01  0.88807664533E+00  0.88000000000E+00 0. -1.
        -11    1    4    4    0    0 -0.12488126564E-01 -0.52912831897E-01 -0.34327419274E-01  0.64298941822E-01  0.51100000000E-03 0.  1.
         11    1    4    4    0    0 -0.23656183210E-01 -0.60812632969E-01 -0.18971289233E-01  0.67955590417E-01  0.51100000000E-03 0. -1.
</event>
<event>
 8    1  0.1097777E+005  0.1043930E+01  0.7957747E-01            NaN
         13   -1    0    0    0    0  0.00000000000E+00  0.00000000000E+00  0.74505805969E-08  0.10566000000E+00  0.10566000000E+00 0.  1.
     999900   -1    0    0    0    0 -0.00000000000E+00 -0.00000000000E+00 -0.74505805969E-08  0.93827000000E+00  0.93827000000E+00 0.  1.
     999902    2    1    2    0    0 -0.15612044065E-01  0.14407598660E-01  0.10942546815E-01  0.10200332607E+01  0.10197533029E+01 0.  0.
     999903    2    3    3    0    0  0.61609937766E-01 -0.58194317790E-01 -0.93144264593E-01  0.12758251299E+00  0.20471456723E-01 0.  0.
         14    1    1    2    0    0  0.15612044065E-01 -0.14407598660E-01 -0.10942546815E-01  0.23896739314E-01  0.00000000000E+00 0.  1.
     999901    1    3    3    0    0 -0.77221981831E-01  0.72601916449E-01  0.10408681141E+00  0.89245074769E+00  0.88000000000E+00 0. -1.
        -11    1    4    4    0    0  0.16412300786E-01 -0.27176392450E-01 -0.27044755174E-01  0.41708510248E-01  0.51100000000E-03 0.  1.
         11    1    4    4    0    0  0.45197636980E-01 -0.31017925340E-01 -0.66099509419E-01  0.85874002744E-01  0.51100000000E-03 0. -1.
</event>
<event>
 8    1  0.1097777E+005  0.1043930E+01  0.7957747E-01            NaN
         13   -1    0    0    0    0  0.00000000000E+00  0.00000000000E+00  0.74505805969E-08  0.10566000000E+00  0.10566000000E+00 0.  1.
     999900   -1    0    0    0    0 -0.00000000000E+00 -0.00000000000E+00 -0.74505805969E-08  0.93827000000E+00  0.93827000000E+00 0. -1.
     999902    2    1    2    0    0 -0.11454265427E-01 -0.99428958935E-02  0.16232794114E-01  0.10217136776E+01  0.10214721112E+01 0.  0.
     999903    2    3    3    0    0 -0.14823284394E-01 -0.11623949504E+00  0.62203715081E-01  0.13411937680E+00  0.19681338759E-01 0.  0.
         14    1    1    2    0    0  0.11454265427E-01  0.99428958935E-02 -0.16232794114E-01  0.22216322377E-01  0.00000000000E+00 0. -1.
     999901    1    3    3    0    0  0.33690189676E-02  0.10629659915E+00 -0.45970920966E-01  0.88759430082E+00  0.88000000000E+00 0. -1.
        -11    1    4    4    0    0  0.44288353046E-02 -0.27836308848E-01  0.17730288690E-01  0.33303136946E-01  0.51100000000E-03 0.  1.
         11    1    4    4    0    0 -0.19252119699E-01 -0.88403186194E-01  0.44473426390E-01  0.10081623985E+00  0.51100000000E-03 0. -1.
</event>
<event>
 8    1  0.1097777E+005  0.1043930E+01  0.7957747E-01            NaN
         13   -1    0    0    0    0  0.00000000000E+00  0.00000000000E+00  0.74505805969E-08  0.10566000000E+00  0.10566000000E+00 0. -1.
     999900   -1    0    0    0    0 -0.00000000000E+00 -0.00000000000E+00 -0.74505805969E-08  0.93827000000E+00  0.93827000000E+00 0.  1.
     999902    2    1    2    0    0  0.94169338985E-02  0.26220025253E-01 -0.50753922771E-03  0.10160655789E+01  0.10156834323E+01 0.  0.
     999903    2    3    3    0    0 -0.82350421871E-01  0.70311610257E-01  0.63566481922E-01  0.12788159139E+00  0.24242303361E-01 0.  0.
         14    1    1    2    0    0 -0.94169338985E-02 -0.26220025253E-01  0.50753922771E-03  0.27864421120E-01  0.00000000000E+00 0.  1.
     999901    1    3    3    0    0  0.91767355770E-01 -0.44091585004E-01 -0.64074021150E-01  0.88818398749E+00  0.88000000000E+00 0. -1.
        -11    1    4    4    0    0 -0.25483091239E-01  0.18378383614E-01  0.66533098578E-02  0.32119784813E-01  0.51100000000E-03 0. -1.
         11    1    4    4    0    0 -0.56867330632E-01  0.51933226643E-01  0.56913172065E-01  0.95761806573E-01  0.51100000000E-03 0.  1.
</event>
<event>
 8    1  0.1097777E+005  0.1043930E+01  0.7957747E-01            NaN
         13   -1    0    0    0    0  0.00000000000E+00  0.00000000000E+00  0.74505805969E-08  0.10566000000E+00  0.10566000000E+00 0.  1.
     999900   -1    0    0    0    0 -0.00000000000E+00 -0.00000000000E+00 -0.74505805969E-08  0.93827000000E+00  0.93827000000E+00 0. -1.
     999902    2    1    2    0    0 -0.18082346491E-01 -0.11631715068E-01  0.10087298795E-01  0.10201808601E+01  0.10199043904E+01 0.  0.
     999903    2    3    3    0    0  0.11736544427E+00 -0.25470396683E-01 -0.39825800496E-01  0.12831263516E+00  0.21322507840E-01 0.  0.
         14    1    1    2    0    0  0.18082346491E-01  0.11631715068E-01 -0.10087298795E-01  0.23749139921E-01  0.00000000000E+00 0.  1.
     999901    1    3    3    0    0 -0.13544779076E+00  0.13838681614E-01  0.49913099291E-01  0.89186822491E+00  0.88000000000E+00 0.  1.
        -11    1    4    4    0    0  0.54798729298E-01 -0.17917009263E-01 -0.97247831164E-02  0.58470099036E-01  0.51100000000E-03 0. -1.
         11    1    4    4    0    0  0.62566714976E-01 -0.75533874193E-02 -0.30101017380E-01  0.69842536127E-01  0.51100000000E-03 0.  1.
</event>
<event>
 8    1  0.1097777E+005  0.1043930E+01  0.7957747E-01            NaN
         13   -1    0    0    0    0  0.00000000000E+00  0.00000000000E+00  0.74505805969E-08  0.10566000000E+00  0.10566000000E+00 0. -1.
     999900   -1    0    0    0    0 -0.00000000000E+00 -0.00000000000E+00 -0.74505805969E-08  0.93827000000E+00  0.93827000000E+00 0.  1.
     999902    2    1    2    0    0  0.16144821909E-01 -0.13975649135E-01  0.12394753005E-01  0.10192398411E+01  0.10189407489E+01 0.  0.
     999903    2    3    3    0    0  0.13320136848E-01 -0.61987772330E-01 -0.11086825136E+00  0.12934832467E+00  0.20477059623E-01 0.  0.
         14    1    1    2    0    0 -0.16144821909E-01  0.13975649135E-01 -0.12394753005E-01  0.24690158875E-01  0.00000000000E+00 0.  1.
     999901    1    3    3    0    0  0.28246850608E-02  0.48012123195E-01  0.12326300436E+00  0.88989151646E+00  0.88000000000E+00 0. -1.
        -11    1    4    4    0    0  0.10018528005E-01 -0.26027752103E-01 -0.66679193628E-01  0.72278563674E-01  0.51100000000E-03 0. -1.
         11    1    4    4    0    0  0.33016088435E-02 -0.35960020227E-01 -0.44189057730E-01  0.57069760993E-01  0.51100000000E-03 0.  1.
</event>
<event>
 8    1  0.1097777E+005  0.1043930E+01  0.7957747E-01            NaN
         13   -1    0    0    0    0  0.00000000000E+00  0.00000000000E+00  0.74505805969E-08  0.10566000000E+00  0.10566000000E+00 0.  1.
     999900   -1    0    0    0    0 -0.00000000000E+00 -0.00000000000E+00 -0.74505805969E-08  0.93827000000E+00  0.93827000000E+00 0. -1.
     999902    2    1    2    0    0  0.18269624450E-01 -0.13312000599E-01 -0.75707151208E-02  0.10200908669E+01  0.10198122732E+01 0.  0.
     999903    2    3    3    0    0 -0.16913504069E-01  0.67474371536E-01 -0.10810499050E+00  0.12999456261E+00  0.19314240979E-01 0.  0.
         14    1    1    2    0    0 -0.18269624450E-01  0.13312000599E-01  0.75707151208E-02  0.23839133058E-01  0.00000000000E+00 0.  1.
     999901    1    3    3    0    0  0.35183128519E-01 -0.80786372135E-01  0.10053427538E+00  0.89009630433E+00  0.88000000000E+00 0.  1.
        -11    1    4    4    0    0 -0.12977755428E-01  0.21812997667E-01 -0.49150560134E-01  0.55319686240E-01  0.51100000000E-03 0.  1.
         11    1    4    4    0    0 -0.39357486412E-02  0.45661373870E-01 -0.58954430363E-01  0.74674876373E-01  0.51100000000E-03 0. -1.
</event>
<event>
 8    1  0.1097777E+005  0.1043930E+01  0.7957747E-01            NaN
         13   -1    0    0    0    0  0.00000000000E+00  0.00000000000E+00  0.74505805969E-08  0.10566000000E+00  0.10566000000E+00 0. -1.
     999900   -1    0    0    0    0 -0.00000000000E+00 -0.00000000000E+00 -0.74505805969E-08  0.93827000000E+00  0.93827000000E+00 0. -1.
     999902    2    1    2    0    0  0.11607170757E-01 -0.10893626849E-01 -0.16491805070E-01  0.10210088928E+01  0.10207515771E+01 0.  0.
     999903    2    3    3    0    0  0.11355322178E+00  0.37556815228E-01 -0.55106026586E-01  0.13295962576E+00  0.18350459678E-01 0.  0.
         14    1    1    2    0    0 -0.11607170757E-01  0.10893626849E-01  0.16491805070E-01  0.22921107159E-01  0.00000000000E+00 0.  1.
     999901    1    3    3    0    0 -0.10194605102E+00 -0.48450442077E-01  0.38614221516E-01  0.88804926708E+00  0.88000000000E+00 0.  1.
        -11    1    4    4    0    0  0.31371306472E-01  0.47441097307E-02 -0.21360927154E-01  0.38252003565E-01  0.51100000000E-03 0.  1.
         11    1    4    4    0    0  0.82181915307E-01  0.32812705497E-01 -0.33745099432E-01  0.94707622197E-01  0.51100000000E-03 0. -1.
</event>
<event>
 8    1  0.1097777E+005  0.1043930E+01  0.7957747E-01            NaN
         13   -1    0    0    0    0  0.00000000000E+00  0.00000000000E+00  0.74505805969E-08  0.10566000000E+00  0.10566000000E+00 0. -1.
     999900   -1    0    0    0    0 -0.00000000000E+00 -0.00000000000E+00 -0.74505805969E-08  0.93827000000E+00  0.93827000000E+00 0. -1.
     999902    2    1    2    0    0 -0.11341356323E-01  0.94201990622E-02  0.18615812848E-01  0.10201831054E+01  0.10199066887E+01 0.  0.
     999903    2    3    3    0    0  0.10063585774E+00 -0.67729091965E-01 -0.35631243196E-01  0.12808801372E+00  0.20546240638E-01 0.  0.
         14    1    1    2    0    0  0.11341356323E-01 -0.94201990622E-02 -0.18615812848E-01  0.23746894568E-01  0.00000000000E+00 0.  1.
     999901    1    3    3    0    0 -0.11197721406E+00  0.77149291027E-01  0.54247056044E-01  0.89209509172E+00  0.88000000000E+00 0.  1.
        -11    1    4    4    0    0  0.81699556925E-01 -0.51549409375E-01 -0.36213103716E-01  0.10316883837E+00  0.51100000000E-03 0. -1.
         11    1    4    4    0    0  0.18936300816E-01 -0.16179682590E-01  0.58186052039E-03  0.24919175347E-01  0.51100000000E-03 0.  1.
</event>
<event>
 8    1  0.1097777E+005  0.1043930E+01  0.7957747E-01            NaN
         13   -1    0    0    0    0  0.00000000000E+00  0.00000000000E+00  0.74505805969E-08  0.10566000000E+00  0.10566000000E+00 0.  1.
     999900   -1    0    0    0    0 -0.00000000000E+00 -0.00000000000E+00 -0.74505805969E-08  0.93827000000E+00  0.93827000000E+00 0.  1.
     999902    2    1    2    0    0 -0.14461226940E-01 -0.13078654725E-01 -0.13805264204E-01  0.10200393404E+01  0.10197595268E+01 0.  0.
     999903    2    3    3    0    0  0.54860277489E-01 -0.58586671677E-01  0.98787023109E-01  0.12899867149E+00  0.20969815597E-01 0.  0.
         14    1    1    2    0    0  0.14461226940E-01  0.13078654725E-01  0.13805264204E-01  0.23890659551E-01  0.00000000000E+00 0.  1.
     999901    1    3    3    0    0 -0.69321504429E-01  0.45508016952E-01 -0.11259228731E+00  0.89104066896E+00  0.88000000000E+00 0.  1.
        -11    1    4    4    0    0  0.17210668773E-01 -0.23260757500E-01  0.51045119761E-01  0.58678235586E-01  0.51100000000E-03 0.  1.
         11    1    4    4    0    0  0.37649608716E-01 -0.35325914177E-01  0.47741903347E-01  0.70320435900E-01  0.51100000000E-03 0. -1.
</event>
<event>
 8    1  0.1097777E+005  0.1043930E+01  0.7957747E-01            NaN
         13   -1    0    0    0    0  0.00000000000E+00  0.00000000000E+00  0.74505805969E-08  0.10566000000E+00  0.10566000000E+00 0.  1.
     999900   -1    0    0    0    0 -0.00000000000E+00 -0.00000000000E+00 -0.74505805969E-08  0.93827000000E+00  0.93827000000E+00 0.  1.
     999902    2    1    2    0    0  0.21155885808E-01 -0.58389205318E-02 -0.76754011404E-02  0.10206797037E+01  0.10204148574E+01 0.  0.
     999903    2    3    3    0    0  0.37770711847E-01  0.70423330723E-01 -0.10327871246E+00  0.13206731541E+00  0.19728435574E-01 0.  0.
         14    1    1    2    0    0 -0.21155885808E-01  0.58389205318E-02  0.76754011404E-02  0.23250296341E-01  0.00000000000E+00 0. -1.
     999901    1    3    3    0    0 -0.16614826039E-01 -0.76262251255E-01  0.95603311315E-01  0.88861238825E+00  0.88000000000E+00 0.  1.
        -11    1    4    4    0    0  0.28285086716E-01  0.38995763475E-01 -0.49612465603E-01  0.69154707459E-01  0.51100000000E-03 0.  1.
         11    1    4    4    0    0  0.94856251305E-02  0.31427567248E-01 -0.53666246852E-01  0.62912607953E-01  0.51100000000E-03 0. -1.
</event>
<event>
 8    1  0.1097777E+005  0.1043930E+01  0.7957747E-01            NaN
         13   -1    0    0    0    0  0.00000000000E+00  0.00000000000E+00  0.74505805969E-08  0.10566000000E+00  0.10566000000E+00 0.  1.
     999900   -1    0    0    0    0 -0.00000000000E+00 -0.00000000000E+00 -0.74505805969E-08  0.93827000000E+00  0.93827000000E+00 0.  1.
     999902    2    1    2    0    0 -0.86727020379E-02  0.88591382215E-02  0.19087816353E-01  0.10211694019E+01  0.10209157177E+01 0.  0.
     999903    2    3    3    0    0 -0.37219690000E-01  0.37617449872E-01 -0.11692729327E+00  0.12979850212E+00  0.19372180623E-01 0.  0.
         14    1    1    2    0    0  0.86727020379E-02 -0.88591382215E-02 -0.19087816353E-01  0.22760598055E-01  0.00000000000E+00 0. -1.
     999901    1    3    3    0    0  0.28546987962E-01 -0.28758311651E-01  0.13601510962E+00  0.89137089983E+00  0.88000000000E+00 0. -1.
        -11    1    4    4    0    0 -0.13625473756E-01  0.95204960688E-02 -0.58386426239E-01  0.60708560108E-01  0.51100000000E-03 0.  1.
         11    1    4    4    0    0 -0.23594216243E-01  0.28096953804E-01 -0.58540867032E-01  0.69089942011E-01  0.51100000000E-03 0. -1.
</event>
<event>
 8    1  0.1097777E+005  0.1043930E+01  0.7957747E-01            NaN
         13   -1    0    0    0    0  0.00000000000E+00  0.00000000000E+00  0.74505805969E-08  0.10566000000E+00  0.10566000000E+00 0. -1.
     999900   -1    0    0    0    0 -0.00000000000E+00 -0.00000000000E+00 -0.74505805969E-08  0.93827000000E+00  0.93827000000E+00 0.  1.
     999902    2    1    2    0    0  0.11402798591E-01 -0.12658728155E-01 -0.18653783594E-01  0.10186667687E+01  0.10183534528E+01 0.  0.
     999903    2    3    3    0    0 -0.12407521363E-01  0.63373087532E-01  0.10640531245E+00  0.12626128582E+00  0.21206767100E-01 0.  0.
         14    1    1    2    0    0 -0.11402798591E-01  0.12658728155E-01  0.18653783594E-01  0.25263231317E-01  0.00000000000E+00 0. -1.
     999901    1    3    3    0    0  0.23810319954E-01 -0.76031815687E-01 -0.12505909604E+00  0.89240548286E+00  0.88000000000E+00 0.  1.
        -11    1    4    4    0    0 -0.13345263600E-01  0.52624954007E-01  0.99766754564E-01  0.11358322183E+00  0.51100000000E-03 0.  1.
         11    1    4    4    0    0  0.93774223666E-03  0.10748133524E-01  0.66385578855E-02  0.12678063991E-01  0.51100000000E-03 0. -1.
</event>
<event>
 8    1  0.1097777E+005  0.1043930E+01  0.7957747E-01            NaN
         13   -1    0    0    0    0  0.00000000000E+00  0.00000000000E+00  0.74505805969E-08  0.10566000000E+00  0.10566000000E+00 0. -1.
     999900   -1    0    0    0    0 -0.00000000000E+00 -0.00000000000E+00 -0.74505805969E-08  0.93827000000E+00  0.93827000000E+00 0. -1.
     999902    2    1    2    0    0 -0.69519179604E-02  0.17557080203E-01 -0.12844171841E-01  0.10210924656E+01  0.10208370439E+01 0.  0.
     999903    2    3    3    0    0  0.39306949871E-01  0.54654137616E-01 -0.11331599529E+00  0.13339281939E+00  0.20518733120E-01 0.  0.
         14    1    1    2    0    0  0.69519179604E-02 -0.17557080203E-01  0.12844171841E-01  0.22837534430E-01  0.00000000000E+00 0.  1.
     999901    1    3    3    0    0 -0.46258867831E-01 -0.37097057413E-01  0.10047182345E+00  0.88769964618E+00  0.88000000000E+00 0. -1.
        -11    1    4    4    0    0  0.14608190140E-01  0.16926363386E-01 -0.57103366418E-01  0.61326638372E-01  0.51100000000E-03 0.  1.
         11    1    4    4    0    0  0.24698759731E-01  0.37727774229E-01 -0.56212628874E-01  0.72066181017E-01  0.51100000000E-03 0. -1.
</event>
<event>
 8    1  0.1097777E+005  0.1043930E+01  0.7957747E-01            NaN
         13   -1    0    0    0    0  0.00000000000E+00  0.00000000000E+00  0.74505805969E-08  0.10566000000E+00  0.10566000000E+00 0.  1.
     999900   -1    0    0    0    0 -0.00000000000E+00 -0.00000000000E+00 -0.74505805969E-08  0.93827000000E+00  0.93827000000E+00 0.  1.
     999902    2    1    2    0    0  0.11098682914E-01  0.14983366035E-01  0.11779965748E-01  0.10218743972E+01  0.10216363512E+01 0.  0.
     999903    2    3    3    0    0 -0.63361173179E-01  0.11483478141E+00  0.66838384212E-02  0.13308840172E+00  0.21591287319E-01 0.  0.
         14    1    1    2    0    0 -0.11098682914E-01 -0.14983366035E-01 -0.11779965748E-01  0.22055602762E-01  0.00000000000E+00 0. -1.
     999901    1    3    3    0    0  0.74459856094E-01 -0.99851415372E-01  0.50961273272E-02  0.88878599552E+00  0.88000000000E+00 0.  1.
        -11    1    4    4    0    0 -0.38980502768E-01  0.68126577786E-01 -0.65386836443E-02  0.78763733416E-01  0.51100000000E-03 0.  1.
         11    1    4    4    0    0 -0.24380670411E-01  0.46708203620E-01  0.13222522065E-01  0.54324668300E-01  0.51100000000E-03 0. -1.
</event>
<event>
 8    1  0.1097777E+005  0.1043930E+01  0.7957747E-01            NaN
         13   -1    0    0    0    0  0.00000000000E+00  0.00000000000E+00  0.74505805969E-08  0.10566000000E+00  0.10566000000E+00 0. -1.
     999900   -1    0    0    0    0 -0.00000000000E+00 -0.00000000000E+00 -0.74505805969E-08  0.93827000000E+00  0.93827000000E+00 0.  1.
     999902    2    1    2    0    0 -0.19807892579E-01 -0.13225556517E-01  0.14032509889E-02  0.10200713105E+01  0.10197922540E+01 0.  0.
     999903    2    3    3    0    0 -0.50758290579E-01 -0.10292140158E+00  0.62974308793E-01  0.13283162079E+00  0.22566722136E-01 0.  0.
         14    1    1    2    0    0  0.19807892579E-01  0.13225556517E-01 -0.14032509889E-02  0.23858689548E-01  0.00000000000E+00 0.  1.
     999901    1    3    3    0    0  0.30950397999E-01  0.89695845060E-01 -0.61571057804E-01  0.88723968966E+00  0.88000000000E+00 0.  1.
        -11    1    4    4    0    0 -0.17916410983E-01 -0.30606369027E-01  0.83562729282E-02  0.36439484434E-01  0.51100000000E-03 0.  1.
         11    1    4    4    0    0 -0.32841879595E-01 -0.72315032549E-01  0.54618035865E-01  0.96392136353E-01  0.51100000000E-03 0. -1.
</event>
<event>
 8    1  0.1097777E+005  0.1043930E+01  0.7957747E-01            NaN
         13   -1    0    0    0    0  0.00000000000E+00  0.00000000000E+00  0.74505805969E-08  0.10566000000E+00  0.10566000000E+00 0. -1.
     999900   -1    0    0    0    0 -0.00000000000E+00 -0.00000000000E+00 -0.74505805969E-08  0.93827000000E+00  0.93827000000E+00 0. -1.
     999902    2    1    2    0    0 -0.16549046658E-01  0.13016163030E-02  0.16331934371E-01  0.10206427238E+01  0.10203770247E+01 0.  0.
     999903    2    3    3    0    0  0.50992359080E-01 -0.33889140678E-01  0.11485727157E+00  0.13187533418E+00  0.21218303223E-01 0.  0.
         14    1    1    2    0    0  0.16549046658E-01 -0.13016163030E-02 -0.16331934371E-01  0.23287276152E-01  0.00000000000E+00 0. -1.
     999901    1    3    3    0    0 -0.67541405738E-01  0.35190756981E-01 -0.98525337201E-01  0.88876738967E+00  0.88000000000E+00 0.  1.
        -11    1    4    4    0    0  0.38598775339E-01 -0.31318839456E-01  0.74375636006E-01  0.89457987429E-01  0.51100000000E-03 0. -1.
         11    1    4    4    0    0  0.12393583741E-01 -0.25703012226E-02  0.40481635566E-01  0.42417346751E-01  0.51100000000E-03 0.  1.
</event>
<event>
 8    1  0.1097777E+005  0.1043930E+01  0.7957747E-01            NaN
         13   -1    0    0    0    0  0.00000000000E+00  0.00000000000E+00  0.74505805969E-08  0.10566000000E+00  0.10566000000E+00 0.  1.
     999900   -1    0    0    0    0 -0.00000000000E+00 -0.00000000000E+00 -0.74505805969E-08  0.93827000000E+00  0.93827000000E+00 0.  1.
     999902    2    1    2    0    0  0.18668516335E-01 -0.14234790579E-01  0.75153135211E-03  0.10204415440E+01  0.10201711803E+01 0.  0.
     999903    2    3    3    0    0 -0.46129208767E-01 -0.17157671386E-01 -0.11846973654E+00  0.13003658046E+00  0.21263682509E-01 0.  0.
         14    1    1    2    0    0 -0.18668516335E-01  0.14234790579E-01 -0.75153135211E-03  0.23488455981E-01  0.00000000000E+00 0. -1.
     999901    1    3    3    0    0  0.64797725102E-01  0.29228808065E-02  0.11922126789E+00  0.89040496356E+00  0.88000000000E+00 0.  1.
        -11    1    4    4    0    0 -0.24996828010E-01  0.19944066720E-02 -0.56544422346E-01  0.61857512785E-01  0.51100000000E-03 0.  1.
         11    1    4    4    0    0 -0.21132380757E-01 -0.19152078058E-01 -0.61925314192E-01  0.68179067676E-01  0.51100000000E-03 0. -1.
</event>
<event>
 8    1  0.1097777E+005  0.1043930E+01  0.7957747E-01            NaN
         13   -1    0    0    0    0  0.00000000000E+00  0.00000000000E+00  0.74505805969E-08  0.10566000000E+00  0.10566000000E+00 0.  1.
     999900   -1    0    0    0    0 -0.00000000000E+00 -0.00000000000E+00 -0.74505805969E-08  0.93827000000E+00  0.93827000000E+00 0.  1.
     999902    2    1    2    0    0  0.18659481247E-02 -0.19714266478E-01  0.13888279096E-01  0.10197428472E+01  0.10194559608E+01 0.  0.
     999903    2    3    3    0    0 -0.10051986128E+00  0.42615174638E-01  0.67651074438E-01  0.12999105519E+00  0.20017765478E-01 0.  0.
         14    1    1    2    0    0 -0.18659481247E-02  0.19714266478E-01 -0.13888279096E-01  0.24187152818E-01  0.00000000000E+00 0. -1.
     999901    1    3    3    0    0  0.10238580940E+00 -0.62329441116E-01 -0.53762795342E-01  0.88975179200E+00  0.88000000000E+00 0.  1.
        -11    1    4    4    0    0 -0.16662382713E-01  0.15024015732E-01  0.17507628247E-01  0.28462856747E-01  0.51100000000E-03 0. -1.
         11    1    4    4    0    0 -0.83857478567E-01  0.27591158906E-01  0.50143446191E-01  0.10152819844E+00  0.51100000000E-03 0.  1.
</event>
<event>
 8    1  0.1097777E+005  0.1043930E+01  0.7957747E-01            NaN
         13   -1    0    0    0    0  0.00000000000E+00  0.00000000000E+00  0.74505805969E-08  0.10566000000E+00  0.10566000000E+00 0.  1.
     999900   -1    0    0    0    0 -0.00000000000E+00 -0.00000000000E+00 -0.74505805969E-08  0.93827000000E+00  0.93827000000E+00 0.  1.
     999902    2    1    2    0    0  0.68984614448E-02 -0.65867384674E-02 -0.18877894884E-01  0.10227793780E+01  0.10225606619E+01 0.  0.
     999903    2    3    3    0    0 -0.11171467557E+00  0.47057703418E-01  0.45510436383E-01  0.13087542603E+00  0.19041563199E-01 0.  0.
         14    1    1    2    0    0 -0.68984614448E-02  0.65867384674E-02  0.18877894884E-01  0.21150621958E-01  0.00000000000E+00 0.  1.
     999901    1    3    3    0    0  0.11861313702E+00 -0.53644441885E-01 -0.64388331267E-01  0.89190395202E+00  0.88000000000E+00 0.  1.
        -11    1    4    4    0    0 -0.58084792669E-01  0.34709054927E-01  0.25691886820E-01  0.72380216929E-01  0.51100000000E-03 0.  1.
         11    1    4    4    0    0 -0.53629882902E-01  0.12348648491E-01  0.19818549563E-01  0.58495209098E-01  0.51100000000E-03 0. -1.
</event>
<event>
 8    1  0.1097777E+005  0.1043930E+01  0.7957747E-01            NaN
         13   -1    0    0    0    0  0.00000000000E+00  0.00000000000E+00  0.74505805969E-08  0.10566000000E+00  0.10566000000E+00 0.  1.
     999900   -1    0    0    0    0 -0.00000000000E+00 -0.00000000000E+00 -0.74505805969E-08  0.93827000000E+00  0.93827000000E+00 0. -1.
     999902    2    1    2    0    0  0.14396908927E-01  0.17195118841E-02 -0.19246664311E-01  0.10198330750E+01  0.10195483505E+01 0.  0.
     999903    2    3    3    0    0 -0.53908181972E-01 -0.78369383212E-01  0.82734021976E-01  0.12771207595E+00  0.20435352749E-01 0.  0.
         14    1    1    2    0    0 -0.14396908927E-01 -0.17195118841E-02  0.19246664311E-01  0.24096925008E-01  0.00000000000E+00 0. -1.
     999901    1    3    3    0    0  0.68305090899E-01  0.80088895096E-01 -0.10198068629E+00  0.89212099904E+00  0.88000000000E+00 0. -1.
        -11    1    4    4    0    0 -0.37097750960E-01 -0.43561588346E-01  0.38501318717E-01  0.68967149930E-01  0.51100000000E-03 0. -1.
         11    1    4    4    0    0 -0.16810431012E-01 -0.34807794866E-01  0.44232703259E-01  0.58744926018E-01  0.51100000000E-03 0.  1.
</event>
<event>
 8    1  0.1097777E+005  0.1043930E+01  0.7957747E-01            NaN
         13   -1    0    0    0    0  0.00000000000E+00  0.00000000000E+00  0.74505805969E-08  0.10566000000E+00  0.10566000000E+00 0. -1.
     999900   -1    0    0    0    0 -0.00000000000E+00 -0.00000000000E+00 -0.74505805969E-08  0.93827000000E+00  0.93827000000E+00 0. -1.
     999902    2    1    2    0    0  0.79000910370E-02  0.21975462900E-01 -0.45082668238E-02  0.10201464578E+01  0.10198691772E+01 0.  0.
     999903    2    3    3    0    0  0.87369772713E-01  0.57425818112E-01 -0.79223740339E-01  0.13270374984E+00  0.20066948428E-01 0.  0.
         14    1    1    2    0    0 -0.79000910370E-02 -0.21975462900E-01  0.45082668238E-02  0.23783542163E-01  0.00000000000E+00 0.  1.
     999901    1    3    3    0    0 -0.79469681676E-01 -0.35450355211E-01  0.74715473516E-01  0.88744270799E+00  0.88000000000E+00 0.  1.
        -11    1    4    4    0    0  0.63405678048E-01  0.51362689050E-01 -0.57917674012E-01  0.10006559808E+00  0.51100000000E-03 0. -1.
         11    1    4    4    0    0  0.23964094665E-01  0.60631290620E-02 -0.21306066327E-01  0.32638151762E-01  0.51100000000E-03 0.  1.
</event>
<event>
 8    1  0.1097777E+005  0.1043930E+01  0.7957747E-01            NaN
         13   -1    0    0    0    0  0.00000000000E+00  0.00000000000E+00  0.74505805969E-08  0.10566000000E+00  0.10566000000E+00 0.  1.
     999900   -1    0    0    0    0 -0.00000000000E+00 -0.00000000000E+00 -0.74505805969E-08  0.93827000000E+00  0.93827000000E+00 0.  1.
     999902    2    1    2    0    0  0.15454356791E-01 -0.92024172675E-02  0.13047515173E-01  0.10217093052E+01  0.10214676426E+01 0.  0.
     999903    2    3    3    0    0  0.16185238886E-01 -0.12234548092E+00 -0.44204496154E-01  0.13262006338E+00  0.20091417843E-01 0.  0.
         14    1    1    2    0    0 -0.15454356791E-01  0.92024172675E-02 -0.13047515173E-01  0.22220694849E-01  0.00000000000E+00 0. -1.
     999901    1    3    3    0    0 -0.73088209516E-03  0.11314306365E+00  0.57252011327E-01  0.88908924178E+00  0.88000000000E+00 0. -1.
        -11    1    4    4    0    0  0.82253996193E-02 -0.12948714753E-01 -0.54939749764E-02  0.16302493512E-01  0.51100000000E-03 0.  1.
         11    1    4    4    0    0  0.79598392669E-02 -0.10939676616E+00 -0.38710521178E-01  0.11631756986E+00  0.51100000000E-03 0. -1.
</event>
<event>
 8    1  0.1097777E+005  0.1043930E+01  0.7957747E-01            NaN
         13   -1    0    0    0    0  0.00000000000E+00  0.00000000000E+00  0.74505805969E-08  0.10566000000E+00  0.10566000000E+00 0. -1.
     999900   -1    0    0    0    0 -0.00000000000E+00 -0.00000000000E+00 -0.74505805969E-08  0.93827000000E+00  0.93827000000E+00 0.  1.
     999902    2    1    2    0    0 -0.21583442536E-01 -0.53106475731E-02  0.11976422138E-01  0.10186815811E+01  0.10183686371E+01 0.  0.
     999903    2    3    3    0    0 -0.10263116050E+00  0.48050053353E-01 -0.60953634757E-01  0.13034893497E+00  0.20821539930E-01 0.  0.
         14    1    1    2    0    0  0.21583442536E-01  0.53106475731E-02 -0.11976422138E-01  0.25248418892E-01  0.00000000000E+00 0.  1.
     999901    1    3    3    0    0  0.81047717967E-01 -0.53360700926E-01  0.72930056894E-01  0.88833264614E+00  0.88000000000E+00 0. -1.
        -11    1    4    4    0    0 -0.77443445361E-01  0.26971903196E-01 -0.38756362025E-01  0.90704396309E-01  0.51100000000E-03 0. -1.
         11    1    4    4    0    0 -0.25187715142E-01  0.21078150157E-01 -0.22197272731E-01  0.39644538663E-01  0.51100000000E-03 0.  1.
</event>
<event>
 8    1  0.1097777E+005  0.1043930E+01  0.7957747E-01            NaN
         13   -1    0    0    0    0  0.00000000000E+00  0.00000000000E+00  0.74505805969E-08  0.10566000000E+00  0.10566000000E+00 0.  1.
     999900   -1    0    0    0    0 -0.00000000000E+00 -0.00000000000E+00 -0.74505805969E-08  0.93827000000E+00  0.93827000000E+00 0.  1.
     999902    2    1    2    0    0  0.34033101693E-02  0.35413664169E-01  0.42108341529E-02  0.10081048517E+01  0.10074680892E+01 0.  0.
     999903    2    3    3    0    0 -0.73319448660E-01  0.40897479050E-01  0.84744888849E-01  0.12108614389E+00  0.20780103755E-01 0.  0.
         14    1    1    2    0    0 -0.34033101693E-02 -0.35413664169E-01 -0.42108341529E-02  0.35825148350E-01  0.00000000000E+00 0.  1.
     999901    1    3    3    0    0  0.76722758830E-01 -0.54838148805E-02 -0.80534054696E-01  0.88701870776E+00  0.88000000000E+00 0. -1.
        -11    1    4    4    0    0 -0.18645322951E-02  0.36037052011E-02 -0.56198903813E-04  0.40899206805E-02  0.51100000000E-03 0.  1.
         11    1    4    4    0    0 -0.71454916365E-01  0.37293773849E-01  0.84801087753E-01  0.11699622321E+00  0.51100000000E-03 0. -1.
</event>
<event>
 8    1  0.1097777E+005  0.1043930E+01  0.7957747E-01            NaN
         13   -1    0    0    0    0  0.00000000000E+00  0.00000000000E+00  0.74505805969E-08  0.10566000000E+00  0.10566000000E+00 0. -1.
     999900   -1    0    0    0    0 -0.00000000000E+00 -0.00000000000E+00 -0.74505805969E-08  0.93827000000E+00  0.93827000000E+00 0.  1.
     999902    2    1    2    0    0 -0.26380583780E-04  0.14144882475E-01  0.14912433114E-01  0.10233761912E+01  0.10231697658E+01 0.  0.
     999903    2    3    3    0    0  0.21990042808E-01  0.37279881049E-02  0.13199581824E+00  0.13528737035E+00  0.19552919624E-01 0.  0.
         14    1    1    2    0    0  0.26380583780E-04 -0.14144882475E-01 -0.14912433114E-01  0.20553808833E-01  0.00000000000E+00 0. -1.
     999901    1    3    3    0    0 -0.22016423391E-01  0.10416894370E-01 -0.11708338512E+00  0.88808882082E+00  0.88000000000E+00 0.  1.
        -11    1    4    4    0    0  0.38846786865E-02  0.44734599660E-02  0.80025683127E-01  0.80246331091E-01  0.51100000000E-03 0. -1.
         11    1    4    4    0    0  0.18105364121E-01 -0.74547186107E-03  0.51970135112E-01  0.55041039260E-01  0.51100000000E-03 0.  1.
</event>
<event>
 8    1  0.1097777E+005  0.1043930E+01  0.7957747E-01            NaN
         13   -1    0    0    0    0  0.00000000000E+00  0.00000000000E+00  0.74505805969E-08  0.10566000000E+00  0.10566000000E+00 0. -1.
     999900   -1    0    0    0    0 -0.00000000000E+00 -0.00000000000E+00 -0.74505805969E-08  0.93827000000E+00  0.93827000000E+00 0.  1.
     999902    2    1    2    0    0 -0.19902787726E-01 -0.70366285603E-02  0.61343479581E-02  0.10219467035E+01  0.10217102326E+01 0.  0.
     999903    2    3    3    0    0  0.23777302973E-01  0.41426044834E-01  0.12021693508E+00  0.13218751263E+00  0.27202016223E-01 0.  0.
         14    1    1    2    0    0  0.19902787726E-01  0.70366285603E-02 -0.61343479581E-02  0.21983296514E-01  0.00000000000E+00 0.  1.
     999901    1    3    3    0    0 -0.43680090698E-01 -0.48462673395E-01 -0.11408258712E+00  0.88975919086E+00  0.88000000000E+00 0.  1.
        -11    1    4    4    0    0 -0.28882152456E-02  0.21154114538E-01  0.50947351837E-01  0.55242484823E-01  0.51100000000E-03 0.  1.
         11    1    4    4    0    0  0.26665518218E-01  0.20271930296E-01  0.69269583243E-01  0.76945027802E-01  0.51100000000E-03 0. -1.
</event>
<event>
 8    1  0.1097777E+005  0.1043930E+01  0.7957747E-01            NaN
         13   -1    0    0    0    0  0.00000000000E+00  0.00000000000E+00  0.74505805969E-08  0.10566000000E+00  0.10566000000E+00 0.  1.
     999900   -1    0    0    0    0 -0.00000000000E+00 -0.00000000000E+00 -0.74505805969E-08  0.93827000000E+00  0.93827000000E+00 0. -1.
     999902    2    1    2    0    0  0.41601653662E-02 -0.12292094451E-01 -0.19780799422E-01  0.10202723884E+01  0.10199980705E+01 0.  0.
     999903    2    3    3    0    0  0.59538346381E-01 -0.10139289872E-01 -0.11678665022E+00  0.13320896754E+00  0.21398305411E-01 0.  0.
         14    1    1    2    0    0 -0.41601653662E-02  0.12292094451E-01  0.19780799422E-01  0.23657611621E-01  0.00000000000E+00 0. -1.
     999901    1    3    3    0    0 -0.55378181015E-01 -0.21528045784E-02  0.97005850799E-01  0.88706342084E+00  0.88000000000E+00 0.  1.
        -11    1    4    4    0    0  0.22613064302E-02 -0.52674116212E-02 -0.18178522672E-01  0.19067746052E-01  0.51100000000E-03 0.  1.
         11    1    4    4    0    0  0.57277039951E-01 -0.48718782511E-02 -0.98608127549E-01  0.11414122149E+00  0.51100000000E-03 0. -1.
</event>
<event>
 8    1  0.1097777E+005  0.1043930E+01  0.7957747E-01            NaN
         13   -1    0    0    0    0  0.00000000000E+00  0.00000000000E+00  0.74505805969E-08  0.10566000000E+00  0.10566000000E+00 0.  1.
     999900   -1    0    0    0    0 -0.00000000000E+00 -0.00000000000E+00 -0.74505805969E-08  0.93827000000E+00  0.93827000000E+00 0.  1.
     999902    2    1    2    0    0 -0.28957879426E-02  0.22392137436E-01  0.75620502891E-02  0.10201186999E+01  0.10198407640E+01 0.  0.
     999903    2    3    3    0    0  0.12384856216E+00 -0.86351564099E-02 -0.30238591575E-01  0.12969424396E+00  0.22207931501E-01 0.  0.
         14    1    1    2    0    0  0.28957879426E-02 -0.22392137436E-01 -0.75620502891E-02  0.23811300077E-01  0.00000000000E+00 0.  1.
     999901    1    3    3    0    0 -0.12674435010E+00  0.31027293846E-01  0.37800641864E-01  0.89042445596E+00  0.88000000000E+00 0. -1.
        -11    1    4    4    0    0  0.69893176565E-01  0.33505556276E-02 -0.93108998384E-02  0.70592041550E-01  0.51100000000E-03 0.  1.
         11    1    4    4    0    0  0.53955385594E-01 -0.11985712037E-01 -0.20927691736E-01  0.59102202413E-01  0.51100000000E-03 0. -1.
</event>
<event>
 8    1  0.1097777E+005  0.1043930E+01  0.7957747E-01            NaN
         13   -1    0    0    0    0  0.00000000000E+00  0.00000000000E+00  0.74505805969E-08  0.10566000000E+00  0.10566000000E+00 0.  1.
     999900   -1    0    0    0    0 -0.00000000000E+00 -0.00000000000E+00 -0.74505805969E-08  0.93827000000E+00  0.93827000000E+00 0.  1.
     999902    2    1    2    0    0  0.94769154077E-02 -0.95525716587E-02  0.19941015059E-01  0.10198736571E+01  0.10195899023E+01 0.  0.
     999903    2    3    3    0    0  0.12172806454E+00 -0.44339489929E-01  0.14995998725E-01  0.13204771509E+00  0.20688330521E-01 0.  0.
         14    1    1    2    0    0 -0.94769154077E-02  0.95525716587E-02 -0.19941015059E-01  0.24056342875E-01  0.00000000000E+00 0. -1.
     999901    1    3    3    0    0 -0.11225114913E+00  0.34786918271E-01  0.49450163331E-02  0.88782594203E+00  0.88000000000E+00 0.  1.
        -11    1    4    4    0    0  0.13299722477E-01  0.11613335543E-02 -0.89134605262E-03  0.13389807033E-01  0.51100000000E-03 0.  1.
         11    1    4    4    0    0  0.10842834206E+00 -0.45500823484E-01  0.15887344778E-01  0.11865790806E+00  0.51100000000E-03 0. -1.
</event>
<event>
 8    1  0.1097777E+005  0.1043930E+01  0.7957747E-01            NaN
         13   -1    0    0    0    0  0.00000000000E+00  0.00000000000E+00  0.74505805969E-08  0.10566000000E+00  0.10566000000E+00 0. -1.
     999900   -1    0    0    0    0 -0.00000000000E+00 -0.00000000000E+00 -0.74505805969E-08  0.93827000000E+00  0.93827000000E+00 0.  1.
     999902    2    1    2    0    0  0.58623293970E-02 -0.22377944772E-01 -0.24307342058E-02  0.10206695661E+01  0.10204044861E+01 0.  0.
     999903    2    3    3    0    0  0.10794831214E+00  0.60200047836E-01 -0.29506624368E-01  0.13051577229E+00  0.29779893933E-01 0.  0.
         14    1    1    2    0    0 -0.58623293970E-02  0.22377944772E-01  0.24307342058E-02  0.23260433938E-01  0.00000000000E+00 0. -1.
     999901    1    3    3    0    0 -0.10208598274E+00 -0.82577992609E-01  0.27075890162E-01  0.89015379377E+00  0.88000000000E+00 0.  1.
        -11    1    4    4    0    0  0.80267210173E-01  0.46250793122E-01 -0.84188541685E-02  0.93022035669E-01  0.51100000000E-03 0.  1.
         11    1    4    4    0    0  0.27681101964E-01  0.13949254714E-01 -0.21087770199E-01  0.37493736624E-01  0.51100000000E-03 0. -1.
</event>
<event>
 8    1  0.1097777E+005  0.1043930E+01  0.7957747E-01            NaN
         13   -1    0    0    0    0  0.00000000000E+00  0.00000000000E+00  0.74505805969E-08  0.10566000000E+00  0.10566000000E+00 0. -1.
     999900   -1    0    0    0    0 -0.00000000000E+00 -0.00000000000E+00 -0.74505805969E-08  0.93827000000E+00  0.93827000000E+00 0. -1.
     999902    2    1    2    0    0  0.18767447188E-01  0.81385106833E-04 -0.14410021759E-01  0.10202683765E+01  0.10199939646E+01 0.  0.
     999903    2    3    3    0    0  0.70847328929E-02 -0.68809744899E-01  0.10686220453E+00  0.12920753324E+00  0.22137783408E-01 0.  0.
         14    1    1    2    0    0 -0.18767447188E-01 -0.81385106833E-04  0.14410021759E-01  0.23661623456E-01  0.00000000000E+00 0. -1.
     999901    1    3    3    0    0  0.11682714295E-01  0.68891130006E-01 -0.12127222629E+00  0.89106084331E+00  0.88000000000E+00 0. -1.
        -11    1    4    4    0    0  0.32025843938E-02 -0.33659299634E-01  0.32682571277E-01  0.47027827772E-01  0.51100000000E-03 0.  1.
         11    1    4    4    0    0  0.38821484991E-02 -0.35150445265E-01  0.74179633256E-01  0.82179705465E-01  0.51100000000E-03 0. -1.
</event>
<event>
 8    1  0.1097777E+005  0.1043930E+01  0.7957747E-01            NaN
         13   -1    0    0    0    0  0.00000000000E+00  0.00000000000E+00  0.74505805969E-08  0.10566000000E+00  0.10566000000E+00 0.  1.
     999900   -1    0    0    0    0 -0.00000000000E+00 -0.00000000000E+00 -0.74505805969E-08  0.93827000000E+00  0.93827000000E+00 0.  1.
     999902    2    1    2    0    0  0.61622763726E-02  0.62035929487E-03  0.22639900974E-01  0.10204582380E+01  0.10201882630E+01 0.  0.
     999903    2    3    3    0    0 -0.11022300808E+00  0.25216115953E-01  0.64024793019E-01  0.13149074985E+00  0.20141478619E-01 0.  0.
         14    1    1    2    0    0 -0.61622763726E-02 -0.62035929487E-03 -0.22639900974E-01  0.23471762010E-01  0.00000000000E+00 0. -1.
     999901    1    3    3    0    0  0.11638528445E+00 -0.24595756659E-01 -0.41384892045E-01  0.88896748814E+00  0.88000000000E+00 0.  1.
        -11    1    4    4    0    0 -0.86383950653E-01  0.12503730755E-01  0.43293310662E-01  0.97432551452E-01  0.51100000000E-03 0. -1.
         11    1    4    4    0    0 -0.23839057426E-01  0.12712385198E-01  0.20731482356E-01  0.34058198397E-01  0.51100000000E-03 0.  1.
</event>
<event>
 8    1  0.1097777E+005  0.1043930E+01  0.7957747E-01            NaN
         13   -1    0    0    0    0  0.00000000000E+00  0.00000000000E+00  0.74505805969E-08  0.10566000000E+00  0.10566000000E+00 0. -1.
     999900   -1    0    0    0    0 -0.00000000000E+00 -0.00000000000E+00 -0.74505805969E-08  0.93827000000E+00  0.93827000000E+00 0.  1.
     999902    2    1    2    0    0 -0.67731486593E-02 -0.19906853166E-01 -0.25052757314E-01  0.10112222181E+01  0.10106931164E+01 0.  0.
     999903    2    3    3    0    0 -0.60153626417E-01  0.10289296129E+00 -0.60137782621E-02  0.12088983494E+00  0.19307159551E-01 0.  0.
         14    1    1    2    0    0  0.67731486593E-02  0.19906853166E-01  0.25052757314E-01  0.32707781868E-01  0.00000000000E+00 0. -1.
     999901    1    3    3    0    0  0.53380477757E-01 -0.12279981445E+00 -0.19038979051E-01  0.89033238319E+00  0.88000000000E+00 0. -1.
        -11    1    4    4    0    0 -0.48872926239E-01  0.89817577305E-01 -0.11162990893E-01  0.10286220685E+00  0.51100000000E-03 0.  1.
         11    1    4    4    0    0 -0.11280700178E-01  0.13075383980E-01  0.51492126313E-02  0.18027628088E-01  0.51100000000E-03 0. -1.
</event>
<event>
 8    1  0.1097777E+005  0.1043930E+01  0.7957747E-01            NaN
         13   -1    0    0    0    0  0.00000000000E+00  0.00000000000E+00  0.74505805969E-08  0.10566000000E+00  0.10566000000E+00 0.  1.
     999900   -1    0    0    0    0 -0.00000000000E+00 -0.00000000000E+00 -0.74505805969E-08  0.93827000000E+00  0.93827000000E+00 0.  1.
     999902    2    1    2    0    0 -0.13369735953E-01 -0.19674124615E-01  0.32616221997E-02  0.10199204353E+01  0.10196377960E+01 0.  0.
     999903    2    3    3    0    0 -0.12921506594E+00 -0.37703930081E-02 -0.15913208117E-01  0.13197857723E+00  0.21315851473E-01 0.  0.
         14    1    1    2    0    0  0.13369735953E-01  0.19674124615E-01 -0.32616221997E-02  0.24009564723E-01  0.00000000000E+00 0. -1.
     999901    1    3    3    0    0  0.11584532999E+00 -0.15903731607E-01  0.19174830317E-01  0.88794185805E+00  0.88000000000E+00 0.  1.
        -11    1    4    4    0    0 -0.34266042803E-01  0.36364637476E-02  0.39579568362E-02  0.34688789274E-01  0.51100000000E-03 0.  1.
         11    1    4    4    0    0 -0.94949023140E-01 -0.74068567556E-02 -0.19871164953E-01  0.97289787953E-01  0.51100000000E-03 0. -1.
</event>
<event>
 8    1  0.1097777E+005  0.1043930E+01  0.7957747E-01            NaN
         13   -1    0    0    0    0  0.00000000000E+00  0.00000000000E+00  0.74505805969E-08  0.10566000000E+00  0.10566000000E+00 0. -1.
     999900   -1    0    0    0    0 -0.00000000000E+00 -0.00000000000E+00 -0.74505805969E-08  0.93827000000E+00  0.93827000000E+00 0.  1.
     999902    2    1    2    0    0  0.67780340912E-02  0.85177778307E-02  0.21208773982E-01  0.10200908226E+01  0.10198122278E+01 0.  0.
     999903    2    3    3    0    0  0.12131749482E+00  0.43183843535E-01 -0.12253968988E-01  0.13136095400E+00  0.22863980110E-01 0.  0.
         14    1    1    2    0    0 -0.67780340912E-02 -0.85177778307E-02 -0.21208773982E-01  0.23839177401E-01  0.00000000000E+00 0.  1.
     999901    1    3    3    0    0 -0.11453946073E+00 -0.34666065704E-01  0.33462742970E-01  0.88872986860E+00  0.88000000000E+00 0.  1.
        -11    1    4    4    0    0  0.56957430314E-01  0.29944596634E-01  0.85256421597E-03  0.64356939970E-01  0.51100000000E-03 0. -1.
         11    1    4    4    0    0  0.64360064511E-01  0.13239246901E-01 -0.13106533204E-01  0.67004014029E-01  0.51100000000E-03 0.  1.
</event>
<event>
 8    1  0.1097777E+005  0.1043930E+01  0.7957747E-01            NaN
         13   -1    0    0    0    0  0.00000000000E+00  0.00000000000E+00  0.74505805969E-08  0.10566000000E+00  0.10566000000E+00 0. -1.
     999900   -1    0    0    0    0 -0.00000000000E+00 -0.00000000000E+00 -0.74505805969E-08  0.93827000000E+00  0.93827000000E+00 0.  1.
     999902    2    1    2    0    0 -0.22998009673E-01  0.45787191682E-02 -0.24624476634E-02  0.10203516886E+01  0.10200792282E+01 0.  0.
     999903    2    3    3    0    0  0.87603476248E-02 -0.10584558625E+00  0.72105175928E-01  0.12975500609E+00  0.18899031470E-01 0.  0.
         14    1    1    2    0    0  0.22998009673E-01 -0.45787191682E-02  0.24624476634E-02  0.23578311361E-01  0.00000000000E+00 0. -1.
     999901    1    3    3    0    0 -0.31758357298E-01  0.11042430542E+00 -0.74567623591E-01  0.89059668255E+00  0.88000000000E+00 0.  1.
        -11    1    4    4    0    0  0.10763122572E-01 -0.68687541738E-01  0.55684889002E-01  0.89078006161E-01  0.51100000000E-03 0. -1.
         11    1    4    4    0    0 -0.20027749470E-02 -0.37158044509E-01  0.16420286926E-01  0.40676999926E-01  0.51100000000E-03 0.  1.
</event>
<event>
 8    1  0.1097777E+005  0.1043930E+01  0.7957747E-01            NaN
         13   -1    0    0    0    0  0.00000000000E+00  0.00000000000E+00  0.74505805969E-08  0.10566000000E+00  0.10566000000E+00 0. -1.
     999900   -1    0    0    0    0 -0.00000000000E+00 -0.00000000000E+00 -0.74505805969E-08  0.93827000000E+00  0.93827000000E+00 0.  1.
     999902    2    1    2    0    0 -0.14685682520E-01  0.32309093999E-02  0.17187960813E-01  0.10210928801E+01  0.10208374679E+01 0.  0.
     999903    2    3    3    0    0  0.65591080171E-02 -0.82572749287E-01  0.10127022414E+00  0.13267662861E+00  0.22048779106E-01 0.  0.
         14    1    1    2    0    0  0.14685682520E-01 -0.32309093999E-02 -0.17187960813E-01  0.22837119861E-01  0.00000000000E+00 0.  1.
     999901    1    3    3    0    0 -0.21244790537E-01  0.85803658687E-01 -0.84082263326E-01  0.88841625153E+00  0.88000000000E+00 0.  1.
        -11    1    4    4    0    0  0.11531671500E-01 -0.66064490962E-01  0.89309843324E-01  0.11168708810E+00  0.51100000000E-03 0. -1.
         11    1    4    4    0    0 -0.49725634830E-02 -0.16508258325E-01  0.11960380816E-01  0.20989540509E-01  0.51100000000E-03 0.  1.
</event>
<event>
 8    1  0.1097777E+005  0.1043930E+01  0.7957747E-01            NaN
         13   -1    0    0    0    0  0.00000000000E+00  0.00000000000E+00  0.74505805969E-08  0.10566000000E+00  0.10566000000E+00 0. -1.
     999900   -1    0    0    0    0 -0.00000000000E+00 -0.00000000000E+00 -0.74505805969E-08  0.93827000000E+00  0.93827000000E+00 0. -1.
     999902    2    1    2    0    0  0.97351045033E-02  0.10972293225E-01 -0.18602218012E-01  0.10202402133E+01  0.10199651400E+01 0.  0.
     999903    2    3    3    0    0 -0.59368230254E-01  0.77843809704E-01  0.81973274669E-01  0.12930671393E+00  0.20404975746E-01 0.  0.
         14    1    1    2    0    0 -0.97351045033E-02 -0.10972293225E-01  0.18602218012E-01  0.23689786687E-01  0.00000000000E+00 0. -1.
     999901    1    3    3    0    0  0.69103334757E-01 -0.66871516479E-01 -0.10057549268E+00  0.89093349938E+00  0.88000000000E+00 0. -1.
        -11    1    4    4    0    0 -0.16226382357E-01  0.10340084112E-01  0.10399382215E-01  0.21877410617E-01  0.51100000000E-03 0. -1.
         11    1    4    4    0    0 -0.43141847896E-01  0.67503725592E-01  0.71573892453E-01  0.10742930331E+00  0.51100000000E-03 0.  1.
</event>
<event>
 8    1  0.1097777E+005  0.1043930E+01  0.7957747E-01            NaN
         13   -1    0    0    0    0  0.00000000000E+00  0.00000000000E+00  0.74505805969E-08  0.10566000000E+00  0.10566000000E+00 0.  1.
     999900   -1    0    0    0    0 -0.00000000000E+00 -0.00000000000E+00 -0.74505805969E-08  0.93827000000E+00  0.93827000000E+00 0.  1.
     999902    2    1    2    0    0  0.18656288224E-01 -0.13777492008E-01 -0.86757860646E-02  0.10191682222E+01  0.10188673709E+01 0.  0.
     999903    2    3    3    0    0 -0.82425776118E-01 -0.92923400906E-01  0.28005889918E-01  0.12909676215E+00  0.21280909835E-01 0.  0.
         14    1    1    2    0    0 -0.18656288224E-01  0.13777492008E-01  0.86757860646E-02  0.24761777807E-01  0.00000000000E+00 0.  1.
     999901    1    3    3    0    0  0.10108206434E+00  0.79145908898E-01 -0.36681675983E-01  0.89007146004E+00  0.88000000000E+00 0. -1.
        -11    1    4    4    0    0 -0.51358797286E-01 -0.71599271774E-01  0.16090130929E-01  0.89573071911E-01  0.51100000000E-03 0. -1.
         11    1    4    4    0    0 -0.31066978832E-01 -0.21324129132E-01  0.11915758989E-01  0.39523690241E-01  0.51100000000E-03 0.  1.
</event>
<event>
 8    1  0.1097777E+005  0.1043930E+01  0.7957747E-01            NaN
         13   -1    0    0    0    0  0.00000000000E+00  0.00000000000E+00  0.74505805969E-08  0.10566000000E+00  0.10566000000E+00 0.  1.
     999900   -1    0    0    0    0 -0.00000000000E+00 -0.00000000000E+00 -0.74505805969E-08  0.93827000000E+00  0.93827000000E+00 0. -1.
     999902    2    1    2    0    0  0.14145077483E-02  0.59293360242E-02 -0.23714124696E-01  0.10194449522E+01  0.10191508686E+01 0.  0.
     999903    2    3    3    0    0 -0.62149172308E-01 -0.11123706701E+00 -0.97377829305E-02  0.12929684900E+00  0.19663317368E-01 0.  0.
         14    1    1    2    0    0 -0.14145077483E-02 -0.59293360242E-02  0.23714124696E-01  0.24485047845E-01  0.00000000000E+00 0.  1.
     999901    1    3    3    0    0  0.63563680056E-01  0.11716640303E+00 -0.13976341766E-01  0.89014810316E+00  0.88000000000E+00 0.  1.
        -11    1    4    4    0    0 -0.53073247932E-01 -0.81485814815E-01 -0.21261799644E-02  0.97270187747E-01  0.51100000000E-03 0. -1.
         11    1    4    4    0    0 -0.90759243764E-02 -0.29751252192E-01 -0.76116029660E-02  0.32026661253E-01  0.51100000000E-03 0.  1.
</event>
<event>
 8    1  0.1097777E+005  0.1043930E+01  0.7957747E-01            NaN
         13   -1    0    0    0    0  0.00000000000E+00  0.00000000000E+00  0.74505805969E-08  0.10566000000E+00  0.10566000000E+00 0.  1.
     999900   -1    0    0    0    0 -0.00000000000E+00 -0.00000000000E+00 -0.74505805969E-08  0.93827000000E+00  0.93827000000E+00 0.  1.
     999902    2    1    2    0    0  0.20738785254E-01  0.79197316729E-02  0.42626672913E-02  0.10213249188E+01  0.10210747280E+01 0.  0.
     999903    2    3    3    0    0  0.10435235582E+00  0.70500026857E-01 -0.41025042517E-01  0.13399268159E+00  0.20280943133E-01 0.  0.
         14    1    1    2    0    0 -0.20738785254E-01 -0.79197316729E-02 -0.42626672913E-02  0.22605081199E-01  0.00000000000E+00 0. -1.
     999901    1    3    3    0    0 -0.83613570568E-01 -0.62580295185E-01  0.45287709808E-01  0.88733223721E+00  0.88000000000E+00 0. -1.
        -11    1    4    4    0    0  0.20083224760E-01  0.22730963543E-01 -0.55916848653E-02  0.30847377215E-01  0.51100000000E-03 0.  1.
         11    1    4    4    0    0  0.84269131062E-01  0.47769063314E-01 -0.35433357651E-01  0.10314530438E+00  0.51100000000E-03 0. -1.
</event>
<event>
 8    1  0.1097777E+005  0.1043930E+01  0.7957747E-01            NaN
         13   -1    0    0    0    0  0.00000000000E+00  0.00000000000E+00  0.74505805969E-08  0.10566000000E+00  0.10566000000E+00 0. -1.
     999900   -1    0    0    0    0 -0.00000000000E+00 -0.00000000000E+00 -0.74505805969E-08  0.93827000000E+00  0.93827000000E+00 0. -1.
     999902    2    1    2    0    0  0.33670208375E-02  0.14816592587E-01 -0.17867624050E-01  0.10204753579E+01  0.10202057812E+01 0.  0.
     999903    2    3    3    0    0 -0.13638797813E-01 -0.11299180625E+00  0.55356503561E-01  0.12807076497E+00  0.19611559545E-01 0.  0.
         14    1    1    2    0    0 -0.33670208375E-02 -0.14816592587E-01  0.17867624050E-01  0.23454642065E-01  0.00000000000E+00 0. -1.
     999901    1    3    3    0    0  0.17005818651E-01  0.12780839884E+00 -0.73224127610E-01  0.89240459297E+00  0.88000000000E+00 0. -1.
        -11    1    4    4    0    0 -0.46344718299E-02 -0.58774268821E-02  0.85722680339E-03  0.75510552036E-02  0.51100000000E-03 0. -1.
         11    1    4    4    0    0 -0.90043259836E-02 -0.10711437937E+00  0.54499276757E-01  0.12051970977E+00  0.51100000000E-03 0.  1.
</event>
<event>
 7    1  0.1097777E+005  0.1043930E+01  0.7957747E-01            NaN
         13   -1    0    0    0    0  0.00000000000E+00  0.00000000000E+00  0.74505805969E-08  0.10566000000E+00  0.10566000000E+00 0. -1.
     999900   -1    0    0    0    0 -0.00000000000E+00 -0.00000000000E+00 -0.74505805969E-08  0.93827000000E+00  0.93827000000E+00 0.  1.
     999903    2    1    2    0    0  0.30915597322E-01  0.73195975788E-01  0.23003491676E-01  0.85241148991E-01  0.20578333818E-01 0.  0.
         14    1    1    2    0    0 -0.34979309119E-01  0.22282388726E-01  0.56348076521E-01  0.69965438907E-01  0.00000000000E+00 0. -1.
     999901    1    1    2    0    0  0.40637117974E-02 -0.95478364514E-01 -0.79351568197E-01  0.88872341210E+00  0.88000000000E+00 0.  1.
        -11    1    3    3    0    0  0.24552744417E-01  0.40304296444E-01  0.21051932086E-01  0.51678995112E-01  0.51100000000E-03 0.  1.
         11    1    3    3    0    0  0.63628529048E-02  0.32891679344E-01  0.19515595897E-02  0.33562153879E-01  0.51100000000E-03 0. -1.
</event>
<event>
 8    1  0.1097777E+005  0.1043930E+01  0.7957747E-01            NaN
         13   -1    0    0    0    0  0.00000000000E+00  0.00000000000E+00  0.74505805969E-08  0.10566000000E+00  0.10566000000E+00 0.  1.
     999900   -1    0    0    0    0 -0.00000000000E+00 -0.00000000000E+00 -0.74505805969E-08  0.93827000000E+00  0.93827000000E+00 0. -1.
     999902    2    1    2    0    0  0.10415039456E-01  0.43913858597E-02 -0.22305430273E-01  0.10189242099E+01  0.10186173256E+01 0.  0.
     999903    2    3    3    0    0 -0.10037331512E+00  0.76593544286E-01 -0.17528740985E-01  0.12903094221E+00  0.20008844909E-01 0.  0.
         14    1    1    2    0    0 -0.10415039456E-01 -0.43913858597E-02  0.22305430273E-01  0.25005790055E-01  0.00000000000E+00 0.  1.
     999901    1    3    3    0    0  0.11078835457E+00 -0.72202158427E-01 -0.47766892879E-02  0.88989326773E+00  0.88000000000E+00 0. -1.
        -11    1    4    4    0    0 -0.67589486114E-01  0.56211146407E-01 -0.20632983162E-01  0.90299572140E-01  0.51100000000E-03 0.  1.
         11    1    4    4    0    0 -0.32783829003E-01  0.20382397879E-01  0.31042421772E-02  0.38731370075E-01  0.51100000000E-03 0. -1.
</event>
<event>
 8    1  0.1097777E+005  0.1043930E+01  0.7957747E-01            NaN
         13   -1    0    0    0    0  0.00000000000E+00  0.00000000000E+00  0.74505805969E-08  0.10566000000E+00  0.10566000000E+00 0. -1.
     999900   -1    0    0    0    0 -0.00000000000E+00 -0.00000000000E+00 -0.74505805969E-08  0.93827000000E+00  0.93827000000E+00 0. -1.
     999902    2    1    2    0    0 -0.13537473114E-01 -0.12743760382E-01 -0.14737868821E-01  0.10202050894E+01  0.10199291902E+01 0.  0.
     999903    2    3    3    0    0 -0.27440528051E-02  0.37102086459E-01 -0.12484822405E+00  0.13187778668E+00  0.20507972301E-01 0.  0.
         14    1    1    2    0    0  0.13537473114E-01  0.12743760382E-01  0.14737868821E-01  0.23724910630E-01  0.00000000000E+00 0. -1.
     999901    1    3    3    0    0 -0.10793420309E-01 -0.49845846842E-01  0.11011035522E+00  0.88832730269E+00  0.88000000000E+00 0.  1.
        -11    1    4    4    0    0  0.37177888282E-02  0.32764651999E-01 -0.83053441996E-01  0.89361511417E-01  0.51100000000E-03 0. -1.
         11    1    4    4    0    0 -0.64618416332E-02  0.43374344603E-02 -0.41794782050E-01  0.42516275267E-01  0.51100000000E-03 0.  1.
</event>
<event>
 8    1  0.1097777E+005  0.1043930E+01  0.7957747E-01            NaN
         13   -1    0    0    0    0  0.00000000000E+00  0.00000000000E+00  0.74505805969E-08  0.10566000000E+00  0.10566000000E+00 0. -1.
     999900   -1    0    0    0    0 -0.00000000000E+00 -0.00000000000E+00 -0.74505805969E-08  0.93827000000E+00  0.93827000000E+00 0. -1.
     999902    2    1    2    0    0 -0.13216626201E-01  0.71075737101E-02 -0.18852660523E-01  0.10198339501E+01  0.10195492466E+01 0.  0.
     999903    2    3    3    0    0 -0.10146544010E-01  0.12666390217E+00 -0.28236828343E-01  0.13169476974E+00  0.19987431919E-01 0.  0.
         14    1    1    2    0    0  0.13216626201E-01 -0.71075737101E-02  0.18852660523E-01  0.24096049904E-01  0.00000000000E+00 0. -1.
     999901    1    3    3    0    0 -0.30700821905E-02 -0.11955632846E+00  0.93841678200E-02  0.88813918036E+00  0.88000000000E+00 0.  1.
        -11    1    4    4    0    0  0.31286166539E-02  0.81019755893E-01 -0.16928789831E-01  0.82830152319E-01  0.51100000000E-03 0. -1.
         11    1    4    4    0    0 -0.13275160664E-01  0.45644146273E-01 -0.11308038512E-01  0.48864617420E-01  0.51100000000E-03 0.  1.
</event>
<event>
 8    1  0.1097777E+005  0.1043930E+01  0.7957747E-01            NaN
         13   -1    0    0    0    0  0.00000000000E+00  0.00000000000E+00  0.74505805969E-08  0.10566000000E+00  0.10566000000E+00 0.  1.
     999900   -1    0    0    0    0 -0.00000000000E+00 -0.00000000000E+00 -0.74505805969E-08  0.93827000000E+00  0.93827000000E+00 0. -1.
     999902    2    1    2    0    0 -0.73470355562E-02 -0.14526950492E-01 -0.17473987033E-01  0.10200479682E+01  0.10197683589E+01 0.  0.
     999903    2    3    3    0    0 -0.10892866496E+00  0.65801344102E-01 -0.20606556404E-01  0.13056425536E+00  0.20666970627E-01 0.  0.
         14    1    1    2    0    0  0.73470355562E-02  0.14526950492E-01  0.17473987033E-01  0.23882031842E-01  0.00000000000E+00 0.  1.
     999901    1    3    3    0    0  0.10158162940E+00 -0.80328294594E-01  0.31325693715E-02  0.88948371280E+00  0.88000000000E+00 0. -1.
        -11    1    4    4    0    0 -0.61067799832E-01  0.46476872788E-01 -0.63067698408E-02  0.77002677533E-01  0.51100000000E-03 0. -1.
         11    1    4    4    0    0 -0.47860865129E-01  0.19324471314E-01 -0.14299786563E-01  0.53561577826E-01  0.51100000000E-03 0.  1.
</event>
<event>
 8    1  0.1097777E+005  0.1043930E+01  0.7957747E-01            NaN
         13   -1    0    0    0    0  0.00000000000E+00  0.00000000000E+00  0.74505805969E-08  0.10566000000E+00  0.10566000000E+00 0. -1.
     999900   -1    0    0    0    0 -0.00000000000E+00 -0.00000000000E+00 -0.74505805969E-08  0.93827000000E+00  0.93827000000E+00 0. -1.
     999902    2    1    2    0    0 -0.20203802363E-01  0.50549943637E-02 -0.12384950040E-01  0.10196991604E+01  0.10194112243E+01 0.  0.
     999903    2    3    3    0    0 -0.52206471558E-01  0.89176178908E-01 -0.80458847689E-01  0.13249309641E+00  0.20072066848E-01 0.  0.
         14    1    1    2    0    0  0.20203802363E-01 -0.50549943637E-02  0.12384950040E-01  0.24230839553E-01  0.00000000000E+00 0. -1.
     999901    1    3    3    0    0  0.32002669195E-01 -0.84121184544E-01  0.68073897649E-01  0.88720606404E+00  0.88000000000E+00 0.  1.
        -11    1    4    4    0    0 -0.39590796208E-01  0.72299999040E-01 -0.53491855621E-01  0.98266783525E-01  0.51100000000E-03 0.  1.
         11    1    4    4    0    0 -0.12615675350E-01  0.16876179868E-01 -0.26966992068E-01  0.34226312884E-01  0.51100000000E-03 0. -1.
</event>
<event>
 8    1  0.1097777E+005  0.1043930E+01  0.7957747E-01            NaN
         13   -1    0    0    0    0  0.00000000000E+00  0.00000000000E+00  0.74505805969E-08  0.10566000000E+00  0.10566000000E+00 0. -1.
     999900   -1    0    0    0    0 -0.00000000000E+00 -0.00000000000E+00 -0.74505805969E-08  0.93827000000E+00  0.93827000000E+00 0. -1.
     999902    2    1    2    0    0  0.19020713239E-01  0.10150555947E-01  0.15704886171E-01  0.10172567031E+01  0.10169069452E+01 0.  0.
     999903    2    3    3    0    0 -0.11724564896E+00  0.40300123558E-01  0.12473617073E-01  0.12625279794E+00  0.20335577344E-01 0.  0.
         14    1    1    2    0    0 -0.19020713239E-01 -0.10150555947E-01 -0.15704886171E-01  0.26673296905E-01  0.00000000000E+00 0.  1.
     999901    1    3    3    0    0  0.13626636220E+00 -0.30149567611E-01  0.32312690975E-02  0.89100390515E+00  0.88000000000E+00 0. -1.
        -11    1    4    4    0    0 -0.70162547833E-01  0.21245274258E-01 -0.23200386520E-02  0.73347041502E-01  0.51100000000E-03 0. -1.
         11    1    4    4    0    0 -0.47083101131E-01  0.19054849300E-01  0.14793655725E-01  0.52905756442E-01  0.51100000000E-03 0.  1.
</event>
<event>
 8    1  0.1097777E+005  0.1043930E+01  0.7957747E-01            NaN
         13   -1    0    0    0    0  0.00000000000E+00  0.00000000000E+00  0.74505805969E-08  0.10566000000E+00  0.10566000000E+00 0. -1.
     999900   -1    0    0    0    0 -0.00000000000E+00 -0.00000000000E+00 -0.74505805969E-08  0.93827000000E+00  0.93827000000E+00 0.  1.
     999902    2    1    2    0    0 -0.26425924170E-01 -0.38669466479E-03 -0.13454299375E-01  0.10142736824E+01  0.10138400296E+01 0.  0.
     999903    2    3    3    0    0 -0.26931652591E-01  0.12137475909E+00 -0.27645962018E-02  0.12582538503E+00  0.19163467061E-01 0.  0.
         14    1    1    2    0    0  0.26425924170E-01  0.38669466479E-03  0.13454299375E-01  0.29656317585E-01  0.00000000000E+00 0. -1.
     999901    1    3    3    0    0  0.50572842068E-03 -0.12176145375E+00 -0.10689703173E-01  0.88844829739E+00  0.88000000000E+00 0. -1.
        -11    1    4    4    0    0 -0.17170138067E-01  0.38065596199E-01  0.19967075865E-02  0.41809702432E-01  0.51100000000E-03 0.  1.
         11    1    4    4    0    0 -0.97615145244E-02  0.83309162888E-01 -0.47613037883E-02  0.84015682593E-01  0.51100000000E-03 0. -1.
</event>
<event>
 8    1  0.1097777E+005  0.1043930E+01  0.7957747E-01            NaN
         13   -1    0    0    0    0  0.00000000000E+00  0.00000000000E+00  0.74505805969E-08  0.10566000000E+00  0.10566000000E+00 0. -1.
     999900   -1    0    0    0    0 -0.00000000000E+00 -0.00000000000E+00 -0.74505805969E-08  0.93827000000E+00  0.93827000000E+00 0. -1.
     999902    2    1    2    0    0  0.20862237964E-01 -0.20925542567E-02 -0.11200168404E-01  0.10201591033E+01  0.10198821209E+01 0.  0.
     999903    2    3    3    0    0  0.12496506311E+00 -0.39901497701E-01  0.13063508157E-01  0.13288482758E+00  0.16713037946E-01 0.  0.
         14    1    1    2    0    0 -0.20862237964E-01  0.20925542567E-02  0.11200168404E-01  0.23770896670E-01  0.00000000000E+00 0.  1.
     999901    1    3    3    0    0 -0.10410282515E+00  0.37808943444E-01 -0.24263676561E-01  0.88727427575E+00  0.88000000000E+00 0. -1.
        -11    1    4    4    0    0  0.51729543684E-01 -0.11730352456E-01 -0.15458298209E-02  0.53067858156E-01  0.51100000000E-03 0. -1.
         11    1    4    4    0    0  0.73235519431E-01 -0.28171145244E-01  0.14609337978E-01  0.79816969423E-01  0.51100000000E-03 0.  1.
</event>
<event>
 8    1  0.1097777E+005  0.1043930E+01  0.7957747E-01            NaN
         13   -1    0    0    0    0  0.00000000000E+00  0.00000000000E+00  0.74505805969E-08  0.10566000000E+00  0.10566000000E+00 0. -1.
     999900   -1    0    0    0    0 -0.00000000000E+00 -0.00000000000E+00 -0.74505805969E-08  0.93827000000E+00  0.93827000000E+00 0. -1.
     999902    2    1    2    0    0 -0.28145819288E-01 -0.68920140632E-02  0.56408757051E-02  0.10144087114E+01  0.10139790566E+01 0.  0.
     999903    2    3    3    0    0  0.19600095027E-01 -0.34444766177E-02  0.12221411565E+00  0.12543127743E+00  0.20017171375E-01 0.  0.
         14    1    1    2    0    0  0.28145819288E-01  0.68920140632E-02 -0.56408757051E-02  0.29521288590E-01  0.00000000000E+00 0.  1.
     999901    1    3    3    0    0 -0.47745914315E-01 -0.34475374455E-02 -0.11657323995E+00  0.88897743398E+00  0.88000000000E+00 0. -1.
        -11    1    4    4    0    0  0.22185350264E-03  0.63198996635E-02  0.33933640285E-01  0.34521636907E-01  0.51100000000E-03 0. -1.
         11    1    4    4    0    0  0.19378241524E-01 -0.97643762812E-02  0.88280475366E-01  0.90909640526E-01  0.51100000000E-03 0.  1.
</event>
<event>
 8    1  0.1097777E+005  0.1043930E+01  0.7957747E-01            NaN
         13   -1    0    0    0    0  0.00000000000E+00  0.00000000000E+00  0.74505805969E-08  0.10566000000E+00  0.10566000000E+00 0. -1.
     999900   -1    0    0    0    0 -0.00000000000E+00 -0.00000000000E+00 -0.74505805969E-08  0.93827000000E+00  0.93827000000E+00 0.  1.
     999902    2    1    2    0    0 -0.21200636115E-01  0.65238204660E-02 -0.11527526229E-01  0.10189317787E+01  0.10186250825E+01 0.  0.
     999903    2    3    3    0    0 -0.80233173765E-01  0.28550197977E-01  0.96542426919E-01  0.13008470720E+00  0.18684616024E-01 0.  0.
         14    1    1    2    0    0  0.21200636115E-01 -0.65238204660E-02  0.11527526229E-01  0.24998221259E-01  0.00000000000E+00 0. -1.
     999901    1    3    3    0    0  0.59032537649E-01 -0.22026377511E-01 -0.10806995315E+00  0.88884707154E+00  0.88000000000E+00 0.  1.
        -11    1    4    4    0    0 -0.59113356964E-01  0.21502437143E-01  0.57958440917E-01  0.85534705057E-01  0.51100000000E-03 0.  1.
         11    1    4    4    0    0 -0.21119816800E-01  0.70477608340E-02  0.38583986002E-01  0.44550002147E-01  0.51100000000E-03 0. -1.
</event>
<event>
 8    1  0.1097777E+005  0.1043930E+01  0.7957747E-01            NaN
         13   -1    0    0    0    0  0.00000000000E+00  0.00000000000E+00  0.74505805969E-08  0.10566000000E+00  0.10566000000E+00 0.  1.
     999900   -1    0    0    0    0 -0.00000000000E+00 -0.00000000000E+00 -0.74505805969E-08  0.93827000000E+00  0.93827000000E+00 0. -1.
     999902    2    1    2    0    0 -0.21215043034E-01 -0.64802266815E-02  0.98015807029E-02  0.10196783532E+01  0.10193899164E+01 0.  0.
     999903    2    3    3    0    0  0.96054162015E-02 -0.55844487878E-01  0.11672820240E+00  0.13129778529E+00  0.20068989501E-01 0.  0.
         14    1    1    2    0    0  0.21215043034E-01  0.64802266815E-02 -0.98015807029E-02  0.24251646811E-01  0.00000000000E+00 0.  1.
     999901    1    3    3    0    0 -0.30820459235E-01  0.49364261197E-01 -0.10692662170E+00  0.88838056790E+00  0.88000000000E+00 0. -1.
        -11    1    4    4    0    0  0.16843762076E-02 -0.32288531913E-01  0.45218933868E-01  0.55591361897E-01  0.51100000000E-03 0.  1.
         11    1    4    4    0    0  0.79210399939E-02 -0.23555955965E-01  0.71509268533E-01  0.75706423395E-01  0.51100000000E-03 0. -1.
</event>
<event>
 8    1  0.1097777E+005  0.1043930E+01  0.7957747E-01            NaN
         13   -1    0    0    0    0  0.00000000000E+00  0.00000000000E+00  0.74505805969E-08  0.10566000000E+00  0.10566000000E+00 0. -1.
     999900   -1    0    0    0    0 -0.00000000000E+00 -0.00000000000E+00 -0.74505805969E-08  0.93827000000E+00  0.93827000000E+00 0.  1.
     999902    2    1    2    0    0  0.91252001231E-02 -0.53952359205E-03  0.22055378938E-01  0.10200553251E+01  0.10197758901E+01 0.  0.
     999903    2    3    3    0    0  0.14759618682E-01 -0.12424408344E+00  0.34211113651E-01  0.13130208221E+00  0.20381312107E-01 0.  0.
         14    1    1    2    0    0 -0.91252001231E-02  0.53952359205E-03 -0.22055378938E-01  0.23874674932E-01  0.00000000000E+00 0.  1.
     999901    1    3    3    0    0 -0.56344185586E-02  0.12370455985E+00 -0.12155734713E-01  0.88875324286E+00  0.88000000000E+00 0. -1.
        -11    1    4    4    0    0  0.88642099090E-02 -0.27673485335E-01  0.14830993823E-01  0.32628446281E-01  0.51100000000E-03 0. -1.
         11    1    4    4    0    0  0.58954087728E-02 -0.96570598103E-01  0.19380119827E-01  0.98673635932E-01  0.51100000000E-03 0.  1.
</event>
<event>
 8    1  0.1097777E+005  0.1043930E+01  0.7957747E-01            NaN
         13   -1    0    0    0    0  0.00000000000E+00  0.00000000000E+00  0.74505805969E-08  0.10566000000E+00  0.10566000000E+00 0. -1.
     999900   -1    0    0    0    0 -0.00000000000E+00 -0.00000000000E+00 -0.74505805969E-08  0.93827000000E+00  0.93827000000E+00 0. -1.
     999902    2    1    2    0    0  0.22248511570E-01  0.55522636884E-02 -0.43222184509E-02  0.10205953590E+01  0.10203285654E+01 0.  0.
     999903    2    3    3    0    0  0.65883907638E-01  0.90817963477E-01 -0.68666120387E-01  0.13306258490E+00  0.20050527065E-01 0.  0.
         14    1    1    2    0    0 -0.22248511570E-01 -0.55522636884E-02  0.43222184509E-02  0.23334641019E-01  0.00000000000E+00 0.  1.
     999901    1    3    3    0    0 -0.43635396068E-01 -0.85265699789E-01  0.64343901936E-01  0.88753277408E+00  0.88000000000E+00 0. -1.
        -11    1    4    4    0    0  0.43046677990E-01  0.42611574694E-01 -0.34369013909E-01  0.69643757954E-01  0.51100000000E-03 0.  1.
         11    1    4    4    0    0  0.22837229648E-01  0.48206388783E-01 -0.34297106477E-01  0.63418826946E-01  0.51100000000E-03 0. -1.
</event>
<event>
 8    1  0.1097777E+005  0.1043930E+01  0.7957747E-01            NaN
         13   -1    0    0    0    0  0.00000000000E+00  0.00000000000E+00  0.74505805969E-08  0.10566000000E+00  0.10566000000E+00 0.  1.
     999900   -1    0    0    0    0 -0.00000000000E+00 -0.00000000000E+00 -0.74505805969E-08  0.93827000000E+00  0.93827000000E+00 0.  1.
     999902    2    1    2    0    0  0.11763177418E-02 -0.23232863811E-01 -0.74649328259E-02  0.10194989766E+01  0.10192062050E+01 0.  0.
     999903    2    3    3    0    0  0.73787371751E-01 -0.84992230666E-01  0.64850248833E-01  0.13140209555E+00  0.19816670705E-01 0.  0.
         14    1    1    2    0    0 -0.11763177418E-02  0.23232863811E-01  0.74649328259E-02  0.24431023441E-01  0.00000000000E+00 0. -1.
     999901    1    3    3    0    0 -0.72611054009E-01  0.61759366855E-01 -0.72315181659E-01  0.88809688101E+00  0.88000000000E+00 0.  1.
        -11    1    4    4    0    0  0.35766924328E-01 -0.44708727103E-01  0.21882345073E-01  0.61296340037E-01  0.51100000000E-03 0.  1.
         11    1    4    4    0    0  0.38020447424E-01 -0.40283503563E-01  0.42967903761E-01  0.70105755514E-01  0.51100000000E-03 0. -1.
</event>
<event>
 8    1  0.1097777E+005  0.1043930E+01  0.7957747E-01            NaN
         13   -1    0    0    0    0  0.00000000000E+00  0.00000000000E+00  0.74505805969E-08  0.10566000000E+00  0.10566000000E+00 0. -1.
     999900   -1    0    0    0    0 -0.00000000000E+00 -0.00000000000E+00 -0.74505805969E-08  0.93827000000E+00  0.93827000000E+00 0. -1.
     999902    2    1    2    0    0 -0.39637692306E-03  0.22722811635E-01  0.44021781925E-03  0.10211994682E+01  0.10209464613E+01 0.  0.
     999903    2    3    3    0    0 -0.71280170314E-01  0.11075958598E+00 -0.12922553408E-01  0.13387002012E+00  0.20140539581E-01 0.  0.
         14    1    1    2    0    0  0.39637692306E-03 -0.22722811635E-01 -0.44021781925E-03  0.22730531780E-01  0.00000000000E+00 0.  1.
     999901    1    3    3    0    0  0.70883793391E-01 -0.88036774347E-01  0.13362771227E-01  0.88732944810E+00  0.88000000000E+00 0.  1.
        -11    1    4    4    0    0 -0.32124259973E-01  0.60244418415E-01  0.17229008948E-02  0.68297785743E-01  0.51100000000E-03 0. -1.
         11    1    4    4    0    0 -0.39155910342E-01  0.50515167567E-01 -0.14645454303E-01  0.65572234381E-01  0.51100000000E-03 0.  1.
</event>
<event>
 8    1  0.1200384E+005  0.1043930E+01  0.7957747E-01            NaN
         13   -1    0    0    0    0  0.00000000000E+00  0.00000000000E+00  0.74505805969E-08  0.10566000000E+00  0.10566000000E+00 0.  1.
     999900   -1    0    0    0    0 -0.00000000000E+00 -0.00000000000E+00 -0.74505805969E-08  0.93827000000E+00  0.93827000000E+00 0.  1.
     999902    2    1    2    0    0 -0.64924904392E-02 -0.79257142619E-02  0.21651095829E-01  0.10199771436E+01  0.10196958538E+01 0.  0.
     999903    2    3    3    0    0  0.91737977944E-01 -0.35522937135E-01 -0.79980885364E-01  0.12827097495E+00  0.19461894311E-01 0.  0.
         14    1    1    2    0    0  0.64924904392E-02  0.79257142619E-02 -0.21651095829E-01  0.23952856391E-01  0.00000000000E+00 0. -1.
     999901    1    3    3    0    0 -0.98230468383E-01  0.27597222873E-01  0.10163198119E+00  0.89170616866E+00  0.88000000000E+00 0. -1.
        -11    1    4    4    0    0  0.37806598818E-01 -0.50206576261E-02 -0.26792610295E-01  0.46611704588E-01  0.51100000000E-03 0.  1.
         11    1    4    4    0    0  0.53931379127E-01 -0.30502279509E-01 -0.53188275069E-01  0.81659270359E-01  0.51100000000E-03 0. -1.
</event>
<event>
 8    1  0.1097777E+005  0.1043930E+01  0.7957747E-01            NaN
         13   -1    0    0    0    0  0.00000000000E+00  0.00000000000E+00  0.74505805969E-08  0.10566000000E+00  0.10566000000E+00 0.  1.
     999900   -1    0    0    0    0 -0.00000000000E+00 -0.00000000000E+00 -0.74505805969E-08  0.93827000000E+00  0.93827000000E+00 0. -1.
     999902    2    1    2    0    0  0.20744176972E-01  0.85454860781E-02  0.47957873185E-02  0.10209877729E+01  0.10207299773E+01 0.  0.
     999903    2    3    3    0    0 -0.62370247479E-01  0.73985220398E-01  0.85302761012E-01  0.13100364985E+00  0.22837132700E-01 0.  0.
         14    1    1    2    0    0 -0.20744176972E-01 -0.85454860781E-02 -0.47957873185E-02  0.22942227149E-01  0.00000000000E+00 0.  1.
     999901    1    3    3    0    0  0.83114424451E-01 -0.65439734320E-01 -0.80506973693E-01  0.88998412300E+00  0.88000000000E+00 0. -1.
        -11    1    4    4    0    0 -0.19106072885E-01  0.11166507745E-01  0.11843200411E-01  0.25104888633E-01  0.51100000000E-03 0.  1.
         11    1    4    4    0    0 -0.43264174594E-01  0.62818712653E-01  0.73459560601E-01  0.10589876122E+00  0.51100000000E-03 0. -1.
</event>
<event>
 8    1  0.1097777E+005  0.1043930E+01  0.7957747E-01            NaN
         13   -1    0    0    0    0  0.00000000000E+00  0.00000000000E+00  0.74505805969E-08  0.10566000000E+00  0.10566000000E+00 0. -1.
     999900   -1    0    0    0    0 -0.00000000000E+00 -0.00000000000E+00 -0.74505805969E-08  0.93827000000E+00  0.93827000000E+00 0. -1.
     999902    2    1    2    0    0  0.66862379734E-02 -0.22662682721E-01 -0.33734844923E-02  0.10200619594E+01  0.10197826815E+01 0.  0.
     999903    2    3    3    0    0 -0.49422707190E-01  0.56643498789E-01  0.10210643086E+00  0.12845459247E+00  0.20585654308E-01 0.  0.
         14    1    1    2    0    0 -0.66862379734E-02  0.22662682721E-01  0.33734844923E-02  0.23868040639E-01  0.00000000000E+00 0. -1.
     999901    1    3    3    0    0  0.56108945164E-01 -0.79306181510E-01 -0.10547991535E+00  0.89160736689E+00  0.88000000000E+00 0. -1.
        -11    1    4    4    0    0 -0.49356046821E-01  0.50111428701E-01  0.86229737190E-01  0.11127894384E+00  0.51100000000E-03 0.  1.
         11    1    4    4    0    0 -0.66660369186E-04  0.65320700881E-02  0.15876693666E-01  0.17175648634E-01  0.51100000000E-03 0. -1.
</event>
<event>
 8    1  0.1097777E+005  0.1043930E+01  0.7957747E-01            NaN
         13   -1    0    0    0    0  0.00000000000E+00  0.00000000000E+00  0.74505805969E-08  0.10566000000E+00  0.10566000000E+00 0. -1.
     999900   -1    0    0    0    0 -0.00000000000E+00 -0.00000000000E+00 -0.74505805969E-08  0.93827000000E+00  0.93827000000E+00 0.  1.
     999902    2    1    2    0    0 -0.32739627702E-02 -0.25369251305E-01 -0.13664172030E-01  0.10149295286E+01  0.10145151160E+01 0.  0.
     999903    2    3    3    0    0 -0.90790142651E-01  0.57936809715E-01 -0.60689724902E-01  0.12542945319E+00  0.21208043170E-01 0.  0.
         14    1    1    2    0    0  0.32739627702E-02  0.25369251305E-01  0.13664172030E-01  0.29000471398E-01  0.00000000000E+00 0.  1.
     999901    1    3    3    0    0  0.87516179881E-01 -0.83306061021E-01  0.47025552872E-01  0.88950007542E+00  0.88000000000E+00 0. -1.
        -11    1    4    4    0    0 -0.64187380074E-01  0.33720150441E-01 -0.49343865051E-01  0.87704882679E-01  0.51100000000E-03 0.  1.
         11    1    4    4    0    0 -0.26602762577E-01  0.24216659274E-01 -0.11345859851E-01  0.37724570507E-01  0.51100000000E-03 0. -1.
</event>
<event>
 8    1  0.1097777E+005  0.1043930E+01  0.7957747E-01            NaN
         13   -1    0    0    0    0  0.00000000000E+00  0.00000000000E+00  0.74505805969E-08  0.10566000000E+00  0.10566000000E+00 0. -1.
     999900   -1    0    0    0    0 -0.00000000000E+00 -0.00000000000E+00 -0.74505805969E-08  0.93827000000E+00  0.93827000000E+00 0. -1.
     999902    2    1    2    0    0  0.87977425726E-02 -0.89400928958E-02 -0.20577285559E-01  0.10198312404E+01  0.10195464720E+01 0.  0.
     999903    2    3    3    0    0 -0.94901671664E-01  0.58549274871E-01 -0.64169609590E-01  0.13010730902E+00  0.19386288807E-01 0.  0.
         14    1    1    2    0    0 -0.87977425726E-02  0.89400928958E-02  0.20577285559E-01  0.24098759643E-01  0.00000000000E+00 0.  1.
     999901    1    3    3    0    0  0.10369941424E+00 -0.67489367767E-01  0.43592324031E-01  0.88972393133E+00  0.88000000000E+00 0.  1.
        -11    1    4    4    0    0 -0.78961855700E-01  0.50932086307E-01 -0.61326686600E-01  0.11220639769E+00  0.51100000000E-03 0.  1.
         11    1    4    4    0    0 -0.15939815964E-01  0.76171885641E-02 -0.28429229897E-02  0.17900911338E-01  0.51100000000E-03 0. -1.
</event>
<event>
 8    1  0.1097777E+005  0.1043930E+01  0.7957747E-01            NaN
         13   -1    0    0    0    0  0.00000000000E+00  0.00000000000E+00  0.74505805969E-08  0.10566000000E+00  0.10566000000E+00 0.  1.
     999900   -1    0    0    0    0 -0.00000000000E+00 -0.00000000000E+00 -0.74505805969E-08  0.93827000000E+00  0.93827000000E+00 0. -1.
     999902    2    1    2    0    0 -0.17740210759E-01 -0.47663513031E-02  0.15059317909E-01  0.10201767636E+01  0.10199001975E+01 0.  0.
     999903    2    3    3    0    0 -0.93184445123E-01  0.71447313836E-01  0.57957709008E-01  0.13262922844E+00  0.21056037980E-01 0.  0.
         14    1    1    2    0    0  0.17740210759E-01  0.47663513031E-02 -0.15059317909E-01  0.23753236378E-01  0.00000000000E+00 0. -1.
     999901    1    3    3    0    0  0.75444234364E-01 -0.76213665139E-01 -0.42898391099E-01  0.88754753518E+00  0.88000000000E+00 0. -1.
        -11    1    4    4    0    0 -0.10679248170E-01  0.62883688261E-02  0.13921720967E-01  0.18645786646E-01  0.51100000000E-03 0. -1.
         11    1    4    4    0    0 -0.82505196953E-01  0.65158945010E-01  0.44035988041E-01  0.11398344179E+00  0.51100000000E-03 0.  1.
</event>
<event>
 8    1  0.1097777E+005  0.1043930E+01  0.7957747E-01            NaN
         13   -1    0    0    0    0  0.00000000000E+00  0.00000000000E+00  0.74505805969E-08  0.10566000000E+00  0.10566000000E+00 0.  1.
     999900   -1    0    0    0    0 -0.00000000000E+00 -0.00000000000E+00 -0.74505805969E-08  0.93827000000E+00  0.93827000000E+00 0.  1.
     999902    2    1    2    0    0 -0.13748692770E-01 -0.18336363499E-01 -0.20729367313E-02  0.10209181368E+01  0.10206587560E+01 0.  0.
     999903    2    3    3    0    0 -0.60163883733E-01 -0.51209128548E-01  0.10509041896E+00  0.13259444953E+00  0.17182087662E-01 0.  0.
         14    1    1    2    0    0  0.13748692770E-01  0.18336363499E-01  0.20729367313E-02  0.23011863157E-01  0.00000000000E+00 0. -1.
     999901    1    3    3    0    0  0.46415190962E-01  0.32872765049E-01 -0.10716335569E+00  0.88832368731E+00  0.88000000000E+00 0.  1.
        -11    1    4    4    0    0 -0.48373742964E-01 -0.48869896364E-01  0.91181837527E-01  0.11420452878E+00  0.51100000000E-03 0. -1.
         11    1    4    4    0    0 -0.11790140769E-01 -0.23392321843E-02  0.13908581436E-01  0.18389920748E-01  0.51100000000E-03 0.  1.
</event>
<event>
 8    1  0.1097777E+005  0.1043930E+01  0.7957747E-01            NaN
         13   -1    0    0    0    0  0.00000000000E+00  0.00000000000E+00  0.74505805969E-08  0.10566000000E+00  0.10566000000E+00 0. -1.
     999900   -1    0    0    0    0 -0.00000000000E+00 -0.00000000000E+00 -0.74505805969E-08  0.93827000000E+00  0.93827000000E+00 0.  1.
     999902    2    1    2    0    0 -0.88254123176E-02 -0.22574006887E-01  0.41359772586E-02  0.10193417915E+01  0.10190451942E+01 0.  0.
     999903    2    3    3    0    0 -0.84415752991E-01  0.93659650114E-01 -0.13143546944E-01  0.12831836612E+00  0.19867079391E-01 0.  0.
         14    1    1    2    0    0  0.88254123176E-02  0.22574006887E-01 -0.41359772586E-02  0.24588208503E-01  0.00000000000E+00 0. -1.
     999901    1    3    3    0    0  0.75590340674E-01 -0.11623365700E+00  0.17279524203E-01  0.89102342538E+00  0.88000000000E+00 0.  1.
        -11    1    4    4    0    0 -0.53865745539E-01  0.59285011211E-01 -0.17910407618E-01  0.82080904715E-01  0.51100000000E-03 0. -1.
         11    1    4    4    0    0 -0.30550007452E-01  0.34374638903E-01  0.47668606732E-02  0.46237461400E-01  0.51100000000E-03 0.  1.
</event>
<event>
 8    1  0.1097777E+005  0.1043930E+01  0.7957747E-01            NaN
         13   -1    0    0    0    0  0.00000000000E+00  0.00000000000E+00  0.74505805969E-08  0.10566000000E+00  0.10566000000E+00 0. -1.
     999900   -1    0    0    0    0 -0.00000000000E+00 -0.00000000000E+00 -0.74505805969E-08  0.93827000000E+00  0.93827000000E+00 0. -1.
     999902    2    1    2    0    0 -0.42062317223E-02 -0.24050915337E-01  0.23114707078E-02  0.10194048739E+01  0.10191098150E+01 0.  0.
     999903    2    3    3    0    0  0.40068505140E-01 -0.17951160258E-01 -0.12046390144E+00  0.12975817360E+00  0.19947501267E-01 0.  0.
         14    1    1    2    0    0  0.42062317223E-02  0.24050915337E-01 -0.23114707078E-02  0.24525126110E-01  0.00000000000E+00 0.  1.
     999901    1    3    3    0    0 -0.44274736862E-01 -0.60997550791E-02  0.12277537215E+00  0.88964670029E+00  0.88000000000E+00 0.  1.
        -11    1    4    4    0    0  0.16955912301E-01 -0.17091646868E-01 -0.74593878391E-01  0.78384533992E-01  0.51100000000E-03 0. -1.
         11    1    4    4    0    0  0.23112592839E-01 -0.85951339036E-03 -0.45870023047E-01  0.51373639606E-01  0.51100000000E-03 0.  1.
</event>
<event>
 8    1  0.1097777E+005  0.1043930E+01  0.7957747E-01            NaN
         13   -1    0    0    0    0  0.00000000000E+00  0.00000000000E+00  0.74505805969E-08  0.10566000000E+00  0.10566000000E+00 0.  1.
     999900   -1    0    0    0    0 -0.00000000000E+00 -0.00000000000E+00 -0.74505805969E-08  0.93827000000E+00  0.93827000000E+00 0.  1.
     999902    2    1    2    0    0  0.21601253331E-01  0.66760440067E-02 -0.75415359343E-02  0.10200960227E+01  0.10198175509E+01 0.  0.
     999903    2    3    3    0    0 -0.10457650532E+00 -0.35475604174E-01 -0.62443223450E-01  0.12840561483E+00  0.19851493828E-01 0.  0.
         14    1    1    2    0    0 -0.21601253331E-01 -0.66760440067E-02  0.75415359343E-02  0.23833977286E-01  0.00000000000E+00 0.  1.
     999901    1    3    3    0    0  0.12617775865E+00  0.42151648181E-01  0.54901687515E-01  0.89169040789E+00  0.88000000000E+00 0. -1.
        -11    1    4    4    0    0 -0.26598461759E-01 -0.96296512453E-02 -0.26394784742E-01  0.38693076043E-01  0.51100000000E-03 0. -1.
         11    1    4    4    0    0 -0.77978043565E-01 -0.25845952929E-01 -0.36048438708E-01  0.89712538785E-01  0.51100000000E-03 0.  1.
</event>
<event>
 8    1  0.1097777E+005  0.1043930E+01  0.7957747E-01            NaN
         13   -1    0    0    0    0  0.00000000000E+00  0.00000000000E+00  0.74505805969E-08  0.10566000000E+00  0.10566000000E+00 0.  1.
     999900   -1    0    0    0    0 -0.00000000000E+00 -0.00000000000E+00 -0.74505805969E-08  0.93827000000E+00  0.93827000000E+00 0. -1.
     999902    2    1    2    0    0 -0.19934451210E-01 -0.23526023908E-02 -0.13540126762E-01  0.10197173563E+01  0.10194298576E+01 0.  0.
     999903    2    3    3    0    0  0.92680085581E-01 -0.76707035287E-01  0.37464072604E-01  0.12797073087E+00  0.22346894558E-01 0.  0.
         14    1    1    2    0    0  0.19934451210E-01  0.23526023908E-02  0.13540126762E-01  0.24212643718E-01  0.00000000000E+00 0.  1.
     999901    1    3    3    0    0 -0.11261453679E+00  0.74354432897E-01 -0.51004199366E-01  0.89174662542E+00  0.88000000000E+00 0. -1.
        -11    1    4    4    0    0  0.77477119574E-01 -0.52090072869E-01  0.26815639141E-01  0.97136086870E-01  0.51100000000E-03 0. -1.
         11    1    4    4    0    0  0.15202966007E-01 -0.24616962418E-01  0.10648433462E-01  0.30834643995E-01  0.51100000000E-03 0.  1.
</event>
<event>
 8    1  0.1097777E+005  0.1043930E+01  0.7957747E-01            NaN
         13   -1    0    0    0    0  0.00000000000E+00  0.00000000000E+00  0.74505805969E-08  0.10566000000E+00  0.10566000000E+00 0. -1.
     999900   -1    0    0    0    0 -0.00000000000E+00 -0.00000000000E+00 -0.74505805969E-08  0.93827000000E+00  0.93827000000E+00 0.  1.
     999902    2    1    2    0    0  0.15673669859E-01  0.17493532673E-01 -0.27146866238E-02  0.10202856109E+01  0.10200116032E+01 0.  0.
     999903    2    3    3    0    0  0.76164493785E-02  0.90994597086E-01 -0.94017147312E-01  0.13247737452E+00  0.19313305517E-01 0.  0.
         14    1    1    2    0    0 -0.15673669859E-01 -0.17493532673E-01  0.27146866238E-02  0.23644389095E-01  0.00000000000E+00 0. -1.
     999901    1    3    3    0    0  0.80572204809E-02 -0.73501064414E-01  0.91302460688E-01  0.88780823639E+00  0.88000000000E+00 0. -1.
        -11    1    4    4    0    0  0.45462642334E-02  0.88496444398E-01 -0.92779686104E-01  0.12829894958E+00  0.51100000000E-03 0. -1.
         11    1    4    4    0    0  0.30701851451E-02  0.24981526887E-02 -0.12374612076E-02  0.41784249331E-02  0.51100000000E-03 0.  1.
</event>
<event>
 8    1  0.1097777E+005  0.1043930E+01  0.7957747E-01            NaN
         13   -1    0    0    0    0  0.00000000000E+00  0.00000000000E+00  0.74505805969E-08  0.10566000000E+00  0.10566000000E+00 0.  1.
     999900   -1    0    0    0    0 -0.00000000000E+00 -0.00000000000E+00 -0.74505805969E-08  0.93827000000E+00  0.93827000000E+00 0. -1.
     999902    2    1    2    0    0  0.65664779667E-02  0.94399866804E-02  0.20104182132E-01  0.10207694706E+01  0.10205066889E+01 0.  0.
     999903    2    3    3    0    0  0.29811471678E-01  0.29875234612E-01  0.12534925339E+00  0.13395807348E+00  0.21238564905E-01 0.  0.
         14    1    1    2    0    0 -0.65664779667E-02 -0.94399866804E-02 -0.20104182132E-01  0.23160529368E-01  0.00000000000E+00 0. -1.
     999901    1    3    3    0    0 -0.23244993711E-01 -0.20435247932E-01 -0.10524507126E+00  0.88681139715E+00  0.88000000000E+00 0. -1.
        -11    1    4    4    0    0  0.10372453846E-01  0.24716288528E-01  0.63789927652E-01  0.69194643639E-01  0.51100000000E-03 0.  1.
         11    1    4    4    0    0  0.19439017831E-01  0.51589460838E-02  0.61559325737E-01  0.64763429844E-01  0.51100000000E-03 0. -1.
</event>
<event>
 8    1  0.1097777E+005  0.1043930E+01  0.7957747E-01            NaN
         13   -1    0    0    0    0  0.00000000000E+00  0.00000000000E+00  0.74505805969E-08  0.10566000000E+00  0.10566000000E+00 0. -1.
     999900   -1    0    0    0    0 -0.00000000000E+00 -0.00000000000E+00 -0.74505805969E-08  0.93827000000E+00  0.93827000000E+00 0. -1.
     999902    2    1    2    0    0 -0.22361108890E-01  0.61438206356E-02 -0.12218455152E-01  0.10177182399E+01  0.10173806364E+01 0.  0.
     999903    2    3    3    0    0 -0.11159921567E+00 -0.33750452778E-01 -0.56789471130E-01  0.13118478409E+00  0.19771837185E-01 0.  0.
         14    1    1    2    0    0  0.22361108890E-01 -0.61438206356E-02  0.12218455152E-01  0.26211760130E-01  0.00000000000E+00 0. -1.
     999901    1    3    3    0    0  0.89238106775E-01  0.39894273414E-01  0.44571015977E-01  0.88653345578E+00  0.88000000000E+00 0. -1.
        -11    1    4    4    0    0 -0.66126323986E-01 -0.29554497993E-01 -0.31547008341E-01  0.79004012125E-01  0.51100000000E-03 0. -1.
         11    1    4    4    0    0 -0.45472891679E-01 -0.41959547848E-02 -0.25242462789E-01  0.52180771965E-01  0.51100000000E-03 0.  1.
</event>
<event>
 8    1  0.1097777E+005  0.1043930E+01  0.7957747E-01            NaN
         13   -1    0    0    0    0  0.00000000000E+00  0.00000000000E+00  0.74505805969E-08  0.10566000000E+00  0.10566000000E+00 0. -1.
     999900   -1    0    0    0    0 -0.00000000000E+00 -0.00000000000E+00 -0.74505805969E-08  0.93827000000E+00  0.93827000000E+00 0.  1.
     999902    2    1    2    0    0  0.22519201846E-01 -0.74943600401E-02  0.13205939221E-02  0.10201597696E+01  0.10198828029E+01 0.  0.
     999903    2    3    3    0    0 -0.12069979220E+00  0.23879972585E-01  0.27450746894E-01  0.12764712887E+00  0.20038789234E-01 0.  0.
         14    1    1    2    0    0 -0.22519201846E-01  0.74943600401E-02 -0.13205939221E-02  0.23770230384E-01  0.00000000000E+00 0.  1.
     999901    1    3    3    0    0  0.14321899405E+00 -0.31374332625E-01 -0.26130152972E-01  0.89251264075E+00  0.88000000000E+00 0. -1.
        -11    1    4    4    0    0 -0.75084250705E-01  0.83995257205E-02  0.91150146472E-02  0.76102177034E-01  0.51100000000E-03 0. -1.
         11    1    4    4    0    0 -0.45615541499E-01  0.15480446865E-01  0.18335732247E-01  0.51544951832E-01  0.51100000000E-03 0.  1.
</event>
<event>
 8    1  0.1097777E+005  0.1043930E+01  0.7957747E-01            NaN
         13   -1    0    0    0    0  0.00000000000E+00  0.00000000000E+00  0.74505805969E-08  0.10566000000E+00  0.10566000000E+00 0. -1.
     999900   -1    0    0    0    0 -0.00000000000E+00 -0.00000000000E+00 -0.74505805969E-08  0.93827000000E+00  0.93827000000E+00 0.  1.
     999902    2    1    2    0    0  0.67135705423E-02 -0.22386382692E-01 -0.33373440368E-03  0.10205562211E+01  0.10202885214E+01 0.  0.
     999903    2    3    3    0    0  0.12209253285E+00 -0.42241216507E-03  0.44044493323E-01  0.13164444372E+00  0.21990387916E-01 0.  0.
         14    1    1    2    0    0 -0.67135705423E-02  0.22386382692E-01  0.33373440368E-03  0.23373778858E-01  0.00000000000E+00 0.  1.
     999901    1    3    3    0    0 -0.11537896231E+00 -0.21963970527E-01 -0.44378227727E-01  0.88891177742E+00  0.88000000000E+00 0.  1.
        -11    1    4    4    0    0  0.21293662721E-01 -0.67011366007E-02  0.26147113281E-02  0.22481617828E-01  0.51100000000E-03 0. -1.
         11    1    4    4    0    0  0.10079887013E+00  0.62787244356E-02  0.41429781995E-01  0.10916282589E+00  0.51100000000E-03 0.  1.
</event>
<event>
 8    1  0.1097777E+005  0.1043930E+01  0.7957747E-01            NaN
         13   -1    0    0    0    0  0.00000000000E+00  0.00000000000E+00  0.74505805969E-08  0.10566000000E+00  0.10566000000E+00 0.  1.
     999900   -1    0    0    0    0 -0.00000000000E+00 -0.00000000000E+00 -0.74505805969E-08  0.93827000000E+00  0.93827000000E+00 0. -1.
     999902    2    1    2    0    0  0.95013632631E-02  0.36188797991E-02  0.21438565990E-01  0.10202027097E+01  0.10199267545E+01 0.  0.
     999903    2    3    3    0    0  0.12630517610E+00  0.30093907352E-01  0.13230956776E-01  0.13205214663E+00  0.20101503480E-01 0.  0.
         14    1    1    2    0    0 -0.95013632631E-02 -0.36188797991E-02 -0.21438565990E-01  0.23727290334E-01  0.00000000000E+00 0. -1.
     999901    1    3    3    0    0 -0.11680381284E+00 -0.26475027553E-01  0.82076092142E-02  0.88815056304E+00  0.88000000000E+00 0. -1.
        -11    1    4    4    0    0  0.11040335924E+00  0.20919286004E-01  0.15918070078E-01  0.11349081168E+00  0.51100000000E-03 0.  1.
         11    1    4    4    0    0  0.15901816856E-01  0.91746213474E-02 -0.26871133015E-02  0.18561334949E-01  0.51100000000E-03 0. -1.
</event>
<event>
 8    1  0.1097777E+005  0.1043930E+01  0.7957747E-01            NaN
         13   -1    0    0    0    0  0.00000000000E+00  0.00000000000E+00  0.74505805969E-08  0.10566000000E+00  0.10566000000E+00 0. -1.
     999900   -1    0    0    0    0 -0.00000000000E+00 -0.00000000000E+00 -0.74505805969E-08  0.93827000000E+00  0.93827000000E+00 0. -1.
     999902    2    1    2    0    0 -0.12381230609E-02 -0.20802518807E-01 -0.11069592067E-01  0.10203331018E+01  0.10200602065E+01 0.  0.
     999903    2    3    3    0    0 -0.71264918566E-01  0.54129169612E-01 -0.93022592612E-01  0.13059448604E+00  0.19825776854E-01 0.  0.
         14    1    1    2    0    0  0.12381230609E-02  0.20802518807E-01  0.11069592067E-01  0.23596898228E-01  0.00000000000E+00 0. -1.
     999901    1    3    3    0    0  0.70026795505E-01 -0.74931688420E-01  0.81953000545E-01  0.88973861573E+00  0.88000000000E+00 0.  1.
        -11    1    4    4    0    0 -0.24967762451E-01  0.30849543362E-01 -0.44031618405E-01  0.59280081206E-01  0.51100000000E-03 0.  1.
         11    1    4    4    0    0 -0.46297156115E-01  0.23279626250E-01 -0.48990974207E-01  0.71314404838E-01  0.51100000000E-03 0. -1.
</event>
<event>
 8    1  0.1097777E+005  0.1043930E+01  0.7957747E-01            NaN
         13   -1    0    0    0    0  0.00000000000E+00  0.00000000000E+00  0.74505805969E-08  0.10566000000E+00  0.10566000000E+00 0. -1.
     999900   -1    0    0    0    0 -0.00000000000E+00 -0.00000000000E+00 -0.74505805969E-08  0.93827000000E+00  0.93827000000E+00 0.  1.
     999902    2    1    2    0    0 -0.20922711596E-01  0.10098122863E-01  0.35389123654E-02  0.10204298756E+01  0.10201592401E+01 0.  0.
     999903    2    3    3    0    0 -0.11334530411E+00 -0.94605432840E-02 -0.65194939669E-01  0.13270873727E+00  0.20605070877E-01 0.  0.
         14    1    1    2    0    0  0.20922711596E-01 -0.10098122863E-01 -0.35389123654E-02  0.23500124396E-01  0.00000000000E+00 0. -1.
     999901    1    3    3    0    0  0.92422592517E-01  0.19558666148E-01  0.68733852034E-01  0.88772113833E+00  0.88000000000E+00 0. -1.
        -11    1    4    4    0    0 -0.49183643647E-02 -0.23965183248E-02  0.83958248515E-03  0.55587433701E-02  0.51100000000E-03 0.  1.
         11    1    4    4    0    0 -0.10842693975E+00 -0.70640249592E-02 -0.66034522154E-01  0.12714999390E+00  0.51100000000E-03 0. -1.
</event>
<event>
 7    1  0.1097777E+005  0.1043930E+01  0.7957747E-01            NaN
         13   -1    0    0    0    0  0.00000000000E+00  0.00000000000E+00  0.74505805969E-08  0.10566000000E+00  0.10566000000E+00 0.  1.
     999900   -1    0    0    0    0 -0.00000000000E+00 -0.00000000000E+00 -0.74505805969E-08  0.93827000000E+00  0.93827000000E+00 0.  1.
     999902    2    1    2    0    0  0.23361857958E-01  0.37813337803E-03  0.28435429485E-02  0.10203926865E+01  0.10201211837E+01 0.  0.
         14    1    1    2    0    0 -0.23361857958E-01 -0.37813337803E-03 -0.28435429485E-02  0.23537313538E-01  0.00000000000E+00 0.  1.
     999901    1    3    3    0    0  0.75697972050E-01  0.10982607980E+00 -0.12591280303E-02  0.89005254686E+00  0.88000000000E+00 0. -1.
        -11    1    3    3    0    0 -0.28858102359E-01 -0.15755296721E-01  0.73518573654E-02  0.33694663884E-01  0.51100000000E-03 0.  1.
         11    1    3    3    0    0 -0.23478011733E-01 -0.93692649700E-01 -0.32491863866E-02  0.96645475713E-01  0.51100000000E-03 0. -1.
</event>
<event>
 8    1  0.1097777E+005  0.1043930E+01  0.7957747E-01            NaN
         13   -1    0    0    0    0  0.00000000000E+00  0.00000000000E+00  0.74505805969E-08  0.10566000000E+00  0.10566000000E+00 0.  1.
     999900   -1    0    0    0    0 -0.00000000000E+00 -0.00000000000E+00 -0.74505805969E-08  0.93827000000E+00  0.93827000000E+00 0. -1.
     999902    2    1    2    0    0  0.92938132741E-02  0.15043545238E-01 -0.15601139863E-01  0.10203486772E+01  0.10200761463E+01 0.  0.
     999903    2    3    3    0    0 -0.11982652001E+00 -0.11324548296E-02  0.42365152155E-01  0.12889266909E+00  0.21420473283E-01 0.  0.
         14    1    1    2    0    0 -0.92938132741E-02 -0.15043545238E-01  0.15601139863E-01  0.23581322768E-01  0.00000000000E+00 0.  1.
     999901    1    3    3    0    0  0.12912033328E+00  0.16176000067E-01 -0.57966292017E-01  0.89145600814E+00  0.88000000000E+00 0.  1.
        -11    1    4    4    0    0 -0.11216124419E+00 -0.44830145892E-02  0.34590288980E-01  0.11746059480E+00  0.51100000000E-03 0. -1.
         11    1    4    4    0    0 -0.76652758166E-02  0.33505597596E-02  0.77748631746E-02  0.11432074284E-01  0.51100000000E-03 0.  1.
</event>
<event>
 8    1  0.1097777E+005  0.1043930E+01  0.7957747E-01            NaN
         13   -1    0    0    0    0  0.00000000000E+00  0.00000000000E+00  0.74505805969E-08  0.10566000000E+00  0.10566000000E+00 0. -1.
     999900   -1    0    0    0    0 -0.00000000000E+00 -0.00000000000E+00 -0.74505805969E-08  0.93827000000E+00  0.93827000000E+00 0. -1.
     999902    2    1    2    0    0 -0.58969135862E-03 -0.58929373093E-02  0.22599024108E-01  0.10205678439E+01  0.10203004135E+01 0.  0.
     999903    2    3    3    0    0  0.92090044934E-01  0.30054846191E-01  0.88332047454E-01  0.13253484509E+00  0.19469576259E-01 0.  0.
         14    1    1    2    0    0  0.58969135862E-03  0.58929373093E-02 -0.22599024108E-01  0.23362156079E-01  0.00000000000E+00 0.  1.
     999901    1    3    3    0    0 -0.92679736293E-01 -0.35947783501E-01 -0.65733023346E-01  0.88803299883E+00  0.88000000000E+00 0. -1.
        -11    1    4    4    0    0  0.74203481005E-01  0.30811814938E-01  0.66509426965E-01  0.10430383276E+00  0.51100000000E-03 0. -1.
         11    1    4    4    0    0  0.17886563929E-01 -0.75696874664E-03  0.21822620489E-01  0.28231012325E-01  0.51100000000E-03 0.  1.
</event>
<event>
 8    1  0.1097777E+005  0.1043930E+01  0.7957747E-01            NaN
         13   -1    0    0    0    0  0.00000000000E+00  0.00000000000E+00  0.74505805969E-08  0.10566000000E+00  0.10566000000E+00 0.  1.
     999900   -1    0    0    0    0 -0.00000000000E+00 -0.00000000000E+00 -0.74505805969E-08  0.93827000000E+00  0.93827000000E+00 0. -1.
     999902    2    1    2    0    0 -0.63129343882E-03  0.14849536080E-01  0.18721630572E-01  0.10200258852E+01  0.10197457525E+01 0.  0.
     999903    2    3    3    0    0 -0.28238637571E-01  0.12740034557E+00 -0.37134382808E-02  0.13214459669E+00  0.20497221963E-01 0.  0.
         14    1    1    2    0    0  0.63129343882E-03 -0.14849536080E-01 -0.18721630572E-01  0.23904114802E-01  0.00000000000E+00 0. -1.
     999901    1    3    3    0    0  0.27607344133E-01 -0.11255080949E+00  0.22435068853E-01  0.88788128851E+00  0.88000000000E+00 0.  1.
        -11    1    4    4    0    0 -0.42868788073E-02  0.10214381725E-01 -0.58044715066E-02  0.12516546425E-01  0.51100000000E-03 0.  1.
         11    1    4    4    0    0 -0.23951758764E-01  0.11718596384E+00  0.20910332258E-02  0.11962805027E+00  0.51100000000E-03 0. -1.
</event>
<event>
 8    1  0.1099020E+005  0.1043930E+01  0.7957747E-01            NaN
         13   -1    0    0    0    0  0.00000000000E+00  0.00000000000E+00  0.74505805969E-08  0.10566000000E+00  0.10566000000E+00 0. -1.
     999900   -1    0    0    0    0 -0.00000000000E+00 -0.00000000000E+00 -0.74505805969E-08  0.93827000000E+00  0.93827000000E+00 0.  1.
     999902    2    1    2    0    0  0.12583962194E-01  0.28830694486E-01 -0.72892277622E-02  0.10116391671E+01  0.10111236851E+01 0.  0.
     999903    2    3    3    0    0 -0.46075307843E-01  0.95793125541E-01  0.61737721722E-01  0.12445846571E+00  0.19470657662E-01 0.  0.
         14    1    1    2    0    0 -0.12583962194E-01 -0.28830694486E-01  0.72892277622E-02  0.32290832916E-01  0.00000000000E+00 0.  1.
     999901    1    3    3    0    0  0.58659270038E-01 -0.66962431056E-01 -0.69026949484E-01  0.88718070137E+00  0.88000000000E+00 0.  1.
        -11    1    4    4    0    0 -0.91122287842E-02  0.25325654566E-01  0.25280499911E-01  0.36929477242E-01  0.51100000000E-03 0. -1.
         11    1    4    4    0    0 -0.36963079059E-01  0.70467470975E-01  0.36457221811E-01  0.87528988469E-01  0.51100000000E-03 0.  1.
</event>
<event>
 8    1  0.1097777E+005  0.1043930E+01  0.7957747E-01            NaN
         13   -1    0    0    0    0  0.00000000000E+00  0.00000000000E+00  0.74505805969E-08  0.10566000000E+00  0.10566000000E+00 0. -1.
     999900   -1    0    0    0    0 -0.00000000000E+00 -0.00000000000E+00 -0.74505805969E-08  0.93827000000E+00  0.93827000000E+00 0. -1.
     999902    2    1    2    0    0  0.76860620365E-02  0.18769113224E-01 -0.54887152510E-02  0.10229185470E+01  0.10227027294E+01 0.  0.
     999903    2    3    3    0    0  0.11557893052E+00  0.45093223266E-01 -0.49115523133E-01  0.13486611153E+00  0.19612380315E-01 0.  0.
         14    1    1    2    0    0 -0.76860620365E-02 -0.18769113224E-01  0.54887152510E-02  0.21011452970E-01  0.00000000000E+00 0. -1.
     999901    1    3    3    0    0 -0.10789286848E+00 -0.26324110043E-01  0.43626807882E-01  0.88805243550E+00  0.88000000000E+00 0.  1.
        -11    1    4    4    0    0  0.32586058390E-01  0.53090737972E-02 -0.75161305105E-02  0.33864299857E-01  0.51100000000E-03 0.  1.
         11    1    4    4    0    0  0.82992872127E-01  0.39784149469E-01 -0.41599392622E-01  0.10100181167E+00  0.51100000000E-03 0. -1.
</event>
<event>
 8    1  0.1097777E+005  0.1043930E+01  0.7957747E-01            NaN
         13   -1    0    0    0    0  0.00000000000E+00  0.00000000000E+00  0.74505805969E-08  0.10566000000E+00  0.10566000000E+00 0.  1.
     999900   -1    0    0    0    0 -0.00000000000E+00 -0.00000000000E+00 -0.74505805969E-08  0.93827000000E+00  0.93827000000E+00 0.  1.
     999902    2    1    2    0    0 -0.15637203399E-01  0.98742512408E-02  0.14017534521E-01  0.10207240904E+01  0.10204602660E+01 0.  0.
     999903    2    3    3    0    0 -0.12739574153E-01 -0.86827350492E-01  0.96126378725E-01  0.13162260104E+00  0.19568926252E-01 0.  0.
         14    1    1    2    0    0  0.15637203399E-01 -0.98742512408E-02 -0.14017534521E-01  0.23205909630E-01  0.00000000000E+00 0. -1.
     999901    1    3    3    0    0 -0.28976292467E-02  0.96701601732E-01 -0.82108844205E-01  0.88910148933E+00  0.88000000000E+00 0.  1.
        -11    1    4    4    0    0  0.45546167152E-02 -0.23825897539E-01  0.21284334228E-01  0.32275407534E-01  0.51100000000E-03 0.  1.
         11    1    4    4    0    0 -0.17294190868E-01 -0.63001452952E-01  0.74842044498E-01  0.99347193506E-01  0.51100000000E-03 0. -1.
</event>
<event>
 8    1  0.1097777E+005  0.1043930E+01  0.7957747E-01            NaN
         13   -1    0    0    0    0  0.00000000000E+00  0.00000000000E+00  0.74505805969E-08  0.10566000000E+00  0.10566000000E+00 0. -1.
     999900   -1    0    0    0    0 -0.00000000000E+00 -0.00000000000E+00 -0.74505805969E-08  0.93827000000E+00  0.93827000000E+00 0.  1.
     999902    2    1    2    0    0 -0.21646844772E-01  0.92676288258E-02  0.27657538142E-02  0.10202208409E+01  0.10199453122E+01 0.  0.
     999903    2    3    3    0    0 -0.29571045498E-01 -0.56377593218E-01 -0.11196473591E+00  0.13031344489E+00  0.19814441311E-01 0.  0.
         14    1    1    2    0    0  0.21646844772E-01 -0.92676288258E-02 -0.27657538142E-02  0.23709159133E-01  0.00000000000E+00 0.  1.
     999901    1    3    3    0    0  0.79242007264E-02  0.65645222044E-01  0.11473048972E+00  0.88990739597E+00  0.88000000000E+00 0. -1.
        -11    1    4    4    0    0 -0.13208116083E-01 -0.25826594575E-01 -0.70712356800E-01  0.76432753731E-01  0.51100000000E-03 0.  1.
         11    1    4    4    0    0 -0.16362929415E-01 -0.30550998643E-01 -0.41252379108E-01  0.53880691163E-01  0.51100000000E-03 0. -1.
</event>
<event>
 8    1  0.1097777E+005  0.1043930E+01  0.7957747E-01            NaN
         13   -1    0    0    0    0  0.00000000000E+00  0.00000000000E+00  0.74505805969E-08  0.10566000000E+00  0.10566000000E+00 0.  1.
     999900   -1    0    0    0    0 -0.00000000000E+00 -0.00000000000E+00 -0.74505805969E-08  0.93827000000E+00  0.93827000000E+00 0.  1.
     999902    2    1    2    0    0 -0.28516201666E-02 -0.78763967448E-02  0.20950219920E-01  0.10213671749E+01  0.10211179289E+01 0.  0.
     999903    2    3    3    0    0 -0.51771116382E-01 -0.11231205392E+00 -0.41327589323E-01  0.13166022923E+00  0.18226364787E-01 0.  0.
         14    1    1    2    0    0  0.28516201666E-02  0.78763967448E-02 -0.20950219920E-01  0.22562825132E-01  0.00000000000E+00 0. -1.
     999901    1    3    3    0    0  0.48919496215E-01  0.10443565718E+00  0.62277809243E-01  0.88970694564E+00  0.88000000000E+00 0.  1.
        -11    1    4    4    0    0 -0.72209556398E-02 -0.30560639644E-01 -0.54107154279E-02  0.31868979561E-01  0.51100000000E-03 0. -1.
         11    1    4    4    0    0 -0.44550160742E-01 -0.81751414276E-01 -0.35916873895E-01  0.99791249665E-01  0.51100000000E-03 0.  1.
</event>
<event>
 8    1  0.1097777E+005  0.1043930E+01  0.7957747E-01            NaN
         13   -1    0    0    0    0  0.00000000000E+00  0.00000000000E+00  0.74505805969E-08  0.10566000000E+00  0.10566000000E+00 0.  1.
     999900   -1    0    0    0    0 -0.00000000000E+00 -0.00000000000E+00 -0.74505805969E-08  0.93827000000E+00  0.93827000000E+00 0.  1.
     999902    2    1    2    0    0  0.43592817679E-02 -0.17572563601E-01 -0.13214084016E-01  0.10215154881E+01  0.10212695442E+01 0.  0.
     999903    2    3    3    0    0  0.10290368552E+00  0.40765952207E-01 -0.69817856695E-01  0.13229202401E+00  0.19380793328E-01 0.  0.
         14    1    1    2    0    0 -0.43592817679E-02  0.17572563601E-01  0.13214084016E-01  0.22414511938E-01  0.00000000000E+00 0.  1.
     999901    1    3    3    0    0 -0.98544403754E-01 -0.58338515809E-01  0.56603772679E-01  0.88922346405E+00  0.88000000000E+00 0. -1.
        -11    1    4    4    0    0  0.66531409976E-01  0.24669291720E-01 -0.33668773178E-01  0.78542026175E-01  0.51100000000E-03 0.  1.
         11    1    4    4    0    0  0.36372275546E-01  0.16096660487E-01 -0.36149083517E-01  0.53749997835E-01  0.51100000000E-03 0. -1.
</event>
<event>
 8    1  0.1097777E+005  0.1043930E+01  0.7957747E-01            NaN
         13   -1    0    0    0    0  0.00000000000E+00  0.00000000000E+00  0.74505805969E-08  0.10566000000E+00  0.10566000000E+00 0. -1.
     999900   -1    0    0    0    0 -0.00000000000E+00 -0.00000000000E+00 -0.74505805969E-08  0.93827000000E+00  0.93827000000E+00 0.  1.
     999902    2    1    2    0    0  0.11314451674E-01  0.75193881337E-03 -0.21553866660E-01  0.10195753003E+01  0.10192843772E+01 0.  0.
     999903    2    3    3    0    0  0.12081968089E+00  0.22303993692E-01 -0.45915748102E-01  0.13219185019E+00  0.16479256858E-01 0.  0.
         14    1    1    2    0    0 -0.11314451674E-01 -0.75193881337E-03  0.21553866660E-01  0.24354699683E-01  0.00000000000E+00 0. -1.
     999901    1    3    3    0    0 -0.10950522922E+00 -0.21552054879E-01  0.24361881442E-01  0.88738345013E+00  0.88000000000E+00 0.  1.
        -11    1    4    4    0    0  0.37898375186E-01  0.11524979190E-01 -0.21531491306E-01  0.45088559812E-01  0.51100000000E-03 0.  1.
         11    1    4    4    0    0  0.82921305707E-01  0.10779014503E-01 -0.24384256796E-01  0.87103290375E-01  0.51100000000E-03 0. -1.
</event>
<event>
 8    1  0.1097777E+005  0.1043930E+01  0.7957747E-01            NaN
         13   -1    0    0    0    0  0.00000000000E+00  0.00000000000E+00  0.74505805969E-08  0.10566000000E+00  0.10566000000E+00 0.  1.
     999900   -1    0    0    0    0 -0.00000000000E+00 -0.00000000000E+00 -0.74505805969E-08  0.93827000000E+00  0.93827000000E+00 0. -1.
     999902    2    1    2    0    0 -0.18978841450E-01 -0.13115638793E-01 -0.57042273608E-02  0.10201654337E+01  0.10198886005E+01 0.  0.
     999903    2    3    3    0    0 -0.72920444960E-01 -0.81688631821E-01 -0.73306842382E-01  0.13327081448E+00  0.19919663422E-01 0.  0.
         14    1    1    2    0    0  0.18978841450E-01  0.13115638793E-01  0.57042273608E-02  0.23764566344E-01  0.00000000000E+00 0. -1.
     999901    1    3    3    0    0  0.53941603510E-01  0.68572993028E-01  0.67602615021E-01  0.88689461917E+00  0.88000000000E+00 0.  1.
        -11    1    4    4    0    0 -0.46671517224E-02 -0.33393103104E-02 -0.10153404552E-01  0.11674161364E-01  0.51100000000E-03 0. -1.
         11    1    4    4    0    0 -0.68253293238E-01 -0.78349321510E-01 -0.63153437830E-01  0.12159665312E+00  0.51100000000E-03 0.  1.
</event>
<event>
 8    1  0.1097777E+005  0.1043930E+01  0.7957747E-01            NaN
         13   -1    0    0    0    0  0.00000000000E+00  0.00000000000E+00  0.74505805969E-08  0.10566000000E+00  0.10566000000E+00 0.  1.
     999900   -1    0    0    0    0 -0.00000000000E+00 -0.00000000000E+00 -0.74505805969E-08  0.93827000000E+00  0.93827000000E+00 0.  1.
     999902    2    1    2    0    0 -0.20960586055E-01 -0.68542537832E-02  0.97418347517E-02  0.10198212815E+01  0.10195362749E+01 0.  0.
     999903    2    3    3    0    0  0.29147553171E-01  0.12037170005E+00  0.29357119768E-01  0.12904519946E+00  0.21257869010E-01 0.  0.
         14    1    1    2    0    0  0.20960586055E-01  0.68542537832E-02 -0.97418347517E-02  0.24108718486E-01  0.00000000000E+00 0. -1.
     999901    1    3    3    0    0 -0.50108139227E-01 -0.12722595383E+00 -0.19615285016E-01  0.89077608205E+00  0.88000000000E+00 0.  1.
        -11    1    4    4    0    0  0.29475141844E-01  0.10913693960E+00  0.31995499929E-01  0.11748884504E+00  0.51100000000E-03 0. -1.
         11    1    4    4    0    0 -0.32758867296E-03  0.11234760446E-01 -0.26383801617E-02  0.11556354421E-01  0.51100000000E-03 0.  1.
</event>
<event>
 8    1  0.1097777E+005  0.1043930E+01  0.7957747E-01            NaN
         13   -1    0    0    0    0  0.00000000000E+00  0.00000000000E+00  0.74505805969E-08  0.10566000000E+00  0.10566000000E+00 0. -1.
     999900   -1    0    0    0    0 -0.00000000000E+00 -0.00000000000E+00 -0.74505805969E-08  0.93827000000E+00  0.93827000000E+00 0. -1.
     999902    2    1    2    0    0  0.17536938688E-01  0.48833623859E-02 -0.12040744348E-01  0.10221040757E+01  0.10218710147E+01 0.  0.
     999903    2    3    3    0    0 -0.91736645331E-03 -0.12111104338E+00 -0.48962155062E-01  0.13217242539E+00  0.20088081468E-01 0.  0.
         14    1    1    2    0    0 -0.17536938688E-01 -0.48833623859E-02  0.12040744348E-01  0.21825924292E-01  0.00000000000E+00 0. -1.
     999901    1    3    3    0    0  0.18454305142E-01  0.12599440576E+00  0.36921410714E-01  0.88993165031E+00  0.88000000000E+00 0.  1.
        -11    1    4    4    0    0 -0.10169250560E-01 -0.75798408252E-01 -0.28881250064E-01  0.81750841444E-01  0.51100000000E-03 0.  1.
         11    1    4    4    0    0  0.92518841066E-02 -0.45312635125E-01 -0.20080904998E-01  0.50421583950E-01  0.51100000000E-03 0. -1.
</event>
<event>
 8    1  0.1097777E+005  0.1043930E+01  0.7957747E-01            NaN
         13   -1    0    0    0    0  0.00000000000E+00  0.00000000000E+00  0.74505805969E-08  0.10566000000E+00  0.10566000000E+00 0.  1.
     999900   -1    0    0    0    0 -0.00000000000E+00 -0.00000000000E+00 -0.74505805969E-08  0.93827000000E+00  0.93827000000E+00 0. -1.
     999902    2    1    2    0    0 -0.13157850664E-01 -0.19188945580E-01  0.65029377572E-02  0.10197715053E+01  0.10194853065E+01 0.  0.
     999903    2    3    3    0    0  0.87649896872E-02 -0.13053806382E+00 -0.40234562310E-02  0.13242149430E+00  0.20056240987E-01 0.  0.
         14    1    1    2    0    0  0.13157850664E-01  0.19188945580E-01 -0.65029377572E-02  0.24158494698E-01  0.00000000000E+00 0. -1.
     999901    1    3    3    0    0 -0.21922840351E-01  0.11134911824E+00  0.10526393988E-01  0.88735001101E+00  0.88000000000E+00 0.  1.
        -11    1    4    4    0    0  0.64998599139E-02 -0.88271877904E-01  0.66652009795E-02  0.88762935016E-01  0.51100000000E-03 0. -1.
         11    1    4    4    0    0  0.22651297733E-02 -0.42266185913E-01 -0.10688657211E-01  0.43658559281E-01  0.51100000000E-03 0.  1.
</event>
<event>
 8    1  0.1097777E+005  0.1043930E+01  0.7957747E-01            NaN
         13   -1    0    0    0    0  0.00000000000E+00  0.00000000000E+00  0.74505805969E-08  0.10566000000E+00  0.10566000000E+00 0.  1.
     999900   -1    0    0    0    0 -0.00000000000E+00 -0.00000000000E+00 -0.74505805969E-08  0.93827000000E+00  0.93827000000E+00 0.  1.
     999902    2    1    2    0    0  0.81662240342E-02 -0.12135278792E-01 -0.18161031907E-01  0.10206110102E+01  0.10203445785E+01 0.  0.
     999903    2    3    3    0    0 -0.66409826862E-01  0.10523757394E+00  0.25274921558E-01  0.12863306428E+00  0.20553138281E-01 0.  0.
         14    1    1    2    0    0 -0.81662240342E-02  0.12135278792E-01  0.18161031907E-01  0.23318989821E-01  0.00000000000E+00 0.  1.
     999901    1    3    3    0    0  0.74576050896E-01 -0.11737285273E+00 -0.43435953465E-01  0.89197794590E+00  0.88000000000E+00 0.  1.
        -11    1    4    4    0    0 -0.57507554607E-01  0.10101220204E+00  0.23938384075E-01  0.11867557100E+00  0.51100000000E-03 0. -1.
         11    1    4    4    0    0 -0.89022722556E-02  0.42253718950E-02  0.13365374832E-02  0.99574932794E-02  0.51100000000E-03 0.  1.
</event>
<event>
 8    1  0.1097777E+005  0.1043930E+01  0.7957747E-01            NaN
         13   -1    0    0    0    0  0.00000000000E+00  0.00000000000E+00  0.74505805969E-08  0.10566000000E+00  0.10566000000E+00 0.  1.
     999900   -1    0    0    0    0 -0.00000000000E+00 -0.00000000000E+00 -0.74505805969E-08  0.93827000000E+00  0.93827000000E+00 0. -1.
     999902    2    1    2    0    0  0.82538735444E-02  0.20766316838E-01 -0.92168911391E-02  0.10197573414E+01  0.10194708028E+01 0.  0.
     999903    2    3    3    0    0  0.11008881262E+00 -0.19179287398E-01 -0.65692171504E-01  0.13118800619E+00  0.20185139117E-01 0.  0.
         14    1    1    2    0    0 -0.82538735444E-02 -0.20766316838E-01  0.92168911391E-02  0.24172658641E-01  0.00000000000E+00 0.  1.
     999901    1    3    3    0    0 -0.10183493908E+00  0.39945604236E-01  0.56475280365E-01  0.88856933517E+00  0.88000000000E+00 0. -1.
        -11    1    4    4    0    0  0.88773127301E-01 -0.19560647880E-01 -0.44837617256E-01  0.10136054518E+00  0.51100000000E-03 0.  1.
         11    1    4    4    0    0  0.21315685320E-01  0.38136048280E-03 -0.20854554248E-01  0.29827461011E-01  0.51100000000E-03 0. -1.
</event>
<event>
 8    1  0.1097777E+005  0.1043930E+01  0.7957747E-01            NaN
         13   -1    0    0    0    0  0.00000000000E+00  0.00000000000E+00  0.74505805969E-08  0.10566000000E+00  0.10566000000E+00 0.  1.
     999900   -1    0    0    0    0 -0.00000000000E+00 -0.00000000000E+00 -0.74505805969E-08  0.93827000000E+00  0.93827000000E+00 0.  1.
     999902    2    1    2    0    0  0.20315329907E-01 -0.88434555504E-04  0.10112202100E-01  0.10212368935E+01  0.10209847284E+01 0.  0.
     999903    2    3    3    0    0  0.61850774969E-01 -0.94320132713E-01 -0.65741124271E-01  0.13199084588E+00  0.19439191794E-01 0.  0.
         14    1    1    2    0    0 -0.20315329907E-01  0.88434555504E-04 -0.10112202100E-01  0.22693106469E-01  0.00000000000E+00 0.  1.
     999901    1    3    3    0    0 -0.41535445062E-01  0.94231698158E-01  0.75853326371E-01  0.88924604765E+00  0.88000000000E+00 0. -1.
        -11    1    4    4    0    0  0.54488467204E-01 -0.85653165106E-01 -0.51726789293E-01  0.11393585740E+00  0.51100000000E-03 0.  1.
         11    1    4    4    0    0  0.73623077645E-02 -0.86669676067E-02 -0.14014334978E-01  0.18054988480E-01  0.51100000000E-03 0. -1.
</event>
<event>
 8    1  0.1097777E+005  0.1043930E+01  0.7957747E-01            NaN
         13   -1    0    0    0    0  0.00000000000E+00  0.00000000000E+00  0.74505805969E-08  0.10566000000E+00  0.10566000000E+00 0.  1.
     999900   -1    0    0    0    0 -0.00000000000E+00 -0.00000000000E+00 -0.74505805969E-08  0.93827000000E+00  0.93827000000E+00 0.  1.
     999902    2    1    2    0    0  0.17621265682E-01 -0.14387181293E-01  0.88146679687E-02  0.10195333125E+01  0.10192413732E+01 0.  0.
     999903    2    3    3    0    0  0.59381800225E-01 -0.47753842213E-01 -0.10428075113E+00  0.13068695337E+00  0.19949362946E-01 0.  0.
         14    1    1    2    0    0 -0.17621265682E-01  0.14387181293E-01 -0.88146679687E-02  0.24396687504E-01  0.00000000000E+00 0.  1.
     999901    1    3    3    0    0 -0.41760534542E-01  0.33366660920E-01  0.11309541910E+00  0.88884635912E+00  0.88000000000E+00 0. -1.
        -11    1    4    4    0    0  0.38901638152E-01 -0.33683718619E-01 -0.53966239093E-01  0.74569071563E-01  0.51100000000E-03 0. -1.
         11    1    4    4    0    0  0.20480162072E-01 -0.14070123594E-01 -0.50314512034E-01  0.56117881809E-01  0.51100000000E-03 0.  1.
</event>
<event>
 8    1  0.1097777E+005  0.1043930E+01  0.7957747E-01            NaN
         13   -1    0    0    0    0  0.00000000000E+00  0.00000000000E+00  0.74505805969E-08  0.10566000000E+00  0.10566000000E+00 0.  1.
     999900   -1    0    0    0    0 -0.00000000000E+00 -0.00000000000E+00 -0.74505805969E-08  0.93827000000E+00  0.93827000000E+00 0.  1.
     999902    2    1    2    0    0 -0.11789473877E-02 -0.20416454216E-01  0.10847056378E-01  0.10207809147E+01  0.10205183955E+01 0.  0.
     999903    2    3    3    0    0 -0.12128571611E+00 -0.61519151161E-02 -0.44221436237E-01  0.13080245883E+00  0.20141420567E-01 0.  0.
         14    1    1    2    0    0  0.11789473877E-02  0.20416454216E-01 -0.10847056378E-01  0.23149085333E-01  0.00000000000E+00 0. -1.
     999901    1    3    3    0    0  0.12010676872E+00 -0.14264539100E-01  0.55068492615E-01  0.88997845583E+00  0.88000000000E+00 0. -1.
        -11    1    4    4    0    0 -0.46099152013E-01 -0.12127982291E-01 -0.17676230196E-01  0.50842206932E-01  0.51100000000E-03 0. -1.
         11    1    4    4    0    0 -0.75186564096E-01  0.59760671751E-02 -0.26545206040E-01  0.79960251901E-01  0.51100000000E-03 0.  1.
</event>
<event>
 8    1  0.1097777E+005  0.1043930E+01  0.7957747E-01            NaN
         13   -1    0    0    0    0  0.00000000000E+00  0.00000000000E+00  0.74505805969E-08  0.10566000000E+00  0.10566000000E+00 0.  1.
     999900   -1    0    0    0    0 -0.00000000000E+00 -0.00000000000E+00 -0.74505805969E-08  0.93827000000E+00  0.93827000000E+00 0. -1.
     999902    2    1    2    0    0 -0.16115707185E-01  0.17358459231E-01 -0.67681625342E-02  0.10192958743E+01  0.10189981547E+01 0.  0.
     999903    2    3    3    0    0 -0.68639533062E-01  0.11149032620E+00  0.74026433694E-02  0.13260518843E+00  0.19694124404E-01 0.  0.
         14    1    1    2    0    0  0.16115707185E-01 -0.17358459231E-01  0.67681625342E-02  0.24634125700E-01  0.00000000000E+00 0.  1.
     999901    1    3    3    0    0  0.52523825877E-01 -0.94131866966E-01 -0.14170805904E-01  0.88669068587E+00  0.88000000000E+00 0. -1.
        -11    1    4    4    0    0 -0.56369911145E-01  0.83641942622E-01 -0.15595064411E-02  0.10087732465E+00  0.51100000000E-03 0. -1.
         11    1    4    4    0    0 -0.12269621916E-01  0.27848383575E-01  0.89621498105E-02  0.31727863778E-01  0.51100000000E-03 0.  1.
</event>
<event>
 8    1  0.1097777E+005  0.1043930E+01  0.7957747E-01            NaN
         13   -1    0    0    0    0  0.00000000000E+00  0.00000000000E+00  0.74505805969E-08  0.10566000000E+00  0.10566000000E+00 0.  1.
     999900   -1    0    0    0    0 -0.00000000000E+00 -0.00000000000E+00 -0.74505805969E-08  0.93827000000E+00  0.93827000000E+00 0. -1.
     999902    2    1    2    0    0  0.16039149385E-01 -0.13429513762E-01 -0.10904148914E-01  0.10203396075E+01  0.10200668645E+01 0.  0.
     999903    2    3    3    0    0 -0.64743183881E-01 -0.27767009549E-01 -0.10875277200E+00  0.13112326593E+00  0.20086283150E-01 0.  0.
         14    1    1    2    0    0 -0.16039149385E-01  0.13429513762E-01  0.10904148914E-01  0.23590392460E-01  0.00000000000E+00 0. -1.
     999901    1    3    3    0    0  0.80782333265E-01  0.14337495788E-01  0.97848623088E-01  0.88921634161E+00  0.88000000000E+00 0.  1.
        -11    1    4    4    0    0 -0.18861594689E-01 -0.76951786566E-02 -0.49561029601E-01  0.53586680293E-01  0.51100000000E-03 0. -1.
         11    1    4    4    0    0 -0.45881589192E-01 -0.20071830893E-01 -0.59191742401E-01  0.77536585633E-01  0.51100000000E-03 0.  1.
</event>
<event>
 8    1  0.1097777E+005  0.1043930E+01  0.7957747E-01            NaN
         13   -1    0    0    0    0  0.00000000000E+00  0.00000000000E+00  0.74505805969E-08  0.10566000000E+00  0.10566000000E+00 0.  1.
     999900   -1    0    0    0    0 -0.00000000000E+00 -0.00000000000E+00 -0.74505805969E-08  0.93827000000E+00  0.93827000000E+00 0.  1.
     999902    2    1    2    0    0 -0.19148818942E-01 -0.12678682507E-01  0.16272008436E-02  0.10209066632E+01  0.10206470207E+01 0.  0.
     999903    2    3    3    0    0 -0.15384110058E-01 -0.29463760838E-01  0.12619825530E+00  0.13196692420E+00  0.19608299152E-01 0.  0.
         14    1    1    2    0    0  0.19148818942E-01  0.12678682507E-01 -0.16272008436E-02  0.23023336847E-01  0.00000000000E+00 0. -1.
     999901    1    3    3    0    0 -0.37647088840E-02  0.16785078330E-01 -0.12457105446E+00  0.88893973896E+00  0.88000000000E+00 0.  1.
        -11    1    4    4    0    0 -0.10316629258E-01 -0.70382237596E-02  0.72227300407E-01  0.73300842274E-01  0.51100000000E-03 0. -1.
         11    1    4    4    0    0 -0.50674808002E-02 -0.22425537078E-01  0.53970954895E-01  0.58666081922E-01  0.51100000000E-03 0.  1.
</event>
<event>
 8    1  0.1097777E+005  0.1043930E+01  0.7957747E-01            NaN
         13   -1    0    0    0    0  0.00000000000E+00  0.00000000000E+00  0.74505805969E-08  0.10566000000E+00  0.10566000000E+00 0. -1.
     999900   -1    0    0    0    0 -0.00000000000E+00 -0.00000000000E+00 -0.74505805969E-08  0.93827000000E+00  0.93827000000E+00 0. -1.
     999902    2    1    2    0    0  0.13751755191E-01  0.17841204142E-01  0.94713495425E-02  0.10194938424E+01  0.10192009463E+01 0.  0.
     999903    2    3    3    0    0 -0.44081827020E-01 -0.84877436973E-01  0.83626870993E-01  0.12854216929E+00  0.19551187996E-01 0.  0.
         14    1    1    2    0    0 -0.13751755191E-01 -0.17841204142E-01 -0.94713495425E-02  0.24436157600E-01  0.00000000000E+00 0.  1.
     999901    1    3    3    0    0  0.57833582211E-01  0.10271864112E+00 -0.74155521451E-01  0.89095167311E+00  0.88000000000E+00 0. -1.
        -11    1    4    4    0    0 -0.33620074668E-01 -0.66552737045E-01  0.53562452846E-01  0.91808353132E-01  0.51100000000E-03 0. -1.
         11    1    4    4    0    0 -0.10461752352E-01 -0.18324699928E-01  0.30064418147E-01  0.36733816154E-01  0.51100000000E-03 0.  1.
</event>
<event>
 8    1  0.1097777E+005  0.1043930E+01  0.7957747E-01            NaN
         13   -1    0    0    0    0  0.00000000000E+00  0.00000000000E+00  0.74505805969E-08  0.10566000000E+00  0.10566000000E+00 0. -1.
     999900   -1    0    0    0    0 -0.00000000000E+00 -0.00000000000E+00 -0.74505805969E-08  0.93827000000E+00  0.93827000000E+00 0.  1.
     999902    2    1    2    0    0  0.81859714330E-02  0.23071675530E-01 -0.82201393305E-02  0.10181059215E+01  0.10177783572E+01 0.  0.
     999903    2    3    3    0    0  0.92691552137E-01  0.78528151245E-01  0.44468882846E-01  0.13075438635E+00  0.18995621388E-01 0.  0.
         14    1    1    2    0    0 -0.81859714330E-02 -0.23071675530E-01  0.82201393305E-02  0.25824078506E-01  0.00000000000E+00 0. -1.
     999901    1    3    3    0    0 -0.84505580704E-01 -0.55456475715E-01 -0.52689022177E-01  0.88735153515E+00  0.88000000000E+00 0.  1.
        -11    1    4    4    0    0  0.59659462008E-01  0.38374767404E-01  0.26983357173E-01  0.75896224318E-01  0.51100000000E-03 0. -1.
         11    1    4    4    0    0  0.33032090129E-01  0.40153383841E-01  0.17485525673E-01  0.54858162029E-01  0.51100000000E-03 0.  1.
</event>
<event>
 8    1  0.1097777E+005  0.1043930E+01  0.7957747E-01            NaN
         13   -1    0    0    0    0  0.00000000000E+00  0.00000000000E+00  0.74505805969E-08  0.10566000000E+00  0.10566000000E+00 0. -1.
     999900   -1    0    0    0    0 -0.00000000000E+00 -0.00000000000E+00 -0.74505805969E-08  0.93827000000E+00  0.93827000000E+00 0. -1.
     999902    2    1    2    0    0  0.14351802906E-01  0.59407167059E-02  0.18221129761E-01  0.10199868187E+01  0.10197057587E+01 0.  0.
     999903    2    3    3    0    0  0.56169246027E-01 -0.46814661550E-01  0.10880083585E+00  0.13277967735E+00  0.21124017161E-01 0.  0.
         14    1    1    2    0    0 -0.14351802906E-01 -0.59407167059E-02 -0.18221129761E-01  0.23943181313E-01  0.00000000000E+00 0. -1.
     999901    1    3    3    0    0 -0.41817443121E-01  0.52755378255E-01 -0.90579706087E-01  0.88720714134E+00  0.88000000000E+00 0.  1.
        -11    1    4    4    0    0  0.43775711440E-01 -0.42245068651E-01  0.75567013090E-01  0.97013366738E-01  0.51100000000E-03 0. -1.
         11    1    4    4    0    0  0.12393534587E-01 -0.45695928990E-02  0.33233822757E-01  0.35766310613E-01  0.51100000000E-03 0.  1.
</event>
<event>
 8    1  0.1097777E+005  0.1043930E+01  0.7957747E-01            NaN
         13   -1    0    0    0    0  0.00000000000E+00  0.00000000000E+00  0.74505805969E-08  0.10566000000E+00  0.10566000000E+00 0.  1.
     999900   -1    0    0    0    0 -0.00000000000E+00 -0.00000000000E+00 -0.74505805969E-08  0.93827000000E+00  0.93827000000E+00 0.  1.
     999902    2    1    2    0    0 -0.12850849633E-01 -0.15380425023E-01 -0.11034409593E-01  0.10210507516E+01  0.10207943855E+01 0.  0.
     999903    2    3    3    0    0 -0.12065401493E+00 -0.36470693880E-01 -0.39934159887E-01  0.13375062347E+00  0.20173976357E-01 0.  0.
         14    1    1    2    0    0  0.12850849633E-01  0.15380425023E-01  0.11034409593E-01  0.22879248354E-01  0.00000000000E+00 0. -1.
     999901    1    3    3    0    0  0.10780316530E+00  0.21090268856E-01  0.28899750295E-01  0.88730012817E+00  0.88000000000E+00 0. -1.
        -11    1    4    4    0    0 -0.10363257846E+00 -0.36599628017E-01 -0.39257580475E-01  0.11670759545E+00  0.51100000000E-03 0.  1.
         11    1    4    4    0    0 -0.17021436468E-01  0.12893413773E-03 -0.67657941197E-03  0.17043028021E-01  0.51100000000E-03 0. -1.
</event>
<event>
 8    1  0.1097777E+005  0.1043930E+01  0.7957747E-01            NaN
         13   -1    0    0    0    0  0.00000000000E+00  0.00000000000E+00  0.74505805969E-08  0.10566000000E+00  0.10566000000E+00 0.  1.
     999900   -1    0    0    0    0 -0.00000000000E+00 -0.00000000000E+00 -0.74505805969E-08  0.93827000000E+00  0.93827000000E+00 0.  1.
     999902    2    1    2    0    0 -0.22916146648E-01  0.12918018530E-03  0.35428562877E-02  0.10207412464E+01  0.10204778164E+01 0.  0.
     999903    2    3    3    0    0 -0.98874768827E-01  0.68223901653E-01  0.54866432370E-01  0.13336268406E+00  0.18562312088E-01 0.  0.
         14    1    1    2    0    0  0.22916146648E-01 -0.12918018530E-03 -0.35428562877E-02  0.23188753641E-01  0.00000000000E+00 0. -1.
     999901    1    3    3    0    0  0.75958622179E-01 -0.68094721468E-01 -0.51323576083E-01  0.88737856230E+00  0.88000000000E+00 0. -1.
        -11    1    4    4    0    0 -0.51922323170E-01  0.43404409479E-01  0.38118811678E-01  0.77673517562E-01  0.51100000000E-03 0. -1.
         11    1    4    4    0    0 -0.46952445657E-01  0.24819492174E-01  0.16747620692E-01  0.55689166494E-01  0.51100000000E-03 0.  1.
</event>
<event>
 8    1  0.1097777E+005  0.1043930E+01  0.7957747E-01            NaN
         13   -1    0    0    0    0  0.00000000000E+00  0.00000000000E+00  0.74505805969E-08  0.10566000000E+00  0.10566000000E+00 0.  1.
     999900   -1    0    0    0    0 -0.00000000000E+00 -0.00000000000E+00 -0.74505805969E-08  0.93827000000E+00  0.93827000000E+00 0.  1.
     999902    2    1    2    0    0 -0.46762265640E-02 -0.23678731631E-01  0.54727710752E-03  0.10197877354E+01  0.10195019256E+01 0.  0.
     999903    2    3    3    0    0  0.20869732161E-01  0.12056194412E+00  0.21805349277E-01  0.12742577177E+00  0.28126961520E-01 0.  0.
         14    1    1    2    0    0  0.46762265640E-02  0.23678731631E-01 -0.54727710752E-03  0.24142264574E-01  0.00000000000E+00 0.  1.
     999901    1    3    3    0    0 -0.25545958725E-01 -0.14424067575E+00 -0.21258072169E-01  0.89236196366E+00  0.88000000000E+00 0.  1.
        -11    1    4    4    0    0  0.12216069287E-01  0.14155943460E-01  0.16148409978E-02  0.18774768081E-01  0.51100000000E-03 0. -1.
         11    1    4    4    0    0  0.86536628744E-02  0.10640600066E+00  0.20190508279E-01  0.10865100369E+00  0.51100000000E-03 0.  1.
</event>
<event>
 8    1  0.1097777E+005  0.1043930E+01  0.7957747E-01            NaN
         13   -1    0    0    0    0  0.00000000000E+00  0.00000000000E+00  0.74505805969E-08  0.10566000000E+00  0.10566000000E+00 0.  1.
     999900   -1    0    0    0    0 -0.00000000000E+00 -0.00000000000E+00 -0.74505805969E-08  0.93827000000E+00  0.93827000000E+00 0.  1.
     999902    2    1    2    0    0 -0.23308514011E-01  0.12579270749E-02 -0.17295742344E-02  0.10205235771E+01  0.10202551204E+01 0.  0.
     999903    2    3    3    0    0 -0.48579017408E-01 -0.99988399703E-01 -0.66314870945E-01  0.13200757973E+00  0.25898609822E-01 0.  0.
         14    1    1    2    0    0  0.23308514011E-01 -0.12579270749E-02  0.17295742344E-02  0.23406422900E-01  0.00000000000E+00 0.  1.
     999901    1    3    3    0    0  0.25270503396E-01  0.10124632678E+00  0.64585296711E-01  0.88851599737E+00  0.88000000000E+00 0.  1.
        -11    1    4    4    0    0 -0.26736053627E-01 -0.28340036363E-01 -0.18423217529E-01  0.43100467396E-01  0.51100000000E-03 0.  1.
         11    1    4    4    0    0 -0.21842963781E-01 -0.71648363340E-01 -0.47891653416E-01  0.88907112336E-01  0.51100000000E-03 0. -1.
</event>
<event>
 8    1  0.1097777E+005  0.1043930E+01  0.7957747E-01            NaN
         13   -1    0    0    0    0  0.00000000000E+00  0.00000000000E+00  0.74505805969E-08  0.10566000000E+00  0.10566000000E+00 0.  1.
     999900   -1    0    0    0    0 -0.00000000000E+00 -0.00000000000E+00 -0.74505805969E-08  0.93827000000E+00  0.93827000000E+00 0. -1.
     999902    2    1    2    0    0  0.84789517927E-02  0.49627784563E-02 -0.20735627754E-01  0.10209846725E+01  0.10207268065E+01 0.  0.
     999903    2    3    3    0    0 -0.56737961960E-01  0.55826171473E-01  0.99402495832E-01  0.12897934783E+00  0.20470912050E-01 0.  0.
         14    1    1    2    0    0 -0.84789517927E-02 -0.49627784563E-02  0.20735627754E-01  0.22945327452E-01  0.00000000000E+00 0.  1.
     999901    1    3    3    0    0  0.65216913753E-01 -0.50863393016E-01 -0.12013812359E+00  0.89200532472E+00  0.88000000000E+00 0. -1.
        -11    1    4    4    0    0 -0.72884551588E-02  0.12702688191E-01  0.30477046112E-01  0.33817027169E-01  0.51100000000E-03 0. -1.
         11    1    4    4    0    0 -0.49449506801E-01  0.43123483282E-01  0.68925449720E-01  0.95162320660E-01  0.51100000000E-03 0.  1.
</event>
<event>
 8    1  0.1097777E+005  0.1043930E+01  0.7957747E-01            NaN
         13   -1    0    0    0    0  0.00000000000E+00  0.00000000000E+00  0.74505805969E-08  0.10566000000E+00  0.10566000000E+00 0.  1.
     999900   -1    0    0    0    0 -0.00000000000E+00 -0.00000000000E+00 -0.74505805969E-08  0.93827000000E+00  0.93827000000E+00 0.  1.
     999902    2    1    2    0    0  0.13387936614E-01 -0.19130077834E-01 -0.30351581792E-02  0.10203841106E+01  0.10201124076E+01 0.  0.
     999903    2    3    3    0    0  0.12593345405E+00 -0.37884978952E-01 -0.10324751986E-02  0.13301595102E+00  0.19941683539E-01 0.  0.
         14    1    1    2    0    0 -0.13387936614E-01  0.19130077834E-01  0.30351581792E-02  0.23545889448E-01  0.00000000000E+00 0. -1.
     999901    1    3    3    0    0 -0.11254551743E+00  0.18754901117E-01 -0.20026829806E-02  0.88736815953E+00  0.88000000000E+00 0.  1.
        -11    1    4    4    0    0  0.78993153510E-01 -0.31221688101E-01 -0.69966692558E-02  0.85228672470E-01  0.51100000000E-03 0.  1.
         11    1    4    4    0    0  0.46940300538E-01 -0.66632908509E-02  0.59641940573E-02  0.47787278551E-01  0.51100000000E-03 0. -1.
</event>
<event>
 7    1  0.1097777E+005  0.1043930E+01  0.7957747E-01            NaN
         13   -1    0    0    0    0  0.00000000000E+00  0.00000000000E+00  0.74505805969E-08  0.10566000000E+00  0.10566000000E+00 0. -1.
     999900   -1    0    0    0    0 -0.00000000000E+00 -0.00000000000E+00 -0.74505805969E-08  0.93827000000E+00  0.93827000000E+00 0.  1.
     999903    2    1    2    0    0  0.16351222567E-01 -0.79630568506E-01 -0.48697763877E-01  0.97236550132E-01  0.21796434454E-01 0.  0.
         14    1    1    2    0    0  0.53064338103E-01  0.30106922484E-01  0.91030383926E-02  0.61685622861E-01  0.00000000000E+00 0. -1.
     999901    1    1    2    0    0 -0.69415560670E-01  0.49523646022E-01  0.39594725484E-01  0.88500782701E+00  0.88000000000E+00 0. -1.
        -11    1    3    3    0    0  0.17235164709E-02 -0.46054883052E-03 -0.56334884601E-02  0.59312669373E-02  0.51100000000E-03 0.  1.
         11    1    3    3    0    0  0.14627706096E-01 -0.79170019675E-01 -0.43064275417E-01  0.91305283194E-01  0.51100000000E-03 0. -1.
</event>
<event>
 8    1  0.1097777E+005  0.1043930E+01  0.7957747E-01            NaN
         13   -1    0    0    0    0  0.00000000000E+00  0.00000000000E+00  0.74505805969E-08  0.10566000000E+00  0.10566000000E+00 0.  1.
     999900   -1    0    0    0    0 -0.00000000000E+00 -0.00000000000E+00 -0.74505805969E-08  0.93827000000E+00  0.93827000000E+00 0. -1.
     999902    2    1    2    0    0 -0.26085939648E-01  0.19107319642E-01 -0.73235373371E-02  0.10107758131E+01  0.10102319259E+01 0.  0.
     999903    2    3    3    0    0 -0.18576000233E-01 -0.39149371865E-01 -0.11282219216E+00  0.12253023473E+00  0.20175982678E-01 0.  0.
         14    1    1    2    0    0  0.26085939648E-01 -0.19107319642E-01  0.73235373371E-02  0.33154186920E-01  0.00000000000E+00 0.  1.
     999901    1    3    3    0    0 -0.75099394155E-02  0.58256691507E-01  0.10549865482E+00  0.88824557835E+00  0.88000000000E+00 0.  1.
        -11    1    4    4    0    0 -0.99072960940E-02 -0.35979939926E-01 -0.77504132139E-01  0.86022451794E-01  0.51100000000E-03 0. -1.
         11    1    4    4    0    0 -0.86687041386E-02 -0.31694319390E-02 -0.35318060018E-01  0.36507782933E-01  0.51100000000E-03 0.  1.
</event>
<event>
 8    1  0.1097777E+005  0.1043930E+01  0.7957747E-01            NaN
         13   -1    0    0    0    0  0.00000000000E+00  0.00000000000E+00  0.74505805969E-08  0.10566000000E+00  0.10566000000E+00 0.  1.
     999900   -1    0    0    0    0 -0.00000000000E+00 -0.00000000000E+00 -0.74505805969E-08  0.93827000000E+00  0.93827000000E+00 0.  1.
     999902    2    1    2    0    0  0.16307751617E-01 -0.84411923350E-02  0.14928800289E-01  0.10202642955E+01  0.10199897878E+01 0.  0.
     999903    2    3    3    0    0 -0.30169774797E-01  0.77574081597E-01  0.98937932380E-01  0.13087331170E+00  0.20276977213E-01 0.  0.
         14    1    1    2    0    0 -0.16307751617E-01  0.84411923350E-02 -0.14928800289E-01  0.23665704488E-01  0.00000000000E+00 0.  1.
     999901    1    3    3    0    0  0.46477526414E-01 -0.86015273932E-01 -0.84009132091E-01  0.88939098381E+00  0.88000000000E+00 0. -1.
        -11    1    4    4    0    0 -0.20828860963E-01  0.62007350967E-01  0.88079730343E-01  0.10971350437E+00  0.51100000000E-03 0. -1.
         11    1    4    4    0    0 -0.93409138342E-02  0.15566730630E-01  0.10858202037E-01  0.21159807330E-01  0.51100000000E-03 0.  1.
</event>
<event>
 8    1  0.1097777E+005  0.1043930E+01  0.7957747E-01            NaN
         13   -1    0    0    0    0  0.00000000000E+00  0.00000000000E+00  0.74505805969E-08  0.10566000000E+00  0.10566000000E+00 0.  1.
     999900   -1    0    0    0    0 -0.00000000000E+00 -0.00000000000E+00 -0.74505805969E-08  0.93827000000E+00  0.93827000000E+00 0.  1.
     999902    2    1    2    0    0 -0.17472789376E-01  0.15885855829E-01 -0.33836386502E-02  0.10200740197E+01  0.10197950274E+01 0.  0.
     999903    2    3    3    0    0 -0.51698950340E-01 -0.10784194337E+00  0.45416143063E-01  0.12942177723E+00  0.19613876566E-01 0.  0.
         14    1    1    2    0    0  0.17472789376E-01 -0.15885855829E-01  0.33836386502E-02  0.23855980267E-01  0.00000000000E+00 0.  1.
     999901    1    3    3    0    0  0.34226160964E-01  0.12372779920E+00 -0.48799781713E-01  0.89065224251E+00  0.88000000000E+00 0. -1.
        -11    1    4    4    0    0 -0.21339002418E-01 -0.66263483890E-01  0.28560314915E-01  0.75247292513E-01  0.51100000000E-03 0. -1.
         11    1    4    4    0    0 -0.30359947922E-01 -0.41578459477E-01  0.16855828147E-01  0.54174484713E-01  0.51100000000E-03 0.  1.
</event>
<event>
 8    1  0.1097777E+005  0.1043930E+01  0.7957747E-01            NaN
         13   -1    0    0    0    0  0.00000000000E+00  0.00000000000E+00  0.74505805969E-08  0.10566000000E+00  0.10566000000E+00 0. -1.
     999900   -1    0    0    0    0 -0.00000000000E+00 -0.00000000000E+00 -0.74505805969E-08  0.93827000000E+00  0.93827000000E+00 0. -1.
     999902    2    1    2    0    0  0.11140670125E-01  0.19730537359E-01  0.48422456402E-02  0.10207598473E+01  0.10204968446E+01 0.  0.
     999903    2    3    3    0    0  0.76126834053E-01 -0.22959330833E-01 -0.10187247181E+00  0.13090949059E+00  0.20901398959E-01 0.  0.
         14    1    1    2    0    0 -0.11140670125E-01 -0.19730537359E-01 -0.48422456402E-02  0.23170152743E-01  0.00000000000E+00 0. -1.
     999901    1    3    3    0    0 -0.64986163928E-01  0.42689868192E-01  0.10671471745E+00  0.88985035667E+00  0.88000000000E+00 0.  1.
        -11    1    4    4    0    0  0.18420522526E-01  0.15418670573E-02 -0.32595687835E-01  0.37475765377E-01  0.51100000000E-03 0.  1.
         11    1    4    4    0    0  0.57706311527E-01 -0.24501197890E-01 -0.69276783970E-01  0.93433725209E-01  0.51100000000E-03 0. -1.
</event>
<event>
 8    1  0.1097777E+005  0.1043930E+01  0.7957747E-01            NaN
         13   -1    0    0    0    0  0.00000000000E+00  0.00000000000E+00  0.74505805969E-08  0.10566000000E+00  0.10566000000E+00 0. -1.
     999900   -1    0    0    0    0 -0.00000000000E+00 -0.00000000000E+00 -0.74505805969E-08  0.93827000000E+00  0.93827000000E+00 0.  1.
     999902    2    1    2    0    0  0.75602745517E-02 -0.12120924234E-01 -0.19328395764E-01  0.10198954116E+01  0.10196121759E+01 0.  0.
     999903    2    3    3    0    0  0.21750439454E-01 -0.36454426075E-03  0.12454808966E+00  0.12802097186E+00  0.20097962326E-01 0.  0.
         14    1    1    2    0    0 -0.75602745517E-02  0.12120924234E-01  0.19328395764E-01  0.24034588376E-01  0.00000000000E+00 0. -1.
     999901    1    3    3    0    0 -0.14190164903E-01 -0.11756379974E-01 -0.14387648542E+00  0.89187443977E+00  0.88000000000E+00 0.  1.
        -11    1    4    4    0    0  0.50814809022E-02  0.83399066427E-02  0.28037199886E-01  0.29693790418E-01  0.51100000000E-03 0.  1.
         11    1    4    4    0    0  0.16668958552E-01 -0.87044509034E-02  0.96510889771E-01  0.98327181441E-01  0.51100000000E-03 0. -1.
</event>
<event>
 8    1  0.1097777E+005  0.1043930E+01  0.7957747E-01            NaN
         13   -1    0    0    0    0  0.00000000000E+00  0.00000000000E+00  0.74505805969E-08  0.10566000000E+00  0.10566000000E+00 0.  1.
     999900   -1    0    0    0    0 -0.00000000000E+00 -0.00000000000E+00 -0.74505805969E-08  0.93827000000E+00  0.93827000000E+00 0.  1.
     999902    2    1    2    0    0  0.17091332218E-02  0.21407644456E-01  0.10389458644E-01  0.10200731513E+01  0.10197941385E+01 0.  0.
     999903    2    3    3    0    0 -0.36016319774E-01  0.84744430672E-01  0.93802152525E-01  0.13305994072E+00  0.20671482457E-01 0.  0.
         14    1    1    2    0    0 -0.17091332218E-02 -0.21407644456E-01 -0.10389458644E-01  0.23856848669E-01  0.00000000000E+00 0.  1.
     999901    1    3    3    0    0  0.37725452995E-01 -0.63336786216E-01 -0.83412693881E-01  0.88701321061E+00  0.88000000000E+00 0.  1.
        -11    1    4    4    0    0 -0.13851726560E-01  0.13026372935E-01  0.23280658078E-01  0.30063381082E-01  0.51100000000E-03 0.  1.
         11    1    4    4    0    0 -0.22164593213E-01  0.71718057736E-01  0.70521494447E-01  0.10299655964E+00  0.51100000000E-03 0. -1.
</event>
<event>
 8    1  0.1097777E+005  0.1043930E+01  0.7957747E-01            NaN
         13   -1    0    0    0    0  0.00000000000E+00  0.00000000000E+00  0.74505805969E-08  0.10566000000E+00  0.10566000000E+00 0.  1.
     999900   -1    0    0    0    0 -0.00000000000E+00 -0.00000000000E+00 -0.74505805969E-08  0.93827000000E+00  0.93827000000E+00 0.  1.
     999902    2    1    2    0    0 -0.18039883823E-01  0.91048113661E-02 -0.11530903322E-01  0.10206642155E+01  0.10203990122E+01 0.  0.
     999903    2    3    3    0    0 -0.77238240344E-01  0.10646135602E+00 -0.86415877610E-02  0.13331361377E+00  0.19951854057E-01 0.  0.
         14    1    1    2    0    0  0.18039883823E-01 -0.91048113661E-02  0.11530903322E-01  0.23265784530E-01  0.00000000000E+00 0. -1.
     999901    1    3    3    0    0  0.59198356521E-01 -0.97356544649E-01 -0.28893155614E-02  0.88735060170E+00  0.88000000000E+00 0.  1.
        -11    1    4    4    0    0 -0.59051690890E-01  0.86976215761E-01  0.50121641277E-03  0.10513075974E+00  0.51100000000E-03 0. -1.
         11    1    4    4    0    0 -0.18186549454E-01  0.19485140254E-01 -0.91428041738E-02  0.28182854024E-01  0.51100000000E-03 0.  1.
</event>
<event>
 8    1  0.1097777E+005  0.1043930E+01  0.7957747E-01            NaN
         13   -1    0    0    0    0  0.00000000000E+00  0.00000000000E+00  0.74505805969E-08  0.10566000000E+00  0.10566000000E+00 0.  1.
     999900   -1    0    0    0    0 -0.00000000000E+00 -0.00000000000E+00 -0.74505805969E-08  0.93827000000E+00  0.93827000000E+00 0.  1.
     999902    2    1    2    0    0  0.25260169570E-02  0.19540182745E-01 -0.13311864342E-01  0.10201517487E+01  0.10198745928E+01 0.  0.
     999903    2    3    3    0    0  0.25625137447E-01  0.11601999716E+00 -0.55082095685E-01  0.13359285262E+00  0.26376610789E-01 0.  0.
         14    1    1    2    0    0 -0.25260169570E-02 -0.19540182745E-01  0.13311864342E-01  0.23778251315E-01  0.00000000000E+00 0. -1.
     999901    1    3    3    0    0 -0.23099120490E-01 -0.96479814417E-01  0.41770231344E-01  0.88655889606E+00  0.88000000000E+00 0. -1.
        -11    1    4    4    0    0  0.70908685985E-02  0.49066140164E-01 -0.36830251782E-01  0.61761598873E-01  0.51100000000E-03 0. -1.
         11    1    4    4    0    0  0.18534268849E-01  0.66953856997E-01 -0.18251843904E-01  0.71831253751E-01  0.51100000000E-03 0.  1.
</event>
<event>
 8    1  0.1097777E+005  0.1043930E+01  0.7957747E-01            NaN
         13   -1    0    0    0    0  0.00000000000E+00  0.00000000000E+00  0.74505805969E-08  0.10566000000E+00  0.10566000000E+00 0.  1.
     999900   -1    0    0    0    0 -0.00000000000E+00 -0.00000000000E+00 -0.74505805969E-08  0.93827000000E+00  0.93827000000E+00 0.  1.
     999902    2    1    2    0    0 -0.63719861741E-02 -0.20225253879E-01  0.88323585584E-02  0.10209588516E+01  0.10207003982E+01 0.  0.
     999903    2    3    3    0    0 -0.12533647588E+00  0.20271271184E-01 -0.26532283674E-01  0.13132793020E+00  0.20564691829E-01 0.  0.
         14    1    1    2    0    0  0.63719861741E-02  0.20225253879E-01 -0.88323585584E-02  0.22971148425E-01  0.00000000000E+00 0. -1.
     999901    1    3    3    0    0  0.11896448971E+00 -0.40496525063E-01  0.35364642232E-01  0.88963092138E+00  0.88000000000E+00 0. -1.
        -11    1    4    4    0    0 -0.17940181028E-01  0.58368839517E-02  0.27648800842E-02  0.19074197033E-01  0.51100000000E-03 0.  1.
         11    1    4    4    0    0 -0.10739629486E+00  0.14434387233E-01 -0.29297163758E-01  0.11225373316E+00  0.51100000000E-03 0. -1.
</event>
<event>
 7    1  0.1097777E+005  0.1043930E+01  0.7957747E-01            NaN
         13   -1    0    0    0    0  0.00000000000E+00  0.00000000000E+00  0.74505805969E-08  0.10566000000E+00  0.10566000000E+00 0. -1.
     999900   -1    0    0    0    0 -0.00000000000E+00 -0.00000000000E+00 -0.74505805969E-08  0.93827000000E+00  0.93827000000E+00 0. -1.
     999903    2    1    2    0    0 -0.33153857856E-01 -0.44496247089E-01  0.87763979437E-01  0.10583559798E+00  0.20483247227E-01 0.  0.
         14    1    1    2    0    0 -0.19793934658E-01  0.97390626058E-02  0.40915412359E-01  0.46483547177E-01  0.00000000000E+00 0. -1.
     999901    1    1    2    0    0  0.52947792514E-01  0.34757184483E-01 -0.12867939180E+00  0.89161085485E+00  0.88000000000E+00 0. -1.
        -11    1    3    3    0    0 -0.15657104703E-01 -0.30627734848E-01  0.37816791889E-01  0.51123125290E-01  0.51100000000E-03 0. -1.
         11    1    3    3    0    0 -0.17496753153E-01 -0.13868512240E-01  0.49947187548E-01  0.54712472688E-01  0.51100000000E-03 0.  1.
</event>
<event>
 8    1  0.1097777E+005  0.1043930E+01  0.7957747E-01            NaN
         13   -1    0    0    0    0  0.00000000000E+00  0.00000000000E+00  0.74505805969E-08  0.10566000000E+00  0.10566000000E+00 0. -1.
     999900   -1    0    0    0    0 -0.00000000000E+00 -0.00000000000E+00 -0.74505805969E-08  0.93827000000E+00  0.93827000000E+00 0. -1.
     999902    2    1    2    0    0 -0.20015411739E-01  0.10966303638E-01  0.88550317102E-02  0.10194496383E+01  0.10191556686E+01 0.  0.
     999903    2    3    3    0    0 -0.13006397605E+00  0.11789389461E-01 -0.84902668268E-02  0.13242527372E+00  0.20217342038E-01 0.  0.
         14    1    1    2    0    0  0.20015411739E-01 -0.10966303638E-01 -0.88550317102E-02  0.24480361704E-01  0.00000000000E+00 0. -1.
     999901    1    3    3    0    0  0.11004856431E+00 -0.82308582305E-03  0.17345298537E-01  0.88702436458E+00  0.88000000000E+00 0.  1.
        -11    1    4    4    0    0 -0.10469403844E+00  0.18033974850E-02 -0.39874648130E-02  0.10478671158E+00  0.51100000000E-03 0. -1.
         11    1    4    4    0    0 -0.25369937607E-01  0.99859919762E-02 -0.45028020138E-02  0.27638562136E-01  0.51100000000E-03 0.  1.
</event>
<event>
 8    1  0.1097777E+005  0.1043930E+01  0.7957747E-01            NaN
         13   -1    0    0    0    0  0.00000000000E+00  0.00000000000E+00  0.74505805969E-08  0.10566000000E+00  0.10566000000E+00 0. -1.
     999900   -1    0    0    0    0 -0.00000000000E+00 -0.00000000000E+00 -0.74505805969E-08  0.93827000000E+00  0.93827000000E+00 0. -1.
     999902    2    1    2    0    0  0.25646022540E-01 -0.11114860126E-02  0.52662619117E-02  0.10177252793E+01  0.10173878595E+01 0.  0.
     999903    2    3    3    0    0  0.27141379468E-01  0.66431114509E-01  0.10594540262E+00  0.12941197400E+00  0.19320538909E-01 0.  0.
         14    1    1    2    0    0 -0.25646022540E-01  0.11114860126E-02 -0.52662619117E-02  0.26204720716E-01  0.00000000000E+00 0.  1.
     999901    1    3    3    0    0 -0.14953569280E-02 -0.67542600522E-01 -0.10067914070E+00  0.88831330529E+00  0.88000000000E+00 0. -1.
        -11    1    4    4    0    0  0.18212252593E-01  0.38192471711E-01  0.45724842675E-01  0.62300669326E-01  0.51100000000E-03 0.  1.
         11    1    4    4    0    0  0.89291268757E-02  0.28238642799E-01  0.60220559941E-01  0.67111304670E-01  0.51100000000E-03 0. -1.
</event>
<event>
 8    1  0.1097777E+005  0.1043930E+01  0.7957747E-01            NaN
         13   -1    0    0    0    0  0.00000000000E+00  0.00000000000E+00  0.74505805969E-08  0.10566000000E+00  0.10566000000E+00 0.  1.
     999900   -1    0    0    0    0 -0.00000000000E+00 -0.00000000000E+00 -0.74505805969E-08  0.93827000000E+00  0.93827000000E+00 0.  1.
     999902    2    1    2    0    0 -0.75500341661E-02 -0.16836406012E-01  0.15354414993E-01  0.10199252996E+01  0.10196427762E+01 0.  0.
     999903    2    3    3    0    0 -0.68880953770E-01  0.10654051684E+00  0.13963297973E-01  0.12920352370E+00  0.20077582634E-01 0.  0.
         14    1    1    2    0    0  0.75500341661E-02  0.16836406012E-01 -0.15354414993E-01  0.24004700437E-01  0.00000000000E+00 0. -1.
     999901    1    3    3    0    0  0.61330919604E-01 -0.12337692285E+00  0.13911170194E-02  0.89072177586E+00  0.88000000000E+00 0. -1.
        -11    1    4    4    0    0 -0.32725262980E-01  0.52058709267E-01  0.16821816970E-01  0.63751758367E-01  0.51100000000E-03 0. -1.
         11    1    4    4    0    0 -0.36155690790E-01  0.54481807575E-01 -0.28585189963E-02  0.65451765332E-01  0.51100000000E-03 0.  1.
</event>
<event>
 8    1  0.1097777E+005  0.1043930E+01  0.7957747E-01            NaN
         13   -1    0    0    0    0  0.00000000000E+00  0.00000000000E+00  0.74505805969E-08  0.10566000000E+00  0.10566000000E+00 0.  1.
     999900   -1    0    0    0    0 -0.00000000000E+00 -0.00000000000E+00 -0.74505805969E-08  0.93827000000E+00  0.93827000000E+00 0.  1.
     999902    2    1    2    0    0 -0.21165672298E-02  0.55845584496E-02 -0.20801742048E-01  0.10222879201E+01  0.10220588104E+01 0.  0.
     999903    2    3    3    0    0  0.60324682105E-01  0.66807140213E-01  0.92716010792E-01  0.13069754648E+00  0.19578783000E-01 0.  0.
         14    1    1    2    0    0  0.21165672298E-02 -0.55845584496E-02  0.20801742048E-01  0.21642079894E-01  0.00000000000E+00 0.  1.
     999901    1    3    3    0    0 -0.62441249335E-01 -0.61222581764E-01 -0.11351775284E+00  0.89159037363E+00  0.88000000000E+00 0.  1.
        -11    1    4    4    0    0  0.99028921805E-03  0.96504140079E-02  0.10517987052E-01  0.14317832793E-01  0.51100000000E-03 0.  1.
         11    1    4    4    0    0  0.59334392887E-01  0.57156726205E-01  0.82198023740E-01  0.11637971369E+00  0.51100000000E-03 0. -1.
</event>
<event>
 8    1  0.1097777E+005  0.1043930E+01  0.7957747E-01            NaN
         13   -1    0    0    0    0  0.00000000000E+00  0.00000000000E+00  0.74505805969E-08  0.10566000000E+00  0.10566000000E+00 0.  1.
     999900   -1    0    0    0    0 -0.00000000000E+00 -0.00000000000E+00 -0.74505805969E-08  0.93827000000E+00  0.93827000000E+00 0. -1.
     999902    2    1    2    0    0  0.10149726210E-02 -0.13812778327E-01 -0.19286065609E-01  0.10201860462E+01  0.10199096987E+01 0.  0.
     999903    2    3    3    0    0  0.29194175500E-01  0.92044343050E-01  0.81077632346E-01  0.12773287126E+00  0.20436314822E-01 0.  0.
         14    1    1    2    0    0 -0.10149726210E-02  0.13812778327E-01  0.19286065609E-01  0.23743953782E-01  0.00000000000E+00 0.  1.
     999901    1    3    3    0    0 -0.28179202879E-01 -0.10585712138E+00 -0.10036369796E+00  0.89245317496E+00  0.88000000000E+00 0. -1.
        -11    1    4    4    0    0  0.19597592773E-01  0.29477976900E-01  0.29233454984E-01  0.45911575620E-01  0.51100000000E-03 0. -1.
         11    1    4    4    0    0  0.95965827270E-02  0.62566366150E-01  0.51844177362E-01  0.81821295643E-01  0.51100000000E-03 0.  1.
</event>
<event>
 8    1  0.1097777E+005  0.1043930E+01  0.7957747E-01            NaN
         13   -1    0    0    0    0  0.00000000000E+00  0.00000000000E+00  0.74505805969E-08  0.10566000000E+00  0.10566000000E+00 0.  1.
     999900   -1    0    0    0    0 -0.00000000000E+00 -0.00000000000E+00 -0.74505805969E-08  0.93827000000E+00  0.93827000000E+00 0. -1.
     999902    2    1    2    0    0 -0.10242330917E-01  0.86535390053E-02  0.18315318946E-01  0.10212311016E+01  0.10209788063E+01 0.  0.
     999903    2    3    3    0    0  0.66853025028E-01 -0.93925184006E-01  0.58920164085E-01  0.13099807494E+00  0.19940981855E-01 0.  0.
         14    1    1    2    0    0  0.10242330917E-01 -0.86535390053E-02 -0.18315318946E-01  0.22698898387E-01  0.00000000000E+00 0. -1.
     999901    1    3    3    0    0 -0.77095355945E-01  0.10257872301E+00 -0.40604845139E-01  0.89023302667E+00  0.88000000000E+00 0. -1.
        -11    1    4    4    0    0  0.54406257056E-01 -0.85089931062E-01  0.55880062041E-01  0.11542607864E+00  0.51100000000E-03 0. -1.
         11    1    4    4    0    0  0.12446767971E-01 -0.88352529439E-02  0.30401020435E-02  0.15571996306E-01  0.51100000000E-03 0.  1.
</event>
<event>
 8    1  0.1097777E+005  0.1043930E+01  0.7957747E-01            NaN
         13   -1    0    0    0    0  0.00000000000E+00  0.00000000000E+00  0.74505805969E-08  0.10566000000E+00  0.10566000000E+00 0. -1.
     999900   -1    0    0    0    0 -0.00000000000E+00 -0.00000000000E+00 -0.74505805969E-08  0.93827000000E+00  0.93827000000E+00 0. -1.
     999902    2    1    2    0    0  0.16977484726E-01 -0.80405390242E-02  0.12012111051E-01  0.10216325547E+01  0.10213892014E+01 0.  0.
     999903    2    3    3    0    0 -0.10029338610E+00  0.53180980113E-01  0.61031914402E-01  0.13039550841E+00  0.19776604738E-01 0.  0.
         14    1    1    2    0    0 -0.16977484726E-01  0.80405390242E-02 -0.12012111051E-01  0.22297445309E-01  0.00000000000E+00 0. -1.
     999901    1    3    3    0    0  0.11727087083E+00 -0.61221519137E-01 -0.49019803350E-01  0.89123704629E+00  0.88000000000E+00 0.  1.
        -11    1    4    4    0    0 -0.49463641433E-01  0.30502614882E-01  0.20834758532E-01  0.61736614927E-01  0.51100000000E-03 0.  1.
         11    1    4    4    0    0 -0.50829744670E-01  0.22678365230E-01  0.40197155870E-01  0.68658893479E-01  0.51100000000E-03 0. -1.
</event>
<event>
 8    1  0.1097777E+005  0.1043930E+01  0.7957747E-01            NaN
         13   -1    0    0    0    0  0.00000000000E+00  0.00000000000E+00  0.74505805969E-08  0.10566000000E+00  0.10566000000E+00 0. -1.
     999900   -1    0    0    0    0 -0.00000000000E+00 -0.00000000000E+00 -0.74505805969E-08  0.93827000000E+00  0.93827000000E+00 0.  1.
     999902    2    1    2    0    0 -0.66993173470E-02  0.20255173664E-01  0.11955200756E-01  0.10194743312E+01  0.10191809614E+01 0.  0.
     999903    2    3    3    0    0 -0.18939250390E-01 -0.12003060651E+00  0.34860773634E-01  0.12798424073E+00  0.19966237308E-01 0.  0.
         14    1    1    2    0    0  0.66993173470E-02 -0.20255173664E-01 -0.11955200756E-01  0.24455668836E-01  0.00000000000E+00 0. -1.
     999901    1    3    3    0    0  0.12239933043E-01  0.14028578017E+00 -0.22905572877E-01  0.89149009044E+00  0.88000000000E+00 0.  1.
        -11    1    4    4    0    0 -0.20477327264E-01 -0.66790434952E-01  0.20901016435E-01  0.72920482321E-01  0.51100000000E-03 0.  1.
         11    1    4    4    0    0  0.15380768740E-02 -0.53240171556E-01  0.13959757199E-01  0.55063758406E-01  0.51100000000E-03 0. -1.
</event>
<event>
 8    1  0.1097777E+005  0.1043930E+01  0.7957747E-01            NaN
         13   -1    0    0    0    0  0.00000000000E+00  0.00000000000E+00  0.74505805969E-08  0.10566000000E+00  0.10566000000E+00 0.  1.
     999900   -1    0    0    0    0 -0.00000000000E+00 -0.00000000000E+00 -0.74505805969E-08  0.93827000000E+00  0.93827000000E+00 0.  1.
     999902    2    1    2    0    0 -0.79214838736E-02  0.21662466296E-01 -0.40147541068E-02  0.10205178108E+01  0.10202492203E+01 0.  0.
     999903    2    3    3    0    0 -0.58775979226E-01  0.11634224917E+00  0.21032401373E-01  0.13362559582E+00  0.20574335352E-01 0.  0.
         14    1    1    2    0    0  0.79214838736E-02 -0.21662466296E-01  0.40147541068E-02  0.23412189204E-01  0.00000000000E+00 0. -1.
     999901    1    3    3    0    0  0.50854495352E-01 -0.94679782875E-01 -0.25047155479E-01  0.88689221497E+00  0.88000000000E+00 0.  1.
        -11    1    4    4    0    0 -0.23958537683E-01  0.64708830336E-01  0.42915715764E-02  0.69136986910E-01  0.51100000000E-03 0.  1.
         11    1    4    4    0    0 -0.34817441543E-01  0.51633418835E-01  0.16740829796E-01  0.64488608912E-01  0.51100000000E-03 0. -1.
</event>
<event>
 8    1  0.1097777E+005  0.1043930E+01  0.7957747E-01            NaN
         13   -1    0    0    0    0  0.00000000000E+00  0.00000000000E+00  0.74505805969E-08  0.10566000000E+00  0.10566000000E+00 0.  1.
     999900   -1    0    0    0    0 -0.00000000000E+00 -0.00000000000E+00 -0.74505805969E-08  0.93827000000E+00  0.93827000000E+00 0. -1.
     999902    2    1    2    0    0  0.13042530105E-01  0.19903715573E-01 -0.32311851614E-03  0.10201314729E+01  0.10198538386E+01 0.  0.
     999903    2    3    3    0    0 -0.10538428256E+00  0.11882304961E-01 -0.71316193998E-01  0.12932887428E+00  0.19822260613E-01 0.  0.
         14    1    1    2    0    0 -0.13042530105E-01 -0.19903715573E-01  0.32311851614E-03  0.23798527070E-01  0.00000000000E+00 0.  1.
     999901    1    3    3    0    0  0.11842681266E+00  0.80214106113E-02  0.70993075482E-01  0.89080259864E+00  0.88000000000E+00 0.  1.
        -11    1    4    4    0    0 -0.19266626407E-01 -0.22524460858E-02 -0.59641080041E-02  0.20300446097E-01  0.51100000000E-03 0.  1.
         11    1    4    4    0    0 -0.86117656152E-01  0.14134751047E-01 -0.65352085994E-01  0.10902842819E+00  0.51100000000E-03 0. -1.
</event>
<event>
 8    1  0.1097777E+005  0.1043930E+01  0.7957747E-01            NaN
         13   -1    0    0    0    0  0.00000000000E+00  0.00000000000E+00  0.74505805969E-08  0.10566000000E+00  0.10566000000E+00 0.  1.
     999900   -1    0    0    0    0 -0.00000000000E+00 -0.00000000000E+00 -0.74505805969E-08  0.93827000000E+00  0.93827000000E+00 0.  1.
     999902    2    1    2    0    0  0.66699571889E-02 -0.21809176151E-01  0.39938937455E-02  0.10207766054E+01  0.10205139874E+01 0.  0.
     999903    2    3    3    0    0  0.48904266098E-01  0.10948682133E+00 -0.42663392051E-01  0.12881288524E+00  0.19839432832E-01 0.  0.
         14    1    1    2    0    0 -0.66699571889E-02  0.21809176151E-01 -0.39938937455E-02  0.23153394580E-01  0.00000000000E+00 0.  1.
     999901    1    3    3    0    0 -0.42234308909E-01 -0.13129599748E+00  0.46657285796E-01  0.89196372018E+00  0.88000000000E+00 0. -1.
        -11    1    4    4    0    0  0.18384056084E-01  0.59818057398E-01 -0.28790657375E-01  0.68886403463E-01  0.51100000000E-03 0.  1.
         11    1    4    4    0    0  0.30520210014E-01  0.49668763929E-01 -0.13872734676E-01  0.59926481775E-01  0.51100000000E-03 0. -1.
</event>
<event>
 8    1  0.1097777E+005  0.1043930E+01  0.7957747E-01            NaN
         13   -1    0    0    0    0  0.00000000000E+00  0.00000000000E+00  0.74505805969E-08  0.10566000000E+00  0.10566000000E+00 0.  1.
     999900   -1    0    0    0    0 -0.00000000000E+00 -0.00000000000E+00 -0.74505805969E-08  0.93827000000E+00  0.93827000000E+00 0.  1.
     999902    2    1    2    0    0  0.15028247142E-01 -0.16103106375E-01 -0.10897528143E-01  0.10193553308E+01  0.10190590641E+01 0.  0.
     999903    2    3    3    0    0 -0.11463900066E+00 -0.28593655965E-01  0.45136168319E-01  0.12800277197E+00  0.19691071753E-01 0.  0.
         14    1    1    2    0    0 -0.15028247142E-01  0.16103106375E-01  0.10897528143E-01  0.24574669208E-01  0.00000000000E+00 0.  1.
     999901    1    3    3    0    0  0.12966724780E+00  0.12490549590E-01 -0.56033696462E-01  0.89135255882E+00  0.88000000000E+00 0.  1.
        -11    1    4    4    0    0 -0.36403388589E-01 -0.11941326736E-01  0.24202348358E-01  0.45319055286E-01  0.51100000000E-03 0. -1.
         11    1    4    4    0    0 -0.78235612073E-01 -0.16652329228E-01  0.20933819961E-01  0.82683716682E-01  0.51100000000E-03 0.  1.
</event>
<event>
 8    1  0.1097777E+005  0.1043930E+01  0.7957747E-01            NaN
         13   -1    0    0    0    0  0.00000000000E+00  0.00000000000E+00  0.74505805969E-08  0.10566000000E+00  0.10566000000E+00 0.  1.
     999900   -1    0    0    0    0 -0.00000000000E+00 -0.00000000000E+00 -0.74505805969E-08  0.93827000000E+00  0.93827000000E+00 0.  1.
     999902    2    1    2    0    0 -0.20704597835E-01 -0.90132408833E-02 -0.75138658408E-02  0.10201313223E+01  0.10198536844E+01 0.  0.
     999903    2    3    3    0    0  0.87895435619E-01 -0.92630654356E-01  0.71458084859E-03  0.12948349823E+00  0.21434084035E-01 0.  0.
         14    1    1    2    0    0  0.20704597835E-01  0.90132408833E-02  0.75138658408E-02  0.23798677749E-01  0.00000000000E+00 0.  1.
     999901    1    3    3    0    0 -0.10860003345E+00  0.83617413473E-01 -0.82284466894E-02  0.89064782402E+00  0.88000000000E+00 0.  1.
        -11    1    4    4    0    0  0.16136540280E-01 -0.67360156370E-02  0.14646436408E-02  0.17554718478E-01  0.51100000000E-03 0.  1.
         11    1    4    4    0    0  0.71758895339E-01 -0.85894638719E-01 -0.75006279216E-03  0.11192877975E+00  0.51100000000E-03 0. -1.
</event>
<event>
 8    1  0.1097777E+005  0.1043930E+01  0.7957747E-01            NaN
         13   -1    0    0    0    0  0.00000000000E+00  0.00000000000E+00  0.74505805969E-08  0.10566000000E+00  0.10566000000E+00 0.  1.
     999900   -1    0    0    0    0 -0.00000000000E+00 -0.00000000000E+00 -0.74505805969E-08  0.93827000000E+00  0.93827000000E+00 0. -1.
     999902    2    1    2    0    0  0.19542739782E-02 -0.22974121743E-01  0.40782336584E-02  0.10205150166E+01  0.10202463613E+01 0.  0.
     999903    2    3    3    0    0  0.96187527998E-01  0.76223349333E-01  0.36069411822E-01  0.12936773367E+00  0.19312392940E-01 0.  0.
         14    1    1    2    0    0 -0.19542739782E-02  0.22974121743E-01 -0.40782336584E-02  0.23414983374E-01  0.00000000000E+00 0. -1.
     999901    1    3    3    0    0 -0.94233254020E-01 -0.99197471076E-01 -0.31991178163E-01  0.89114728295E+00  0.88000000000E+00 0.  1.
        -11    1    4    4    0    0  0.80229086079E-01  0.55005231813E-01  0.23962735770E-01  0.10018360947E+00  0.51100000000E-03 0. -1.
         11    1    4    4    0    0  0.15958441919E-01  0.21218117520E-01  0.12106676052E-01  0.29184124205E-01  0.51100000000E-03 0.  1.
</event>
<event>
 8    1  0.1097777E+005  0.1043930E+01  0.7957747E-01            NaN
         13   -1    0    0    0    0  0.00000000000E+00  0.00000000000E+00  0.74505805969E-08  0.10566000000E+00  0.10566000000E+00 0. -1.
     999900   -1    0    0    0    0 -0.00000000000E+00 -0.00000000000E+00 -0.74505805969E-08  0.93827000000E+00  0.93827000000E+00 0.  1.
     999902    2    1    2    0    0 -0.21470259378E-01  0.98626230810E-02 -0.27742510191E-02  0.10201405099E+01  0.10198630889E+01 0.  0.
     999903    2    3    3    0    0  0.27993051610E-01  0.41998911814E-02  0.12454473856E+00  0.12958517146E+00  0.21901477921E-01 0.  0.
         14    1    1    2    0    0  0.21470259378E-01 -0.98626230810E-02  0.27742510191E-02  0.23789490127E-01  0.00000000000E+00 0. -1.
     999901    1    3    3    0    0 -0.49463310988E-01  0.56627318997E-02 -0.12731898958E+00  0.89055533841E+00  0.88000000000E+00 0.  1.
        -11    1    4    4    0    0  0.12541611612E-01 -0.39211793174E-03  0.95847480388E-01  0.96666676761E-01  0.51100000000E-03 0.  1.
         11    1    4    4    0    0  0.15451439998E-01  0.45920091131E-02  0.28697258173E-01  0.32918494700E-01  0.51100000000E-03 0. -1.
</event>
<event>
 8    1  0.1097777E+005  0.1043930E+01  0.7957747E-01            NaN
         13   -1    0    0    0    0  0.00000000000E+00  0.00000000000E+00  0.74505805969E-08  0.10566000000E+00  0.10566000000E+00 0. -1.
     999900   -1    0    0    0    0 -0.00000000000E+00 -0.00000000000E+00 -0.74505805969E-08  0.93827000000E+00  0.93827000000E+00 0. -1.
     999902    2    1    2    0    0  0.25118543584E-01  0.34568648020E-02 -0.40961746499E-03  0.10185713933E+01  0.10182556773E+01 0.  0.
     999903    2    3    3    0    0 -0.46244498886E-01 -0.19298511936E-01 -0.11594963480E+00  0.12786381695E+00  0.19845695663E-01 0.  0.
         14    1    1    2    0    0 -0.25118543584E-01 -0.34568648020E-02  0.40961746499E-03  0.25358606675E-01  0.00000000000E+00 0.  1.
     999901    1    3    3    0    0  0.71363042470E-01  0.22755376738E-01  0.11554001733E+00  0.89070757637E+00  0.88000000000E+00 0.  1.
        -11    1    4    4    0    0 -0.20929006328E-01 -0.19400111576E-01 -0.63692096559E-01  0.69794927610E-01  0.51100000000E-03 0.  1.
         11    1    4    4    0    0 -0.25315492558E-01  0.10159963966E-03 -0.52257538237E-01  0.58068889343E-01  0.51100000000E-03 0. -1.
</event>
<event>
 8    1  0.1097777E+005  0.1043930E+01  0.7957747E-01            NaN
         13   -1    0    0    0    0  0.00000000000E+00  0.00000000000E+00  0.74505805969E-08  0.10566000000E+00  0.10566000000E+00 0. -1.
     999900   -1    0    0    0    0 -0.00000000000E+00 -0.00000000000E+00 -0.74505805969E-08  0.93827000000E+00  0.93827000000E+00 0.  1.
     999902    2    1    2    0    0 -0.34712728311E-02  0.21366860290E-01 -0.61935691797E-02  0.10214143887E+01  0.10211661964E+01 0.  0.
     999903    2    3    3    0    0 -0.12528673666E-02 -0.10451536583E+00  0.72781638254E-01  0.12895243456E+00  0.20162642187E-01 0.  0.
         14    1    1    2    0    0  0.34712728311E-02 -0.21366860290E-01  0.61935691797E-02  0.22515611315E-01  0.00000000000E+00 0.  1.
     999901    1    3    3    0    0 -0.22184054645E-02  0.12588222612E+00 -0.78975207434E-01  0.89246195413E+00  0.88000000000E+00 0.  1.
        -11    1    4    4    0    0 -0.75891959024E-02 -0.74963199704E-01  0.44222825036E-01  0.87367022266E-01  0.51100000000E-03 0.  1.
         11    1    4    4    0    0  0.63363285358E-02 -0.29552166126E-01  0.28558813218E-01  0.41585412292E-01  0.51100000000E-03 0. -1.
</event>
<event>
 8    1  0.1097777E+005  0.1043930E+01  0.7957747E-01            NaN
         13   -1    0    0    0    0  0.00000000000E+00  0.00000000000E+00  0.74505805969E-08  0.10566000000E+00  0.10566000000E+00 0. -1.
     999900   -1    0    0    0    0 -0.00000000000E+00 -0.00000000000E+00 -0.74505805969E-08  0.93827000000E+00  0.93827000000E+00 0. -1.
     999902    2    1    2    0    0 -0.19830409002E-01  0.10992576565E-01 -0.27542323470E-02  0.10210899550E+01  0.10208344765E+01 0.  0.
     999903    2    3    3    0    0 -0.60245886194E-01  0.11426222118E+00  0.27696021728E-01  0.13360742092E+00  0.19961245242E-01 0.  0.
         14    1    1    2    0    0  0.19830409002E-01 -0.10992576565E-01  0.27542323470E-02  0.22840045020E-01  0.00000000000E+00 0.  1.
     999901    1    3    3    0    0  0.40415477193E-01 -0.10326964462E+00 -0.30450254075E-01  0.88748253406E+00  0.88000000000E+00 0.  1.
        -11    1    4    4    0    0 -0.25531433473E-01  0.56579722306E-01  0.22705989271E-01  0.66097973805E-01  0.51100000000E-03 0. -1.
         11    1    4    4    0    0 -0.34714452721E-01  0.57682498875E-01  0.49900324570E-02  0.67509447111E-01  0.51100000000E-03 0.  1.
</event>
<event>
 8    1  0.1097777E+005  0.1043930E+01  0.7957747E-01            NaN
         13   -1    0    0    0    0  0.00000000000E+00  0.00000000000E+00  0.74505805969E-08  0.10566000000E+00  0.10566000000E+00 0.  1.
     999900   -1    0    0    0    0 -0.00000000000E+00 -0.00000000000E+00 -0.74505805969E-08  0.93827000000E+00  0.93827000000E+00 0.  1.
     999902    2    1    2    0    0 -0.87431040636E-02  0.22046599520E-01 -0.49339694971E-02  0.10197052508E+01  0.10194174611E+01 0.  0.
     999903    2    3    3    0    0  0.12157658255E+00 -0.77699158733E-02  0.35739460895E-01  0.12867967695E+00  0.20974107290E-01 0.  0.
         14    1    1    2    0    0  0.87431040636E-02 -0.22046599520E-01  0.49339694971E-02  0.24224749205E-01  0.00000000000E+00 0.  1.
     999901    1    3    3    0    0 -0.13031968662E+00  0.29816515393E-01 -0.40673430392E-01  0.89102557385E+00  0.88000000000E+00 0.  1.
        -11    1    4    4    0    0  0.37723559721E-01 -0.11990475811E-01  0.94436840937E-02  0.40697453955E-01  0.51100000000E-03 0. -1.
         11    1    4    4    0    0  0.83853022831E-01  0.42205599374E-02  0.26295776801E-01  0.87982222992E-01  0.51100000000E-03 0.  1.
</event>
<event>
 8    1  0.1097777E+005  0.1043930E+01  0.7957747E-01            NaN
         13   -1    0    0    0    0  0.00000000000E+00  0.00000000000E+00  0.74505805969E-08  0.10566000000E+00  0.10566000000E+00 0.  1.
     999900   -1    0    0    0    0 -0.00000000000E+00 -0.00000000000E+00 -0.74505805969E-08  0.93827000000E+00  0.93827000000E+00 0.  1.
     999902    2    1    2    0    0  0.18642272586E-01 -0.13713320483E-01  0.12744002696E-01  0.10175103276E+01  0.10171672761E+01 0.  0.
     999903    2    3    3    0    0 -0.46117452504E-01 -0.84808810465E-01  0.83808397720E-01  0.12942331668E+00  0.20179039005E-01 0.  0.
         14    1    1    2    0    0 -0.18642272586E-01  0.13713320483E-01 -0.12744002696E-01  0.26419672416E-01  0.00000000000E+00 0. -1.
     999901    1    3    3    0    0  0.64759725090E-01  0.71095489982E-01 -0.71064395024E-01  0.88808701090E+00  0.88000000000E+00 0. -1.
        -11    1    4    4    0    0 -0.20948329492E-01 -0.39166502037E-01  0.51876283129E-01  0.68295367797E-01  0.51100000000E-03 0. -1.
         11    1    4    4    0    0 -0.25169123011E-01 -0.45642308428E-01  0.31932114591E-01  0.61127948887E-01  0.51100000000E-03 0.  1.
</event>
<event>
 8    1  0.1097777E+005  0.1043930E+01  0.7957747E-01            NaN
         13   -1    0    0    0    0  0.00000000000E+00  0.00000000000E+00  0.74505805969E-08  0.10566000000E+00  0.10566000000E+00 0.  1.
     999900   -1    0    0    0    0 -0.00000000000E+00 -0.00000000000E+00 -0.74505805969E-08  0.93827000000E+00  0.93827000000E+00 0. -1.
     999902    2    1    2    0    0 -0.62694753990E-02  0.14683577859E-02  0.21982079078E-01  0.10210242322E+01  0.10207672647E+01 0.  0.
     999903    2    3    3    0    0 -0.65710299778E-01 -0.10507526145E+00 -0.36509340998E-01  0.13068384753E+00  0.19664230484E-01 0.  0.
         14    1    1    2    0    0  0.62694753990E-02 -0.14683577859E-02 -0.21982079078E-01  0.22905767766E-01  0.00000000000E+00 0. -1.
     999901    1    3    3    0    0  0.59440824379E-01  0.10654361924E+00  0.58491420076E-01  0.89034038470E+00  0.88000000000E+00 0.  1.
        -11    1    4    4    0    0 -0.29140507955E-01 -0.63277352294E-01 -0.24592317832E-01  0.73879873677E-01  0.51100000000E-03 0.  1.
         11    1    4    4    0    0 -0.36569791824E-01 -0.41797909157E-01 -0.11917023166E-01  0.56803973858E-01  0.51100000000E-03 0. -1.
</event>
<event>
 8    1  0.1097777E+005  0.1043930E+01  0.7957747E-01            NaN
         13   -1    0    0    0    0  0.00000000000E+00  0.00000000000E+00  0.74505805969E-08  0.10566000000E+00  0.10566000000E+00 0. -1.
     999900   -1    0    0    0    0 -0.00000000000E+00 -0.00000000000E+00 -0.74505805969E-08  0.93827000000E+00  0.93827000000E+00 0.  1.
     999902    2    1    2    0    0  0.41276873238E-03 -0.22022614923E-01 -0.74828200914E-02  0.10206671854E+01  0.10204020506E+01 0.  0.
     999903    2    3    3    0    0  0.49780696757E-01  0.66952904977E-01  0.96024094063E-01  0.12877732857E+00  0.20054038462E-01 0.  0.
         14    1    1    2    0    0 -0.41276873238E-03  0.22022614923E-01  0.74828200914E-02  0.23262814588E-01  0.00000000000E+00 0. -1.
     999901    1    3    3    0    0 -0.49367928025E-01 -0.88975519899E-01 -0.10350691415E+00  0.89188985684E+00  0.88000000000E+00 0.  1.
        -11    1    4    4    0    0 -0.16339333316E-02  0.36558045744E-02  0.27686261594E-02  0.48950032716E-02  0.51100000000E-03 0.  1.
         11    1    4    4    0    0  0.51414630089E-01  0.63297100402E-01  0.93255467904E-01  0.12388232530E+00  0.51100000000E-03 0. -1.
</event>
<event>
 8    1  0.1097777E+005  0.1043930E+01  0.7957747E-01            NaN
         13   -1    0    0    0    0  0.00000000000E+00  0.00000000000E+00  0.74505805969E-08  0.10566000000E+00  0.10566000000E+00 0.  1.
     999900   -1    0    0    0    0 -0.00000000000E+00 -0.00000000000E+00 -0.74505805969E-08  0.93827000000E+00  0.93827000000E+00 0.  1.
     999902    2    1    2    0    0  0.28619202689E-02  0.20362008711E-01  0.72929524780E-02  0.10221128246E+01  0.10218799524E+01 0.  0.
     999903    2    3    3    0    0 -0.58536079558E-01 -0.11394046143E-01  0.11681828871E+00  0.13263322356E+00  0.19717061539E-01 0.  0.
         14    1    1    2    0    0 -0.28619202689E-02 -0.20362008711E-01 -0.72929524780E-02  0.21817175395E-01  0.00000000000E+00 0. -1.
     999901    1    3    3    0    0  0.61397999827E-01  0.31756054854E-01 -0.10952533624E+00  0.88947960105E+00  0.88000000000E+00 0.  1.
        -11    1    4    4    0    0 -0.24469314379E-01  0.50096622577E-02  0.45120204405E-01  0.51574587043E-01  0.51100000000E-03 0. -1.
         11    1    4    4    0    0 -0.34066765180E-01 -0.16403708401E-01  0.71698084308E-01  0.81058636514E-01  0.51100000000E-03 0.  1.
</event>
<event>
 8    1  0.1097777E+005  0.1043930E+01  0.7957747E-01            NaN
         13   -1    0    0    0    0  0.00000000000E+00  0.00000000000E+00  0.74505805969E-08  0.10566000000E+00  0.10566000000E+00 0. -1.
     999900   -1    0    0    0    0 -0.00000000000E+00 -0.00000000000E+00 -0.74505805969E-08  0.93827000000E+00  0.93827000000E+00 0.  1.
     999902    2    1    2    0    0  0.26662821475E-02 -0.16170471828E-01  0.16940487049E-01  0.10203593971E+01  0.10200871168E+01 0.  0.
     999903    2    3    3    0    0  0.12591972231E+00  0.13559518037E-01  0.26394883781E-01  0.13122236130E+00  0.21976833721E-01 0.  0.
         14    1    1    2    0    0 -0.26662821475E-02  0.16170471828E-01 -0.16940487049E-01  0.23570602900E-01  0.00000000000E+00 0.  1.
     999901    1    3    3    0    0 -0.12325344016E+00 -0.29729989864E-01 -0.94543967326E-02  0.88913703580E+00  0.88000000000E+00 0. -1.
        -11    1    4    4    0    0  0.12377643749E-01  0.45512421488E-03 -0.38695973736E-02  0.12986458627E-01  0.51100000000E-03 0.  1.
         11    1    4    4    0    0  0.11354207856E+00  0.13104393822E-01  0.30264481155E-01  0.11823590268E+00  0.51100000000E-03 0. -1.
</event>
<event>
 8    1  0.1097777E+005  0.1043930E+01  0.7957747E-01            NaN
         13   -1    0    0    0    0  0.00000000000E+00  0.00000000000E+00  0.74505805969E-08  0.10566000000E+00  0.10566000000E+00 0. -1.
     999900   -1    0    0    0    0 -0.00000000000E+00 -0.00000000000E+00 -0.74505805969E-08  0.93827000000E+00  0.93827000000E+00 0. -1.
     999902    2    1    2    0    0 -0.65469280285E-02 -0.21494042028E-01  0.86629079039E-02  0.10198488438E+01  0.10195644963E+01 0.  0.
     999903    2    3    3    0    0 -0.67478664598E-01 -0.10971138537E+00 -0.25115924733E-01  0.13269835731E+00  0.19699901051E-01 0.  0.
         14    1    1    2    0    0  0.65469280285E-02  0.21494042028E-01 -0.86629079039E-02  0.24081156174E-01  0.00000000000E+00 0.  1.
     999901    1    3    3    0    0  0.60931736569E-01  0.88217343346E-01  0.33778832637E-01  0.88715048651E+00  0.88000000000E+00 0.  1.
        -11    1    4    4    0    0 -0.42795151659E-01 -0.60311508546E-01 -0.57558700071E-02  0.74177450948E-01  0.51100000000E-03 0.  1.
         11    1    4    4    0    0 -0.24683512939E-01 -0.49399876828E-01 -0.19360054726E-01  0.58520906364E-01  0.51100000000E-03 0. -1.
</event>
<event>
 8    1  0.1097777E+005  0.1043930E+01  0.7957747E-01            NaN
         13   -1    0    0    0    0  0.00000000000E+00  0.00000000000E+00  0.74505805969E-08  0.10566000000E+00  0.10566000000E+00 0.  1.
     999900   -1    0    0    0    0 -0.00000000000E+00 -0.00000000000E+00 -0.74505805969E-08  0.93827000000E+00  0.93827000000E+00 0.  1.
     999902    2    1    2    0    0 -0.79372201243E-02  0.11094573855E-01 -0.18402052753E-01  0.10210231325E+01  0.10207661400E+01 0.  0.
     999903    2    3    3    0    0 -0.70844483713E-01  0.80212535606E-02  0.10670381027E+00  0.12994611785E+00  0.20420799104E-01 0.  0.
         14    1    1    2    0    0  0.79372201243E-02 -0.11094573855E-01  0.18402052753E-01  0.22906867483E-01  0.00000000000E+00 0.  1.
     999901    1    3    3    0    0  0.62907263589E-01  0.30733202948E-02 -0.12510586302E+00  0.89107701467E+00  0.88000000000E+00 0.  1.
        -11    1    4    4    0    0 -0.31262129125E-01  0.13122279365E-01  0.42834466313E-01  0.54631195836E-01  0.51100000000E-03 0.  1.
         11    1    4    4    0    0 -0.39582354588E-01 -0.51010258041E-02  0.63869343958E-01  0.75314922011E-01  0.51100000000E-03 0. -1.
</event>
<event>
 8    1  0.1097777E+005  0.1043930E+01  0.7957747E-01            NaN
         13   -1    0    0    0    0  0.00000000000E+00  0.00000000000E+00  0.74505805969E-08  0.10566000000E+00  0.10566000000E+00 0.  1.
     999900   -1    0    0    0    0 -0.00000000000E+00 -0.00000000000E+00 -0.74505805969E-08  0.93827000000E+00  0.93827000000E+00 0. -1.
     999902    2    1    2    0    0 -0.54987606396E-02  0.49604309781E-02 -0.23562965657E-01  0.10192306965E+01  0.10189313799E+01 0.  0.
     999903    2    3    3    0    0  0.45068363730E-02 -0.26699034088E-01 -0.12813674567E+00  0.13241723855E+00  0.19548643915E-01 0.  0.
         14    1    1    2    0    0  0.54987606396E-02 -0.49604309781E-02  0.23562965657E-01  0.24699303525E-01  0.00000000000E+00 0.  1.
     999901    1    3    3    0    0 -0.10005597013E-01  0.31659465066E-01  0.10457378001E+00  0.88681345793E+00  0.88000000000E+00 0.  1.
        -11    1    4    4    0    0  0.10241604506E-01 -0.17008414895E-01 -0.10258309291E+00  0.10448793572E+00  0.51100000000E-03 0.  1.
         11    1    4    4    0    0 -0.57347681334E-02 -0.96906191930E-02 -0.25553652757E-01  0.27929302822E-01  0.51100000000E-03 0. -1.
</event>
<event>
 8    1  0.1097777E+005  0.1043930E+01  0.7957747E-01            NaN
         13   -1    0    0    0    0  0.00000000000E+00  0.00000000000E+00  0.74505805969E-08  0.10566000000E+00  0.10566000000E+00 0. -1.
     999900   -1    0    0    0    0 -0.00000000000E+00 -0.00000000000E+00 -0.74505805969E-08  0.93827000000E+00  0.93827000000E+00 0. -1.
     999902    2    1    2    0    0 -0.45720491970E-02 -0.28755954010E-01 -0.14982108635E-01  0.10111844338E+01  0.10106540888E+01 0.  0.
     999903    2    3    3    0    0  0.44530195062E-01 -0.11473894042E+00 -0.56446233728E-02  0.12558221332E+00  0.24311886143E-01 0.  0.
         14    1    1    2    0    0  0.45720491970E-02  0.28755954010E-01  0.14982108635E-01  0.32745566173E-01  0.00000000000E+00 0.  1.
     999901    1    3    3    0    0 -0.49102244259E-01  0.85982986408E-01 -0.93374852624E-02  0.88560222051E+00  0.88000000000E+00 0. -1.
        -11    1    4    4    0    0  0.34054359205E-01 -0.10675886555E+00 -0.73119101511E-02  0.11229817409E+00  0.51100000000E-03 0.  1.
         11    1    4    4    0    0  0.10475835857E-01 -0.79800748699E-02  0.16672867783E-02  0.13284039221E-01  0.51100000000E-03 0. -1.
</event>
<event>
 8    1  0.1317757E+005  0.1043930E+01  0.7957747E-01            NaN
         13   -1    0    0    0    0  0.00000000000E+00  0.00000000000E+00  0.74505805969E-08  0.10566000000E+00  0.10566000000E+00 0.  1.
     999900   -1    0    0    0    0 -0.00000000000E+00 -0.00000000000E+00 -0.74505805969E-08  0.93827000000E+00  0.93827000000E+00 0.  1.
     999902    2    1    2    0    0  0.17778977002E-01  0.14943525698E-01 -0.36335615961E-02  0.10204224745E+01  0.10201516666E+01 0.  0.
     999903    2    3    3    0    0  0.22200015411E-01 -0.12559229700E-01 -0.12743551848E+00  0.13132019040E+00  0.18830987779E-01 0.  0.
         14    1    1    2    0    0 -0.17778977002E-01 -0.14943525698E-01  0.36335615961E-02  0.23507525462E-01  0.00000000000E+00 0. -1.
     999901    1    3    3    0    0 -0.44210384099E-02  0.27502755398E-01  0.12380195688E+00  0.88910228414E+00  0.88000000000E+00 0. -1.
        -11    1    4    4    0    0  0.85788367513E-02  0.45918410451E-02 -0.42810740962E-01  0.43905604504E-01  0.51100000000E-03 0. -1.
         11    1    4    4    0    0  0.13621178660E-01 -0.17151070745E-01 -0.84624777518E-01  0.87414585893E-01  0.51100000000E-03 0.  1.
</event>
<event>
 8    1  0.1097777E+005  0.1043930E+01  0.7957747E-01            NaN
         13   -1    0    0    0    0  0.00000000000E+00  0.00000000000E+00  0.74505805969E-08  0.10566000000E+00  0.10566000000E+00 0. -1.
     999900   -1    0    0    0    0 -0.00000000000E+00 -0.00000000000E+00 -0.74505805969E-08  0.93827000000E+00  0.93827000000E+00 0. -1.
     999902    2    1    2    0    0  0.16028536714E-01  0.15929527830E-01 -0.70596276362E-02  0.10202550726E+01  0.10199803483E+01 0.  0.
     999903    2    3    3    0    0 -0.10700808037E-01 -0.12355201116E+00  0.25582065191E-01  0.12827130720E+00  0.20481197153E-01 0.  0.
         14    1    1    2    0    0 -0.16028536714E-01 -0.15929527830E-01  0.70596276362E-02  0.23674927422E-01  0.00000000000E+00 0.  1.
     999901    1    3    3    0    0  0.26729344751E-01  0.13948153899E+00 -0.32641692827E-01  0.89198376538E+00  0.88000000000E+00 0. -1.
        -11    1    4    4    0    0 -0.14874785930E-01 -0.85255674873E-01  0.23546410303E-01  0.89691047010E-01  0.51100000000E-03 0. -1.
         11    1    4    4    0    0  0.41739778939E-02 -0.38296336286E-01  0.20356548882E-02  0.38580260189E-01  0.51100000000E-03 0.  1.
</event>
<event>
 8    1  0.1097777E+005  0.1043930E+01  0.7957747E-01            NaN
         13   -1    0    0    0    0  0.00000000000E+00  0.00000000000E+00  0.74505805969E-08  0.10566000000E+00  0.10566000000E+00 0. -1.
     999900   -1    0    0    0    0 -0.00000000000E+00 -0.00000000000E+00 -0.74505805969E-08  0.93827000000E+00  0.93827000000E+00 0. -1.
     999902    2    1    2    0    0  0.94320942967E-02 -0.18430996312E-01 -0.61519287304E-02  0.10223311052E+01  0.10221029187E+01 0.  0.
     999903    2    3    3    0    0 -0.26499381196E-01 -0.41203472494E-01 -0.12280828378E+00  0.13361384886E+00  0.19257276397E-01 0.  0.
         14    1    1    2    0    0 -0.94320942967E-02  0.18430996312E-01  0.61519287304E-02  0.21598894763E-01  0.00000000000E+00 0.  1.
     999901    1    3    3    0    0  0.35931475493E-01  0.22772476182E-01  0.11665635505E+00  0.88871725637E+00  0.88000000000E+00 0.  1.
        -11    1    4    4    0    0 -0.18527986526E-01 -0.18955264447E-01 -0.84863911722E-01  0.88908565216E-01  0.51100000000E-03 0. -1.
         11    1    4    4    0    0 -0.79713946697E-02 -0.22248208047E-01 -0.37944372056E-01  0.44705283648E-01  0.51100000000E-03 0.  1.
</event>
<event>
 8    1  0.1097777E+005  0.1043930E+01  0.7957747E-01            NaN
         13   -1    0    0    0    0  0.00000000000E+00  0.00000000000E+00  0.74505805969E-08  0.10566000000E+00  0.10566000000E+00 0. -1.
     999900   -1    0    0    0    0 -0.00000000000E+00 -0.00000000000E+00 -0.74505805969E-08  0.93827000000E+00  0.93827000000E+00 0. -1.
     999902    2    1    2    0    0 -0.53049438787E-02  0.15700274884E-01 -0.15257757984E-01  0.10214035658E+01  0.10211551321E+01 0.  0.
     999903    2    3    3    0    0 -0.87307772504E-01 -0.91309367167E-01  0.24533467005E-01  0.13024764843E+00  0.20062682951E-01 0.  0.
         14    1    1    2    0    0  0.53049438787E-02 -0.15700274884E-01  0.15257757984E-01  0.22526434243E-01  0.00000000000E+00 0. -1.
     999901    1    3    3    0    0  0.82002828626E-01  0.10700964205E+00 -0.39791224989E-01  0.89115591732E+00  0.88000000000E+00 0. -1.
        -11    1    4    4    0    0 -0.48128671781E-01 -0.36890273401E-01  0.78726748279E-02  0.61151463179E-01  0.51100000000E-03 0.  1.
         11    1    4    4    0    0 -0.39179100723E-01 -0.54419093766E-01  0.16660792177E-01  0.69096185255E-01  0.51100000000E-03 0. -1.
</event>
<event>
 7    1  0.1097777E+005  0.1043930E+01  0.7957747E-01            NaN
         13   -1    0    0    0    0  0.00000000000E+00  0.00000000000E+00  0.74505805969E-08  0.10566000000E+00  0.10566000000E+00 0. -1.
     999900   -1    0    0    0    0 -0.00000000000E+00 -0.00000000000E+00 -0.74505805969E-08  0.93827000000E+00  0.93827000000E+00 0.  1.
     999903    2    1    2    0    0 -0.61089837411E-01 -0.62089001313E-01 -0.41099716795E-01  0.98553164958E-01  0.20893235361E-01 0.  0.
         14    1    1    2    0    0  0.40532893828E-01 -0.61934824765E-02  0.47132141075E-01  0.62471701030E-01  0.00000000000E+00 0. -1.
     999901    1    1    2    0    0  0.20556943583E-01  0.68282483789E-01 -0.60324242804E-02  0.88290513401E+00  0.88000000000E+00 0.  1.
        -11    1    3    3    0    0 -0.41787836540E-01 -0.42513023092E-01 -0.17000946255E-01  0.61990916348E-01  0.51100000000E-03 0.  1.
         11    1    3    3    0    0 -0.19302000871E-01 -0.19575978220E-01 -0.24098770540E-01  0.36562248610E-01  0.51100000000E-03 0. -1.
</event>
<event>
 8    1  0.1097777E+005  0.1043930E+01  0.7957747E-01            NaN
         13   -1    0    0    0    0  0.00000000000E+00  0.00000000000E+00  0.74505805969E-08  0.10566000000E+00  0.10566000000E+00 0. -1.
     999900   -1    0    0    0    0 -0.00000000000E+00 -0.00000000000E+00 -0.74505805969E-08  0.93827000000E+00  0.93827000000E+00 0.  1.
     999902    2    1    2    0    0 -0.34360269855E-02  0.18719159836E-01 -0.33724133816E-02  0.10246016168E+01  0.10244192924E+01 0.  0.
     999903    2    3    3    0    0  0.91705816716E-01 -0.27862286428E-01  0.90428339719E-01  0.13329898419E+00  0.20126369187E-01 0.  0.
         14    1    1    2    0    0  0.34360269855E-02 -0.18719159836E-01  0.33724133816E-02  0.19328383234E-01  0.00000000000E+00 0.  1.
     999901    1    3    3    0    0 -0.95141843702E-01  0.46581446264E-01 -0.93800753100E-01  0.89130263258E+00  0.88000000000E+00 0.  1.
        -11    1    4    4    0    0  0.28328951982E-01  0.51400955977E-03  0.29678855670E-01  0.41035220495E-01  0.51100000000E-03 0. -1.
         11    1    4    4    0    0  0.63376864734E-01 -0.28376295988E-01  0.60749484049E-01  0.92263763693E-01  0.51100000000E-03 0.  1.
</event>
<event>
 8    1  0.1097777E+005  0.1043930E+01  0.7957747E-01            NaN
         13   -1    0    0    0    0  0.00000000000E+00  0.00000000000E+00  0.74505805969E-08  0.10566000000E+00  0.10566000000E+00 0.  1.
     999900   -1    0    0    0    0 -0.00000000000E+00 -0.00000000000E+00 -0.74505805969E-08  0.93827000000E+00  0.93827000000E+00 0. -1.
     999902    2    1    2    0    0 -0.15893356233E-01  0.15814270673E-01  0.81067025844E-02  0.10200886796E+01  0.10198100342E+01 0.  0.
     999903    2    3    3    0    0  0.78309814240E-01  0.10263444663E+00 -0.51755533084E-02  0.13071339407E+00  0.19822926010E-01 0.  0.
         14    1    1    2    0    0  0.15893356233E-01 -0.15814270673E-01 -0.81067025844E-02  0.23841320351E-01  0.00000000000E+00 0. -1.
     999901    1    3    3    0    0 -0.94203170473E-01 -0.86820175956E-01  0.13282255893E-01  0.88937528558E+00  0.88000000000E+00 0. -1.
        -11    1    4    4    0    0  0.66168622262E-01  0.94016289070E-01 -0.78643333746E-04  0.11496789329E+00  0.51100000000E-03 0. -1.
         11    1    4    4    0    0  0.12141191978E-01  0.86181575592E-02 -0.50969099747E-02  0.15745500775E-01  0.51100000000E-03 0.  1.
</event>
<event>
 8    1  0.1097777E+005  0.1043930E+01  0.7957747E-01            NaN
         13   -1    0    0    0    0  0.00000000000E+00  0.00000000000E+00  0.74505805969E-08  0.10566000000E+00  0.10566000000E+00 0.  1.
     999900   -1    0    0    0    0 -0.00000000000E+00 -0.00000000000E+00 -0.74505805969E-08  0.93827000000E+00  0.93827000000E+00 0.  1.
     999902    2    1    2    0    0 -0.87221635734E-02 -0.35071382044E-02  0.21269290234E-01  0.10206757775E+01  0.10204108408E+01 0.  0.
     999903    2    3    3    0    0 -0.10196288329E+00 -0.53037472947E-01 -0.58781878378E-01  0.13075708716E+00  0.20801526671E-01 0.  0.
         14    1    1    2    0    0  0.87221635734E-02  0.35071382044E-02 -0.21269290234E-01  0.23254222473E-01  0.00000000000E+00 0. -1.
     999901    1    3    3    0    0  0.93240719712E-01  0.49530334743E-01  0.80051168612E-01  0.88991869037E+00  0.88000000000E+00 0. -1.
        -11    1    4    4    0    0 -0.89383594707E-01 -0.53096036782E-01 -0.49706247721E-01  0.11523709606E+00  0.51100000000E-03 0.  1.
         11    1    4    4    0    0 -0.12579288579E-01  0.58563835526E-04 -0.90756306567E-02  0.15519991098E-01  0.51100000000E-03 0. -1.
</event>
<event>
 8    1  0.1097777E+005  0.1043930E+01  0.7957747E-01            NaN
         13   -1    0    0    0    0  0.00000000000E+00  0.00000000000E+00  0.74505805969E-08  0.10566000000E+00  0.10566000000E+00 0.  1.
     999900   -1    0    0    0    0 -0.00000000000E+00 -0.00000000000E+00 -0.74505805969E-08  0.93827000000E+00  0.93827000000E+00 0.  1.
     999902    2    1    2    0    0 -0.20335078688E-01  0.11752368330E-01  0.92284357664E-03  0.10204249957E+01  0.10201542465E+01 0.  0.
     999903    2    3    3    0    0 -0.70990411265E-01  0.96533380425E-01  0.54600481343E-01  0.13327502443E+00  0.20559366409E-01 0.  0.
         14    1    1    2    0    0  0.20335078688E-01 -0.11752368330E-01 -0.92284357664E-03  0.23505004295E-01  0.00000000000E+00 0. -1.
     999901    1    3    3    0    0  0.50655332577E-01 -0.84781012094E-01 -0.53677637767E-01  0.88714997127E+00  0.88000000000E+00 0.  1.
        -11    1    4    4    0    0 -0.23515831982E-01  0.43601623058E-01  0.14394322242E-01  0.51590246374E-01  0.51100000000E-03 0. -1.
         11    1    4    4    0    0 -0.47474579283E-01  0.52931757366E-01  0.40206159101E-01  0.81684778060E-01  0.51100000000E-03 0.  1.
</event>
<event>
 8    1  0.1097777E+005  0.1043930E+01  0.7957747E-01            NaN
         13   -1    0    0    0    0  0.00000000000E+00  0.00000000000E+00  0.74505805969E-08  0.10566000000E+00  0.10566000000E+00 0.  1.
     999900   -1    0    0    0    0 -0.00000000000E+00 -0.00000000000E+00 -0.74505805969E-08  0.93827000000E+00  0.93827000000E+00 0.  1.
     999902    2    1    2    0    0 -0.11451363082E-01 -0.11203677410E-01 -0.18650931515E-01  0.10193431468E+01  0.10190465826E+01 0.  0.
     999903    2    3    3    0    0  0.53731345672E-01  0.11401499888E+00  0.28089645520E-02  0.12783373600E+00  0.21144651802E-01 0.  0.
         14    1    1    2    0    0  0.11451363082E-01  0.11203677410E-01  0.18650931515E-01  0.24586853201E-01  0.00000000000E+00 0.  1.
     999901    1    3    3    0    0 -0.65182708754E-01 -0.12521867629E+00 -0.21459896067E-01  0.89150941080E+00  0.88000000000E+00 0. -1.
        -11    1    4    4    0    0  0.19562638745E-01  0.26184354767E-01  0.72554556812E-02  0.33484623745E-01  0.51100000000E-03 0. -1.
         11    1    4    4    0    0  0.34168706927E-01  0.87830644111E-01 -0.44464911292E-02  0.94349112250E-01  0.51100000000E-03 0.  1.
</event>
<event>
 8    1  0.1097777E+005  0.1043930E+01  0.7957747E-01            NaN
         13   -1    0    0    0    0  0.00000000000E+00  0.00000000000E+00  0.74505805969E-08  0.10566000000E+00  0.10566000000E+00 0.  1.
     999900   -1    0    0    0    0 -0.00000000000E+00 -0.00000000000E+00 -0.74505805969E-08  0.93827000000E+00  0.93827000000E+00 0. -1.
     999902    2    1    2    0    0  0.21428861852E-01  0.48321729135E-02  0.73846065691E-02  0.10207550474E+01  0.10204919345E+01 0.  0.
     999903    2    3    3    0    0 -0.61291763201E-01 -0.70662683045E-01 -0.86258319808E-01  0.12872860564E+00  0.19510539764E-01 0.  0.
         14    1    1    2    0    0 -0.21428861852E-01 -0.48321729135E-02 -0.73846065691E-02  0.23174952632E-01  0.00000000000E+00 0.  1.
     999901    1    3    3    0    0  0.82720625053E-01  0.75494855959E-01  0.93642926377E-01  0.89202644173E+00  0.88000000000E+00 0.  1.
        -11    1    4    4    0    0 -0.20557964156E-01 -0.11090513245E-01 -0.19951952575E-01  0.30724109537E-01  0.51100000000E-03 0. -1.
         11    1    4    4    0    0 -0.40733799045E-01 -0.59572169800E-01 -0.66306367233E-01  0.98004496101E-01  0.51100000000E-03 0.  1.
</event>
<event>
 8    1  0.1097777E+005  0.1043930E+01  0.7957747E-01            NaN
         13   -1    0    0    0    0  0.00000000000E+00  0.00000000000E+00  0.74505805969E-08  0.10566000000E+00  0.10566000000E+00 0.  1.
     999900   -1    0    0    0    0 -0.00000000000E+00 -0.00000000000E+00 -0.74505805969E-08  0.93827000000E+00  0.93827000000E+00 0.  1.
     999902    2    1    2    0    0 -0.23053720814E-01  0.47714014947E-02 -0.21355198139E-02  0.10202910330E+01  0.10200171524E+01 0.  0.
     999903    2    3    3    0    0 -0.10572651139E-02 -0.12720529292E+00  0.17431466526E-01  0.12996268971E+00  0.20103241874E-01 0.  0.
         14    1    1    2    0    0  0.23053720814E-01 -0.47714014947E-02  0.21355198139E-02  0.23638966992E-01  0.00000000000E+00 0.  1.
     999901    1    3    3    0    0 -0.21996455700E-01  0.13197669442E+00 -0.19566986340E-01  0.89032834330E+00  0.88000000000E+00 0.  1.
        -11    1    4    4    0    0 -0.42309068980E-02 -0.10012906724E+00  0.21199032411E-01  0.10243725287E+00  0.51100000000E-03 0.  1.
         11    1    4    4    0    0  0.31736417841E-02 -0.27076225682E-01 -0.37675658850E-02  0.27525436836E-01  0.51100000000E-03 0. -1.
</event>
<event>
 7    1  0.1647165E+005  0.1043930E+01  0.7957747E-01            NaN
         13   -1    0    0    0    0  0.00000000000E+00  0.00000000000E+00  0.74505805969E-08  0.10566000000E+00  0.10566000000E+00 0. -1.
     999900   -1    0    0    0    0 -0.00000000000E+00 -0.00000000000E+00 -0.74505805969E-08  0.93827000000E+00  0.93827000000E+00 0. -1.
     999903    2    1    2    0    0 -0.24403899424E-01 -0.64228782683E-01  0.26000575304E-01  0.75797060310E-01  0.18662197174E-01 0.  0.
         14    1    1    2    0    0 -0.48300971639E-01  0.21051175981E-01  0.60065626827E-01  0.79900033777E-01  0.00000000000E+00 0. -1.
     999901    1    1    2    0    0  0.72704871064E-01  0.43177606703E-01 -0.86066202132E-01  0.88823290591E+00  0.88000000000E+00 0. -1.
        -11    1    3    3    0    0 -0.39262426508E-02 -0.36236249629E-01  0.11776333495E-01  0.38306974824E-01  0.51100000000E-03 0. -1.
         11    1    3    3    0    0 -0.20477656774E-01 -0.27992533054E-01  0.14224241809E-01  0.37490085486E-01  0.51100000000E-03 0.  1.
</event>
<event>
 8    1  0.1097777E+005  0.1043930E+01  0.7957747E-01            NaN
         13   -1    0    0    0    0  0.00000000000E+00  0.00000000000E+00  0.74505805969E-08  0.10566000000E+00  0.10566000000E+00 0. -1.
     999900   -1    0    0    0    0 -0.00000000000E+00 -0.00000000000E+00 -0.74505805969E-08  0.93827000000E+00  0.93827000000E+00 0.  1.
     999902    2    1    2    0    0  0.26814757924E-01 -0.11200034435E-01 -0.22493173579E-02  0.10147832773E+01  0.10143646132E+01 0.  0.
     999903    2    3    3    0    0  0.42767846637E-01  0.11272008687E+00 -0.27686686706E-01  0.12559389522E+00  0.21734010309E-01 0.  0.
         14    1    1    2    0    0 -0.26814757924E-01  0.11200034435E-01  0.22493173579E-02  0.29146722670E-01  0.00000000000E+00 0. -1.
     999901    1    3    3    0    0 -0.15953088713E-01 -0.12392012131E+00  0.25437369348E-01  0.88918938211E+00  0.88000000000E+00 0. -1.
        -11    1    4    4    0    0  0.29670845500E-01  0.48154183437E-01 -0.14712279313E-01  0.58445673397E-01  0.51100000000E-03 0.  1.
         11    1    4    4    0    0  0.13097001136E-01  0.64565903436E-01 -0.12974407392E-01  0.67148221819E-01  0.51100000000E-03 0. -1.
</event>
<event>
 8    1  0.1097777E+005  0.1043930E+01  0.7957747E-01            NaN
         13   -1    0    0    0    0  0.00000000000E+00  0.00000000000E+00  0.74505805969E-08  0.10566000000E+00  0.10566000000E+00 0. -1.
     999900   -1    0    0    0    0 -0.00000000000E+00 -0.00000000000E+00 -0.74505805969E-08  0.93827000000E+00  0.93827000000E+00 0. -1.
     999902    2    1    2    0    0 -0.41957413563E-02  0.19003797157E-01 -0.12292905168E-01  0.10209112235E+01  0.10206516851E+01 0.  0.
     999903    2    3    3    0    0 -0.40409663888E-01 -0.11608599136E+00  0.32449116265E-01  0.12874389192E+00  0.20325998951E-01 0.  0.
         14    1    1    2    0    0  0.41957413563E-02 -0.19003797157E-01  0.12292905168E-01  0.23018776453E-01  0.00000000000E+00 0. -1.
     999901    1    3    3    0    0  0.36213922532E-01  0.13508978852E+00 -0.44742021433E-01  0.89216733163E+00  0.88000000000E+00 0. -1.
        -11    1    4    4    0    0 -0.30568074732E-01 -0.66235423955E-01  0.26350854476E-01  0.77563955753E-01  0.51100000000E-03 0.  1.
         11    1    4    4    0    0 -0.98415891556E-02 -0.49850567407E-01  0.60982617889E-02  0.51179936164E-01  0.51100000000E-03 0. -1.
</event>
<event>
 8    1  0.1097777E+005  0.1043930E+01  0.7957747E-01            NaN
         13   -1    0    0    0    0  0.00000000000E+00  0.00000000000E+00  0.74505805969E-08  0.10566000000E+00  0.10566000000E+00 0. -1.
     999900   -1    0    0    0    0 -0.00000000000E+00 -0.00000000000E+00 -0.74505805969E-08  0.93827000000E+00  0.93827000000E+00 0.  1.
     999902    2    1    2    0    0 -0.23874581844E-01 -0.21539308229E-03  0.36854515945E-02  0.10197716763E+01  0.10194854816E+01 0.  0.
     999903    2    3    3    0    0 -0.88977409692E-01  0.43528613688E-01  0.85797635424E-01  0.13247559994E+00  0.19412127396E-01 0.  0.
         14    1    1    2    0    0  0.23874581844E-01  0.21539308229E-03 -0.36854515945E-02  0.24158323739E-01  0.00000000000E+00 0. -1.
     999901    1    3    3    0    0  0.65102827848E-01 -0.43744006770E-01 -0.82112183830E-01  0.88729607632E+00  0.88000000000E+00 0.  1.
        -11    1    4    4    0    0 -0.28227902738E-01  0.23105754693E-01  0.25803969174E-01  0.44685527177E-01  0.51100000000E-03 0.  1.
         11    1    4    4    0    0 -0.60749506954E-01  0.20422858994E-01  0.59993666250E-01  0.87790072763E-01  0.51100000000E-03 0. -1.
</event>
<event>
 8    1  0.1097777E+005  0.1043930E+01  0.7957747E-01            NaN
         13   -1    0    0    0    0  0.00000000000E+00  0.00000000000E+00  0.74505805969E-08  0.10566000000E+00  0.10566000000E+00 0.  1.
     999900   -1    0    0    0    0 -0.00000000000E+00 -0.00000000000E+00 -0.74505805969E-08  0.93827000000E+00  0.93827000000E+00 0. -1.
     999902    2    1    2    0    0 -0.51724036667E-02 -0.15679870949E-01  0.16293087562E-01  0.10207335172E+01  0.10204699095E+01 0.  0.
     999903    2    3    3    0    0  0.46785027565E-01 -0.12168950720E+00  0.15073071742E-01  0.13284889288E+00  0.20602327070E-01 0.  0.
         14    1    1    2    0    0  0.51724036667E-02  0.15679870949E-01 -0.16293087562E-01  0.23196482815E-01  0.00000000000E+00 0.  1.
     999901    1    3    3    0    0 -0.51957431232E-01  0.10600963625E+00  0.12200158199E-02  0.88788462430E+00  0.88000000000E+00 0. -1.
        -11    1    4    4    0    0  0.24518665795E-01 -0.88459284010E-01  0.13779193954E-01  0.92824227478E-01  0.51100000000E-03 0.  1.
         11    1    4    4    0    0  0.22266361770E-01 -0.33230223191E-01  0.12938777877E-02  0.40024665402E-01  0.51100000000E-03 0. -1.
</event>
<event>
 8    1  0.1097777E+005  0.1043930E+01  0.7957747E-01            NaN
         13   -1    0    0    0    0  0.00000000000E+00  0.00000000000E+00  0.74505805969E-08  0.10566000000E+00  0.10566000000E+00 0.  1.
     999900   -1    0    0    0    0 -0.00000000000E+00 -0.00000000000E+00 -0.74505805969E-08  0.93827000000E+00  0.93827000000E+00 0. -1.
     999902    2    1    2    0    0  0.41001410906E-02  0.20673578019E-01  0.23648001617E-02  0.10227215049E+01  0.10225015777E+01 0.  0.
     999903    2    3    3    0    0  0.12721706553E+00  0.12575248508E-01 -0.32596327853E-01  0.13342648045E+00  0.19944584651E-01 0.  0.
         14    1    1    2    0    0 -0.41001410906E-02 -0.20673578019E-01 -0.23648001617E-02  0.21208495111E-01  0.00000000000E+00 0.  1.
     999901    1    3    3    0    0 -0.12311692444E+00  0.80983295107E-02  0.34961128015E-01  0.88929502444E+00  0.88000000000E+00 0. -1.
        -11    1    4    4    0    0  0.98052847927E-01  0.79658314285E-02 -0.33378365501E-01  0.10388547474E+00  0.51100000000E-03 0. -1.
         11    1    4    4    0    0  0.29164217606E-01  0.46094170800E-02  0.78203764824E-03  0.29541005709E-01  0.51100000000E-03 0.  1.
</event>
<event>
 8    1  0.1097777E+005  0.1043930E+01  0.7957747E-01            NaN
         13   -1    0    0    0    0  0.00000000000E+00  0.00000000000E+00  0.74505805969E-08  0.10566000000E+00  0.10566000000E+00 0.  1.
     999900   -1    0    0    0    0 -0.00000000000E+00 -0.00000000000E+00 -0.74505805969E-08  0.93827000000E+00  0.93827000000E+00 0. -1.
     999902    2    1    2    0    0 -0.38647534032E-02 -0.25117737462E-01 -0.14839818858E-01  0.10145011489E+01  0.10140742201E+01 0.  0.
     999903    2    3    3    0    0 -0.96749605066E-03  0.12052405884E+00  0.25442684863E-02  0.12235646700E+00  0.20920012129E-01 0.  0.
         14    1    1    2    0    0  0.38647534032E-02  0.25117737462E-01  0.14839818858E-01  0.29428851113E-01  0.00000000000E+00 0.  1.
     999901    1    3    3    0    0 -0.28972573526E-02 -0.14564179630E+00 -0.17384087344E-01  0.89214468189E+00  0.88000000000E+00 0. -1.
        -11    1    4    4    0    0 -0.87666290689E-02  0.94457701363E-01  0.52447443780E-02  0.95009892099E-01  0.51100000000E-03 0. -1.
         11    1    4    4    0    0  0.77991330183E-02  0.26066357472E-01 -0.27004758917E-02  0.27346574900E-01  0.51100000000E-03 0.  1.
</event>
<event>
 7    1  0.1097777E+005  0.1043930E+01  0.7957747E-01            NaN
         13   -1    0    0    0    0  0.00000000000E+00  0.00000000000E+00  0.74505805969E-08  0.10566000000E+00  0.10566000000E+00 0.  1.
     999900   -1    0    0    0    0 -0.00000000000E+00 -0.00000000000E+00 -0.74505805969E-08  0.93827000000E+00  0.93827000000E+00 0. -1.
     999903    2    1    2    0    0  0.77908984056E-01 -0.19783232543E-01 -0.80748475843E-02  0.83669613464E-01  0.21776477385E-01 0.  0.
         14    1    1    2    0    0  0.12281534830E-01 -0.97564071218E-02  0.71202111941E-01  0.72909288315E-01  0.00000000000E+00 0.  1.
     999901    1    1    2    0    0 -0.90190518886E-01  0.29539639665E-01 -0.63127264357E-01  0.88735109822E+00  0.88000000000E+00 0. -1.
        -11    1    3    3    0    0  0.79013985771E-02  0.35650839842E-02 -0.45064597438E-02  0.97832113189E-02  0.51100000000E-03 0. -1.
         11    1    3    3    0    0  0.70007585479E-01 -0.23348316528E-01 -0.35683878404E-02  0.73886402145E-01  0.51100000000E-03 0.  1.
</event>
<event>
 8    1  0.1097777E+005  0.1043930E+01  0.7957747E-01            NaN
         13   -1    0    0    0    0  0.00000000000E+00  0.00000000000E+00  0.74505805969E-08  0.10566000000E+00  0.10566000000E+00 0. -1.
     999900   -1    0    0    0    0 -0.00000000000E+00 -0.00000000000E+00 -0.74505805969E-08  0.93827000000E+00  0.93827000000E+00 0. -1.
     999902    2    1    2    0    0 -0.16734543129E-02 -0.23200566814E-01  0.46861537099E-02  0.10202018145E+01  0.10199258383E+01 0.  0.
     999903    2    3    3    0    0 -0.11732801576E+00 -0.31474113091E-01  0.46511797510E-01  0.13161089985E+00  0.20039924520E-01 0.  0.
         14    1    1    2    0    0  0.16734543129E-02  0.23200566814E-01 -0.46861537099E-02  0.23728185486E-01  0.00000000000E+00 0. -1.
     999901    1    3    3    0    0  0.11565456144E+00  0.82735462768E-02 -0.41825643800E-01  0.88859091467E+00  0.88000000000E+00 0. -1.
        -11    1    4    4    0    0 -0.38409718869E-01 -0.16444796340E-01  0.23960685493E-01  0.48167555476E-01  0.51100000000E-03 0.  1.
         11    1    4    4    0    0 -0.78918296887E-01 -0.15029316751E-01  0.22551112017E-01  0.83443344371E-01  0.51100000000E-03 0. -1.
</event>
<event>
 8    1  0.1097777E+005  0.1043930E+01  0.7957747E-01            NaN
         13   -1    0    0    0    0  0.00000000000E+00  0.00000000000E+00  0.74505805969E-08  0.10566000000E+00  0.10566000000E+00 0. -1.
     999900   -1    0    0    0    0 -0.00000000000E+00 -0.00000000000E+00 -0.74505805969E-08  0.93827000000E+00  0.93827000000E+00 0.  1.
     999902    2    1    2    0    0 -0.57644192562E-02  0.19859976006E-01 -0.11248003575E-01  0.10203892957E+01  0.10201177138E+01 0.  0.
     999903    2    3    3    0    0 -0.10631956812E+00  0.31711049633E-01  0.67599934801E-01  0.13108125944E+00  0.17409886730E-01 0.  0.
         14    1    1    2    0    0  0.57644192562E-02 -0.19859976006E-01  0.11248003575E-01  0.23540704339E-01  0.00000000000E+00 0. -1.
     999901    1    3    3    0    0  0.10055514886E+00 -0.11851073627E-01 -0.78847938376E-01  0.88930803623E+00  0.88000000000E+00 0.  1.
        -11    1    4    4    0    0 -0.59179836014E-01  0.14652620997E-01  0.46547785372E-01  0.76706647278E-01  0.51100000000E-03 0. -1.
         11    1    4    4    0    0 -0.47139732107E-01  0.17058428637E-01  0.21052149429E-01  0.54374612157E-01  0.51100000000E-03 0.  1.
</event>
<event>
 8    1  0.1097777E+005  0.1043930E+01  0.7957747E-01            NaN
         13   -1    0    0    0    0  0.00000000000E+00  0.00000000000E+00  0.74505805969E-08  0.10566000000E+00  0.10566000000E+00 0.  1.
     999900   -1    0    0    0    0 -0.00000000000E+00 -0.00000000000E+00 -0.74505805969E-08  0.93827000000E+00  0.93827000000E+00 0. -1.
     999902    2    1    2    0    0 -0.14454048744E-01 -0.82066660416E-02  0.16897226636E-01  0.10202279925E+01  0.10199526320E+01 0.  0.
     999903    2    3    3    0    0 -0.38108761849E-01  0.38327195600E-02 -0.12163118644E+00  0.12899591637E+00  0.19463644444E-01 0.  0.
         14    1    1    2    0    0  0.14454048744E-01  0.82066660416E-02 -0.16897226636E-01  0.23702007522E-01  0.00000000000E+00 0. -1.
     999901    1    3    3    0    0  0.23654713105E-01 -0.12039385602E-01  0.13852841308E+00  0.89123207611E+00  0.88000000000E+00 0.  1.
        -11    1    4    4    0    0 -0.11931495865E-01 -0.59039058308E-02 -0.57878608437E-01  0.59392012369E-01  0.51100000000E-03 0. -1.
         11    1    4    4    0    0 -0.26177265984E-01  0.97366253908E-02 -0.63752578006E-01  0.69603903998E-01  0.51100000000E-03 0.  1.
</event>
<event>
 8    1  0.1097777E+005  0.1043930E+01  0.7957747E-01            NaN
         13   -1    0    0    0    0  0.00000000000E+00  0.00000000000E+00  0.74505805969E-08  0.10566000000E+00  0.10566000000E+00 0. -1.
     999900   -1    0    0    0    0 -0.00000000000E+00 -0.00000000000E+00 -0.74505805969E-08  0.93827000000E+00  0.93827000000E+00 0.  1.
     999902    2    1    2    0    0  0.21130183582E-01 -0.32249559671E-02  0.95457280422E-02  0.10205204737E+01  0.10202519450E+01 0.  0.
     999903    2    3    3    0    0  0.45579504078E-01  0.85521042066E-01 -0.85294944241E-01  0.13065060984E+00  0.20075221278E-01 0.  0.
         14    1    1    2    0    0 -0.21130183582E-01  0.32249559671E-02 -0.95457280422E-02  0.23409526331E-01  0.00000000000E+00 0.  1.
     999901    1    3    3    0    0 -0.24449320496E-01 -0.88745998033E-01  0.94840672283E-01  0.88986986383E+00  0.88000000000E+00 0. -1.
        -11    1    4    4    0    0  0.11005961208E-01  0.19836676287E-01 -0.32177717290E-01  0.39373741494E-01  0.51100000000E-03 0. -1.
         11    1    4    4    0    0  0.34573542870E-01  0.65684365778E-01 -0.53117226951E-01  0.91276868342E-01  0.51100000000E-03 0.  1.
</event>
<event>
 8    1  0.1097777E+005  0.1043930E+01  0.7957747E-01            NaN
         13   -1    0    0    0    0  0.00000000000E+00  0.00000000000E+00  0.74505805969E-08  0.10566000000E+00  0.10566000000E+00 0. -1.
     999900   -1    0    0    0    0 -0.00000000000E+00 -0.00000000000E+00 -0.74505805969E-08  0.93827000000E+00  0.93827000000E+00 0. -1.
     999902    2    1    2    0    0  0.21396698532E-01  0.46715282228E-03 -0.54725439639E-02  0.10218396021E+01  0.10216007962E+01 0.  0.
     999903    2    3    3    0    0  0.64540266272E-01 -0.11464746305E+00  0.41771433718E-02  0.13324190989E+00  0.20651180809E-01 0.  0.
         14    1    1    2    0    0 -0.21396698532E-01 -0.46715282228E-03  0.54725439639E-02  0.22090397852E-01  0.00000000000E+00 0. -1.
     999901    1    3    3    0    0 -0.43143567740E-01  0.11511461587E+00 -0.96496873358E-02  0.88859769226E+00  0.88000000000E+00 0. -1.
        -11    1    4    4    0    0  0.26725882382E-01 -0.64321526273E-01 -0.39568501828E-02  0.69767107691E-01  0.51100000000E-03 0.  1.
         11    1    4    4    0    0  0.37814383890E-01 -0.50325936779E-01  0.81339935546E-02  0.63474802196E-01  0.51100000000E-03 0. -1.
</event>
<event>
 8    1  0.1097777E+005  0.1043930E+01  0.7957747E-01            NaN
         13   -1    0    0    0    0  0.00000000000E+00  0.00000000000E+00  0.74505805969E-08  0.10566000000E+00  0.10566000000E+00 0.  1.
     999900   -1    0    0    0    0 -0.00000000000E+00 -0.00000000000E+00 -0.74505805969E-08  0.93827000000E+00  0.93827000000E+00 0.  1.
     999902    2    1    2    0    0  0.10350222514E-01 -0.51283637030E-03 -0.20111004903E-01  0.10213060608E+01  0.10210554477E+01 0.  0.
     999903    2    3    3    0    0  0.97007855261E-01  0.46147890442E-01  0.72178079735E-01  0.13102293510E+00  0.20425047216E-01 0.  0.
         14    1    1    2    0    0 -0.10350222514E-01  0.51283637030E-03  0.20111004903E-01  0.22623939211E-01  0.00000000000E+00 0.  1.
     999901    1    3    3    0    0 -0.86657632747E-01 -0.46660726813E-01 -0.92289084638E-01  0.89028312569E+00  0.88000000000E+00 0.  1.
        -11    1    4    4    0    0  0.36449054117E-01  0.24055641039E-01  0.19760763940E-01  0.47937003706E-01  0.51100000000E-03 0. -1.
         11    1    4    4    0    0  0.60558801144E-01  0.22092249404E-01  0.52417315796E-01  0.83085931396E-01  0.51100000000E-03 0.  1.
</event>
<event>
 8    1  0.1097777E+005  0.1043930E+01  0.7957747E-01            NaN
         13   -1    0    0    0    0  0.00000000000E+00  0.00000000000E+00  0.74505805969E-08  0.10566000000E+00  0.10566000000E+00 0.  1.
     999900   -1    0    0    0    0 -0.00000000000E+00 -0.00000000000E+00 -0.74505805969E-08  0.93827000000E+00  0.93827000000E+00 0. -1.
     999902    2    1    2    0    0 -0.81843459473E-02 -0.83813950340E-03 -0.22111496654E-01  0.10203375376E+01  0.10200647462E+01 0.  0.
     999903    2    3    3    0    0  0.12251986112E+00 -0.37480375013E-01  0.11227762580E-02  0.12962654376E+00  0.19643964459E-01 0.  0.
         14    1    1    2    0    0  0.81843459473E-02  0.83813950340E-03  0.22111496654E-01  0.23592462371E-01  0.00000000000E+00 0.  1.
     999901    1    3    3    0    0 -0.13070420707E+00  0.36642235510E-01 -0.23234272912E-01  0.89071099387E+00  0.88000000000E+00 0. -1.
        -11    1    4    4    0    0  0.46859480054E-01 -0.17577733657E-01  0.94974746023E-02  0.50943603487E-01  0.51100000000E-03 0. -1.
         11    1    4    4    0    0  0.75660381066E-01 -0.19902641357E-01 -0.83746983443E-02  0.78682940269E-01  0.51100000000E-03 0.  1.
</event>
<event>
 8    1  0.1097777E+005  0.1043930E+01  0.7957747E-01            NaN
         13   -1    0    0    0    0  0.00000000000E+00  0.00000000000E+00  0.74505805969E-08  0.10566000000E+00  0.10566000000E+00 0.  1.
     999900   -1    0    0    0    0 -0.00000000000E+00 -0.00000000000E+00 -0.74505805969E-08  0.93827000000E+00  0.93827000000E+00 0. -1.
     999902    2    1    2    0    0 -0.11460355628E-01  0.48851427792E-02 -0.20015059614E-01  0.10203544410E+01  0.10200820449E+01 0.  0.
     999903    2    3    3    0    0 -0.37705185182E-01  0.98955554478E-01 -0.77890934854E-01  0.13306212706E+00  0.20607017570E-01 0.  0.
         14    1    1    2    0    0  0.11460355628E-01 -0.48851427792E-02  0.20015059614E-01  0.23575559006E-01  0.00000000000E+00 0.  1.
     999901    1    3    3    0    0  0.26244829554E-01 -0.94070411698E-01  0.57875875240E-01  0.88729231394E+00  0.88000000000E+00 0.  1.
        -11    1    4    4    0    0 -0.74187628738E-02  0.11872201887E-01 -0.19194545669E-01  0.23762973817E-01  0.51100000000E-03 0. -1.
         11    1    4    4    0    0 -0.30286422308E-01  0.87083352591E-01 -0.58696389185E-01  0.10929915324E+00  0.51100000000E-03 0.  1.
</event>
<event>
 8    1  0.1097777E+005  0.1043930E+01  0.7957747E-01            NaN
         13   -1    0    0    0    0  0.00000000000E+00  0.00000000000E+00  0.74505805969E-08  0.10566000000E+00  0.10566000000E+00 0. -1.
     999900   -1    0    0    0    0 -0.00000000000E+00 -0.00000000000E+00 -0.74505805969E-08  0.93827000000E+00  0.93827000000E+00 0.  1.
     999902    2    1    2    0    0  0.12590780394E-01 -0.67374028379E-02  0.18089067937E-01  0.10208836396E+01  0.10206234717E+01 0.  0.
     999903    2    3    3    0    0 -0.94959665737E-01  0.68265643030E-01  0.54207100818E-01  0.13043596140E+00  0.19939762073E-01 0.  0.
         14    1    1    2    0    0 -0.12590780394E-01  0.67374028379E-02 -0.18089067937E-01  0.23046360380E-01  0.00000000000E+00 0.  1.
     999901    1    3    3    0    0  0.10755044613E+00 -0.75003045868E-01 -0.36118032881E-01  0.89044767822E+00  0.88000000000E+00 0.  1.
        -11    1    4    4    0    0 -0.19641925515E-01  0.66808479086E-02  0.47274797952E-02  0.21284951325E-01  0.51100000000E-03 0.  1.
         11    1    4    4    0    0 -0.75317740222E-01  0.61584795122E-01  0.49479621023E-01  0.10915101007E+00  0.51100000000E-03 0. -1.
</event>
<event>
 8    1  0.1097777E+005  0.1043930E+01  0.7957747E-01            NaN
         13   -1    0    0    0    0  0.00000000000E+00  0.00000000000E+00  0.74505805969E-08  0.10566000000E+00  0.10566000000E+00 0. -1.
     999900   -1    0    0    0    0 -0.00000000000E+00 -0.00000000000E+00 -0.74505805969E-08  0.93827000000E+00  0.93827000000E+00 0.  1.
     999902    2    1    2    0    0  0.96886285519E-02 -0.19769637385E-01 -0.92285185265E-02  0.10200579737E+01  0.10197786015E+01 0.  0.
     999903    2    3    3    0    0  0.11891337773E+00  0.26693188008E-01 -0.44925300646E-01  0.13137180849E+00  0.19681253466E-01 0.  0.
         14    1    1    2    0    0 -0.96886285519E-02  0.19769637385E-01  0.92285185265E-02  0.23872026302E-01  0.00000000000E+00 0. -1.
     999901    1    3    3    0    0 -0.10922474918E+00 -0.46462825393E-01  0.35696782120E-01  0.88868616521E+00  0.88000000000E+00 0. -1.
        -11    1    4    4    0    0  0.66790496581E-01  0.54724249153E-02 -0.27700071865E-01  0.72515329209E-01  0.51100000000E-03 0. -1.
         11    1    4    4    0    0  0.52122881153E-01  0.21220763092E-01 -0.17225228781E-01  0.58856479282E-01  0.51100000000E-03 0.  1.
</event>
<event>
 8    1  0.1097777E+005  0.1043930E+01  0.7957747E-01            NaN
         13   -1    0    0    0    0  0.00000000000E+00  0.00000000000E+00  0.74505805969E-08  0.10566000000E+00  0.10566000000E+00 0. -1.
     999900   -1    0    0    0    0 -0.00000000000E+00 -0.00000000000E+00 -0.74505805969E-08  0.93827000000E+00  0.93827000000E+00 0.  1.
     999902    2    1    2    0    0 -0.62679836903E-02 -0.11924170054E-01 -0.19559320831E-01  0.10201804635E+01  0.10199039845E+01 0.  0.
     999903    2    3    3    0    0 -0.16366399879E-01 -0.10582729670E+00 -0.76679630737E-01  0.13328559659E+00  0.20445261451E-01 0.  0.
         14    1    1    2    0    0  0.62679836903E-02  0.11924170054E-01  0.19559320831E-01  0.23749536467E-01  0.00000000000E+00 0. -1.
     999901    1    3    3    0    0  0.10098416188E-01  0.93903126650E-01  0.57120309906E-01  0.88689486694E+00  0.88000000000E+00 0. -1.
        -11    1    4    4    0    0 -0.17414238508E-01 -0.48761060488E-01 -0.32856232525E-01  0.61324463793E-01  0.51100000000E-03 0.  1.
         11    1    4    4    0    0  0.10478386295E-02 -0.57066236216E-01 -0.43823398212E-01  0.71961132798E-01  0.51100000000E-03 0. -1.
</event>
<event>
 7    1  0.1097777E+005  0.1043930E+01  0.7957747E-01            NaN
         13   -1    0    0    0    0  0.00000000000E+00  0.00000000000E+00  0.74505805969E-08  0.10566000000E+00  0.10566000000E+00 0. -1.
     999900   -1    0    0    0    0 -0.00000000000E+00 -0.00000000000E+00 -0.74505805969E-08  0.93827000000E+00  0.93827000000E+00 0.  1.
     999902    2    1    2    0    0  0.46375743924E-02  0.23550944089E-02 -0.23483222611E-01  0.10198776548E+01  0.10195939954E+01 0.  0.
         14    1    1    2    0    0 -0.46375743924E-02 -0.23550944089E-02  0.23483222611E-01  0.24052345210E-01  0.00000000000E+00 0. -1.
     999901    1    3    3    0    0 -0.74594185388E-01 -0.77059026014E-01 -0.78027085515E-01  0.88993854398E+00  0.88000000000E+00 0. -1.
        -11    1    3    3    0    0  0.49589209033E-01  0.28173629476E-01  0.37774794099E-01  0.68410812308E-01  0.51100000000E-03 0.  1.
         11    1    3    3    0    0  0.29642550747E-01  0.51240490946E-01  0.16769068805E-01  0.61528298504E-01  0.51100000000E-03 0. -1.
</event>
<event>
 8    1  0.1097777E+005  0.1043930E+01  0.7957747E-01            NaN
         13   -1    0    0    0    0  0.00000000000E+00  0.00000000000E+00  0.74505805969E-08  0.10566000000E+00  0.10566000000E+00 0.  1.
     999900   -1    0    0    0    0 -0.00000000000E+00 -0.00000000000E+00 -0.74505805969E-08  0.93827000000E+00  0.93827000000E+00 0. -1.
     999902    2    1    2    0    0  0.71986671351E-02 -0.36751829776E-02 -0.22043435651E-01  0.10204514814E+01  0.10201813491E+01 0.  0.
     999903    2    3    3    0    0  0.11216105332E+00  0.65779930878E-01  0.55505417087E-02  0.13106824406E+00  0.15523366227E-01 0.  0.
         14    1    1    2    0    0 -0.71986671351E-02  0.36751829776E-02  0.22043435651E-01  0.23478518560E-01  0.00000000000E+00 0. -1.
     999901    1    3    3    0    0 -0.10496238618E+00 -0.69455113855E-01 -0.27593977360E-01  0.88938323738E+00  0.88000000000E+00 0. -1.
        -11    1    4    4    0    0  0.75373844910E-01  0.37382460995E-01 -0.94044541588E-03  0.84141609475E-01  0.51100000000E-03 0.  1.
         11    1    4    4    0    0  0.36787208408E-01  0.28397469883E-01  0.64909871246E-02  0.46926634580E-01  0.51100000000E-03 0. -1.
</event>
<event>
 8    1  0.1097777E+005  0.1043930E+01  0.7957747E-01            NaN
         13   -1    0    0    0    0  0.00000000000E+00  0.00000000000E+00  0.74505805969E-08  0.10566000000E+00  0.10566000000E+00 0.  1.
     999900   -1    0    0    0    0 -0.00000000000E+00 -0.00000000000E+00 -0.74505805969E-08  0.93827000000E+00  0.93827000000E+00 0.  1.
     999902    2    1    2    0    0  0.11872172889E-01 -0.49145895255E-02 -0.19584706642E-01  0.10205064560E+01  0.10202376019E+01 0.  0.
     999903    2    3    3    0    0  0.10388783237E+00  0.39192574655E-01 -0.70731645835E-01  0.13313486928E+00  0.19828970584E-01 0.  0.
         14    1    1    2    0    0 -0.11872172889E-01  0.49145895255E-02  0.19584706642E-01  0.23423544001E-01  0.00000000000E+00 0.  1.
     999901    1    3    3    0    0 -0.92015659478E-01 -0.44107164180E-01  0.51146939193E-01  0.88737158672E+00  0.88000000000E+00 0. -1.
        -11    1    4    4    0    0  0.66720633464E-01  0.31203896555E-01 -0.37577758537E-01  0.82690236109E-01  0.51100000000E-03 0. -1.
         11    1    4    4    0    0  0.37167198904E-01  0.79886780994E-02 -0.33153887298E-01  0.50444633175E-01  0.51100000000E-03 0.  1.
</event>
<event>
 8    1  0.1097777E+005  0.1043930E+01  0.7957747E-01            NaN
         13   -1    0    0    0    0  0.00000000000E+00  0.00000000000E+00  0.74505805969E-08  0.10566000000E+00  0.10566000000E+00 0. -1.
     999900   -1    0    0    0    0 -0.00000000000E+00 -0.00000000000E+00 -0.74505805969E-08  0.93827000000E+00  0.93827000000E+00 0. -1.
     999902    2    1    2    0    0 -0.23467995868E-02 -0.88472476575E-02  0.21342791667E-01  0.10207072522E+01  0.10204430404E+01 0.  0.
     999903    2    3    3    0    0 -0.29211755028E-01 -0.60557488195E-01  0.11454965883E+00  0.13386837456E+00  0.16690756729E-01 0.  0.
         14    1    1    2    0    0  0.23467995868E-02  0.88472476575E-02 -0.21342791667E-01  0.23222747804E-01  0.00000000000E+00 0.  1.
     999901    1    3    3    0    0  0.26864955441E-01  0.51710240537E-01 -0.93206867163E-01  0.88683887764E+00  0.88000000000E+00 0. -1.
        -11    1    4    4    0    0 -0.11608907398E-01 -0.39788317638E-01  0.77498858678E-01  0.87887491538E-01  0.51100000000E-03 0.  1.
         11    1    4    4    0    0 -0.17602847630E-01 -0.20769170557E-01  0.37050800151E-01  0.45980883018E-01  0.51100000000E-03 0. -1.
</event>
<event>
 8    1  0.1097777E+005  0.1043930E+01  0.7957747E-01            NaN
         13   -1    0    0    0    0  0.00000000000E+00  0.00000000000E+00  0.74505805969E-08  0.10566000000E+00  0.10566000000E+00 0.  1.
     999900   -1    0    0    0    0 -0.00000000000E+00 -0.00000000000E+00 -0.74505805969E-08  0.93827000000E+00  0.93827000000E+00 0.  1.
     999902    2    1    2    0    0  0.22552997840E-01  0.70624486381E-02 -0.78021795809E-02  0.10190424550E+01  0.10187385018E+01 0.  0.
     999903    2    3    3    0    0  0.52670056929E-01 -0.11667558292E+00 -0.29949157035E-02  0.12986235650E+00  0.21631818435E-01 0.  0.
         14    1    1    2    0    0 -0.22552997840E-01 -0.70624486381E-02  0.78021795809E-02  0.24887545049E-01  0.00000000000E+00 0.  1.
     999901    1    3    3    0    0 -0.30117059088E-01  0.12373803156E+00 -0.48072638773E-02  0.88918009845E+00  0.88000000000E+00 0. -1.
        -11    1    4    4    0    0  0.37022299402E-01 -0.60955071782E-01  0.47046764957E-02  0.71474236833E-01  0.51100000000E-03 0. -1.
         11    1    4    4    0    0  0.15647757527E-01 -0.55720511135E-01 -0.76995921992E-02  0.58388119663E-01  0.51100000000E-03 0.  1.
</event>
<event>
 8    1  0.1097777E+005  0.1043930E+01  0.7957747E-01            NaN
         13   -1    0    0    0    0  0.00000000000E+00  0.00000000000E+00  0.74505805969E-08  0.10566000000E+00  0.10566000000E+00 0.  1.
     999900   -1    0    0    0    0 -0.00000000000E+00 -0.00000000000E+00 -0.74505805969E-08  0.93827000000E+00  0.93827000000E+00 0. -1.
     999902    2    1    2    0    0 -0.20141025262E-01 -0.78958115159E-02  0.84785362093E-02  0.10206944601E+01  0.10204299538E+01 0.  0.
     999903    2    3    3    0    0 -0.59671486400E-01  0.27213744269E-01  0.11377527305E+00  0.13284157755E+00  0.20019935092E-01 0.  0.
         14    1    1    2    0    0  0.20141025262E-01  0.78958115159E-02 -0.84785362093E-02  0.23235539898E-01  0.00000000000E+00 0. -1.
     999901    1    3    3    0    0  0.39530461139E-01 -0.35109555785E-01 -0.10529673685E+00  0.88785288255E+00  0.88000000000E+00 0. -1.
        -11    1    4    4    0    0 -0.15997834286E-01  0.46471894506E-02  0.47384353232E-01  0.50230121679E-01  0.51100000000E-03 0.  1.
         11    1    4    4    0    0 -0.43673652114E-01  0.22566554818E-01  0.66390919823E-01  0.82611455872E-01  0.51100000000E-03 0. -1.
</event>
<event>
 8    1  0.1097777E+005  0.1043930E+01  0.7957747E-01            NaN
         13   -1    0    0    0    0  0.00000000000E+00  0.00000000000E+00  0.74505805969E-08  0.10566000000E+00  0.10566000000E+00 0.  1.
     999900   -1    0    0    0    0 -0.00000000000E+00 -0.00000000000E+00 -0.74505805969E-08  0.93827000000E+00  0.93827000000E+00 0.  1.
     999902    2    1    2    0    0 -0.90167310267E-02  0.21740655348E-01  0.29038775640E-02  0.10202152359E+01  0.10199395754E+01 0.  0.
     999903    2    3    3    0    0  0.11686481127E-01  0.12090042958E+00  0.50771799515E-01  0.13311173470E+00  0.19684272285E-01 0.  0.
         14    1    1    2    0    0  0.90167310267E-02 -0.21740655348E-01 -0.29038775640E-02  0.23714764141E-01  0.00000000000E+00 0.  1.
     999901    1    3    3    0    0 -0.20703212153E-01 -0.99159774230E-01 -0.47867921951E-01  0.88710350116E+00  0.88000000000E+00 0.  1.
        -11    1    4    4    0    0  0.66924455236E-02  0.30566319810E-01  0.21700502972E-01  0.38082301455E-01  0.51100000000E-03 0.  1.
         11    1    4    4    0    0  0.49940356030E-02  0.90334109767E-01  0.29071296543E-01  0.95029433244E-01  0.51100000000E-03 0. -1.
</event>
<event>
 8    1  0.1097777E+005  0.1043930E+01  0.7957747E-01            NaN
         13   -1    0    0    0    0  0.00000000000E+00  0.00000000000E+00  0.74505805969E-08  0.10566000000E+00  0.10566000000E+00 0. -1.
     999900   -1    0    0    0    0 -0.00000000000E+00 -0.00000000000E+00 -0.74505805969E-08  0.93827000000E+00  0.93827000000E+00 0. -1.
     999902    2    1    2    0    0  0.45885588400E-02 -0.12219784397E-01 -0.19667295146E-01  0.10203253288E+01  0.10200522517E+01 0.  0.
     999903    2    3    3    0    0  0.55749189549E-01 -0.67570156410E-01 -0.98977215965E-01  0.13354963151E+00  0.19113257762E-01 0.  0.
         14    1    1    2    0    0 -0.45885588400E-02  0.12219784397E-01  0.19667295146E-01  0.23604671175E-01  0.00000000000E+00 0.  1.
     999901    1    3    3    0    0 -0.51160630709E-01  0.55350372014E-01  0.79309920819E-01  0.88677569732E+00  0.88000000000E+00 0.  1.
        -11    1    4    4    0    0  0.86253283705E-02 -0.12098914502E-01 -0.28956308319E-01  0.32550098834E-01  0.51100000000E-03 0.  1.
         11    1    4    4    0    0  0.47123861179E-01 -0.55471241909E-01 -0.70020907646E-01  0.10099953267E+00  0.51100000000E-03 0. -1.
</event>
<event>
 8    1  0.1097777E+005  0.1043930E+01  0.7957747E-01            NaN
         13   -1    0    0    0    0  0.00000000000E+00  0.00000000000E+00  0.74505805969E-08  0.10566000000E+00  0.10566000000E+00 0. -1.
     999900   -1    0    0    0    0 -0.00000000000E+00 -0.00000000000E+00 -0.74505805969E-08  0.93827000000E+00  0.93827000000E+00 0.  1.
     999902    2    1    2    0    0  0.11620957526E-01 -0.12849582822E-01  0.15760471496E-01  0.10205088366E+01  0.10202400378E+01 0.  0.
     999903    2    3    3    0    0  0.12109155010E+00  0.18394447462E-01 -0.42930864788E-01  0.13123684615E+00  0.19455884287E-01 0.  0.
         14    1    1    2    0    0 -0.11620957526E-01  0.12849582822E-01 -0.15760471496E-01  0.23421163384E-01  0.00000000000E+00 0. -1.
     999901    1    3    3    0    0 -0.10947059258E+00 -0.31244030284E-01  0.58691336284E-01  0.88927199046E+00  0.88000000000E+00 0. -1.
        -11    1    4    4    0    0  0.94320017542E-01  0.16537393998E-01 -0.41476746988E-01  0.10435675719E+00  0.51100000000E-03 0.  1.
         11    1    4    4    0    0  0.26771532559E-01  0.18570534644E-02 -0.14541178007E-02  0.26880088963E-01  0.51100000000E-03 0. -1.
</event>
<event>
 8    1  0.1097777E+005  0.1043930E+01  0.7957747E-01            NaN
         13   -1    0    0    0    0  0.00000000000E+00  0.00000000000E+00  0.74505805969E-08  0.10566000000E+00  0.10566000000E+00 0.  1.
     999900   -1    0    0    0    0 -0.00000000000E+00 -0.00000000000E+00 -0.74505805969E-08  0.93827000000E+00  0.93827000000E+00 0. -1.
     999902    2    1    2    0    0  0.16295702958E-01  0.42855282584E-02  0.12434551552E-01  0.10229888023E+01  0.10227744404E+01 0.  0.
     999903    2    3    3    0    0 -0.12867034904E+00  0.66410404647E-02  0.14580406018E-01  0.13112260757E+00  0.19503533956E-01 0.  0.
         14    1    1    2    0    0 -0.16295702958E-01 -0.42855282584E-02 -0.12434551552E-01  0.20941197666E-01  0.00000000000E+00 0. -1.
     999901    1    3    3    0    0  0.14496605200E+00 -0.23555122062E-02 -0.21458544662E-02  0.89186619476E+00  0.88000000000E+00 0. -1.
        -11    1    4    4    0    0 -0.10631783391E+00  0.75305060049E-02  0.19130497357E-01  0.10828862996E+00  0.51100000000E-03 0.  1.
         11    1    4    4    0    0 -0.22352515130E-01 -0.88946554026E-03 -0.45500913383E-02  0.22833977616E-01  0.51100000000E-03 0. -1.
</event>
<event>
 8    1  0.1097777E+005  0.1043930E+01  0.7957747E-01            NaN
         13   -1    0    0    0    0  0.00000000000E+00  0.00000000000E+00  0.74505805969E-08  0.10566000000E+00  0.10566000000E+00 0.  1.
     999900   -1    0    0    0    0 -0.00000000000E+00 -0.00000000000E+00 -0.74505805969E-08  0.93827000000E+00  0.93827000000E+00 0. -1.
     999902    2    1    2    0    0  0.19722114297E-01 -0.60411894335E-02  0.13153282293E-01  0.10194664230E+01  0.10191728613E+01 0.  0.
     999903    2    3    3    0    0 -0.18829051978E-01 -0.11212026159E+00 -0.57906786977E-01  0.12941670791E+00  0.21679530721E-01 0.  0.
         14    1    1    2    0    0 -0.19722114297E-01  0.60411894335E-02 -0.13153282293E-01  0.24463576950E-01  0.00000000000E+00 0. -1.
     999901    1    3    3    0    0  0.38551166275E-01  0.10607907215E+00  0.71060069270E-01  0.89004971514E+00  0.88000000000E+00 0.  1.
        -11    1    4    4    0    0 -0.18103514086E-01 -0.11061679622E+00 -0.52576438290E-01  0.12380773729E+00  0.51100000000E-03 0. -1.
         11    1    4    4    0    0 -0.72553789148E-03 -0.15034653674E-02 -0.53303486869E-02  0.56089706245E-02  0.51100000000E-03 0.  1.
</event>
<event>
 8    1  0.1097777E+005  0.1043930E+01  0.7957747E-01            NaN
         13   -1    0    0    0    0  0.00000000000E+00  0.00000000000E+00  0.74505805969E-08  0.10566000000E+00  0.10566000000E+00 0.  1.
     999900   -1    0    0    0    0 -0.00000000000E+00 -0.00000000000E+00 -0.74505805969E-08  0.93827000000E+00  0.93827000000E+00 0. -1.
     999902    2    1    2    0    0  0.16044941269E-01 -0.39524113790E-02 -0.16554695150E-01  0.10205394116E+01  0.10202713222E+01 0.  0.
     999903    2    3    3    0    0 -0.42065205413E-01 -0.99706408705E-01  0.68338782893E-01  0.12938705659E+00  0.18972920776E-01 0.  0.
         14    1    1    2    0    0 -0.16044941269E-01  0.39524113790E-02  0.16554695150E-01  0.23390588440E-01  0.00000000000E+00 0.  1.
     999901    1    3    3    0    0  0.58110146683E-01  0.95753997326E-01 -0.84893478043E-01  0.89115235497E+00  0.88000000000E+00 0. -1.
        -11    1    4    4    0    0 -0.19176035570E-01 -0.60300289344E-01  0.30965821317E-01  0.70448480793E-01  0.51100000000E-03 0. -1.
         11    1    4    4    0    0 -0.22889169844E-01 -0.39406119361E-01  0.37372961576E-01  0.58938575799E-01  0.51100000000E-03 0.  1.
</event>
<event>
 7    1  0.1245170E+005  0.1043930E+01  0.7957747E-01            NaN
         13   -1    0    0    0    0  0.00000000000E+00  0.00000000000E+00  0.74505805969E-08  0.10566000000E+00  0.10566000000E+00 0.  1.
     999900   -1    0    0    0    0 -0.00000000000E+00 -0.00000000000E+00 -0.74505805969E-08  0.93827000000E+00  0.93827000000E+00 0.  1.
     999903    2    1    2    0    0 -0.12986155668E-01 -0.26598231300E-01  0.88253218121E-01  0.95199559808E-01  0.19955438647E-01 0.  0.
         14    1    1    2    0    0 -0.25234204582E-01  0.57835510915E-01 -0.98781332477E-02  0.63869311255E-01  0.00000000000E+00 0.  1.
     999901    1    1    2    0    0  0.38220360250E-01 -0.31237279616E-01 -0.78375084873E-01  0.88486112894E+00  0.88000000000E+00 0. -1.
        -11    1    3    3    0    0 -0.19869926950E-02 -0.92209938598E-02  0.57038659991E-01  0.57815609676E-01  0.51100000000E-03 0.  1.
         11    1    3    3    0    0 -0.10999162973E-01 -0.17377237440E-01  0.31214558130E-01  0.37383950131E-01  0.51100000000E-03 0. -1.
</event>
<event>
 8    1  0.1097777E+005  0.1043930E+01  0.7957747E-01            NaN
         13   -1    0    0    0    0  0.00000000000E+00  0.00000000000E+00  0.74505805969E-08  0.10566000000E+00  0.10566000000E+00 0. -1.
     999900   -1    0    0    0    0 -0.00000000000E+00 -0.00000000000E+00 -0.74505805969E-08  0.93827000000E+00  0.93827000000E+00 0. -1.
     999902    2    1    2    0    0 -0.92243078199E-02  0.21207650266E-01  0.10257112619E-02  0.10207803916E+01  0.10205178605E+01 0.  0.
     999903    2    3    3    0    0  0.56667525486E-01 -0.10987050856E+00  0.27786203068E-01  0.12823384306E+00  0.19725829002E-01 0.  0.
         14    1    1    2    0    0  0.92243078199E-02 -0.21207650266E-01 -0.10257112619E-02  0.23149608380E-01  0.00000000000E+00 0. -1.
     999901    1    3    3    0    0 -0.65891833306E-01  0.13107815883E+00 -0.26760491806E-01  0.89254654856E+00  0.88000000000E+00 0. -1.
        -11    1    4    4    0    0  0.15976039388E-01 -0.33124874339E-01  0.17591462686E-01  0.40770231971E-01  0.51100000000E-03 0. -1.
         11    1    4    4    0    0  0.40691486098E-01 -0.76745634222E-01  0.10194740382E-01  0.87463611093E-01  0.51100000000E-03 0.  1.
</event>
<event>
 8    1  0.1097777E+005  0.1043930E+01  0.7957747E-01            NaN
         13   -1    0    0    0    0  0.00000000000E+00  0.00000000000E+00  0.74505805969E-08  0.10566000000E+00  0.10566000000E+00 0. -1.
     999900   -1    0    0    0    0 -0.00000000000E+00 -0.00000000000E+00 -0.74505805969E-08  0.93827000000E+00  0.93827000000E+00 0.  1.
     999902    2    1    2    0    0  0.96612531204E-02 -0.78080839765E-02 -0.19789380160E-01  0.10205649502E+01  0.10202974527E+01 0.  0.
     999903    2    3    3    0    0  0.69441292653E-01 -0.11105903239E+00 -0.42294371849E-02  0.13237773830E+00  0.18702290145E-01 0.  0.
         14    1    1    2    0    0 -0.96612531204E-02  0.78080839765E-02  0.19789380160E-01  0.23365049847E-01  0.00000000000E+00 0. -1.
     999901    1    3    3    0    0 -0.59780039532E-01  0.10325094842E+00 -0.15559942975E-01  0.88818721185E+00  0.88000000000E+00 0. -1.
        -11    1    4    4    0    0  0.51843002289E-01 -0.71787970627E-01  0.36417617071E-02  0.88626932489E-01  0.51100000000E-03 0.  1.
         11    1    4    4    0    0  0.17598290364E-01 -0.39271061767E-01 -0.78711988920E-02  0.43750805810E-01  0.51100000000E-03 0. -1.
</event>
<event>
 8    1  0.1097777E+005  0.1043930E+01  0.7957747E-01            NaN
         13   -1    0    0    0    0  0.00000000000E+00  0.00000000000E+00  0.74505805969E-08  0.10566000000E+00  0.10566000000E+00 0. -1.
     999900   -1    0    0    0    0 -0.00000000000E+00 -0.00000000000E+00 -0.74505805969E-08  0.93827000000E+00  0.93827000000E+00 0. -1.
     999902    2    1    2    0    0 -0.11294184113E-01 -0.16433438988E-01 -0.12796561061E-01  0.10202367840E+01  0.10199616301E+01 0.  0.
     999903    2    3    3    0    0  0.72838887861E-01 -0.40265899685E-01  0.96641184839E-01  0.12915711287E+00  0.20376332743E-01 0.  0.
         14    1    1    2    0    0  0.11294184113E-01  0.16433438988E-01  0.12796561061E-01  0.23693216049E-01  0.00000000000E+00 0. -1.
     999901    1    3    3    0    0 -0.84133071974E-01  0.23832460697E-01 -0.10943774590E+00  0.89107967108E+00  0.88000000000E+00 0. -1.
        -11    1    4    4    0    0  0.68953304310E-01 -0.42585384731E-01  0.90105639143E-01  0.12119142088E+00  0.51100000000E-03 0. -1.
         11    1    4    4    0    0  0.38855835509E-02  0.23194850454E-02  0.65355456960E-02  0.79656919945E-02  0.51100000000E-03 0.  1.
</event>
<event>
 8    1  0.1097777E+005  0.1043930E+01  0.7957747E-01            NaN
         13   -1    0    0    0    0  0.00000000000E+00  0.00000000000E+00  0.74505805969E-08  0.10566000000E+00  0.10566000000E+00 0.  1.
     999900   -1    0    0    0    0 -0.00000000000E+00 -0.00000000000E+00 -0.74505805969E-08  0.93827000000E+00  0.93827000000E+00 0. -1.
     999902    2    1    2    0    0  0.74580581255E-02  0.21515283373E-01 -0.27796069771E-02  0.10209897240E+01  0.10207319727E+01 0.  0.
     999903    2    3    3    0    0 -0.87025720371E-01  0.94954573075E-01 -0.25241441612E-01  0.13260633393E+00  0.18906677929E-01 0.  0.
         14    1    1    2    0    0 -0.74580581255E-02 -0.21515283373E-01  0.27796069771E-02  0.22940276035E-01  0.00000000000E+00 0. -1.
     999901    1    3    3    0    0  0.94483778496E-01 -0.73439289702E-01  0.22461834635E-01  0.88838339003E+00  0.88000000000E+00 0.  1.
        -11    1    4    4    0    0  0.76064717769E-03  0.20594610622E-02 -0.11932668357E-02  0.25504844122E-02  0.51100000000E-03 0. -1.
         11    1    4    4    0    0 -0.87786367549E-01  0.92895112013E-01 -0.24048174776E-01  0.13005584952E+00  0.51100000000E-03 0.  1.
</event>
<event>
 8    1  0.1097777E+005  0.1043930E+01  0.7957747E-01            NaN
         13   -1    0    0    0    0  0.00000000000E+00  0.00000000000E+00  0.74505805969E-08  0.10566000000E+00  0.10566000000E+00 0.  1.
     999900   -1    0    0    0    0 -0.00000000000E+00 -0.00000000000E+00 -0.74505805969E-08  0.93827000000E+00  0.93827000000E+00 0.  1.
     999902    2    1    2    0    0  0.13190988242E-01 -0.12547379017E-02 -0.19152653595E-01  0.10206405028E+01  0.10203747524E+01 0.  0.
     999903    2    3    3    0    0  0.74505052459E-01  0.14630443337E-01 -0.10719855628E+00  0.13398169900E+00  0.26353604783E-01 0.  0.
         14    1    1    2    0    0 -0.13190988242E-01  0.12547379017E-02  0.19152653595E-01  0.23289497155E-01  0.00000000000E+00 0.  1.
     999901    1    3    3    0    0 -0.61314064217E-01 -0.15885181238E-01  0.88045902683E-01  0.88665880384E+00  0.88000000000E+00 0. -1.
        -11    1    4    4    0    0  0.98282358223E-02  0.27719434541E-02 -0.28014757890E-02  0.10601286596E-01  0.51100000000E-03 0. -1.
         11    1    4    4    0    0  0.64676816637E-01  0.11858499883E-01 -0.10439708049E+00  0.12338041241E+00  0.51100000000E-03 0.  1.
</event>
<event>
 8    1  0.1097777E+005  0.1043930E+01  0.7957747E-01            NaN
         13   -1    0    0    0    0  0.00000000000E+00  0.00000000000E+00  0.74505805969E-08  0.10566000000E+00  0.10566000000E+00 0. -1.
     999900   -1    0    0    0    0 -0.00000000000E+00 -0.00000000000E+00 -0.74505805969E-08  0.93827000000E+00  0.93827000000E+00 0. -1.
     999902    2    1    2    0    0  0.18260284972E-01 -0.14191599121E-01 -0.61052339330E-02  0.10200111084E+01  0.10197306252E+01 0.  0.
     999903    2    3    3    0    0  0.85752440736E-01  0.64407256335E-01  0.71475469829E-01  0.13054400011E+00  0.20765775150E-01 0.  0.
         14    1    1    2    0    0 -0.18260284972E-01  0.14191599121E-01  0.61052339330E-02  0.23918891577E-01  0.00000000000E+00 0. -1.
     999901    1    3    3    0    0 -0.67492155763E-01 -0.78598855457E-01 -0.77580703762E-01  0.88946710831E+00  0.88000000000E+00 0. -1.
        -11    1    4    4    0    0  0.47458221644E-01  0.23024728194E-01  0.31724544614E-01  0.61555899490E-01  0.51100000000E-03 0.  1.
         11    1    4    4    0    0  0.38294219091E-01  0.41382528141E-01  0.39750925215E-01  0.68988100624E-01  0.51100000000E-03 0. -1.
</event>
<event>
 8    1  0.1097777E+005  0.1043930E+01  0.7957747E-01            NaN
         13   -1    0    0    0    0  0.00000000000E+00  0.00000000000E+00  0.74505805969E-08  0.10566000000E+00  0.10566000000E+00 0. -1.
     999900   -1    0    0    0    0 -0.00000000000E+00 -0.00000000000E+00 -0.74505805969E-08  0.93827000000E+00  0.93827000000E+00 0.  1.
     999902    2    1    2    0    0 -0.38846033581E-02 -0.20986281367E-01 -0.95838365690E-02  0.10205341869E+01  0.10202659763E+01 0.  0.
     999903    2    3    3    0    0  0.99889013237E-01 -0.82888597760E-01  0.13020762523E-01  0.13198940568E+00  0.20083036383E-01 0.  0.
         14    1    1    2    0    0  0.38846033581E-02  0.20986281367E-01  0.95838365690E-02  0.23395813135E-01  0.00000000000E+00 0. -1.
     999901    1    3    3    0    0 -0.10377361659E+00  0.61902316393E-01 -0.22604599092E-01  0.88854478119E+00  0.88000000000E+00 0. -1.
        -11    1    4    4    0    0  0.67439142005E-01 -0.43622128067E-01  0.56646701028E-02  0.80518802400E-01  0.51100000000E-03 0.  1.
         11    1    4    4    0    0  0.32449871232E-01 -0.39266469693E-01  0.73560924207E-02  0.51470603278E-01  0.51100000000E-03 0. -1.
</event>
<event>
 8    1  0.1097777E+005  0.1043930E+01  0.7957747E-01            NaN
         13   -1    0    0    0    0  0.00000000000E+00  0.00000000000E+00  0.74505805969E-08  0.10566000000E+00  0.10566000000E+00 0. -1.
     999900   -1    0    0    0    0 -0.00000000000E+00 -0.00000000000E+00 -0.74505805969E-08  0.93827000000E+00  0.93827000000E+00 0. -1.
     999902    2    1    2    0    0  0.48295773499E-02 -0.23213475467E-01 -0.13769505148E-02  0.10201794999E+01  0.10199029982E+01 0.  0.
     999903    2    3    3    0    0  0.74603964692E-01 -0.40038086418E-01  0.98459427740E-01  0.13163077584E+00  0.21531426477E-01 0.  0.
         14    1    1    2    0    0 -0.48295773499E-02  0.23213475467E-01  0.13769505148E-02  0.23750500066E-01  0.00000000000E+00 0.  1.
     999901    1    3    3    0    0 -0.69774387342E-01  0.16824610950E-01 -0.99836378255E-01  0.88854872409E+00  0.88000000000E+00 0. -1.
        -11    1    4    4    0    0  0.35918466244E-01 -0.18830020307E-01  0.63462134980E-01  0.75315400678E-01  0.51100000000E-03 0.  1.
         11    1    4    4    0    0  0.38685498448E-01 -0.21208066111E-01  0.34997292760E-01  0.56315375164E-01  0.51100000000E-03 0. -1.
</event>
<event>
 8    1  0.1097777E+005  0.1043930E+01  0.7957747E-01            NaN
         13   -1    0    0    0    0  0.00000000000E+00  0.00000000000E+00  0.74505805969E-08  0.10566000000E+00  0.10566000000E+00 0. -1.
     999900   -1    0    0    0    0 -0.00000000000E+00 -0.00000000000E+00 -0.74505805969E-08  0.93827000000E+00  0.93827000000E+00 0.  1.
     999902    2    1    2    0    0 -0.51267743215E-02  0.30754248600E-02 -0.22716569577E-01  0.10204399045E+01  0.10201695026E+01 0.  0.
     999903    2    3    3    0    0  0.10333041996E+00  0.33986467297E-03 -0.79719188593E-01  0.13194694176E+00  0.19430780012E-01 0.  0.
         14    1    1    2    0    0  0.51267743215E-02 -0.30754248600E-02  0.22716569577E-01  0.23490095495E-01  0.00000000000E+00 0. -1.
     999901    1    3    3    0    0 -0.10845719428E+00  0.27355601871E-02  0.57002619016E-01  0.88849296275E+00  0.88000000000E+00 0. -1.
        -11    1    4    4    0    0  0.41548153999E-01 -0.88250509682E-02 -0.28271322226E-01  0.51026065954E-01  0.51100000000E-03 0.  1.
         11    1    4    4    0    0  0.61782265960E-01  0.91649156411E-02 -0.51447866366E-01  0.80920875802E-01  0.51100000000E-03 0. -1.
</event>
<event>
 8    1  0.1097777E+005  0.1043930E+01  0.7957747E-01            NaN
         13   -1    0    0    0    0  0.00000000000E+00  0.00000000000E+00  0.74505805969E-08  0.10566000000E+00  0.10566000000E+00 0. -1.
     999900   -1    0    0    0    0 -0.00000000000E+00 -0.00000000000E+00 -0.74505805969E-08  0.93827000000E+00  0.93827000000E+00 0. -1.
     999902    2    1    2    0    0  0.65552662230E-02  0.64716336209E-02 -0.21545874324E-01  0.10204975811E+01  0.10202285208E+01 0.  0.
     999903    2    3    3    0    0 -0.98721965603E-01 -0.20966002992E-01  0.76593851591E-01  0.12838350470E+00  0.20739006790E-01 0.  0.
         14    1    1    2    0    0 -0.65552662230E-02 -0.64716336209E-02  0.21545874324E-01  0.23432418940E-01  0.00000000000E+00 0. -1.
     999901    1    3    3    0    0  0.10527723183E+00  0.27437636613E-01 -0.98139725915E-01  0.89211407636E+00  0.88000000000E+00 0. -1.
        -11    1    4    4    0    0 -0.54324604615E-01 -0.84497743672E-02  0.53819102029E-01  0.76937105597E-01  0.51100000000E-03 0. -1.
         11    1    4    4    0    0 -0.44397360989E-01 -0.12516228625E-01  0.22774749562E-01  0.51446399100E-01  0.51100000000E-03 0.  1.
</event>
<event>
 8    1  0.1097777E+005  0.1043930E+01  0.7957747E-01            NaN
         13   -1    0    0    0    0  0.00000000000E+00  0.00000000000E+00  0.74505805969E-08  0.10566000000E+00  0.10566000000E+00 0. -1.
     999900   -1    0    0    0    0 -0.00000000000E+00 -0.00000000000E+00 -0.74505805969E-08  0.93827000000E+00  0.93827000000E+00 0. -1.
     999902    2    1    2    0    0  0.12148904487E-01 -0.35026159052E-02 -0.18287449091E-01  0.10216972540E+01  0.10214553264E+01 0.  0.
     999903    2    3    3    0    0  0.12126319955E+00  0.31320166100E-01  0.38059245136E-01  0.13248777058E+00  0.20464282125E-01 0.  0.
         14    1    1    2    0    0 -0.12148904487E-01  0.35026159052E-02  0.18287449091E-01  0.22232745955E-01  0.00000000000E+00 0. -1.
     999901    1    3    3    0    0 -0.10911429506E+00 -0.34822782005E-01 -0.56346694227E-01  0.88920948347E+00  0.88000000000E+00 0.  1.
        -11    1    4    4    0    0  0.73760320208E-01  0.87126023096E-02  0.21180070885E-01  0.77235683463E-01  0.51100000000E-03 0. -1.
         11    1    4    4    0    0  0.47502879344E-01  0.22607563790E-01  0.16879174251E-01  0.55252087118E-01  0.51100000000E-03 0.  1.
</event>
<event>
 8    1  0.1097777E+005  0.1043930E+01  0.7957747E-01            NaN
         13   -1    0    0    0    0  0.00000000000E+00  0.00000000000E+00  0.74505805969E-08  0.10566000000E+00  0.10566000000E+00 0.  1.
     999900   -1    0    0    0    0 -0.00000000000E+00 -0.00000000000E+00 -0.74505805969E-08  0.93827000000E+00  0.93827000000E+00 0. -1.
     999902    2    1    2    0    0 -0.18517151034E-01 -0.11840550414E-01 -0.95417440051E-02  0.10199690235E+01  0.10196875406E+01 0.  0.
     999903    2    3    3    0    0 -0.64099949692E-01 -0.11287610601E+00  0.18284362374E-01  0.13257944319E+00  0.19828565029E-01 0.  0.
         14    1    1    2    0    0  0.18517151034E-01  0.11840550414E-01  0.95417440051E-02  0.23960976508E-01  0.00000000000E+00 0.  1.
     999901    1    3    3    0    0  0.45582798658E-01  0.10103555560E+00 -0.27826106379E-01  0.88738958030E+00  0.88000000000E+00 0. -1.
        -11    1    4    4    0    0 -0.20860595667E-01 -0.46767640962E-01 -0.11660467558E-02  0.51224969290E-01  0.51100000000E-03 0. -1.
         11    1    4    4    0    0 -0.43239354025E-01 -0.66108465049E-01  0.19450409130E-01  0.81354473902E-01  0.51100000000E-03 0.  1.
</event>
<event>
 7    1  0.1097777E+005  0.1043930E+01  0.7957747E-01            NaN
         13   -1    0    0    0    0  0.00000000000E+00  0.00000000000E+00  0.74505805969E-08  0.10566000000E+00  0.10566000000E+00 0. -1.
     999900   -1    0    0    0    0 -0.00000000000E+00 -0.00000000000E+00 -0.74505805969E-08  0.93827000000E+00  0.93827000000E+00 0. -1.
     999903    2    1    2    0    0 -0.14581056991E-01  0.93224363356E-01 -0.57603390519E-01  0.11238273894E+00  0.20207430961E-01 0.  0.
         14    1    1    2    0    0  0.11601653554E-01  0.15145149242E-01 -0.35213733404E-01  0.40049730723E-01  0.00000000000E+00 0.  1.
     999901    1    1    2    0    0  0.29794034370E-02 -0.10836951260E+00  0.92817123923E-01  0.89149753034E+00  0.88000000000E+00 0.  1.
        -11    1    3    3    0    0 -0.11028171152E-01  0.26783549934E-01 -0.25098544446E-01  0.38329846861E-01  0.51100000000E-03 0.  1.
         11    1    3    3    0    0 -0.35528858382E-02  0.66440813422E-01 -0.32504846072E-01  0.74052892078E-01  0.51100000000E-03 0. -1.
</event>
<event>
 8    1  0.1097777E+005  0.1043930E+01  0.7957747E-01            NaN
         13   -1    0    0    0    0  0.00000000000E+00  0.00000000000E+00  0.74505805969E-08  0.10566000000E+00  0.10566000000E+00 0.  1.
     999900   -1    0    0    0    0 -0.00000000000E+00 -0.00000000000E+00 -0.74505805969E-08  0.93827000000E+00  0.93827000000E+00 0. -1.
     999902    2    1    2    0    0 -0.92585454926E-02 -0.15039397543E-01  0.14449366050E-01  0.10211114040E+01  0.10208564106E+01 0.  0.
     999903    2    3    3    0    0  0.31438598514E-01  0.43143928854E-01 -0.11550844150E+00  0.12873783385E+00  0.19530635738E-01 0.  0.
         14    1    1    2    0    0  0.92585454926E-02  0.15039397543E-01 -0.14449366050E-01  0.22818595977E-01  0.00000000000E+00 0. -1.
     999901    1    3    3    0    0 -0.40697144007E-01 -0.58183326398E-01  0.12995780755E+00  0.89237357017E+00  0.88000000000E+00 0.  1.
        -11    1    4    4    0    0  0.12779159240E-01  0.32478958493E-01 -0.79033241888E-01  0.86398519085E-01  0.51100000000E-03 0.  1.
         11    1    4    4    0    0  0.18659439274E-01  0.10664970361E-01 -0.36475199614E-01  0.42339314764E-01  0.51100000000E-03 0. -1.
</event>
<event>
 8    1  0.1097777E+005  0.1043930E+01  0.7957747E-01            NaN
         13   -1    0    0    0    0  0.00000000000E+00  0.00000000000E+00  0.74505805969E-08  0.10566000000E+00  0.10566000000E+00 0. -1.
     999900   -1    0    0    0    0 -0.00000000000E+00 -0.00000000000E+00 -0.74505805969E-08  0.93827000000E+00  0.93827000000E+00 0.  1.
     999902    2    1    2    0    0 -0.16921737587E-01  0.14694524540E-01  0.88072196281E-02  0.10198501044E+01  0.10195657870E+01 0.  0.
     999903    2    3    3    0    0 -0.77245475785E-01  0.88241393951E-01  0.59493474332E-01  0.13327399836E+00  0.21658208953E-01 0.  0.
         14    1    1    2    0    0  0.16921737587E-01 -0.14694524540E-01 -0.88072196281E-02  0.24079895598E-01  0.00000000000E+00 0. -1.
     999901    1    3    3    0    0  0.60323738198E-01 -0.73546869411E-01 -0.50686254704E-01  0.88657610604E+00  0.88000000000E+00 0.  1.
        -11    1    4    4    0    0 -0.47036284061E-01  0.60256416968E-01  0.48918191727E-01  0.90755156366E-01  0.51100000000E-03 0.  1.
         11    1    4    4    0    0 -0.30209191724E-01  0.27984976982E-01  0.10575282605E-01  0.42518841994E-01  0.51100000000E-03 0. -1.
</event>
<event>
 8    1  0.1097777E+005  0.1043930E+01  0.7957747E-01            NaN
         13   -1    0    0    0    0  0.00000000000E+00  0.00000000000E+00  0.74505805969E-08  0.10566000000E+00  0.10566000000E+00 0. -1.
     999900   -1    0    0    0    0 -0.00000000000E+00 -0.00000000000E+00 -0.74505805969E-08  0.93827000000E+00  0.93827000000E+00 0.  1.
     999902    2    1    2    0    0 -0.23277390873E-01  0.48845425127E-02 -0.43369510435E-02  0.10197534654E+01  0.10194668339E+01 0.  0.
     999903    2    3    3    0    0  0.37057819503E-02  0.34895530939E-01 -0.12449019135E+00  0.13067216866E+00  0.18600457550E-01 0.  0.
         14    1    1    2    0    0  0.23277390873E-01 -0.48845425127E-02  0.43369510435E-02  0.24176534611E-01  0.00000000000E+00 0. -1.
     999901    1    3    3    0    0 -0.26983172824E-01 -0.30010988426E-01  0.12015324030E+00  0.88908129673E+00  0.88000000000E+00 0. -1.
        -11    1    4    4    0    0 -0.73858782576E-02  0.10543481807E-01 -0.44147130792E-01  0.45988547318E-01  0.51100000000E-03 0.  1.
         11    1    4    4    0    0  0.11091660208E-01  0.24352049132E-01 -0.80343060554E-01  0.84683621340E-01  0.51100000000E-03 0. -1.
</event>
<event>
 8    1  0.1097777E+005  0.1043930E+01  0.7957747E-01            NaN
         13   -1    0    0    0    0  0.00000000000E+00  0.00000000000E+00  0.74505805969E-08  0.10566000000E+00  0.10566000000E+00 0.  1.
     999900   -1    0    0    0    0 -0.00000000000E+00 -0.00000000000E+00 -0.74505805969E-08  0.93827000000E+00  0.93827000000E+00 0. -1.
     999902    2    1    2    0    0  0.12282411823E-01 -0.76378113811E-02 -0.18919681219E-01  0.10201151277E+01  0.10198371074E+01 0.  0.
     999903    2    3    3    0    0 -0.80170735306E-01  0.97484673147E-01 -0.16050486604E-01  0.12904467406E+00  0.21547656112E-01 0.  0.
         14    1    1    2    0    0 -0.12282411823E-01  0.76378113811E-02  0.18919681219E-01  0.23814872251E-01  0.00000000000E+00 0.  1.
     999901    1    3    3    0    0  0.92453147129E-01 -0.10512248453E+00 -0.28691946149E-02  0.89107045369E+00  0.88000000000E+00 0. -1.
        -11    1    4    4    0    0 -0.35389556242E-01  0.57738833740E-01 -0.31719894605E-02  0.67797612427E-01  0.51100000000E-03 0. -1.
         11    1    4    4    0    0 -0.44781179064E-01  0.39745839407E-01 -0.12878497144E-01  0.61247061629E-01  0.51100000000E-03 0.  1.
</event>
<event>
 8    1  0.1097777E+005  0.1043930E+01  0.7957747E-01            NaN
         13   -1    0    0    0    0  0.00000000000E+00  0.00000000000E+00  0.74505805969E-08  0.10566000000E+00  0.10566000000E+00 0.  1.
     999900   -1    0    0    0    0 -0.00000000000E+00 -0.00000000000E+00 -0.74505805969E-08  0.93827000000E+00  0.93827000000E+00 0. -1.
     999902    2    1    2    0    0  0.61334799979E-02  0.16074805042E-01  0.15639476906E-01  0.10206789318E+01  0.10204140678E+01 0.  0.
     999903    2    3    3    0    0 -0.74228295136E-01 -0.34962458561E-01  0.10077672979E+00  0.13145951625E+00  0.19835368408E-01 0.  0.
         14    1    1    2    0    0 -0.61334799979E-02 -0.16074805042E-01 -0.15639476906E-01  0.23251068188E-01  0.00000000000E+00 0. -1.
     999901    1    3    3    0    0  0.80361775134E-01  0.51037263603E-01 -0.85137252880E-01  0.88921941556E+00  0.88000000000E+00 0. -1.
        -11    1    4    4    0    0 -0.21975127173E-01 -0.20132507816E-01  0.40987443437E-01  0.50679934153E-01  0.51100000000E-03 0.  1.
         11    1    4    4    0    0 -0.52253167962E-01 -0.14829950745E-01  0.59789286348E-01  0.80779582099E-01  0.51100000000E-03 0. -1.
</event>
<event>
 8    1  0.1097777E+005  0.1043930E+01  0.7957747E-01            NaN
         13   -1    0    0    0    0  0.00000000000E+00  0.00000000000E+00  0.74505805969E-08  0.10566000000E+00  0.10566000000E+00 0. -1.
     999900   -1    0    0    0    0 -0.00000000000E+00 -0.00000000000E+00 -0.74505805969E-08  0.93827000000E+00  0.93827000000E+00 0. -1.
     999902    2    1    2    0    0  0.17358624480E-01 -0.27561722583E-02 -0.16681952810E-01  0.10196976687E+01  0.10194096967E+01 0.  0.
     999903    2    3    3    0    0 -0.36575286176E-02  0.57958620125E-01 -0.11667312530E+00  0.13170769171E+00  0.19018904436E-01 0.  0.
         14    1    1    2    0    0 -0.17358624480E-01  0.27561722583E-02  0.16681952810E-01  0.24232331273E-01  0.00000000000E+00 0.  1.
     999901    1    3    3    0    0  0.21016153098E-01 -0.60714792383E-01  0.99991172491E-01  0.88798997702E+00  0.88000000000E+00 0. -1.
        -11    1    4    4    0    0  0.24730237163E-02  0.19320869293E-01 -0.22703180103E-01  0.29918344612E-01  0.51100000000E-03 0. -1.
         11    1    4    4    0    0 -0.61305523338E-02  0.38637750832E-01 -0.93969945198E-01  0.10178934710E+00  0.51100000000E-03 0.  1.
</event>
<event>
 8    1  0.1097777E+005  0.1043930E+01  0.7957747E-01            NaN
         13   -1    0    0    0    0  0.00000000000E+00  0.00000000000E+00  0.74505805969E-08  0.10566000000E+00  0.10566000000E+00 0. -1.
     999900   -1    0    0    0    0 -0.00000000000E+00 -0.00000000000E+00 -0.74505805969E-08  0.93827000000E+00  0.93827000000E+00 0. -1.
     999902    2    1    2    0    0  0.68142868303E-03 -0.26945791181E-01 -0.12464918409E-01  0.10142329598E+01  0.10137980975E+01 0.  0.
     999903    2    3    3    0    0  0.39478009308E-01  0.89985570094E-01  0.69597443639E-01  0.12186960935E+00  0.18774490057E-01 0.  0.
         14    1    1    2    0    0 -0.68142868303E-03  0.26945791181E-01  0.12464918409E-01  0.29697040229E-01  0.00000000000E+00 0. -1.
     999901    1    3    3    0    0 -0.38796580625E-01 -0.11693136127E+00 -0.82062362048E-01  0.89236335043E+00  0.88000000000E+00 0. -1.
        -11    1    4    4    0    0  0.87838704534E-02  0.42062573353E-01  0.33334007835E-01  0.54385969299E-01  0.51100000000E-03 0.  1.
         11    1    4    4    0    0  0.30694138854E-01  0.47922996741E-01  0.36263435805E-01  0.67483640047E-01  0.51100000000E-03 0. -1.
</event>
<event>
 8    1  0.1097777E+005  0.1043930E+01  0.7957747E-01            NaN
         13   -1    0    0    0    0  0.00000000000E+00  0.00000000000E+00  0.74505805969E-08  0.10566000000E+00  0.10566000000E+00 0.  1.
     999900   -1    0    0    0    0 -0.00000000000E+00 -0.00000000000E+00 -0.74505805969E-08  0.93827000000E+00  0.93827000000E+00 0. -1.
     999902    2    1    2    0    0 -0.13854678528E-01  0.18222691888E-01  0.50417614648E-02  0.10204899067E+01  0.10202206681E+01 0.  0.
     999903    2    3    3    0    0 -0.11167618644E+00 -0.65655253230E-01  0.42705896874E-02  0.13110520262E+00  0.19701607104E-01 0.  0.
         14    1    1    2    0    0  0.13854678528E-01 -0.18222691888E-01 -0.50417614648E-02  0.23440093332E-01  0.00000000000E+00 0. -1.
     999901    1    3    3    0    0  0.97821507916E-01  0.83877945117E-01  0.77117177741E-03  0.88938470405E+00  0.88000000000E+00 0. -1.
        -11    1    4    4    0    0 -0.49955299604E-01 -0.40266201610E-01 -0.82242603223E-03  0.64170370548E-01  0.51100000000E-03 0. -1.
         11    1    4    4    0    0 -0.61720886840E-01 -0.25389051619E-01  0.50930157197E-02  0.66934832073E-01  0.51100000000E-03 0.  1.
</event>
<event>
 8    1  0.1097777E+005  0.1043930E+01  0.7957747E-01            NaN
         13   -1    0    0    0    0  0.00000000000E+00  0.00000000000E+00  0.74505805969E-08  0.10566000000E+00  0.10566000000E+00 0.  1.
     999900   -1    0    0    0    0 -0.00000000000E+00 -0.00000000000E+00 -0.74505805969E-08  0.93827000000E+00  0.93827000000E+00 0.  1.
     999902    2    1    2    0    0 -0.27172761887E-02  0.23379962378E-01  0.17927349080E-03  0.10203919803E+01  0.10201204611E+01 0.  0.
     999903    2    3    3    0    0  0.40825504492E-01  0.36827961560E-01  0.11771941748E+00  0.13140800530E+00  0.19676941678E-01 0.  0.
         14    1    1    2    0    0  0.27172761887E-02 -0.23379962378E-01 -0.17927349080E-03  0.23538019663E-01  0.00000000000E+00 0.  1.
     999901    1    3    3    0    0 -0.43542780681E-01 -0.13447999182E-01 -0.11754014399E+00  0.88898397504E+00  0.88000000000E+00 0.  1.
        -11    1    4    4    0    0  0.16401102324E-01  0.49029194193E-02  0.47537771097E-01  0.50528562004E-01  0.51100000000E-03 0.  1.
         11    1    4    4    0    0  0.24424402169E-01  0.31925042140E-01  0.70181646384E-01  0.80879443292E-01  0.51100000000E-03 0. -1.
</event>
<event>
 8    1  0.1097777E+005  0.1043930E+01  0.7957747E-01            NaN
         13   -1    0    0    0    0  0.00000000000E+00  0.00000000000E+00  0.74505805969E-08  0.10566000000E+00  0.10566000000E+00 0.  1.
     999900   -1    0    0    0    0 -0.00000000000E+00 -0.00000000000E+00 -0.74505805969E-08  0.93827000000E+00  0.93827000000E+00 0. -1.
     999902    2    1    2    0    0 -0.42211726821E-02 -0.24049048032E-01 -0.60785472262E-04  0.10195132290E+01  0.10192208031E+01 0.  0.
     999903    2    3    3    0    0  0.77430759935E-01 -0.87304606991E-01  0.57655527806E-01  0.13159460851E+00  0.19374315884E-01 0.  0.
         14    1    1    2    0    0  0.42211726821E-02  0.24049048032E-01  0.60785472262E-04  0.24416770976E-01  0.00000000000E+00 0.  1.
     999901    1    3    3    0    0 -0.81651932617E-01  0.63255558960E-01 -0.57716313278E-01  0.88791862052E+00  0.88000000000E+00 0. -1.
        -11    1    4    4    0    0  0.51423550035E-01 -0.66631503644E-01  0.33851734952E-01  0.90721220540E-01  0.51100000000E-03 0. -1.
         11    1    4    4    0    0  0.26007209899E-01 -0.20673103347E-01  0.23803792854E-01  0.40873387968E-01  0.51100000000E-03 0.  1.
</event>
<event>
 8    1  0.1097777E+005  0.1043930E+01  0.7957747E-01            NaN
         13   -1    0    0    0    0  0.00000000000E+00  0.00000000000E+00  0.74505805969E-08  0.10566000000E+00  0.10566000000E+00 0.  1.
     999900   -1    0    0    0    0 -0.00000000000E+00 -0.00000000000E+00 -0.74505805969E-08  0.93827000000E+00  0.93827000000E+00 0. -1.
     999902    2    1    2    0    0  0.11849093830E-02  0.23045497414E-01 -0.47065187772E-02  0.10203789856E+01  0.10201071630E+01 0.  0.
     999903    2    3    3    0    0 -0.12600894260E+00 -0.36841942827E-03 -0.28230783237E-01  0.13061504020E+00  0.19619435629E-01 0.  0.
         14    1    1    2    0    0 -0.11849093830E-02 -0.23045497414E-01  0.47065187772E-02  0.23551014422E-01  0.00000000000E+00 0.  1.
     999901    1    3    3    0    0  0.12719385199E+00  0.23413916842E-01  0.23524264459E-01  0.88976394538E+00  0.88000000000E+00 0.  1.
        -11    1    4    4    0    0 -0.91500116919E-01  0.84943837575E-02 -0.20217868383E-01  0.94092769513E-01  0.51100000000E-03 0. -1.
         11    1    4    4    0    0 -0.34508825683E-01 -0.88628031858E-02 -0.80129148541E-02  0.36522270683E-01  0.51100000000E-03 0.  1.
</event>
<event>
 8    1  0.1097777E+005  0.1043930E+01  0.7957747E-01            NaN
         13   -1    0    0    0    0  0.00000000000E+00  0.00000000000E+00  0.74505805969E-08  0.10566000000E+00  0.10566000000E+00 0.  1.
     999900   -1    0    0    0    0 -0.00000000000E+00 -0.00000000000E+00 -0.74505805969E-08  0.93827000000E+00  0.93827000000E+00 0.  1.
     999902    2    1    2    0    0  0.76733411499E-02  0.17995030315E-01  0.12950245911E-01  0.10204691784E+01  0.10201994579E+01 0.  0.
     999903    2    3    3    0    0  0.12743412787E+00  0.21069908383E-01 -0.12214138715E-01  0.13199557320E+00  0.24295023642E-01 0.  0.
         14    1    1    2    0    0 -0.76733411499E-02 -0.17995030315E-01 -0.12950245911E-01  0.23460821588E-01  0.00000000000E+00 0.  1.
     999901    1    3    3    0    0 -0.11976078672E+00 -0.30748780677E-02  0.25164384627E-01  0.88847360522E+00  0.88000000000E+00 0.  1.
        -11    1    4    4    0    0  0.10785917226E+00  0.14343200137E-01 -0.18469951029E-01  0.11036633836E+00  0.51100000000E-03 0. -1.
         11    1    4    4    0    0  0.19574955607E-01  0.67267082456E-02  0.62558123134E-02  0.21629234834E-01  0.51100000000E-03 0.  1.
</event>
<event>
 8    1  0.1097777E+005  0.1043930E+01  0.7957747E-01            NaN
         13   -1    0    0    0    0  0.00000000000E+00  0.00000000000E+00  0.74505805969E-08  0.10566000000E+00  0.10566000000E+00 0. -1.
     999900   -1    0    0    0    0 -0.00000000000E+00 -0.00000000000E+00 -0.74505805969E-08  0.93827000000E+00  0.93827000000E+00 0.  1.
     999902    2    1    2    0    0 -0.66882535970E-03 -0.25767524332E-01  0.70960573011E-02  0.10171948795E+01  0.10168434768E+01 0.  0.
     999903    2    3    3    0    0  0.81200452627E-01  0.91726676974E-01  0.18742287239E-01  0.12554298518E+00  0.20061680422E-01 0.  0.
         14    1    1    2    0    0  0.66882535970E-03  0.25767524332E-01 -0.70960573011E-02  0.26735120474E-01  0.00000000000E+00 0.  1.
     999901    1    3    3    0    0 -0.81869277987E-01 -0.11749420131E+00 -0.11646229938E-01  0.89165189435E+00  0.88000000000E+00 0.  1.
        -11    1    4    4    0    0  0.57155799754E-01  0.50837517947E-01  0.15052803235E-01  0.77962084905E-01  0.51100000000E-03 0. -1.
         11    1    4    4    0    0  0.24044652873E-01  0.40889159027E-01  0.36894840039E-02  0.47580900274E-01  0.51100000000E-03 0.  1.
</event>
<event>
 8    1  0.1097777E+005  0.1043930E+01  0.7957747E-01            NaN
         13   -1    0    0    0    0  0.00000000000E+00  0.00000000000E+00  0.74505805969E-08  0.10566000000E+00  0.10566000000E+00 0.  1.
     999900   -1    0    0    0    0 -0.00000000000E+00 -0.00000000000E+00 -0.74505805969E-08  0.93827000000E+00  0.93827000000E+00 0.  1.
     999902    2    1    2    0    0 -0.22880521367E-01 -0.20627291143E-02  0.74364173534E-02  0.10197830869E+01  0.10194971657E+01 0.  0.
     999903    2    3    3    0    0 -0.33315559727E-01 -0.11624843960E+00  0.47256191102E-01  0.13145157170E+00  0.20560687654E-01 0.  0.
         14    1    1    2    0    0  0.22880521367E-01  0.20627291143E-02 -0.74364173534E-02  0.24146913105E-01  0.00000000000E+00 0. -1.
     999901    1    3    3    0    0  0.10435038360E-01  0.11418571048E+00 -0.39819773749E-01  0.88833151519E+00  0.88000000000E+00 0.  1.
        -11    1    4    4    0    0 -0.21217469598E-01 -0.68771383312E-01  0.38688105271E-01  0.81711166857E-01  0.51100000000E-03 0.  1.
         11    1    4    4    0    0 -0.12098090129E-01 -0.47477056286E-01  0.85680858309E-02  0.49740404845E-01  0.51100000000E-03 0. -1.
</event>
<event>
 8    1  0.1097777E+005  0.1043930E+01  0.7957747E-01            NaN
         13   -1    0    0    0    0  0.00000000000E+00  0.00000000000E+00  0.74505805969E-08  0.10566000000E+00  0.10566000000E+00 0. -1.
     999900   -1    0    0    0    0 -0.00000000000E+00 -0.00000000000E+00 -0.74505805969E-08  0.93827000000E+00  0.93827000000E+00 0.  1.
     999902    2    1    2    0    0 -0.13626980459E-01 -0.16336575916E-03 -0.19238872395E-01  0.10203534121E+01  0.10200809920E+01 0.  0.
     999903    2    3    3    0    0 -0.26134463894E-01  0.12386412300E+00 -0.29328734914E-01  0.13151087239E+00  0.20238668338E-01 0.  0.
         14    1    1    2    0    0  0.13626980459E-01  0.16336575916E-03  0.19238872395E-01  0.23576587875E-01  0.00000000000E+00 0. -1.
     999901    1    3    3    0    0  0.12507483435E-01 -0.12402748876E+00  0.10089862519E-01  0.88884253973E+00  0.88000000000E+00 0. -1.
        -11    1    4    4    0    0 -0.17497917688E-01  0.74608809374E-01 -0.27659410280E-01  0.81473650082E-01  0.51100000000E-03 0. -1.
         11    1    4    4    0    0 -0.86365462055E-02  0.49255313628E-01 -0.16693246332E-02  0.50037222312E-01  0.51100000000E-03 0.  1.
</event>
<event>
 8    1  0.1097777E+005  0.1043930E+01  0.7957747E-01            NaN
         13   -1    0    0    0    0  0.00000000000E+00  0.00000000000E+00  0.74505805969E-08  0.10566000000E+00  0.10566000000E+00 0.  1.
     999900   -1    0    0    0    0 -0.00000000000E+00 -0.00000000000E+00 -0.74505805969E-08  0.93827000000E+00  0.93827000000E+00 0.  1.
     999902    2    1    2    0    0  0.17295631265E-01 -0.22783761619E-02  0.14714159090E-01  0.10211081610E+01  0.10208530943E+01 0.  0.
     999903    2    3    3    0    0  0.14644498084E-01 -0.12883452998E+00 -0.11682912018E-01  0.13165872793E+00  0.19614605960E-01 0.  0.
         14    1    1    2    0    0 -0.17295631265E-01  0.22783761619E-02 -0.14714159090E-01  0.22821839026E-01  0.00000000000E+00 0.  1.
     999901    1    3    3    0    0  0.26511331819E-02  0.12655615382E+00  0.26397071108E-01  0.88944943304E+00  0.88000000000E+00 0. -1.
        -11    1    4    4    0    0  0.15468614493E-01 -0.11321835338E+00 -0.16102427407E-01  0.11540027238E+00  0.51100000000E-03 0. -1.
         11    1    4    4    0    0 -0.82411640929E-03 -0.15616176603E-01  0.44195153890E-02  0.16258455549E-01  0.51100000000E-03 0.  1.
</event>
<event>
 8    1  0.1097777E+005  0.1043930E+01  0.7957747E-01            NaN
         13   -1    0    0    0    0  0.00000000000E+00  0.00000000000E+00  0.74505805969E-08  0.10566000000E+00  0.10566000000E+00 0.  1.
     999900   -1    0    0    0    0 -0.00000000000E+00 -0.00000000000E+00 -0.74505805969E-08  0.93827000000E+00  0.93827000000E+00 0.  1.
     999902    2    1    2    0    0  0.19559538489E-01 -0.18224673763E-01  0.46890159521E-02  0.10167877608E+01  0.10164254273E+01 0.  0.
     999903    2    3    3    0    0  0.57984153155E-01  0.58488408138E-02  0.11332664781E+00  0.12894874374E+00  0.19709856702E-01 0.  0.
         14    1    1    2    0    0 -0.19559538489E-01  0.18224673763E-01 -0.46890159521E-02  0.27142239228E-01  0.00000000000E+00 0.  1.
     999901    1    3    3    0    0 -0.38424614666E-01 -0.24073514577E-01 -0.10863763186E+00  0.88783901704E+00  0.88000000000E+00 0.  1.
        -11    1    4    4    0    0  0.50108442427E-01  0.23337021004E-03  0.81430755868E-01  0.95614536480E-01  0.51100000000E-03 0. -1.
         11    1    4    4    0    0  0.78757107279E-02  0.56154706037E-02  0.31895891942E-01  0.33334207256E-01  0.51100000000E-03 0.  1.
</event>
<event>
 8    1  0.1097777E+005  0.1043930E+01  0.7957747E-01            NaN
         13   -1    0    0    0    0  0.00000000000E+00  0.00000000000E+00  0.74505805969E-08  0.10566000000E+00  0.10566000000E+00 0. -1.
     999900   -1    0    0    0    0 -0.00000000000E+00 -0.00000000000E+00 -0.74505805969E-08  0.93827000000E+00  0.93827000000E+00 0. -1.
     999902    2    1    2    0    0  0.22584616929E-01  0.10774954032E-03 -0.81524601938E-02  0.10199187706E+01  0.10196360917E+01 0.  0.
     999903    2    3    3    0    0 -0.99388697024E-02  0.80291576130E-01 -0.10081005656E+00  0.13083348028E+00  0.20229031910E-01 0.  0.
         14    1    1    2    0    0 -0.22584616929E-01 -0.10774954032E-03  0.81524601938E-02  0.24011229436E-01  0.00000000000E+00 0. -1.
     999901    1    3    3    0    0  0.32523486632E-01 -0.80183826590E-01  0.92657596362E-01  0.88908529028E+00  0.88000000000E+00 0.  1.
        -11    1    4    4    0    0 -0.78412248114E-02  0.49163511791E-01 -0.46110317433E-01  0.67859842270E-01  0.51100000000E-03 0. -1.
         11    1    4    4    0    0 -0.20976448911E-02  0.31128064339E-01 -0.54699739123E-01  0.62973638014E-01  0.51100000000E-03 0.  1.
</event>
<event>
 8    1  0.1097777E+005  0.1043930E+01  0.7957747E-01            NaN
         13   -1    0    0    0    0  0.00000000000E+00  0.00000000000E+00  0.74505805969E-08  0.10566000000E+00  0.10566000000E+00 0.  1.
     999900   -1    0    0    0    0 -0.00000000000E+00 -0.00000000000E+00 -0.74505805969E-08  0.93827000000E+00  0.93827000000E+00 0. -1.
     999902    2    1    2    0    0 -0.10738197812E-01 -0.18619912925E-01 -0.11285764954E-02  0.10224059731E+01  0.10221793825E+01 0.  0.
     999903    2    3    3    0    0  0.97281403741E-01 -0.86584281664E-01 -0.17545389551E-01  0.13304839512E+00  0.20821272883E-01 0.  0.
         14    1    1    2    0    0  0.10738197812E-01  0.18619912925E-01  0.11285764954E-02  0.21524026912E-01  0.00000000000E+00 0. -1.
     999901    1    3    3    0    0 -0.10801960155E+00  0.67964368738E-01  0.16416813056E-01  0.88935757797E+00  0.88000000000E+00 0.  1.
        -11    1    4    4    0    0  0.60552994935E-01 -0.62554367011E-01 -0.41741417493E-02  0.87163057588E-01  0.51100000000E-03 0. -1.
         11    1    4    4    0    0  0.36728408806E-01 -0.24029914652E-01 -0.13371247802E-01  0.45885337532E-01  0.51100000000E-03 0.  1.
</event>
<event>
 8    1  0.1097777E+005  0.1043930E+01  0.7957747E-01            NaN
         13   -1    0    0    0    0  0.00000000000E+00  0.00000000000E+00  0.74505805969E-08  0.10566000000E+00  0.10566000000E+00 0.  1.
     999900   -1    0    0    0    0 -0.00000000000E+00 -0.00000000000E+00 -0.74505805969E-08  0.93827000000E+00  0.93827000000E+00 0. -1.
     999902    2    1    2    0    0 -0.96647231444E-02  0.21224834736E-01 -0.10066638923E-02  0.10205866100E+01  0.10203196140E+01 0.  0.
     999903    2    3    3    0    0 -0.11120342525E+00 -0.59119847045E-01  0.28181428172E-01  0.13063306033E+00  0.20234758573E-01 0.  0.
         14    1    1    2    0    0  0.96647231444E-02 -0.21224834736E-01  0.10066638923E-02  0.23343389969E-01  0.00000000000E+00 0.  1.
     999901    1    3    3    0    0  0.10153870210E+00  0.80344681781E-01 -0.29188092065E-01  0.88995354971E+00  0.88000000000E+00 0. -1.
        -11    1    4    4    0    0 -0.24429941971E-01 -0.13278699982E-01  0.15043758136E-01  0.31618376267E-01  0.51100000000E-03 0. -1.
         11    1    4    4    0    0 -0.86773483278E-01 -0.45841147063E-01  0.13137670037E-01  0.99014684059E-01  0.51100000000E-03 0.  1.
</event>
<event>
 8    1  0.1097777E+005  0.1043930E+01  0.7957747E-01            NaN
         13   -1    0    0    0    0  0.00000000000E+00  0.00000000000E+00  0.74505805969E-08  0.10566000000E+00  0.10566000000E+00 0.  1.
     999900   -1    0    0    0    0 -0.00000000000E+00 -0.00000000000E+00 -0.74505805969E-08  0.93827000000E+00  0.93827000000E+00 0. -1.
     999902    2    1    2    0    0 -0.26946860783E-01 -0.97777176195E-02  0.19257238070E-01  0.10093962732E+01  0.10088053618E+01 0.  0.
     999903    2    3    3    0    0 -0.49596381364E-01 -0.91119195187E-01  0.65111521658E-01  0.12416633016E+00  0.20377892825E-01 0.  0.
         14    1    1    2    0    0  0.26946860783E-01  0.97777176195E-02 -0.19257238070E-01  0.34533726790E-01  0.00000000000E+00 0. -1.
     999901    1    3    3    0    0  0.22649520581E-01  0.81341477567E-01 -0.45854283588E-01  0.88522994305E+00  0.88000000000E+00 0. -1.
        -11    1    4    4    0    0 -0.19101616946E-01 -0.20272272767E-01  0.23947370945E-01  0.36736555490E-01  0.51100000000E-03 0.  1.
         11    1    4    4    0    0 -0.30494764418E-01 -0.70846922420E-01  0.41164150713E-01  0.87429774666E-01  0.51100000000E-03 0. -1.
</event>
<event>
 8    1  0.1097777E+005  0.1043930E+01  0.7957747E-01            NaN
         13   -1    0    0    0    0  0.00000000000E+00  0.00000000000E+00  0.74505805969E-08  0.10566000000E+00  0.10566000000E+00 0. -1.
     999900   -1    0    0    0    0 -0.00000000000E+00 -0.00000000000E+00 -0.74505805969E-08  0.93827000000E+00  0.93827000000E+00 0. -1.
     999902    2    1    2    0    0  0.17894711541E-01 -0.12368865935E-01  0.35087709115E-02  0.10218954585E+01  0.10216578718E+01 0.  0.
     999903    2    3    3    0    0  0.46999204756E-01  0.19764822922E-01 -0.12032053679E+00  0.13216890336E+00  0.19799342664E-01 0.  0.
         14    1    1    2    0    0 -0.17894711541E-01  0.12368865935E-01 -0.35087709115E-02  0.22034541496E-01  0.00000000000E+00 0. -1.
     999901    1    3    3    0    0 -0.29104493215E-01 -0.32133688857E-01  0.12382930770E+00  0.88972655514E+00  0.88000000000E+00 0.  1.
        -11    1    4    4    0    0  0.28590903266E-02 -0.17400808065E-02 -0.22105916307E-01  0.22363696820E-01  0.51100000000E-03 0. -1.
         11    1    4    4    0    0  0.44140114430E-01  0.21504903729E-01 -0.98214620478E-01  0.10980520654E+00  0.51100000000E-03 0.  1.
</event>
<event>
 8    1  0.1097777E+005  0.1043930E+01  0.7957747E-01            NaN
         13   -1    0    0    0    0  0.00000000000E+00  0.00000000000E+00  0.74505805969E-08  0.10566000000E+00  0.10566000000E+00 0. -1.
     999900   -1    0    0    0    0 -0.00000000000E+00 -0.00000000000E+00 -0.74505805969E-08  0.93827000000E+00  0.93827000000E+00 0.  1.
     999902    2    1    2    0    0  0.29840422136E-01  0.45519308179E-02 -0.12855596398E-01  0.10111208972E+01  0.10105884580E+01 0.  0.
     999903    2    3    3    0    0  0.96573086244E-01  0.33910922804E-01 -0.71246880319E-01  0.12617754257E+00  0.19192254238E-01 0.  0.
         14    1    1    2    0    0 -0.29840422136E-01 -0.45519308179E-02  0.12855596398E-01  0.32809102794E-01  0.00000000000E+00 0. -1.
     999901    1    3    3    0    0 -0.66732664108E-01 -0.29358991986E-01  0.58391283921E-01  0.88494335463E+00  0.88000000000E+00 0. -1.
        -11    1    4    4    0    0  0.74370642446E-01  0.17268905135E-01 -0.50799442147E-01  0.91706335582E-01  0.51100000000E-03 0. -1.
         11    1    4    4    0    0  0.22202443797E-01  0.16642017669E-01 -0.20447438173E-01  0.34471206992E-01  0.51100000000E-03 0.  1.
</event>
<event>
 8    1  0.1097777E+005  0.1043930E+01  0.7957747E-01            NaN
         13   -1    0    0    0    0  0.00000000000E+00  0.00000000000E+00  0.74505805969E-08  0.10566000000E+00  0.10566000000E+00 0.  1.
     999900   -1    0    0    0    0 -0.00000000000E+00 -0.00000000000E+00 -0.74505805969E-08  0.93827000000E+00  0.93827000000E+00 0.  1.
     999902    2    1    2    0    0 -0.11505540340E-01  0.21004443135E-01 -0.24693068583E-02  0.10198538382E+01  0.10195696101E+01 0.  0.
     999903    2    3    3    0    0  0.16499829935E-02  0.19972200407E-01  0.12722495495E+00  0.13025014282E+00  0.19424193895E-01 0.  0.
         14    1    1    2    0    0  0.11505540340E-01 -0.21004443135E-01  0.24693068583E-02  0.24076161784E-01  0.00000000000E+00 0. -1.
     999901    1    3    3    0    0 -0.13155523333E-01  0.10322427282E-02 -0.12969426181E+00  0.88960369540E+00  0.88000000000E+00 0.  1.
        -11    1    4    4    0    0  0.20580861731E-02  0.23614811876E-01  0.11694525918E+00  0.11932455667E+00  0.51100000000E-03 0.  1.
         11    1    4    4    0    0 -0.40810317964E-03 -0.36426114694E-02  0.10279695776E-01  0.10925586153E-01  0.51100000000E-03 0. -1.
</event>
<event>
 8    1  0.1097777E+005  0.1043930E+01  0.7957747E-01            NaN
         13   -1    0    0    0    0  0.00000000000E+00  0.00000000000E+00  0.74505805969E-08  0.10566000000E+00  0.10566000000E+00 0. -1.
     999900   -1    0    0    0    0 -0.00000000000E+00 -0.00000000000E+00 -0.74505805969E-08  0.93827000000E+00  0.93827000000E+00 0.  1.
     999902    2    1    2    0    0  0.78217206532E-02  0.20035080054E-01 -0.63280799310E-04  0.10224221468E+01  0.10221959002E+01 0.  0.
     999903    2    3    3    0    0 -0.10412079061E+00 -0.70463381919E-01 -0.29033106292E-01  0.13025604774E+00  0.17818234576E-01 0.  0.
         14    1    1    2    0    0 -0.78217206532E-02 -0.20035080054E-01  0.63280799310E-04  0.21507853245E-01  0.00000000000E+00 0.  1.
     999901    1    3    3    0    0  0.11194251126E+00  0.90498461973E-01  0.28969825493E-01  0.89216609902E+00  0.88000000000E+00 0.  1.
        -11    1    4    4    0    0 -0.35265335652E-01 -0.16864315230E-01 -0.15014745628E-01  0.41877831058E-01  0.51100000000E-03 0.  1.
         11    1    4    4    0    0 -0.68855454954E-01 -0.53599066689E-01 -0.14018360665E-01  0.88378216680E-01  0.51100000000E-03 0. -1.
</event>
<event>
 8    1  0.1097777E+005  0.1043930E+01  0.7957747E-01            NaN
         13   -1    0    0    0    0  0.00000000000E+00  0.00000000000E+00  0.74505805969E-08  0.10566000000E+00  0.10566000000E+00 0.  1.
     999900   -1    0    0    0    0 -0.00000000000E+00 -0.00000000000E+00 -0.74505805969E-08  0.93827000000E+00  0.93827000000E+00 0.  1.
     999902    2    1    2    0    0  0.16086632881E-01 -0.88358753981E-02 -0.13509532477E-01  0.10211405305E+01  0.10208861950E+01 0.  0.
     999903    2    3    3    0    0 -0.49999552811E-01 -0.94880517228E-01 -0.74950844005E-01  0.13235141093E+00  0.19924836975E-01 0.  0.
         14    1    1    2    0    0 -0.16086632881E-01  0.88358753981E-02  0.13509532477E-01  0.22789469482E-01  0.00000000000E+00 0. -1.
     999901    1    3    3    0    0  0.66086185693E-01  0.86044641830E-01  0.61441311528E-01  0.88878911958E+00  0.88000000000E+00 0.  1.
        -11    1    4    4    0    0 -0.22570744422E-01 -0.26513741792E-01 -0.30652231907E-01  0.46392213241E-01  0.51100000000E-03 0. -1.
         11    1    4    4    0    0 -0.27428808389E-01 -0.68366775437E-01 -0.44298612099E-01  0.85959197694E-01  0.51100000000E-03 0.  1.
</event>
<event>
 8    1  0.1097777E+005  0.1043930E+01  0.7957747E-01            NaN
         13   -1    0    0    0    0  0.00000000000E+00  0.00000000000E+00  0.74505805969E-08  0.10566000000E+00  0.10566000000E+00 0.  1.
     999900   -1    0    0    0    0 -0.00000000000E+00 -0.00000000000E+00 -0.74505805969E-08  0.93827000000E+00  0.93827000000E+00 0. -1.
     999902    2    1    2    0    0 -0.94914918056E-02 -0.18749614144E-01 -0.13258107114E-01  0.10190821862E+01  0.10187792147E+01 0.  0.
     999903    2    3    3    0    0  0.55675727724E-01 -0.11667793818E+00  0.75268880973E-02  0.13101195294E+00  0.19848170012E-01 0.  0.
         14    1    1    2    0    0  0.94914918056E-02  0.18749614144E-01  0.13258107114E-01  0.24847813817E-01  0.00000000000E+00 0. -1.
     999901    1    3    3    0    0 -0.65167219530E-01  0.97928324035E-01 -0.20784995211E-01  0.88807023324E+00  0.88000000000E+00 0. -1.
        -11    1    4    4    0    0  0.29327936880E-01 -0.76388053237E-01  0.11830753554E-01  0.82677024678E-01  0.51100000000E-03 0. -1.
         11    1    4    4    0    0  0.26347790844E-01 -0.40289884943E-01 -0.43038654566E-02  0.48334928260E-01  0.51100000000E-03 0.  1.
</event>
<event>
 8    1  0.1097777E+005  0.1043930E+01  0.7957747E-01            NaN
         13   -1    0    0    0    0  0.00000000000E+00  0.00000000000E+00  0.74505805969E-08  0.10566000000E+00  0.10566000000E+00 0. -1.
     999900   -1    0    0    0    0 -0.00000000000E+00 -0.00000000000E+00 -0.74505805969E-08  0.93827000000E+00  0.93827000000E+00 0.  1.
     999902    2    1    2    0    0  0.67474053613E-02 -0.11959058301E-01 -0.20128109129E-01  0.10195643001E+01  0.10192731109E+01 0.  0.
     999903    2    3    3    0    0  0.55403328260E-01 -0.11297067032E+00  0.30114952766E-01  0.13102892665E+00  0.20730849098E-01 0.  0.
         14    1    1    2    0    0 -0.67474053613E-02  0.11959058301E-01  0.20128109129E-01  0.24365699901E-01  0.00000000000E+00 0. -1.
     999901    1    3    3    0    0 -0.48655922898E-01  0.10101161202E+00 -0.50243061895E-01  0.88853537345E+00  0.88000000000E+00 0. -1.
        -11    1    4    4    0    0  0.29302420158E-01 -0.39050789816E-01  0.71895479031E-02  0.49351258671E-01  0.51100000000E-03 0. -1.
         11    1    4    4    0    0  0.26100908102E-01 -0.73919880507E-01  0.22925404863E-01  0.81677667982E-01  0.51100000000E-03 0.  1.
</event>
<event>
 8    1  0.1148954E+005  0.1043930E+01  0.7957747E-01            NaN
         13   -1    0    0    0    0  0.00000000000E+00  0.00000000000E+00  0.74505805969E-08  0.10566000000E+00  0.10566000000E+00 0. -1.
     999900   -1    0    0    0    0 -0.00000000000E+00 -0.00000000000E+00 -0.74505805969E-08  0.93827000000E+00  0.93827000000E+00 0.  1.
     999902    2    1    2    0    0  0.17412684699E-01 -0.50253087503E-02  0.17649700481E-01  0.10186324261E+01  0.10183182471E+01 0.  0.
     999903    2    3    3    0    0 -0.45688834938E-01 -0.80730524595E-01  0.89130213154E-01  0.13025044456E+00  0.20398435543E-01 0.  0.
         14    1    1    2    0    0 -0.17412684699E-01  0.50253087503E-02 -0.17649700481E-01  0.25297573867E-01  0.00000000000E+00 0.  1.
     999901    1    3    3    0    0  0.63101519637E-01  0.75705215845E-01 -0.71480512673E-01  0.88838198157E+00  0.88000000000E+00 0.  1.
        -11    1    4    4    0    0 -0.27395256039E-01 -0.28127654998E-01  0.35677710187E-01  0.53054925825E-01  0.51100000000E-03 0. -1.
         11    1    4    4    0    0 -0.18293578899E-01 -0.52602869597E-01  0.53452502967E-01  0.77195518738E-01  0.51100000000E-03 0.  1.
</event>
<event>
 8    1  0.1097777E+005  0.1043930E+01  0.7957747E-01            NaN
         13   -1    0    0    0    0  0.00000000000E+00  0.00000000000E+00  0.74505805969E-08  0.10566000000E+00  0.10566000000E+00 0. -1.
     999900   -1    0    0    0    0 -0.00000000000E+00 -0.00000000000E+00 -0.74505805969E-08  0.93827000000E+00  0.93827000000E+00 0. -1.
     999902    2    1    2    0    0  0.68704196607E-02  0.35587641035E-02 -0.22076692411E-01  0.10205366715E+01  0.10202685187E+01 0.  0.
     999903    2    3    3    0    0 -0.11138280251E+00 -0.26434667508E-02  0.60543810570E-01  0.12876963934E+00  0.22426555800E-01 0.  0.
         14    1    1    2    0    0 -0.68704196607E-02 -0.35587641035E-02  0.22076692411E-01  0.23393328452E-01  0.00000000000E+00 0. -1.
     999901    1    3    3    0    0  0.11825322217E+00  0.62022308542E-02 -0.82620502981E-01  0.89176703221E+00  0.88000000000E+00 0. -1.
        -11    1    4    4    0    0 -0.43297762645E-01 -0.11888313802E-01  0.25472843066E-01  0.51625140290E-01  0.51100000000E-03 0. -1.
         11    1    4    4    0    0 -0.68085039868E-01  0.92448470510E-02  0.35070967504E-01  0.77144499049E-01  0.51100000000E-03 0.  1.
</event>
<event>
 8    1  0.1097777E+005  0.1043930E+01  0.7957747E-01            NaN
         13   -1    0    0    0    0  0.00000000000E+00  0.00000000000E+00  0.74505805969E-08  0.10566000000E+00  0.10566000000E+00 0.  1.
     999900   -1    0    0    0    0 -0.00000000000E+00 -0.00000000000E+00 -0.74505805969E-08  0.93827000000E+00  0.93827000000E+00 0.  1.
     999902    2    1    2    0    0 -0.12322033813E-02 -0.17417234309E-01 -0.17284524956E-01  0.10193610525E+01  0.10190649254E+01 0.  0.
     999903    2    3    3    0    0  0.11996344182E+00 -0.26203081076E-01  0.35550182452E-01  0.12944134727E+00  0.20332685027E-01 0.  0.
         14    1    1    2    0    0  0.12322033813E-02  0.17417234309E-01  0.17284524956E-01  0.24568947456E-01  0.00000000000E+00 0.  1.
     999901    1    3    3    0    0 -0.12119564520E+00  0.87858467672E-02 -0.52834707408E-01  0.88991970527E+00  0.88000000000E+00 0.  1.
        -11    1    4    4    0    0  0.78681871962E-01 -0.84458698980E-02  0.17741503357E-01  0.81099887522E-01  0.51100000000E-03 0.  1.
         11    1    4    4    0    0  0.41281569860E-01 -0.17757211178E-01  0.17808679095E-01  0.48341459753E-01  0.51100000000E-03 0. -1.
</event>
<event>
 8    1  0.1097777E+005  0.1043930E+01  0.7957747E-01            NaN
         13   -1    0    0    0    0  0.00000000000E+00  0.00000000000E+00  0.74505805969E-08  0.10566000000E+00  0.10566000000E+00 0. -1.
     999900   -1    0    0    0    0 -0.00000000000E+00 -0.00000000000E+00 -0.74505805969E-08  0.93827000000E+00  0.93827000000E+00 0.  1.
     999902    2    1    2    0    0  0.23916373074E-01 -0.58070253140E-02 -0.12066224202E-02  0.10192891725E+01  0.10189912888E+01 0.  0.
     999903    2    3    3    0    0 -0.45419514720E-01  0.11631168370E+00 -0.19825841783E-01  0.12796032195E+00  0.19734231882E-01 0.  0.
         14    1    1    2    0    0 -0.23916373074E-01  0.58070253140E-02  0.12066224202E-02  0.24640827537E-01  0.00000000000E+00 0. -1.
     999901    1    3    3    0    0  0.69335887794E-01 -0.12211870902E+00  0.18619219363E-01  0.89132885051E+00  0.88000000000E+00 0. -1.
        -11    1    4    4    0    0 -0.16354017806E-01  0.58536696915E-01 -0.17498224503E-02  0.60805606516E-01  0.51100000000E-03 0.  1.
         11    1    4    4    0    0 -0.29065496913E-01  0.57774986788E-01 -0.18076019333E-01  0.67154715434E-01  0.51100000000E-03 0. -1.
</event>
<event>
 8    1  0.1097777E+005  0.1043930E+01  0.7957747E-01            NaN
         13   -1    0    0    0    0  0.00000000000E+00  0.00000000000E+00  0.74505805969E-08  0.10566000000E+00  0.10566000000E+00 0. -1.
     999900   -1    0    0    0    0 -0.00000000000E+00 -0.00000000000E+00 -0.74505805969E-08  0.93827000000E+00  0.93827000000E+00 0.  1.
     999902    2    1    2    0    0 -0.77704954594E-02 -0.43286232241E-02  0.21634234846E-01  0.10205385978E+01  0.10202704896E+01 0.  0.
     999903    2    3    3    0    0 -0.43592918761E-01  0.64365968410E-01  0.10610859453E+00  0.13310515785E+00  0.20362434931E-01 0.  0.
         14    1    1    2    0    0  0.77704954594E-02  0.43286232241E-02 -0.21634234846E-01  0.23391402183E-01  0.00000000000E+00 0.  1.
     999901    1    3    3    0    0  0.35822423301E-01 -0.68694591634E-01 -0.84474359688E-01  0.88743343997E+00  0.88000000000E+00 0.  1.
        -11    1    4    4    0    0 -0.23834331143E-01  0.50326069406E-01  0.80029738523E-01  0.97497737265E-01  0.51100000000E-03 0. -1.
         11    1    4    4    0    0 -0.19758587617E-01  0.14039899005E-01  0.26078856011E-01  0.35607420583E-01  0.51100000000E-03 0.  1.
</event>
<event>
 8    1  0.1097777E+005  0.1043930E+01  0.7957747E-01            NaN
         13   -1    0    0    0    0  0.00000000000E+00  0.00000000000E+00  0.74505805969E-08  0.10566000000E+00  0.10566000000E+00 0.  1.
     999900   -1    0    0    0    0 -0.00000000000E+00 -0.00000000000E+00 -0.74505805969E-08  0.93827000000E+00  0.93827000000E+00 0.  1.
     999902    2    1    2    0    0  0.86244461414E-02 -0.63405617590E-02  0.20786872536E-01  0.10205488566E+01  0.10202809863E+01 0.  0.
     999903    2    3    3    0    0 -0.10870425290E-01  0.10109854948E+00 -0.76012889643E-01  0.12853237328E+00  0.20088024693E-01 0.  0.
         14    1    1    2    0    0 -0.86244461414E-02  0.63405617590E-02 -0.20786872536E-01  0.23381143353E-01  0.00000000000E+00 0. -1.
     999901    1    3    3    0    0  0.19494871432E-01 -0.10743911124E+00  0.96799762179E-01  0.89201648336E+00  0.88000000000E+00 0. -1.
        -11    1    4    4    0    0 -0.76154850862E-03  0.81828796604E-01 -0.61588010057E-01  0.10242009575E+00  0.51100000000E-03 0.  1.
         11    1    4    4    0    0 -0.10108876782E-01  0.19269752879E-01 -0.14424879586E-01  0.26112277532E-01  0.51100000000E-03 0. -1.
</event>
<event>
 8    1  0.1097777E+005  0.1043930E+01  0.7957747E-01            NaN
         13   -1    0    0    0    0  0.00000000000E+00  0.00000000000E+00  0.74505805969E-08  0.10566000000E+00  0.10566000000E+00 0. -1.
     999900   -1    0    0    0    0 -0.00000000000E+00 -0.00000000000E+00 -0.74505805969E-08  0.93827000000E+00  0.93827000000E+00 0.  1.
     999902    2    1    2    0    0 -0.59423731216E-02 -0.22272996262E-01 -0.46670540500E-02  0.10204102306E+01  0.10201391371E+01 0.  0.
     999903    2    3    3    0    0 -0.11923277072E-01  0.10891179493E+00  0.63450299603E-01  0.12806209529E+00  0.19235803117E-01 0.  0.
         14    1    1    2    0    0  0.59423731216E-02  0.22272996262E-01  0.46670540500E-02  0.23519769436E-01  0.00000000000E+00 0.  1.
     999901    1    3    3    0    0  0.59809039505E-02 -0.13118479119E+00 -0.68117353653E-01  0.89234813527E+00  0.88000000000E+00 0. -1.
        -11    1    4    4    0    0 -0.14450333652E-01  0.76045202745E-01  0.37003154435E-01  0.85797316755E-01  0.51100000000E-03 0.  1.
         11    1    4    4    0    0  0.25270565795E-02  0.32866592180E-01  0.26447145167E-01  0.42264778539E-01  0.51100000000E-03 0. -1.
</event>
<event>
 8    1  0.1097777E+005  0.1043930E+01  0.7957747E-01            NaN
         13   -1    0    0    0    0  0.00000000000E+00  0.00000000000E+00  0.74505805969E-08  0.10566000000E+00  0.10566000000E+00 0. -1.
     999900   -1    0    0    0    0 -0.00000000000E+00 -0.00000000000E+00 -0.74505805969E-08  0.93827000000E+00  0.93827000000E+00 0.  1.
     999902    2    1    2    0    0  0.78304844636E-02 -0.14597869730E-01  0.16460951930E-01  0.10205766870E+01  0.10203094613E+01 0.  0.
     999903    2    3    3    0    0  0.26177300428E-01  0.12074987411E+00  0.33792477872E-01  0.12987134901E+00  0.21420844456E-01 0.  0.
         14    1    1    2    0    0 -0.78304844636E-02  0.14597869730E-01 -0.16460951930E-01  0.23353312956E-01  0.00000000000E+00 0.  1.
     999901    1    3    3    0    0 -0.18346815964E-01 -0.13534774384E+00 -0.17331525942E-01  0.89070533804E+00  0.88000000000E+00 0. -1.
        -11    1    4    4    0    0  0.18705472548E-01  0.75044343226E-01  0.31465629185E-01  0.83497874790E-01  0.51100000000E-03 0.  1.
         11    1    4    4    0    0  0.74718278798E-02  0.45705530881E-01  0.23268486871E-02  0.46373474215E-01  0.51100000000E-03 0. -1.
</event>
<event>
 7    1  0.1097777E+005  0.1043930E+01  0.7957747E-01            NaN
         13   -1    0    0    0    0  0.00000000000E+00  0.00000000000E+00  0.74505805969E-08  0.10566000000E+00  0.10566000000E+00 0. -1.
     999900   -1    0    0    0    0 -0.00000000000E+00 -0.00000000000E+00 -0.74505805969E-08  0.93827000000E+00  0.93827000000E+00 0.  1.
     999902    2    1    2    0    0 -0.13155183751E-01 -0.39257995692E-02  0.17896714062E-01  0.10213742217E+01  0.10211251332E+01 0.  0.
         14    1    1    2    0    0  0.13155183751E-01  0.39257995692E-02 -0.17896714062E-01  0.22555778328E-01  0.00000000000E+00 0.  1.
     999901    1    3    3    0    0 -0.79626588284E-01 -0.10807159577E+00 -0.24943742502E-01  0.89052908637E+00  0.88000000000E+00 0.  1.
        -11    1    3    3    0    0  0.37050474864E-01  0.57885651088E-01  0.21520016418E-01  0.72019848078E-01  0.51100000000E-03 0. -1.
         11    1    3    3    0    0  0.29420929669E-01  0.46260145112E-01  0.21320440145E-01  0.58825287227E-01  0.51100000000E-03 0.  1.
</event>
<event>
 8    1  0.1097777E+005  0.1043930E+01  0.7957747E-01            NaN
         13   -1    0    0    0    0  0.00000000000E+00  0.00000000000E+00  0.74505805969E-08  0.10566000000E+00  0.10566000000E+00 0.  1.
     999900   -1    0    0    0    0 -0.00000000000E+00 -0.00000000000E+00 -0.74505805969E-08  0.93827000000E+00  0.93827000000E+00 0. -1.
     999902    2    1    2    0    0 -0.11439104877E-01  0.14762389118E-01 -0.26186964664E-01  0.10117657594E+01  0.10112543763E+01 0.  0.
     999903    2    3    3    0    0 -0.65075040340E-01  0.25184883039E-01 -0.10471447619E+00  0.12658102616E+00  0.13733005880E-01 0.  0.
         14    1    1    2    0    0  0.11439104877E-01 -0.14762389118E-01  0.26186964664E-01  0.32164240566E-01  0.00000000000E+00 0.  1.
     999901    1    3    3    0    0  0.53635935463E-01 -0.10422493921E-01  0.78527511529E-01  0.88518473327E+00  0.88000000000E+00 0.  1.
        -11    1    4    4    0    0 -0.23254445183E-01  0.14785976637E-01 -0.47992514657E-01  0.55343806428E-01  0.51100000000E-03 0.  1.
         11    1    4    4    0    0 -0.41820595158E-01  0.10398906401E-01 -0.56721961537E-01  0.71237219733E-01  0.51100000000E-03 0. -1.
</event>
<event>
 8    1  0.1097777E+005  0.1043930E+01  0.7957747E-01            NaN
         13   -1    0    0    0    0  0.00000000000E+00  0.00000000000E+00  0.74505805969E-08  0.10566000000E+00  0.10566000000E+00 0.  1.
     999900   -1    0    0    0    0 -0.00000000000E+00 -0.00000000000E+00 -0.74505805969E-08  0.93827000000E+00  0.93827000000E+00 0.  1.
     999902    2    1    2    0    0 -0.23073903698E-01  0.23002476889E-02 -0.11120124257E-03  0.10207414568E+01  0.10204780316E+01 0.  0.
     999903    2    3    3    0    0  0.11052076400E-01 -0.12871425677E+00 -0.97433147354E-03  0.13038752272E+00  0.17619547979E-01 0.  0.
         14    1    1    2    0    0  0.23073903698E-01 -0.23002476889E-02  0.11120124257E-03  0.23188543228E-01  0.00000000000E+00 0. -1.
     999901    1    3    3    0    0 -0.34125980098E-01  0.13101450445E+00  0.86313023097E-03  0.89035393406E+00  0.88000000000E+00 0. -1.
        -11    1    4    4    0    0  0.47646159940E-02 -0.22338479925E-01  0.59227776806E-02  0.23601899657E-01  0.51100000000E-03 0. -1.
         11    1    4    4    0    0  0.62874604056E-02 -0.10637577684E+00 -0.68971091541E-02  0.10678562306E+00  0.51100000000E-03 0.  1.
</event>
<event>
 8    1  0.1097777E+005  0.1043930E+01  0.7957747E-01            NaN
         13   -1    0    0    0    0  0.00000000000E+00  0.00000000000E+00  0.74505805969E-08  0.10566000000E+00  0.10566000000E+00 0. -1.
     999900   -1    0    0    0    0 -0.00000000000E+00 -0.00000000000E+00 -0.74505805969E-08  0.93827000000E+00  0.93827000000E+00 0. -1.
     999902    2    1    2    0    0  0.17969779504E-01  0.84202821946E-02  0.13129250982E-01  0.10201352241E+01  0.10198576784E+01 0.  0.
     999903    2    3    3    0    0  0.65242600733E-01 -0.49790241730E-01  0.10172326093E+00  0.13251363622E+00  0.21830640085E-01 0.  0.
         14    1    1    2    0    0 -0.17969779504E-01 -0.84202821946E-02 -0.13129250982E-01  0.23794775876E-01  0.00000000000E+00 0.  1.
     999901    1    3    3    0    0 -0.47272821229E-01  0.58210523924E-01 -0.88594009950E-01  0.88762158791E+00  0.88000000000E+00 0. -1.
        -11    1    4    4    0    0  0.16863772347E-01 -0.18447479200E-01  0.45908721457E-01  0.52273971854E-01  0.51100000000E-03 0.  1.
         11    1    4    4    0    0  0.48378828386E-01 -0.31342762530E-01  0.55814539475E-01  0.80239664361E-01  0.51100000000E-03 0. -1.
</event>
<event>
 8    1  0.1097777E+005  0.1043930E+01  0.7957747E-01            NaN
         13   -1    0    0    0    0  0.00000000000E+00  0.00000000000E+00  0.74505805969E-08  0.10566000000E+00  0.10566000000E+00 0.  1.
     999900   -1    0    0    0    0 -0.00000000000E+00 -0.00000000000E+00 -0.74505805969E-08  0.93827000000E+00  0.93827000000E+00 0. -1.
     999902    2    1    2    0    0  0.15308892827E-01  0.91850589572E-02  0.14558881127E-01  0.10208933221E+01  0.10206333752E+01 0.  0.
     999903    2    3    3    0    0 -0.66113197061E-02 -0.48184272765E-01  0.12134267753E+00  0.13231326658E+00  0.20428446684E-01 0.  0.
         14    1    1    2    0    0 -0.15308892827E-01 -0.91850589572E-02 -0.14558881127E-01  0.23036677870E-01  0.00000000000E+00 0. -1.
     999901    1    3    3    0    0  0.21920212533E-01  0.57369331722E-01 -0.10678379640E+00  0.88858005555E+00  0.88000000000E+00 0. -1.
        -11    1    4    4    0    0  0.40726820022E-03 -0.41476059240E-01  0.83421699276E-01  0.93165821998E-01  0.51100000000E-03 0. -1.
         11    1    4    4    0    0 -0.70185879063E-02 -0.67082135250E-02  0.37920978254E-01  0.39147444586E-01  0.51100000000E-03 0.  1.
</event>
<event>
 8    1  0.1097777E+005  0.1043930E+01  0.7957747E-01            NaN
         13   -1    0    0    0    0  0.00000000000E+00  0.00000000000E+00  0.74505805969E-08  0.10566000000E+00  0.10566000000E+00 0.  1.
     999900   -1    0    0    0    0 -0.00000000000E+00 -0.00000000000E+00 -0.74505805969E-08  0.93827000000E+00  0.93827000000E+00 0.  1.
     999902    2    1    2    0    0 -0.21599230225E-01 -0.79515201138E-04 -0.91631820645E-02  0.10204673281E+01  0.10201975645E+01 0.  0.
     999903    2    3    3    0    0  0.97832794743E-01  0.69481595419E-01 -0.42883616845E-01  0.12904160237E+00  0.20341649881E-01 0.  0.
         14    1    1    2    0    0  0.21599230225E-01  0.79515201138E-04  0.91631820645E-02  0.23462671939E-01  0.00000000000E+00 0.  1.
     999901    1    3    3    0    0 -0.11943202497E+00 -0.69561110620E-01  0.33720434780E-01  0.89142572569E+00  0.88000000000E+00 0. -1.
        -11    1    4    4    0    0  0.43120535754E-01  0.20540740589E-01 -0.22838657796E-01  0.52944952909E-01  0.51100000000E-03 0.  1.
         11    1    4    4    0    0  0.54712258989E-01  0.48940854831E-01 -0.20044959049E-01  0.76096649463E-01  0.51100000000E-03 0. -1.
</event>
<event>
 8    1  0.1097777E+005  0.1043930E+01  0.7957747E-01            NaN
         13   -1    0    0    0    0  0.00000000000E+00  0.00000000000E+00  0.74505805969E-08  0.10566000000E+00  0.10566000000E+00 0.  1.
     999900   -1    0    0    0    0 -0.00000000000E+00 -0.00000000000E+00 -0.74505805969E-08  0.93827000000E+00  0.93827000000E+00 0.  1.
     999902    2    1    2    0    0 -0.76097574530E-02  0.16141862377E-01 -0.15999742603E-01  0.10199621070E+01  0.10196804597E+01 0.  0.
     999903    2    3    3    0    0  0.47808594953E-01 -0.11032113510E+00  0.37809200641E-01  0.12757234585E+00  0.19716824583E-01 0.  0.
         14    1    1    2    0    0  0.76097574530E-02 -0.16141862377E-01  0.15999742603E-01  0.23967892958E-01  0.00000000000E+00 0.  1.
     999901    1    3    3    0    0 -0.55418352406E-01  0.12646299747E+00 -0.53808943243E-01  0.89238976120E+00  0.88000000000E+00 0. -1.
        -11    1    4    4    0    0  0.33143426564E-01 -0.84611528591E-01  0.20073631309E-01  0.93063469148E-01  0.51100000000E-03 0. -1.
         11    1    4    4    0    0  0.14665168390E-01 -0.25709606504E-01  0.17735569332E-01  0.34508876699E-01  0.51100000000E-03 0.  1.
</event>
<event>
 8    1  0.1097777E+005  0.1043930E+01  0.7957747E-01            NaN
         13   -1    0    0    0    0  0.00000000000E+00  0.00000000000E+00  0.74505805969E-08  0.10566000000E+00  0.10566000000E+00 0. -1.
     999900   -1    0    0    0    0 -0.00000000000E+00 -0.00000000000E+00 -0.74505805969E-08  0.93827000000E+00  0.93827000000E+00 0. -1.
     999902    2    1    2    0    0 -0.18998378443E-01  0.14025904391E-01 -0.24643712696E-02  0.10201868430E+01  0.10199105143E+01 0.  0.
     999903    2    3    3    0    0  0.12440149360E-01  0.82223119031E-01 -0.99861590822E-01  0.13163439128E+00  0.20973245531E-01 0.  0.
         14    1    1    2    0    0  0.18998378443E-01 -0.14025904391E-01  0.24643712696E-02  0.23743156977E-01  0.00000000000E+00 0.  1.
     999901    1    3    3    0    0 -0.31438527803E-01 -0.68197214640E-01  0.97397219552E-01  0.88855245174E+00  0.88000000000E+00 0.  1.
        -11    1    4    4    0    0  0.17393448573E-01  0.45807980717E-01 -0.56216683512E-01  0.74575329545E-01  0.51100000000E-03 0. -1.
         11    1    4    4    0    0 -0.49532992135E-02  0.36415138313E-01 -0.43644907310E-01  0.57059061739E-01  0.51100000000E-03 0.  1.
</event>
<event>
 8    1  0.1097777E+005  0.1043930E+01  0.7957747E-01            NaN
         13   -1    0    0    0    0  0.00000000000E+00  0.00000000000E+00  0.74505805969E-08  0.10566000000E+00  0.10566000000E+00 0. -1.
     999900   -1    0    0    0    0 -0.00000000000E+00 -0.00000000000E+00 -0.74505805969E-08  0.93827000000E+00  0.93827000000E+00 0.  1.
     999902    2    1    2    0    0 -0.95559846455E-02  0.22768824312E-01  0.22458759077E-02  0.10191352392E+01  0.10188335760E+01 0.  0.
     999903    2    3    3    0    0  0.60427462931E-01 -0.74317558264E-01 -0.80173422830E-01  0.12721798442E+00  0.24125921533E-01 0.  0.
         14    1    1    2    0    0  0.95559846455E-02 -0.22768824312E-01 -0.22458759077E-02  0.24794760771E-01  0.00000000000E+00 0.  1.
     999901    1    3    3    0    0 -0.69983447576E-01  0.97086382576E-01  0.82419298737E-01  0.89191725481E+00  0.88000000000E+00 0.  1.
        -11    1    4    4    0    0  0.33215498043E-01 -0.41419971256E-01 -0.28750361856E-01  0.60379862180E-01  0.51100000000E-03 0.  1.
         11    1    4    4    0    0  0.27211964888E-01 -0.32897587008E-01 -0.51423060973E-01  0.66838122242E-01  0.51100000000E-03 0. -1.
</event>
<event>
 8    1  0.1097777E+005  0.1043930E+01  0.7957747E-01            NaN
         13   -1    0    0    0    0  0.00000000000E+00  0.00000000000E+00  0.74505805969E-08  0.10566000000E+00  0.10566000000E+00 0.  1.
     999900   -1    0    0    0    0 -0.00000000000E+00 -0.00000000000E+00 -0.74505805969E-08  0.93827000000E+00  0.93827000000E+00 0. -1.
     999902    2    1    2    0    0 -0.98868182046E-02  0.74871033682E-02 -0.23498753836E-01  0.10173593899E+01  0.10170123553E+01 0.  0.
     999903    2    3    3    0    0 -0.34340650623E-01  0.45094982608E-01  0.11066671048E+00  0.12606105916E+00  0.20770943318E-01 0.  0.
         14    1    1    2    0    0  0.98868182046E-02 -0.74871033682E-02  0.23498753836E-01  0.26570610134E-01  0.00000000000E+00 0.  1.
     999901    1    3    3    0    0  0.24453832418E-01 -0.37607879240E-01 -0.13416546432E+00  0.89129833070E+00  0.88000000000E+00 0. -1.
        -11    1    4    4    0    0 -0.68082506278E-02  0.19044293118E-01  0.55958739735E-01  0.59503605359E-01  0.51100000000E-03 0. -1.
         11    1    4    4    0    0 -0.27532399995E-01  0.26050689489E-01  0.54707970747E-01  0.66557453802E-01  0.51100000000E-03 0.  1.
</event>
<event>
 8    1  0.1097777E+005  0.1043930E+01  0.7957747E-01            NaN
         13   -1    0    0    0    0  0.00000000000E+00  0.00000000000E+00  0.74505805969E-08  0.10566000000E+00  0.10566000000E+00 0.  1.
     999900   -1    0    0    0    0 -0.00000000000E+00 -0.00000000000E+00 -0.74505805969E-08  0.93827000000E+00  0.93827000000E+00 0. -1.
     999902    2    1    2    0    0 -0.49382314389E-02 -0.13838965488E-01  0.19483089884E-01  0.10195272566E+01  0.10192351706E+01 0.  0.
     999903    2    3    3    0    0  0.28302270393E-01  0.11576098683E+00  0.45245935183E-01  0.12904154484E+00  0.20072395520E-01 0.  0.
         14    1    1    2    0    0  0.49382314389E-02  0.13838965488E-01 -0.19483089884E-01  0.24402743431E-01  0.00000000000E+00 0. -1.
     999901    1    3    3    0    0 -0.33240501832E-01 -0.12959995232E+00 -0.25762845298E-01  0.89048571173E+00  0.88000000000E+00 0. -1.
        -11    1    4    4    0    0  0.65227120909E-02  0.36526241921E-01  0.23903431452E-01  0.44140086974E-01  0.51100000000E-03 0. -1.
         11    1    4    4    0    0  0.21779558302E-01  0.79234744908E-01  0.21342503731E-01  0.84901457861E-01  0.51100000000E-03 0.  1.
</event>
<event>
 7    1  0.1097777E+005  0.1043930E+01  0.7957747E-01            NaN
         13   -1    0    0    0    0  0.00000000000E+00  0.00000000000E+00  0.74505805969E-08  0.10566000000E+00  0.10566000000E+00 0.  1.
     999900   -1    0    0    0    0 -0.00000000000E+00 -0.00000000000E+00 -0.74505805969E-08  0.93827000000E+00  0.93827000000E+00 0.  1.
     999902    2    1    2    0    0 -0.14476311247E-01 -0.20036272496E-02  0.17286959227E-01  0.10212933689E+01  0.10210424713E+01 0.  0.
         14    1    1    2    0    0  0.14476311247E-01  0.20036272496E-02 -0.17286959227E-01  0.22636631127E-01  0.00000000000E+00 0.  1.
     999901    1    3    3    0    0 -0.72561304960E-01 -0.44964398409E-01 -0.88117045578E-01  0.88851086309E+00  0.88000000000E+00 0.  1.
        -11    1    3    3    0    0  0.47488008117E-01  0.23196771439E-01  0.48963497463E-01  0.72047805830E-01  0.51100000000E-03 0.  1.
         11    1    3    3    0    0  0.10596985597E-01  0.19763999720E-01  0.56440507343E-01  0.60734699956E-01  0.51100000000E-03 0. -1.
</event>
<event>
 8    1  0.1097777E+005  0.1043930E+01  0.7957747E-01            NaN
         13   -1    0    0    0    0  0.00000000000E+00  0.00000000000E+00  0.74505805969E-08  0.10566000000E+00  0.10566000000E+00 0.  1.
     999900   -1    0    0    0    0 -0.00000000000E+00 -0.00000000000E+00 -0.74505805969E-08  0.93827000000E+00  0.93827000000E+00 0.  1.
     999902    2    1    2    0    0  0.10617301775E-01  0.67352679566E-02  0.19976649759E-01  0.10203258167E+01  0.10200527510E+01 0.  0.
     999903    2    3    3    0    0  0.44943431431E-01  0.11096755239E-01  0.12367275294E+00  0.13356193185E+00  0.20019735596E-01 0.  0.
         14    1    1    2    0    0 -0.10617301775E-01 -0.67352679566E-02 -0.19976649759E-01  0.23604183253E-01  0.00000000000E+00 0. -1.
     999901    1    3    3    0    0 -0.34326129656E-01 -0.43614872828E-02 -0.10369610318E+00  0.88676388490E+00  0.88000000000E+00 0.  1.
        -11    1    4    4    0    0  0.33394451572E-02  0.40709373438E-02  0.34574522537E-01  0.34976894580E-01  0.51100000000E-03 0.  1.
         11    1    4    4    0    0  0.41603986274E-01  0.70258178956E-02  0.89098230403E-01  0.98585037267E-01  0.51100000000E-03 0. -1.
</event>
<event>
 8    1  0.1097777E+005  0.1043930E+01  0.7957747E-01            NaN
         13   -1    0    0    0    0  0.00000000000E+00  0.00000000000E+00  0.74505805969E-08  0.10566000000E+00  0.10566000000E+00 0. -1.
     999900   -1    0    0    0    0 -0.00000000000E+00 -0.00000000000E+00 -0.74505805969E-08  0.93827000000E+00  0.93827000000E+00 0. -1.
     999902    2    1    2    0    0  0.12273382955E-01  0.15435243939E-01  0.13088233586E-01  0.10202617820E+01  0.10199872153E+01 0.  0.
     999903    2    3    3    0    0  0.69990143965E-01 -0.10552494316E+00  0.21570718833E-01  0.13007385582E+00  0.20488488909E-01 0.  0.
         14    1    1    2    0    0 -0.12273382955E-01 -0.15435243939E-01 -0.13088233586E-01  0.23668217994E-01  0.00000000000E+00 0.  1.
     999901    1    3    3    0    0 -0.57716761009E-01  0.12096018709E+00 -0.84824852468E-02  0.89018792618E+00  0.88000000000E+00 0. -1.
        -11    1    4    4    0    0  0.23790860866E-01 -0.20085020085E-01  0.54841500358E-02  0.31618825329E-01  0.51100000000E-03 0.  1.
         11    1    4    4    0    0  0.46199283098E-01 -0.85439923071E-01  0.16086568797E-01  0.98455030495E-01  0.51100000000E-03 0. -1.
</event>
<event>
 8    1  0.1097777E+005  0.1043930E+01  0.7957747E-01            NaN
         13   -1    0    0    0    0  0.00000000000E+00  0.00000000000E+00  0.74505805969E-08  0.10566000000E+00  0.10566000000E+00 0. -1.
     999900   -1    0    0    0    0 -0.00000000000E+00 -0.00000000000E+00 -0.74505805969E-08  0.93827000000E+00  0.93827000000E+00 0.  1.
     999902    2    1    2    0    0 -0.64216313810E-02 -0.12426676593E-01  0.18516755490E-01  0.10207237535E+01  0.10204599214E+01 0.  0.
     999903    2    3    3    0    0  0.78077594049E-01  0.44299030762E-01  0.94230486894E-01  0.13162843014E+00  0.19701374122E-01 0.  0.
         14    1    1    2    0    0  0.64216313810E-02  0.12426676593E-01 -0.18516755490E-01  0.23206246457E-01  0.00000000000E+00 0.  1.
     999901    1    3    3    0    0 -0.84499225430E-01 -0.56725707355E-01 -0.75713731404E-01  0.88909532340E+00  0.88000000000E+00 0. -1.
        -11    1    4    4    0    0  0.41291838381E-01  0.28644615143E-01  0.64687714829E-01  0.81916368721E-01  0.51100000000E-03 0. -1.
         11    1    4    4    0    0  0.36785755667E-01  0.15654415619E-01  0.29542772065E-01  0.49712061420E-01  0.51100000000E-03 0.  1.
</event>
<event>
 8    1  0.1097777E+005  0.1043930E+01  0.7957747E-01            NaN
         13   -1    0    0    0    0  0.00000000000E+00  0.00000000000E+00  0.74505805969E-08  0.10566000000E+00  0.10566000000E+00 0.  1.
     999900   -1    0    0    0    0 -0.00000000000E+00 -0.00000000000E+00 -0.74505805969E-08  0.93827000000E+00  0.93827000000E+00 0. -1.
     999902    2    1    2    0    0 -0.20023273991E-01  0.11951734165E-01  0.11550308709E-01  0.10179072199E+01  0.10175745296E+01 0.  0.
     999903    2    3    3    0    0  0.52198387474E-01 -0.37300301491E-01 -0.10577390690E+00  0.12582723307E+00  0.22986714749E-01 0.  0.
         14    1    1    2    0    0  0.20023273991E-01 -0.11951734165E-01 -0.11550308709E-01  0.26022780061E-01  0.00000000000E+00 0. -1.
     999901    1    3    3    0    0 -0.72221661465E-01  0.49252035656E-01  0.11732421561E+00  0.89207998687E+00  0.88000000000E+00 0.  1.
        -11    1    4    4    0    0  0.34121046168E-01 -0.11464279646E-01 -0.47910746111E-01  0.59928092021E-01  0.51100000000E-03 0. -1.
         11    1    4    4    0    0  0.18077341306E-01 -0.25836021845E-01 -0.57863160791E-01  0.65899141050E-01  0.51100000000E-03 0.  1.
</event>
<event>
 8    1  0.1097777E+005  0.1043930E+01  0.7957747E-01            NaN
         13   -1    0    0    0    0  0.00000000000E+00  0.00000000000E+00  0.74505805969E-08  0.10566000000E+00  0.10566000000E+00 0.  1.
     999900   -1    0    0    0    0 -0.00000000000E+00 -0.00000000000E+00 -0.74505805969E-08  0.93827000000E+00  0.93827000000E+00 0.  1.
     999902    2    1    2    0    0  0.99789859172E-02  0.12353758584E-01  0.13476047910E-01  0.10231021490E+01  0.10228901250E+01 0.  0.
     999903    2    3    3    0    0 -0.11921715422E+00 -0.74769057946E-02  0.52963396533E-01  0.13257188639E+00  0.22395305515E-01 0.  0.
         14    1    1    2    0    0 -0.99789859172E-02 -0.12353758584E-01 -0.13476047910E-01  0.20827851026E-01  0.00000000000E+00 0.  1.
     999901    1    3    3    0    0  0.12919614013E+00  0.19830664379E-01 -0.39487348623E-01  0.89053026258E+00  0.88000000000E+00 0. -1.
        -11    1    4    4    0    0 -0.10442432745E+00 -0.29428380861E-02  0.38351053979E-01  0.11128416294E+00  0.51100000000E-03 0.  1.
         11    1    4    4    0    0 -0.14792826769E-01 -0.45340677086E-02  0.14612342554E-01  0.21287723451E-01  0.51100000000E-03 0. -1.
</event>
<event>
 8    1  0.1097777E+005  0.1043930E+01  0.7957747E-01            NaN
         13   -1    0    0    0    0  0.00000000000E+00  0.00000000000E+00  0.74505805969E-08  0.10566000000E+00  0.10566000000E+00 0. -1.
     999900   -1    0    0    0    0 -0.00000000000E+00 -0.00000000000E+00 -0.74505805969E-08  0.93827000000E+00  0.93827000000E+00 0. -1.
     999902    2    1    2    0    0 -0.10494214926E-01 -0.21885081707E-01  0.64474205896E-02  0.10188171630E+01  0.10185076127E+01 0.  0.
     999903    2    3    3    0    0  0.39165546534E-01 -0.17334518858E-01  0.12111524040E+00  0.12997774647E+00  0.19770876083E-01 0.  0.
         14    1    1    2    0    0  0.10494214926E-01  0.21885081707E-01 -0.64474205896E-02  0.25112836966E-01  0.00000000000E+00 0. -1.
     999901    1    3    3    0    0 -0.49659761460E-01 -0.45505628491E-02 -0.11466781981E+00  0.88883941656E+00  0.88000000000E+00 0. -1.
        -11    1    4    4    0    0  0.65231808157E-02 -0.15706028298E-02  0.46910292639E-01  0.47390456399E-01  0.51100000000E-03 0. -1.
         11    1    4    4    0    0  0.32642365719E-01 -0.15763916028E-01  0.74204947765E-01  0.82587290075E-01  0.51100000000E-03 0.  1.
</event>
<event>
 8    1  0.1097777E+005  0.1043930E+01  0.7957747E-01            NaN
         13   -1    0    0    0    0  0.00000000000E+00  0.00000000000E+00  0.74505805969E-08  0.10566000000E+00  0.10566000000E+00 0. -1.
     999900   -1    0    0    0    0 -0.00000000000E+00 -0.00000000000E+00 -0.74505805969E-08  0.93827000000E+00  0.93827000000E+00 0.  1.
     999902    2    1    2    0    0  0.21177146625E-01 -0.98947988295E-02  0.60275181724E-02  0.10197906222E+01  0.10195048816E+01 0.  0.
     999903    2    3    3    0    0  0.80791029403E-01  0.97444631320E-01 -0.84766185557E-02  0.13114787160E+00  0.33245519387E-01 0.  0.
         14    1    1    2    0    0 -0.21177146625E-01  0.98947988295E-02 -0.60275181724E-02  0.24139377754E-01  0.00000000000E+00 0. -1.
     999901    1    3    3    0    0 -0.59613882778E-01 -0.10733943015E+00  0.14504136728E-01  0.88864275064E+00  0.88000000000E+00 0. -1.
        -11    1    4    4    0    0  0.75490230106E-01  0.71240611066E-01 -0.29385601822E-02  0.10384072305E+00  0.51100000000E-03 0. -1.
         11    1    4    4    0    0  0.53007992965E-02  0.26204020254E-01 -0.55380583735E-02  0.27307148555E-01  0.51100000000E-03 0.  1.
</event>
<event>
 8    1  0.1097777E+005  0.1043930E+01  0.7957747E-01            NaN
         13   -1    0    0    0    0  0.00000000000E+00  0.00000000000E+00  0.74505805969E-08  0.10566000000E+00  0.10566000000E+00 0.  1.
     999900   -1    0    0    0    0 -0.00000000000E+00 -0.00000000000E+00 -0.74505805969E-08  0.93827000000E+00  0.93827000000E+00 0. -1.
     999902    2    1    2    0    0  0.37496622865E-02 -0.47610830881E-02  0.22490778515E-01  0.10206370183E+01  0.10203711874E+01 0.  0.
     999903    2    3    3    0    0 -0.87433823035E-01  0.91602802478E-01 -0.19619692809E-01  0.12969722332E+00  0.20017256528E-01 0.  0.
         14    1    1    2    0    0 -0.37496622865E-02  0.47610830881E-02 -0.22490778515E-01  0.23292981726E-01  0.00000000000E+00 0.  1.
     999901    1    3    3    0    0  0.91183485322E-01 -0.96363885566E-01  0.42110471325E-01  0.89093979495E+00  0.88000000000E+00 0.  1.
        -11    1    4    4    0    0 -0.12707131189E-01  0.24712313664E-01 -0.65720746292E-02  0.28559112655E-01  0.51100000000E-03 0.  1.
         11    1    4    4    0    0 -0.74726691846E-01  0.66890488814E-01 -0.13047618180E-01  0.10113811067E+00  0.51100000000E-03 0. -1.
</event>
<event>
 8    1  0.1097777E+005  0.1043930E+01  0.7957747E-01            NaN
         13   -1    0    0    0    0  0.00000000000E+00  0.00000000000E+00  0.74505805969E-08  0.10566000000E+00  0.10566000000E+00 0.  1.
     999900   -1    0    0    0    0 -0.00000000000E+00 -0.00000000000E+00 -0.74505805969E-08  0.93827000000E+00  0.93827000000E+00 0.  1.
     999902    2    1    2    0    0 -0.15837236388E-01 -0.14061262871E-01 -0.11510955791E-01  0.10198252438E+01  0.10195403320E+01 0.  0.
     999903    2    3    3    0    0  0.73553310733E-01  0.52996491656E-01  0.87151785213E-01  0.12728855050E+00  0.19703395033E-01 0.  0.
         14    1    1    2    0    0  0.15837236388E-01  0.14061262871E-01  0.11510955791E-01  0.24104756235E-01  0.00000000000E+00 0.  1.
     999901    1    3    3    0    0 -0.89390547121E-01 -0.67057754527E-01 -0.98662741003E-01  0.89253669326E+00  0.88000000000E+00 0.  1.
        -11    1    4    4    0    0  0.58435742966E-01  0.50228842565E-01  0.76497965508E-01  0.10858117944E+00  0.51100000000E-03 0. -1.
         11    1    4    4    0    0  0.15117567766E-01  0.27676490907E-02  0.10653819704E-01  0.18707371059E-01  0.51100000000E-03 0.  1.
</event>
<event>
 8    1  0.1097777E+005  0.1043930E+01  0.7957747E-01            NaN
         13   -1    0    0    0    0  0.00000000000E+00  0.00000000000E+00  0.74505805969E-08  0.10566000000E+00  0.10566000000E+00 0. -1.
     999900   -1    0    0    0    0 -0.00000000000E+00 -0.00000000000E+00 -0.74505805969E-08  0.93827000000E+00  0.93827000000E+00 0. -1.
     999902    2    1    2    0    0 -0.19427511107E-01  0.80440366467E-02 -0.12509561648E-01  0.10194632093E+01  0.10191695695E+01 0.  0.
     999903    2    3    3    0    0 -0.10753599905E+00 -0.34256274484E-01 -0.66397992762E-01  0.13241395197E+00  0.19679374952E-01 0.  0.
         14    1    1    2    0    0  0.19427511107E-01 -0.80440366467E-02  0.12509561648E-01  0.24466790676E-01  0.00000000000E+00 0. -1.
     999901    1    3    3    0    0  0.88108487947E-01  0.42300311131E-01  0.53888431114E-01  0.88704925736E+00  0.88000000000E+00 0.  1.
        -11    1    4    4    0    0 -0.26717194548E-01 -0.23164108495E-03 -0.18420172432E-01  0.32456525008E-01  0.51100000000E-03 0. -1.
         11    1    4    4    0    0 -0.80818804505E-01 -0.34024633400E-01 -0.47977820329E-01  0.99957426959E-01  0.51100000000E-03 0.  1.
</event>
<event>
 8    1  0.1097777E+005  0.1043930E+01  0.7957747E-01            NaN
         13   -1    0    0    0    0  0.00000000000E+00  0.00000000000E+00  0.74505805969E-08  0.10566000000E+00  0.10566000000E+00 0. -1.
     999900   -1    0    0    0    0 -0.00000000000E+00 -0.00000000000E+00 -0.74505805969E-08  0.93827000000E+00  0.93827000000E+00 0.  1.
     999902    2    1    2    0    0 -0.97807081146E-02  0.13447832682E-02 -0.20186834111E-01  0.10214582630E+01  0.10212110477E+01 0.  0.
     999903    2    3    3    0    0  0.59536485547E-01  0.54900747569E-01 -0.10369336522E+00  0.13317539396E+00  0.20607920106E-01 0.  0.
         14    1    1    2    0    0  0.97807081146E-02 -0.13447832682E-02  0.20186834111E-01  0.22471737020E-01  0.00000000000E+00 0. -1.
     999901    1    3    3    0    0 -0.69317193662E-01 -0.53555964300E-01  0.83506531112E-01  0.88828286902E+00  0.88000000000E+00 0. -1.
        -11    1    4    4    0    0  0.64778233998E-02  0.78917935125E-02 -0.26330007094E-01  0.28244875560E-01  0.51100000000E-03 0.  1.
         11    1    4    4    0    0  0.53058662147E-01  0.47008954056E-01 -0.77363358130E-01  0.10493051840E+00  0.51100000000E-03 0. -1.
</event>
<event>
 8    1  0.1097777E+005  0.1043930E+01  0.7957747E-01            NaN
         13   -1    0    0    0    0  0.00000000000E+00  0.00000000000E+00  0.74505805969E-08  0.10566000000E+00  0.10566000000E+00 0.  1.
     999900   -1    0    0    0    0 -0.00000000000E+00 -0.00000000000E+00 -0.74505805969E-08  0.93827000000E+00  0.93827000000E+00 0. -1.
     999902    2    1    2    0    0  0.19916058530E-02 -0.92390085870E-02 -0.21346564001E-01  0.10205847314E+01  0.10203176919E+01 0.  0.
     999903    2    3    3    0    0  0.47413456181E-01 -0.27188174206E-01 -0.12034829245E+00  0.13368752239E+00  0.20035206616E-01 0.  0.
         14    1    1    2    0    0 -0.19916058530E-02  0.92390085870E-02  0.21346564001E-01  0.23345268647E-01  0.00000000000E+00 0.  1.
     999901    1    3    3    0    0 -0.45421850328E-01  0.17949165619E-01  0.99001728444E-01  0.88689720896E+00  0.88000000000E+00 0.  1.
        -11    1    4    4    0    0  0.26105497974E-01 -0.83152214025E-02 -0.77876806849E-01  0.82557241338E-01  0.51100000000E-03 0. -1.
         11    1    4    4    0    0  0.21307958207E-01 -0.18872952804E-01 -0.42471485597E-01  0.51130281050E-01  0.51100000000E-03 0.  1.
</event>
<event>
 7    1  0.1097777E+005  0.1043930E+01  0.7957747E-01            NaN
         13   -1    0    0    0    0  0.00000000000E+00  0.00000000000E+00  0.74505805969E-08  0.10566000000E+00  0.10566000000E+00 0. -1.
     999900   -1    0    0    0    0 -0.00000000000E+00 -0.00000000000E+00 -0.74505805969E-08  0.93827000000E+00  0.93827000000E+00 0. -1.
     999902    2    1    2    0    0  0.22217029004E-01 -0.55667726791E-02  0.74041890516E-02  0.10198591182E+01  0.10195750162E+01 0.  0.
         14    1    1    2    0    0 -0.22217029004E-01  0.55667726791E-02 -0.74041890516E-02  0.24070881814E-01  0.00000000000E+00 0. -1.
     999901    1    3    3    0    0  0.75675462015E-02  0.54225405714E-01  0.11471355756E+00  0.88913264627E+00  0.88000000000E+00 0.  1.
        -11    1    3    3    0    0  0.11545048524E-01  0.28552683255E-02 -0.15794852213E-01  0.19778250178E-01  0.51100000000E-03 0.  1.
         11    1    3    3    0    0  0.31044342777E-02 -0.62647446719E-01 -0.91514516294E-01  0.11094822174E+00  0.51100000000E-03 0. -1.
</event>
<event>
 8    1  0.1097777E+005  0.1043930E+01  0.7957747E-01            NaN
         13   -1    0    0    0    0  0.00000000000E+00  0.00000000000E+00  0.74505805969E-08  0.10566000000E+00  0.10566000000E+00 0. -1.
     999900   -1    0    0    0    0 -0.00000000000E+00 -0.00000000000E+00 -0.74505805969E-08  0.93827000000E+00  0.93827000000E+00 0. -1.
     999902    2    1    2    0    0 -0.29499572474E-02  0.22551319877E-02  0.23563582469E-01  0.10200756443E+01  0.10197966904E+01 0.  0.
     999903    2    3    3    0    0 -0.53862665329E-01  0.11768410314E+00  0.15229371673E-02  0.13080530222E+00  0.18893726559E-01 0.  0.
         14    1    1    2    0    0  0.29499572474E-02 -0.22551319877E-02 -0.23563582469E-01  0.23854355720E-01  0.00000000000E+00 0.  1.
     999901    1    3    3    0    0  0.50912708081E-01 -0.11542897115E+00  0.22040645302E-01  0.88927034206E+00  0.88000000000E+00 0.  1.
        -11    1    4    4    0    0 -0.16888921770E-01  0.26392021806E-01  0.71693234356E-02  0.32147080941E-01  0.51100000000E-03 0.  1.
         11    1    4    4    0    0 -0.36973743559E-01  0.91292081332E-01 -0.56463862684E-02  0.98658221277E-01  0.51100000000E-03 0. -1.
</event>
<event>
 8    1  0.1097777E+005  0.1043930E+01  0.7957747E-01            NaN
         13   -1    0    0    0    0  0.00000000000E+00  0.00000000000E+00  0.74505805969E-08  0.10566000000E+00  0.10566000000E+00 0.  1.
     999900   -1    0    0    0    0 -0.00000000000E+00 -0.00000000000E+00 -0.74505805969E-08  0.93827000000E+00  0.93827000000E+00 0. -1.
     999902    2    1    2    0    0  0.78249253309E-02  0.18129099086E-01  0.13186915281E-01  0.10201857707E+01  0.10199094167E+01 0.  0.
     999903    2    3    3    0    0  0.29828953738E-01 -0.11847238672E+00 -0.31899623247E-01  0.12823457297E+00  0.22384075731E-01 0.  0.
         14    1    1    2    0    0 -0.78249253309E-02 -0.18129099086E-01 -0.13186915281E-01  0.23744229293E-01  0.00000000000E+00 0. -1.
     999901    1    3    3    0    0 -0.22004028407E-01  0.13660148580E+00  0.45086538527E-01  0.89195119774E+00  0.88000000000E+00 0.  1.
        -11    1    4    4    0    0 -0.23749444387E-02 -0.21745499198E-01 -0.18951149050E-02  0.21962688314E-01  0.51100000000E-03 0.  1.
         11    1    4    4    0    0  0.32203898177E-01 -0.96726887517E-01 -0.30004508342E-01  0.10627188466E+00  0.51100000000E-03 0. -1.
</event>
<event>
 8    1  0.1097777E+005  0.1043930E+01  0.7957747E-01            NaN
         13   -1    0    0    0    0  0.00000000000E+00  0.00000000000E+00  0.74505805969E-08  0.10566000000E+00  0.10566000000E+00 0. -1.
     999900   -1    0    0    0    0 -0.00000000000E+00 -0.00000000000E+00 -0.74505805969E-08  0.93827000000E+00  0.93827000000E+00 0.  1.
     999902    2    1    2    0    0  0.19546347051E-02 -0.77808816844E-02 -0.22674146169E-01  0.10198783967E+01  0.10195947550E+01 0.  0.
     999903    2    3    3    0    0 -0.26023014583E-01 -0.23516852910E-01 -0.12693301397E+00  0.13314265187E+00  0.19614689743E-01 0.  0.
         14    1    1    2    0    0 -0.19546347051E-02  0.77808816844E-02  0.22674146169E-01  0.24051603296E-01  0.00000000000E+00 0. -1.
     999901    1    3    3    0    0  0.27977649288E-01  0.15735971226E-01  0.10425886780E+00  0.88673574483E+00  0.88000000000E+00 0. -1.
        -11    1    4    4    0    0 -0.82852723002E-02 -0.17599638242E-01 -0.85443633229E-01  0.87631436047E-01  0.51100000000E-03 0.  1.
         11    1    4    4    0    0 -0.17737742283E-01 -0.59172146680E-02 -0.41489380738E-01  0.45511215823E-01  0.51100000000E-03 0. -1.
</event>
<event>
 8    1  0.1097777E+005  0.1043930E+01  0.7957747E-01            NaN
         13   -1    0    0    0    0  0.00000000000E+00  0.00000000000E+00  0.74505805969E-08  0.10566000000E+00  0.10566000000E+00 0. -1.
     999900   -1    0    0    0    0 -0.00000000000E+00 -0.00000000000E+00 -0.74505805969E-08  0.93827000000E+00  0.93827000000E+00 0.  1.
     999902    2    1    2    0    0  0.26201545171E-01  0.33954486725E-02 -0.30092720434E-02  0.10173385397E+01  0.10169909531E+01 0.  0.
     999903    2    3    3    0    0 -0.16567395332E-01 -0.80812606999E-01 -0.95143197475E-01  0.12750212829E+00  0.19985210893E-01 0.  0.
         14    1    1    2    0    0 -0.26201545171E-01 -0.33954486725E-02  0.30092720434E-02  0.26591460269E-01  0.00000000000E+00 0. -1.
     999901    1    3    3    0    0  0.42768940503E-01  0.84208055672E-01  0.92133925431E-01  0.88983641144E+00  0.88000000000E+00 0.  1.
        -11    1    4    4    0    0 -0.12815320647E-01 -0.78217954823E-01 -0.84215435863E-01  0.11564939109E+00  0.51100000000E-03 0. -1.
         11    1    4    4    0    0 -0.37520746851E-02 -0.25946521762E-02 -0.10927761612E-01  0.11852737203E-01  0.51100000000E-03 0.  1.
</event>
<event>
 8    1  0.1097777E+005  0.1043930E+01  0.7957747E-01            NaN
         13   -1    0    0    0    0  0.00000000000E+00  0.00000000000E+00  0.74505805969E-08  0.10566000000E+00  0.10566000000E+00 0. -1.
     999900   -1    0    0    0    0 -0.00000000000E+00 -0.00000000000E+00 -0.74505805969E-08  0.93827000000E+00  0.93827000000E+00 0.  1.
     999902    2    1    2    0    0  0.19141283615E-01  0.12139553225E-01  0.45910802337E-02  0.10208034891E+01  0.10205414875E+01 0.  0.
     999903    2    3    3    0    0 -0.68460586756E-01  0.99347942446E-01 -0.45820237143E-01  0.13073568727E+00  0.20867682849E-01 0.  0.
         14    1    1    2    0    0 -0.19141283615E-01 -0.12139553225E-01 -0.45910802337E-02  0.23126510949E-01  0.00000000000E+00 0.  1.
     999901    1    3    3    0    0  0.87601870371E-01 -0.87208389221E-01  0.50411317377E-01  0.89006780178E+00  0.88000000000E+00 0.  1.
        -11    1    4    4    0    0 -0.30014525173E-01  0.38727446270E-01 -0.81712235029E-02  0.49676119318E-01  0.51100000000E-03 0. -1.
         11    1    4    4    0    0 -0.38446061583E-01  0.60620496176E-01 -0.37649013641E-01  0.81059567955E-01  0.51100000000E-03 0.  1.
</event>
<event>
 8    1  0.1097777E+005  0.1043930E+01  0.7957747E-01            NaN
         13   -1    0    0    0    0  0.00000000000E+00  0.00000000000E+00  0.74505805969E-08  0.10566000000E+00  0.10566000000E+00 0.  1.
     999900   -1    0    0    0    0 -0.00000000000E+00 -0.00000000000E+00 -0.74505805969E-08  0.93827000000E+00  0.93827000000E+00 0.  1.
     999902    2    1    2    0    0  0.82169287647E-02  0.12557229271E-01 -0.17910791793E-01  0.10205633916E+01  0.10202958580E+01 0.  0.
     999903    2    3    3    0    0 -0.83556661674E-01  0.34038742511E-01 -0.94661338977E-01  0.13220845476E+00  0.19441057396E-01 0.  0.
         14    1    1    2    0    0 -0.82169287647E-02 -0.12557229271E-01  0.17910791793E-01  0.23366608396E-01  0.00000000000E+00 0. -1.
     999901    1    3    3    0    0  0.91773590438E-01 -0.21481513240E-01  0.76750547184E-01  0.88835493684E+00  0.88000000000E+00 0. -1.
        -11    1    4    4    0    0 -0.15716960743E-01 -0.74198972703E-03 -0.20529293096E-01  0.25870570147E-01  0.51100000000E-03 0. -1.
         11    1    4    4    0    0 -0.67839700931E-01  0.34780732238E-01 -0.74132045881E-01  0.10633788462E+00  0.51100000000E-03 0.  1.
</event>
<event>
 8    1  0.1097777E+005  0.1043930E+01  0.7957747E-01            NaN
         13   -1    0    0    0    0  0.00000000000E+00  0.00000000000E+00  0.74505805969E-08  0.10566000000E+00  0.10566000000E+00 0.  1.
     999900   -1    0    0    0    0 -0.00000000000E+00 -0.00000000000E+00 -0.74505805969E-08  0.93827000000E+00  0.93827000000E+00 0. -1.
     999902    2    1    2    0    0 -0.51605778662E-02  0.17131093425E-01 -0.10153597608E-01  0.10233581389E+01  0.10231513470E+01 0.  0.
     999903    2    3    3    0    0 -0.12972607274E+00 -0.45538117529E-02 -0.26030259285E-01  0.13417937956E+00  0.21838964022E-01 0.  0.
         14    1    1    2    0    0  0.51605778662E-02 -0.17131093425E-01  0.10153597608E-01  0.20571861127E-01  0.00000000000E+00 0.  1.
     999901    1    3    3    0    0  0.12456549488E+00  0.21684905178E-01  0.15876661677E-01  0.88917875931E+00  0.88000000000E+00 0.  1.
        -11    1    4    4    0    0 -0.48854105962E-01  0.65894055512E-02 -0.31676159291E-02  0.49400798035E-01  0.51100000000E-03 0. -1.
         11    1    4    4    0    0 -0.80871966783E-01 -0.11143217304E-01 -0.22862643356E-01  0.84778581525E-01  0.51100000000E-03 0.  1.
</event>
<event>
 8    1  0.1097777E+005  0.1043930E+01  0.7957747E-01            NaN
         13   -1    0    0    0    0  0.00000000000E+00  0.00000000000E+00  0.74505805969E-08  0.10566000000E+00  0.10566000000E+00 0.  1.
     999900   -1    0    0    0    0 -0.00000000000E+00 -0.00000000000E+00 -0.74505805969E-08  0.93827000000E+00  0.93827000000E+00 0. -1.
     999902    2    1    2    0    0  0.16697677039E-01 -0.17339843039E-01 -0.13797691305E-02  0.10198180457E+01  0.10195329617E+01 0.  0.
     999903    2    3    3    0    0  0.13185876134E-02  0.38909461017E-01  0.12174047994E+00  0.12933553815E+00  0.19780094612E-01 0.  0.
         14    1    1    2    0    0 -0.16697677039E-01  0.17339843039E-01  0.13797691305E-02  0.24111954254E-01  0.00000000000E+00 0.  1.
     999901    1    3    3    0    0  0.15379089426E-01 -0.56249304056E-01 -0.12312024907E+00  0.89048250759E+00  0.88000000000E+00 0. -1.
        -11    1    4    4    0    0 -0.75468726874E-02  0.28407454934E-01  0.91690348471E-01  0.96287693434E-01  0.51100000000E-03 0. -1.
         11    1    4    4    0    0  0.88654603008E-02  0.10502006083E-01  0.30050131470E-01  0.33047844718E-01  0.51100000000E-03 0.  1.
</event>
<event>
 8    1  0.1139590E+005  0.1043930E+01  0.7957747E-01            NaN
         13   -1    0    0    0    0  0.00000000000E+00  0.00000000000E+00  0.74505805969E-08  0.10566000000E+00  0.10566000000E+00 0. -1.
     999900   -1    0    0    0    0 -0.00000000000E+00 -0.00000000000E+00 -0.74505805969E-08  0.93827000000E+00  0.93827000000E+00 0. -1.
     999902    2    1    2    0    0 -0.10891168604E-01  0.14463508794E-01 -0.14967945630E-01  0.10204385114E+01  0.10201680771E+01 0.  0.
     999903    2    3    3    0    0  0.12486264469E+00 -0.13672773882E-01  0.21209113489E-01  0.12885030610E+00  0.19363628331E-01 0.  0.
         14    1    1    2    0    0  0.10891168604E-01 -0.14463508794E-01  0.14967945630E-01  0.23491488599E-01  0.00000000000E+00 0. -1.
     999901    1    3    3    0    0 -0.13575381329E+00  0.28136282677E-01 -0.36177059119E-01  0.89158820530E+00  0.88000000000E+00 0.  1.
        -11    1    4    4    0    0  0.69783220008E-01 -0.90995510376E-02  0.21471268376E-01  0.73578367137E-01  0.51100000000E-03 0. -1.
         11    1    4    4    0    0  0.55079424682E-01 -0.45732228445E-02 -0.26215488697E-03  0.55271938962E-01  0.51100000000E-03 0.  1.
</event>
<event>
 8    1  0.1097777E+005  0.1043930E+01  0.7957747E-01            NaN
         13   -1    0    0    0    0  0.00000000000E+00  0.00000000000E+00  0.74505805969E-08  0.10566000000E+00  0.10566000000E+00 0.  1.
     999900   -1    0    0    0    0 -0.00000000000E+00 -0.00000000000E+00 -0.74505805969E-08  0.93827000000E+00  0.93827000000E+00 0.  1.
     999902    2    1    2    0    0 -0.20484201850E-01  0.48476132553E-02  0.90020707142E-02  0.10210359144E+01  0.10207792118E+01 0.  0.
     999903    2    3    3    0    0  0.46103360402E-01  0.41068038467E-01  0.11447202033E+00  0.13150247884E+00  0.19415325865E-01 0.  0.
         14    1    1    2    0    0  0.20484201850E-01 -0.48476132553E-02 -0.90020707142E-02  0.22894085630E-01  0.00000000000E+00 0. -1.
     999901    1    3    3    0    0 -0.66587562251E-01 -0.36220425212E-01 -0.10546994962E+00  0.88953343553E+00  0.88000000000E+00 0.  1.
        -11    1    4    4    0    0  0.31963613530E-01  0.18595390858E-01  0.53930694540E-01  0.65392981930E-01  0.51100000000E-03 0.  1.
         11    1    4    4    0    0  0.14139746871E-01  0.22472647609E-01  0.60541325794E-01  0.66109496912E-01  0.51100000000E-03 0. -1.
</event>
<event>
 8    1  0.1097777E+005  0.1043930E+01  0.7957747E-01            NaN
         13   -1    0    0    0    0  0.00000000000E+00  0.00000000000E+00  0.74505805969E-08  0.10566000000E+00  0.10566000000E+00 0.  1.
     999900   -1    0    0    0    0 -0.00000000000E+00 -0.00000000000E+00 -0.74505805969E-08  0.93827000000E+00  0.93827000000E+00 0.  1.
     999902    2    1    2    0    0 -0.28776787517E-02 -0.16998726676E-02 -0.22480838929E-01  0.10212020718E+01  0.10209491235E+01 0.  0.
     999903    2    3    3    0    0  0.78062994791E-01  0.81483137713E-02 -0.10615887963E+00  0.13348004665E+00  0.19672034909E-01 0.  0.
         14    1    1    2    0    0  0.28776787517E-02  0.16998726676E-02  0.22480838929E-01  0.22727928217E-01  0.00000000000E+00 0.  1.
     999901    1    3    3    0    0 -0.80940673542E-01 -0.98481864389E-02  0.83678040698E-01  0.88772202513E+00  0.88000000000E+00 0. -1.
        -11    1    4    4    0    0  0.94475578418E-02 -0.35353178677E-02 -0.22419258566E-01  0.24589410266E-01  0.51100000000E-03 0. -1.
         11    1    4    4    0    0  0.68615436949E-01  0.11683631639E-01 -0.83739621061E-01  0.10889063639E+00  0.51100000000E-03 0.  1.
</event>
<event>
 7    1  0.1097777E+005  0.1043930E+01  0.7957747E-01            NaN
         13   -1    0    0    0    0  0.00000000000E+00  0.00000000000E+00  0.74505805969E-08  0.10566000000E+00  0.10566000000E+00 0.  1.
     999900   -1    0    0    0    0 -0.00000000000E+00 -0.00000000000E+00 -0.74505805969E-08  0.93827000000E+00  0.93827000000E+00 0.  1.
     999903    2    1    2    0    0 -0.78248909702E-01  0.54644006494E-01  0.36015534105E-01  0.10426021017E+00  0.21545612395E-01 0.  0.
         14    1    1    2    0    0  0.51389824096E-01 -0.26138658292E-01  0.47899812862E-02  0.57854017999E-01  0.00000000000E+00 0. -1.
     999901    1    1    2    0    0  0.26859085606E-01 -0.28505348202E-01 -0.40805515391E-01  0.88181577183E+00  0.88000000000E+00 0.  1.
        -11    1    3    3    0    0 -0.48375999845E-01  0.32492701844E-01  0.10654795256E-01  0.59243555068E-01  0.51100000000E-03 0.  1.
         11    1    3    3    0    0 -0.29872909857E-01  0.22151304651E-01  0.25360738849E-01  0.45016655107E-01  0.51100000000E-03 0. -1.
</event>
<event>
 8    1  0.1097777E+005  0.1043930E+01  0.7957747E-01            NaN
         13   -1    0    0    0    0  0.00000000000E+00  0.00000000000E+00  0.74505805969E-08  0.10566000000E+00  0.10566000000E+00 0.  1.
     999900   -1    0    0    0    0 -0.00000000000E+00 -0.00000000000E+00 -0.74505805969E-08  0.93827000000E+00  0.93827000000E+00 0.  1.
     999902    2    1    2    0    0 -0.19891253083E-01  0.87844975624E-02  0.44127427535E-03  0.10221808835E+01  0.10219494775E+01 0.  0.
     999903    2    3    3    0    0  0.10261538432E+00 -0.38600265404E-01  0.66793803446E-01  0.12996126360E+00  0.20214357973E-01 0.  0.
         14    1    1    2    0    0  0.19891253083E-01 -0.87844975624E-02 -0.44127427535E-03  0.21749116525E-01  0.00000000000E+00 0. -1.
     999901    1    3    3    0    0 -0.12250663740E+00  0.47384762966E-01 -0.66352529171E-01  0.89221961988E+00  0.88000000000E+00 0. -1.
        -11    1    4    4    0    0  0.61991917184E-01 -0.24227792730E-01  0.51771391044E-01  0.84323909945E-01  0.51100000000E-03 0. -1.
         11    1    4    4    0    0  0.40623467137E-01 -0.14372472674E-01  0.15022412402E-01  0.45637353652E-01  0.51100000000E-03 0.  1.
</event>
<event>
 8    1  0.1097777E+005  0.1043930E+01  0.7957747E-01            NaN
         13   -1    0    0    0    0  0.00000000000E+00  0.00000000000E+00  0.74505805969E-08  0.10566000000E+00  0.10566000000E+00 0. -1.
     999900   -1    0    0    0    0 -0.00000000000E+00 -0.00000000000E+00 -0.74505805969E-08  0.93827000000E+00  0.93827000000E+00 0.  1.
     999902    2    1    2    0    0  0.16784218344E-01 -0.14252195790E-01 -0.72791554662E-02  0.10207390282E+01  0.10204755472E+01 0.  0.
     999903    2    3    3    0    0 -0.11440627040E+00 -0.58304322020E-01 -0.41604990131E-02  0.12991847375E+00  0.19321267939E-01 0.  0.
         14    1    1    2    0    0 -0.16784218344E-01  0.14252195790E-01  0.72791554662E-02  0.23190971832E-01  0.00000000000E+00 0. -1.
     999901    1    3    3    0    0  0.13119048875E+00  0.44052126230E-01 -0.31186564531E-02  0.89082055442E+00  0.88000000000E+00 0.  1.
        -11    1    4    4    0    0 -0.56345079001E-01 -0.39388804537E-01 -0.37172501231E-02  0.68850017574E-01  0.51100000000E-03 0.  1.
         11    1    4    4    0    0 -0.58061191402E-01 -0.18915517483E-01 -0.44324888997E-03  0.61068456172E-01  0.51100000000E-03 0. -1.
</event>
<event>
 8    1  0.1097777E+005  0.1043930E+01  0.7957747E-01            NaN
         13   -1    0    0    0    0  0.00000000000E+00  0.00000000000E+00  0.74505805969E-08  0.10566000000E+00  0.10566000000E+00 0. -1.
     999900   -1    0    0    0    0 -0.00000000000E+00 -0.00000000000E+00 -0.74505805969E-08  0.93827000000E+00  0.93827000000E+00 0. -1.
     999902    2    1    2    0    0  0.78465713730E-02 -0.19381070087E-01 -0.89010231174E-02  0.10212050628E+01  0.10209521818E+01 0.  0.
     999903    2    3    3    0    0  0.84661859947E-01  0.36931736893E-01  0.90156752047E-01  0.13054005076E+00  0.19516177701E-01 0.  0.
         14    1    1    2    0    0 -0.78465713730E-02  0.19381070087E-01  0.89010231174E-02  0.22724937240E-01  0.00000000000E+00 0. -1.
     999901    1    3    3    0    0 -0.76815288574E-01 -0.56312806980E-01 -0.99057775164E-01  0.89066501200E+00  0.88000000000E+00 0. -1.
        -11    1    4    4    0    0  0.34363217452E-01  0.61986028583E-02  0.40396950866E-01  0.53398765448E-01  0.51100000000E-03 0.  1.
         11    1    4    4    0    0  0.50298642494E-01  0.30733134035E-01  0.49759801181E-01  0.77141285308E-01  0.51100000000E-03 0. -1.
</event>
<event>
 8    1  0.1097777E+005  0.1043930E+01  0.7957747E-01            NaN
         13   -1    0    0    0    0  0.00000000000E+00  0.00000000000E+00  0.74505805969E-08  0.10566000000E+00  0.10566000000E+00 0.  1.
     999900   -1    0    0    0    0 -0.00000000000E+00 -0.00000000000E+00 -0.74505805969E-08  0.93827000000E+00  0.93827000000E+00 0.  1.
     999902    2    1    2    0    0 -0.85109576803E-02 -0.12713985077E-01  0.16632041423E-01  0.10213311810E+01  0.10210811303E+01 0.  0.
     999903    2    3    3    0    0 -0.39658967053E-01  0.11999189927E+00  0.26947264409E-01  0.13077660434E+00  0.20136425353E-01 0.  0.
         14    1    1    2    0    0  0.85109576803E-02  0.12713985077E-01 -0.16632041423E-01  0.22598818976E-01  0.00000000000E+00 0. -1.
     999901    1    3    3    0    0  0.31148009373E-01 -0.13270588435E+00 -0.10315222986E-01  0.89055457668E+00  0.88000000000E+00 0. -1.
        -11    1    4    4    0    0 -0.86565847105E-02  0.56977325739E-01  0.94907112345E-02  0.58409646702E-01  0.51100000000E-03 0.  1.
         11    1    4    4    0    0 -0.31002382343E-01  0.63014573529E-01  0.17456553174E-01  0.72366957638E-01  0.51100000000E-03 0. -1.
</event>
<event>
 8    1  0.1097777E+005  0.1043930E+01  0.7957747E-01            NaN
         13   -1    0    0    0    0  0.00000000000E+00  0.00000000000E+00  0.74505805969E-08  0.10566000000E+00  0.10566000000E+00 0. -1.
     999900   -1    0    0    0    0 -0.00000000000E+00 -0.00000000000E+00 -0.74505805969E-08  0.93827000000E+00  0.93827000000E+00 0. -1.
     999902    2    1    2    0    0 -0.92556816052E-02  0.22387491474E-01  0.60087669973E-02  0.10189705790E+01  0.10186648458E+01 0.  0.
     999903    2    3    3    0    0 -0.10511650848E+00  0.68618150680E-01 -0.34323712622E-01  0.13164128223E+00  0.19833783817E-01 0.  0.
         14    1    1    2    0    0  0.92556816052E-02 -0.22387491474E-01 -0.60087669973E-02  0.24959421013E-01  0.00000000000E+00 0.  1.
     999901    1    3    3    0    0  0.95860826873E-01 -0.46230659207E-01  0.40332479619E-01  0.88732929676E+00  0.88000000000E+00 0.  1.
        -11    1    4    4    0    0 -0.55275396615E-01  0.33374810670E-01 -0.27614561019E-01  0.70228716060E-01  0.51100000000E-03 0.  1.
         11    1    4    4    0    0 -0.49841111863E-01  0.35243340010E-01 -0.67091516035E-02  0.61412566165E-01  0.51100000000E-03 0. -1.
</event>
<event>
 8    1  0.1097777E+005  0.1043930E+01  0.7957747E-01            NaN
         13   -1    0    0    0    0  0.00000000000E+00  0.00000000000E+00  0.74505805969E-08  0.10566000000E+00  0.10566000000E+00 0. -1.
     999900   -1    0    0    0    0 -0.00000000000E+00 -0.00000000000E+00 -0.74505805969E-08  0.93827000000E+00  0.93827000000E+00 0. -1.
     999902    2    1    2    0    0 -0.11135195756E-01 -0.14568797065E-01  0.14732725282E-01  0.10204077631E+01  0.10201366122E+01 0.  0.
     999903    2    3    3    0    0 -0.90112105172E-01 -0.62727877541E-01  0.74809252368E-01  0.13352229232E+00  0.13296623149E-01 0.  0.
         14    1    1    2    0    0  0.11135195756E-01  0.14568797065E-01 -0.14732725282E-01  0.23522236855E-01  0.00000000000E+00 0.  1.
     999901    1    3    3    0    0  0.78976909416E-01  0.48159080477E-01 -0.60076527085E-01  0.88688547082E+00  0.88000000000E+00 0. -1.
        -11    1    4    4    0    0 -0.52481631440E-01 -0.29265920707E-01  0.37273169978E-01  0.70713266610E-01  0.51100000000E-03 0. -1.
         11    1    4    4    0    0 -0.37630473732E-01 -0.33461956834E-01  0.37536082390E-01  0.62809025710E-01  0.51100000000E-03 0.  1.
</event>
<event>
 8    1  0.1097777E+005  0.1043930E+01  0.7957747E-01            NaN
         13   -1    0    0    0    0  0.00000000000E+00  0.00000000000E+00  0.74505805969E-08  0.10566000000E+00  0.10566000000E+00 0.  1.
     999900   -1    0    0    0    0 -0.00000000000E+00 -0.00000000000E+00 -0.74505805969E-08  0.93827000000E+00  0.93827000000E+00 0. -1.
     999902    2    1    2    0    0  0.20989132917E-01  0.13214356833E-01 -0.55834599134E-02  0.10185068225E+01  0.10181894763E+01 0.  0.
     999903    2    3    3    0    0  0.45894030594E-01  0.12620533452E-01  0.11619906432E+00  0.12977087202E+00  0.32752355150E-01 0.  0.
         14    1    1    2    0    0 -0.20989132917E-01 -0.13214356833E-01  0.55834599134E-02  0.25423177451E-01  0.00000000000E+00 0.  1.
     999901    1    3    3    0    0 -0.24904897676E-01  0.59382338015E-03 -0.12178252423E+00  0.88873595053E+00  0.88000000000E+00 0. -1.
        -11    1    4    4    0    0  0.48675964288E-01  0.14638627275E-01  0.90170752814E-01  0.10351166452E+00  0.51100000000E-03 0. -1.
         11    1    4    4    0    0 -0.27819336947E-02 -0.20180938225E-02  0.26028311503E-01  0.26259207499E-01  0.51100000000E-03 0.  1.
</event>
<event>
 7    1  0.1097777E+005  0.1043930E+01  0.7957747E-01            NaN
         13   -1    0    0    0    0  0.00000000000E+00  0.00000000000E+00  0.74505805969E-08  0.10566000000E+00  0.10566000000E+00 0.  1.
     999900   -1    0    0    0    0 -0.00000000000E+00 -0.00000000000E+00 -0.74505805969E-08  0.93827000000E+00  0.93827000000E+00 0. -1.
     999903    2    1    2    0    0 -0.32965959898E-01  0.11247297260E+00  0.74598180903E-02  0.11909684761E+00  0.19786008867E-01 0.  0.
         14    1    1    2    0    0 -0.11113967764E-02 -0.18258368841E-01 -0.34156300321E-01  0.38746046085E-01  0.00000000000E+00 0. -1.
     999901    1    1    2    0    0  0.34077356674E-01 -0.94214603759E-01  0.26696482231E-01  0.88608710631E+00  0.88000000000E+00 0. -1.
        -11    1    3    3    0    0 -0.14027073404E-01  0.76053107280E-01  0.99148456853E-02  0.77970502123E-01  0.51100000000E-03 0.  1.
         11    1    3    3    0    0 -0.18938886494E-01  0.36419865320E-01 -0.24550275950E-02  0.41126345486E-01  0.51100000000E-03 0. -1.
</event>
<event>
 8    1  0.1097777E+005  0.1043930E+01  0.7957747E-01            NaN
         13   -1    0    0    0    0  0.00000000000E+00  0.00000000000E+00  0.74505805969E-08  0.10566000000E+00  0.10566000000E+00 0. -1.
     999900   -1    0    0    0    0 -0.00000000000E+00 -0.00000000000E+00 -0.74505805969E-08  0.93827000000E+00  0.93827000000E+00 0.  1.
     999902    2    1    2    0    0  0.60941380324E-02  0.16254758201E-01 -0.14012506904E-01  0.10216206739E+01  0.10213770583E+01 0.  0.
     999903    2    3    3    0    0 -0.12624117712E+00  0.84758679373E-02 -0.30209971375E-01  0.13154455093E+00  0.19561476766E-01 0.  0.
         14    1    1    2    0    0 -0.60941380324E-02 -0.16254758201E-01  0.14012506904E-01  0.22309326128E-01  0.00000000000E+00 0. -1.
     999901    1    3    3    0    0  0.13233531515E+00  0.77788902637E-02  0.16197464471E-01  0.89007612294E+00  0.88000000000E+00 0.  1.
        -11    1    4    4    0    0 -0.90449767167E-01  0.83872215247E-02 -0.12788601365E-01  0.91735027723E-01  0.51100000000E-03 0.  1.
         11    1    4    4    0    0 -0.35791409948E-01  0.88646412673E-04 -0.17421370010E-01  0.39809523211E-01  0.51100000000E-03 0. -1.
</event>
<event>
 8    1  0.1097777E+005  0.1043930E+01  0.7957747E-01            NaN
         13   -1    0    0    0    0  0.00000000000E+00  0.00000000000E+00  0.74505805969E-08  0.10566000000E+00  0.10566000000E+00 0.  1.
     999900   -1    0    0    0    0 -0.00000000000E+00 -0.00000000000E+00 -0.74505805969E-08  0.93827000000E+00  0.93827000000E+00 0. -1.
     999902    2    1    2    0    0 -0.19604962508E-01 -0.11624316914E-01  0.78963835032E-02  0.10198088025E+01  0.10195234972E+01 0.  0.
     999903    2    3    3    0    0  0.76358185755E-02 -0.84144145405E-01 -0.97009336561E-01  0.13019855309E+00  0.20057639796E-01 0.  0.
         14    1    1    2    0    0  0.19604962508E-01  0.11624316914E-01 -0.78963835032E-02  0.24121197547E-01  0.00000000000E+00 0. -1.
     999901    1    3    3    0    0 -0.27240781083E-01  0.72519828491E-01  0.10490572006E+00  0.88961024937E+00  0.88000000000E+00 0.  1.
        -11    1    4    4    0    0 -0.53689313565E-03 -0.66061365257E-01 -0.66034265054E-01  0.93408658679E-01  0.51100000000E-03 0.  1.
         11    1    4    4    0    0  0.81727117112E-02 -0.18082780148E-01 -0.30975071507E-01  0.36789894407E-01  0.51100000000E-03 0. -1.
</event>
<event>
 8    1  0.1097777E+005  0.1043930E+01  0.7957747E-01            NaN
         13   -1    0    0    0    0  0.00000000000E+00  0.00000000000E+00  0.74505805969E-08  0.10566000000E+00  0.10566000000E+00 0.  1.
     999900   -1    0    0    0    0 -0.00000000000E+00 -0.00000000000E+00 -0.74505805969E-08  0.93827000000E+00  0.93827000000E+00 0.  1.
     999902    2    1    2    0    0 -0.17387850587E-01 -0.24691691770E-02 -0.15933110442E-01  0.10202171732E+01  0.10199415583E+01 0.  0.
     999903    2    3    3    0    0 -0.66134329509E-01 -0.11197550292E+00 -0.11426280012E-01  0.13207970198E+00  0.20055548022E-01 0.  0.
         14    1    1    2    0    0  0.17387850587E-01  0.24691691770E-02  0.15933110442E-01  0.23712826758E-01  0.00000000000E+00 0.  1.
     999901    1    3    3    0    0  0.48746478922E-01  0.10950633374E+00 -0.45068304301E-02  0.88813747126E+00  0.88000000000E+00 0.  1.
        -11    1    4    4    0    0 -0.14206699993E-01 -0.30058142291E-01 -0.11208851320E-01  0.35088769024E-01  0.51100000000E-03 0.  1.
         11    1    4    4    0    0 -0.51927629516E-01 -0.81917360630E-01 -0.21742869262E-03  0.96990932957E-01  0.51100000000E-03 0. -1.
</event>
<event>
 8    1  0.1097777E+005  0.1043930E+01  0.7957747E-01            NaN
         13   -1    0    0    0    0  0.00000000000E+00  0.00000000000E+00  0.74505805969E-08  0.10566000000E+00  0.10566000000E+00 0. -1.
     999900   -1    0    0    0    0 -0.00000000000E+00 -0.00000000000E+00 -0.74505805969E-08  0.93827000000E+00  0.93827000000E+00 0. -1.
     999902    2    1    2    0    0 -0.71267111767E-02 -0.14994223245E-01 -0.18961120135E-01  0.10187279997E+01  0.10184162197E+01 0.  0.
     999903    2    3    3    0    0  0.57083451915E-02  0.54871899542E-01  0.11169210197E+00  0.12625039312E+00  0.20506719734E-01 0.  0.
         14    1    1    2    0    0  0.71267111767E-02  0.14994223245E-01  0.18961120135E-01  0.25202000312E-01  0.00000000000E+00 0. -1.
     999901    1    3    3    0    0 -0.12835056368E-01 -0.69866122787E-01 -0.13065322211E+00  0.89247760657E+00  0.88000000000E+00 0. -1.
        -11    1    4    4    0    0  0.86815767555E-02  0.49380871290E-01  0.83731344662E-01  0.97596308456E-01  0.51100000000E-03 0. -1.
         11    1    4    4    0    0 -0.29732315641E-02  0.54910282516E-02  0.27960757313E-01  0.28654084660E-01  0.51100000000E-03 0.  1.
</event>
<event>
 8    1  0.1097777E+005  0.1043930E+01  0.7957747E-01            NaN
         13   -1    0    0    0    0  0.00000000000E+00  0.00000000000E+00  0.74505805969E-08  0.10566000000E+00  0.10566000000E+00 0. -1.
     999900   -1    0    0    0    0 -0.00000000000E+00 -0.00000000000E+00 -0.74505805969E-08  0.93827000000E+00  0.93827000000E+00 0.  1.
     999902    2    1    2    0    0 -0.74868230554E-02  0.14792195186E-01 -0.20053788348E-01  0.10179104692E+01  0.10175778630E+01 0.  0.
     999903    2    3    3    0    0  0.31953958825E-01 -0.84404812487E-01 -0.89459332406E-01  0.12874639479E+00  0.20674480929E-01 0.  0.
         14    1    1    2    0    0  0.74868230554E-02 -0.14792195186E-01  0.20053788348E-01  0.26019530837E-01  0.00000000000E+00 0. -1.
     999901    1    3    3    0    0 -0.39440781880E-01  0.99197007673E-01  0.69405544058E-01  0.88916407437E+00  0.88000000000E+00 0.  1.
        -11    1    4    4    0    0  0.23558269858E-01 -0.44763497677E-01 -0.60901844195E-01  0.79171071424E-01  0.51100000000E-03 0. -1.
         11    1    4    4    0    0  0.83956889667E-02 -0.39641314811E-01 -0.28557488211E-01  0.49575323368E-01  0.51100000000E-03 0.  1.
</event>
<event>
 8    1  0.1097777E+005  0.1043930E+01  0.7957747E-01            NaN
         13   -1    0    0    0    0  0.00000000000E+00  0.00000000000E+00  0.74505805969E-08  0.10566000000E+00  0.10566000000E+00 0. -1.
     999900   -1    0    0    0    0 -0.00000000000E+00 -0.00000000000E+00 -0.74505805969E-08  0.93827000000E+00  0.93827000000E+00 0.  1.
     999902    2    1    2    0    0 -0.58987527218E-02  0.10209620086E-01 -0.20309588096E-01  0.10204457288E+01  0.10201754626E+01 0.  0.
     999903    2    3    3    0    0 -0.44853768219E-01 -0.86869895292E-01  0.81045167844E-01  0.12847335696E+00  0.19463940685E-01 0.  0.
         14    1    1    2    0    0  0.58987527218E-02 -0.10209620086E-01  0.20309588096E-01  0.23484271218E-01  0.00000000000E+00 0. -1.
     999901    1    3    3    0    0  0.38955015497E-01  0.97079515378E-01 -0.10135475594E+00  0.89197237182E+00  0.88000000000E+00 0.  1.
        -11    1    4    4    0    0 -0.35604311426E-01 -0.50024449146E-01  0.54766575709E-01  0.82278499260E-01  0.51100000000E-03 0.  1.
         11    1    4    4    0    0 -0.92494567928E-02 -0.36845446145E-01  0.26278592134E-01  0.46194857703E-01  0.51100000000E-03 0. -1.
</event>
<event>
 8    1  0.1097777E+005  0.1043930E+01  0.7957747E-01            NaN
         13   -1    0    0    0    0  0.00000000000E+00  0.00000000000E+00  0.74505805969E-08  0.10566000000E+00  0.10566000000E+00 0. -1.
     999900   -1    0    0    0    0 -0.00000000000E+00 -0.00000000000E+00 -0.74505805969E-08  0.93827000000E+00  0.93827000000E+00 0. -1.
     999902    2    1    2    0    0 -0.39151813265E-02  0.35292500914E-02  0.23029375495E-01  0.10203050897E+01  0.10200315386E+01 0.  0.
     999903    2    3    3    0    0  0.47909199378E-02 -0.85997345047E-01 -0.91215678129E-01  0.12837306330E+00  0.27218507967E-01 0.  0.
         14    1    1    2    0    0  0.39151813265E-02 -0.35292500914E-02 -0.23029375495E-01  0.23624910301E-01  0.00000000000E+00 0.  1.
     999901    1    3    3    0    0 -0.87061012643E-02  0.89526595139E-01  0.11424505362E+00  0.89193202640E+00  0.88000000000E+00 0.  1.
        -11    1    4    4    0    0  0.78706232006E-02 -0.70261948268E-01 -0.57860751503E-01  0.91360909416E-01  0.51100000000E-03 0.  1.
         11    1    4    4    0    0 -0.30797032628E-02 -0.15735396780E-01 -0.33354926626E-01  0.37012153885E-01  0.51100000000E-03 0. -1.
</event>
<event>
 8    1  0.1097777E+005  0.1043930E+01  0.7957747E-01            NaN
         13   -1    0    0    0    0  0.00000000000E+00  0.00000000000E+00  0.74505805969E-08  0.10566000000E+00  0.10566000000E+00 0. -1.
     999900   -1    0    0    0    0 -0.00000000000E+00 -0.00000000000E+00 -0.74505805969E-08  0.93827000000E+00  0.93827000000E+00 0. -1.
     999902    2    1    2    0    0  0.96999498193E-02 -0.97902403293E-02 -0.18180217167E-01  0.10211164486E+01  0.10208615692E+01 0.  0.
     999903    2    3    3    0    0  0.27403077213E-01  0.12568526677E+00 -0.85817728484E-02  0.13052162270E+00  0.20360064902E-01 0.  0.
         14    1    1    2    0    0 -0.96999498193E-02  0.97902403293E-02  0.18180217167E-01  0.22813551421E-01  0.00000000000E+00 0. -1.
     999901    1    3    3    0    0 -0.17703127394E-01 -0.13547550710E+00 -0.95984443190E-02  0.89059482588E+00  0.88000000000E+00 0. -1.
        -11    1    4    4    0    0  0.18994122066E-01  0.42576515004E-01 -0.52763809061E-02  0.46921611433E-01  0.51100000000E-03 0.  1.
         11    1    4    4    0    0  0.84089551470E-02  0.83108751769E-01 -0.33053919423E-02  0.83600011269E-01  0.51100000000E-03 0. -1.
</event>
<event>
 8    1  0.1097777E+005  0.1043930E+01  0.7957747E-01            NaN
         13   -1    0    0    0    0  0.00000000000E+00  0.00000000000E+00  0.74505805969E-08  0.10566000000E+00  0.10566000000E+00 0.  1.
     999900   -1    0    0    0    0 -0.00000000000E+00 -0.00000000000E+00 -0.74505805969E-08  0.93827000000E+00  0.93827000000E+00 0.  1.
     999902    2    1    2    0    0  0.86548178305E-02  0.15498083495E-01  0.15695764921E-01  0.10202349900E+01  0.10199597939E+01 0.  0.
     999903    2    3    3    0    0 -0.41066305672E-01  0.11121457062E-01 -0.11968515993E+00  0.12848427380E+00  0.19327256351E-01 0.  0.
         14    1    1    2    0    0 -0.86548178305E-02 -0.15498083495E-01 -0.15695764921E-01  0.23695010027E-01  0.00000000000E+00 0. -1.
     999901    1    3    3    0    0  0.49721123502E-01  0.43766264329E-02  0.13538092485E+00  0.89175071617E+00  0.88000000000E+00 0. -1.
        -11    1    4    4    0    0 -0.11456569655E-01  0.83227584255E-02 -0.61796934674E-01  0.63400658925E-01  0.51100000000E-03 0.  1.
         11    1    4    4    0    0 -0.29609736017E-01  0.27986986369E-02 -0.57888225256E-01  0.65083614876E-01  0.51100000000E-03 0. -1.
</event>
<event>
 8    1  0.1097777E+005  0.1043930E+01  0.7957747E-01            NaN
         13   -1    0    0    0    0  0.00000000000E+00  0.00000000000E+00  0.74505805969E-08  0.10566000000E+00  0.10566000000E+00 0. -1.
     999900   -1    0    0    0    0 -0.00000000000E+00 -0.00000000000E+00 -0.74505805969E-08  0.93827000000E+00  0.93827000000E+00 0. -1.
     999902    2    1    2    0    0 -0.27380951144E-01 -0.22243726267E-01  0.12600349082E-01  0.10064697725E+01  0.10057724069E+01 0.  0.
     999903    2    3    3    0    0 -0.10839199921E+00 -0.49417298857E-01  0.19442945722E-01  0.12230462164E+00  0.19735688929E-01 0.  0.
         14    1    1    2    0    0  0.27380951144E-01  0.22243726267E-01 -0.12600349082E-01  0.37460227453E-01  0.00000000000E+00 0. -1.
     999901    1    3    3    0    0  0.81011048061E-01  0.27173572589E-01 -0.68425966398E-02  0.88416515091E+00  0.88000000000E+00 0.  1.
        -11    1    4    4    0    0 -0.22327698211E-01 -0.57417823341E-02  0.10622408834E-01  0.25388794028E-01  0.51100000000E-03 0.  1.
         11    1    4    4    0    0 -0.86064300994E-01 -0.43675516522E-01  0.88205368877E-02  0.96915827609E-01  0.51100000000E-03 0. -1.
</event>
<event>
 8    1  0.1097777E+005  0.1043930E+01  0.7957747E-01            NaN
         13   -1    0    0    0    0  0.00000000000E+00  0.00000000000E+00  0.74505805969E-08  0.10566000000E+00  0.10566000000E+00 0. -1.
     999900   -1    0    0    0    0 -0.00000000000E+00 -0.00000000000E+00 -0.74505805969E-08  0.93827000000E+00  0.93827000000E+00 0.  1.
     999902    2    1    2    0    0 -0.93603629889E-02  0.12922791102E-01  0.16191351883E-01  0.10211973187E+01  0.10209442633E+01 0.  0.
     999903    2    3    3    0    0 -0.10361910677E+00  0.81037119950E-01 -0.70231275404E-02  0.13324282398E+00  0.20009790695E-01 0.  0.
         14    1    1    2    0    0  0.93603629889E-02 -0.12922791102E-01 -0.16191351883E-01  0.22732681341E-01  0.00000000000E+00 0.  1.
     999901    1    3    3    0    0  0.94258743778E-01 -0.68114328848E-01  0.23214479424E-01  0.88795449468E+00  0.88000000000E+00 0.  1.
        -11    1    4    4    0    0 -0.65091702257E-01  0.38365128191E-01 -0.45900625454E-02  0.75697705111E-01  0.51100000000E-03 0. -1.
         11    1    4    4    0    0 -0.38527404510E-01  0.42671991759E-01 -0.24330649951E-02  0.57545118865E-01  0.51100000000E-03 0.  1.
</event>
<event>
 8    1  0.1097777E+005  0.1043930E+01  0.7957747E-01            NaN
         13   -1    0    0    0    0  0.00000000000E+00  0.00000000000E+00  0.74505805969E-08  0.10566000000E+00  0.10566000000E+00 0.  1.
     999900   -1    0    0    0    0 -0.00000000000E+00 -0.00000000000E+00 -0.74505805969E-08  0.93827000000E+00  0.93827000000E+00 0. -1.
     999902    2    1    2    0    0  0.11445805110E-01  0.73432480471E-02  0.19872640136E-01  0.10198498926E+01  0.10195655702E+01 0.  0.
     999903    2    3    3    0    0 -0.67354964802E-01  0.89101283212E-01 -0.61192613598E-01  0.12885858343E+00  0.19602770488E-01 0.  0.
         14    1    1    2    0    0 -0.11445805110E-01 -0.73432480471E-02 -0.19872640136E-01  0.24080107402E-01  0.00000000000E+00 0. -1.
     999901    1    3    3    0    0  0.78800769912E-01 -0.81758035165E-01  0.81065253734E-01  0.89099130917E+00  0.88000000000E+00 0.  1.
        -11    1    4    4    0    0 -0.66026045611E-01  0.78725606348E-01 -0.53345821662E-01  0.11577217975E+00  0.51100000000E-03 0. -1.
         11    1    4    4    0    0 -0.13289191911E-02  0.10375676864E-01 -0.78467919360E-02  0.13086403680E-01  0.51100000000E-03 0.  1.
</event>
<event>
 8    1  0.1097777E+005  0.1043930E+01  0.7957747E-01            NaN
         13   -1    0    0    0    0  0.00000000000E+00  0.00000000000E+00  0.74505805969E-08  0.10566000000E+00  0.10566000000E+00 0.  1.
     999900   -1    0    0    0    0 -0.00000000000E+00 -0.00000000000E+00 -0.74505805969E-08  0.93827000000E+00  0.93827000000E+00 0. -1.
     999902    2    1    2    0    0  0.14740017569E-01 -0.87616825082E-02 -0.18833655349E-01  0.10184595903E+01  0.10181410488E+01 0.  0.
     999903    2    3    3    0    0 -0.15607025279E-01 -0.12679528606E+00  0.86147865313E-02  0.12963660927E+00  0.20268500472E-01 0.  0.
         14    1    1    2    0    0 -0.14740017569E-01  0.87616825082E-02  0.18833655349E-01  0.25470409736E-01  0.00000000000E+00 0.  1.
     999901    1    3    3    0    0  0.30347042848E-01  0.11803360355E+00 -0.27448441880E-01  0.88882298099E+00  0.88000000000E+00 0.  1.
        -11    1    4    4    0    0 -0.71194993864E-02 -0.31820781962E-01 -0.60296754773E-02  0.33164250988E-01  0.51100000000E-03 0.  1.
         11    1    4    4    0    0 -0.84875258929E-02 -0.94974504099E-01  0.14644462009E-01  0.96472358285E-01  0.51100000000E-03 0. -1.
</event>
<event>
 8    1  0.1097777E+005  0.1043930E+01  0.7957747E-01            NaN
         13   -1    0    0    0    0  0.00000000000E+00  0.00000000000E+00  0.74505805969E-08  0.10566000000E+00  0.10566000000E+00 0. -1.
     999900   -1    0    0    0    0 -0.00000000000E+00 -0.00000000000E+00 -0.74505805969E-08  0.93827000000E+00  0.93827000000E+00 0. -1.
     999902    2    1    2    0    0 -0.14241060775E-01  0.10181679843E-02  0.19396969866E-01  0.10198450064E+01  0.10195605672E+01 0.  0.
     999903    2    3    3    0    0  0.10405085605E+00  0.27514359650E-01 -0.65217400788E-01  0.12751400418E+00  0.20564320185E-01 0.  0.
         14    1    1    2    0    0  0.14241060775E-01 -0.10181679843E-02 -0.19396969866E-01  0.24084993627E-01  0.00000000000E+00 0.  1.
     999901    1    3    3    0    0 -0.11829191682E+00 -0.26496191666E-01  0.84614370654E-01  0.89233100220E+00  0.88000000000E+00 0.  1.
        -11    1    4    4    0    0  0.69951706884E-01  0.26022153849E-01 -0.37419811491E-01  0.83491899008E-01  0.51100000000E-03 0. -1.
         11    1    4    4    0    0  0.34099149163E-01  0.14922058008E-02 -0.27797589297E-01  0.44022105170E-01  0.51100000000E-03 0.  1.
</event>
<event>
 8    1  0.1097777E+005  0.1043930E+01  0.7957747E-01            NaN
         13   -1    0    0    0    0  0.00000000000E+00  0.00000000000E+00  0.74505805969E-08  0.10566000000E+00  0.10566000000E+00 0.  1.
     999900   -1    0    0    0    0 -0.00000000000E+00 -0.00000000000E+00 -0.74505805969E-08  0.93827000000E+00  0.93827000000E+00 0.  1.
     999902    2    1    2    0    0  0.15867404625E-01 -0.10141851500E-01 -0.14208992231E-01  0.10203391725E+01  0.10200664193E+01 0.  0.
     999903    2    3    3    0    0  0.56643497384E-01  0.55302771134E-01  0.10061426180E+00  0.12953612580E+00  0.19735650933E-01 0.  0.
         14    1    1    2    0    0 -0.15867404625E-01  0.10141851500E-01  0.14208992231E-01  0.23590827489E-01  0.00000000000E+00 0.  1.
     999901    1    3    3    0    0 -0.40776092759E-01 -0.65444622634E-01 -0.11482325403E+00  0.89080304672E+00  0.88000000000E+00 0.  1.
        -11    1    4    4    0    0  0.39014224689E-01  0.26911290378E-01  0.67560971635E-01  0.82529226866E-01  0.51100000000E-03 0. -1.
         11    1    4    4    0    0  0.17629272696E-01  0.28391480756E-01  0.33053290164E-01  0.47006898929E-01  0.51100000000E-03 0.  1.
</event>
<event>
 8    1  0.1097777E+005  0.1043930E+01  0.7957747E-01            NaN
         13   -1    0    0    0    0  0.00000000000E+00  0.00000000000E+00  0.74505805969E-08  0.10566000000E+00  0.10566000000E+00 0.  1.
     999900   -1    0    0    0    0 -0.00000000000E+00 -0.00000000000E+00 -0.74505805969E-08  0.93827000000E+00  0.93827000000E+00 0. -1.
     999902    2    1    2    0    0 -0.20625353893E-01  0.94768801877E-02 -0.65490385350E-02  0.10203057246E+01  0.10200321884E+01 0.  0.
     999903    2    3    3    0    0 -0.85269870193E-01 -0.94824650307E-01  0.23389694071E-01  0.13128713626E+00  0.20653553922E-01 0.  0.
         14    1    1    2    0    0  0.20625353893E-01 -0.94768801877E-02  0.65490385350E-02  0.23624275376E-01  0.00000000000E+00 0. -1.
     999901    1    3    3    0    0  0.64644516300E-01  0.10430153049E+00 -0.29938732606E-01  0.88901858837E+00  0.88000000000E+00 0. -1.
        -11    1    4    4    0    0 -0.35217401094E-01 -0.28596231428E-01  0.13204016993E-02  0.45387381213E-01  0.51100000000E-03 0.  1.
         11    1    4    4    0    0 -0.50052469098E-01 -0.66228418878E-01  0.22069292372E-01  0.85899755045E-01  0.51100000000E-03 0. -1.
</event>
<event>
 8    1  0.1097777E+005  0.1043930E+01  0.7957747E-01            NaN
         13   -1    0    0    0    0  0.00000000000E+00  0.00000000000E+00  0.74505805969E-08  0.10566000000E+00  0.10566000000E+00 0.  1.
     999900   -1    0    0    0    0 -0.00000000000E+00 -0.00000000000E+00 -0.74505805969E-08  0.93827000000E+00  0.93827000000E+00 0. -1.
     999902    2    1    2    0    0  0.24200139757E-01  0.43582684001E-02 -0.85868515146E-03  0.10193255572E+01  0.10190285633E+01 0.  0.
     999903    2    3    3    0    0  0.22475756181E-01  0.10698858743E+00  0.68610479113E-01  0.13064005560E+00  0.20191800987E-01 0.  0.
         14    1    1    2    0    0 -0.24200139757E-01 -0.43582684001E-02  0.85868515146E-03  0.24604442849E-01  0.00000000000E+00 0.  1.
     999901    1    3    3    0    0  0.17243835765E-02 -0.10263031903E+00 -0.69469164264E-01  0.88868550155E+00  0.88000000000E+00 0. -1.
        -11    1    4    4    0    0  0.26147579488E-01  0.88079085553E-01  0.57728873379E-01  0.10851039198E+00  0.51100000000E-03 0.  1.
         11    1    4    4    0    0 -0.36718233076E-02  0.18909501876E-01  0.10881605734E-01  0.22129663620E-01  0.51100000000E-03 0. -1.
</event>
<event>
 8    1  0.1097777E+005  0.1043930E+01  0.7957747E-01            NaN
         13   -1    0    0    0    0  0.00000000000E+00  0.00000000000E+00  0.74505805969E-08  0.10566000000E+00  0.10566000000E+00 0.  1.
     999900   -1    0    0    0    0 -0.00000000000E+00 -0.00000000000E+00 -0.74505805969E-08  0.93827000000E+00  0.93827000000E+00 0.  1.
     999902    2    1    2    0    0  0.45246153738E-02  0.31298065789E-02 -0.22786313019E-01  0.10204889272E+01  0.10202196659E+01 0.  0.
     999903    2    3    3    0    0 -0.25746632529E-01 -0.10559615306E+00  0.66084205941E-01  0.12884120982E+00  0.20481661194E-01 0.  0.
         14    1    1    2    0    0 -0.45246153738E-02 -0.31298065789E-02  0.22786313019E-01  0.23441072811E-01  0.00000000000E+00 0.  1.
     999901    1    3    3    0    0  0.30271247902E-01  0.10872595964E+00 -0.88870518961E-01  0.89164771737E+00  0.88000000000E+00 0.  1.
        -11    1    4    4    0    0 -0.64591718207E-03 -0.35645488839E-01  0.15134116370E-01  0.38733973239E-01  0.51100000000E-03 0.  1.
         11    1    4    4    0    0 -0.25100715347E-01 -0.69950664222E-01  0.50950089571E-01  0.90107236581E-01  0.51100000000E-03 0. -1.
</event>
<event>
 8    1  0.1097777E+005  0.1043930E+01  0.7957747E-01            NaN
         13   -1    0    0    0    0  0.00000000000E+00  0.00000000000E+00  0.74505805969E-08  0.10566000000E+00  0.10566000000E+00 0. -1.
     999900   -1    0    0    0    0 -0.00000000000E+00 -0.00000000000E+00 -0.74505805969E-08  0.93827000000E+00  0.93827000000E+00 0.  1.
     999902    2    1    2    0    0  0.37710231232E-02 -0.13108175369E-01  0.15284611737E-01  0.10234442920E+01  0.10232392460E+01 0.  0.
     999903    2    3    3    0    0  0.10387791448E+00 -0.72816325880E-01 -0.38613674685E-01  0.13412349598E+00  0.20131017576E-01 0.  0.
         14    1    1    2    0    0 -0.37710231232E-02  0.13108175369E-01 -0.15284611737E-01  0.20485708015E-01  0.00000000000E+00 0.  1.
     999901    1    3    3    0    0 -0.10010689136E+00  0.59708150511E-01  0.53898286422E-01  0.88932079601E+00  0.88000000000E+00 0. -1.
        -11    1    4    4    0    0  0.58760724218E-01 -0.36963598094E-01 -0.30867795553E-01  0.75975076294E-01  0.51100000000E-03 0. -1.
         11    1    4    4    0    0  0.45117190263E-01 -0.35852727786E-01 -0.77458791310E-02  0.58148419682E-01  0.51100000000E-03 0.  1.
</event>
<event>
 8    1  0.1097777E+005  0.1043930E+01  0.7957747E-01            NaN
         13   -1    0    0    0    0  0.00000000000E+00  0.00000000000E+00  0.74505805969E-08  0.10566000000E+00  0.10566000000E+00 0. -1.
     999900   -1    0    0    0    0 -0.00000000000E+00 -0.00000000000E+00 -0.74505805969E-08  0.93827000000E+00  0.93827000000E+00 0.  1.
     999902    2    1    2    0    0 -0.15454195523E-01  0.47566517554E-02  0.15065535249E-01  0.10218295872E+01  0.10215905623E+01 0.  0.
     999903    2    3    3    0    0 -0.64181215376E-01  0.54829109201E-01 -0.98926380234E-01  0.13173086778E+00  0.21003171099E-01 0.  0.
         14    1    1    2    0    0  0.15454195523E-01 -0.47566517554E-02 -0.15065535249E-01  0.22100412836E-01  0.00000000000E+00 0. -1.
     999901    1    3    3    0    0  0.48727019853E-01 -0.50072457446E-01  0.11399191548E+00  0.89009871939E+00  0.88000000000E+00 0. -1.
        -11    1    4    4    0    0 -0.57249242649E-01  0.45962862128E-01 -0.73340797358E-01  0.10377472793E+00  0.51100000000E-03 0. -1.
         11    1    4    4    0    0 -0.69319727275E-02  0.88662470730E-02 -0.25585582876E-01  0.27956139847E-01  0.51100000000E-03 0.  1.
</event>
<event>
 8    1  0.1097777E+005  0.1043930E+01  0.7957747E-01            NaN
         13   -1    0    0    0    0  0.00000000000E+00  0.00000000000E+00  0.74505805969E-08  0.10566000000E+00  0.10566000000E+00 0.  1.
     999900   -1    0    0    0    0 -0.00000000000E+00 -0.00000000000E+00 -0.74505805969E-08  0.93827000000E+00  0.93827000000E+00 0. -1.
     999902    2    1    2    0    0  0.18726003644E-01  0.12043481854E-01  0.83760055215E-02  0.10201420590E+01  0.10198646746E+01 0.  0.
     999903    2    3    3    0    0 -0.50301039849E-01 -0.64262139105E-02  0.11821221823E+00  0.13043994257E+00  0.21655466798E-01 0.  0.
         14    1    1    2    0    0 -0.18726003644E-01 -0.12043481854E-01 -0.83760055215E-02  0.23787940982E-01  0.00000000000E+00 0. -1.
     999901    1    3    3    0    0  0.69027043494E-01  0.18469695764E-01 -0.10983621271E+00  0.88970211645E+00  0.88000000000E+00 0. -1.
        -11    1    4    4    0    0 -0.36591168193E-01 -0.96262489838E-02  0.63284650814E-01  0.73734567259E-01  0.51100000000E-03 0. -1.
         11    1    4    4    0    0 -0.13709871657E-01  0.32000350734E-02  0.54927567419E-01  0.56705375308E-01  0.51100000000E-03 0.  1.
</event>
<event>
 8    1  0.1097777E+005  0.1043930E+01  0.7957747E-01            NaN
         13   -1    0    0    0    0  0.00000000000E+00  0.00000000000E+00  0.74505805969E-08  0.10566000000E+00  0.10566000000E+00 0. -1.
     999900   -1    0    0    0    0 -0.00000000000E+00 -0.00000000000E+00 -0.74505805969E-08  0.93827000000E+00  0.93827000000E+00 0.  1.
     999902    2    1    2    0    0 -0.13501008497E-01  0.39477645388E-02  0.18252250483E-01  0.10208864169E+01  0.10206263123E+01 0.  0.
     999903    2    3    3    0    0  0.10322268726E+00  0.67058135865E-01  0.39047238410E-01  0.13069555440E+00  0.20122732477E-01 0.  0.
         14    1    1    2    0    0  0.13501008497E-01 -0.39477645388E-02 -0.18252250483E-01  0.23043583120E-01  0.00000000000E+00 0.  1.
     999901    1    3    3    0    0 -0.11672369575E+00 -0.63110371327E-01 -0.20794987927E-01  0.89019086248E+00  0.88000000000E+00 0. -1.
        -11    1    4    4    0    0  0.45054998377E-01  0.38697551045E-01  0.12211795025E-01  0.60636972173E-01  0.51100000000E-03 0.  1.
         11    1    4    4    0    0  0.58167688880E-01  0.28360584820E-01  0.26835443386E-01  0.70058582227E-01  0.51100000000E-03 0. -1.
</event>
<event>
 8    1  0.1097777E+005  0.1043930E+01  0.7957747E-01            NaN
         13   -1    0    0    0    0  0.00000000000E+00  0.00000000000E+00  0.74505805969E-08  0.10566000000E+00  0.10566000000E+00 0. -1.
     999900   -1    0    0    0    0 -0.00000000000E+00 -0.00000000000E+00 -0.74505805969E-08  0.93827000000E+00  0.93827000000E+00 0. -1.
     999902    2    1    2    0    0 -0.24121127187E-02  0.14053735475E-01  0.18773904845E-01  0.10203549014E+01  0.10200825161E+01 0.  0.
     999903    2    3    3    0    0 -0.10145079814E+00  0.55569958135E-01 -0.57480233632E-01  0.13055326536E+00  0.18970849934E-01 0.  0.
         14    1    1    2    0    0  0.24121127187E-02 -0.14053735475E-01 -0.18773904845E-01  0.23575098551E-01  0.00000000000E+00 0.  1.
     999901    1    3    3    0    0  0.99038685421E-01 -0.41516222661E-01  0.76254138476E-01  0.88980163609E+00  0.88000000000E+00 0. -1.
        -11    1    4    4    0    0 -0.71617816621E-01  0.44038145251E-01 -0.33198293215E-01  0.90392796660E-01  0.51100000000E-03 0.  1.
         11    1    4    4    0    0 -0.29832981519E-01  0.11531812884E-01 -0.24281940417E-01  0.40160468699E-01  0.51100000000E-03 0. -1.
</event>
<event>
 8    1  0.1097777E+005  0.1043930E+01  0.7957747E-01            NaN
         13   -1    0    0    0    0  0.00000000000E+00  0.00000000000E+00  0.74505805969E-08  0.10566000000E+00  0.10566000000E+00 0. -1.
     999900   -1    0    0    0    0 -0.00000000000E+00 -0.00000000000E+00 -0.74505805969E-08  0.93827000000E+00  0.93827000000E+00 0.  1.
     999902    2    1    2    0    0 -0.17479865909E-01  0.35892448378E-02  0.15211008503E-01  0.10204821180E+01  0.10202126984E+01 0.  0.
     999903    2    3    3    0    0  0.11119513810E+00  0.58161472088E-01  0.23661176577E-01  0.12941153158E+00  0.20985177028E-01 0.  0.
         14    1    1    2    0    0  0.17479865909E-01 -0.35892448378E-02 -0.15211008503E-01  0.23447882002E-01  0.00000000000E+00 0.  1.
     999901    1    3    3    0    0 -0.12867500401E+00 -0.54572227250E-01 -0.84501680742E-02  0.89107058642E+00  0.88000000000E+00 0. -1.
        -11    1    4    4    0    0  0.66727101101E-01  0.27734227819E-01  0.21861289526E-01  0.75497486811E-01  0.51100000000E-03 0. -1.
         11    1    4    4    0    0  0.44468037002E-01  0.30427244269E-01  0.17998870517E-02  0.53914044766E-01  0.51100000000E-03 0.  1.
</event>
<event>
 8    1  0.1097777E+005  0.1043930E+01  0.7957747E-01            NaN
         13   -1    0    0    0    0  0.00000000000E+00  0.00000000000E+00  0.74505805969E-08  0.10566000000E+00  0.10566000000E+00 0. -1.
     999900   -1    0    0    0    0 -0.00000000000E+00 -0.00000000000E+00 -0.74505805969E-08  0.93827000000E+00  0.93827000000E+00 0. -1.
     999902    2    1    2    0    0 -0.55277105336E-02  0.19468738793E-01  0.10288841970E-01  0.10212265280E+01  0.10209741298E+01 0.  0.
     999903    2    3    3    0    0 -0.59907363999E-01 -0.78132948682E-01  0.84074575679E-01  0.13109868848E+00  0.20607811964E-01 0.  0.
         14    1    1    2    0    0  0.55277105336E-02 -0.19468738793E-01 -0.10288841970E-01  0.22703472048E-01  0.00000000000E+00 0. -1.
     999901    1    3    3    0    0  0.54379653465E-01  0.97601687475E-01 -0.73785733708E-01  0.89012783947E+00  0.88000000000E+00 0. -1.
        -11    1    4    4    0    0 -0.20028071979E-01 -0.22174533285E-01  0.38094362263E-01  0.48417715258E-01  0.51100000000E-03 0.  1.
         11    1    4    4    0    0 -0.39879292020E-01 -0.55958415397E-01  0.45980213416E-01  0.82680973219E-01  0.51100000000E-03 0. -1.
</event>
<event>
 8    1  0.1097777E+005  0.1043930E+01  0.7957747E-01            NaN
         13   -1    0    0    0    0  0.00000000000E+00  0.00000000000E+00  0.74505805969E-08  0.10566000000E+00  0.10566000000E+00 0.  1.
     999900   -1    0    0    0    0 -0.00000000000E+00 -0.00000000000E+00 -0.74505805969E-08  0.93827000000E+00  0.93827000000E+00 0. -1.
     999902    2    1    2    0    0 -0.81765173641E-02  0.14924258272E-01 -0.16335183616E-01  0.10203412920E+01  0.10200685884E+01 0.  0.
     999903    2    3    3    0    0  0.11169672131E+00  0.32790601831E-01  0.52562500068E-01  0.12936671863E+00  0.20531691478E-01 0.  0.
         14    1    1    2    0    0  0.81765173641E-02 -0.14924258272E-01  0.16335183616E-01  0.23588707997E-01  0.00000000000E+00 0.  1.
     999901    1    3    3    0    0 -0.11987323868E+00 -0.17866343559E-01 -0.68897683684E-01  0.89097457337E+00  0.88000000000E+00 0. -1.
        -11    1    4    4    0    0  0.76429275041E-01  0.24217853832E-01  0.25646514548E-01  0.84178045576E-01  0.51100000000E-03 0.  1.
         11    1    4    4    0    0  0.35267446272E-01  0.85727479992E-02  0.26915985519E-01  0.45188673053E-01  0.51100000000E-03 0. -1.
</event>
<event>
 8    1  0.1097777E+005  0.1043930E+01  0.7957747E-01            NaN
         13   -1    0    0    0    0  0.00000000000E+00  0.00000000000E+00  0.74505805969E-08  0.10566000000E+00  0.10566000000E+00 0.  1.
     999900   -1    0    0    0    0 -0.00000000000E+00 -0.00000000000E+00 -0.74505805969E-08  0.93827000000E+00  0.93827000000E+00 0.  1.
     999902    2    1    2    0    0 -0.10489363903E-01 -0.38706998240E-02  0.19984147021E-01  0.10210307597E+01  0.10207739403E+01 0.  0.
     999903    2    3    3    0    0 -0.72360064315E-01  0.87003423561E-01 -0.61709818481E-01  0.13043545666E+00  0.19993299848E-01 0.  0.
         14    1    1    2    0    0  0.10489363903E-01  0.38706998240E-02 -0.19984147021E-01  0.22899240257E-01  0.00000000000E+00 0. -1.
     999901    1    3    3    0    0  0.61870700412E-01 -0.90874123385E-01  0.81693965501E-01  0.89059530308E+00  0.88000000000E+00 0. -1.
        -11    1    4    4    0    0 -0.14868927038E-01  0.16347477323E-01 -0.21594434913E-01  0.30901549255E-01  0.51100000000E-03 0. -1.
         11    1    4    4    0    0 -0.57491137276E-01  0.70655946237E-01 -0.40115383567E-01  0.99533907407E-01  0.51100000000E-03 0.  1.
</event>
<event>
 8    1  0.1097777E+005  0.1043930E+01  0.7957747E-01            NaN
         13   -1    0    0    0    0  0.00000000000E+00  0.00000000000E+00  0.74505805969E-08  0.10566000000E+00  0.10566000000E+00 0. -1.
     999900   -1    0    0    0    0 -0.00000000000E+00 -0.00000000000E+00 -0.74505805969E-08  0.93827000000E+00  0.93827000000E+00 0. -1.
     999902    2    1    2    0    0  0.74295133675E-02  0.22455100293E-01 -0.36448745966E-02  0.10199985498E+01  0.10197177684E+01 0.  0.
     999903    2    3    3    0    0  0.11348880916E+00  0.12521738666E-01 -0.62400180859E-01  0.13162957695E+00  0.19901236500E-01 0.  0.
         14    1    1    2    0    0 -0.74295133675E-02 -0.22455100293E-01  0.36448745966E-02  0.23931450204E-01  0.00000000000E+00 0. -1.
     999901    1    3    3    0    0 -0.10605929579E+00  0.99333616263E-02  0.58755306262E-01  0.88836897284E+00  0.88000000000E+00 0.  1.
        -11    1    4    4    0    0  0.92820885069E-01  0.99874952012E-02 -0.59227093955E-01  0.11056028466E+00  0.51100000000E-03 0. -1.
         11    1    4    4    0    0  0.20667924089E-01  0.25342434651E-02 -0.31730869034E-02  0.21069292290E-01  0.51100000000E-03 0.  1.
</event>
<event>
 8    1  0.1097777E+005  0.1043930E+01  0.7957747E-01            NaN
         13   -1    0    0    0    0  0.00000000000E+00  0.00000000000E+00  0.74505805969E-08  0.10566000000E+00  0.10566000000E+00 0. -1.
     999900   -1    0    0    0    0 -0.00000000000E+00 -0.00000000000E+00 -0.74505805969E-08  0.93827000000E+00  0.93827000000E+00 0.  1.
     999902    2    1    2    0    0  0.20602360249E-01  0.72832291587E-02  0.87105335284E-02  0.10204060533E+01  0.10201348624E+01 0.  0.
     999903    2    3    3    0    0  0.93971256187E-01 -0.35473089336E-01  0.84832505349E-01  0.13304724634E+00  0.20398008206E-01 0.  0.
         14    1    1    2    0    0 -0.20602360249E-01 -0.72832291587E-02 -0.87105335284E-02  0.23523946718E-01  0.00000000000E+00 0.  1.
     999901    1    3    3    0    0 -0.73368895937E-01  0.42756318495E-01 -0.76121971821E-01  0.88735880694E+00  0.88000000000E+00 0.  1.
        -11    1    4    4    0    0  0.54634693792E-01 -0.11769922637E-01  0.38927753198E-01  0.68111026528E-01  0.51100000000E-03 0.  1.
         11    1    4    4    0    0  0.39336562395E-01 -0.23703166699E-01  0.45904752151E-01  0.64936219813E-01  0.51100000000E-03 0. -1.
</event>
<event>
 8    1  0.1097777E+005  0.1043930E+01  0.7957747E-01            NaN
         13   -1    0    0    0    0  0.00000000000E+00  0.00000000000E+00  0.74505805969E-08  0.10566000000E+00  0.10566000000E+00 0.  1.
     999900   -1    0    0    0    0 -0.00000000000E+00 -0.00000000000E+00 -0.74505805969E-08  0.93827000000E+00  0.93827000000E+00 0.  1.
     999902    2    1    2    0    0  0.14939213669E-01  0.13863146915E-01 -0.10395180081E-01  0.10210514791E+01  0.10207951295E+01 0.  0.
     999903    2    3    3    0    0  0.88232938945E-02 -0.74652781717E-01 -0.10588574523E+00  0.13144992669E+00  0.20405975863E-01 0.  0.
         14    1    1    2    0    0 -0.14939213669E-01 -0.13863146915E-01  0.10395180081E-01  0.22878520851E-01  0.00000000000E+00 0.  1.
     999901    1    3    3    0    0  0.61159197743E-02  0.88515928632E-01  0.95490565153E-01  0.88960155245E+00  0.88000000000E+00 0. -1.
        -11    1    4    4    0    0  0.95969555166E-02 -0.32514117330E-01 -0.33353188928E-01  0.47560127351E-01  0.51100000000E-03 0.  1.
         11    1    4    4    0    0 -0.77366162209E-03 -0.42138664387E-01 -0.72532556306E-01  0.83889799343E-01  0.51100000000E-03 0. -1.
</event>
<event>
 8    1  0.1097777E+005  0.1043930E+01  0.7957747E-01            NaN
         13   -1    0    0    0    0  0.00000000000E+00  0.00000000000E+00  0.74505805969E-08  0.10566000000E+00  0.10566000000E+00 0. -1.
     999900   -1    0    0    0    0 -0.00000000000E+00 -0.00000000000E+00 -0.74505805969E-08  0.93827000000E+00  0.93827000000E+00 0.  1.
     999902    2    1    2    0    0  0.20269963083E-01 -0.41878676033E-02  0.88416280537E-02  0.10214225784E+01  0.10211745687E+01 0.  0.
     999903    2    3    3    0    0 -0.10450070886E+00 -0.63521744303E-01  0.39707714910E-01  0.13010841115E+00  0.19901906368E-01 0.  0.
         14    1    1    2    0    0 -0.20269963083E-01  0.41878676033E-02 -0.88416280537E-02  0.22507421556E-01  0.00000000000E+00 0.  1.
     999901    1    3    3    0    0  0.12477067194E+00  0.59333876699E-01 -0.30866086856E-01  0.89131416729E+00  0.88000000000E+00 0. -1.
        -11    1    4    4    0    0 -0.92110612259E-01 -0.47994612505E-01  0.30835015069E-01  0.10834623665E+00  0.51100000000E-03 0. -1.
         11    1    4    4    0    0 -0.12390096602E-01 -0.15527131798E-01  0.88726998402E-02  0.21762174503E-01  0.51100000000E-03 0.  1.
</event>
<event>
 8    1  0.1097777E+005  0.1043930E+01  0.7957747E-01            NaN
         13   -1    0    0    0    0  0.00000000000E+00  0.00000000000E+00  0.74505805969E-08  0.10566000000E+00  0.10566000000E+00 0.  1.
     999900   -1    0    0    0    0 -0.00000000000E+00 -0.00000000000E+00 -0.74505805969E-08  0.93827000000E+00  0.93827000000E+00 0. -1.
     999902    2    1    2    0    0 -0.19716347793E-02  0.23296780701E-01  0.46143724452E-02  0.10200989327E+01  0.10198205297E+01 0.  0.
     999903    2    3    3    0    0  0.57245967627E-01 -0.13021226539E-01  0.11483818607E+00  0.13050632305E+00  0.19935852792E-01 0.  0.
         14    1    1    2    0    0  0.19716347793E-02 -0.23296780701E-01 -0.46143724452E-02  0.23831067282E-01  0.00000000000E+00 0. -1.
     999901    1    3    3    0    0 -0.59217602406E-01  0.36318007240E-01 -0.11022381362E+00  0.88959260967E+00  0.88000000000E+00 0. -1.
        -11    1    4    4    0    0  0.49685826075E-01 -0.35317568893E-02  0.90343883832E-01  0.10316701550E+00  0.51100000000E-03 0. -1.
         11    1    4    4    0    0  0.75601415519E-02 -0.94894696496E-02  0.24494302237E-01  0.27339307555E-01  0.51100000000E-03 0.  1.
</event>
<event>
 8    1  0.1097777E+005  0.1043930E+01  0.7957747E-01            NaN
         13   -1    0    0    0    0  0.00000000000E+00  0.00000000000E+00  0.74505805969E-08  0.10566000000E+00  0.10566000000E+00 0.  1.
     999900   -1    0    0    0    0 -0.00000000000E+00 -0.00000000000E+00 -0.74505805969E-08  0.93827000000E+00  0.93827000000E+00 0.  1.
     999902    2    1    2    0    0  0.10904424139E-01  0.13930376067E-01 -0.15526579947E-01  0.10203920195E+01  0.10201205011E+01 0.  0.
     999903    2    3    3    0    0  0.68048358764E-01  0.75402665640E-01  0.80424876852E-01  0.13120646306E+00  0.20756541501E-01 0.  0.
         14    1    1    2    0    0 -0.10904424139E-01 -0.13930376067E-01  0.15526579947E-01  0.23537980543E-01  0.00000000000E+00 0.  1.
     999901    1    3    3    0    0 -0.57143934625E-01 -0.61472289573E-01 -0.95951456799E-01  0.88918555640E+00  0.88000000000E+00 0. -1.
        -11    1    4    4    0    0  0.23304225009E-01  0.39036670477E-01  0.42148373040E-01  0.61997540404E-01  0.51100000000E-03 0. -1.
         11    1    4    4    0    0  0.44744133755E-01  0.36365995162E-01  0.38276503812E-01  0.69208922652E-01  0.51100000000E-03 0.  1.
</event>
<event>
 8    1  0.1097777E+005  0.1043930E+01  0.7957747E-01            NaN
         13   -1    0    0    0    0  0.00000000000E+00  0.00000000000E+00  0.74505805969E-08  0.10566000000E+00  0.10566000000E+00 0. -1.
     999900   -1    0    0    0    0 -0.00000000000E+00 -0.00000000000E+00 -0.74505805969E-08  0.93827000000E+00  0.93827000000E+00 0.  1.
     999902    2    1    2    0    0  0.11981986474E-01  0.53468246014E-02 -0.19323644605E-01  0.10205727790E+01  0.10203054628E+01 0.  0.
     999903    2    3    3    0    0 -0.16150813973E-01 -0.12719076766E+00  0.42800172729E-02  0.12989056815E+00  0.20369118214E-01 0.  0.
         14    1    1    2    0    0 -0.11981986474E-01 -0.53468246014E-02  0.19323644605E-01  0.23357221025E-01  0.00000000000E+00 0. -1.
     999901    1    3    3    0    0  0.28132800447E-01  0.13253759226E+00 -0.23603661878E-01  0.89068221082E+00  0.88000000000E+00 0.  1.
        -11    1    4    4    0    0 -0.14775813880E-01 -0.42646589600E-01  0.42216104952E-02  0.45333645304E-01  0.51100000000E-03 0. -1.
         11    1    4    4    0    0 -0.13750000930E-02 -0.84544178061E-01  0.58406777730E-04  0.84556922848E-01  0.51100000000E-03 0.  1.
</event>
<event>
 8    1  0.1097777E+005  0.1043930E+01  0.7957747E-01            NaN
         13   -1    0    0    0    0  0.00000000000E+00  0.00000000000E+00  0.74505805969E-08  0.10566000000E+00  0.10566000000E+00 0. -1.
     999900   -1    0    0    0    0 -0.00000000000E+00 -0.00000000000E+00 -0.74505805969E-08  0.93827000000E+00  0.93827000000E+00 0.  1.
     999902    2    1    2    0    0  0.74024007330E-02 -0.87387772124E-02 -0.21087212740E-01  0.10199334939E+01  0.10196511657E+01 0.  0.
     999903    2    3    3    0    0  0.71853251322E-01 -0.10194126249E+00 -0.39679332637E-01  0.13247291319E+00  0.20486887641E-01 0.  0.
         14    1    1    2    0    0 -0.74024007330E-02  0.87387772124E-02  0.21087212740E-01  0.23996506098E-01  0.00000000000E+00 0. -1.
     999901    1    3    3    0    0 -0.64450850589E-01  0.93202485279E-01  0.18592119897E-01  0.88746058072E+00  0.88000000000E+00 0. -1.
        -11    1    4    4    0    0  0.43716362586E-01 -0.63679477889E-01 -0.34820758304E-01  0.84728640918E-01  0.51100000000E-03 0. -1.
         11    1    4    4    0    0  0.28136888736E-01 -0.38261784603E-01 -0.48585743329E-02  0.47744272267E-01  0.51100000000E-03 0.  1.
</event>
<event>
 8    1  0.1097777E+005  0.1043930E+01  0.7957747E-01            NaN
         13   -1    0    0    0    0  0.00000000000E+00  0.00000000000E+00  0.74505805969E-08  0.10566000000E+00  0.10566000000E+00 0. -1.
     999900   -1    0    0    0    0 -0.00000000000E+00 -0.00000000000E+00 -0.74505805969E-08  0.93827000000E+00  0.93827000000E+00 0.  1.
     999902    2    1    2    0    0 -0.91556487545E-02  0.19362056725E-01  0.12569594233E-01  0.10190963566E+01  0.10187937349E+01 0.  0.
     999903    2    3    3    0    0  0.18715002729E-02  0.97226909441E-01  0.87672686197E-01  0.13240305692E+00  0.19684896311E-01 0.  0.
         14    1    1    2    0    0  0.91556487545E-02 -0.19362056725E-01 -0.12569594233E-01  0.24833643388E-01  0.00000000000E+00 0.  1.
     999901    1    3    3    0    0 -0.11027149027E-01 -0.77864852715E-01 -0.75103091964E-01  0.88669329970E+00  0.88000000000E+00 0.  1.
        -11    1    4    4    0    0 -0.36711625555E-02  0.84205308111E-01  0.80398969827E-01  0.11648290355E+00  0.51100000000E-03 0.  1.
         11    1    4    4    0    0  0.55426628284E-02  0.13021601329E-01  0.72737163702E-02  0.15920153368E-01  0.51100000000E-03 0. -1.
</event>
<event>
 8    1  0.1097777E+005  0.1043930E+01  0.7957747E-01            NaN
         13   -1    0    0    0    0  0.00000000000E+00  0.00000000000E+00  0.74505805969E-08  0.10566000000E+00  0.10566000000E+00 0. -1.
     999900   -1    0    0    0    0 -0.00000000000E+00 -0.00000000000E+00 -0.74505805969E-08  0.93827000000E+00  0.93827000000E+00 0. -1.
     999902    2    1    2    0    0  0.82852151947E-02 -0.21902401347E-01 -0.41539847347E-02  0.10201473264E+01  0.10198700662E+01 0.  0.
     999903    2    3    3    0    0  0.80174315927E-01 -0.10403144061E+00 -0.11297361486E-01  0.13337551259E+00  0.20271541927E-01 0.  0.
         14    1    1    2    0    0 -0.82852151947E-02  0.21902401347E-01  0.41539847347E-02  0.23782673625E-01  0.00000000000E+00 0. -1.
     999901    1    3    3    0    0 -0.71889100733E-01  0.82129039262E-01  0.71433767516E-02  0.88677181379E+00  0.88000000000E+00 0.  1.
        -11    1    4    4    0    0  0.24056367243E-01 -0.46803641726E-01 -0.72126388686E-02  0.53118480439E-01  0.51100000000E-03 0. -1.
         11    1    4    4    0    0  0.56117948684E-01 -0.57227798883E-01 -0.40847226177E-02  0.80257032149E-01  0.51100000000E-03 0.  1.
</event>
<event>
 8    1  0.1097777E+005  0.1043930E+01  0.7957747E-01            NaN
         13   -1    0    0    0    0  0.00000000000E+00  0.00000000000E+00  0.74505805969E-08  0.10566000000E+00  0.10566000000E+00 0.  1.
     999900   -1    0    0    0    0 -0.00000000000E+00 -0.00000000000E+00 -0.74505805969E-08  0.93827000000E+00  0.93827000000E+00 0.  1.
     999902    2    1    2    0    0  0.43990025738E-02 -0.22516151022E-01  0.71330165263E-03  0.10209770682E+01  0.10207190292E+01 0.  0.
     999903    2    3    3    0    0  0.19897869005E-01 -0.10704194167E+00 -0.74682377652E-01  0.13358237999E+00  0.20319750141E-01 0.  0.
         14    1    1    2    0    0 -0.43990025738E-02  0.22516151022E-01 -0.71330165263E-03  0.22952931834E-01  0.00000000000E+00 0.  1.
     999901    1    3    3    0    0 -0.15498866431E-01  0.84525790643E-01  0.75395679305E-01  0.88739468818E+00  0.88000000000E+00 0. -1.
        -11    1    4    4    0    0  0.18306821163E-01 -0.52078417698E-01 -0.30694154295E-01  0.63164020771E-01  0.51100000000E-03 0. -1.
         11    1    4    4    0    0  0.15910478420E-02 -0.54963523967E-01 -0.43988223357E-01  0.70418359220E-01  0.51100000000E-03 0.  1.
</event>
<event>
 8    1  0.1097777E+005  0.1043930E+01  0.7957747E-01            NaN
         13   -1    0    0    0    0  0.00000000000E+00  0.00000000000E+00  0.74505805969E-08  0.10566000000E+00  0.10566000000E+00 0. -1.
     999900   -1    0    0    0    0 -0.00000000000E+00 -0.00000000000E+00 -0.74505805969E-08  0.93827000000E+00  0.93827000000E+00 0. -1.
     999902    2    1    2    0    0 -0.59290293240E-02 -0.21909143562E-01 -0.59538289255E-02  0.10204648761E+01  0.10201950555E+01 0.  0.
     999903    2    3    3    0    0 -0.13914486998E-01  0.11953961816E+00 -0.40443175007E-01  0.12846653826E+00  0.19612949560E-01 0.  0.
         14    1    1    2    0    0  0.59290293240E-02  0.21909143562E-01  0.59538289255E-02  0.23465123891E-01  0.00000000000E+00 0.  1.
     999901    1    3    3    0    0  0.79854576738E-02 -0.14144876172E+00  0.34489346082E-01  0.89199833785E+00  0.88000000000E+00 0. -1.
        -11    1    4    4    0    0 -0.18419744148E-01  0.83022855287E-01 -0.30533074181E-01  0.90358238221E-01  0.51100000000E-03 0. -1.
         11    1    4    4    0    0  0.45052571503E-02  0.36516762873E-01 -0.99101008262E-02  0.38108300042E-01  0.51100000000E-03 0.  1.
</event>
<event>
 8    1  0.1097777E+005  0.1043930E+01  0.7957747E-01            NaN
         13   -1    0    0    0    0  0.00000000000E+00  0.00000000000E+00  0.74505805969E-08  0.10566000000E+00  0.10566000000E+00 0.  1.
     999900   -1    0    0    0    0 -0.00000000000E+00 -0.00000000000E+00 -0.74505805969E-08  0.93827000000E+00  0.93827000000E+00 0.  1.
     999902    2    1    2    0    0 -0.19293762379E-01  0.92621747699E-02 -0.84453080579E-02  0.10209221671E+01  0.10206628781E+01 0.  0.
     999903    2    3    3    0    0  0.46560106716E-01 -0.11273381169E+00  0.36807902571E-01  0.12892014584E+00  0.19718683431E-01 0.  0.
         14    1    1    2    0    0  0.19293762379E-01 -0.92621747699E-02  0.84453080579E-02  0.23007832936E-01  0.00000000000E+00 0.  1.
     999901    1    3    3    0    0 -0.65853869094E-01  0.12199598646E+00 -0.45253210629E-01  0.89200202122E+00  0.88000000000E+00 0.  1.
        -11    1    4    4    0    0  0.32505466639E-01 -0.61883490000E-01  0.28594298777E-01  0.75525272191E-01  0.51100000000E-03 0. -1.
         11    1    4    4    0    0  0.14054640077E-01 -0.50850321695E-01  0.82136037939E-02  0.53394873654E-01  0.51100000000E-03 0.  1.
</event>
<event>
 8    1  0.1097777E+005  0.1043930E+01  0.7957747E-01            NaN
         13   -1    0    0    0    0  0.00000000000E+00  0.00000000000E+00  0.74505805969E-08  0.10566000000E+00  0.10566000000E+00 0.  1.
     999900   -1    0    0    0    0 -0.00000000000E+00 -0.00000000000E+00 -0.74505805969E-08  0.93827000000E+00  0.93827000000E+00 0.  1.
     999902    2    1    2    0    0  0.30082268686E-03 -0.52048504852E-02 -0.25518684554E-01  0.10178841899E+01  0.10175509028E+01 0.  0.
     999903    2    3    3    0    0  0.67191646385E-01 -0.29426959731E-01 -0.10710610802E+00  0.13125145841E+00  0.19353647105E-01 0.  0.
         14    1    1    2    0    0 -0.30082268686E-03  0.52048504852E-02  0.25518684554E-01  0.26045810109E-01  0.00000000000E+00 0.  1.
     999901    1    3    3    0    0 -0.66890823698E-01  0.24222109246E-01  0.81587423463E-01  0.88663273148E+00  0.88000000000E+00 0. -1.
        -11    1    4    4    0    0  0.52625498827E-01 -0.26703808626E-01 -0.96145022487E-01  0.11281251257E+00  0.51100000000E-03 0.  1.
         11    1    4    4    0    0  0.14566147558E-01 -0.27231511052E-02 -0.10961085530E-01  0.18438945839E-01  0.51100000000E-03 0. -1.
</event>
<event>
 8    1  0.1097777E+005  0.1043930E+01  0.7957747E-01            NaN
         13   -1    0    0    0    0  0.00000000000E+00  0.00000000000E+00  0.74505805969E-08  0.10566000000E+00  0.10566000000E+00 0.  1.
     999900   -1    0    0    0    0 -0.00000000000E+00 -0.00000000000E+00 -0.74505805969E-08  0.93827000000E+00  0.93827000000E+00 0. -1.
     999902    2    1    2    0    0 -0.14660862261E-01 -0.58947896722E-02 -0.18439276399E-01  0.10196463359E+01  0.10193571278E+01 0.  0.
     999903    2    3    3    0    0  0.12302512801E+00 -0.30546479889E-01 -0.79701447467E-02  0.12853762174E+00  0.19751643965E-01 0.  0.
         14    1    1    2    0    0  0.14660862261E-01  0.58947896722E-02  0.18439276399E-01  0.24283664091E-01  0.00000000000E+00 0.  1.
     999901    1    3    3    0    0 -0.13768599027E+00  0.24651690217E-01 -0.10469131653E-01  0.89110871417E+00  0.88000000000E+00 0.  1.
        -11    1    4    4    0    0  0.32913381403E-01 -0.16158569481E-02 -0.79155493697E-02  0.33894228297E-01  0.51100000000E-03 0. -1.
         11    1    4    4    0    0  0.90111746610E-01 -0.28930622941E-01 -0.54595376942E-04  0.94643393444E-01  0.51100000000E-03 0.  1.
</event>
<event>
 8    1  0.1097777E+005  0.1043930E+01  0.7957747E-01            NaN
         13   -1    0    0    0    0  0.00000000000E+00  0.00000000000E+00  0.74505805969E-08  0.10566000000E+00  0.10566000000E+00 0.  1.
     999900   -1    0    0    0    0 -0.00000000000E+00 -0.00000000000E+00 -0.74505805969E-08  0.93827000000E+00  0.93827000000E+00 0. -1.
     999902    2    1    2    0    0  0.72486168107E-02 -0.18559613663E-01  0.13011620532E-01  0.10201328579E+01  0.10198552563E+01 0.  0.
     999903    2    3    3    0    0  0.65647350615E-01 -0.78022894629E-01 -0.79574814481E-01  0.13135924111E+00  0.22933652037E-01 0.  0.
         14    1    1    2    0    0 -0.72486168107E-02  0.18559613663E-01 -0.13011620532E-01  0.23797142136E-01  0.00000000000E+00 0. -1.
     999901    1    3    3    0    0 -0.58398733804E-01  0.59463280966E-01  0.92586435013E-01  0.88877361676E+00  0.88000000000E+00 0.  1.
        -11    1    4    4    0    0  0.26303001427E-01 -0.15468536613E-01 -0.20746516609E-01  0.36902609412E-01  0.51100000000E-03 0. -1.
         11    1    4    4    0    0  0.39344349188E-01 -0.62554358016E-01 -0.58828297872E-01  0.94456631696E-01  0.51100000000E-03 0.  1.
</event>
<event>
 8    1  0.1097777E+005  0.1043930E+01  0.7957747E-01            NaN
         13   -1    0    0    0    0  0.00000000000E+00  0.00000000000E+00  0.74505805969E-08  0.10566000000E+00  0.10566000000E+00 0. -1.
     999900   -1    0    0    0    0 -0.00000000000E+00 -0.00000000000E+00 -0.74505805969E-08  0.93827000000E+00  0.93827000000E+00 0. -1.
     999902    2    1    2    0    0  0.75534787157E-02 -0.42399078350E-02 -0.19162712560E-01  0.10229004633E+01  0.10226842702E+01 0.  0.
     999903    2    3    3    0    0  0.10821565561E+00 -0.69342059220E-01 -0.34522511845E-01  0.13463975420E+00  0.20423278191E-01 0.  0.
         14    1    1    2    0    0 -0.75534787157E-02  0.42399078350E-02  0.19162712560E-01  0.21029536653E-01  0.00000000000E+00 0. -1.
     999901    1    3    3    0    0 -0.10066217690E+00  0.65102151385E-01  0.15359799284E-01  0.88826070914E+00  0.88000000000E+00 0.  1.
        -11    1    4    4    0    0  0.96157203381E-01 -0.56015303691E-01 -0.24121905401E-01  0.11386856217E+00  0.51100000000E-03 0. -1.
         11    1    4    4    0    0  0.12058452230E-01 -0.13326755530E-01 -0.10400606444E-01  0.20771192034E-01  0.51100000000E-03 0.  1.
</event>
<event>
 8    1  0.1097777E+005  0.1043930E+01  0.7957747E-01            NaN
         13   -1    0    0    0    0  0.00000000000E+00  0.00000000000E+00  0.74505805969E-08  0.10566000000E+00  0.10566000000E+00 0.  1.
     999900   -1    0    0    0    0 -0.00000000000E+00 -0.00000000000E+00 -0.74505805969E-08  0.93827000000E+00  0.93827000000E+00 0. -1.
     999902    2    1    2    0    0  0.91168891652E-02 -0.17210975021E-01 -0.12981081589E-01  0.10205239365E+01  0.10202554882E+01 0.  0.
     999903    2    3    3    0    0 -0.70332459036E-01 -0.10147337393E+00 -0.44845515272E-01  0.13236421386E+00  0.16299216521E-01 0.  0.
         14    1    1    2    0    0 -0.91168891652E-02  0.17210975021E-01  0.12981081589E-01  0.23406063497E-01  0.00000000000E+00 0.  1.
     999901    1    3    3    0    0  0.79449348201E-01  0.84262398908E-01  0.31864433683E-01  0.88815972265E+00  0.88000000000E+00 0.  1.
        -11    1    4    4    0    0 -0.23660716770E-01 -0.22303311966E-01 -0.92759428144E-02  0.33816733710E-01  0.51100000000E-03 0. -1.
         11    1    4    4    0    0 -0.46671742266E-01 -0.79170061962E-01 -0.35569572457E-01  0.98547480145E-01  0.51100000000E-03 0.  1.
</event>
<event>
 8    1  0.1097777E+005  0.1043930E+01  0.7957747E-01            NaN
         13   -1    0    0    0    0  0.00000000000E+00  0.00000000000E+00  0.74505805969E-08  0.10566000000E+00  0.10566000000E+00 0.  1.
     999900   -1    0    0    0    0 -0.00000000000E+00 -0.00000000000E+00 -0.74505805969E-08  0.93827000000E+00  0.93827000000E+00 0. -1.
     999902    2    1    2    0    0  0.14606021667E-01  0.23648683883E-02  0.20048000570E-01  0.10190131222E+01  0.10187084433E+01 0.  0.
     999903    2    3    3    0    0 -0.27003436040E-01  0.10045951196E+00  0.77009018217E-01  0.13075726741E+00  0.18595026039E-01 0.  0.
         14    1    1    2    0    0 -0.14606021667E-01 -0.23648683883E-02 -0.20048000570E-01  0.24916877780E-01  0.00000000000E+00 0. -1.
     999901    1    3    3    0    0  0.41609457707E-01 -0.98094643572E-01 -0.56961017647E-01  0.88825585481E+00  0.88000000000E+00 0. -1.
        -11    1    4    4    0    0 -0.25897150709E-01  0.87507122307E-01  0.59497445837E-01  0.10894203069E+00  0.51100000000E-03 0. -1.
         11    1    4    4    0    0 -0.11062853314E-02  0.12952389654E-01  0.17511572380E-01  0.21815236721E-01  0.51100000000E-03 0.  1.
</event>
<event>
 8    1  0.1097777E+005  0.1043930E+01  0.7957747E-01            NaN
         13   -1    0    0    0    0  0.00000000000E+00  0.00000000000E+00  0.74505805969E-08  0.10566000000E+00  0.10566000000E+00 0. -1.
     999900   -1    0    0    0    0 -0.00000000000E+00 -0.00000000000E+00 -0.74505805969E-08  0.93827000000E+00  0.93827000000E+00 0. -1.
     999902    2    1    2    0    0  0.17635747059E-02  0.12434953109E-01 -0.20812140859E-01  0.10196219054E+01  0.10193321081E+01 0.  0.
     999903    2    3    3    0    0  0.12413450702E+00  0.29735081351E-01 -0.21829840333E-01  0.13098532323E+00  0.19673893240E-01 0.  0.
         14    1    1    2    0    0 -0.17635747059E-02 -0.12434953109E-01  0.20812140859E-01  0.24308094571E-01  0.00000000000E+00 0. -1.
     999901    1    3    3    0    0 -0.12237093232E+00 -0.17300128243E-01  0.10176994747E-02  0.88863658220E+00  0.88000000000E+00 0. -1.
        -11    1    4    4    0    0  0.55309517836E-01  0.32683242758E-02 -0.88063266045E-02  0.56103807501E-01  0.51100000000E-03 0.  1.
         11    1    4    4    0    0  0.68824989188E-01  0.26466757076E-01 -0.13023513729E-01  0.74881515727E-01  0.51100000000E-03 0. -1.
</event>
<event>
 7    1  0.1097777E+005  0.1043930E+01  0.7957747E-01            NaN
         13   -1    0    0    0    0  0.00000000000E+00  0.00000000000E+00  0.74505805969E-08  0.10566000000E+00  0.10566000000E+00 0.  1.
     999900   -1    0    0    0    0 -0.00000000000E+00 -0.00000000000E+00 -0.74505805969E-08  0.93827000000E+00  0.93827000000E+00 0. -1.
     999903    2    1    2    0    0 -0.65208223867E-01  0.16244788645E-01 -0.26539943407E-01  0.75068211140E-01  0.20368164121E-01 0.  0.
         14    1    1    2    0    0 -0.14625697117E-01 -0.77523979437E-01 -0.21672954219E-01  0.81814395728E-01  0.00000000000E+00 0.  1.
     999901    1    1    2    0    0  0.79833920984E-01  0.61279190791E-01  0.48212897626E-01  0.88704739313E+00  0.88000000000E+00 0.  1.
        -11    1    3    3    0    0 -0.52072777912E-01  0.12030648452E-01 -0.29357921170E-01  0.60979171511E-01  0.51100000000E-03 0. -1.
         11    1    3    3    0    0 -0.13135445955E-01  0.42141401935E-02  0.28179777634E-02  0.14089039630E-01  0.51100000000E-03 0.  1.
</event>
<event>
 8    1  0.1097777E+005  0.1043930E+01  0.7957747E-01            NaN
         13   -1    0    0    0    0  0.00000000000E+00  0.00000000000E+00  0.74505805969E-08  0.10566000000E+00  0.10566000000E+00 0. -1.
     999900   -1    0    0    0    0 -0.00000000000E+00 -0.00000000000E+00 -0.74505805969E-08  0.93827000000E+00  0.93827000000E+00 0.  1.
     999902    2    1    2    0    0  0.12284107760E-01 -0.13222324759E-01  0.83340523498E-03  0.10258627993E+01  0.10257036898E+01 0.  0.
     999903    2    3    3    0    0 -0.24155232351E-01 -0.10994058763E+00 -0.74446060708E-01  0.13662197376E+00  0.21282380046E-01 0.  0.
         14    1    1    2    0    0 -0.12284107760E-01  0.13222324759E-01 -0.83340523498E-03  0.18067200662E-01  0.00000000000E+00 0.  1.
     999901    1    3    3    0    0  0.36439340111E-01  0.96718262873E-01  0.75279465943E-01  0.88924082558E+00  0.88000000000E+00 0. -1.
        -11    1    4    4    0    0 -0.83004783649E-02 -0.77392750512E-01 -0.56695340357E-01  0.96297240418E-01  0.51100000000E-03 0.  1.
         11    1    4    4    0    0 -0.15854753986E-01 -0.32547837119E-01 -0.17750720351E-01  0.40324733342E-01  0.51100000000E-03 0. -1.
</event>
<event>
 8    1  0.1097777E+005  0.1043930E+01  0.7957747E-01            NaN
         13   -1    0    0    0    0  0.00000000000E+00  0.00000000000E+00  0.74505805969E-08  0.10566000000E+00  0.10566000000E+00 0. -1.
     999900   -1    0    0    0    0 -0.00000000000E+00 -0.00000000000E+00 -0.74505805969E-08  0.93827000000E+00  0.93827000000E+00 0.  1.
     999902    2    1    2    0    0 -0.36631060177E-02 -0.23485854547E-01  0.33385514360E-02  0.10199268828E+01  0.10196443971E+01 0.  0.
     999903    2    3    3    0    0  0.77634025909E-01  0.99081035591E-01 -0.73082358983E-02  0.12765718126E+00  0.19971279915E-01 0.  0.
         14    1    1    2    0    0  0.36631060177E-02  0.23485854547E-01 -0.33385514360E-02  0.24003117198E-01  0.00000000000E+00 0. -1.
     999901    1    3    3    0    0 -0.81297131927E-01 -0.12256689014E+00  0.10646787334E-01  0.89226970155E+00  0.88000000000E+00 0.  1.
        -11    1    4    4    0    0  0.21753602019E-01  0.22798147488E-01  0.62464103379E-02  0.32128702009E-01  0.51100000000E-03 0.  1.
         11    1    4    4    0    0  0.55880423890E-01  0.76282888103E-01 -0.13554646236E-01  0.95528479247E-01  0.51100000000E-03 0. -1.
</event>
<event>
 8    1  0.1097777E+005  0.1043930E+01  0.7957747E-01            NaN
         13   -1    0    0    0    0  0.00000000000E+00  0.00000000000E+00  0.74505805969E-08  0.10566000000E+00  0.10566000000E+00 0. -1.
     999900   -1    0    0    0    0 -0.00000000000E+00 -0.00000000000E+00 -0.74505805969E-08  0.93827000000E+00  0.93827000000E+00 0.  1.
     999902    2    1    2    0    0  0.26265175845E-02  0.44110881895E-02 -0.26533119526E-01  0.10169047761E+01  0.10165456020E+01 0.  0.
     999903    2    3    3    0    0  0.75867560450E-01 -0.27821962107E-01  0.93196365320E-01  0.12519946077E+00  0.21433482318E-01 0.  0.
         14    1    1    2    0    0 -0.26265175845E-02 -0.44110881895E-02  0.26533119526E-01  0.27025223874E-01  0.00000000000E+00 0. -1.
     999901    1    3    3    0    0 -0.73241042866E-01  0.32233050297E-01 -0.11972948485E+00  0.89170531536E+00  0.88000000000E+00 0.  1.
        -11    1    4    4    0    0  0.31338056898E-01 -0.36383622508E-02  0.25110634794E-01  0.40325135967E-01  0.51100000000E-03 0.  1.
         11    1    4    4    0    0  0.44529503552E-01 -0.24183599856E-01  0.68085730526E-01  0.84874324803E-01  0.51100000000E-03 0. -1.
</event>
<event>
 8    1  0.1097777E+005  0.1043930E+01  0.7957747E-01            NaN
         13   -1    0    0    0    0  0.00000000000E+00  0.00000000000E+00  0.74505805969E-08  0.10566000000E+00  0.10566000000E+00 0. -1.
     999900   -1    0    0    0    0 -0.00000000000E+00 -0.00000000000E+00 -0.74505805969E-08  0.93827000000E+00  0.93827000000E+00 0.  1.
     999902    2    1    2    0    0  0.11961600649E-02 -0.47551772128E-03 -0.22914683217E-01  0.10209791912E+01  0.10207212006E+01 0.  0.
     999903    2    3    3    0    0  0.47769541534E-01  0.10444020689E+00 -0.63472158386E-01  0.13259791165E+00  0.19073682659E-01 0.  0.
         14    1    1    2    0    0 -0.11961600649E-02  0.47551772128E-03  0.22914683217E-01  0.22950808765E-01  0.00000000000E+00 0. -1.
     999901    1    3    3    0    0 -0.46573381469E-01 -0.10491572461E+00  0.40557475169E-01  0.88838127959E+00  0.88000000000E+00 0. -1.
        -11    1    4    4    0    0  0.29775228957E-01  0.82216547802E-01 -0.52319561877E-01  0.10190055283E+00  0.51100000000E-03 0.  1.
         11    1    4    4    0    0  0.17994312576E-01  0.22223659085E-01 -0.11152596509E-01  0.30697358813E-01  0.51100000000E-03 0. -1.
</event>
<event>
 8    1  0.1097777E+005  0.1043930E+01  0.7957747E-01            NaN
         13   -1    0    0    0    0  0.00000000000E+00  0.00000000000E+00  0.74505805969E-08  0.10566000000E+00  0.10566000000E+00 0. -1.
     999900   -1    0    0    0    0 -0.00000000000E+00 -0.00000000000E+00 -0.74505805969E-08  0.93827000000E+00  0.93827000000E+00 0. -1.
     999902    2    1    2    0    0  0.99126549292E-02  0.18198892818E-01  0.12525515615E-01  0.10197153563E+01  0.10194278096E+01 0.  0.
     999903    2    3    3    0    0  0.56695340423E-01 -0.27133294388E-01  0.11392255458E+00  0.13150086286E+00  0.19067018720E-01 0.  0.
         14    1    1    2    0    0 -0.99126549292E-02 -0.18198892818E-01 -0.12525515615E-01  0.24214643688E-01  0.00000000000E+00 0.  1.
     999901    1    3    3    0    0 -0.46782685494E-01  0.45332187205E-01 -0.10139703896E+00  0.88821449345E+00  0.88000000000E+00 0.  1.
        -11    1    4    4    0    0  0.31080661004E-01 -0.90791135869E-02  0.41911965845E-01  0.52965194175E-01  0.51100000000E-03 0. -1.
         11    1    4    4    0    0  0.25614679419E-01 -0.18054180801E-01  0.72010588731E-01  0.78535668690E-01  0.51100000000E-03 0.  1.
</event>
<event>
 8    1  0.1097777E+005  0.1043930E+01  0.7957747E-01            NaN
         13   -1    0    0    0    0  0.00000000000E+00  0.00000000000E+00  0.74505805969E-08  0.10566000000E+00  0.10566000000E+00 0.  1.
     999900   -1    0    0    0    0 -0.00000000000E+00 -0.00000000000E+00 -0.74505805969E-08  0.93827000000E+00  0.93827000000E+00 0. -1.
     999902    2    1    2    0    0 -0.12445740552E-01  0.19512875183E-01 -0.60282929479E-03  0.10207780636E+01  0.10205154790E+01 0.  0.
     999903    2    3    3    0    0  0.59636302375E-01 -0.80848255644E-01 -0.77601730842E-01  0.12881561578E+00  0.21874762547E-01 0.  0.
         14    1    1    2    0    0  0.12445740552E-01 -0.19512875183E-01  0.60282929479E-03  0.23151936397E-01  0.00000000000E+00 0. -1.
     999901    1    3    3    0    0 -0.72082042927E-01  0.10036113083E+00  0.76998901547E-01  0.89196244783E+00  0.88000000000E+00 0. -1.
        -11    1    4    4    0    0  0.53934000791E-01 -0.68166674448E-01 -0.56967633120E-01  0.10392855378E+00  0.51100000000E-03 0.  1.
         11    1    4    4    0    0  0.57023015847E-02 -0.12681581196E-01 -0.20634097722E-01  0.24887061996E-01  0.51100000000E-03 0. -1.
</event>
<event>
 8    1  0.1097777E+005  0.1043930E+01  0.7957747E-01            NaN
         13   -1    0    0    0    0  0.00000000000E+00  0.00000000000E+00  0.74505805969E-08  0.10566000000E+00  0.10566000000E+00 0.  1.
     999900   -1    0    0    0    0 -0.00000000000E+00 -0.00000000000E+00 -0.74505805969E-08  0.93827000000E+00  0.93827000000E+00 0.  1.
     999902    2    1    2    0    0  0.40425882578E-02  0.23246009162E-01 -0.37760465446E-02  0.10200348543E+01  0.10197549343E+01 0.  0.
     999903    2    3    3    0    0 -0.30368678414E-01  0.12599151871E+00  0.21837207482E-01  0.13301917584E+00  0.20521162098E-01 0.  0.
         14    1    1    2    0    0 -0.40425882578E-02 -0.23246009162E-01  0.37760465446E-02  0.23895145727E-01  0.00000000000E+00 0.  1.
     999901    1    3    3    0    0  0.34411266672E-01 -0.10274550955E+00 -0.25613254027E-01  0.88701567843E+00  0.88000000000E+00 0.  1.
        -11    1    4    4    0    0 -0.27861700699E-01  0.11167273795E+00  0.25779578320E-01  0.11794881325E+00  0.51100000000E-03 0. -1.
         11    1    4    4    0    0 -0.25069777150E-02  0.14318780761E-01 -0.39423708376E-02  0.15070362589E-01  0.51100000000E-03 0.  1.
</event>
<event>
 8    1  0.1097777E+005  0.1043930E+01  0.7957747E-01            NaN
         13   -1    0    0    0    0  0.00000000000E+00  0.00000000000E+00  0.74505805969E-08  0.10566000000E+00  0.10566000000E+00 0. -1.
     999900   -1    0    0    0    0 -0.00000000000E+00 -0.00000000000E+00 -0.74505805969E-08  0.93827000000E+00  0.93827000000E+00 0. -1.
     999902    2    1    2    0    0 -0.16922912152E-01 -0.13663142057E-01  0.10003013596E-01  0.10199899355E+01  0.10197089496E+01 0.  0.
     999903    2    3    3    0    0 -0.54975670576E-01 -0.33763142269E-01 -0.11121485762E+00  0.13063860183E+00  0.23139265324E-01 0.  0.
         14    1    1    2    0    0  0.16922912152E-01  0.13663142057E-01 -0.10003013596E-01  0.23940064485E-01  0.00000000000E+00 0.  1.
     999901    1    3    3    0    0  0.38052758425E-01  0.20100000212E-01  0.12121787122E+00  0.88935133369E+00  0.88000000000E+00 0.  1.
        -11    1    4    4    0    0 -0.20442455676E-01 -0.14953691671E-02 -0.43133460682E-01  0.47758629319E-01  0.51100000000E-03 0. -1.
         11    1    4    4    0    0 -0.34533214900E-01 -0.32267773102E-01 -0.68081396940E-01  0.82879972506E-01  0.51100000000E-03 0.  1.
</event>
<event>
 8    1  0.1097777E+005  0.1043930E+01  0.7957747E-01            NaN
         13   -1    0    0    0    0  0.00000000000E+00  0.00000000000E+00  0.74505805969E-08  0.10566000000E+00  0.10566000000E+00 0.  1.
     999900   -1    0    0    0    0 -0.00000000000E+00 -0.00000000000E+00 -0.74505805969E-08  0.93827000000E+00  0.93827000000E+00 0.  1.
     999902    2    1    2    0    0 -0.15866147445E-01 -0.17497955273E-01 -0.17421761931E-03  0.10203091739E+01  0.10200357185E+01 0.  0.
     999903    2    3    3    0    0  0.88325802315E-01  0.42818832124E-01 -0.78163315374E-01  0.12869469634E+00  0.28599322674E-01 0.  0.
         14    1    1    2    0    0  0.15866147445E-01  0.17497955273E-01  0.17421761931E-03  0.23620826092E-01  0.00000000000E+00 0. -1.
     999901    1    3    3    0    0 -0.10419194976E+00 -0.60316787397E-01  0.77989097754E-01  0.89161447757E+00  0.88000000000E+00 0.  1.
        -11    1    4    4    0    0  0.62384370854E-01  0.16188377300E-01 -0.42703587706E-01  0.77315786295E-01  0.51100000000E-03 0. -1.
         11    1    4    4    0    0  0.25941431460E-01  0.26630454824E-01 -0.35459727668E-01  0.51378910047E-01  0.51100000000E-03 0.  1.
</event>
<event>
 8    1  0.1097777E+005  0.1043930E+01  0.7957747E-01            NaN
         13   -1    0    0    0    0  0.00000000000E+00  0.00000000000E+00  0.74505805969E-08  0.10566000000E+00  0.10566000000E+00 0. -1.
     999900   -1    0    0    0    0 -0.00000000000E+00 -0.00000000000E+00 -0.74505805969E-08  0.93827000000E+00  0.93827000000E+00 0. -1.
     999902    2    1    2    0    0  0.15674937082E-01  0.14492550004E-01  0.97420413700E-02  0.10204641732E+01  0.10201943363E+01 0.  0.
     999903    2    3    3    0    0 -0.47938792608E-01  0.27561985752E-01  0.11777669531E+00  0.13148216931E+00  0.18931983345E-01 0.  0.
         14    1    1    2    0    0 -0.15674937082E-01 -0.14492550004E-01 -0.97420413700E-02  0.23465826817E-01  0.00000000000E+00 0.  1.
     999901    1    3    3    0    0  0.63613729690E-01 -0.13069435747E-01 -0.10803465394E+00  0.88898200387E+00  0.88000000000E+00 0. -1.
        -11    1    4    4    0    0 -0.85970925066E-02  0.11643931007E-01  0.44542100861E-01  0.46837495653E-01  0.51100000000E-03 0. -1.
         11    1    4    4    0    0 -0.39341700102E-01  0.15918054745E-01  0.73234594449E-01  0.84644673659E-01  0.51100000000E-03 0.  1.
</event>
<event>
 8    1  0.1097777E+005  0.1043930E+01  0.7957747E-01            NaN
         13   -1    0    0    0    0  0.00000000000E+00  0.00000000000E+00  0.74505805969E-08  0.10566000000E+00  0.10566000000E+00 0. -1.
     999900   -1    0    0    0    0 -0.00000000000E+00 -0.00000000000E+00 -0.74505805969E-08  0.93827000000E+00  0.93827000000E+00 0.  1.
     999902    2    1    2    0    0  0.10067887887E-01 -0.11074799762E-01  0.18228195979E-01  0.10203443967E+01  0.10200717657E+01 0.  0.
     999903    2    3    3    0    0  0.92771247213E-01  0.80982302251E-01 -0.36981869368E-01  0.12997227951E+00  0.18986763620E-01 0.  0.
         14    1    1    2    0    0 -0.10067887887E-01  0.11074799762E-01 -0.18228195979E-01  0.23585603340E-01  0.00000000000E+00 0.  1.
     999901    1    3    3    0    0 -0.82703359327E-01 -0.92057102013E-01  0.55210065347E-01  0.89037211715E+00  0.88000000000E+00 0. -1.
        -11    1    4    4    0    0  0.23486611111E-01  0.11613842625E-01 -0.38838522459E-02  0.26492407804E-01  0.51100000000E-03 0.  1.
         11    1    4    4    0    0  0.69284636103E-01  0.69368459626E-01 -0.33098017122E-01  0.10347987171E+00  0.51100000000E-03 0. -1.
</event>
<event>
 8    1  0.1097777E+005  0.1043930E+01  0.7957747E-01            NaN
         13   -1    0    0    0    0  0.00000000000E+00  0.00000000000E+00  0.74505805969E-08  0.10566000000E+00  0.10566000000E+00 0. -1.
     999900   -1    0    0    0    0 -0.00000000000E+00 -0.00000000000E+00 -0.74505805969E-08  0.93827000000E+00  0.93827000000E+00 0. -1.
     999902    2    1    2    0    0  0.24958913589E-02  0.38256340532E-02  0.23006016647E-01  0.10204748992E+01  0.10202053118E+01 0.  0.
     999903    2    3    3    0    0  0.12711333859E+00  0.25986110199E-01  0.83646615721E-02  0.13129833402E+00  0.18335926010E-01 0.  0.
         14    1    1    2    0    0 -0.24958913589E-02 -0.38256340532E-02 -0.23006016647E-01  0.23455100757E-01  0.00000000000E+00 0.  1.
     999901    1    3    3    0    0 -0.12461744723E+00 -0.22160476146E-01  0.14641355075E-01  0.88917656522E+00  0.88000000000E+00 0.  1.
        -11    1    4    4    0    0  0.27752250130E-01 -0.19245744240E-02  0.17992410649E-02  0.27881710195E-01  0.51100000000E-03 0. -1.
         11    1    4    4    0    0  0.99361088462E-01  0.27910684623E-01  0.65654205072E-02  0.10341662383E+00  0.51100000000E-03 0.  1.
</event>
<event>
 7    1  0.1097777E+005  0.1043930E+01  0.7957747E-01            NaN
         13   -1    0    0    0    0  0.00000000000E+00  0.00000000000E+00  0.74505805969E-08  0.10566000000E+00  0.10566000000E+00 0.  1.
     999900   -1    0    0    0    0 -0.00000000000E+00 -0.00000000000E+00 -0.74505805969E-08  0.93827000000E+00  0.93827000000E+00 0. -1.
     999903    2    1    2    0    0 -0.82590446400E-02  0.93610413629E-01 -0.62413265692E-01  0.11427998906E+00  0.18258663902E-01 0.  0.
         14    1    1    2    0    0  0.33210275423E-01 -0.29765203788E-01  0.79987831244E-02  0.45308611562E-01  0.00000000000E+00 0. -1.
     999901    1    1    2    0    0 -0.24951230783E-01 -0.63845209841E-01  0.54414482568E-01  0.88434139938E+00  0.88000000000E+00 0.  1.
        -11    1    3    3    0    0 -0.63206494807E-02  0.23938530755E-01 -0.85721917203E-02  0.26205866833E-01  0.51100000000E-03 0.  1.
         11    1    3    3    0    0 -0.19383951594E-02  0.69671882874E-01 -0.53841073972E-01  0.88074122229E-01  0.51100000000E-03 0. -1.
</event>
<event>
 8    1  0.1097777E+005  0.1043930E+01  0.7957747E-01            NaN
         13   -1    0    0    0    0  0.00000000000E+00  0.00000000000E+00  0.74505805969E-08  0.10566000000E+00  0.10566000000E+00 0. -1.
     999900   -1    0    0    0    0 -0.00000000000E+00 -0.00000000000E+00 -0.74505805969E-08  0.93827000000E+00  0.93827000000E+00 0.  1.
     999902    2    1    2    0    0  0.11367123804E-01  0.83057532104E-02 -0.18769702856E-01  0.10204672895E+01  0.10201975250E+01 0.  0.
     999903    2    3    3    0    0 -0.51180822412E-01 -0.32323119362E-01 -0.11578808304E+00  0.13199921635E+00  0.18779039231E-01 0.  0.
         14    1    1    2    0    0 -0.11367123804E-01 -0.83057532104E-02  0.18769702856E-01  0.23462710527E-01  0.00000000000E+00 0. -1.
     999901    1    3    3    0    0  0.62547946216E-01  0.40628872572E-01  0.97018380188E-01  0.88846807312E+00  0.88000000000E+00 0. -1.
        -11    1    4    4    0    0 -0.43826630419E-01 -0.33304927450E-01 -0.93477830213E-01  0.10848206114E+00  0.51100000000E-03 0. -1.
         11    1    4    4    0    0 -0.73541919928E-02  0.98180808801E-03 -0.22310252830E-01  0.23517155214E-01  0.51100000000E-03 0.  1.
</event>
<event>
 8    1  0.1097777E+005  0.1043930E+01  0.7957747E-01            NaN
         13   -1    0    0    0    0  0.00000000000E+00  0.00000000000E+00  0.74505805969E-08  0.10566000000E+00  0.10566000000E+00 0. -1.
     999900   -1    0    0    0    0 -0.00000000000E+00 -0.00000000000E+00 -0.74505805969E-08  0.93827000000E+00  0.93827000000E+00 0.  1.
     999902    2    1    2    0    0 -0.20147741751E-01 -0.52342800306E-02 -0.13781194180E-01  0.10189650146E+01  0.10186591434E+01 0.  0.
     999903    2    3    3    0    0 -0.10700159361E+00  0.38777845371E-01  0.59671937208E-01  0.13055293603E+00  0.23027520272E-01 0.  0.
         14    1    1    2    0    0  0.20147741751E-01  0.52342800306E-02  0.13781194180E-01  0.24964985442E-01  0.00000000000E+00 0.  1.
     999901    1    3    3    0    0  0.86853851855E-01 -0.44012125402E-01 -0.73453131388E-01  0.88841207853E+00  0.88000000000E+00 0.  1.
        -11    1    4    4    0    0 -0.85343278879E-01  0.32650148905E-01  0.36947885342E-01  0.98564267489E-01  0.51100000000E-03 0. -1.
         11    1    4    4    0    0 -0.21658314727E-01  0.61276964657E-02  0.22724051866E-01  0.31988668540E-01  0.51100000000E-03 0.  1.
</event>
<event>
 8    1  0.1097777E+005  0.1043930E+01  0.7957747E-01            NaN
         13   -1    0    0    0    0  0.00000000000E+00  0.00000000000E+00  0.74505805969E-08  0.10566000000E+00  0.10566000000E+00 0. -1.
     999900   -1    0    0    0    0 -0.00000000000E+00 -0.00000000000E+00 -0.74505805969E-08  0.93827000000E+00  0.93827000000E+00 0. -1.
     999902    2    1    2    0    0 -0.23151142907E-01 -0.44134573229E-03 -0.56822134363E-02  0.10200876479E+01  0.10198089780E+01 0.  0.
     999903    2    3    3    0    0  0.15954787588E-01  0.12288696889E+00  0.32056331756E-01  0.12982737990E+00  0.21720446505E-01 0.  0.
         14    1    1    2    0    0  0.23151142907E-01  0.44134573229E-03  0.56822134363E-02  0.23842352097E-01  0.00000000000E+00 0. -1.
     999901    1    3    3    0    0 -0.39105930495E-01 -0.12332831462E+00 -0.37738545192E-01  0.89026026800E+00  0.88000000000E+00 0.  1.
        -11    1    4    4    0    0  0.89736762490E-02  0.14363400039E-01  0.62365416361E-02  0.18055184815E-01  0.51100000000E-03 0.  1.
         11    1    4    4    0    0  0.69811113385E-02  0.10852356885E+00  0.25819790120E-01  0.11177219509E+00  0.51100000000E-03 0. -1.
</event>
<event>
 8    1  0.1097777E+005  0.1043930E+01  0.7957747E-01            NaN
         13   -1    0    0    0    0  0.00000000000E+00  0.00000000000E+00  0.74505805969E-08  0.10566000000E+00  0.10566000000E+00 0. -1.
     999900   -1    0    0    0    0 -0.00000000000E+00 -0.00000000000E+00 -0.74505805969E-08  0.93827000000E+00  0.93827000000E+00 0.  1.
     999902    2    1    2    0    0  0.17831118175E-01  0.14918548437E-01 -0.33836056768E-02  0.10204361572E+01  0.10201656680E+01 0.  0.
     999903    2    3    3    0    0 -0.10528828126E+00  0.72950299887E-01  0.70345657727E-02  0.12991125074E+00  0.20495841768E-01 0.  0.
         14    1    1    2    0    0 -0.17831118175E-01 -0.14918548437E-01  0.33836056768E-02  0.23493842815E-01  0.00000000000E+00 0.  1.
     999901    1    3    3    0    0  0.12311939944E+00 -0.58031751451E-01 -0.10418171450E-01  0.89052490644E+00  0.88000000000E+00 0.  1.
        -11    1    4    4    0    0 -0.73251714624E-01  0.41897478568E-01 -0.18817905039E-02  0.84409801932E-01  0.51100000000E-03 0.  1.
         11    1    4    4    0    0 -0.32036566638E-01  0.31052821319E-01  0.89163562766E-02  0.45501448813E-01  0.51100000000E-03 0. -1.
</event>
<event>
 8    1  0.1097777E+005  0.1043930E+01  0.7957747E-01            NaN
         13   -1    0    0    0    0  0.00000000000E+00  0.00000000000E+00  0.74505805969E-08  0.10566000000E+00  0.10566000000E+00 0.  1.
     999900   -1    0    0    0    0 -0.00000000000E+00 -0.00000000000E+00 -0.74505805969E-08  0.93827000000E+00  0.93827000000E+00 0.  1.
     999902    2    1    2    0    0  0.98309956389E-02  0.18841786184E-02 -0.21212368278E-01  0.10204744426E+01  0.10202048446E+01 0.  0.
     999903    2    3    3    0    0 -0.10924307224E+00  0.58100961419E-01 -0.36069486904E-01  0.13055326954E+00  0.20817726893E-01 0.  0.
         14    1    1    2    0    0 -0.98309956389E-02 -0.18841786184E-02  0.21212368278E-01  0.23455557386E-01  0.00000000000E+00 0.  1.
     999901    1    3    3    0    0  0.11907406788E+00 -0.56216782800E-01  0.14857118625E-01  0.88992117307E+00  0.88000000000E+00 0. -1.
        -11    1    4    4    0    0 -0.10168982668E+00  0.57745070911E-01 -0.37565616966E-01  0.12282813506E+00  0.51100000000E-03 0.  1.
         11    1    4    4    0    0 -0.75532455586E-02  0.35589050747E-03  0.14961300629E-02  0.77251344769E-02  0.51100000000E-03 0. -1.
</event>
<event>
 8    1  0.1097777E+005  0.1043930E+01  0.7957747E-01            NaN
         13   -1    0    0    0    0  0.00000000000E+00  0.00000000000E+00  0.74505805969E-08  0.10566000000E+00  0.10566000000E+00 0.  1.
     999900   -1    0    0    0    0 -0.00000000000E+00 -0.00000000000E+00 -0.74505805969E-08  0.93827000000E+00  0.93827000000E+00 0.  1.
     999902    2    1    2    0    0 -0.16608078602E-01  0.11982027824E-01  0.11335147919E-01  0.10205231026E+01  0.10202546350E+01 0.  0.
     999903    2    3    3    0    0  0.59015620858E-01 -0.30959752951E-01  0.11067978442E+00  0.13067351015E+00  0.19601065480E-01 0.  0.
         14    1    1    2    0    0  0.16608078602E-01 -0.11982027824E-01 -0.11335147919E-01  0.23406897359E-01  0.00000000000E+00 0. -1.
     999901    1    3    3    0    0 -0.75623699460E-01  0.42941780775E-01 -0.99344636499E-01  0.88984959249E+00  0.88000000000E+00 0.  1.
        -11    1    4    4    0    0  0.28711242661E-01 -0.15326470463E-01  0.35751820446E-01  0.48349663269E-01  0.51100000000E-03 0. -1.
         11    1    4    4    0    0  0.30304378196E-01 -0.15633282488E-01  0.74927963972E-01  0.82323846881E-01  0.51100000000E-03 0.  1.
</event>
<event>
 8    1  0.1097777E+005  0.1043930E+01  0.7957747E-01            NaN
         13   -1    0    0    0    0  0.00000000000E+00  0.00000000000E+00  0.74505805969E-08  0.10566000000E+00  0.10566000000E+00 0.  1.
     999900   -1    0    0    0    0 -0.00000000000E+00 -0.00000000000E+00 -0.74505805969E-08  0.93827000000E+00  0.93827000000E+00 0. -1.
     999902    2    1    2    0    0 -0.52982726080E-03  0.22414943312E-01  0.59324860639E-02  0.10207372254E+01  0.10204737031E+01 0.  0.
     999903    2    3    3    0    0  0.55334897697E-01  0.22884700016E-01 -0.11464865457E+00  0.13075919221E+00  0.19183116407E-01 0.  0.
         14    1    1    2    0    0  0.52982726080E-03 -0.22414943312E-01 -0.59324860639E-02  0.23192774554E-01  0.00000000000E+00 0. -1.
     999901    1    3    3    0    0 -0.55864724958E-01 -0.46975670402E-03  0.12058114063E+00  0.88997803324E+00  0.88000000000E+00 0.  1.
        -11    1    4    4    0    0  0.37416667537E-01  0.11231592871E-01 -0.55560830231E-01  0.67922180950E-01  0.51100000000E-03 0. -1.
         11    1    4    4    0    0  0.17918230160E-01  0.11653107145E-01 -0.59087824338E-01  0.62837011260E-01  0.51100000000E-03 0.  1.
</event>
<event>
 8    1  0.1097777E+005  0.1043930E+01  0.7957747E-01            NaN
         13   -1    0    0    0    0  0.00000000000E+00  0.00000000000E+00  0.74505805969E-08  0.10566000000E+00  0.10566000000E+00 0. -1.
     999900   -1    0    0    0    0 -0.00000000000E+00 -0.00000000000E+00 -0.74505805969E-08  0.93827000000E+00  0.93827000000E+00 0. -1.
     999902    2    1    2    0    0 -0.44955652075E-02 -0.11702027577E-01  0.20618270579E-01  0.10197999226E+01  0.10195144047E+01 0.  0.
     999903    2    3    3    0    0  0.86846913319E-02  0.15091231296E-01  0.12970020785E+00  0.13256237436E+00  0.21153488020E-01 0.  0.
         14    1    1    2    0    0  0.44955652075E-02  0.11702027577E-01 -0.20618270579E-01  0.24130077448E-01  0.00000000000E+00 0.  1.
     999901    1    3    3    0    0 -0.13180256539E-01 -0.26793258873E-01 -0.10908193727E+00  0.88723754819E+00  0.88000000000E+00 0. -1.
        -11    1    4    4    0    0  0.94140419042E-02 -0.46850998573E-03  0.25268126248E-01  0.26973746712E-01  0.51100000000E-03 0.  1.
         11    1    4    4    0    0 -0.72935057222E-03  0.15559741282E-01  0.10443208160E+00  0.10558862765E+00  0.51100000000E-03 0. -1.
</event>
<event>
 8    1  0.1097777E+005  0.1043930E+01  0.7957747E-01            NaN
         13   -1    0    0    0    0  0.00000000000E+00  0.00000000000E+00  0.74505805969E-08  0.10566000000E+00  0.10566000000E+00 0. -1.
     999900   -1    0    0    0    0 -0.00000000000E+00 -0.00000000000E+00 -0.74505805969E-08  0.93827000000E+00  0.93827000000E+00 0.  1.
     999902    2    1    2    0    0  0.33047883045E-02 -0.11486686688E-01  0.20470923950E-01  0.10202250570E+01  0.10199496275E+01 0.  0.
     999903    2    3    3    0    0  0.11020927253E+00  0.67096284357E-02 -0.64271375658E-01  0.12952817701E+00  0.21345632926E-01 0.  0.
         14    1    1    2    0    0 -0.33047883045E-02  0.11486686688E-01 -0.20470923950E-01  0.23704943032E-01  0.00000000000E+00 0.  1.
     999901    1    3    3    0    0 -0.10690448422E+00 -0.18196315123E-01  0.84742299608E-01  0.89069687996E+00  0.88000000000E+00 0.  1.
        -11    1    4    4    0    0  0.50007742653E-01 -0.61864120976E-02 -0.35006164854E-01  0.61357466691E-01  0.51100000000E-03 0. -1.
         11    1    4    4    0    0  0.60201529873E-01  0.12896040533E-01 -0.29265210803E-01  0.68170710315E-01  0.51100000000E-03 0.  1.
</event>
<event>
 8    1  0.1097777E+005  0.1043930E+01  0.7957747E-01            NaN
         13   -1    0    0    0    0  0.00000000000E+00  0.00000000000E+00  0.74505805969E-08  0.10566000000E+00  0.10566000000E+00 0. -1.
     999900   -1    0    0    0    0 -0.00000000000E+00 -0.00000000000E+00 -0.74505805969E-08  0.93827000000E+00  0.93827000000E+00 0.  1.
     999902    2    1    2    0    0  0.17336124105E-01 -0.14897660695E-01 -0.68560504029E-02  0.10200660749E+01  0.10197868945E+01 0.  0.
     999903    2    3    3    0    0  0.48909026703E-01 -0.45526095337E-01 -0.11304605804E+00  0.13259141787E+00  0.18339972863E-01 0.  0.
         14    1    1    2    0    0 -0.17336124105E-01  0.14897660695E-01  0.68560504029E-02  0.23863925082E-01  0.00000000000E+00 0.  1.
     999901    1    3    3    0    0 -0.31572902598E-01  0.30628434641E-01  0.10619000763E+00  0.88747465705E+00  0.88000000000E+00 0. -1.
        -11    1    4    4    0    0  0.29379589962E-01 -0.15042983444E-01 -0.50882210041E-01  0.60652387232E-01  0.51100000000E-03 0. -1.
         11    1    4    4    0    0  0.19529436741E-01 -0.30483111893E-01 -0.62163847996E-01  0.71939030635E-01  0.51100000000E-03 0.  1.
</event>
<event>
 8    1  0.1097777E+005  0.1043930E+01  0.7957747E-01            NaN
         13   -1    0    0    0    0  0.00000000000E+00  0.00000000000E+00  0.74505805969E-08  0.10566000000E+00  0.10566000000E+00 0. -1.
     999900   -1    0    0    0    0 -0.00000000000E+00 -0.00000000000E+00 -0.74505805969E-08  0.93827000000E+00  0.93827000000E+00 0.  1.
     999902    2    1    2    0    0 -0.23230218826E-01 -0.43679106592E-02  0.61485533102E-02  0.10195061097E+01  0.10192135111E+01 0.  0.
     999903    2    3    3    0    0  0.73414583460E-01  0.47456549987E-01  0.92036925312E-01  0.12854999125E+00  0.20309589582E-01 0.  0.
         14    1    1    2    0    0  0.23230218826E-01  0.43679106592E-02 -0.61485533102E-02  0.24423890313E-01  0.00000000000E+00 0. -1.
     999901    1    3    3    0    0 -0.96644802286E-01 -0.51824460646E-01 -0.85888372002E-01  0.89095611843E+00  0.88000000000E+00 0. -1.
        -11    1    4    4    0    0  0.26551598742E-01  0.29079022210E-01  0.38897308190E-01  0.55351952394E-01  0.51100000000E-03 0. -1.
         11    1    4    4    0    0  0.46862984717E-01  0.18377527776E-01  0.53139617122E-01  0.73198038858E-01  0.51100000000E-03 0.  1.
</event>
<event>
 8    1  0.1097777E+005  0.1043930E+01  0.7957747E-01            NaN
         13   -1    0    0    0    0  0.00000000000E+00  0.00000000000E+00  0.74505805969E-08  0.10566000000E+00  0.10566000000E+00 0. -1.
     999900   -1    0    0    0    0 -0.00000000000E+00 -0.00000000000E+00 -0.74505805969E-08  0.93827000000E+00  0.93827000000E+00 0.  1.
     999902    2    1    2    0    0  0.12579923205E-01  0.11124262587E-01 -0.16312856373E-01  0.10205181874E+01  0.10202496057E+01 0.  0.
     999903    2    3    3    0    0 -0.75243047117E-01 -0.64930143094E-01 -0.82072676487E-01  0.13044993121E+00  0.20095290643E-01 0.  0.
         14    1    1    2    0    0 -0.12579923205E-01 -0.11124262587E-01  0.16312856373E-01  0.23411812596E-01  0.00000000000E+00 0. -1.
     999901    1    3    3    0    0  0.87822970322E-01  0.76054405681E-01  0.65759820113E-01  0.89006825619E+00  0.88000000000E+00 0. -1.
        -11    1    4    4    0    0 -0.56643216026E-01 -0.59101051149E-01 -0.67607260615E-01  0.10617151679E+00  0.51100000000E-03 0. -1.
         11    1    4    4    0    0 -0.18599831091E-01 -0.58290919450E-02 -0.14465415872E-01  0.24278414422E-01  0.51100000000E-03 0.  1.
</event>
<event>
 8    1  0.1097777E+005  0.1043930E+01  0.7957747E-01            NaN
         13   -1    0    0    0    0  0.00000000000E+00  0.00000000000E+00  0.74505805969E-08  0.10566000000E+00  0.10566000000E+00 0. -1.
     999900   -1    0    0    0    0 -0.00000000000E+00 -0.00000000000E+00 -0.74505805969E-08  0.93827000000E+00  0.93827000000E+00 0. -1.
     999902    2    1    2    0    0  0.21642387552E-01  0.23791913884E-02 -0.83524999808E-02  0.10206100998E+01  0.10203436470E+01 0.  0.
     999903    2    3    3    0    0 -0.12892407883E-01  0.12459436278E+00  0.30977284459E-01  0.13062356496E+00  0.20321273354E-01 0.  0.
         14    1    1    2    0    0 -0.21642387552E-01 -0.23791913884E-02  0.83524999808E-02  0.23319900226E-01  0.00000000000E+00 0. -1.
     999901    1    3    3    0    0  0.34534795435E-01 -0.12221517140E+00 -0.39329784440E-01  0.88998653482E+00  0.88000000000E+00 0.  1.
        -11    1    4    4    0    0 -0.18162316756E-02  0.98495778473E-01  0.22924026220E-01  0.10114588066E+00  0.51100000000E-03 0.  1.
         11    1    4    4    0    0 -0.11076176207E-01  0.26098584310E-01  0.80532582394E-02  0.29477684299E-01  0.51100000000E-03 0. -1.
</event>
<event>
 8    1  0.1097777E+005  0.1043930E+01  0.7957747E-01            NaN
         13   -1    0    0    0    0  0.00000000000E+00  0.00000000000E+00  0.74505805969E-08  0.10566000000E+00  0.10566000000E+00 0.  1.
     999900   -1    0    0    0    0 -0.00000000000E+00 -0.00000000000E+00 -0.74505805969E-08  0.93827000000E+00  0.93827000000E+00 0. -1.
     999902    2    1    2    0    0  0.16441671521E-01 -0.16355215630E-01  0.40396410012E-02  0.10203898144E+01  0.10201182446E+01 0.  0.
     999903    2    3    3    0    0 -0.12681586982E+00 -0.40814968453E-02 -0.73116794183E-02  0.12864869733E+00  0.19952523994E-01 0.  0.
         14    1    1    2    0    0 -0.16441671521E-01  0.16355215630E-01 -0.40396410012E-02  0.23540185643E-01  0.00000000000E+00 0. -1.
     999901    1    3    3    0    0  0.14325754134E+00 -0.12273718784E-01  0.11351320419E-01  0.89174111703E+00  0.88000000000E+00 0. -1.
        -11    1    4    4    0    0 -0.83620843848E-01  0.59182693341E-02 -0.87356162085E-02  0.84285488367E-01  0.51100000000E-03 0.  1.
         11    1    4    4    0    0 -0.43195025972E-01 -0.99997661794E-02  0.14239367902E-02  0.44363208961E-01  0.51100000000E-03 0. -1.
</event>
<event>
 8    1  0.1097777E+005  0.1043930E+01  0.7957747E-01            NaN
         13   -1    0    0    0    0  0.00000000000E+00  0.00000000000E+00  0.74505805969E-08  0.10566000000E+00  0.10566000000E+00 0.  1.
     999900   -1    0    0    0    0 -0.00000000000E+00 -0.00000000000E+00 -0.74505805969E-08  0.93827000000E+00  0.93827000000E+00 0.  1.
     999902    2    1    2    0    0  0.58162490586E-02  0.61411276639E-02 -0.21285945633E-01  0.10210251166E+01  0.10207681691E+01 0.  0.
     999903    2    3    3    0    0 -0.73733346797E-01 -0.14898298980E-02 -0.10907335899E+00  0.13305383347E+00  0.19170261793E-01 0.  0.
         14    1    1    2    0    0 -0.58162490586E-02 -0.61411276639E-02  0.21285945633E-01  0.22904883401E-01  0.00000000000E+00 0.  1.
     999901    1    3    3    0    0  0.79549595856E-01  0.76309575619E-02  0.87787413358E-01  0.88797128313E+00  0.88000000000E+00 0. -1.
        -11    1    4    4    0    0 -0.16595823341E-01 -0.77453835045E-02 -0.20840067263E-01  0.27748546674E-01  0.51100000000E-03 0.  1.
         11    1    4    4    0    0 -0.57137523456E-01  0.62555536065E-02 -0.88233291727E-01  0.10530528680E+00  0.51100000000E-03 0. -1.
</event>
<event>
 8    1  0.1097777E+005  0.1043930E+01  0.7957747E-01            NaN
         13   -1    0    0    0    0  0.00000000000E+00  0.00000000000E+00  0.74505805969E-08  0.10566000000E+00  0.10566000000E+00 0.  1.
     999900   -1    0    0    0    0 -0.00000000000E+00 -0.00000000000E+00 -0.74505805969E-08  0.93827000000E+00  0.93827000000E+00 0. -1.
     999902    2    1    2    0    0 -0.12052062423E-01 -0.15613438523E-01 -0.14511073333E-01  0.10194432093E+01  0.10191490833E+01 0.  0.
     999903    2    3    3    0    0 -0.30157376809E-01  0.12314514722E+00 -0.12533464957E-02  0.12828805171E+00  0.19546321254E-01 0.  0.
         14    1    1    2    0    0  0.12052062423E-01  0.15613438523E-01  0.14511073333E-01  0.24486790733E-01  0.00000000000E+00 0.  1.
     999901    1    3    3    0    0  0.18105314386E-01 -0.13875858574E+00 -0.13257726837E-01  0.89115515756E+00  0.88000000000E+00 0.  1.
        -11    1    4    4    0    0 -0.26686858865E-01  0.84216621230E-01  0.59425443790E-02  0.88544919008E-01  0.51100000000E-03 0. -1.
         11    1    4    4    0    0 -0.34705179431E-02  0.38928525986E-01 -0.71958908747E-02  0.39743132699E-01  0.51100000000E-03 0.  1.
</event>
<event>
 7    1  0.1097777E+005  0.1043930E+01  0.7957747E-01            NaN
         13   -1    0    0    0    0  0.00000000000E+00  0.00000000000E+00  0.74505805969E-08  0.10566000000E+00  0.10566000000E+00 0. -1.
     999900   -1    0    0    0    0 -0.00000000000E+00 -0.00000000000E+00 -0.74505805969E-08  0.93827000000E+00  0.93827000000E+00 0.  1.
     999903    2    1    2    0    0 -0.10562677417E+00  0.41895154947E-01  0.23449605568E-01  0.11750798406E+00  0.18601690438E-01 0.  0.
         14    1    1    2    0    0  0.36987588587E-01 -0.21540996398E-01  0.47398307313E-02  0.43064628533E-01  0.00000000000E+00 0.  1.
     999901    1    1    2    0    0  0.68639185581E-01 -0.20354158550E-01 -0.28189436300E-01  0.88335738741E+00  0.88000000000E+00 0.  1.
        -11    1    3    3    0    0 -0.52691936930E-01  0.14386920913E-01  0.18390947017E-01  0.57636028350E-01  0.51100000000E-03 0.  1.
         11    1    3    3    0    0 -0.52934837239E-01  0.27508234034E-01  0.50586585517E-02  0.59871955710E-01  0.51100000000E-03 0. -1.
</event>
<event>
 8    1  0.1097777E+005  0.1043930E+01  0.7957747E-01            NaN
         13   -1    0    0    0    0  0.00000000000E+00  0.00000000000E+00  0.74505805969E-08  0.10566000000E+00  0.10566000000E+00 0. -1.
     999900   -1    0    0    0    0 -0.00000000000E+00 -0.00000000000E+00 -0.74505805969E-08  0.93827000000E+00  0.93827000000E+00 0. -1.
     999902    2    1    2    0    0  0.78796737574E-02  0.99960305599E-05  0.22804924263E-01  0.10198021338E+01  0.10195166689E+01 0.  0.
     999903    2    3    3    0    0 -0.10691658354E+00 -0.69324798784E-01 -0.53124374682E-02  0.12919779934E+00  0.20658310699E-01 0.  0.
         14    1    1    2    0    0 -0.78796737574E-02 -0.99960305599E-05 -0.22804924263E-01  0.24127866235E-01  0.00000000000E+00 0.  1.
     999901    1    3    3    0    0  0.11479625730E+00  0.69334794814E-01  0.28117361731E-01  0.89060433442E+00  0.88000000000E+00 0.  1.
        -11    1    4    4    0    0 -0.33440574912E-01 -0.21045656187E-01  0.78818837904E-02  0.40293633590E-01  0.51100000000E-03 0. -1.
         11    1    4    4    0    0 -0.73476008627E-01 -0.48279142596E-01 -0.13194321259E-01  0.88904165752E-01  0.51100000000E-03 0.  1.
</event>
<event>
 8    1  0.1097777E+005  0.1043930E+01  0.7957747E-01            NaN
         13   -1    0    0    0    0  0.00000000000E+00  0.00000000000E+00  0.74505805969E-08  0.10566000000E+00  0.10566000000E+00 0. -1.
     999900   -1    0    0    0    0 -0.00000000000E+00 -0.00000000000E+00 -0.74505805969E-08  0.93827000000E+00  0.93827000000E+00 0. -1.
     999902    2    1    2    0    0  0.58493221530E-02 -0.19514110826E-01 -0.11448980772E-01  0.10205613404E+01  0.10202937593E+01 0.  0.
     999903    2    3    3    0    0 -0.63737071204E-01  0.83529207514E-01  0.70077409552E-01  0.12808907533E+00  0.21364108577E-01 0.  0.
         14    1    1    2    0    0 -0.58493221530E-02  0.19514110826E-01  0.11448980772E-01  0.23368659604E-01  0.00000000000E+00 0. -1.
     999901    1    3    3    0    0  0.69586393357E-01 -0.10304331834E+00 -0.81526390324E-01  0.89247226507E+00  0.88000000000E+00 0. -1.
        -11    1    4    4    0    0 -0.10447222497E-01  0.29563026130E-01  0.21500141393E-01  0.38021496193E-01  0.51100000000E-03 0.  1.
         11    1    4    4    0    0 -0.53289848707E-01  0.53966181384E-01  0.48577268159E-01  0.90067579135E-01  0.51100000000E-03 0. -1.
</event>
<event>
 8    1  0.1097777E+005  0.1043930E+01  0.7957747E-01            NaN
         13   -1    0    0    0    0  0.00000000000E+00  0.00000000000E+00  0.74505805969E-08  0.10566000000E+00  0.10566000000E+00 0. -1.
     999900   -1    0    0    0    0 -0.00000000000E+00 -0.00000000000E+00 -0.74505805969E-08  0.93827000000E+00  0.93827000000E+00 0. -1.
     999902    2    1    2    0    0  0.12914277764E-01  0.17758115778E-01 -0.94598366220E-02  0.10200214711E+01  0.10197412337E+01 0.  0.
     999903    2    3    3    0    0 -0.26289421240E-01  0.40164752465E-01 -0.11963113439E+00  0.13200305785E+00  0.28440428228E-01 0.  0.
         14    1    1    2    0    0 -0.12914277764E-01 -0.17758115778E-01  0.94598366220E-02  0.23908528919E-01  0.00000000000E+00 0. -1.
     999901    1    3    3    0    0  0.39203699005E-01 -0.22406636687E-01  0.11017129776E+00  0.88801841323E+00  0.88000000000E+00 0.  1.
        -11    1    4    4    0    0 -0.35542389697E-02  0.27292242261E-01 -0.43168399742E-01  0.51198349188E-01  0.51100000000E-03 0. -1.
         11    1    4    4    0    0 -0.22735182270E-01  0.12872510204E-01 -0.76462734645E-01  0.80804708663E-01  0.51100000000E-03 0.  1.
</event>
<event>
 8    1  0.1097777E+005  0.1043930E+01  0.7957747E-01            NaN
         13   -1    0    0    0    0  0.00000000000E+00  0.00000000000E+00  0.74505805969E-08  0.10566000000E+00  0.10566000000E+00 0. -1.
     999900   -1    0    0    0    0 -0.00000000000E+00 -0.00000000000E+00 -0.74505805969E-08  0.93827000000E+00  0.93827000000E+00 0. -1.
     999902    2    1    2    0    0 -0.16049075691E-01 -0.15271995441E-01 -0.82214523839E-02  0.10202995333E+01  0.10200258520E+01 0.  0.
     999903    2    3    3    0    0  0.47070171691E-02 -0.12448389707E+00  0.39056667562E-01  0.13204659894E+00  0.19811218242E-01 0.  0.
         14    1    1    2    0    0  0.16049075691E-01  0.15271995441E-01  0.82214523839E-02  0.23630466660E-01  0.00000000000E+00 0. -1.
     999901    1    3    3    0    0 -0.20756092860E-01  0.10921190163E+00 -0.47278119946E-01  0.88825293440E+00  0.88000000000E+00 0.  1.
        -11    1    4    4    0    0  0.24919324544E-02 -0.64777198547E-01  0.99573706289E-02  0.65587388497E-01  0.51100000000E-03 0. -1.
         11    1    4    4    0    0  0.22150847147E-02 -0.59706698527E-01  0.29099296933E-01  0.66459210440E-01  0.51100000000E-03 0.  1.
</event>
<event>
 8    1  0.1097777E+005  0.1043930E+01  0.7957747E-01            NaN
         13   -1    0    0    0    0  0.00000000000E+00  0.00000000000E+00  0.74505805969E-08  0.10566000000E+00  0.10566000000E+00 0. -1.
     999900   -1    0    0    0    0 -0.00000000000E+00 -0.00000000000E+00 -0.74505805969E-08  0.93827000000E+00  0.93827000000E+00 0.  1.
     999902    2    1    2    0    0  0.30513398303E-02 -0.17203821776E-01 -0.15285656236E-01  0.10207150599E+01  0.10204510277E+01 0.  0.
     999903    2    3    3    0    0  0.67773793358E-01  0.10817015540E+00 -0.45527407271E-02  0.12941105696E+00  0.20794822192E-01 0.  0.
         14    1    1    2    0    0 -0.30513398303E-02  0.17203821776E-01  0.15285656236E-01  0.23214940125E-01  0.00000000000E+00 0. -1.
     999901    1    3    3    0    0 -0.64722453527E-01 -0.12537397717E+00 -0.10732915509E-01  0.89130400292E+00  0.88000000000E+00 0. -1.
        -11    1    4    4    0    0  0.52927578337E-01  0.96709175777E-01 -0.71094105872E-02  0.11047532787E+00  0.51100000000E-03 0. -1.
         11    1    4    4    0    0  0.14846215020E-01  0.11460979619E-01  0.25566698600E-02  0.18935729086E-01  0.51100000000E-03 0.  1.
</event>
<event>
 8    1  0.1097777E+005  0.1043930E+01  0.7957747E-01            NaN
         13   -1    0    0    0    0  0.00000000000E+00  0.00000000000E+00  0.74505805969E-08  0.10566000000E+00  0.10566000000E+00 0. -1.
     999900   -1    0    0    0    0 -0.00000000000E+00 -0.00000000000E+00 -0.74505805969E-08  0.93827000000E+00  0.93827000000E+00 0. -1.
     999902    2    1    2    0    0  0.31487029775E-03 -0.20100677563E-01  0.12818194228E-01  0.10200879681E+01  0.10198093058E+01 0.  0.
     999903    2    3    3    0    0 -0.11010149036E+00  0.52768246733E-01 -0.36401201339E-01  0.12883929252E+00  0.19175239096E-01 0.  0.
         14    1    1    2    0    0 -0.31487029775E-03  0.20100677563E-01 -0.12818194228E-01  0.23842031899E-01  0.00000000000E+00 0. -1.
     999901    1    3    3    0    0  0.11041636066E+00 -0.72868924296E-01  0.49219395567E-01  0.89124867558E+00  0.88000000000E+00 0.  1.
        -11    1    4    4    0    0 -0.78959392662E-02 -0.91287223026E-03 -0.41043707162E-02  0.89602551627E-02  0.51100000000E-03 0.  1.
         11    1    4    4    0    0 -0.10220555110E+00  0.53681118964E-01 -0.32296830623E-01  0.11987903735E+00  0.51100000000E-03 0. -1.
</event>
<event>
 8    1  0.1097777E+005  0.1043930E+01  0.7957747E-01            NaN
         13   -1    0    0    0    0  0.00000000000E+00  0.00000000000E+00  0.74505805969E-08  0.10566000000E+00  0.10566000000E+00 0. -1.
     999900   -1    0    0    0    0 -0.00000000000E+00 -0.00000000000E+00 -0.74505805969E-08  0.93827000000E+00  0.93827000000E+00 0. -1.
     999902    2    1    2    0    0  0.99413219332E-02  0.61784929245E-02 -0.23213062816E-01  0.10179328859E+01  0.10176008600E+01 0.  0.
     999903    2    3    3    0    0  0.28198995720E-01 -0.31097269314E-01  0.11676994178E+00  0.12590257997E+00  0.21307670509E-01 0.  0.
         14    1    1    2    0    0 -0.99413219332E-02 -0.61784929245E-02  0.23213062816E-01  0.25997114107E-01  0.00000000000E+00 0. -1.
     999901    1    3    3    0    0 -0.18257673786E-01  0.37275762238E-01 -0.13998300460E+00  0.89203030592E+00  0.88000000000E+00 0. -1.
        -11    1    4    4    0    0  0.17396426741E-01 -0.12205023517E-01  0.32258106509E-01  0.38632173366E-01  0.51100000000E-03 0. -1.
         11    1    4    4    0    0  0.10802568979E-01 -0.18892245797E-01  0.84511835270E-01  0.87270406608E-01  0.51100000000E-03 0.  1.
</event>
<event>
 7    1  0.1097777E+005  0.1043930E+01  0.7957747E-01            NaN
         13   -1    0    0    0    0  0.00000000000E+00  0.00000000000E+00  0.74505805969E-08  0.10566000000E+00  0.10566000000E+00 0.  1.
     999900   -1    0    0    0    0 -0.00000000000E+00 -0.00000000000E+00 -0.74505805969E-08  0.93827000000E+00  0.93827000000E+00 0. -1.
     999903    2    1    2    0    0 -0.11120140929E+00 -0.12487370793E-02 -0.17849240913E-01  0.11399233206E+00  0.17559715121E-01 0.  0.
         14    1    1    2    0    0 -0.11967120917E-01  0.21661447468E-01  0.32690915139E-01  0.41001539264E-01  0.00000000000E+00 0.  1.
     999901    1    1    2    0    0  0.12316853020E+00 -0.20412710389E-01 -0.14841674226E-01  0.88893612868E+00  0.88000000000E+00 0. -1.
        -11    1    3    3    0    0 -0.71212374071E-01  0.37433277369E-02 -0.18542204696E-01  0.73683710543E-01  0.51100000000E-03 0. -1.
         11    1    3    3    0    0 -0.39989035214E-01 -0.49920648162E-02  0.69296378340E-03  0.40308621513E-01  0.51100000000E-03 0.  1.
</event>
<event>
 8    1  0.1097777E+005  0.1043930E+01  0.7957747E-01            NaN
         13   -1    0    0    0    0  0.00000000000E+00  0.00000000000E+00  0.74505805969E-08  0.10566000000E+00  0.10566000000E+00 0. -1.
     999900   -1    0    0    0    0 -0.00000000000E+00 -0.00000000000E+00 -0.74505805969E-08  0.93827000000E+00  0.93827000000E+00 0. -1.
     999902    2    1    2    0    0  0.16066987028E-01  0.13692353513E-03  0.17378708486E-01  0.10202617443E+01  0.10199871766E+01 0.  0.
     999903    2    3    3    0    0  0.10979171454E+00 -0.70639792891E-01 -0.50817363847E-02  0.13217495814E+00  0.20004864200E-01 0.  0.
         14    1    1    2    0    0 -0.16066987028E-01 -0.13692353513E-03 -0.17378708486E-01  0.23668255720E-01  0.00000000000E+00 0.  1.
     999901    1    3    3    0    0 -0.93724727517E-01  0.70776716427E-01  0.22460444870E-01  0.88808678614E+00  0.88000000000E+00 0. -1.
        -11    1    4    4    0    0  0.70302656845E-01 -0.47255599862E-01 -0.12680120697E-01  0.85653965814E-01  0.51100000000E-03 0. -1.
         11    1    4    4    0    0  0.39489057700E-01 -0.23384193029E-01  0.75983843120E-02  0.46520992324E-01  0.51100000000E-03 0.  1.
</event>
<event>
 8    1  0.1097777E+005  0.1043930E+01  0.7957747E-01            NaN
         13   -1    0    0    0    0  0.00000000000E+00  0.00000000000E+00  0.74505805969E-08  0.10566000000E+00  0.10566000000E+00 0.  1.
     999900   -1    0    0    0    0 -0.00000000000E+00 -0.00000000000E+00 -0.74505805969E-08  0.93827000000E+00  0.93827000000E+00 0. -1.
     999902    2    1    2    0    0 -0.14963120238E-01 -0.17014044254E-01 -0.66744273824E-02  0.10203096560E+01  0.10200362119E+01 0.  0.
     999903    2    3    3    0    0  0.29017318524E-01  0.89605120877E-02  0.12385898976E+00  0.12921598554E+00  0.20818886229E-01 0.  0.
         14    1    1    2    0    0  0.14963120238E-01  0.17014044254E-01  0.66744273824E-02  0.23620343986E-01  0.00000000000E+00 0.  1.
     999901    1    3    3    0    0 -0.43980438762E-01 -0.25974556342E-01 -0.13053341714E+00  0.89109367048E+00  0.88000000000E+00 0. -1.
        -11    1    4    4    0    0  0.72290955635E-02 -0.52096220329E-02  0.16551766990E-01  0.18804842352E-01  0.51100000000E-03 0. -1.
         11    1    4    4    0    0  0.21788222960E-01  0.14170134121E-01  0.10730722277E+00  0.11041114319E+00  0.51100000000E-03 0.  1.
</event>
<event>
 8    1  0.1097777E+005  0.1043930E+01  0.7957747E-01            NaN
         13   -1    0    0    0    0  0.00000000000E+00  0.00000000000E+00  0.74505805969E-08  0.10566000000E+00  0.10566000000E+00 0.  1.
     999900   -1    0    0    0    0 -0.00000000000E+00 -0.00000000000E+00 -0.74505805969E-08  0.93827000000E+00  0.93827000000E+00 0.  1.
     999902    2    1    2    0    0  0.18688200516E-01 -0.10487593884E-01 -0.12135487227E-01  0.10193026064E+01  0.10190050515E+01 0.  0.
     999903    2    3    3    0    0  0.13714472731E-01  0.10725397056E+00  0.65617920134E-01  0.12804876698E+00  0.19981849769E-01 0.  0.
         14    1    1    2    0    0 -0.18688200516E-01  0.10487593884E-01  0.12135487227E-01  0.24627393573E-01  0.00000000000E+00 0.  1.
     999901    1    3    3    0    0  0.49737277840E-02 -0.11774156444E+00 -0.77753407361E-01  0.89125383944E+00  0.88000000000E+00 0.  1.
        -11    1    4    4    0    0  0.12102824147E-01  0.46217088701E-01  0.19840022891E-01  0.51733792338E-01  0.51100000000E-03 0. -1.
         11    1    4    4    0    0  0.16116485842E-02  0.61036881859E-01  0.45777897243E-01  0.76314974646E-01  0.51100000000E-03 0.  1.
</event>
<event>
 8    1  0.1097777E+005  0.1043930E+01  0.7957747E-01            NaN
         13   -1    0    0    0    0  0.00000000000E+00  0.00000000000E+00  0.74505805969E-08  0.10566000000E+00  0.10566000000E+00 0. -1.
     999900   -1    0    0    0    0 -0.00000000000E+00 -0.00000000000E+00 -0.74505805969E-08  0.93827000000E+00  0.93827000000E+00 0. -1.
     999902    2    1    2    0    0 -0.18044854248E-01  0.13257974079E-01 -0.71464814221E-02  0.10204254720E+01  0.10201547338E+01 0.  0.
     999903    2    3    3    0    0  0.25474854609E-01  0.12649066361E+00 -0.19425547266E-01  0.13201881818E+00  0.20068888088E-01 0.  0.
         14    1    1    2    0    0  0.18044854248E-01 -0.13257974079E-01  0.71464814221E-02  0.23504528037E-01  0.00000000000E+00 0. -1.
     999901    1    3    3    0    0 -0.43519708857E-01 -0.11323268953E+00  0.12279065844E-01  0.88840665379E+00  0.88000000000E+00 0. -1.
        -11    1    4    4    0    0  0.18607274669E-01  0.43644884170E-01 -0.73872940380E-02  0.48020202197E-01  0.51100000000E-03 0.  1.
         11    1    4    4    0    0  0.68675799403E-02  0.82845779435E-01 -0.12038253228E-01  0.83998615978E-01  0.51100000000E-03 0. -1.
</event>
<event>
 8    1  0.1097777E+005  0.1043930E+01  0.7957747E-01            NaN
         13   -1    0    0    0    0  0.00000000000E+00  0.00000000000E+00  0.74505805969E-08  0.10566000000E+00  0.10566000000E+00 0. -1.
     999900   -1    0    0    0    0 -0.00000000000E+00 -0.00000000000E+00 -0.74505805969E-08  0.93827000000E+00  0.93827000000E+00 0. -1.
     999902    2    1    2    0    0 -0.14020888775E-02  0.17062145622E-01  0.16156978509E-01  0.10203900208E+01  0.10201184558E+01 0.  0.
     999903    2    3    3    0    0 -0.79434282726E-01  0.84625731935E-01 -0.57874038456E-01  0.13126997662E+00  0.20275173438E-01 0.  0.
         14    1    1    2    0    0  0.14020888775E-02 -0.17062145622E-01 -0.16156978509E-01  0.23539979205E-01  0.00000000000E+00 0.  1.
     999901    1    3    3    0    0  0.78032193849E-01 -0.67563586313E-01  0.74031016965E-01  0.88912004417E+00  0.88000000000E+00 0.  1.
        -11    1    4    4    0    0 -0.34996392159E-02  0.12501613258E-01 -0.81403625909E-02  0.15331811139E-01  0.51100000000E-03 0. -1.
         11    1    4    4    0    0 -0.75934643511E-01  0.72124118678E-01 -0.49733675865E-01  0.11593816549E+00  0.51100000000E-03 0.  1.
</event>
<event>
 8    1  0.1097777E+005  0.1043930E+01  0.7957747E-01            NaN
         13   -1    0    0    0    0  0.00000000000E+00  0.00000000000E+00  0.74505805969E-08  0.10566000000E+00  0.10566000000E+00 0.  1.
     999900   -1    0    0    0    0 -0.00000000000E+00 -0.00000000000E+00 -0.74505805969E-08  0.93827000000E+00  0.93827000000E+00 0.  1.
     999902    2    1    2    0    0 -0.19291290075E-01 -0.10833742467E-02 -0.12496261670E-01  0.10209194779E+01  0.10206601277E+01 0.  0.
     999903    2    3    3    0    0 -0.43812405101E-01 -0.64698780121E-01 -0.10622895699E+00  0.13331932966E+00  0.19595748740E-01 0.  0.
         14    1    1    2    0    0  0.19291290075E-01  0.10833742467E-02  0.12496261670E-01  0.23010522120E-01  0.00000000000E+00 0.  1.
     999901    1    3    3    0    0  0.24521115026E-01  0.63615405875E-01  0.93732695318E-01  0.88760014822E+00  0.88000000000E+00 0. -1.
        -11    1    4    4    0    0 -0.19943297841E-01 -0.25605839879E-01 -0.29000497485E-01  0.43527969629E-01  0.51100000000E-03 0.  1.
         11    1    4    4    0    0 -0.23869107259E-01 -0.39092940243E-01 -0.77228459503E-01  0.89791360032E-01  0.51100000000E-03 0. -1.
</event>
<event>
 8    1  0.1097777E+005  0.1043930E+01  0.7957747E-01            NaN
         13   -1    0    0    0    0  0.00000000000E+00  0.00000000000E+00  0.74505805969E-08  0.10566000000E+00  0.10566000000E+00 0. -1.
     999900   -1    0    0    0    0 -0.00000000000E+00 -0.00000000000E+00 -0.74505805969E-08  0.93827000000E+00  0.93827000000E+00 0.  1.
     999902    2    1    2    0    0 -0.50438661624E-02  0.17872990821E-01  0.14837313441E-01  0.10201596349E+01  0.10198826650E+01 0.  0.
     999903    2    3    3    0    0  0.11557741323E+00  0.10959035550E-01 -0.53357108216E-01  0.12929052276E+00  0.19769151993E-01 0.  0.
         14    1    1    2    0    0  0.50438661624E-02 -0.17872990821E-01 -0.14837313441E-01  0.23770365098E-01  0.00000000000E+00 0.  1.
     999901    1    3    3    0    0 -0.12062127939E+00  0.69139552714E-02  0.68194421657E-01  0.89086911214E+00  0.88000000000E+00 0. -1.
        -11    1    4    4    0    0  0.37979436225E-01  0.94401476112E-02 -0.26037859636E-01  0.47008352644E-01  0.51100000000E-03 0. -1.
         11    1    4    4    0    0  0.77597977002E-01  0.15188879386E-02 -0.27319248580E-01  0.82282170119E-01  0.51100000000E-03 0.  1.
</event>
<event>
 8    1  0.1097777E+005  0.1043930E+01  0.7957747E-01            NaN
         13   -1    0    0    0    0  0.00000000000E+00  0.00000000000E+00  0.74505805969E-08  0.10566000000E+00  0.10566000000E+00 0.  1.
     999900   -1    0    0    0    0 -0.00000000000E+00 -0.00000000000E+00 -0.74505805969E-08  0.93827000000E+00  0.93827000000E+00 0.  1.
     999902    2    1    2    0    0  0.21386182258E-01  0.18259792493E-02  0.11130273758E-01  0.10197517870E+01  0.10194651152E+01 0.  0.
     999903    2    3    3    0    0  0.12433047858E+00  0.30916688507E-01  0.29857980319E-01  0.13307567670E+00  0.20092964160E-01 0.  0.
         14    1    1    2    0    0 -0.21386182258E-01 -0.18259792493E-02 -0.11130273758E-01  0.24178213038E-01  0.00000000000E+00 0.  1.
     999901    1    3    3    0    0 -0.10294429632E+00 -0.29090709258E-01 -0.18727706561E-01  0.88667611026E+00  0.88000000000E+00 0.  1.
        -11    1    4    4    0    0  0.77458169603E-01  0.96368497409E-02  0.21081272541E-01  0.80853683182E-01  0.51100000000E-03 0. -1.
         11    1    4    4    0    0  0.46872308978E-01  0.21279838766E-01  0.87767077783E-02  0.52221993521E-01  0.51100000000E-03 0.  1.
</event>
<event>
 8    1  0.1097777E+005  0.1043930E+01  0.7957747E-01            NaN
         13   -1    0    0    0    0  0.00000000000E+00  0.00000000000E+00  0.74505805969E-08  0.10566000000E+00  0.10566000000E+00 0.  1.
     999900   -1    0    0    0    0 -0.00000000000E+00 -0.00000000000E+00 -0.74505805969E-08  0.93827000000E+00  0.93827000000E+00 0. -1.
     999902    2    1    2    0    0 -0.14953815821E-01  0.57069978380E-02 -0.14376063309E-01  0.10224158738E+01  0.10221894938E+01 0.  0.
     999903    2    3    3    0    0  0.64986863947E-01  0.85093057380E-01  0.72774250548E-01  0.13096321885E+00  0.19777569318E-01 0.  0.
         14    1    1    2    0    0  0.14953815821E-01 -0.57069978380E-02  0.14376063309E-01  0.21514126247E-01  0.00000000000E+00 0.  1.
     999901    1    3    3    0    0 -0.79940679768E-01 -0.79386059542E-01 -0.87150313858E-01  0.89145265490E+00  0.88000000000E+00 0. -1.
        -11    1    4    4    0    0  0.12025359656E-01  0.30561049267E-01  0.20902868297E-01  0.38932994121E-01  0.51100000000E-03 0. -1.
         11    1    4    4    0    0  0.52961504292E-01  0.54532008113E-01  0.51871382252E-01  0.92030224727E-01  0.51100000000E-03 0.  1.
</event>
<event>
 8    1  0.1097777E+005  0.1043930E+01  0.7957747E-01            NaN
         13   -1    0    0    0    0  0.00000000000E+00  0.00000000000E+00  0.74505805969E-08  0.10566000000E+00  0.10566000000E+00 0. -1.
     999900   -1    0    0    0    0 -0.00000000000E+00 -0.00000000000E+00 -0.74505805969E-08  0.93827000000E+00  0.93827000000E+00 0. -1.
     999902    2    1    2    0    0  0.15057478163E-01 -0.17229447453E-01 -0.74014488266E-02  0.10198808222E+01  0.10195972384E+01 0.  0.
     999903    2    3    3    0    0  0.12480055329E+00 -0.37974506418E-01 -0.15053814985E-01  0.13278868566E+00  0.19722485985E-01 0.  0.
         14    1    1    2    0    0 -0.15057478163E-01  0.17229447453E-01  0.74014488266E-02  0.24049177801E-01  0.00000000000E+00 0. -1.
     999901    1    3    3    0    0 -0.10974307513E+00  0.20745058965E-01  0.76523661587E-02  0.88709213654E+00  0.88000000000E+00 0. -1.
        -11    1    4    4    0    0  0.71477966657E-01 -0.11507308216E-01 -0.81012081343E-02  0.72851963282E-01  0.51100000000E-03 0. -1.
         11    1    4    4    0    0  0.53322586633E-01 -0.26467198202E-01 -0.69526068510E-02  0.59936722374E-01  0.51100000000E-03 0.  1.
</event>
<event>
 8    1  0.1097777E+005  0.1043930E+01  0.7957747E-01            NaN
         13   -1    0    0    0    0  0.00000000000E+00  0.00000000000E+00  0.74505805969E-08  0.10566000000E+00  0.10566000000E+00 0.  1.
     999900   -1    0    0    0    0 -0.00000000000E+00 -0.00000000000E+00 -0.74505805969E-08  0.93827000000E+00  0.93827000000E+00 0. -1.
     999902    2    1    2    0    0  0.98805858852E-02 -0.15561269708E-01 -0.14332416499E-01  0.10205805406E+01  0.10203134041E+01 0.  0.
     999903    2    3    3    0    0  0.59538615585E-02 -0.12083372776E+00  0.48877655092E-01  0.13204622907E+00  0.20271734331E-01 0.  0.
         14    1    1    2    0    0 -0.98805858852E-02  0.15561269708E-01  0.14332416499E-01  0.23349459416E-01  0.00000000000E+00 0. -1.
     999901    1    3    3    0    0  0.39267243266E-02  0.10527245805E+00 -0.63210071591E-01  0.88853431151E+00  0.88000000000E+00 0.  1.
        -11    1    4    4    0    0 -0.35300822350E-02 -0.40977597532E-01  0.25098585967E-01  0.48185320572E-01  0.51100000000E-03 0. -1.
         11    1    4    4    0    0  0.94839437935E-02 -0.79856130226E-01  0.23779069125E-01  0.83860908497E-01  0.51100000000E-03 0.  1.
</event>
<event>
 8    1  0.1097777E+005  0.1043930E+01  0.7957747E-01            NaN
         13   -1    0    0    0    0  0.00000000000E+00  0.00000000000E+00  0.74505805969E-08  0.10566000000E+00  0.10566000000E+00 0. -1.
     999900   -1    0    0    0    0 -0.00000000000E+00 -0.00000000000E+00 -0.74505805969E-08  0.93827000000E+00  0.93827000000E+00 0.  1.
     999902    2    1    2    0    0  0.21979265106E-01  0.29099787307E-02 -0.94503017441E-02  0.10198288740E+01  0.10195440491E+01 0.  0.
     999903    2    3    3    0    0  0.95033467199E-01 -0.74655154662E-01 -0.50322559728E-01  0.13245983701E+00  0.20211293800E-01 0.  0.
         14    1    1    2    0    0 -0.21979265106E-01 -0.29099787307E-02  0.94503017441E-02  0.24101125988E-01  0.00000000000E+00 0. -1.
     999901    1    3    3    0    0 -0.73054202092E-01  0.77565133393E-01  0.40872257984E-01  0.88736903700E+00  0.88000000000E+00 0. -1.
        -11    1    4    4    0    0  0.17662103861E-01 -0.21900069203E-01 -0.56381832136E-02  0.28698661552E-01  0.51100000000E-03 0. -1.
         11    1    4    4    0    0  0.77371363337E-01 -0.52755085459E-01 -0.44684376515E-01  0.10376117546E+00  0.51100000000E-03 0.  1.
</event>
<event>
 8    1  0.1097777E+005  0.1043930E+01  0.7957747E-01            NaN
         13   -1    0    0    0    0  0.00000000000E+00  0.00000000000E+00  0.74505805969E-08  0.10566000000E+00  0.10566000000E+00 0. -1.
     999900   -1    0    0    0    0 -0.00000000000E+00 -0.00000000000E+00 -0.74505805969E-08  0.93827000000E+00  0.93827000000E+00 0.  1.
     999902    2    1    2    0    0  0.15579215506E-01 -0.16616642177E-02 -0.18906628830E-01  0.10193752917E+01  0.10190795120E+01 0.  0.
     999903    2    3    3    0    0  0.48100572118E-01  0.94611217111E-01  0.70324795431E-01  0.12904481749E+00  0.21024762232E-01 0.  0.
         14    1    1    2    0    0 -0.15579215506E-01  0.16616642177E-02  0.18906628830E-01  0.24554708255E-01  0.00000000000E+00 0. -1.
     999901    1    3    3    0    0 -0.32521356612E-01 -0.96272881328E-01 -0.89231424261E-01  0.89033047426E+00  0.88000000000E+00 0.  1.
        -11    1    4    4    0    0  0.32080139307E-01  0.58719220323E-01  0.32096330064E-01  0.74212651872E-01  0.51100000000E-03 0.  1.
         11    1    4    4    0    0  0.16020432811E-01  0.35891996788E-01  0.38228465366E-01  0.54832165616E-01  0.51100000000E-03 0. -1.
</event>
<event>
 8    1  0.1097777E+005  0.1043930E+01  0.7957747E-01            NaN
         13   -1    0    0    0    0  0.00000000000E+00  0.00000000000E+00  0.74505805969E-08  0.10566000000E+00  0.10566000000E+00 0.  1.
     999900   -1    0    0    0    0 -0.00000000000E+00 -0.00000000000E+00 -0.74505805969E-08  0.93827000000E+00  0.93827000000E+00 0. -1.
     999902    2    1    2    0    0  0.20028620701E-01 -0.69168949980E-02 -0.10371126810E-01  0.10203387017E+01  0.10200659375E+01 0.  0.
     999903    2    3    3    0    0 -0.77141921173E-01  0.97317648833E-01 -0.27966975846E-01  0.12870168575E+00  0.18983450678E-01 0.  0.
         14    1    1    2    0    0 -0.20028620701E-01  0.69168949980E-02  0.10371126810E-01  0.23591298287E-01  0.00000000000E+00 0.  1.
     999901    1    3    3    0    0  0.97170541874E-01 -0.10423454383E+00  0.17595849036E-01  0.89163701597E+00  0.88000000000E+00 0.  1.
        -11    1    4    4    0    0 -0.50142906635E-01  0.65049312284E-01 -0.27522469820E-01  0.86622581239E-01  0.51100000000E-03 0.  1.
         11    1    4    4    0    0 -0.26999014539E-01  0.32268336549E-01 -0.44450602583E-03  0.42079104509E-01  0.51100000000E-03 0. -1.
</event>
<event>
 8    1  0.1097777E+005  0.1043930E+01  0.7957747E-01            NaN
         13   -1    0    0    0    0  0.00000000000E+00  0.00000000000E+00  0.74505805969E-08  0.10566000000E+00  0.10566000000E+00 0.  1.
     999900   -1    0    0    0    0 -0.00000000000E+00 -0.00000000000E+00 -0.74505805969E-08  0.93827000000E+00  0.93827000000E+00 0.  1.
     999902    2    1    2    0    0 -0.17933161034E-01 -0.86853405126E-03 -0.13935695666E-01  0.10212021266E+01  0.10209491795E+01 0.  0.
     999903    2    3    3    0    0 -0.47848031090E-01 -0.68243887762E-01 -0.10259863748E+00  0.13368003955E+00  0.19930134600E-01 0.  0.
         14    1    1    2    0    0  0.17933161034E-01  0.86853405126E-03  0.13935695666E-01  0.22727873411E-01  0.00000000000E+00 0.  1.
     999901    1    3    3    0    0  0.29914870056E-01  0.67375353710E-01  0.88662941810E-01  0.88752208704E+00  0.88000000000E+00 0.  1.
        -11    1    4    4    0    0 -0.91337260796E-02 -0.28832273083E-01 -0.32006851185E-01  0.44038898341E-01  0.51100000000E-03 0. -1.
         11    1    4    4    0    0 -0.38714305010E-01 -0.39411614678E-01 -0.70591786291E-01  0.89641141206E-01  0.51100000000E-03 0.  1.
</event>
<event>
 8    1  0.1097777E+005  0.1043930E+01  0.7957747E-01            NaN
         13   -1    0    0    0    0  0.00000000000E+00  0.00000000000E+00  0.74505805969E-08  0.10566000000E+00  0.10566000000E+00 0. -1.
     999900   -1    0    0    0    0 -0.00000000000E+00 -0.00000000000E+00 -0.74505805969E-08  0.93827000000E+00  0.93827000000E+00 0. -1.
     999902    2    1    2    0    0 -0.22993433857E-01  0.37652325905E-02  0.11682629048E-01  0.10178654878E+01  0.10175317157E+01 0.  0.
     999903    2    3    3    0    0  0.57200685490E-01 -0.64059195599E-01 -0.89858287297E-01  0.12582187474E+00  0.19522638270E-01 0.  0.
         14    1    1    2    0    0  0.22993433857E-01 -0.37652325905E-02 -0.11682629048E-01  0.26064512243E-01  0.00000000000E+00 0. -1.
     999901    1    3    3    0    0 -0.80194119347E-01  0.67824428190E-01  0.10154091634E+00  0.89204361302E+00  0.88000000000E+00 0.  1.
        -11    1    4    4    0    0  0.41793463689E-01 -0.33920961076E-01 -0.49311551871E-01  0.73001475850E-01  0.51100000000E-03 0.  1.
         11    1    4    4    0    0  0.15407221801E-01 -0.30138234523E-01 -0.40546735427E-01  0.52820398887E-01  0.51100000000E-03 0. -1.
</event>
<event>
 8    1  0.1097777E+005  0.1043930E+01  0.7957747E-01            NaN
         13   -1    0    0    0    0  0.00000000000E+00  0.00000000000E+00  0.74505805969E-08  0.10566000000E+00  0.10566000000E+00 0. -1.
     999900   -1    0    0    0    0 -0.00000000000E+00 -0.00000000000E+00 -0.74505805969E-08  0.93827000000E+00  0.93827000000E+00 0.  1.
     999902    2    1    2    0    0 -0.26372659562E-01  0.19636769504E-02  0.30981783092E-02  0.10173034736E+01  0.10169549574E+01 0.  0.
     999903    2    3    3    0    0  0.48588121082E-01  0.46260242290E-01 -0.10527998202E+00  0.12638982460E+00  0.19740760409E-01 0.  0.
         14    1    1    2    0    0  0.26372659562E-01 -0.19636769504E-02 -0.30981783092E-02  0.26626526405E-01  0.00000000000E+00 0. -1.
     999901    1    3    3    0    0 -0.74960780644E-01 -0.44296565339E-01  0.10837816032E+00  0.89091364900E+00  0.88000000000E+00 0. -1.
        -11    1    4    4    0    0  0.15366671487E-01  0.17491605055E-01 -0.54283583881E-01  0.59068260851E-01  0.51100000000E-03 0. -1.
         11    1    4    4    0    0  0.33221449595E-01  0.28768637235E-01 -0.50996398135E-01  0.67321563746E-01  0.51100000000E-03 0.  1.
</event>
<event>
 8    1  0.1097777E+005  0.1043930E+01  0.7957747E-01            NaN
         13   -1    0    0    0    0  0.00000000000E+00  0.00000000000E+00  0.74505805969E-08  0.10566000000E+00  0.10566000000E+00 0.  1.
     999900   -1    0    0    0    0 -0.00000000000E+00 -0.00000000000E+00 -0.74505805969E-08  0.93827000000E+00  0.93827000000E+00 0.  1.
     999902    2    1    2    0    0  0.11494341096E-02  0.10564870860E-01  0.21416703433E-01  0.10200215730E+01  0.10197413381E+01 0.  0.
     999903    2    3    3    0    0 -0.11227053664E+00  0.57409475490E-01 -0.25738479960E-01  0.13025636911E+00  0.20093060238E-01 0.  0.
         14    1    1    2    0    0 -0.11494341096E-02 -0.10564870860E-01 -0.21416703433E-01  0.23908426987E-01  0.00000000000E+00 0. -1.
     999901    1    3    3    0    0  0.11341997075E+00 -0.46844604630E-01  0.47155183394E-01  0.88976520390E+00  0.88000000000E+00 0. -1.
        -11    1    4    4    0    0 -0.80960416480E-01  0.35682167766E-01 -0.25733021303E-01  0.92142583203E-01  0.51100000000E-03 0. -1.
         11    1    4    4    0    0 -0.31310120164E-01  0.21727307724E-01 -0.54586579024E-05  0.38113785910E-01  0.51100000000E-03 0.  1.
</event>
<event>
 8    1  0.1097777E+005  0.1043930E+01  0.7957747E-01            NaN
         13   -1    0    0    0    0  0.00000000000E+00  0.00000000000E+00  0.74505805969E-08  0.10566000000E+00  0.10566000000E+00 0.  1.
     999900   -1    0    0    0    0 -0.00000000000E+00 -0.00000000000E+00 -0.74505805969E-08  0.93827000000E+00  0.93827000000E+00 0. -1.
     999902    2    1    2    0    0  0.80190730887E-02 -0.19654450900E-01  0.10352295012E-01  0.10203127820E+01  0.10200394111E+01 0.  0.
     999903    2    3    3    0    0  0.63913193372E-01  0.99402246289E-01 -0.46569900566E-01  0.12871938468E+00  0.20837982106E-01 0.  0.
         14    1    1    2    0    0 -0.80190730887E-02  0.19654450900E-01 -0.10352295012E-01  0.23617217986E-01  0.00000000000E+00 0. -1.
     999901    1    3    3    0    0 -0.55894120283E-01 -0.11905669719E+00  0.56922195578E-01  0.89159339734E+00  0.88000000000E+00 0.  1.
        -11    1    4    4    0    0  0.68980476151E-02  0.15310792904E-01  0.36147729786E-03  0.16804619219E-01  0.51100000000E-03 0. -1.
         11    1    4    4    0    0  0.57015145757E-01  0.84091453385E-01 -0.46931377864E-01  0.11191476546E+00  0.51100000000E-03 0.  1.
</event>
<event>
 8    1  0.1097777E+005  0.1043930E+01  0.7957747E-01            NaN
         13   -1    0    0    0    0  0.00000000000E+00  0.00000000000E+00  0.74505805969E-08  0.10566000000E+00  0.10566000000E+00 0.  1.
     999900   -1    0    0    0    0 -0.00000000000E+00 -0.00000000000E+00 -0.74505805969E-08  0.93827000000E+00  0.93827000000E+00 0. -1.
     999902    2    1    2    0    0  0.14011815550E-01  0.46787628964E-02 -0.18768483297E-01  0.10200453237E+01  0.10197656518E+01 0.  0.
     999903    2    3    3    0    0 -0.14353370301E-01 -0.95789428353E-01  0.81521674949E-01  0.12821767382E+00  0.20306515487E-01 0.  0.
         14    1    1    2    0    0 -0.14011815550E-01 -0.46787628964E-02  0.18768483297E-01  0.23884676312E-01  0.00000000000E+00 0.  1.
     999901    1    3    3    0    0  0.28365185852E-01  0.10046819125E+00 -0.10029015825E+00  0.89182764986E+00  0.88000000000E+00 0.  1.
        -11    1    4    4    0    0  0.35166756494E-02 -0.40025350653E-01  0.37427287727E-01  0.54913192314E-01  0.51100000000E-03 0. -1.
         11    1    4    4    0    0 -0.17870045950E-01 -0.55764077700E-01  0.44094387221E-01  0.73304481510E-01  0.51100000000E-03 0.  1.
</event>
<event>
 8    1  0.1097777E+005  0.1043930E+01  0.7957747E-01            NaN
         13   -1    0    0    0    0  0.00000000000E+00  0.00000000000E+00  0.74505805969E-08  0.10566000000E+00  0.10566000000E+00 0.  1.
     999900   -1    0    0    0    0 -0.00000000000E+00 -0.00000000000E+00 -0.74505805969E-08  0.93827000000E+00  0.93827000000E+00 0. -1.
     999902    2    1    2    0    0 -0.16857225126E-01  0.16703168284E-01 -0.22851084137E-02  0.10200892032E+01  0.10198105701E+01 0.  0.
     999903    2    3    3    0    0 -0.28398407077E-01  0.12776175045E+00 -0.12434327941E-01  0.13297578647E+00  0.19960282377E-01 0.  0.
         14    1    1    2    0    0  0.16857225126E-01 -0.16703168284E-01  0.22851084137E-02  0.23840796759E-01  0.00000000000E+00 0. -1.
     999901    1    3    3    0    0  0.11541181952E-01 -0.11105858217E+00  0.10149219527E-01  0.88711341677E+00  0.88000000000E+00 0.  1.
        -11    1    4    4    0    0 -0.56092607813E-02  0.84279848262E-02 -0.48784678554E-02  0.11249680189E-01  0.51100000000E-03 0. -1.
         11    1    4    4    0    0 -0.22789146296E-01  0.11933376563E+00 -0.75558600857E-02  0.12172610628E+00  0.51100000000E-03 0.  1.
</event>
<event>
 8    1  0.1097777E+005  0.1043930E+01  0.7957747E-01            NaN
         13   -1    0    0    0    0  0.00000000000E+00  0.00000000000E+00  0.74505805969E-08  0.10566000000E+00  0.10566000000E+00 0.  1.
     999900   -1    0    0    0    0 -0.00000000000E+00 -0.00000000000E+00 -0.74505805969E-08  0.93827000000E+00  0.93827000000E+00 0.  1.
     999902    2    1    2    0    0 -0.12316064688E-01 -0.11984914929E-01 -0.16159927638E-01  0.10203404494E+01  0.10200677261E+01 0.  0.
     999903    2    3    3    0    0 -0.93664205776E-01 -0.87592345450E-01  0.30105256928E-01  0.13215439295E+00  0.10632716299E-01 0.  0.
         14    1    1    2    0    0  0.12316064688E-01  0.11984914929E-01  0.16159927638E-01  0.23589550579E-01  0.00000000000E+00 0.  1.
     999901    1    3    3    0    0  0.81348141087E-01  0.75607430521E-01 -0.46265184566E-01  0.88818605647E+00  0.88000000000E+00 0.  1.
        -11    1    4    4    0    0 -0.20040166784E-01 -0.13628991209E-01  0.38946149775E-02  0.24551717515E-01  0.51100000000E-03 0.  1.
         11    1    4    4    0    0 -0.73624038992E-01 -0.73963354241E-01  0.26210641950E-01  0.10760267543E+00  0.51100000000E-03 0. -1.
</event>
<event>
 7    1  0.1097777E+005  0.1043930E+01  0.7957747E-01            NaN
         13   -1    0    0    0    0  0.00000000000E+00  0.00000000000E+00  0.74505805969E-08  0.10566000000E+00  0.10566000000E+00 0. -1.
     999900   -1    0    0    0    0 -0.00000000000E+00 -0.00000000000E+00 -0.74505805969E-08  0.93827000000E+00  0.93827000000E+00 0. -1.
     999903    2    1    2    0    0  0.61356524332E-01  0.67878026915E-01 -0.10642351760E-01  0.94210971631E-01  0.19758489533E-01 0.  0.
         14    1    1    2    0    0  0.21601588528E-01 -0.34033124677E-01 -0.48655692964E-01  0.63184322898E-01  0.00000000000E+00 0. -1.
     999901    1    1    2    0    0 -0.82958112861E-01 -0.33844902238E-01  0.59298044724E-01  0.88653470547E+00  0.88000000000E+00 0.  1.
        -11    1    3    3    0    0  0.23715058015E-01  0.14007842385E-01 -0.68213243414E-02  0.28379838120E-01  0.51100000000E-03 0. -1.
         11    1    3    3    0    0  0.37641466317E-01  0.53870184530E-01 -0.38210274184E-02  0.65831133511E-01  0.51100000000E-03 0.  1.
</event>
<event>
 8    1  0.1097777E+005  0.1043930E+01  0.7957747E-01            NaN
         13   -1    0    0    0    0  0.00000000000E+00  0.00000000000E+00  0.74505805969E-08  0.10566000000E+00  0.10566000000E+00 0.  1.
     999900   -1    0    0    0    0 -0.00000000000E+00 -0.00000000000E+00 -0.74505805969E-08  0.93827000000E+00  0.93827000000E+00 0. -1.
     999902    2    1    2    0    0 -0.48983514023E-02 -0.19450907015E-01 -0.12816321540E-01  0.10201268547E+01  0.10198491113E+01 0.  0.
     999903    2    3    3    0    0  0.10862548263E+00 -0.69587079983E-01  0.14064968965E-01  0.13101274471E+00  0.18018289283E-01 0.  0.
         14    1    1    2    0    0  0.48983514023E-02  0.19450907015E-01  0.12816321540E-01  0.23803145338E-01  0.00000000000E+00 0. -1.
     999901    1    3    3    0    0 -0.11352383403E+00  0.50136172968E-01 -0.26881290505E-01  0.88911410995E+00  0.88000000000E+00 0. -1.
        -11    1    4    4    0    0  0.88334093434E-01 -0.53706710479E-01  0.18018972777E-01  0.10493935065E+00  0.51100000000E-03 0. -1.
         11    1    4    4    0    0  0.20291389192E-01 -0.15880369504E-01 -0.39540038120E-02  0.26073394065E-01  0.51100000000E-03 0.  1.
</event>
<event>
 8    1  0.1097777E+005  0.1043930E+01  0.7957747E-01            NaN
         13   -1    0    0    0    0  0.00000000000E+00  0.00000000000E+00  0.74505805969E-08  0.10566000000E+00  0.10566000000E+00 0.  1.
     999900   -1    0    0    0    0 -0.00000000000E+00 -0.00000000000E+00 -0.74505805969E-08  0.93827000000E+00  0.93827000000E+00 0.  1.
     999902    2    1    2    0    0  0.19522779673E-01  0.54232747416E-02  0.12286709440E-01  0.10202337120E+01  0.10199584860E+01 0.  0.
     999903    2    3    3    0    0  0.59135972348E-01  0.17057027915E-01  0.11641023262E+00  0.13313379807E+00  0.19628054040E-01 0.  0.
         14    1    1    2    0    0 -0.19522779673E-01 -0.54232747416E-02 -0.12286709440E-01  0.23696287978E-01  0.00000000000E+00 0. -1.
     999901    1    3    3    0    0 -0.39613192675E-01 -0.11633753173E-01 -0.10412352318E+00  0.88709991395E+00  0.88000000000E+00 0.  1.
        -11    1    4    4    0    0  0.49684008900E-01  0.16176279083E-01  0.80389230263E-01  0.95879414937E-01  0.51100000000E-03 0. -1.
         11    1    4    4    0    0  0.94519634481E-02  0.88074883250E-03  0.36021002352E-01  0.37254383138E-01  0.51100000000E-03 0.  1.
</event>
<event>
 8    1  0.1097777E+005  0.1043930E+01  0.7957747E-01            NaN
         13   -1    0    0    0    0  0.00000000000E+00  0.00000000000E+00  0.74505805969E-08  0.10566000000E+00  0.10566000000E+00 0.  1.
     999900   -1    0    0    0    0 -0.00000000000E+00 -0.00000000000E+00 -0.74505805969E-08  0.93827000000E+00  0.93827000000E+00 0. -1.
     999902    2    1    2    0    0 -0.10625801439E-01 -0.22029012744E-01 -0.40087757320E-02  0.10191458248E+01  0.10188444223E+01 0.  0.
     999903    2    3    3    0    0 -0.65454081126E-01 -0.89291791121E-01 -0.69676254589E-01  0.13244258277E+00  0.20712232586E-01 0.  0.
         14    1    1    2    0    0  0.10625801439E-01  0.22029012744E-01  0.40087757320E-02  0.24784175225E-01  0.00000000000E+00 0. -1.
     999901    1    3    3    0    0  0.54828279687E-01  0.67262778376E-01  0.65667478857E-01  0.88670324201E+00  0.88000000000E+00 0.  1.
        -11    1    4    4    0    0 -0.57684560678E-01 -0.73421309924E-01 -0.66114431927E-01  0.11440968718E+00  0.51100000000E-03 0. -1.
         11    1    4    4    0    0 -0.77695204483E-02 -0.15870481197E-01 -0.35618226625E-02  0.18032895583E-01  0.51100000000E-03 0.  1.
</event>
<event>
 8    1  0.1097777E+005  0.1043930E+01  0.7957747E-01            NaN
         13   -1    0    0    0    0  0.00000000000E+00  0.00000000000E+00  0.74505805969E-08  0.10566000000E+00  0.10566000000E+00 0.  1.
     999900   -1    0    0    0    0 -0.00000000000E+00 -0.00000000000E+00 -0.74505805969E-08  0.93827000000E+00  0.93827000000E+00 0. -1.
     999902    2    1    2    0    0 -0.18652280324E-01  0.15409036348E-01  0.18470417686E-02  0.10196656738E+01  0.10193769317E+01 0.  0.
     999903    2    3    3    0    0 -0.10961014483E+00  0.36105809486E-01 -0.62301582484E-01  0.13241332214E+00  0.18269848696E-01 0.  0.
         14    1    1    2    0    0  0.18652280324E-01 -0.15409036348E-01 -0.18470417686E-02  0.24264326197E-01  0.00000000000E+00 0.  1.
     999901    1    3    3    0    0  0.90957864511E-01 -0.20696773137E-01  0.64148624253E-01  0.88725235166E+00  0.88000000000E+00 0.  1.
        -11    1    4    4    0    0 -0.18979018774E-01  0.13555228952E-01 -0.14856818988E-01  0.27657432581E-01  0.51100000000E-03 0.  1.
         11    1    4    4    0    0 -0.90631126061E-01  0.22550580534E-01 -0.47444763497E-01  0.10475588956E+00  0.51100000000E-03 0. -1.
</event>
<event>
 8    1  0.1097777E+005  0.1043930E+01  0.7957747E-01            NaN
         13   -1    0    0    0    0  0.00000000000E+00  0.00000000000E+00  0.74505805969E-08  0.10566000000E+00  0.10566000000E+00 0.  1.
     999900   -1    0    0    0    0 -0.00000000000E+00 -0.00000000000E+00 -0.74505805969E-08  0.93827000000E+00  0.93827000000E+00 0. -1.
     999902    2    1    2    0    0 -0.74618295059E-02 -0.75378306176E-02  0.21393840151E-01  0.10200512608E+01  0.10197717296E+01 0.  0.
     999903    2    3    3    0    0 -0.10720221126E+00 -0.15425325962E-01  0.74028377317E-01  0.13281918808E+00  0.20748043166E-01 0.  0.
         14    1    1    2    0    0  0.74618295059E-02  0.75378306176E-02 -0.21393840151E-01  0.23878739213E-01  0.00000000000E+00 0. -1.
     999901    1    3    3    0    0  0.99740381751E-01  0.78874953443E-02 -0.52634537166E-01  0.88723207271E+00  0.88000000000E+00 0. -1.
        -11    1    4    4    0    0 -0.50601241490E-02 -0.30726757067E-02  0.10010031115E-01  0.11640791911E-01  0.51100000000E-03 0.  1.
         11    1    4    4    0    0 -0.10214208711E+00 -0.12352650255E-01  0.64018346202E-01  0.12117839617E+00  0.51100000000E-03 0. -1.
</event>
<event>
 8    1  0.1097777E+005  0.1043930E+01  0.7957747E-01            NaN
         13   -1    0    0    0    0  0.00000000000E+00  0.00000000000E+00  0.74505805969E-08  0.10566000000E+00  0.10566000000E+00 0.  1.
     999900   -1    0    0    0    0 -0.00000000000E+00 -0.00000000000E+00 -0.74505805969E-08  0.93827000000E+00  0.93827000000E+00 0.  1.
     999902    2    1    2    0    0 -0.15407908483E-01  0.15597907480E-01  0.11931682331E-01  0.10189687620E+01  0.10186629837E+01 0.  0.
     999903    2    3    3    0    0  0.51353684641E-01  0.98255822107E-01 -0.63480892863E-01  0.12937531680E+00  0.20414243401E-01 0.  0.
         14    1    1    2    0    0  0.15407908483E-01 -0.15597907480E-01 -0.11931682331E-01  0.24961238047E-01  0.00000000000E+00 0. -1.
     999901    1    3    3    0    0 -0.66761593124E-01 -0.82657914627E-01  0.75412575194E-01  0.88959344516E+00  0.88000000000E+00 0. -1.
        -11    1    4    4    0    0  0.14372707214E-01  0.15310247509E-01 -0.58117094630E-02  0.21794849834E-01  0.51100000000E-03 0.  1.
         11    1    4    4    0    0  0.36980977427E-01  0.82945574599E-01 -0.57669183400E-01  0.10758046696E+00  0.51100000000E-03 0. -1.
</event>
<event>
 8    1  0.1097777E+005  0.1043930E+01  0.7957747E-01            NaN
         13   -1    0    0    0    0  0.00000000000E+00  0.00000000000E+00  0.74505805969E-08  0.10566000000E+00  0.10566000000E+00 0. -1.
     999900   -1    0    0    0    0 -0.00000000000E+00 -0.00000000000E+00 -0.74505805969E-08  0.93827000000E+00  0.93827000000E+00 0.  1.
     999902    2    1    2    0    0  0.16513088915E-01 -0.93236854784E-02  0.99115334650E-02  0.10225325302E+01  0.10223086245E+01 0.  0.
     999903    2    3    3    0    0  0.33625257944E-01  0.12451412181E+00  0.20863954190E-01  0.13218128466E+00  0.20054000322E-01 0.  0.
         14    1    1    2    0    0 -0.16513088915E-01  0.93236854784E-02 -0.99115334650E-02  0.21397469758E-01  0.00000000000E+00 0.  1.
     999901    1    3    3    0    0 -0.17112169029E-01 -0.13383780729E+00 -0.10952420725E-01  0.89035124558E+00  0.88000000000E+00 0.  1.
        -11    1    4    4    0    0  0.30366860727E-01  0.82840209930E-01  0.87928986150E-02  0.88669176147E-01  0.51100000000E-03 0.  1.
         11    1    4    4    0    0  0.32583972176E-02  0.41673911878E-01  0.12071055575E-01  0.43512108514E-01  0.51100000000E-03 0. -1.
</event>
<event>
 8    1  0.1097777E+005  0.1043930E+01  0.7957747E-01            NaN
         13   -1    0    0    0    0  0.00000000000E+00  0.00000000000E+00  0.74505805969E-08  0.10566000000E+00  0.10566000000E+00 0. -1.
     999900   -1    0    0    0    0 -0.00000000000E+00 -0.00000000000E+00 -0.74505805969E-08  0.93827000000E+00  0.93827000000E+00 0.  1.
     999902    2    1    2    0    0  0.23437543800E-01 -0.32322556486E-02 -0.51503055664E-02  0.10197165413E+01  0.10194290230E+01 0.  0.
     999903    2    3    3    0    0 -0.76552462010E-01  0.77745648772E-01 -0.64844815699E-01  0.12835866881E+00  0.19142423909E-01 0.  0.
         14    1    1    2    0    0 -0.23437543800E-01  0.32322556486E-02  0.51503055664E-02  0.24213458724E-01  0.00000000000E+00 0.  1.
     999901    1    3    3    0    0  0.99990005810E-01 -0.80977904420E-01  0.59694510133E-01  0.89135787247E+00  0.88000000000E+00 0. -1.
        -11    1    4    4    0    0 -0.35119466685E-01  0.26297175728E-01 -0.18257783359E-01  0.47523953599E-01  0.51100000000E-03 0.  1.
         11    1    4    4    0    0 -0.41432995325E-01  0.51448473044E-01 -0.46587032340E-01  0.80834715211E-01  0.51100000000E-03 0. -1.
</event>
<event>
 8    1  0.1097777E+005  0.1043930E+01  0.7957747E-01            NaN
         13   -1    0    0    0    0  0.00000000000E+00  0.00000000000E+00  0.74505805969E-08  0.10566000000E+00  0.10566000000E+00 0.  1.
     999900   -1    0    0    0    0 -0.00000000000E+00 -0.00000000000E+00 -0.74505805969E-08  0.93827000000E+00  0.93827000000E+00 0. -1.
     999902    2    1    2    0    0 -0.10860483299E-01  0.14400074831E-01 -0.15878706335E-01  0.10198999029E+01  0.10196167742E+01 0.  0.
     999903    2    3    3    0    0  0.17749510752E-01  0.11467436110E+00 -0.60639881440E-01  0.13261357534E+00  0.21069193603E-01 0.  0.
         14    1    1    2    0    0  0.10860483299E-01 -0.14400074831E-01  0.15878706335E-01  0.24030097118E-01  0.00000000000E+00 0.  1.
     999901    1    3    3    0    0 -0.28609994051E-01 -0.10027428626E+00  0.44761175104E-01  0.88728632754E+00  0.88000000000E+00 0.  1.
        -11    1    4    4    0    0  0.37947406307E-02  0.78047015404E-01 -0.46571578074E-01  0.90966530522E-01  0.51100000000E-03 0. -1.
         11    1    4    4    0    0  0.13954770121E-01  0.36627345691E-01 -0.14068303366E-01  0.41647044818E-01  0.51100000000E-03 0.  1.
</event>
<event>
 8    1  0.1097777E+005  0.1043930E+01  0.7957747E-01            NaN
         13   -1    0    0    0    0  0.00000000000E+00  0.00000000000E+00  0.74505805969E-08  0.10566000000E+00  0.10566000000E+00 0.  1.
     999900   -1    0    0    0    0 -0.00000000000E+00 -0.00000000000E+00 -0.74505805969E-08  0.93827000000E+00  0.93827000000E+00 0. -1.
     999902    2    1    2    0    0  0.25564386472E-02 -0.22788190397E-01  0.35560781126E-02  0.10207247702E+01  0.10204609614E+01 0.  0.
     999903    2    3    3    0    0  0.12059476181E+00 -0.48547974417E-01 -0.19324106647E-01  0.13217532581E+00  0.14031865884E-01 0.  0.
         14    1    1    2    0    0 -0.25564386472E-02  0.22788190397E-01 -0.35560781126E-02  0.23205229834E-01  0.00000000000E+00 0. -1.
     999901    1    3    3    0    0 -0.11803832316E+00  0.25759784020E-01  0.22880184760E-01  0.88854944435E+00  0.88000000000E+00 0. -1.
        -11    1    4    4    0    0  0.11204918789E+00 -0.47570458762E-01 -0.20612804186E-01  0.12346302228E+00  0.51100000000E-03 0.  1.
         11    1    4    4    0    0  0.85455739179E-02 -0.97751565534E-03  0.12886975391E-02  0.87123035295E-02  0.51100000000E-03 0. -1.
</event>
<event>
 8    1  0.1097777E+005  0.1043930E+01  0.7957747E-01            NaN
         13   -1    0    0    0    0  0.00000000000E+00  0.00000000000E+00  0.74505805969E-08  0.10566000000E+00  0.10566000000E+00 0. -1.
     999900   -1    0    0    0    0 -0.00000000000E+00 -0.00000000000E+00 -0.74505805969E-08  0.93827000000E+00  0.93827000000E+00 0. -1.
     999902    2    1    2    0    0  0.12477409679E-01 -0.20666289757E-01 -0.34125370907E-02  0.10195491326E+01  0.10192575764E+01 0.  0.
     999903    2    3    3    0    0 -0.18724418506E-02 -0.11403506343E+00  0.63459141688E-01  0.13197070366E+00  0.19537201223E-01 0.  0.
         14    1    1    2    0    0 -0.12477409679E-01  0.20666289757E-01  0.34125370907E-02  0.24380867376E-01  0.00000000000E+00 0. -1.
     999901    1    3    3    0    0  0.14349851530E-01  0.93368773672E-01 -0.66871678779E-01  0.88757842896E+00  0.88000000000E+00 0. -1.
        -11    1    4    4    0    0  0.65435084742E-02 -0.36157633031E-01  0.26809299703E-01  0.45488367756E-01  0.51100000000E-03 0. -1.
         11    1    4    4    0    0 -0.84159503248E-02 -0.77877430398E-01  0.36649841985E-01  0.86482335906E-01  0.51100000000E-03 0.  1.
</event>
<event>
 8    1  0.1097777E+005  0.1043930E+01  0.7957747E-01            NaN
         13   -1    0    0    0    0  0.00000000000E+00  0.00000000000E+00  0.74505805969E-08  0.10566000000E+00  0.10566000000E+00 0. -1.
     999900   -1    0    0    0    0 -0.00000000000E+00 -0.00000000000E+00 -0.74505805969E-08  0.93827000000E+00  0.93827000000E+00 0.  1.
     999902    2    1    2    0    0 -0.16923587943E-01 -0.15970576479E-01  0.37287044163E-02  0.10203637025E+01  0.10200915228E+01 0.  0.
     999903    2    3    3    0    0  0.71112909022E-01  0.10075523933E+00 -0.26782257060E-01  0.12777966742E+00  0.20042206243E-01 0.  0.
         14    1    1    2    0    0  0.16923587943E-01  0.15970576479E-01 -0.37287044163E-02  0.23566297515E-01  0.00000000000E+00 0.  1.
     999901    1    3    3    0    0 -0.88036496965E-01 -0.11672581581E+00  0.30510961477E-01  0.89258403506E+00  0.88000000000E+00 0.  1.
        -11    1    4    4    0    0  0.11723907929E-01  0.15016860616E-01  0.30427943003E-02  0.19299633107E-01  0.51100000000E-03 0. -1.
         11    1    4    4    0    0  0.59389001093E-01  0.85738378717E-01 -0.29825051361E-01  0.10848003432E+00  0.51100000000E-03 0.  1.
</event>
<event>
 7    1  0.1097777E+005  0.1043930E+01  0.7957747E-01            NaN
         13   -1    0    0    0    0  0.00000000000E+00  0.00000000000E+00  0.74505805969E-08  0.10566000000E+00  0.10566000000E+00 0. -1.
     999900   -1    0    0    0    0 -0.00000000000E+00 -0.00000000000E+00 -0.74505805969E-08  0.93827000000E+00  0.93827000000E+00 0. -1.
     999903    2    1    2    0    0  0.89522860135E-02  0.38091956913E-01 -0.67886175422E-01  0.80736210477E-01  0.19459246194E-01 0.  0.
         14    1    1    2    0    0  0.56305460107E-01  0.39584115694E-01  0.33876612702E-01  0.76712658286E-01  0.00000000000E+00 0. -1.
     999901    1    1    2    0    0 -0.65257746120E-01 -0.77676072607E-01  0.34009562720E-01  0.88648113124E+00  0.88000000000E+00 0.  1.
        -11    1    3    3    0    0  0.13161003986E-01  0.25081539700E-01 -0.34410205121E-01  0.44571504318E-01  0.51100000000E-03 0.  1.
         11    1    3    3    0    0 -0.42087179726E-02  0.13010417213E-01 -0.33475970300E-01  0.36164706159E-01  0.51100000000E-03 0. -1.
</event>
<event>
 8    1  0.1097777E+005  0.1043930E+01  0.7957747E-01            NaN
         13   -1    0    0    0    0  0.00000000000E+00  0.00000000000E+00  0.74505805969E-08  0.10566000000E+00  0.10566000000E+00 0. -1.
     999900   -1    0    0    0    0 -0.00000000000E+00 -0.00000000000E+00 -0.74505805969E-08  0.93827000000E+00  0.93827000000E+00 0. -1.
     999902    2    1    2    0    0 -0.84560909808E-02 -0.21011960684E-01 -0.43223768913E-02  0.10208715762E+01  0.10206111327E+01 0.  0.
     999903    2    3    3    0    0 -0.11078605888E+00  0.61152135009E-01  0.24977773908E-01  0.13065763573E+00  0.20842123858E-01 0.  0.
         14    1    1    2    0    0  0.84560909808E-02  0.21011960684E-01  0.43223768913E-02  0.23058423807E-01  0.00000000000E+00 0. -1.
     999901    1    3    3    0    0  0.10232996790E+00 -0.82164095693E-01 -0.29300150799E-01  0.89021394046E+00  0.88000000000E+00 0. -1.
        -11    1    4    4    0    0 -0.44354381465E-01  0.16067004680E-01  0.23216814998E-02  0.47234638990E-01  0.51100000000E-03 0.  1.
         11    1    4    4    0    0 -0.66431677419E-01  0.45085130329E-01  0.22656092408E-01  0.83422996744E-01  0.51100000000E-03 0. -1.
</event>
<event>
 8    1  0.1097777E+005  0.1043930E+01  0.7957747E-01            NaN
         13   -1    0    0    0    0  0.00000000000E+00  0.00000000000E+00  0.74505805969E-08  0.10566000000E+00  0.10566000000E+00 0.  1.
     999900   -1    0    0    0    0 -0.00000000000E+00 -0.00000000000E+00 -0.74505805969E-08  0.93827000000E+00  0.93827000000E+00 0.  1.
     999902    2    1    2    0    0  0.14126823859E-01  0.64904353570E-02  0.19007820017E-01  0.10193741428E+01  0.10190783350E+01 0.  0.
     999903    2    3    3    0    0 -0.13026299273E-01  0.86621694044E-01 -0.92234545599E-01  0.12834486454E+00  0.17093580697E-01 0.  0.
         14    1    1    2    0    0 -0.14126823859E-01 -0.64904353570E-02 -0.19007820017E-01  0.24555857249E-01  0.00000000000E+00 0. -1.
     999901    1    3    3    0    0  0.27153123132E-01 -0.80131258687E-01  0.11124236562E+00  0.89102927821E+00  0.88000000000E+00 0. -1.
        -11    1    4    4    0    0  0.42090461903E-02  0.17111244288E-01 -0.18564416647E-01  0.25600965555E-01  0.51100000000E-03 0. -1.
         11    1    4    4    0    0 -0.17235345463E-01  0.69510449756E-01 -0.73670128951E-01  0.10274389899E+00  0.51100000000E-03 0.  1.
</event>
<event>
 8    1  0.1097777E+005  0.1043930E+01  0.7957747E-01            NaN
         13   -1    0    0    0    0  0.00000000000E+00  0.00000000000E+00  0.74505805969E-08  0.10566000000E+00  0.10566000000E+00 0.  1.
     999900   -1    0    0    0    0 -0.00000000000E+00 -0.00000000000E+00 -0.74505805969E-08  0.93827000000E+00  0.93827000000E+00 0. -1.
     999902    2    1    2    0    0 -0.14661205839E-01 -0.65775772878E-03  0.21970357368E-01  0.10175087925E+01  0.10171657007E+01 0.  0.
     999903    2    3    3    0    0 -0.42443447501E-01  0.15011851264E-01  0.12175565895E+00  0.13129522006E+00  0.19677205320E-01 0.  0.
         14    1    1    2    0    0  0.14661205839E-01  0.65775772878E-03 -0.21970357368E-01  0.26421207481E-01  0.00000000000E+00 0. -1.
     999901    1    3    3    0    0  0.27782241661E-01 -0.15669608993E-01 -0.99785301586E-01  0.88621357246E+00  0.88000000000E+00 0. -1.
        -11    1    4    4    0    0 -0.27850546982E-01  0.14576460765E-02  0.85380873986E-01  0.89821670342E-01  0.51100000000E-03 0. -1.
         11    1    4    4    0    0 -0.14592900518E-01  0.13554205188E-01  0.36374784967E-01  0.41473549718E-01  0.51100000000E-03 0.  1.
</event>
<event>
 8    1  0.1132889E+005  0.1043930E+01  0.7957747E-01            NaN
         13   -1    0    0    0    0  0.00000000000E+00  0.00000000000E+00  0.74505805969E-08  0.10566000000E+00  0.10566000000E+00 0. -1.
     999900   -1    0    0    0    0 -0.00000000000E+00 -0.00000000000E+00 -0.74505805969E-08  0.93827000000E+00  0.93827000000E+00 0.  1.
     999902    2    1    2    0    0 -0.20899924412E-01 -0.13383491033E-01  0.48973829466E-02  0.10186335767E+01  0.10183194266E+01 0.  0.
     999903    2    3    3    0    0 -0.15757777650E-01 -0.12140376870E+00 -0.41504559761E-01  0.13080028020E+00  0.19972536398E-01 0.  0.
         14    1    1    2    0    0  0.20899924412E-01  0.13383491033E-01 -0.48973829466E-02  0.25296423312E-01  0.00000000000E+00 0.  1.
     999901    1    3    3    0    0 -0.51421467621E-02  0.10802027766E+00  0.46401942708E-01  0.88783329648E+00  0.88000000000E+00 0. -1.
        -11    1    4    4    0    0 -0.18856996418E-01 -0.70579317798E-01 -0.26496160859E-01  0.77713152529E-01  0.51100000000E-03 0.  1.
         11    1    4    4    0    0  0.30992187683E-02 -0.50824450898E-01 -0.15008398902E-01  0.53087127674E-01  0.51100000000E-03 0. -1.
</event>
<event>
 8    1  0.1097777E+005  0.1043930E+01  0.7957747E-01            NaN
         13   -1    0    0    0    0  0.00000000000E+00  0.00000000000E+00  0.74505805969E-08  0.10566000000E+00  0.10566000000E+00 0.  1.
     999900   -1    0    0    0    0 -0.00000000000E+00 -0.00000000000E+00 -0.74505805969E-08  0.93827000000E+00  0.93827000000E+00 0. -1.
     999902    2    1    2    0    0  0.10696664916E-02 -0.13411381688E-01  0.21196494844E-01  0.10188242091E+01  0.10185148346E+01 0.  0.
     999903    2    3    3    0    0  0.89587966477E-01 -0.88417104054E-01 -0.25789533018E-01  0.12996593316E+00  0.19556475692E-01 0.  0.
         14    1    1    2    0    0 -0.10696664916E-02  0.13411381688E-01 -0.21196494844E-01  0.25105790943E-01  0.00000000000E+00 0. -1.
     999901    1    3    3    0    0 -0.88518299985E-01  0.75005722366E-01  0.46986027863E-01  0.88885827590E+00  0.88000000000E+00 0.  1.
        -11    1    4    4    0    0  0.30584242740E-01 -0.18452729303E-01 -0.99278636588E-02  0.37077253412E-01  0.51100000000E-03 0.  1.
         11    1    4    4    0    0  0.59003723736E-01 -0.69964374751E-01 -0.15861669360E-01  0.92888679746E-01  0.51100000000E-03 0. -1.
</event>
<event>
 8    1  0.1097777E+005  0.1043930E+01  0.7957747E-01            NaN
         13   -1    0    0    0    0  0.00000000000E+00  0.00000000000E+00  0.74505805969E-08  0.10566000000E+00  0.10566000000E+00 0. -1.
     999900   -1    0    0    0    0 -0.00000000000E+00 -0.00000000000E+00 -0.74505805969E-08  0.93827000000E+00  0.93827000000E+00 0.  1.
     999902    2    1    2    0    0  0.88106992675E-03 -0.15317648552E-01 -0.21260940531E-01  0.10177110329E+01  0.10173732414E+01 0.  0.
     999903    2    3    3    0    0  0.52823309227E-01 -0.96917848769E-01  0.62609654827E-01  0.12844680580E+00  0.19880685002E-01 0.  0.
         14    1    1    2    0    0 -0.88106992675E-03  0.15317648552E-01  0.21260940531E-01  0.26218967059E-01  0.00000000000E+00 0. -1.
     999901    1    3    3    0    0 -0.51942239300E-01  0.81600200216E-01 -0.83870595358E-01  0.88926422714E+00  0.88000000000E+00 0.  1.
        -11    1    4    4    0    0  0.50991726829E-01 -0.95908433321E-01  0.57501422503E-01  0.12290345194E+00  0.51100000000E-03 0. -1.
         11    1    4    4    0    0  0.18315823980E-02 -0.10094154474E-02  0.51082323236E-02  0.55433538673E-02  0.51100000000E-03 0.  1.
</event>
<event>
 8    1  0.1097777E+005  0.1043930E+01  0.7957747E-01            NaN
         13   -1    0    0    0    0  0.00000000000E+00  0.00000000000E+00  0.74505805969E-08  0.10566000000E+00  0.10566000000E+00 0. -1.
     999900   -1    0    0    0    0 -0.00000000000E+00 -0.00000000000E+00 -0.74505805969E-08  0.93827000000E+00  0.93827000000E+00 0. -1.
     999902    2    1    2    0    0  0.13485507577E-01  0.19117117365E-01  0.42627363601E-02  0.10201498820E+01  0.10198726821E+01 0.  0.
     999903    2    3    3    0    0  0.10472644220E+00 -0.22046908544E-01 -0.73851232723E-01  0.13103730344E+00  0.16219631508E-01 0.  0.
         14    1    1    2    0    0 -0.13485507577E-01 -0.19117117365E-01 -0.42627363601E-02  0.23780118003E-01  0.00000000000E+00 0.  1.
     999901    1    3    3    0    0 -0.91240934623E-01  0.41164025910E-01  0.78113969083E-01  0.88911257856E+00  0.88000000000E+00 0. -1.
        -11    1    4    4    0    0  0.64662026061E-01 -0.13612388934E-01 -0.54932837803E-01  0.85932255509E-01  0.51100000000E-03 0.  1.
         11    1    4    4    0    0  0.40064416139E-01 -0.84345196101E-02 -0.18918394920E-01  0.45105047932E-01  0.51100000000E-03 0. -1.
</event>
<event>
 8    1  0.1097777E+005  0.1043930E+01  0.7957747E-01            NaN
         13   -1    0    0    0    0  0.00000000000E+00  0.00000000000E+00  0.74505805969E-08  0.10566000000E+00  0.10566000000E+00 0. -1.
     999900   -1    0    0    0    0 -0.00000000000E+00 -0.00000000000E+00 -0.74505805969E-08  0.93827000000E+00  0.93827000000E+00 0. -1.
     999902    2    1    2    0    0  0.20307277192E-01 -0.12595276962E-01  0.32319563273E-02  0.10198162684E+01  0.10195311419E+01 0.  0.
     999903    2    3    3    0    0  0.84336846494E-01  0.88409145487E-01 -0.40595216865E-01  0.13064671193E+00  0.22174557994E-01 0.  0.
         14    1    1    2    0    0 -0.20307277192E-01  0.12595276962E-01 -0.32319563273E-02  0.24113731573E-01  0.00000000000E+00 0.  1.
     999901    1    3    3    0    0 -0.64029569302E-01 -0.10100442245E+00  0.43827173192E-01  0.88916955650E+00  0.88000000000E+00 0.  1.
        -11    1    4    4    0    0  0.55164079663E-01  0.67202995537E-01 -0.20394740403E-01  0.89305794052E-01  0.51100000000E-03 0.  1.
         11    1    4    4    0    0  0.29172766831E-01  0.21206149950E-01 -0.20200476462E-01  0.41340917873E-01  0.51100000000E-03 0. -1.
</event>
<event>
 8    1  0.1097777E+005  0.1043930E+01  0.7957747E-01            NaN
         13   -1    0    0    0    0  0.00000000000E+00  0.00000000000E+00  0.74505805969E-08  0.10566000000E+00  0.10566000000E+00 0.  1.
     999900   -1    0    0    0    0 -0.00000000000E+00 -0.00000000000E+00 -0.74505805969E-08  0.93827000000E+00  0.93827000000E+00 0.  1.
     999902    2    1    2    0    0  0.76835376972E-02 -0.18643768688E-01  0.12497827894E-01  0.10202061183E+01  0.10199302433E+01 0.  0.
     999903    2    3    3    0    0 -0.78237315320E-01  0.52846661278E-01 -0.84030683865E-01  0.12789954083E+00  0.19577783230E-01 0.  0.
         14    1    1    2    0    0 -0.76835376972E-02  0.18643768688E-01 -0.12497827894E-01  0.23723881734E-01  0.00000000000E+00 0. -1.
     999901    1    3    3    0    0  0.85920853017E-01 -0.71490429966E-01  0.96528511759E-01  0.89230657744E+00  0.88000000000E+00 0. -1.
        -11    1    4    4    0    0 -0.13042922397E-01  0.95169873418E-03 -0.10942997605E-01  0.17059714908E-01  0.51100000000E-03 0.  1.
         11    1    4    4    0    0 -0.65194392922E-01  0.51894962544E-01 -0.73087686259E-01  0.11083982592E+00  0.51100000000E-03 0. -1.
</event>
<event>
 8    1  0.1097777E+005  0.1043930E+01  0.7957747E-01            NaN
         13   -1    0    0    0    0  0.00000000000E+00  0.00000000000E+00  0.74505805969E-08  0.10566000000E+00  0.10566000000E+00 0.  1.
     999900   -1    0    0    0    0 -0.00000000000E+00 -0.00000000000E+00 -0.74505805969E-08  0.93827000000E+00  0.93827000000E+00 0. -1.
     999902    2    1    2    0    0  0.16022309947E-01 -0.12852127207E-01 -0.58998422098E-02  0.10225594659E+01  0.10223361294E+01 0.  0.
     999903    2    3    3    0    0  0.31711428855E-01 -0.86830013435E-02 -0.12827507036E+00  0.13394299828E+00  0.20130173360E-01 0.  0.
         14    1    1    2    0    0 -0.16022309947E-01  0.12852127207E-01  0.58998422098E-02  0.21370534104E-01  0.00000000000E+00 0.  1.
     999901    1    3    3    0    0 -0.15689118907E-01 -0.41691258637E-02  0.12237522815E+00  0.88861646762E+00  0.88000000000E+00 0.  1.
        -11    1    4    4    0    0  0.16838420437E-01  0.51009897088E-02 -0.72111292859E-01  0.74228378519E-01  0.51100000000E-03 0.  1.
         11    1    4    4    0    0  0.14873008417E-01 -0.13783991052E-01 -0.56163777499E-01  0.59714619756E-01  0.51100000000E-03 0. -1.
</event>
<event>
 8    1  0.1097777E+005  0.1043930E+01  0.7957747E-01            NaN
         13   -1    0    0    0    0  0.00000000000E+00  0.00000000000E+00  0.74505805969E-08  0.10566000000E+00  0.10566000000E+00 0. -1.
     999900   -1    0    0    0    0 -0.00000000000E+00 -0.00000000000E+00 -0.74505805969E-08  0.93827000000E+00  0.93827000000E+00 0. -1.
     999902    2    1    2    0    0  0.10907061947E-01  0.10989715391E-01 -0.18185793442E-01  0.10200456761E+01  0.10197660126E+01 0.  0.
     999903    2    3    3    0    0  0.88232382288E-01  0.91917981402E-01  0.28199202505E-01  0.13174383706E+00  0.18093506908E-01 0.  0.
         14    1    1    2    0    0 -0.10907061947E-01 -0.10989715391E-01  0.18185793442E-01  0.23884323892E-01  0.00000000000E+00 0. -1.
     999901    1    3    3    0    0 -0.77325320341E-01 -0.80928266012E-01 -0.46384995947E-01  0.88830183905E+00  0.88000000000E+00 0. -1.
        -11    1    4    4    0    0  0.52480426750E-01  0.41713633917E-01  0.13719466440E-01  0.68430310001E-01  0.51100000000E-03 0.  1.
         11    1    4    4    0    0  0.35751955538E-01  0.50204347485E-01  0.14479736065E-01  0.63313527060E-01  0.51100000000E-03 0. -1.
</event>
<event>
 8    1  0.1097777E+005  0.1043930E+01  0.7957747E-01            NaN
         13   -1    0    0    0    0  0.00000000000E+00  0.00000000000E+00  0.74505805969E-08  0.10566000000E+00  0.10566000000E+00 0.  1.
     999900   -1    0    0    0    0 -0.00000000000E+00 -0.00000000000E+00 -0.74505805969E-08  0.93827000000E+00  0.93827000000E+00 0. -1.
     999902    2    1    2    0    0 -0.16781099676E-01 -0.49985995000E-02 -0.12437207876E-01  0.10224526761E+01  0.10222270782E+01 0.  0.
     999903    2    3    3    0    0  0.11732738714E+00 -0.25010066935E-02 -0.55223236650E-01  0.13126135629E+00  0.20198192487E-01 0.  0.
         14    1    1    2    0    0  0.16781099676E-01  0.49985995000E-02  0.12437207876E-01  0.21477323927E-01  0.00000000000E+00 0.  1.
     999901    1    3    3    0    0 -0.13410848682E+00 -0.24975928065E-02  0.42786028773E-01  0.89119131979E+00  0.88000000000E+00 0. -1.
        -11    1    4    4    0    0  0.46152492321E-01 -0.24713208029E-03 -0.11047152404E-01  0.47459607236E-01  0.51100000000E-03 0. -1.
         11    1    4    4    0    0  0.71174894821E-01 -0.22538746132E-02 -0.44176084245E-01  0.83801749050E-01  0.51100000000E-03 0.  1.
</event>
<event>
 8    1  0.1097777E+005  0.1043930E+01  0.7957747E-01            NaN
         13   -1    0    0    0    0  0.00000000000E+00  0.00000000000E+00  0.74505805969E-08  0.10566000000E+00  0.10566000000E+00 0. -1.
     999900   -1    0    0    0    0 -0.00000000000E+00 -0.00000000000E+00 -0.74505805969E-08  0.93827000000E+00  0.93827000000E+00 0.  1.
     999902    2    1    2    0    0 -0.78327104308E-02 -0.51537104415E-02  0.22229458753E-01  0.10198040613E+01  0.10195186425E+01 0.  0.
     999903    2    3    3    0    0 -0.44219839577E-01  0.11382108338E+00 -0.37260271965E-01  0.12906388994E+00  0.18934798231E-01 0.  0.
         14    1    1    2    0    0  0.78327104308E-02  0.51537104415E-02 -0.22229458753E-01  0.24125938748E-01  0.00000000000E+00 0.  1.
     999901    1    3    3    0    0  0.36387129146E-01 -0.11897479382E+00  0.59489730719E-01  0.89074017131E+00  0.88000000000E+00 0.  1.
        -11    1    4    4    0    0 -0.32338166896E-01  0.61773517080E-01 -0.26547666325E-01  0.74610750961E-01  0.51100000000E-03 0. -1.
         11    1    4    4    0    0 -0.11881672681E-01  0.52047566303E-01 -0.10712605641E-01  0.54453138976E-01  0.51100000000E-03 0.  1.
</event>
<event>
 8    1  0.1097777E+005  0.1043930E+01  0.7957747E-01            NaN
         13   -1    0    0    0    0  0.00000000000E+00  0.00000000000E+00  0.74505805969E-08  0.10566000000E+00  0.10566000000E+00 0.  1.
     999900   -1    0    0    0    0 -0.00000000000E+00 -0.00000000000E+00 -0.74505805969E-08  0.93827000000E+00  0.93827000000E+00 0.  1.
     999902    2    1    2    0    0 -0.16567285115E-01 -0.21544766032E-01  0.11803816762E-01  0.10142992395E+01  0.10138663449E+01 0.  0.
     999903    2    3    3    0    0 -0.15523166029E-01 -0.96215458302E-01  0.81192385543E-01  0.12841461044E+00  0.19993138957E-01 0.  0.
         14    1    1    2    0    0  0.16567285115E-01  0.21544766032E-01 -0.11803816762E-01  0.29630760530E-01  0.00000000000E+00 0. -1.
     999901    1    3    3    0    0 -0.10441190858E-02  0.74670692270E-01 -0.69388568781E-01  0.88588462903E+00  0.88000000000E+00 0.  1.
        -11    1    4    4    0    0 -0.19060556935E-02 -0.27548430993E-01  0.12432220327E-01  0.30288121793E-01  0.51100000000E-03 0.  1.
         11    1    4    4    0    0 -0.13617110336E-01 -0.68667027309E-01  0.68760165216E-01  0.98126488650E-01  0.51100000000E-03 0. -1.
</event>
<event>
 8    1  0.1097777E+005  0.1043930E+01  0.7957747E-01            NaN
         13   -1    0    0    0    0  0.00000000000E+00  0.00000000000E+00  0.74505805969E-08  0.10566000000E+00  0.10566000000E+00 0. -1.
     999900   -1    0    0    0    0 -0.00000000000E+00 -0.00000000000E+00 -0.74505805969E-08  0.93827000000E+00  0.93827000000E+00 0.  1.
     999902    2    1    2    0    0 -0.11061611930E-01  0.19590235682E-01  0.67596292141E-02  0.10204389553E+01  0.10201685314E+01 0.  0.
     999903    2    3    3    0    0 -0.65019659763E-01 -0.29815746143E-01  0.10855704586E+00  0.13155474690E+00  0.20136641989E-01 0.  0.
         14    1    1    2    0    0  0.11061611930E-01 -0.19590235682E-01 -0.67596292141E-02  0.23491044670E-01  0.00000000000E+00 0.  1.
     999901    1    3    3    0    0  0.53958047833E-01  0.49405981825E-01 -0.10179741665E+00  0.88888420843E+00  0.88000000000E+00 0.  1.
        -11    1    4    4    0    0 -0.37753283328E-01 -0.10207836183E-01  0.44647566693E-01  0.59356353107E-01  0.51100000000E-03 0.  1.
         11    1    4    4    0    0 -0.27266376435E-01 -0.19607909960E-01  0.63909479170E-01  0.72198393789E-01  0.51100000000E-03 0. -1.
</event>
<event>
 8    1  0.1097777E+005  0.1043930E+01  0.7957747E-01            NaN
         13   -1    0    0    0    0  0.00000000000E+00  0.00000000000E+00  0.74505805969E-08  0.10566000000E+00  0.10566000000E+00 0.  1.
     999900   -1    0    0    0    0 -0.00000000000E+00 -0.00000000000E+00 -0.74505805969E-08  0.93827000000E+00  0.93827000000E+00 0. -1.
     999902    2    1    2    0    0 -0.20036081377E-01  0.69639721466E-02  0.92895424151E-02  0.10207732070E+01  0.10205105110E+01 0.  0.
     999903    2    3    3    0    0 -0.17028900889E-01  0.23992107707E-01 -0.12537887413E+00  0.13036061556E+00  0.20209485738E-01 0.  0.
         14    1    1    2    0    0  0.20036081377E-01 -0.69639721466E-02 -0.92895424151E-02  0.23156793027E-01  0.00000000000E+00 0.  1.
     999901    1    3    3    0    0 -0.30071804881E-02 -0.17028135561E-01  0.13466841654E+00  0.89041259141E+00  0.88000000000E+00 0. -1.
        -11    1    4    4    0    0 -0.28555483127E-02  0.17482330809E-01 -0.89459079601E-01  0.91197445638E-01  0.51100000000E-03 0. -1.
         11    1    4    4    0    0 -0.14173352576E-01  0.65097768981E-02 -0.35919794525E-01  0.39163169921E-01  0.51100000000E-03 0.  1.
</event>
<event>
 8    1  0.1097777E+005  0.1043930E+01  0.7957747E-01            NaN
         13   -1    0    0    0    0  0.00000000000E+00  0.00000000000E+00  0.74505805969E-08  0.10566000000E+00  0.10566000000E+00 0. -1.
     999900   -1    0    0    0    0 -0.00000000000E+00 -0.00000000000E+00 -0.74505805969E-08  0.93827000000E+00  0.93827000000E+00 0. -1.
     999902    2    1    2    0    0 -0.11010683052E-01  0.22307115103E-02 -0.20799221014E-01  0.10202906512E+01  0.10200167617E+01 0.  0.
     999903    2    3    3    0    0  0.33994421836E-01  0.11189516654E+00  0.51208677852E-01  0.12942764849E+00  0.21284700993E-01 0.  0.
         14    1    1    2    0    0  0.11010683052E-01 -0.22307115103E-02  0.20799221014E-01  0.23639348762E-01  0.00000000000E+00 0. -1.
     999901    1    3    3    0    0 -0.45005104888E-01 -0.10966445503E+00 -0.72007898866E-01  0.89086300275E+00  0.88000000000E+00 0.  1.
        -11    1    4    4    0    0  0.34865501660E-01  0.90488616557E-01  0.46211725165E-01  0.10742242595E+00  0.51100000000E-03 0. -1.
         11    1    4    4    0    0 -0.87107982472E-03  0.21406549980E-01  0.49969526875E-02  0.22005222546E-01  0.51100000000E-03 0.  1.
</event>
<event>
 7    1  0.1097777E+005  0.1043930E+01  0.7957747E-01            NaN
         13   -1    0    0    0    0  0.00000000000E+00  0.00000000000E+00  0.74505805969E-08  0.10566000000E+00  0.10566000000E+00 0. -1.
     999900   -1    0    0    0    0 -0.00000000000E+00 -0.00000000000E+00 -0.74505805969E-08  0.93827000000E+00  0.93827000000E+00 0.  1.
     999902    2    1    2    0    0  0.41095481807E-02 -0.15480573416E-01 -0.17553546487E-01  0.10201673500E+01  0.10198905620E+01 0.  0.
         14    1    1    2    0    0 -0.41095481807E-02  0.15480573416E-01  0.17553546487E-01  0.23762649974E-01  0.00000000000E+00 0. -1.
     999901    1    3    3    0    0 -0.13161037060E-01  0.33872469037E-01  0.98122183934E-01  0.88619891674E+00  0.88000000000E+00 0. -1.
        -11    1    3    3    0    0  0.20458564934E-01 -0.26470386343E-01 -0.10146514355E+00  0.10683946232E+00  0.51100000000E-03 0. -1.
         11    1    3    3    0    0 -0.31879796934E-02 -0.22882656110E-01 -0.14210586866E-01  0.27128970958E-01  0.51100000000E-03 0.  1.
</event>
<event>
 8    1  0.1097777E+005  0.1043930E+01  0.7957747E-01            NaN
         13   -1    0    0    0    0  0.00000000000E+00  0.00000000000E+00  0.74505805969E-08  0.10566000000E+00  0.10566000000E+00 0. -1.
     999900   -1    0    0    0    0 -0.00000000000E+00 -0.00000000000E+00 -0.74505805969E-08  0.93827000000E+00  0.93827000000E+00 0. -1.
     999902    2    1    2    0    0  0.15771963390E-01 -0.16284785690E-01  0.14696908133E-01  0.10169124468E+01  0.10165534793E+01 0.  0.
     999903    2    3    3    0    0  0.78442059533E-01 -0.63404931932E-01 -0.76672442405E-01  0.12871415396E+00  0.22700834940E-01 0.  0.
         14    1    1    2    0    0 -0.15771963390E-01  0.16284785690E-01 -0.14696908133E-01  0.27017553235E-01  0.00000000000E+00 0.  1.
     999901    1    3    3    0    0 -0.62670096143E-01  0.47120146242E-01  0.91369350538E-01  0.88819829281E+00  0.88000000000E+00 0.  1.
        -11    1    4    4    0    0  0.56837810651E-01 -0.35143628553E-01 -0.41378445378E-01  0.78600561132E-01  0.51100000000E-03 0.  1.
         11    1    4    4    0    0  0.21604248882E-01 -0.28261303379E-01 -0.35293997027E-01  0.50113592823E-01  0.51100000000E-03 0. -1.
</event>
<event>
 8    1  0.1097777E+005  0.1043930E+01  0.7957747E-01            NaN
         13   -1    0    0    0    0  0.00000000000E+00  0.00000000000E+00  0.74505805969E-08  0.10566000000E+00  0.10566000000E+00 0. -1.
     999900   -1    0    0    0    0 -0.00000000000E+00 -0.00000000000E+00 -0.74505805969E-08  0.93827000000E+00  0.93827000000E+00 0.  1.
     999902    2    1    2    0    0 -0.17052123132E-01 -0.69416369911E-02 -0.14843253217E-01  0.10202808268E+01  0.10200067069E+01 0.  0.
     999903    2    3    3    0    0 -0.11412666933E+00  0.62528655319E-01 -0.11081160355E-01  0.13221340684E+00  0.20563643760E-01 0.  0.
         14    1    1    2    0    0  0.17052123132E-01  0.69416369911E-02  0.14843253217E-01  0.23649173210E-01  0.00000000000E+00 0. -1.
     999901    1    3    3    0    0  0.97074546200E-01 -0.69470292310E-01 -0.37620928620E-02  0.88806741995E+00  0.88000000000E+00 0.  1.
        -11    1    4    4    0    0 -0.31270964397E-01  0.19253679102E-01 -0.12289158914E-01  0.38728050830E-01  0.51100000000E-03 0.  1.
         11    1    4    4    0    0 -0.82855704935E-01  0.43274976217E-01  0.12079985584E-02  0.93485356011E-01  0.51100000000E-03 0. -1.
</event>
<event>
 8    1  0.1097777E+005  0.1043930E+01  0.7957747E-01            NaN
         13   -1    0    0    0    0  0.00000000000E+00  0.00000000000E+00  0.74505805969E-08  0.10566000000E+00  0.10566000000E+00 0. -1.
     999900   -1    0    0    0    0 -0.00000000000E+00 -0.00000000000E+00 -0.74505805969E-08  0.93827000000E+00  0.93827000000E+00 0. -1.
     999902    2    1    2    0    0  0.11204231797E-01 -0.19302983185E-01 -0.44301120626E-02  0.10211755309E+01  0.10209219848E+01 0.  0.
     999903    2    3    3    0    0  0.12470469836E+00  0.34444914587E-02  0.40082754774E-01  0.13247918299E+00  0.19518718738E-01 0.  0.
         14    1    1    2    0    0 -0.11204231797E-01  0.19302983185E-01  0.44301120626E-02  0.22754469075E-01  0.00000000000E+00 0. -1.
     999901    1    3    3    0    0 -0.11350046657E+00 -0.22747474644E-01 -0.44512866837E-01  0.88869634793E+00  0.88000000000E+00 0. -1.
        -11    1    4    4    0    0  0.66759671232E-01  0.10879326894E-02  0.31587148433E-01  0.73865055119E-01  0.51100000000E-03 0. -1.
         11    1    4    4    0    0  0.57945027130E-01  0.23565587692E-02  0.84956063407E-02  0.58614127874E-01  0.51100000000E-03 0.  1.
</event>
<event>
 8    1  0.1097777E+005  0.1043930E+01  0.7957747E-01            NaN
         13   -1    0    0    0    0  0.00000000000E+00  0.00000000000E+00  0.74505805969E-08  0.10566000000E+00  0.10566000000E+00 0. -1.
     999900   -1    0    0    0    0 -0.00000000000E+00 -0.00000000000E+00 -0.74505805969E-08  0.93827000000E+00  0.93827000000E+00 0. -1.
     999902    2    1    2    0    0  0.10524289666E-01 -0.20357092219E-01 -0.86942701234E-02  0.10194195490E+01  0.10191248474E+01 0.  0.
     999903    2    3    3    0    0  0.10958241284E+00 -0.70704591837E-01  0.99577286734E-02  0.13223564496E+00  0.19484992335E-01 0.  0.
         14    1    1    2    0    0 -0.10524289666E-01  0.20357092219E-01  0.86942701234E-02  0.24510451027E-01  0.00000000000E+00 0. -1.
     999901    1    3    3    0    0 -0.99058123174E-01  0.50347499618E-01 -0.18651998797E-01  0.88718390402E+00  0.88000000000E+00 0. -1.
        -11    1    4    4    0    0  0.30780187652E-01 -0.30728482781E-01  0.34145132487E-02  0.43630031259E-01  0.51100000000E-03 0. -1.
         11    1    4    4    0    0  0.78802225188E-01 -0.39976109057E-01  0.65432154247E-02  0.88605613699E-01  0.51100000000E-03 0.  1.
</event>
<event>
 8    1  0.1097777E+005  0.1043930E+01  0.7957747E-01            NaN
         13   -1    0    0    0    0  0.00000000000E+00  0.00000000000E+00  0.74505805969E-08  0.10566000000E+00  0.10566000000E+00 0. -1.
     999900   -1    0    0    0    0 -0.00000000000E+00 -0.00000000000E+00 -0.74505805969E-08  0.93827000000E+00  0.93827000000E+00 0. -1.
     999902    2    1    2    0    0 -0.37732165336E-02 -0.20552629380E-01  0.10332834775E-01  0.10206187321E+01  0.10203524788E+01 0.  0.
     999903    2    3    3    0    0  0.50041515220E-01  0.45460576384E-01  0.11033234780E+00  0.13086951388E+00  0.19564903276E-01 0.  0.
         14    1    1    2    0    0  0.37732165336E-02  0.20552629380E-01 -0.10332834775E-01  0.23311267918E-01  0.00000000000E+00 0.  1.
     999901    1    3    3    0    0 -0.53814731754E-01 -0.66013205765E-01 -0.99999513028E-01  0.88974921820E+00  0.88000000000E+00 0. -1.
        -11    1    4    4    0    0  0.49007542645E-02  0.12072300531E-02  0.19871674425E-01  0.20509006856E-01  0.51100000000E-03 0. -1.
         11    1    4    4    0    0  0.45140760956E-01  0.44253346331E-01  0.90460673378E-01  0.11036050702E+00  0.51100000000E-03 0.  1.
</event>
<event>
 8    1  0.1097777E+005  0.1043930E+01  0.7957747E-01            NaN
         13   -1    0    0    0    0  0.00000000000E+00  0.00000000000E+00  0.74505805969E-08  0.10566000000E+00  0.10566000000E+00 0. -1.
     999900   -1    0    0    0    0 -0.00000000000E+00 -0.00000000000E+00 -0.74505805969E-08  0.93827000000E+00  0.93827000000E+00 0.  1.
     999902    2    1    2    0    0 -0.24388433085E-01 -0.31257646696E-02 -0.12829549986E-04  0.10193420713E+01  0.10190454809E+01 0.  0.
     999903    2    3    3    0    0  0.12309812482E+00 -0.14372926457E-01  0.15471587570E-01  0.12686319167E+00  0.22252416244E-01 0.  0.
         14    1    1    2    0    0  0.24388433085E-01  0.31257646696E-02  0.12829549986E-04  0.24587928699E-01  0.00000000000E+00 0. -1.
     999901    1    3    3    0    0 -0.14748655791E+00  0.11247161787E-01 -0.15484417120E-01  0.89247887963E+00  0.88000000000E+00 0.  1.
        -11    1    4    4    0    0  0.76965505672E-01 -0.23919260413E-02  0.86349770571E-03  0.77009201546E-01  0.51100000000E-03 0.  1.
         11    1    4    4    0    0  0.46132619153E-01 -0.11981000415E-01  0.14608089865E-01  0.49853990125E-01  0.51100000000E-03 0. -1.
</event>
<event>
 8    1  0.1097777E+005  0.1043930E+01  0.7957747E-01            NaN
         13   -1    0    0    0    0  0.00000000000E+00  0.00000000000E+00  0.74505805969E-08  0.10566000000E+00  0.10566000000E+00 0. -1.
     999900   -1    0    0    0    0 -0.00000000000E+00 -0.00000000000E+00 -0.74505805969E-08  0.93827000000E+00  0.93827000000E+00 0.  1.
     999902    2    1    2    0    0  0.59223357995E-02 -0.13149807330E-02 -0.23592809452E-01  0.10195697066E+01  0.10192786482E+01 0.  0.
     999903    2    3    3    0    0 -0.94098593167E-01 -0.66234441567E-01  0.52625962347E-01  0.12826278765E+00  0.20983429127E-01 0.  0.
         14    1    1    2    0    0 -0.59223357995E-02  0.13149807330E-02  0.23592809452E-01  0.24360293379E-01  0.00000000000E+00 0. -1.
     999901    1    3    3    0    0  0.10002092897E+00  0.64919460834E-01 -0.76218771799E-01  0.89130691897E+00  0.88000000000E+00 0.  1.
        -11    1    4    4    0    0 -0.59047024102E-01 -0.51570644228E-01  0.29411325494E-01  0.83733921380E-01  0.51100000000E-03 0.  1.
         11    1    4    4    0    0 -0.35051569065E-01 -0.14663797338E-01  0.23214636853E-01  0.44528866273E-01  0.51100000000E-03 0. -1.
</event>
<event>
 8    1  0.1097777E+005  0.1043930E+01  0.7957747E-01            NaN
         13   -1    0    0    0    0  0.00000000000E+00  0.00000000000E+00  0.74505805969E-08  0.10566000000E+00  0.10566000000E+00 0. -1.
     999900   -1    0    0    0    0 -0.00000000000E+00 -0.00000000000E+00 -0.74505805969E-08  0.93827000000E+00  0.93827000000E+00 0.  1.
     999902    2    1    2    0    0  0.21667189555E-03  0.11867430628E-01  0.20849095240E-01  0.10199390094E+01  0.10196568125E+01 0.  0.
     999903    2    3    3    0    0 -0.30963974230E-01  0.69666815196E-01 -0.10224061977E+00  0.12894850471E+00  0.19035222519E-01 0.  0.
         14    1    1    2    0    0 -0.21667189555E-03 -0.11867430628E-01 -0.20849095240E-01  0.23990990575E-01  0.00000000000E+00 0.  1.
     999901    1    3    3    0    0  0.31180646126E-01 -0.57799384568E-01  0.12308971501E+00  0.89099050471E+00  0.88000000000E+00 0. -1.
        -11    1    4    4    0    0 -0.24162534953E-01  0.34585171054E-01 -0.63514799866E-01  0.76251905387E-01  0.51100000000E-03 0.  1.
         11    1    4    4    0    0 -0.68014392777E-02  0.35081644143E-01 -0.38725819905E-01  0.52696599324E-01  0.51100000000E-03 0. -1.
</event>
<event>
 8    1  0.1097777E+005  0.1043930E+01  0.7957747E-01            NaN
         13   -1    0    0    0    0  0.00000000000E+00  0.00000000000E+00  0.74505805969E-08  0.10566000000E+00  0.10566000000E+00 0.  1.
     999900   -1    0    0    0    0 -0.00000000000E+00 -0.00000000000E+00 -0.74505805969E-08  0.93827000000E+00  0.93827000000E+00 0. -1.
     999902    2    1    2    0    0  0.93963144159E-02  0.14675947308E-01  0.15510270252E-01  0.10206009915E+01  0.10203343282E+01 0.  0.
     999903    2    3    3    0    0 -0.45025307099E-01  0.99874200453E-01 -0.69000457724E-01  0.13079060813E+00  0.18519876154E-01 0.  0.
         14    1    1    2    0    0 -0.93963144159E-02 -0.14675947308E-01 -0.15510270252E-01  0.23329008493E-01  0.00000000000E+00 0. -1.
     999901    1    3    3    0    0  0.54421621514E-01 -0.85198253145E-01  0.84510727976E-01  0.88981038338E+00  0.88000000000E+00 0.  1.
        -11    1    4    4    0    0 -0.37076175414E-01  0.87065249362E-01 -0.66097041959E-01  0.11542998097E+00  0.51100000000E-03 0. -1.
         11    1    4    4    0    0 -0.79491316842E-02  0.12808951090E-01 -0.29034157647E-02  0.15360627157E-01  0.51100000000E-03 0.  1.
</event>
<event>
 8    1  0.1097777E+005  0.1043930E+01  0.7957747E-01            NaN
         13   -1    0    0    0    0  0.00000000000E+00  0.00000000000E+00  0.74505805969E-08  0.10566000000E+00  0.10566000000E+00 0. -1.
     999900   -1    0    0    0    0 -0.00000000000E+00 -0.00000000000E+00 -0.74505805969E-08  0.93827000000E+00  0.93827000000E+00 0. -1.
     999902    2    1    2    0    0  0.28097125890E-02 -0.20460185870E-01 -0.76334649590E-03  0.10232636895E+01  0.10230549750E+01 0.  0.
     999903    2    3    3    0    0  0.13263279121E-01 -0.40772559701E-01  0.12520992960E+00  0.13399931046E+00  0.20975522319E-01 0.  0.
         14    1    1    2    0    0 -0.28097125890E-02  0.20460185870E-01  0.76334649590E-03  0.20666310472E-01  0.00000000000E+00 0.  1.
     999901    1    3    3    0    0 -0.10453566532E-01  0.20312373831E-01 -0.12597327610E+00  0.88926437907E+00  0.88000000000E+00 0. -1.
        -11    1    4    4    0    0  0.86347484088E-02 -0.25759235200E-01  0.47566811539E-01  0.54781016412E-01  0.51100000000E-03 0. -1.
         11    1    4    4    0    0  0.46285307121E-02 -0.15013324501E-01  0.77643118061E-01  0.79218294051E-01  0.51100000000E-03 0.  1.
</event>
<event>
 8    1  0.1097777E+005  0.1043930E+01  0.7957747E-01            NaN
         13   -1    0    0    0    0  0.00000000000E+00  0.00000000000E+00  0.74505805969E-08  0.10566000000E+00  0.10566000000E+00 0. -1.
     999900   -1    0    0    0    0 -0.00000000000E+00 -0.00000000000E+00 -0.74505805969E-08  0.93827000000E+00  0.93827000000E+00 0. -1.
     999902    2    1    2    0    0  0.21726952926E-01  0.61178217191E-02 -0.12319794569E-02  0.10213245582E+01  0.10210743593E+01 0.  0.
     999903    2    3    3    0    0  0.26883942556E-01  0.51215919952E-02 -0.12818929190E+00  0.13219816324E+00  0.17172149923E-01 0.  0.
         14    1    1    2    0    0 -0.21726952926E-01 -0.61178217191E-02  0.12319794569E-02  0.22605441810E-01  0.00000000000E+00 0. -1.
     999901    1    3    3    0    0 -0.51569896291E-02  0.99622972386E-03  0.12695731245E+00  0.88912639495E+00  0.88000000000E+00 0.  1.
        -11    1    4    4    0    0  0.54453249873E-02  0.38170711971E-02 -0.67301010402E-01  0.67630678829E-01  0.51100000000E-03 0.  1.
         11    1    4    4    0    0  0.21438617568E-01  0.13045207981E-02 -0.60888281502E-01  0.64567484410E-01  0.51100000000E-03 0. -1.
</event>
<event>
 8    1  0.1097777E+005  0.1043930E+01  0.7957747E-01            NaN
         13   -1    0    0    0    0  0.00000000000E+00  0.00000000000E+00  0.74505805969E-08  0.10566000000E+00  0.10566000000E+00 0. -1.
     999900   -1    0    0    0    0 -0.00000000000E+00 -0.00000000000E+00 -0.74505805969E-08  0.93827000000E+00  0.93827000000E+00 0.  1.
     999902    2    1    2    0    0 -0.21939928882E-01 -0.68798722473E-02  0.56963239564E-02  0.10202415803E+01  0.10199665391E+01 0.  0.
     999903    2    3    3    0    0 -0.54882212618E-01  0.11441072527E+00  0.26798588344E-01  0.13106111005E+00  0.18893885581E-01 0.  0.
         14    1    1    2    0    0  0.21939928882E-01  0.68798722473E-02 -0.56963239564E-02  0.23688419704E-01  0.00000000000E+00 0.  1.
     999901    1    3    3    0    0  0.32942283737E-01 -0.12129059751E+00 -0.21102264387E-01  0.88918047025E+00  0.88000000000E+00 0.  1.
        -11    1    4    4    0    0 -0.44247120372E-01  0.71775645108E-01  0.16318629741E-01  0.85884280806E-01  0.51100000000E-03 0.  1.
         11    1    4    4    0    0 -0.10635092246E-01  0.42635080159E-01  0.10479958603E-01  0.45176829244E-01  0.51100000000E-03 0. -1.
</event>
<event>
 8    1  0.1097777E+005  0.1043930E+01  0.7957747E-01            NaN
         13   -1    0    0    0    0  0.00000000000E+00  0.00000000000E+00  0.74505805969E-08  0.10566000000E+00  0.10566000000E+00 0. -1.
     999900   -1    0    0    0    0 -0.00000000000E+00 -0.00000000000E+00 -0.74505805969E-08  0.93827000000E+00  0.93827000000E+00 0. -1.
     999902    2    1    2    0    0  0.14315347203E-01 -0.24608613999E-01  0.51831611530E-02  0.10149925121E+01  0.10145799236E+01 0.  0.
     999903    2    3    3    0    0 -0.14895628730E-02 -0.17430967341E-01 -0.12278073594E+00  0.12556793811E+00  0.19650459088E-01 0.  0.
         14    1    1    2    0    0 -0.14315347203E-01  0.24608613999E-01 -0.51831611530E-02  0.28937487935E-01  0.00000000000E+00 0.  1.
     999901    1    3    3    0    0  0.15804910076E-01 -0.71776466580E-02  0.12796389710E+00  0.88942457395E+00  0.88000000000E+00 0.  1.
        -11    1    4    4    0    0 -0.26543684396E-02 -0.82904038004E-02 -0.14684046563E-01  0.17078021298E-01  0.51100000000E-03 0.  1.
         11    1    4    4    0    0  0.11648055665E-02 -0.91405635403E-02 -0.10809668938E+00  0.10848991681E+00  0.51100000000E-03 0. -1.
</event>
<event>
 8    1  0.1097777E+005  0.1043930E+01  0.7957747E-01            NaN
         13   -1    0    0    0    0  0.00000000000E+00  0.00000000000E+00  0.74505805969E-08  0.10566000000E+00  0.10566000000E+00 0.  1.
     999900   -1    0    0    0    0 -0.00000000000E+00 -0.00000000000E+00 -0.74505805969E-08  0.93827000000E+00  0.93827000000E+00 0.  1.
     999902    2    1    2    0    0 -0.13874202252E-01  0.65990201469E-02  0.18210801297E-01  0.10201040931E+01  0.10198258121E+01 0.  0.
     999903    2    3    3    0    0  0.48324636110E-01 -0.70860895306E-01  0.96717447138E-01  0.13104165018E+00  0.21473531669E-01 0.  0.
         14    1    1    2    0    0  0.13874202252E-01 -0.65990201469E-02 -0.18210801297E-01  0.23825906885E-01  0.00000000000E+00 0.  1.
     999901    1    3    3    0    0 -0.62198838361E-01  0.77459915453E-01 -0.78506645841E-01  0.88906244293E+00  0.88000000000E+00 0.  1.
        -11    1    4    4    0    0  0.12996346895E-01 -0.37991041033E-01  0.43283560156E-01  0.59041950613E-01  0.51100000000E-03 0.  1.
         11    1    4    4    0    0  0.35328289215E-01 -0.32869854273E-01  0.53433886982E-01  0.71999699568E-01  0.51100000000E-03 0. -1.
</event>
<event>
 8    1  0.1097777E+005  0.1043930E+01  0.7957747E-01            NaN
         13   -1    0    0    0    0  0.00000000000E+00  0.00000000000E+00  0.74505805969E-08  0.10566000000E+00  0.10566000000E+00 0.  1.
     999900   -1    0    0    0    0 -0.00000000000E+00 -0.00000000000E+00 -0.74505805969E-08  0.93827000000E+00  0.93827000000E+00 0.  1.
     999902    2    1    2    0    0  0.15309000058E-02 -0.70361752666E-02  0.23027855568E-01  0.10198025561E+01  0.10195171013E+01 0.  0.
     999903    2    3    3    0    0 -0.43450957289E-01 -0.35885200539E-01 -0.11279523803E+00  0.12778038905E+00  0.20720250865E-01 0.  0.
         14    1    1    2    0    0 -0.15309000058E-02  0.70361752666E-02 -0.23027855568E-01  0.24127443903E-01  0.00000000000E+00 0. -1.
     999901    1    3    3    0    0  0.44981857295E-01  0.28849025272E-01  0.13582309360E+00  0.89202216705E+00  0.88000000000E+00 0. -1.
        -11    1    4    4    0    0 -0.44560855240E-01 -0.35561047770E-01 -0.10151419559E+00  0.11642873772E+00  0.51100000000E-03 0. -1.
         11    1    4    4    0    0  0.11098979514E-02 -0.32415276894E-03 -0.11281042441E-01  0.11351651336E-01  0.51100000000E-03 0.  1.
</event>
<event>
 8    1  0.1097777E+005  0.1043930E+01  0.7957747E-01            NaN
         13   -1    0    0    0    0  0.00000000000E+00  0.00000000000E+00  0.74505805969E-08  0.10566000000E+00  0.10566000000E+00 0. -1.
     999900   -1    0    0    0    0 -0.00000000000E+00 -0.00000000000E+00 -0.74505805969E-08  0.93827000000E+00  0.93827000000E+00 0. -1.
     999902    2    1    2    0    0  0.22718847005E-01 -0.44214215532E-02  0.35045885230E-02  0.10205210889E+01  0.10202525745E+01 0.  0.
     999903    2    3    3    0    0  0.42586455469E-02 -0.74567632149E-01 -0.10560586129E+00  0.13082093708E+00  0.19571709531E-01 0.  0.
         14    1    1    2    0    0 -0.22718847005E-01  0.44214215532E-02 -0.35045885230E-02  0.23408911091E-01  0.00000000000E+00 0.  1.
     999901    1    3    3    0    0  0.18460201458E-01  0.70146210596E-01  0.10911044981E+00  0.88970015183E+00  0.88000000000E+00 0.  1.
        -11    1    4    4    0    0  0.92273236908E-02 -0.53524498420E-01 -0.64101606362E-01  0.84019595886E-01  0.51100000000E-03 0.  1.
         11    1    4    4    0    0 -0.49686781439E-02 -0.21043133729E-01 -0.41504254929E-01  0.46801341197E-01  0.51100000000E-03 0. -1.
</event>
<event>
 8    1  0.1097777E+005  0.1043930E+01  0.7957747E-01            NaN
         13   -1    0    0    0    0  0.00000000000E+00  0.00000000000E+00  0.74505805969E-08  0.10566000000E+00  0.10566000000E+00 0. -1.
     999900   -1    0    0    0    0 -0.00000000000E+00 -0.00000000000E+00 -0.74505805969E-08  0.93827000000E+00  0.93827000000E+00 0. -1.
     999902    2    1    2    0    0  0.52915028508E-03  0.19729914514E-01 -0.14404746026E-01  0.10194954704E+01  0.10192026138E+01 0.  0.
     999903    2    3    3    0    0 -0.86462714218E-01 -0.33440174160E-02 -0.95997955168E-01  0.13115013072E+00  0.22310669844E-01 0.  0.
         14    1    1    2    0    0 -0.52915028508E-03 -0.19729914514E-01  0.14404746026E-01  0.24434529560E-01  0.00000000000E+00 0. -1.
     999901    1    3    3    0    0  0.86991864503E-01  0.23073931930E-01  0.81593209142E-01  0.88834533972E+00  0.88000000000E+00 0. -1.
        -11    1    4    4    0    0 -0.24615484053E-01 -0.42330271858E-02 -0.42835020984E-01  0.49587707328E-01  0.51100000000E-03 0. -1.
         11    1    4    4    0    0 -0.61847230165E-01  0.88900976977E-03 -0.53162934184E-01  0.81562423392E-01  0.51100000000E-03 0.  1.
</event>
<event>
 8    1  0.1097777E+005  0.1043930E+01  0.7957747E-01            NaN
         13   -1    0    0    0    0  0.00000000000E+00  0.00000000000E+00  0.74505805969E-08  0.10566000000E+00  0.10566000000E+00 0.  1.
     999900   -1    0    0    0    0 -0.00000000000E+00 -0.00000000000E+00 -0.74505805969E-08  0.93827000000E+00  0.93827000000E+00 0. -1.
     999902    2    1    2    0    0 -0.17635019258E-02 -0.34891812124E-02 -0.23210374573E-01  0.10203926719E+01  0.10201211688E+01 0.  0.
     999903    2    3    3    0    0 -0.26061487954E-01 -0.70830656849E-01 -0.10740770344E+00  0.13347979197E+00  0.24171408751E-01 0.  0.
         14    1    1    2    0    0  0.17635019258E-02  0.34891812124E-02  0.23210374573E-01  0.23537328064E-01  0.00000000000E+00 0.  1.
     999901    1    3    3    0    0  0.24297986028E-01  0.67341475637E-01  0.84197328867E-01  0.88691287997E+00  0.88000000000E+00 0.  1.
        -11    1    4    4    0    0 -0.29376512150E-01 -0.62348489761E-01 -0.86011394565E-01  0.11022039175E+00  0.51100000000E-03 0.  1.
         11    1    4    4    0    0  0.33150241954E-02 -0.84821670887E-02 -0.21396308876E-01  0.23259400217E-01  0.51100000000E-03 0. -1.
</event>
<event>
 8    1  0.1097777E+005  0.1043930E+01  0.7957747E-01            NaN
         13   -1    0    0    0    0  0.00000000000E+00  0.00000000000E+00  0.74505805969E-08  0.10566000000E+00  0.10566000000E+00 0.  1.
     999900   -1    0    0    0    0 -0.00000000000E+00 -0.00000000000E+00 -0.74505805969E-08  0.93827000000E+00  0.93827000000E+00 0.  1.
     999902    2    1    2    0    0  0.59459082700E-02 -0.21493625686E-01  0.95323554827E-02  0.10196772564E+01  0.10193887932E+01 0.  0.
     999903    2    3    3    0    0  0.12701840403E+00 -0.23121760968E-01  0.11579336480E-01  0.13138372937E+00  0.21431577577E-01 0.  0.
         14    1    1    2    0    0 -0.59459082700E-02  0.21493625686E-01 -0.95323554827E-02  0.24252743584E-01  0.00000000000E+00 0. -1.
     999901    1    3    3    0    0 -0.12107249576E+00  0.16281352816E-02 -0.20469809971E-02  0.88829352704E+00  0.88000000000E+00 0. -1.
        -11    1    4    4    0    0  0.64991355424E-01 -0.16853490670E-01 -0.35238118593E-02  0.67235368659E-01  0.51100000000E-03 0. -1.
         11    1    4    4    0    0  0.62027048609E-01 -0.62682702975E-02  0.15103148339E-01  0.64148360715E-01  0.51100000000E-03 0.  1.
</event>
<event>
 8    1  0.1097777E+005  0.1043930E+01  0.7957747E-01            NaN
         13   -1    0    0    0    0  0.00000000000E+00  0.00000000000E+00  0.74505805969E-08  0.10566000000E+00  0.10566000000E+00 0. -1.
     999900   -1    0    0    0    0 -0.00000000000E+00 -0.00000000000E+00 -0.74505805969E-08  0.93827000000E+00  0.93827000000E+00 0.  1.
     999902    2    1    2    0    0 -0.40619249635E-02 -0.23191496446E-01  0.84572151442E-03  0.10203702889E+01  0.10200982632E+01 0.  0.
     999903    2    3    3    0    0 -0.75680714545E-01  0.31193632215E-01 -0.99213096299E-01  0.13014629448E+00  0.19854627772E-01 0.  0.
         14    1    1    2    0    0  0.40619249635E-02  0.23191496446E-01 -0.84572151442E-03  0.23559711091E-01  0.00000000000E+00 0.  1.
     999901    1    3    3    0    0  0.71618789581E-01 -0.54385128661E-01  0.10005881781E+00  0.89022399443E+00  0.88000000000E+00 0. -1.
        -11    1    4    4    0    0 -0.54985675272E-01  0.30518611462E-01 -0.67389481472E-01  0.92175991802E-01  0.51100000000E-03 0. -1.
         11    1    4    4    0    0 -0.20695039273E-01  0.67502075348E-03 -0.31823614828E-01  0.37970302675E-01  0.51100000000E-03 0.  1.
</event>
<event>
 8    1  0.1097777E+005  0.1043930E+01  0.7957747E-01            NaN
         13   -1    0    0    0    0  0.00000000000E+00  0.00000000000E+00  0.74505805969E-08  0.10566000000E+00  0.10566000000E+00 0. -1.
     999900   -1    0    0    0    0 -0.00000000000E+00 -0.00000000000E+00 -0.74505805969E-08  0.93827000000E+00  0.93827000000E+00 0. -1.
     999902    2    1    2    0    0 -0.11793368895E-01  0.14791586560E-01  0.14282191559E-01  0.10202265070E+01  0.10199511116E+01 0.  0.
     999903    2    3    3    0    0  0.23719189265E-01 -0.64045031898E-01 -0.10612639197E+00  0.12782828809E+00  0.20319796109E-01 0.  0.
         14    1    1    2    0    0  0.11793368895E-01 -0.14791586560E-01 -0.14282191559E-01  0.23703492962E-01  0.00000000000E+00 0. -1.
     999901    1    3    3    0    0 -0.35512558160E-01  0.78836618459E-01  0.12040858352E+00  0.89239821895E+00  0.88000000000E+00 0.  1.
        -11    1    4    4    0    0 -0.17878489761E-02 -0.21950279898E-01 -0.32214356786E-01  0.39026107873E-01  0.51100000000E-03 0.  1.
         11    1    4    4    0    0  0.25507038241E-01 -0.42094752001E-01 -0.73912035179E-01  0.88802180216E-01  0.51100000000E-03 0. -1.
</event>
<event>
 8    1  0.1097777E+005  0.1043930E+01  0.7957747E-01            NaN
         13   -1    0    0    0    0  0.00000000000E+00  0.00000000000E+00  0.74505805969E-08  0.10566000000E+00  0.10566000000E+00 0. -1.
     999900   -1    0    0    0    0 -0.00000000000E+00 -0.00000000000E+00 -0.74505805969E-08  0.93827000000E+00  0.93827000000E+00 0.  1.
     999902    2    1    2    0    0  0.19582348770E-01 -0.79396670903E-02 -0.96760320715E-02  0.10206892536E+01  0.10204246274E+01 0.  0.
     999903    2    3    3    0    0 -0.72449057299E-01  0.98461196231E-01  0.33569061080E-01  0.12846671325E+00  0.20816855779E-01 0.  0.
         14    1    1    2    0    0 -0.19582348770E-01  0.79396670903E-02  0.96760320715E-02  0.23240746406E-01  0.00000000000E+00 0.  1.
     999901    1    3    3    0    0  0.92031406068E-01 -0.10640086332E+00 -0.43245093152E-01  0.89222254035E+00  0.88000000000E+00 0.  1.
        -11    1    4    4    0    0 -0.22570968608E-01  0.25057837101E-01  0.42227800661E-03  0.33731043028E-01  0.51100000000E-03 0.  1.
         11    1    4    4    0    0 -0.49878088691E-01  0.73403359130E-01  0.33146783074E-01  0.94735670221E-01  0.51100000000E-03 0. -1.
</event>
<event>
 8    1  0.1097777E+005  0.1043930E+01  0.7957747E-01            NaN
         13   -1    0    0    0    0  0.00000000000E+00  0.00000000000E+00  0.74505805969E-08  0.10566000000E+00  0.10566000000E+00 0. -1.
     999900   -1    0    0    0    0 -0.00000000000E+00 -0.00000000000E+00 -0.74505805969E-08  0.93827000000E+00  0.93827000000E+00 0. -1.
     999902    2    1    2    0    0 -0.21508611611E-01 -0.22703903027E-02  0.11276247029E-01  0.10195388378E+01  0.10192470324E+01 0.  0.
     999903    2    3    3    0    0 -0.10402408210E+00  0.77966024901E-01  0.11844793648E-01  0.13204404435E+00  0.19890193941E-01 0.  0.
         14    1    1    2    0    0  0.21508611611E-01  0.22703903027E-02 -0.11276247029E-01  0.24391162182E-01  0.00000000000E+00 0. -1.
     999901    1    3    3    0    0  0.82515470489E-01 -0.80236415203E-01 -0.56854661938E-03  0.88749479347E+00  0.88000000000E+00 0. -1.
        -11    1    4    4    0    0 -0.24388803933E-01  0.27987435697E-01 -0.10616310666E-02  0.37141600608E-01  0.51100000000E-03 0. -1.
         11    1    4    4    0    0 -0.79635278167E-01  0.49978589204E-01  0.12906424715E-01  0.94902443738E-01  0.51100000000E-03 0.  1.
</event>
<event>
 8    1  0.1097777E+005  0.1043930E+01  0.7957747E-01            NaN
         13   -1    0    0    0    0  0.00000000000E+00  0.00000000000E+00  0.74505805969E-08  0.10566000000E+00  0.10566000000E+00 0. -1.
     999900   -1    0    0    0    0 -0.00000000000E+00 -0.00000000000E+00 -0.74505805969E-08  0.93827000000E+00  0.93827000000E+00 0. -1.
     999902    2    1    2    0    0 -0.15162545065E-01 -0.16600636877E-01  0.13776297743E-02  0.10214048633E+01  0.10211564587E+01 0.  0.
     999903    2    3    3    0    0  0.45574547850E-01 -0.35378722879E-01 -0.11616228276E+00  0.13131652952E+00  0.20534399089E-01 0.  0.
         14    1    1    2    0    0  0.15162545065E-01  0.16600636877E-01 -0.13776297743E-02  0.22525136656E-01  0.00000000000E+00 0.  1.
     999901    1    3    3    0    0 -0.60737092915E-01  0.18778086002E-01  0.11753991253E+00  0.89008833382E+00  0.88000000000E+00 0.  1.
        -11    1    4    4    0    0  0.38641274250E-01 -0.21814688151E-01 -0.98183403877E-01  0.10774632529E+00  0.51100000000E-03 0.  1.
         11    1    4    4    0    0  0.69332736005E-02 -0.13564034728E-01 -0.17978878880E-01  0.23570204235E-01  0.51100000000E-03 0. -1.
</event>
<event>
 8    1  0.1097777E+005  0.1043930E+01  0.7957747E-01            NaN
         13   -1    0    0    0    0  0.00000000000E+00  0.00000000000E+00  0.74505805969E-08  0.10566000000E+00  0.10566000000E+00 0.  1.
     999900   -1    0    0    0    0 -0.00000000000E+00 -0.00000000000E+00 -0.74505805969E-08  0.93827000000E+00  0.93827000000E+00 0.  1.
     999902    2    1    2    0    0  0.32695002629E-02 -0.13189379125E-01 -0.20062676170E-01  0.10196986086E+01  0.10194106592E+01 0.  0.
     999903    2    3    3    0    0 -0.39048170192E-01  0.11755745000E+00 -0.30271122135E-01  0.12897433537E+00  0.19326787192E-01 0.  0.
         14    1    1    2    0    0 -0.32695002629E-02  0.13189379125E-01  0.20062676170E-01  0.24231391392E-01  0.00000000000E+00 0.  1.
     999901    1    3    3    0    0  0.42317670455E-01 -0.13074682913E+00  0.10208445965E-01  0.89072427323E+00  0.88000000000E+00 0. -1.
        -11    1    4    4    0    0 -0.31680370889E-01  0.66719593317E-01 -0.14857516941E-01  0.75340274506E-01  0.51100000000E-03 0.  1.
         11    1    4    4    0    0 -0.73677993024E-02  0.50837856687E-01 -0.15413605194E-01  0.53634060868E-01  0.51100000000E-03 0. -1.
</event>
<event>
 8    1  0.1097777E+005  0.1043930E+01  0.7957747E-01            NaN
         13   -1    0    0    0    0  0.00000000000E+00  0.00000000000E+00  0.74505805969E-08  0.10566000000E+00  0.10566000000E+00 0. -1.
     999900   -1    0    0    0    0 -0.00000000000E+00 -0.00000000000E+00 -0.74505805969E-08  0.93827000000E+00  0.93827000000E+00 0. -1.
     999902    2    1    2    0    0  0.15640880174E-01  0.10526370644E-02 -0.18188169935E-01  0.10199184465E+01  0.10196357598E+01 0.  0.
     999903    2    3    3    0    0 -0.80357174141E-01  0.80564204980E-01  0.55460413175E-01  0.12808784055E+00  0.19564531845E-01 0.  0.
         14    1    1    2    0    0 -0.15640880174E-01 -0.10526370644E-02  0.18188169935E-01  0.24011553531E-01  0.00000000000E+00 0. -1.
     999901    1    3    3    0    0  0.95998054316E-01 -0.79511567916E-01 -0.73648583110E-01  0.89183060592E+00  0.88000000000E+00 0. -1.
        -11    1    4    4    0    0 -0.24775721754E-01  0.38280277390E-01  0.20802045072E-01  0.50121873724E-01  0.51100000000E-03 0. -1.
         11    1    4    4    0    0 -0.55581452387E-01  0.42283927590E-01  0.34658368104E-01  0.77965966822E-01  0.51100000000E-03 0.  1.
</event>
<event>
 8    1  0.1097777E+005  0.1043930E+01  0.7957747E-01            NaN
         13   -1    0    0    0    0  0.00000000000E+00  0.00000000000E+00  0.74505805969E-08  0.10566000000E+00  0.10566000000E+00 0. -1.
     999900   -1    0    0    0    0 -0.00000000000E+00 -0.00000000000E+00 -0.74505805969E-08  0.93827000000E+00  0.93827000000E+00 0. -1.
     999902    2    1    2    0    0 -0.57575491914E-03 -0.20950864625E-01  0.11337860153E-01  0.10201010828E+01  0.10198227306E+01 0.  0.
     999903    2    3    3    0    0 -0.11080021283E+00  0.81058245335E-02  0.64081930666E-01  0.13118283049E+00  0.27568997515E-01 0.  0.
         14    1    1    2    0    0  0.57575491914E-03  0.20950864625E-01 -0.11337860153E-01  0.23828917204E-01  0.00000000000E+00 0.  1.
     999901    1    3    3    0    0  0.11022445791E+00 -0.29056689158E-01 -0.52744070513E-01  0.88891825230E+00  0.88000000000E+00 0. -1.
        -11    1    4    4    0    0 -0.53276986109E-01 -0.82295398792E-02  0.22893637478E-01  0.58570831763E-01  0.51100000000E-03 0. -1.
         11    1    4    4    0    0 -0.57523226718E-01  0.16335364413E-01  0.41188293188E-01  0.72611998728E-01  0.51100000000E-03 0.  1.
</event>
<event>
 8    1  0.1097777E+005  0.1043930E+01  0.7957747E-01            NaN
         13   -1    0    0    0    0  0.00000000000E+00  0.00000000000E+00  0.74505805969E-08  0.10566000000E+00  0.10566000000E+00 0. -1.
     999900   -1    0    0    0    0 -0.00000000000E+00 -0.00000000000E+00 -0.74505805969E-08  0.93827000000E+00  0.93827000000E+00 0. -1.
     999902    2    1    2    0    0 -0.22865940807E-01  0.85961318575E-03 -0.51946639385E-02  0.10204656714E+01  0.10201958693E+01 0.  0.
     999903    2    3    3    0    0  0.11857793065E+00  0.43353300487E-01  0.39552542190E-02  0.12811159187E+00  0.21370578737E-01 0.  0.
         14    1    1    2    0    0  0.22865940807E-01 -0.85961318575E-03  0.51946639385E-02  0.23464328613E-01  0.00000000000E+00 0.  1.
     999901    1    3    3    0    0 -0.14144387145E+00 -0.42493687301E-01 -0.91499181575E-02  0.89235407952E+00  0.88000000000E+00 0.  1.
        -11    1    4    4    0    0  0.42529655095E-01  0.25466557612E-01  0.61608828577E-02  0.49955327220E-01  0.51100000000E-03 0.  1.
         11    1    4    4    0    0  0.76048275552E-01  0.17886742876E-01 -0.22056286386E-02  0.78156264648E-01  0.51100000000E-03 0. -1.
</event>
<event>
 8    1  0.1123780E+005  0.1043930E+01  0.7957747E-01            NaN
         13   -1    0    0    0    0  0.00000000000E+00  0.00000000000E+00  0.74505805969E-08  0.10566000000E+00  0.10566000000E+00 0.  1.
     999900   -1    0    0    0    0 -0.00000000000E+00 -0.00000000000E+00 -0.74505805969E-08  0.93827000000E+00  0.93827000000E+00 0.  1.
     999902    2    1    2    0    0  0.17216925338E-01 -0.15503454736E-01 -0.26622313116E-01  0.10086379728E+01  0.10080203535E+01 0.  0.
     999903    2    3    3    0    0  0.78520217729E-01  0.46953524160E-01 -0.79330237826E-01  0.12272765388E+00  0.19968284128E-01 0.  0.
         14    1    1    2    0    0 -0.17216925338E-01  0.15503454736E-01  0.26622313116E-01  0.35292027180E-01  0.00000000000E+00 0.  1.
     999901    1    3    3    0    0 -0.61303292391E-01 -0.62456978895E-01  0.52707924710E-01  0.88591031894E+00  0.88000000000E+00 0. -1.
        -11    1    4    4    0    0  0.42434858047E-01  0.16663790778E-01 -0.30382761102E-01  0.54788433029E-01  0.51100000000E-03 0. -1.
         11    1    4    4    0    0  0.36085359682E-01  0.30289733382E-01 -0.48947476723E-01  0.67939220855E-01  0.51100000000E-03 0.  1.
</event>
<event>
 8    1  0.1097777E+005  0.1043930E+01  0.7957747E-01            NaN
         13   -1    0    0    0    0  0.00000000000E+00  0.00000000000E+00  0.74505805969E-08  0.10566000000E+00  0.10566000000E+00 0. -1.
     999900   -1    0    0    0    0 -0.00000000000E+00 -0.00000000000E+00 -0.74505805969E-08  0.93827000000E+00  0.93827000000E+00 0. -1.
     999902    2    1    2    0    0 -0.56982196720E-03  0.60099559687E-03 -0.23946057321E-01  0.10199696253E+01  0.10196881568E+01 0.  0.
     999903    2    3    3    0    0 -0.40499856749E-02  0.10934448908E+00 -0.71133880640E-01  0.13201469991E+00  0.19880451281E-01 0.  0.
         14    1    1    2    0    0  0.56982196720E-03 -0.60099559687E-03  0.23946057321E-01  0.23960374663E-01  0.00000000000E+00 0. -1.
     999901    1    3    3    0    0  0.34801637077E-02 -0.10874349348E+00  0.47187823319E-01  0.88795492542E+00  0.88000000000E+00 0.  1.
        -11    1    4    4    0    0  0.10050465633E-02  0.16399397936E-01 -0.19730230395E-01  0.25680605205E-01  0.51100000000E-03 0.  1.
         11    1    4    4    0    0 -0.50550322381E-02  0.92945091141E-01 -0.51403650244E-01  0.10633409471E+00  0.51100000000E-03 0. -1.
</event>
<event>
 8    1  0.1097777E+005  0.1043930E+01  0.7957747E-01            NaN
         13   -1    0    0    0    0  0.00000000000E+00  0.00000000000E+00  0.74505805969E-08  0.10566000000E+00  0.10566000000E+00 0.  1.
     999900   -1    0    0    0    0 -0.00000000000E+00 -0.00000000000E+00 -0.74505805969E-08  0.93827000000E+00  0.93827000000E+00 0. -1.
     999902    2    1    2    0    0 -0.10991330358E-01  0.19937207175E-01  0.62690847539E-02  0.10203163811E+01  0.10200430945E+01 0.  0.
     999903    2    3    3    0    0 -0.11787383976E+00  0.34562268181E-01  0.45598919401E-01  0.13285674873E+00  0.21974115472E-01 0.  0.
         14    1    1    2    0    0  0.10991330358E-01 -0.19937207175E-01 -0.62690847539E-02  0.23613618880E-01  0.00000000000E+00 0. -1.
     999901    1    3    3    0    0  0.10688250940E+00 -0.14625061007E-01 -0.39329834647E-01  0.88745963239E+00  0.88000000000E+00 0. -1.
        -11    1    4    4    0    0 -0.43020200591E-01  0.34169135669E-02  0.21845490833E-01  0.48372508183E-01  0.51100000000E-03 0. -1.
         11    1    4    4    0    0 -0.74853639172E-01  0.31145354615E-01  0.23753428568E-01  0.84484240548E-01  0.51100000000E-03 0.  1.
</event>
<event>
 8    1  0.1097777E+005  0.1043930E+01  0.7957747E-01            NaN
         13   -1    0    0    0    0  0.00000000000E+00  0.00000000000E+00  0.74505805969E-08  0.10566000000E+00  0.10566000000E+00 0. -1.
     999900   -1    0    0    0    0 -0.00000000000E+00 -0.00000000000E+00 -0.74505805969E-08  0.93827000000E+00  0.93827000000E+00 0.  1.
     999902    2    1    2    0    0  0.25140044725E-01  0.74493137244E-04 -0.25693429329E-02  0.10186588916E+01  0.10183453778E+01 0.  0.
     999903    2    3    3    0    0 -0.12400064714E+00 -0.22113886658E-02 -0.10554518172E-01  0.12607167777E+00  0.20040442864E-01 0.  0.
         14    1    1    2    0    0 -0.25140044725E-01 -0.74493137244E-04  0.25693429329E-02  0.25271108426E-01  0.00000000000E+00 0. -1.
     999901    1    3    3    0    0  0.14914069187E+00  0.22858818030E-02  0.79851752393E-02  0.89258721381E+00  0.88000000000E+00 0.  1.
        -11    1    4    4    0    0 -0.20013607193E-01  0.64790539502E-02 -0.46742363661E-02  0.21555329261E-01  0.51100000000E-03 0.  1.
         11    1    4    4    0    0 -0.10398703995E+00 -0.86904426160E-02 -0.58802818061E-02  0.10451634851E+00  0.51100000000E-03 0. -1.
</event>
<event>
 8    1  0.1097777E+005  0.1043930E+01  0.7957747E-01            NaN
         13   -1    0    0    0    0  0.00000000000E+00  0.00000000000E+00  0.74505805969E-08  0.10566000000E+00  0.10566000000E+00 0. -1.
     999900   -1    0    0    0    0 -0.00000000000E+00 -0.00000000000E+00 -0.74505805969E-08  0.93827000000E+00  0.93827000000E+00 0.  1.
     999902    2    1    2    0    0  0.17259973503E-01 -0.18462977693E-01  0.13986447679E-01  0.10150438623E+01  0.10146327580E+01 0.  0.
     999903    2    3    3    0    0 -0.78939624063E-01 -0.60868384617E-01 -0.72031916276E-01  0.12462163662E+00  0.20137796757E-01 0.  0.
         14    1    1    2    0    0 -0.17259973503E-01  0.18462977693E-01 -0.13986447679E-01  0.28886137667E-01  0.00000000000E+00 0.  1.
     999901    1    3    3    0    0  0.96199597566E-01  0.42405406924E-01  0.86018363955E-01  0.89042222571E+00  0.88000000000E+00 0. -1.
        -11    1    4    4    0    0 -0.55830998139E-01 -0.51433907170E-01 -0.60735085781E-01  0.97219128395E-01  0.51100000000E-03 0.  1.
         11    1    4    4    0    0 -0.23108625923E-01 -0.94344774469E-02 -0.11296830495E-01  0.27402508224E-01  0.51100000000E-03 0. -1.
</event>
<event>
 8    1  0.1097777E+005  0.1043930E+01  0.7957747E-01            NaN
         13   -1    0    0    0    0  0.00000000000E+00  0.00000000000E+00  0.74505805969E-08  0.10566000000E+00  0.10566000000E+00 0.  1.
     999900   -1    0    0    0    0 -0.00000000000E+00 -0.00000000000E+00 -0.74505805969E-08  0.93827000000E+00  0.93827000000E+00 0. -1.
     999902    2    1    2    0    0  0.84781117392E-02 -0.13638247179E-01  0.20160247350E-01  0.10181556768E+01  0.10178293896E+01 0.  0.
     999903    2    3    3    0    0  0.44646277888E-01 -0.97323998969E-01 -0.69139175796E-01  0.12895051019E+00  0.19564190355E-01 0.  0.
         14    1    1    2    0    0 -0.84781117392E-02  0.13638247179E-01 -0.20160247350E-01  0.25774323231E-01  0.00000000000E+00 0.  1.
     999901    1    3    3    0    0 -0.36168166149E-01  0.83685751790E-01  0.89299423146E-01  0.88920516658E+00  0.88000000000E+00 0.  1.
        -11    1    4    4    0    0  0.50346017248E-02 -0.28991700156E-01 -0.13776206622E-01  0.32494782387E-01  0.51100000000E-03 0. -1.
         11    1    4    4    0    0  0.39611676164E-01 -0.68332298812E-01 -0.55362969174E-01  0.96455727804E-01  0.51100000000E-03 0.  1.
</event>
<event>
 8    1  0.1097777E+005  0.1043930E+01  0.7957747E-01            NaN
         13   -1    0    0    0    0  0.00000000000E+00  0.00000000000E+00  0.74505805969E-08  0.10566000000E+00  0.10566000000E+00 0.  1.
     999900   -1    0    0    0    0 -0.00000000000E+00 -0.00000000000E+00 -0.74505805969E-08  0.93827000000E+00  0.93827000000E+00 0. -1.
     999902    2    1    2    0    0 -0.14140863478E-01  0.10610879747E-01  0.11668344932E-01  0.10227473405E+01  0.10225279544E+01 0.  0.
     999903    2    3    3    0    0  0.52554022630E-01  0.11470411855E+00  0.40242634072E-01  0.13364661496E+00  0.17971866535E-01 0.  0.
         14    1    1    2    0    0  0.14140863478E-01 -0.10610879747E-01 -0.11668344932E-01  0.21182659473E-01  0.00000000000E+00 0. -1.
     999901    1    3    3    0    0 -0.66694886108E-01 -0.10409323881E+00 -0.28574289140E-01  0.88910072556E+00  0.88000000000E+00 0.  1.
        -11    1    4    4    0    0  0.20866410332E-01  0.59343750007E-01  0.27205478902E-01  0.68538215240E-01  0.51100000000E-03 0. -1.
         11    1    4    4    0    0  0.31687612298E-01  0.55360368545E-01  0.13037155170E-01  0.65108399723E-01  0.51100000000E-03 0.  1.
</event>
<event>
 8    1  0.1097777E+005  0.1043930E+01  0.7957747E-01            NaN
         13   -1    0    0    0    0  0.00000000000E+00  0.00000000000E+00  0.74505805969E-08  0.10566000000E+00  0.10566000000E+00 0. -1.
     999900   -1    0    0    0    0 -0.00000000000E+00 -0.00000000000E+00 -0.74505805969E-08  0.93827000000E+00  0.93827000000E+00 0. -1.
     999902    2    1    2    0    0 -0.18728844332E-01  0.16742261456E-01 -0.42866619171E-02  0.10184457225E+01  0.10181268297E+01 0.  0.
     999903    2    3    3    0    0  0.10460528860E+00  0.70300201380E-01  0.10473589091E-01  0.12811004071E+00  0.20447536437E-01 0.  0.
         14    1    1    2    0    0  0.18728844332E-01 -0.16742261456E-01  0.42866619171E-02  0.25484277488E-01  0.00000000000E+00 0.  1.
     999901    1    3    3    0    0 -0.12333413293E+00 -0.53557939924E-01 -0.14760251008E-01  0.89033568180E+00  0.88000000000E+00 0.  1.
        -11    1    4    4    0    0  0.50786000819E-01  0.26449130810E-01  0.12684097500E-01  0.58650846969E-01  0.51100000000E-03 0. -1.
         11    1    4    4    0    0  0.53819287779E-01  0.43851070570E-01 -0.22105084089E-02  0.69459193744E-01  0.51100000000E-03 0.  1.
</event>
<event>
 8    1  0.1097777E+005  0.1043930E+01  0.7957747E-01            NaN
         13   -1    0    0    0    0  0.00000000000E+00  0.00000000000E+00  0.74505805969E-08  0.10566000000E+00  0.10566000000E+00 0. -1.
     999900   -1    0    0    0    0 -0.00000000000E+00 -0.00000000000E+00 -0.74505805969E-08  0.93827000000E+00  0.93827000000E+00 0.  1.
     999902    2    1    2    0    0 -0.13867459069E-01  0.77014257241E-02  0.17071076638E-01  0.10206267805E+01  0.10203607132E+01 0.  0.
     999903    2    3    3    0    0  0.11639638190E+00  0.32072502225E-02  0.54352786170E-01  0.13024551854E+00  0.21243012067E-01 0.  0.
         14    1    1    2    0    0  0.13867459069E-01 -0.77014257241E-02 -0.17071076638E-01  0.23303219451E-01  0.00000000000E+00 0.  1.
     999901    1    3    3    0    0 -0.13026384097E+00  0.44941755016E-02 -0.37281709532E-01  0.89038126201E+00  0.88000000000E+00 0.  1.
        -11    1    4    4    0    0  0.23061561569E-01  0.35019079600E-02  0.24800962731E-02  0.23462970397E-01  0.51100000000E-03 0.  1.
         11    1    4    4    0    0  0.93334820329E-01 -0.29465773743E-03  0.51872689897E-01  0.10678254814E+00  0.51100000000E-03 0. -1.
</event>
<event>
 8    1  0.1097777E+005  0.1043930E+01  0.7957747E-01            NaN
         13   -1    0    0    0    0  0.00000000000E+00  0.00000000000E+00  0.74505805969E-08  0.10566000000E+00  0.10566000000E+00 0.  1.
     999900   -1    0    0    0    0 -0.00000000000E+00 -0.00000000000E+00 -0.74505805969E-08  0.93827000000E+00  0.93827000000E+00 0.  1.
     999902    2    1    2    0    0  0.12193104276E-01  0.15194653630E-01 -0.12725195554E-01  0.10206602795E+01  0.10203949854E+01 0.  0.
     999903    2    3    3    0    0  0.15936909698E-02  0.12997548460E+00  0.16368870017E-01  0.13266621905E+00  0.20885864174E-01 0.  0.
         14    1    1    2    0    0 -0.12193104276E-01 -0.15194653630E-01  0.12725195554E-01  0.23269720512E-01  0.00000000000E+00 0. -1.
     999901    1    3    3    0    0  0.10599413306E-01 -0.11478083097E+00 -0.29094065571E-01  0.88799406044E+00  0.88000000000E+00 0.  1.
        -11    1    4    4    0    0 -0.70994639325E-02  0.19790183822E-01  0.80261238578E-03  0.21046592871E-01  0.51100000000E-03 0.  1.
         11    1    4    4    0    0  0.86931549022E-02  0.11018530078E+00  0.15566257632E-01  0.11161962618E+00  0.51100000000E-03 0. -1.
</event>
<event>
 8    1  0.1097777E+005  0.1043930E+01  0.7957747E-01            NaN
         13   -1    0    0    0    0  0.00000000000E+00  0.00000000000E+00  0.74505805969E-08  0.10566000000E+00  0.10566000000E+00 0. -1.
     999900   -1    0    0    0    0 -0.00000000000E+00 -0.00000000000E+00 -0.74505805969E-08  0.93827000000E+00  0.93827000000E+00 0.  1.
     999902    2    1    2    0    0  0.28397910302E-02  0.46728850718E-03  0.23491582171E-01  0.10202627821E+01  0.10199882388E+01 0.  0.
     999903    2    3    3    0    0  0.43911773612E-01  0.65011439882E-02  0.12409639435E+00  0.13355841003E+00  0.21620015377E-01 0.  0.
         14    1    1    2    0    0 -0.28397910302E-02 -0.46728850718E-03 -0.23491582171E-01  0.23667217930E-01  0.00000000000E+00 0.  1.
     999901    1    3    3    0    0 -0.41071982581E-01 -0.60338554810E-02 -0.10060481217E+00  0.88670437204E+00  0.88000000000E+00 0.  1.
        -11    1    4    4    0    0  0.24648213176E-01 -0.38213497598E-02  0.44517267188E-01  0.51031219127E-01  0.51100000000E-03 0.  1.
         11    1    4    4    0    0  0.19263560436E-01  0.10322493748E-01  0.79579127158E-01  0.82527190901E-01  0.51100000000E-03 0. -1.
</event>
<event>
 8    1  0.1097777E+005  0.1043930E+01  0.7957747E-01            NaN
         13   -1    0    0    0    0  0.00000000000E+00  0.00000000000E+00  0.74505805969E-08  0.10566000000E+00  0.10566000000E+00 0.  1.
     999900   -1    0    0    0    0 -0.00000000000E+00 -0.00000000000E+00 -0.74505805969E-08  0.93827000000E+00  0.93827000000E+00 0.  1.
     999902    2    1    2    0    0  0.55611549463E-02 -0.16803153281E-01  0.15315796246E-01  0.10205238893E+01  0.10202554399E+01 0.  0.
     999903    2    3    3    0    0  0.99491109545E-01 -0.57320817114E-01 -0.60290577509E-01  0.13137775888E+00  0.21000115186E-01 0.  0.
         14    1    1    2    0    0 -0.55611549463E-02  0.16803153281E-01 -0.15315796246E-01  0.23406110723E-01  0.00000000000E+00 0. -1.
     999901    1    3    3    0    0 -0.93929954599E-01  0.40517663833E-01  0.75606373756E-01  0.88914613040E+00  0.88000000000E+00 0.  1.
        -11    1    4    4    0    0  0.54807732595E-01 -0.41152230501E-01 -0.42434764211E-01  0.80612430568E-01  0.51100000000E-03 0. -1.
         11    1    4    4    0    0  0.44683376950E-01 -0.16168586613E-01 -0.17855813298E-01  0.50765328308E-01  0.51100000000E-03 0.  1.
</event>
<event>
 8    1  0.1097777E+005  0.1043930E+01  0.7957747E-01            NaN
         13   -1    0    0    0    0  0.00000000000E+00  0.00000000000E+00  0.74505805969E-08  0.10566000000E+00  0.10566000000E+00 0. -1.
     999900   -1    0    0    0    0 -0.00000000000E+00 -0.00000000000E+00 -0.74505805969E-08  0.93827000000E+00  0.93827000000E+00 0.  1.
     999902    2    1    2    0    0  0.42567146745E-02 -0.97955565533E-02  0.21577595520E-01  0.10198537632E+01  0.10195695333E+01 0.  0.
     999903    2    3    3    0    0  0.91494322300E-01 -0.92277771376E-01  0.69548459789E-02  0.13158154103E+00  0.19466225989E-01 0.  0.
         14    1    1    2    0    0 -0.42567146745E-02  0.97955565533E-02 -0.21577595520E-01  0.24076236758E-01  0.00000000000E+00 0.  1.
     999901    1    3    3    0    0 -0.87237607626E-01  0.82482214823E-01  0.14622749541E-01  0.88827222221E+00  0.88000000000E+00 0. -1.
        -11    1    4    4    0    0  0.49825865019E-01 -0.45839592471E-01 -0.55975209897E-02  0.67937312466E-01  0.51100000000E-03 0. -1.
         11    1    4    4    0    0  0.41668457281E-01 -0.46438178906E-01  0.12552366969E-01  0.63644228566E-01  0.51100000000E-03 0.  1.
</event>
<event>
 8    1  0.1097777E+005  0.1043930E+01  0.7957747E-01            NaN
         13   -1    0    0    0    0  0.00000000000E+00  0.00000000000E+00  0.74505805969E-08  0.10566000000E+00  0.10566000000E+00 0. -1.
     999900   -1    0    0    0    0 -0.00000000000E+00 -0.00000000000E+00 -0.74505805969E-08  0.93827000000E+00  0.93827000000E+00 0.  1.
     999902    2    1    2    0    0 -0.21272046748E-01 -0.12467800313E-01  0.61267193156E-03  0.10192658279E+01  0.10189673727E+01 0.  0.
     999903    2    3    3    0    0 -0.32036666403E-01  0.10311693318E+00  0.67831677346E-01  0.12910061722E+00  0.20158943698E-01 0.  0.
         14    1    1    2    0    0  0.21272046748E-01  0.12467800313E-01 -0.61267193156E-03  0.24664172080E-01  0.00000000000E+00 0.  1.
     999901    1    3    3    0    0  0.10764619656E-01 -0.11558473350E+00 -0.67219005415E-01  0.89016521070E+00  0.88000000000E+00 0.  1.
        -11    1    4    4    0    0 -0.33210852495E-01  0.88744920912E-01  0.53755050658E-01  0.10894259178E+00  0.51100000000E-03 0. -1.
         11    1    4    4    0    0  0.11741860916E-02  0.14372012273E-01  0.14076626688E-01  0.20158025440E-01  0.51100000000E-03 0.  1.
</event>
<event>
 8    1  0.1097777E+005  0.1043930E+01  0.7957747E-01            NaN
         13   -1    0    0    0    0  0.00000000000E+00  0.00000000000E+00  0.74505805969E-08  0.10566000000E+00  0.10566000000E+00 0. -1.
     999900   -1    0    0    0    0 -0.00000000000E+00 -0.00000000000E+00 -0.74505805969E-08  0.93827000000E+00  0.93827000000E+00 0. -1.
     999902    2    1    2    0    0 -0.14583134119E-01 -0.99173043645E-02 -0.15534121558E-01  0.10204283052E+01  0.10201576331E+01 0.  0.
     999903    2    3    3    0    0  0.11673201594E+00  0.35181015889E-01 -0.38051760884E-01  0.12925796725E+00  0.19890152517E-01 0.  0.
         14    1    1    2    0    0  0.14583134119E-01  0.99173043645E-02  0.15534121558E-01  0.23501694815E-01  0.00000000000E+00 0. -1.
     999901    1    3    3    0    0 -0.13131515006E+00 -0.45098320253E-01  0.22517639326E-01  0.89117033793E+00  0.88000000000E+00 0. -1.
        -11    1    4    4    0    0  0.49561079525E-01  0.84365566015E-02 -0.77786835913E-02  0.50874798578E-01  0.51100000000E-03 0. -1.
         11    1    4    4    0    0  0.67170936419E-01  0.26744459287E-01 -0.30273077293E-01  0.78383168676E-01  0.51100000000E-03 0.  1.
</event>
<event>
 8    1  0.1097777E+005  0.1043930E+01  0.7957747E-01            NaN
         13   -1    0    0    0    0  0.00000000000E+00  0.00000000000E+00  0.74505805969E-08  0.10566000000E+00  0.10566000000E+00 0. -1.
     999900   -1    0    0    0    0 -0.00000000000E+00 -0.00000000000E+00 -0.74505805969E-08  0.93827000000E+00  0.93827000000E+00 0. -1.
     999902    2    1    2    0    0  0.52338637530E-02  0.23537214849E-01  0.28413104891E-02  0.10196510614E+01  0.10193619672E+01 0.  0.
     999903    2    3    3    0    0 -0.69384945930E-01 -0.28137534401E-01 -0.10268522645E+00  0.12871105421E+00  0.20403141440E-01 0.  0.
         14    1    1    2    0    0 -0.52338637530E-02 -0.23537214849E-01 -0.28413104891E-02  0.24278938567E-01  0.00000000000E+00 0.  1.
     999901    1    3    3    0    0  0.74618809683E-01  0.51674749250E-01  0.10552653694E+00  0.89094000722E+00  0.88000000000E+00 0.  1.
        -11    1    4    4    0    0 -0.51726991340E-01 -0.10940659069E-01 -0.72647315294E-01  0.89851395061E-01  0.51100000000E-03 0.  1.
         11    1    4    4    0    0 -0.17657954590E-01 -0.17196875332E-01 -0.30037911159E-01  0.38859659151E-01  0.51100000000E-03 0. -1.
</event>
<event>
 8    1  0.1097777E+005  0.1043930E+01  0.7957747E-01            NaN
         13   -1    0    0    0    0  0.00000000000E+00  0.00000000000E+00  0.74505805969E-08  0.10566000000E+00  0.10566000000E+00 0. -1.
     999900   -1    0    0    0    0 -0.00000000000E+00 -0.00000000000E+00 -0.74505805969E-08  0.93827000000E+00  0.93827000000E+00 0.  1.
     999902    2    1    2    0    0 -0.87284869861E-02  0.18833165890E-01 -0.69647195725E-02  0.10220352074E+01  0.10218006573E+01 0.  0.
     999903    2    3    3    0    0  0.71574660877E-01 -0.21912596681E-01  0.10370135984E+00  0.13054443696E+00  0.26168378128E-01 0.  0.
         14    1    1    2    0    0  0.87284869861E-02 -0.18833165890E-01  0.69647195725E-02  0.21894792560E-01  0.00000000000E+00 0. -1.
     999901    1    3    3    0    0 -0.80303147863E-01  0.40745762571E-01 -0.11066607942E+00  0.89149077048E+00  0.88000000000E+00 0.  1.
        -11    1    4    4    0    0  0.44553768351E-01 -0.73957779715E-03  0.52002976959E-01  0.68484713500E-01  0.51100000000E-03 0. -1.
         11    1    4    4    0    0  0.27020892526E-01 -0.21173018884E-01  0.51698382885E-01  0.62059723456E-01  0.51100000000E-03 0.  1.
</event>
<event>
 8    1  0.1097777E+005  0.1043930E+01  0.7957747E-01            NaN
         13   -1    0    0    0    0  0.00000000000E+00  0.00000000000E+00  0.74505805969E-08  0.10566000000E+00  0.10566000000E+00 0. -1.
     999900   -1    0    0    0    0 -0.00000000000E+00 -0.00000000000E+00 -0.74505805969E-08  0.93827000000E+00  0.93827000000E+00 0. -1.
     999902    2    1    2    0    0 -0.18105411449E-01  0.15932764961E-01  0.11955395121E-02  0.10197827799E+01  0.10194968514E+01 0.  0.
     999903    2    3    3    0    0 -0.10399925589E+00  0.79921787802E-01  0.10996453506E-01  0.13323418820E+00  0.20666144392E-01 0.  0.
         14    1    1    2    0    0  0.18105411449E-01 -0.15932764961E-01 -0.11955395121E-02  0.24147220084E-01  0.00000000000E+00 0. -1.
     999901    1    3    3    0    0  0.85893844444E-01 -0.63989022841E-01 -0.98009139939E-02  0.88654859172E+00  0.88000000000E+00 0. -1.
        -11    1    4    4    0    0 -0.75692522585E-01  0.52879968461E-01 -0.81815222361E-03  0.92339479823E-01  0.51100000000E-03 0. -1.
         11    1    4    4    0    0 -0.28306733308E-01  0.27041819341E-01  0.11814605730E-01  0.40894708378E-01  0.51100000000E-03 0.  1.
</event>
<event>
 8    1  0.1097777E+005  0.1043930E+01  0.7957747E-01            NaN
         13   -1    0    0    0    0  0.00000000000E+00  0.00000000000E+00  0.74505805969E-08  0.10566000000E+00  0.10566000000E+00 0. -1.
     999900   -1    0    0    0    0 -0.00000000000E+00 -0.00000000000E+00 -0.74505805969E-08  0.93827000000E+00  0.93827000000E+00 0.  1.
     999902    2    1    2    0    0 -0.17169798671E-01 -0.19002903444E-01  0.85414632265E-02  0.10169324275E+01  0.10165739979E+01 0.  0.
     999903    2    3    3    0    0 -0.39190809080E-01 -0.10199737774E+00  0.68934638029E-01  0.13069298853E+00  0.19730391463E-01 0.  0.
         14    1    1    2    0    0  0.17169798671E-01  0.19002903444E-01 -0.85414632265E-02  0.26997572479E-01  0.00000000000E+00 0.  1.
     999901    1    3    3    0    0  0.22021010409E-01  0.82994474300E-01 -0.60393174803E-01  0.88623943899E+00  0.88000000000E+00 0. -1.
        -11    1    4    4    0    0 -0.19281905166E-01 -0.50623271133E-01  0.45778841369E-01  0.70925812545E-01  0.51100000000E-03 0. -1.
         11    1    4    4    0    0 -0.19908903914E-01 -0.51374106610E-01  0.23155796661E-01  0.59767175984E-01  0.51100000000E-03 0.  1.
</event>
<event>
 8    1  0.1097777E+005  0.1043930E+01  0.7957747E-01            NaN
         13   -1    0    0    0    0  0.00000000000E+00  0.00000000000E+00  0.74505805969E-08  0.10566000000E+00  0.10566000000E+00 0. -1.
     999900   -1    0    0    0    0 -0.00000000000E+00 -0.00000000000E+00 -0.74505805969E-08  0.93827000000E+00  0.93827000000E+00 0. -1.
     999902    2    1    2    0    0 -0.53729059523E-02  0.13656855176E-01  0.18288759758E-01  0.10204809799E+01  0.10202115338E+01 0.  0.
     999903    2    3    3    0    0 -0.87071527772E-01  0.48612421400E-01  0.86350124433E-01  0.13339084590E+00  0.19802911862E-01 0.  0.
         14    1    1    2    0    0  0.53729059523E-02 -0.13656855176E-01 -0.18288759758E-01  0.23449020132E-01  0.00000000000E+00 0.  1.
     999901    1    3    3    0    0  0.81698621819E-01 -0.34955566224E-01 -0.68061364675E-01  0.88709013397E+00  0.88000000000E+00 0. -1.
        -11    1    4    4    0    0 -0.24230176307E-01  0.24091603810E-01  0.30800271878E-01  0.46004615929E-01  0.51100000000E-03 0. -1.
         11    1    4    4    0    0 -0.62841351465E-01  0.24520817590E-01  0.55549852555E-01  0.87386229974E-01  0.51100000000E-03 0.  1.
</event>
<event>
 8    1  0.1097777E+005  0.1043930E+01  0.7957747E-01            NaN
         13   -1    0    0    0    0  0.00000000000E+00  0.00000000000E+00  0.74505805969E-08  0.10566000000E+00  0.10566000000E+00 0. -1.
     999900   -1    0    0    0    0 -0.00000000000E+00 -0.00000000000E+00 -0.74505805969E-08  0.93827000000E+00  0.93827000000E+00 0.  1.
     999902    2    1    2    0    0 -0.14971184341E-01  0.84642386241E-02 -0.37827480267E-02  0.10263206593E+01  0.10261695800E+01 0.  0.
     999903    2    3    3    0    0 -0.11380261939E+00 -0.49205959520E-01  0.54786612892E-01  0.13698164954E+00  0.19751879025E-01 0.  0.
         14    1    1    2    0    0  0.14971184341E-01 -0.84642386241E-02  0.37827480267E-02  0.17609340666E-01  0.00000000000E+00 0.  1.
     999901    1    3    3    0    0  0.98831435051E-01  0.57670198144E-01 -0.58569360919E-01  0.88933900980E+00  0.88000000000E+00 0. -1.
        -11    1    4    4    0    0 -0.29975048640E-01 -0.90188272694E-02  0.22567246557E-01  0.38592544934E-01  0.51100000000E-03 0. -1.
         11    1    4    4    0    0 -0.83827570752E-01 -0.40187132250E-01  0.32219366335E-01  0.98389104604E-01  0.51100000000E-03 0.  1.
</event>
<event>
 8    1  0.1097777E+005  0.1043930E+01  0.7957747E-01            NaN
         13   -1    0    0    0    0  0.00000000000E+00  0.00000000000E+00  0.74505805969E-08  0.10566000000E+00  0.10566000000E+00 0. -1.
     999900   -1    0    0    0    0 -0.00000000000E+00 -0.00000000000E+00 -0.74505805969E-08  0.93827000000E+00  0.93827000000E+00 0.  1.
     999902    2    1    2    0    0  0.42932146066E-02 -0.97527553637E-02 -0.21742687714E-01  0.10197165245E+01  0.10194290058E+01 0.  0.
     999903    2    3    3    0    0 -0.12623235946E+00  0.19723605740E-01  0.73601406976E-03  0.12931713464E+00  0.19968735492E-01 0.  0.
         14    1    1    2    0    0 -0.42932146066E-02  0.97527553637E-02  0.21742687714E-01  0.24213475543E-01  0.00000000000E+00 0. -1.
     999901    1    3    3    0    0  0.13052557407E+00 -0.29476361103E-01 -0.22478701784E-01  0.89039938982E+00  0.88000000000E+00 0.  1.
        -11    1    4    4    0    0 -0.10164573830E+00  0.19401563882E-01  0.76653214880E-02  0.10376557748E+00  0.51100000000E-03 0. -1.
         11    1    4    4    0    0 -0.24586621157E-01  0.32204185755E-03 -0.69293074183E-02  0.25551557158E-01  0.51100000000E-03 0.  1.
</event>
<event>
 8    1  0.1097777E+005  0.1043930E+01  0.7957747E-01            NaN
         13   -1    0    0    0    0  0.00000000000E+00  0.00000000000E+00  0.74505805969E-08  0.10566000000E+00  0.10566000000E+00 0. -1.
     999900   -1    0    0    0    0 -0.00000000000E+00 -0.00000000000E+00 -0.74505805969E-08  0.93827000000E+00  0.93827000000E+00 0.  1.
     999902    2    1    2    0    0  0.41832176505E-02  0.18592704461E-01 -0.85279631879E-02  0.10230514434E+01  0.10228383752E+01 0.  0.
     999903    2    3    3    0    0  0.14183420849E-01 -0.13428914187E-01  0.12872601906E+00  0.13178041630E+00  0.20351534927E-01 0.  0.
         14    1    1    2    0    0 -0.41832176505E-02 -0.18592704461E-01  0.85279631879E-02  0.20878556588E-01  0.00000000000E+00 0. -1.
     999901    1    3    3    0    0 -0.10000203199E-01  0.32021618648E-01 -0.13725398225E+00  0.89127102711E+00  0.88000000000E+00 0.  1.
        -11    1    4    4    0    0  0.10446053086E-01 -0.21620719119E-02  0.10168398133E+00  0.10224327733E+00  0.51100000000E-03 0.  1.
         11    1    4    4    0    0  0.37373677640E-02 -0.11266842275E-01  0.27042037730E-01  0.29537138965E-01  0.51100000000E-03 0. -1.
</event>
<event>
 8    1  0.1097777E+005  0.1043930E+01  0.7957747E-01            NaN
         13   -1    0    0    0    0  0.00000000000E+00  0.00000000000E+00  0.74505805969E-08  0.10566000000E+00  0.10566000000E+00 0. -1.
     999900   -1    0    0    0    0 -0.00000000000E+00 -0.00000000000E+00 -0.74505805969E-08  0.93827000000E+00  0.93827000000E+00 0.  1.
     999902    2    1    2    0    0 -0.17155892998E-01 -0.81230824023E-02 -0.14173909600E-01  0.10202401531E+01  0.10199650784E+01 0.  0.
     999903    2    3    3    0    0  0.78409105104E-01 -0.67648582603E-01 -0.77128728876E-01  0.13083627224E+00  0.21094331573E-01 0.  0.
         14    1    1    2    0    0  0.17155892998E-01  0.81230824023E-02  0.14173909600E-01  0.23689846889E-01  0.00000000000E+00 0. -1.
     999901    1    3    3    0    0 -0.95564998102E-01  0.59525500201E-01  0.62954819276E-01  0.88940388087E+00  0.88000000000E+00 0. -1.
        -11    1    4    4    0    0  0.39094756642E-01 -0.41601088108E-01 -0.31454747682E-01  0.65182150942E-01  0.51100000000E-03 0.  1.
         11    1    4    4    0    0  0.39314348462E-01 -0.26047494495E-01 -0.45673981194E-01  0.65654121299E-01  0.51100000000E-03 0. -1.
</event>
<event>
 8    1  0.1097777E+005  0.1043930E+01  0.7957747E-01            NaN
         13   -1    0    0    0    0  0.00000000000E+00  0.00000000000E+00  0.74505805969E-08  0.10566000000E+00  0.10566000000E+00 0. -1.
     999900   -1    0    0    0    0 -0.00000000000E+00 -0.00000000000E+00 -0.74505805969E-08  0.93827000000E+00  0.93827000000E+00 0.  1.
     999902    2    1    2    0    0  0.50932158190E-02 -0.29014963547E-02  0.24078160464E-01  0.10191486090E+01  0.10188472751E+01 0.  0.
     999903    2    3    3    0    0 -0.11003534173E+00  0.47250218345E-01 -0.40025674102E-01  0.12792524707E+00  0.20553702503E-01 0.  0.
         14    1    1    2    0    0 -0.50932158190E-02  0.29014963547E-02 -0.24078160464E-01  0.24781390998E-01  0.00000000000E+00 0.  1.
     999901    1    3    3    0    0  0.11512855755E+00 -0.50151714699E-01  0.64103834566E-01  0.89122336193E+00  0.88000000000E+00 0. -1.
        -11    1    4    4    0    0 -0.38253357615E-01  0.70477748549E-02 -0.17267944932E-01  0.42560939163E-01  0.51100000000E-03 0. -1.
         11    1    4    4    0    0 -0.71781984116E-01  0.40202443490E-01 -0.22757729170E-01  0.85364307905E-01  0.51100000000E-03 0.  1.
</event>
<event>
 8    1  0.1097777E+005  0.1043930E+01  0.7957747E-01            NaN
         13   -1    0    0    0    0  0.00000000000E+00  0.00000000000E+00  0.74505805969E-08  0.10566000000E+00  0.10566000000E+00 0. -1.
     999900   -1    0    0    0    0 -0.00000000000E+00 -0.00000000000E+00 -0.74505805969E-08  0.93827000000E+00  0.93827000000E+00 0.  1.
     999902    2    1    2    0    0  0.84488380795E-02  0.21915615096E-01  0.11098222080E-01  0.10179521713E+01  0.10176206442E+01 0.  0.
     999903    2    3    3    0    0  0.18596459564E-01  0.12786766368E+00 -0.55285520552E-02  0.13138279420E+00  0.23128034945E-01 0.  0.
         14    1    1    2    0    0 -0.84488380795E-02 -0.21915615096E-01 -0.11098222080E-01  0.25977828687E-01  0.00000000000E+00 0.  1.
     999901    1    3    3    0    0 -0.10147621485E-01 -0.10595204858E+00  0.16626774136E-01  0.88656937712E+00  0.88000000000E+00 0. -1.
        -11    1    4    4    0    0  0.26996408493E-02  0.39666700188E-01  0.85215176911E-02  0.40664635118E-01  0.51100000000E-03 0.  1.
         11    1    4    4    0    0  0.15896818715E-01  0.88200963491E-01 -0.14050069746E-01  0.90718159080E-01  0.51100000000E-03 0. -1.
</event>
<event>
 8    1  0.1097777E+005  0.1043930E+01  0.7957747E-01            NaN
         13   -1    0    0    0    0  0.00000000000E+00  0.00000000000E+00  0.74505805969E-08  0.10566000000E+00  0.10566000000E+00 0. -1.
     999900   -1    0    0    0    0 -0.00000000000E+00 -0.00000000000E+00 -0.74505805969E-08  0.93827000000E+00  0.93827000000E+00 0.  1.
     999902    2    1    2    0    0  0.30797596726E-01  0.39170808604E-02 -0.73118554966E-02  0.10120348794E+01  0.10115321539E+01 0.  0.
     999903    2    3    3    0    0 -0.69640002457E-01 -0.31508709182E-01 -0.91492020019E-01  0.12162542414E+00  0.24071256191E-01 0.  0.
         14    1    1    2    0    0 -0.30797596726E-01 -0.39170808604E-02  0.73118554966E-02  0.31895120589E-01  0.00000000000E+00 0. -1.
     999901    1    3    3    0    0  0.10043759918E+00  0.35425790043E-01  0.84180164522E-01  0.89040945527E+00  0.88000000000E+00 0.  1.
        -11    1    4    4    0    0 -0.35224789887E-01 -0.31993696182E-02 -0.44756692573E-01  0.57047738251E-01  0.51100000000E-03 0.  1.
         11    1    4    4    0    0 -0.34415212570E-01 -0.28309339564E-01 -0.46735327446E-01  0.64577685893E-01  0.51100000000E-03 0. -1.
</event>
<event>
 8    1  0.1097777E+005  0.1043930E+01  0.7957747E-01            NaN
         13   -1    0    0    0    0  0.00000000000E+00  0.00000000000E+00  0.74505805969E-08  0.10566000000E+00  0.10566000000E+00 0. -1.
     999900   -1    0    0    0    0 -0.00000000000E+00 -0.00000000000E+00 -0.74505805969E-08  0.93827000000E+00  0.93827000000E+00 0.  1.
     999902    2    1    2    0    0 -0.99093148784E-02  0.18668835709E-01 -0.11015878830E-01  0.10200957907E+01  0.10198173133E+01 0.  0.
     999903    2    3    3    0    0  0.38772858895E-01 -0.18157628613E-01 -0.12216470668E+00  0.13100625387E+00  0.20134272497E-01 0.  0.
         14    1    1    2    0    0  0.99093148784E-02 -0.18668835709E-01  0.11015878830E-01  0.23834209332E-01  0.00000000000E+00 0. -1.
     999901    1    3    3    0    0 -0.48682173773E-01  0.36826464322E-01  0.11114882785E+00  0.88908953680E+00  0.88000000000E+00 0. -1.
        -11    1    4    4    0    0  0.13051955112E-01 -0.16493968746E-01 -0.64406963626E-01  0.67756347464E-01  0.51100000000E-03 0.  1.
         11    1    4    4    0    0  0.25720903783E-01 -0.16636598664E-02 -0.57757743059E-01  0.63249906402E-01  0.51100000000E-03 0. -1.
</event>
<event>
 8    1  0.1097777E+005  0.1043930E+01  0.7957747E-01            NaN
         13   -1    0    0    0    0  0.00000000000E+00  0.00000000000E+00  0.74505805969E-08  0.10566000000E+00  0.10566000000E+00 0.  1.
     999900   -1    0    0    0    0 -0.00000000000E+00 -0.00000000000E+00 -0.74505805969E-08  0.93827000000E+00  0.93827000000E+00 0. -1.
     999902    2    1    2    0    0  0.20715633702E-01  0.99301359431E-02 -0.53671567487E-02  0.10203386573E+01  0.10200658920E+01 0.  0.
     999903    2    3    3    0    0 -0.85608222623E-01  0.76153246220E-01  0.56881405167E-01  0.12929143844E+00  0.18780231856E-01 0.  0.
         14    1    1    2    0    0 -0.20715633702E-01 -0.99301359431E-02  0.53671567487E-02  0.23591342715E-01  0.00000000000E+00 0.  1.
     999901    1    3    3    0    0  0.10632385633E+00 -0.66223110277E-01 -0.62248561916E-01  0.89104721885E+00  0.88000000000E+00 0. -1.
        -11    1    4    4    0    0 -0.41540159213E-01  0.39124790292E-01  0.38604119395E-01  0.68897555821E-01  0.51100000000E-03 0.  1.
         11    1    4    4    0    0 -0.44068063410E-01  0.37028455928E-01  0.18277285772E-01  0.60393882615E-01  0.51100000000E-03 0. -1.
</event>
<event>
 8    1  0.1097777E+005  0.1043930E+01  0.7957747E-01            NaN
         13   -1    0    0    0    0  0.00000000000E+00  0.00000000000E+00  0.74505805969E-08  0.10566000000E+00  0.10566000000E+00 0. -1.
     999900   -1    0    0    0    0 -0.00000000000E+00 -0.00000000000E+00 -0.74505805969E-08  0.93827000000E+00  0.93827000000E+00 0. -1.
     999902    2    1    2    0    0 -0.20119811194E-01 -0.34234235919E-02 -0.98956226606E-02  0.10212485102E+01  0.10209966061E+01 0.  0.
     999903    2    3    3    0    0 -0.12911999301E+00  0.12616270153E-01 -0.28040802619E-01  0.13419295446E+00  0.19756506516E-01 0.  0.
         14    1    1    2    0    0  0.20119811194E-01  0.34234235919E-02  0.98956226606E-02  0.22681489797E-01  0.00000000000E+00 0. -1.
     999901    1    3    3    0    0  0.10900018181E+00 -0.16039693745E-01  0.18145179959E-01  0.88705555574E+00  0.88000000000E+00 0.  1.
        -11    1    4    4    0    0 -0.86110541047E-01  0.13557332777E-01 -0.26620262054E-01  0.91146727995E-01  0.51100000000E-03 0.  1.
         11    1    4    4    0    0 -0.43009451960E-01 -0.94106262373E-03 -0.14205405658E-02  0.43046226469E-01  0.51100000000E-03 0. -1.
</event>
<event>
 8    1  0.1097777E+005  0.1043930E+01  0.7957747E-01            NaN
         13   -1    0    0    0    0  0.00000000000E+00  0.00000000000E+00  0.74505805969E-08  0.10566000000E+00  0.10566000000E+00 0.  1.
     999900   -1    0    0    0    0 -0.00000000000E+00 -0.00000000000E+00 -0.74505805969E-08  0.93827000000E+00  0.93827000000E+00 0.  1.
     999902    2    1    2    0    0 -0.18617208587E-01 -0.13005667330E-01  0.97480936670E-02  0.10192161745E+01  0.10189165016E+01 0.  0.
     999903    2    3    3    0    0  0.10227574055E+00 -0.71757284594E-01 -0.22198001107E-01  0.12843707137E+00  0.19846789508E-01 0.  0.
         14    1    1    2    0    0  0.18617208587E-01  0.13005667330E-01 -0.97480936670E-02  0.24713825451E-01  0.00000000000E+00 0.  1.
     999901    1    3    3    0    0 -0.12089294913E+00  0.58751617264E-01  0.31946094774E-01  0.89077910317E+00  0.88000000000E+00 0. -1.
        -11    1    4    4    0    0  0.37546056069E-01 -0.27578967731E-01  0.13388947385E-02  0.46608578047E-01  0.51100000000E-03 0.  1.
         11    1    4    4    0    0  0.64729684477E-01 -0.44178316863E-01 -0.23536895845E-01  0.81828493328E-01  0.51100000000E-03 0. -1.
</event>
<event>
 8    1  0.1097777E+005  0.1043930E+01  0.7957747E-01            NaN
         13   -1    0    0    0    0  0.00000000000E+00  0.00000000000E+00  0.74505805969E-08  0.10566000000E+00  0.10566000000E+00 0.  1.
     999900   -1    0    0    0    0 -0.00000000000E+00 -0.00000000000E+00 -0.74505805969E-08  0.93827000000E+00  0.93827000000E+00 0. -1.
     999902    2    1    2    0    0 -0.15221855080E-01 -0.17504232535E-01  0.54690645130E-02  0.10200969621E+01  0.10198185125E+01 0.  0.
     999903    2    3    3    0    0 -0.88449325029E-01  0.54025238323E-01  0.77903521893E-01  0.13120693619E+00  0.20107011374E-01 0.  0.
         14    1    1    2    0    0  0.15221855080E-01  0.17504232535E-01 -0.54690645130E-02  0.23833037897E-01  0.00000000000E+00 0. -1.
     999901    1    3    3    0    0  0.73227469949E-01 -0.71529470859E-01 -0.72434457380E-01  0.88889002592E+00  0.88000000000E+00 0. -1.
        -11    1    4    4    0    0 -0.50106559959E-01  0.30510424486E-01  0.56280723353E-01  0.81297812365E-01  0.51100000000E-03 0.  1.
         11    1    4    4    0    0 -0.38342765070E-01  0.23514813837E-01  0.21622798540E-01  0.49909123822E-01  0.51100000000E-03 0. -1.
</event>
<event>
 8    1  0.1097777E+005  0.1043930E+01  0.7957747E-01            NaN
         13   -1    0    0    0    0  0.00000000000E+00  0.00000000000E+00  0.74505805969E-08  0.10566000000E+00  0.10566000000E+00 0. -1.
     999900   -1    0    0    0    0 -0.00000000000E+00 -0.00000000000E+00 -0.74505805969E-08  0.93827000000E+00  0.93827000000E+00 0.  1.
     999902    2    1    2    0    0 -0.12959302614E-01  0.16931251176E-01 -0.92988457415E-02  0.10206688882E+01  0.10204037926E+01 0.  0.
     999903    2    3    3    0    0 -0.21605463906E-01  0.83087729403E-01 -0.10042231133E+00  0.13345137162E+00  0.18821825857E-01 0.  0.
         14    1    1    2    0    0  0.12959302614E-01 -0.16931251176E-01  0.92988457415E-02  0.23261111812E-01  0.00000000000E+00 0.  1.
     999901    1    3    3    0    0  0.86461612923E-02 -0.66156478227E-01  0.91123465585E-01  0.88721751656E+00  0.88000000000E+00 0. -1.
        -11    1    4    4    0    0 -0.38055694325E-02  0.40531973442E-01 -0.57393188284E-01  0.70367339101E-01  0.51100000000E-03 0.  1.
         11    1    4    4    0    0 -0.17799894473E-01  0.42555755961E-01 -0.43029123042E-01  0.63084032524E-01  0.51100000000E-03 0. -1.
</event>
<event>
 8    1  0.1097777E+005  0.1043930E+01  0.7957747E-01            NaN
         13   -1    0    0    0    0  0.00000000000E+00  0.00000000000E+00  0.74505805969E-08  0.10566000000E+00  0.10566000000E+00 0. -1.
     999900   -1    0    0    0    0 -0.00000000000E+00 -0.00000000000E+00 -0.74505805969E-08  0.93827000000E+00  0.93827000000E+00 0. -1.
     999902    2    1    2    0    0 -0.21232757265E-01 -0.11605380342E-01 -0.36169500545E-02  0.10194637546E+01  0.10191701280E+01 0.  0.
     999903    2    3    3    0    0 -0.12102806345E+00 -0.36046899557E-01 -0.36814332976E-01  0.13286432016E+00  0.18720612986E-01 0.  0.
         14    1    1    2    0    0  0.21232757265E-01  0.11605380342E-01  0.36169500545E-02  0.24466245353E-01  0.00000000000E+00 0. -1.
     999901    1    3    3    0    0  0.99795306180E-01  0.24441519215E-01  0.33197382921E-01  0.88659943449E+00  0.88000000000E+00 0. -1.
        -11    1    4    4    0    0 -0.23640348833E-01  0.32705858405E-03 -0.83338982209E-02  0.25073652323E-01  0.51100000000E-03 0.  1.
         11    1    4    4    0    0 -0.97387714612E-01 -0.36373958141E-01 -0.28480434755E-01  0.10779066784E+00  0.51100000000E-03 0. -1.
</event>
<event>
 8    1  0.1097777E+005  0.1043930E+01  0.7957747E-01            NaN
         13   -1    0    0    0    0  0.00000000000E+00  0.00000000000E+00  0.74505805969E-08  0.10566000000E+00  0.10566000000E+00 0. -1.
     999900   -1    0    0    0    0 -0.00000000000E+00 -0.00000000000E+00 -0.74505805969E-08  0.93827000000E+00  0.93827000000E+00 0.  1.
     999902    2    1    2    0    0  0.11535290053E-01 -0.20208077734E-01 -0.42078199144E-02  0.10202839629E+01  0.10200099166E+01 0.  0.
     999903    2    3    3    0    0 -0.57558227097E-01  0.89877317477E-01 -0.68504791606E-01  0.12841692745E+00  0.20177192044E-01 0.  0.
         14    1    1    2    0    0 -0.11535290053E-01  0.20208077734E-01  0.42078199144E-02  0.23646037104E-01  0.00000000000E+00 0. -1.
     999901    1    3    3    0    0  0.69093517150E-01 -0.11008539521E+00  0.64296971691E-01  0.89186703545E+00  0.88000000000E+00 0.  1.
        -11    1    4    4    0    0 -0.22691922132E-01  0.49978463164E-01 -0.42321482016E-01  0.69311897040E-01  0.51100000000E-03 0.  1.
         11    1    4    4    0    0 -0.34866304965E-01  0.39898854313E-01 -0.26183309590E-01  0.59105030408E-01  0.51100000000E-03 0. -1.
</event>
<event>
 8    1  0.1097777E+005  0.1043930E+01  0.7957747E-01            NaN
         13   -1    0    0    0    0  0.00000000000E+00  0.00000000000E+00  0.74505805969E-08  0.10566000000E+00  0.10566000000E+00 0.  1.
     999900   -1    0    0    0    0 -0.00000000000E+00 -0.00000000000E+00 -0.74505805969E-08  0.93827000000E+00  0.93827000000E+00 0.  1.
     999902    2    1    2    0    0 -0.18156280322E-01 -0.10731148079E-01  0.20467484828E-01  0.10145407845E+01  0.10141150218E+01 0.  0.
     999903    2    3    3    0    0  0.22907697780E-02 -0.56356229467E-01  0.11343446923E+00  0.12823237872E+00  0.19871887599E-01 0.  0.
         14    1    1    2    0    0  0.18156280322E-01  0.10731148079E-01 -0.20467484828E-01  0.29389215529E-01  0.00000000000E+00 0. -1.
     999901    1    3    3    0    0 -0.20447050100E-01  0.45625081388E-01 -0.92966984406E-01  0.88630840575E+00  0.88000000000E+00 0.  1.
        -11    1    4    4    0    0  0.23865230875E-02 -0.24087989978E-01  0.70361500491E-01  0.74410541094E-01  0.51100000000E-03 0.  1.
         11    1    4    4    0    0 -0.95753309542E-04 -0.32268239489E-01  0.43072968743E-01  0.53821837629E-01  0.51100000000E-03 0. -1.
</event>
<event>
 8    1  0.1097777E+005  0.1043930E+01  0.7957747E-01            NaN
         13   -1    0    0    0    0  0.00000000000E+00  0.00000000000E+00  0.74505805969E-08  0.10566000000E+00  0.10566000000E+00 0. -1.
     999900   -1    0    0    0    0 -0.00000000000E+00 -0.00000000000E+00 -0.74505805969E-08  0.93827000000E+00  0.93827000000E+00 0.  1.
     999902    2    1    2    0    0  0.45180278325E-02  0.19791654288E-01 -0.13646285638E-01  0.10194689439E+01  0.10191754433E+01 0.  0.
     999903    2    3    3    0    0  0.11534645093E+00  0.56392431110E-01  0.17849870649E-01  0.13120402613E+00  0.20272359566E-01 0.  0.
         14    1    1    2    0    0 -0.45180278325E-02 -0.19791654288E-01  0.13646285638E-01  0.24461056123E-01  0.00000000000E+00 0. -1.
     999901    1    3    3    0    0 -0.11082842310E+00 -0.36600776822E-01 -0.31496156287E-01  0.88826491774E+00  0.88000000000E+00 0. -1.
        -11    1    4    4    0    0  0.51896429716E-01  0.35839869273E-01  0.12447841460E-01  0.64287988961E-01  0.51100000000E-03 0. -1.
         11    1    4    4    0    0  0.63450021217E-01  0.20552561837E-01  0.54020291891E-02  0.66916037173E-01  0.51100000000E-03 0.  1.
</event>
<event>
 8    1  0.1097777E+005  0.1043930E+01  0.7957747E-01            NaN
         13   -1    0    0    0    0  0.00000000000E+00  0.00000000000E+00  0.74505805969E-08  0.10566000000E+00  0.10566000000E+00 0. -1.
     999900   -1    0    0    0    0 -0.00000000000E+00 -0.00000000000E+00 -0.74505805969E-08  0.93827000000E+00  0.93827000000E+00 0.  1.
     999902    2    1    2    0    0 -0.43938185796E-02  0.20181292526E-01 -0.12578502914E-01  0.10197471766E+01  0.10194603942E+01 0.  0.
     999903    2    3    3    0    0  0.12231575377E+00 -0.19833427870E-01 -0.32693732633E-01  0.12954432558E+00  0.18929967127E-01 0.  0.
         14    1    1    2    0    0  0.43938185796E-02 -0.20181292526E-01  0.12578502914E-01  0.24182823353E-01  0.00000000000E+00 0. -1.
     999901    1    3    3    0    0 -0.12670957235E+00  0.40014720397E-01  0.20115229719E-01  0.89020285106E+00  0.88000000000E+00 0.  1.
        -11    1    4    4    0    0  0.74599151541E-01 -0.49099302008E-02 -0.25715197213E-01  0.79061199800E-01  0.51100000000E-03 0. -1.
         11    1    4    4    0    0  0.47716602232E-01 -0.14923497670E-01 -0.69785354200E-02  0.50483125784E-01  0.51100000000E-03 0.  1.
</event>
<event>
 8    1  0.1097777E+005  0.1043930E+01  0.7957747E-01            NaN
         13   -1    0    0    0    0  0.00000000000E+00  0.00000000000E+00  0.74505805969E-08  0.10566000000E+00  0.10566000000E+00 0. -1.
     999900   -1    0    0    0    0 -0.00000000000E+00 -0.00000000000E+00 -0.74505805969E-08  0.93827000000E+00  0.93827000000E+00 0. -1.
     999902    2    1    2    0    0 -0.20916142760E-01 -0.56105434891E-04  0.90221896816E-02  0.10211508850E+01  0.10208967831E+01 0.  0.
     999903    2    3    3    0    0  0.97017605000E-01  0.69718723099E-01 -0.43342612195E-01  0.12900797710E+00  0.22166643690E-01 0.  0.
         14    1    1    2    0    0  0.20916142760E-01  0.56105434891E-04 -0.90221896816E-02  0.22779115049E-01  0.00000000000E+00 0. -1.
     999901    1    3    3    0    0 -0.11793374776E+00 -0.69774828534E-01  0.52364801877E-01  0.89214290785E+00  0.88000000000E+00 0. -1.
        -11    1    4    4    0    0  0.87728774495E-01  0.65143668289E-01 -0.32490062630E-01  0.11399956440E+00  0.51100000000E-03 0. -1.
         11    1    4    4    0    0  0.92888305050E-02  0.45750548099E-02 -0.10852549565E-01  0.15008412698E-01  0.51100000000E-03 0.  1.
</event>
<event>
 8    1  0.1097777E+005  0.1043930E+01  0.7957747E-01            NaN
         13   -1    0    0    0    0  0.00000000000E+00  0.00000000000E+00  0.74505805969E-08  0.10566000000E+00  0.10566000000E+00 0.  1.
     999900   -1    0    0    0    0 -0.00000000000E+00 -0.00000000000E+00 -0.74505805969E-08  0.93827000000E+00  0.93827000000E+00 0.  1.
     999902    2    1    2    0    0  0.16101479404E-01  0.13364979494E-01 -0.11689613081E-01  0.10199606994E+01  0.10196790186E+01 0.  0.
     999903    2    3    3    0    0 -0.10039310273E+00  0.67683935489E-01 -0.42552525940E-01  0.13008764329E+00  0.21264695525E-01 0.  0.
         14    1    1    2    0    0 -0.16101479404E-01 -0.13364979494E-01  0.11689613081E-01  0.23969300571E-01  0.00000000000E+00 0.  1.
     999901    1    3    3    0    0  0.11649458213E+00 -0.54318955995E-01  0.30862912858E-01  0.88987305614E+00  0.88000000000E+00 0. -1.
        -11    1    4    4    0    0 -0.69223213708E-01  0.42802363444E-01 -0.38378042034E-01  0.89983503288E-01  0.51100000000E-03 0. -1.
         11    1    4    4    0    0 -0.31169889017E-01  0.24881572045E-01 -0.41744839054E-02  0.40104140006E-01  0.51100000000E-03 0.  1.
</event>
<event>
 8    1  0.1097777E+005  0.1043930E+01  0.7957747E-01            NaN
         13   -1    0    0    0    0  0.00000000000E+00  0.00000000000E+00  0.74505805969E-08  0.10566000000E+00  0.10566000000E+00 0.  1.
     999900   -1    0    0    0    0 -0.00000000000E+00 -0.00000000000E+00 -0.74505805969E-08  0.93827000000E+00  0.93827000000E+00 0. -1.
     999902    2    1    2    0    0 -0.11644896624E-01 -0.18984978502E-01 -0.90733656297E-02  0.10198809046E+01  0.10195973228E+01 0.  0.
     999903    2    3    3    0    0  0.11876948339E+00  0.38892914772E-01 -0.22903362547E-01  0.12828176268E+00  0.17686085377E-01 0.  0.
         14    1    1    2    0    0  0.11644896624E-01  0.18984978502E-01  0.90733656297E-02  0.24049095408E-01  0.00000000000E+00 0.  1.
     999901    1    3    3    0    0 -0.13041438001E+00 -0.57877893275E-01  0.13829996917E-01  0.89159914191E+00  0.88000000000E+00 0.  1.
        -11    1    4    4    0    0  0.51959703721E-01  0.23041891996E-01 -0.17160182837E-01  0.59375690258E-01  0.51100000000E-03 0.  1.
         11    1    4    4    0    0  0.66809779669E-01  0.15851022777E-01 -0.57431797101E-02  0.68906072422E-01  0.51100000000E-03 0. -1.
</event>
<event>
 8    1  0.1097777E+005  0.1043930E+01  0.7957747E-01            NaN
         13   -1    0    0    0    0  0.00000000000E+00  0.00000000000E+00  0.74505805969E-08  0.10566000000E+00  0.10566000000E+00 0.  1.
     999900   -1    0    0    0    0 -0.00000000000E+00 -0.00000000000E+00 -0.74505805969E-08  0.93827000000E+00  0.93827000000E+00 0.  1.
     999902    2    1    2    0    0  0.16321785474E-01 -0.14967536859E-01 -0.77081644278E-02  0.10204812551E+01  0.10202118154E+01 0.  0.
     999903    2    3    3    0    0  0.46710744418E-01  0.68129526071E-01 -0.10008712895E+00  0.13123298613E+00  0.19522738035E-01 0.  0.
         14    1    1    2    0    0 -0.16321785474E-01  0.14967536859E-01  0.77081644278E-02  0.23448744946E-01  0.00000000000E+00 0. -1.
     999901    1    3    3    0    0 -0.30388958943E-01 -0.83097062930E-01  0.92378964526E-01  0.88924826892E+00  0.88000000000E+00 0. -1.
        -11    1    4    4    0    0  0.20897198880E-01  0.42876499466E-01 -0.46526610921E-01  0.66633878562E-01  0.51100000000E-03 0. -1.
         11    1    4    4    0    0  0.25813545537E-01  0.25253026605E-01 -0.53560518033E-01  0.64599107570E-01  0.51100000000E-03 0.  1.
</event>
<event>
 8    1  0.1121886E+005  0.1043930E+01  0.7957747E-01            NaN
         13   -1    0    0    0    0  0.00000000000E+00  0.00000000000E+00  0.74505805969E-08  0.10566000000E+00  0.10566000000E+00 0. -1.
     999900   -1    0    0    0    0 -0.00000000000E+00 -0.00000000000E+00 -0.74505805969E-08  0.93827000000E+00  0.93827000000E+00 0. -1.
     999902    2    1    2    0    0  0.79509978191E-02 -0.12233314810E-03  0.21153977454E-01  0.10213307944E+01  0.10210807351E+01 0.  0.
     999903    2    3    3    0    0 -0.52132925338E-01 -0.11143684175E+00 -0.34847333750E-01  0.13052377573E+00  0.26193658727E-01 0.  0.
         14    1    1    2    0    0 -0.79509978191E-02  0.12233314810E-03 -0.21153977454E-01  0.22599205602E-01  0.00000000000E+00 0.  1.
     999901    1    3    3    0    0  0.60083923157E-01  0.11131450861E+00  0.56001311204E-01  0.89080701867E+00  0.88000000000E+00 0.  1.
        -11    1    4    4    0    0 -0.22739457815E-01 -0.53736192973E-01 -0.31819127289E-02  0.58438404038E-01  0.51100000000E-03 0.  1.
         11    1    4    4    0    0 -0.29393467524E-01 -0.57700648781E-01 -0.31665421021E-01  0.72085371694E-01  0.51100000000E-03 0. -1.
</event>
<event>
 8    1  0.1097777E+005  0.1043930E+01  0.7957747E-01            NaN
         13   -1    0    0    0    0  0.00000000000E+00  0.00000000000E+00  0.74505805969E-08  0.10566000000E+00  0.10566000000E+00 0. -1.
     999900   -1    0    0    0    0 -0.00000000000E+00 -0.00000000000E+00 -0.74505805969E-08  0.93827000000E+00  0.93827000000E+00 0. -1.
     999902    2    1    2    0    0  0.20811457575E-01  0.27276346273E-02  0.10364997890E-01  0.10205208151E+01  0.10202522943E+01 0.  0.
     999903    2    3    3    0    0  0.74893684360E-02  0.83680333733E-01 -0.97285017644E-01  0.13017293735E+00  0.20545804108E-01 0.  0.
         14    1    1    2    0    0 -0.20811457575E-01 -0.27276346273E-02 -0.10364997890E-01  0.23409184913E-01  0.00000000000E+00 0.  1.
     999901    1    3    3    0    0  0.13322089139E-01 -0.80952699105E-01  0.10765001553E+00  0.89034787774E+00  0.88000000000E+00 0. -1.
        -11    1    4    4    0    0 -0.88683845083E-03  0.52656609202E-01 -0.47541646494E-01  0.70950505618E-01  0.51100000000E-03 0.  1.
         11    1    4    4    0    0  0.83762068869E-02  0.31023724530E-01 -0.49743371149E-01  0.59222431729E-01  0.51100000000E-03 0. -1.
</event>
<event>
 8    1  0.1097777E+005  0.1043930E+01  0.7957747E-01            NaN
         13   -1    0    0    0    0  0.00000000000E+00  0.00000000000E+00  0.74505805969E-08  0.10566000000E+00  0.10566000000E+00 0.  1.
     999900   -1    0    0    0    0 -0.00000000000E+00 -0.00000000000E+00 -0.74505805969E-08  0.93827000000E+00  0.93827000000E+00 0.  1.
     999902    2    1    2    0    0  0.65751478339E-02 -0.13475573824E-01 -0.17261612481E-01  0.10210654658E+01  0.10208094330E+01 0.  0.
     999903    2    3    3    0    0  0.35323715402E-01 -0.83517387218E-01  0.92531784709E-01  0.13101663240E+00  0.19501485756E-01 0.  0.
         14    1    1    2    0    0 -0.65751478339E-02  0.13475573824E-01  0.17261612481E-01  0.22864534204E-01  0.00000000000E+00 0.  1.
     999901    1    3    3    0    0 -0.28748567568E-01  0.70041813394E-01 -0.10979339719E+00  0.89004883339E+00  0.88000000000E+00 0.  1.
        -11    1    4    4    0    0  0.22355752511E-01 -0.31324924849E-01  0.32083371265E-01  0.50106231348E-01  0.51100000000E-03 0. -1.
         11    1    4    4    0    0  0.12967962891E-01 -0.52192462369E-01  0.60448413444E-01  0.80910401053E-01  0.51100000000E-03 0.  1.
</event>
<event>
 7    1  0.1097777E+005  0.1043930E+01  0.7957747E-01            NaN
         13   -1    0    0    0    0  0.00000000000E+00  0.00000000000E+00  0.74505805969E-08  0.10566000000E+00  0.10566000000E+00 0. -1.
     999900   -1    0    0    0    0 -0.00000000000E+00 -0.00000000000E+00 -0.74505805969E-08  0.93827000000E+00  0.93827000000E+00 0.  1.
     999903    2    1    2    0    0 -0.61901641517E-01 -0.15605738895E-01 -0.69299526087E-01  0.95715765395E-01  0.16844320118E-01 0.  0.
         14    1    1    2    0    0  0.90852636515E-02 -0.83721496165E-03 -0.56780482144E-01  0.57508834948E-01  0.00000000000E+00 0.  1.
     999901    1    1    2    0    0  0.52816377866E-01  0.16442953857E-01  0.12608000823E+00  0.89070539966E+00  0.88000000000E+00 0. -1.
        -11    1    3    3    0    0 -0.51546614818E-01 -0.62520497973E-02 -0.52049538390E-01  0.73522494473E-01  0.51100000000E-03 0. -1.
         11    1    3    3    0    0 -0.10355026699E-01 -0.93536890979E-02 -0.17249987697E-01  0.22193270922E-01  0.51100000000E-03 0.  1.
</event>
<event>
 8    1  0.1097777E+005  0.1043930E+01  0.7957747E-01            NaN
         13   -1    0    0    0    0  0.00000000000E+00  0.00000000000E+00  0.74505805969E-08  0.10566000000E+00  0.10566000000E+00 0.  1.
     999900   -1    0    0    0    0 -0.00000000000E+00 -0.00000000000E+00 -0.74505805969E-08  0.93827000000E+00  0.93827000000E+00 0.  1.
     999902    2    1    2    0    0 -0.21500520952E-01 -0.54860944216E-02 -0.71994413000E-02  0.10206018713E+01  0.10203352283E+01 0.  0.
     999903    2    3    3    0    0 -0.11025986759E+00 -0.29258352064E-01  0.65417471165E-01  0.13284258083E+00  0.18825944369E-01 0.  0.
         14    1    1    2    0    0  0.21500520952E-01  0.54860944216E-02  0.71994413000E-02  0.23328128691E-01  0.00000000000E+00 0.  1.
     999901    1    3    3    0    0  0.88759346643E-01  0.23772257642E-01 -0.72616912465E-01  0.88775929048E+00  0.88000000000E+00 0.  1.
        -11    1    4    4    0    0 -0.68278286222E-01 -0.85773505795E-02  0.38870611040E-01  0.79035946480E-01  0.51100000000E-03 0.  1.
         11    1    4    4    0    0 -0.41981581373E-01 -0.20681001484E-01  0.26546860124E-01  0.53806634353E-01  0.51100000000E-03 0. -1.
</event>
<event>
 8    1  0.1097777E+005  0.1043930E+01  0.7957747E-01            NaN
         13   -1    0    0    0    0  0.00000000000E+00  0.00000000000E+00  0.74505805969E-08  0.10566000000E+00  0.10566000000E+00 0.  1.
     999900   -1    0    0    0    0 -0.00000000000E+00 -0.00000000000E+00 -0.74505805969E-08  0.93827000000E+00  0.93827000000E+00 0.  1.
     999902    2    1    2    0    0  0.12876927176E-02  0.18320132350E-01 -0.12971149125E-01  0.10214458698E+01  0.10211983788E+01 0.  0.
     999903    2    3    3    0    0 -0.86872458141E-01  0.84287936667E-01 -0.53060279117E-01  0.13367838798E+00  0.20080785399E-01 0.  0.
         14    1    1    2    0    0 -0.12876927176E-02 -0.18320132350E-01  0.12971149125E-01  0.22484130214E-01  0.00000000000E+00 0.  1.
     999901    1    3    3    0    0  0.88160150859E-01 -0.65967804317E-01  0.40089129992E-01  0.88776748180E+00  0.88000000000E+00 0.  1.
        -11    1    4    4    0    0 -0.10627572576E-01  0.47615788616E-02 -0.64948935803E-03  0.11674797195E-01  0.51100000000E-03 0. -1.
         11    1    4    4    0    0 -0.76244885565E-01  0.79526357805E-01 -0.52410789759E-01  0.12200359079E+00  0.51100000000E-03 0.  1.
</event>
<event>
 8    1  0.1097777E+005  0.1043930E+01  0.7957747E-01            NaN
         13   -1    0    0    0    0  0.00000000000E+00  0.00000000000E+00  0.74505805969E-08  0.10566000000E+00  0.10566000000E+00 0.  1.
     999900   -1    0    0    0    0 -0.00000000000E+00 -0.00000000000E+00 -0.74505805969E-08  0.93827000000E+00  0.93827000000E+00 0. -1.
     999902    2    1    2    0    0  0.34460664147E-02  0.21766498387E-01  0.54255403912E-02  0.10212343547E+01  0.10209821325E+01 0.  0.
     999903    2    3    3    0    0  0.81816499344E-02 -0.10008941664E+00  0.80780530620E-01  0.12963485701E+00  0.13959631249E-01 0.  0.
         14    1    1    2    0    0 -0.34460664147E-02 -0.21766498387E-01 -0.54255403912E-02  0.22695645272E-01  0.00000000000E+00 0. -1.
     999901    1    3    3    0    0 -0.47355835197E-02  0.12185591503E+00 -0.75354990229E-01  0.89159949772E+00  0.88000000000E+00 0. -1.
        -11    1    4    4    0    0  0.34455188516E-02 -0.57862891031E-01  0.37856158488E-01  0.69233919541E-01  0.51100000000E-03 0. -1.
         11    1    4    4    0    0  0.47361310828E-02 -0.42226525614E-01  0.42924372132E-01  0.60400937468E-01  0.51100000000E-03 0.  1.
</event>
<event>
 8    1  0.1097777E+005  0.1043930E+01  0.7957747E-01            NaN
         13   -1    0    0    0    0  0.00000000000E+00  0.00000000000E+00  0.74505805969E-08  0.10566000000E+00  0.10566000000E+00 0.  1.
     999900   -1    0    0    0    0 -0.00000000000E+00 -0.00000000000E+00 -0.74505805969E-08  0.93827000000E+00  0.93827000000E+00 0. -1.
     999902    2    1    2    0    0 -0.68066384796E-02 -0.18371544358E-01  0.86835257553E-02  0.10224999373E+01  0.10222753416E+01 0.  0.
     999903    2    3    3    0    0 -0.13016757826E+00 -0.13989820902E-01  0.94686041983E-02  0.13388430758E+00  0.26382566794E-01 0.  0.
         14    1    1    2    0    0  0.68066384796E-02  0.18371544358E-01 -0.86835257553E-02  0.21430062740E-01  0.00000000000E+00 0. -1.
     999901    1    3    3    0    0  0.12336093978E+00 -0.43817234558E-02 -0.78507844305E-03  0.88861562968E+00  0.88000000000E+00 0. -1.
        -11    1    4    4    0    0 -0.83249287793E-01 -0.20714994300E-01  0.10790380455E-01  0.86465301354E-01  0.51100000000E-03 0.  1.
         11    1    4    4    0    0 -0.46918290470E-01  0.67251733974E-02 -0.13217762570E-02  0.47419006225E-01  0.51100000000E-03 0. -1.
</event>
<event>
 8    1  0.1097777E+005  0.1043930E+01  0.7957747E-01            NaN
         13   -1    0    0    0    0  0.00000000000E+00  0.00000000000E+00  0.74505805969E-08  0.10566000000E+00  0.10566000000E+00 0.  1.
     999900   -1    0    0    0    0 -0.00000000000E+00 -0.00000000000E+00 -0.74505805969E-08  0.93827000000E+00  0.93827000000E+00 0. -1.
     999902    2    1    2    0    0 -0.87240850459E-02  0.75894088318E-02  0.20368189714E-01  0.10205083874E+01  0.10202395781E+01 0.  0.
     999903    2    3    3    0    0  0.36922899614E-02  0.12896944498E+00 -0.15016828834E-01  0.13138557296E+00  0.19746212044E-01 0.  0.
         14    1    1    2    0    0  0.87240850459E-02 -0.75894088318E-02 -0.20368189714E-01  0.23421612638E-01  0.00000000000E+00 0. -1.
     999901    1    3    3    0    0 -0.12416375007E-01 -0.12138003615E+00  0.35385018549E-01  0.88912281440E+00  0.88000000000E+00 0.  1.
        -11    1    4    4    0    0 -0.54232308114E-02  0.89545187701E-01 -0.14762132374E-01  0.90917180698E-01  0.51100000000E-03 0. -1.
         11    1    4    4    0    0  0.91155207728E-02  0.39424257284E-01 -0.25469645997E-03  0.40468392267E-01  0.51100000000E-03 0.  1.
</event>
<event>
 8    1  0.1097777E+005  0.1043930E+01  0.7957747E-01            NaN
         13   -1    0    0    0    0  0.00000000000E+00  0.00000000000E+00  0.74505805969E-08  0.10566000000E+00  0.10566000000E+00 0. -1.
     999900   -1    0    0    0    0 -0.00000000000E+00 -0.00000000000E+00 -0.74505805969E-08  0.93827000000E+00  0.93827000000E+00 0.  1.
     999902    2    1    2    0    0  0.18161704119E-01  0.14024758500E-01 -0.25154320139E-02  0.10208460500E+01  0.10205850230E+01 0.  0.
     999903    2    3    3    0    0  0.45044663711E-01  0.87543648150E-01 -0.87610670958E-01  0.13328257606E+00  0.19892293874E-01 0.  0.
         14    1    1    2    0    0 -0.18161704119E-01 -0.14024758500E-01  0.25154320139E-02  0.23083949959E-01  0.00000000000E+00 0.  1.
     999901    1    3    3    0    0 -0.26882959592E-01 -0.73518889650E-01  0.85095238944E-01  0.88756347398E+00  0.88000000000E+00 0. -1.
        -11    1    4    4    0    0  0.21931858276E-01  0.63040264361E-01 -0.57547475082E-01  0.88130893264E-01  0.51100000000E-03 0. -1.
         11    1    4    4    0    0  0.23112805435E-01  0.24503383789E-01 -0.30063195876E-01  0.45151682797E-01  0.51100000000E-03 0.  1.
</event>
<event>
 8    1  0.1097777E+005  0.1043930E+01  0.7957747E-01            NaN
         13   -1    0    0    0    0  0.00000000000E+00  0.00000000000E+00  0.74505805969E-08  0.10566000000E+00  0.10566000000E+00 0.  1.
     999900   -1    0    0    0    0 -0.00000000000E+00 -0.00000000000E+00 -0.74505805969E-08  0.93827000000E+00  0.93827000000E+00 0. -1.
     999902    2    1    2    0    0  0.79075398362E-02  0.78966600791E-02 -0.21217464161E-01  0.10199494410E+01  0.10196674923E+01 0.  0.
     999903    2    3    3    0    0 -0.33783483503E-01  0.10573487478E+00  0.63220242039E-01  0.12953370440E+00  0.21470772437E-01 0.  0.
         14    1    1    2    0    0 -0.79075398362E-02 -0.78966600791E-02  0.21217464161E-01  0.23980559045E-01  0.00000000000E+00 0. -1.
     999901    1    3    3    0    0  0.41691023339E-01 -0.97838214700E-01 -0.84437706200E-01  0.89041573656E+00  0.88000000000E+00 0.  1.
        -11    1    4    4    0    0 -0.17283513294E-01  0.26441071913E-01  0.12540807573E-01  0.33990926602E-01  0.51100000000E-03 0.  1.
         11    1    4    4    0    0 -0.16499970209E-01  0.79293802866E-01  0.50679434466E-01  0.95542777795E-01  0.51100000000E-03 0. -1.
</event>
<event>
 8    1  0.1097777E+005  0.1043930E+01  0.7957747E-01            NaN
         13   -1    0    0    0    0  0.00000000000E+00  0.00000000000E+00  0.74505805969E-08  0.10566000000E+00  0.10566000000E+00 0. -1.
     999900   -1    0    0    0    0 -0.00000000000E+00 -0.00000000000E+00 -0.74505805969E-08  0.93827000000E+00  0.93827000000E+00 0. -1.
     999902    2    1    2    0    0  0.20456867750E-01 -0.12326451434E-01  0.86368982548E-02  0.10185327392E+01  0.10182160478E+01 0.  0.
     999903    2    3    3    0    0 -0.51940315959E-01 -0.99263358063E-01 -0.60043090600E-01  0.12863593689E+00  0.19774247282E-01 0.  0.
         14    1    1    2    0    0 -0.20456867750E-01  0.12326451434E-01 -0.86368982548E-02  0.25397260769E-01  0.00000000000E+00 0. -1.
     999901    1    3    3    0    0  0.72397183709E-01  0.86936906629E-01  0.68679988855E-01  0.88989680234E+00  0.88000000000E+00 0.  1.
        -11    1    4    4    0    0 -0.23737217374E-01 -0.65578000549E-01 -0.39222631528E-01  0.80016283278E-01  0.51100000000E-03 0. -1.
         11    1    4    4    0    0 -0.28203098584E-01 -0.33685357514E-01 -0.20820459072E-01  0.48619653614E-01  0.51100000000E-03 0.  1.
</event>
<event>
 8    1  0.1097777E+005  0.1043930E+01  0.7957747E-01            NaN
         13   -1    0    0    0    0  0.00000000000E+00  0.00000000000E+00  0.74505805969E-08  0.10566000000E+00  0.10566000000E+00 0. -1.
     999900   -1    0    0    0    0 -0.00000000000E+00 -0.00000000000E+00 -0.74505805969E-08  0.93827000000E+00  0.93827000000E+00 0.  1.
     999902    2    1    2    0    0 -0.11628073419E-01 -0.16652679695E-01 -0.99647480959E-02  0.10213065600E+01  0.10210559581E+01 0.  0.
     999903    2    3    3    0    0 -0.81589580343E-01  0.10070138417E+00  0.66633756268E-03  0.13070024477E+00  0.16866581853E-01 0.  0.
         14    1    1    2    0    0  0.11628073419E-01  0.16652679695E-01  0.99647480959E-02  0.22623439992E-01  0.00000000000E+00 0. -1.
     999901    1    3    3    0    0  0.69961506924E-01 -0.11735406386E+00 -0.10631085659E-01  0.89060631524E+00  0.88000000000E+00 0.  1.
        -11    1    4    4    0    0 -0.37552390596E-01  0.53403920363E-01 -0.68158966704E-02  0.65642046876E-01  0.51100000000E-03 0. -1.
         11    1    4    4    0    0 -0.44037189747E-01  0.47297463806E-01  0.74822342331E-02  0.65058197895E-01  0.51100000000E-03 0.  1.
</event>
<event>
 8    1  0.1097777E+005  0.1043930E+01  0.7957747E-01            NaN
         13   -1    0    0    0    0  0.00000000000E+00  0.00000000000E+00  0.74505805969E-08  0.10566000000E+00  0.10566000000E+00 0. -1.
     999900   -1    0    0    0    0 -0.00000000000E+00 -0.00000000000E+00 -0.74505805969E-08  0.93827000000E+00  0.93827000000E+00 0. -1.
     999902    2    1    2    0    0 -0.19408136483E-01 -0.13930193955E-01 -0.88618606879E-02  0.10184494458E+01  0.10181306474E+01 0.  0.
     999903    2    3    3    0    0  0.98164027249E-02  0.28522347854E-01 -0.12395069493E+00  0.12946028293E+00  0.22052301341E-01 0.  0.
         14    1    1    2    0    0  0.19408136483E-01  0.13930193955E-01  0.88618606879E-02  0.25480554159E-01  0.00000000000E+00 0. -1.
     999901    1    3    3    0    0 -0.29224539208E-01 -0.42452541809E-01  0.11508883424E+00  0.88898916291E+00  0.88000000000E+00 0.  1.
        -11    1    4    4    0    0  0.16804504620E-01  0.21725162104E-01 -0.96047843621E-01  0.99899066208E-01  0.51100000000E-03 0. -1.
         11    1    4    4    0    0 -0.69881018951E-02  0.67971857499E-02 -0.27902851309E-01  0.29561216727E-01  0.51100000000E-03 0.  1.
</event>
<event>
 8    1  0.1097777E+005  0.1043930E+01  0.7957747E-01            NaN
         13   -1    0    0    0    0  0.00000000000E+00  0.00000000000E+00  0.74505805969E-08  0.10566000000E+00  0.10566000000E+00 0. -1.
     999900   -1    0    0    0    0 -0.00000000000E+00 -0.00000000000E+00 -0.74505805969E-08  0.93827000000E+00  0.93827000000E+00 0.  1.
     999902    2    1    2    0    0 -0.11189850070E-01  0.31323094157E-02  0.20970862467E-01  0.10199549884E+01  0.10196731718E+01 0.  0.
     999903    2    3    3    0    0  0.86209858278E-01 -0.90768702140E-01 -0.15903253342E-01  0.12885241097E+00  0.26056350325E-01 0.  0.
         14    1    1    2    0    0  0.11189850070E-01 -0.31323094157E-02 -0.20970862467E-01  0.23975011564E-01  0.00000000000E+00 0.  1.
     999901    1    3    3    0    0 -0.97399708349E-01  0.93901011555E-01  0.36874115810E-01  0.89110257747E+00  0.88000000000E+00 0. -1.
        -11    1    4    4    0    0  0.78058741685E-01 -0.85024223754E-01 -0.21495752417E-01  0.11740789697E+00  0.51100000000E-03 0. -1.
         11    1    4    4    0    0  0.81511165935E-02 -0.57444783858E-02  0.55924990751E-02  0.11444513994E-01  0.51100000000E-03 0.  1.
</event>
<event>
 8    1  0.1097777E+005  0.1043930E+01  0.7957747E-01            NaN
         13   -1    0    0    0    0  0.00000000000E+00  0.00000000000E+00  0.74505805969E-08  0.10566000000E+00  0.10566000000E+00 0. -1.
     999900   -1    0    0    0    0 -0.00000000000E+00 -0.00000000000E+00 -0.74505805969E-08  0.93827000000E+00  0.93827000000E+00 0. -1.
     999902    2    1    2    0    0 -0.47901635195E-02 -0.20213939527E-01 -0.77402815930E-02  0.10217610808E+01  0.10215205555E+01 0.  0.
     999903    2    3    3    0    0  0.64427634247E-01  0.10950019623E+00 -0.14504204583E-01  0.12953767204E+00  0.20698393628E-01 0.  0.
         14    1    1    2    0    0  0.47901635195E-02  0.20213939527E-01  0.77402815930E-02  0.22168919164E-01  0.00000000000E+00 0. -1.
     999901    1    3    3    0    0 -0.69217797767E-01 -0.12971413576E+00  0.67639229898E-02  0.89222340879E+00  0.88000000000E+00 0.  1.
        -11    1    4    4    0    0  0.20788341143E-01  0.54664039840E-01 -0.97563696576E-02  0.59293846637E-01  0.51100000000E-03 0. -1.
         11    1    4    4    0    0  0.43639293104E-01  0.54836156390E-01 -0.47478349252E-02  0.70243825407E-01  0.51100000000E-03 0.  1.
</event>
<event>
 8    1  0.1097777E+005  0.1043930E+01  0.7957747E-01            NaN
         13   -1    0    0    0    0  0.00000000000E+00  0.00000000000E+00  0.74505805969E-08  0.10566000000E+00  0.10566000000E+00 0. -1.
     999900   -1    0    0    0    0 -0.00000000000E+00 -0.00000000000E+00 -0.74505805969E-08  0.93827000000E+00  0.93827000000E+00 0.  1.
     999902    2    1    2    0    0  0.24142305815E-01 -0.12303421871E-02  0.13719594567E-01  0.10161344617E+01  0.10157542283E+01 0.  0.
     999903    2    3    3    0    0 -0.12204067821E+00  0.64596457532E-02 -0.21737616916E-02  0.12390063616E+00  0.20272844900E-01 0.  0.
         14    1    1    2    0    0 -0.24142305815E-01  0.12303421871E-02 -0.13719594567E-01  0.27795538259E-01  0.00000000000E+00 0.  1.
     999901    1    3    3    0    0  0.14618298403E+00 -0.76899879402E-02  0.15893356259E-01  0.89223382558E+00  0.88000000000E+00 0.  1.
        -11    1    4    4    0    0 -0.10073259301E+00  0.23553212438E-03 -0.76711671681E-02  0.10102583183E+00  0.51100000000E-03 0.  1.
         11    1    4    4    0    0 -0.21308085202E-01  0.62241136288E-02  0.54974054764E-02  0.22874804336E-01  0.51100000000E-03 0. -1.
</event>
<event>
 8    1  0.1097777E+005  0.1043930E+01  0.7957747E-01            NaN
         13   -1    0    0    0    0  0.00000000000E+00  0.00000000000E+00  0.74505805969E-08  0.10566000000E+00  0.10566000000E+00 0.  1.
     999900   -1    0    0    0    0 -0.00000000000E+00 -0.00000000000E+00 -0.74505805969E-08  0.93827000000E+00  0.93827000000E+00 0.  1.
     999902    2    1    2    0    0  0.56006040266E-02 -0.15918951314E-01  0.16851350058E-01  0.10200815666E+01  0.10198027529E+01 0.  0.
     999903    2    3    3    0    0 -0.24163764514E-02  0.10463659906E+00 -0.70106916845E-01  0.12757966023E+00  0.20172584814E-01 0.  0.
         14    1    1    2    0    0 -0.56006040266E-02  0.15918951314E-01 -0.16851350058E-01  0.23848433391E-01  0.00000000000E+00 0. -1.
     999901    1    3    3    0    0  0.80169804780E-02 -0.12055555037E+00  0.86958266903E-01  0.89250190638E+00  0.88000000000E+00 0. -1.
        -11    1    4    4    0    0 -0.68753120278E-02  0.15488547383E-01 -0.15292361966E-01  0.22831611223E-01  0.51100000000E-03 0. -1.
         11    1    4    4    0    0  0.44589355765E-02  0.89148051675E-01 -0.54814554879E-01  0.10474804901E+00  0.51100000000E-03 0.  1.
</event>
<event>
 8    1  0.1097777E+005  0.1043930E+01  0.7957747E-01            NaN
         13   -1    0    0    0    0  0.00000000000E+00  0.00000000000E+00  0.74505805969E-08  0.10566000000E+00  0.10566000000E+00 0. -1.
     999900   -1    0    0    0    0 -0.00000000000E+00 -0.00000000000E+00 -0.74505805969E-08  0.93827000000E+00  0.93827000000E+00 0. -1.
     999902    2    1    2    0    0 -0.93135211232E-02 -0.19205679129E-01 -0.10918190415E-01  0.10199548740E+01  0.10196730546E+01 0.  0.
     999903    2    3    3    0    0 -0.17734215347E-01 -0.95948373026E-01 -0.88271544326E-01  0.13319453965E+00  0.20696066621E-01 0.  0.
         14    1    1    2    0    0  0.93135211232E-02  0.19205679129E-01  0.10918190415E-01  0.23975126037E-01  0.00000000000E+00 0. -1.
     999901    1    3    3    0    0  0.84206942241E-02  0.76742693896E-01  0.77353353911E-01  0.88676033432E+00  0.88000000000E+00 0. -1.
        -11    1    4    4    0    0  0.36025338466E-02 -0.26981418560E-01 -0.29095373550E-01  0.39846920591E-01  0.51100000000E-03 0. -1.
         11    1    4    4    0    0 -0.21336749194E-01 -0.68966954466E-01 -0.59176170776E-01  0.93347619055E-01  0.51100000000E-03 0.  1.
</event>
<event>
 8    1  0.1097777E+005  0.1043930E+01  0.7957747E-01            NaN
         13   -1    0    0    0    0  0.00000000000E+00  0.00000000000E+00  0.74505805969E-08  0.10566000000E+00  0.10566000000E+00 0.  1.
     999900   -1    0    0    0    0 -0.00000000000E+00 -0.00000000000E+00 -0.74505805969E-08  0.93827000000E+00  0.93827000000E+00 0. -1.
     999902    2    1    2    0    0 -0.42648962154E-02  0.19737195892E-01 -0.12943296970E-01  0.10199451052E+01  0.10196630534E+01 0.  0.
     999903    2    3    3    0    0 -0.11007578997E+00  0.49535501616E-01 -0.52665386922E-01  0.13221669591E+00  0.11711799151E-01 0.  0.
         14    1    1    2    0    0  0.42648962154E-02 -0.19737195892E-01  0.12943296970E-01  0.23984894785E-01  0.00000000000E+00 0. -1.
     999901    1    3    3    0    0  0.10581089375E+00 -0.29798305725E-01  0.39722089951E-01  0.88772840931E+00  0.88000000000E+00 0.  1.
        -11    1    4    4    0    0 -0.85866710827E-01  0.39323598457E-01 -0.46272669294E-01  0.10517061599E+00  0.51100000000E-03 0. -1.
         11    1    4    4    0    0 -0.24209079142E-01  0.10211903159E-01 -0.63927176279E-02  0.27046079914E-01  0.51100000000E-03 0.  1.
</event>
<event>
 8    1  0.1097777E+005  0.1043930E+01  0.7957747E-01            NaN
         13   -1    0    0    0    0  0.00000000000E+00  0.00000000000E+00  0.74505805969E-08  0.10566000000E+00  0.10566000000E+00 0. -1.
     999900   -1    0    0    0    0 -0.00000000000E+00 -0.00000000000E+00 -0.74505805969E-08  0.93827000000E+00  0.93827000000E+00 0. -1.
     999902    2    1    2    0    0 -0.12955887606E-01 -0.77011671489E-02  0.18269205088E-01  0.10202461056E+01  0.10199711707E+01 0.  0.
     999903    2    3    3    0    0  0.35004572864E-01  0.12239608783E+00  0.11068247684E-01  0.12936039166E+00  0.20136593242E-01 0.  0.
         14    1    1    2    0    0  0.12955887606E-01  0.77011671489E-02 -0.18269205088E-01  0.23683894394E-01  0.00000000000E+00 0.  1.
     999901    1    3    3    0    0 -0.47960460469E-01 -0.13009725498E+00  0.72009574037E-02  0.89088571394E+00  0.88000000000E+00 0.  1.
        -11    1    4    4    0    0  0.51791519718E-02  0.53595853198E-01  0.28588304686E-02  0.53923771454E-01  0.51100000000E-03 0.  1.
         11    1    4    4    0    0  0.29825420892E-01  0.68800234630E-01  0.82094172156E-02  0.75436620209E-01  0.51100000000E-03 0. -1.
</event>
<event>
 8    1  0.1097777E+005  0.1043930E+01  0.7957747E-01            NaN
         13   -1    0    0    0    0  0.00000000000E+00  0.00000000000E+00  0.74505805969E-08  0.10566000000E+00  0.10566000000E+00 0. -1.
     999900   -1    0    0    0    0 -0.00000000000E+00 -0.00000000000E+00 -0.74505805969E-08  0.93827000000E+00  0.93827000000E+00 0. -1.
     999902    2    1    2    0    0 -0.37986859020E-02  0.21390461285E-01 -0.12042679955E-01  0.10190903545E+01  0.10187875846E+01 0.  0.
     999903    2    3    3    0    0 -0.11397526418E+00  0.14708704995E-01 -0.58301500730E-01  0.13098934516E+00  0.23503972247E-01 0.  0.
         14    1    1    2    0    0  0.37986859020E-02 -0.21390461285E-01  0.12042679955E-01  0.24839645510E-01  0.00000000000E+00 0. -1.
     999901    1    3    3    0    0  0.11017657828E+00  0.66817562902E-02  0.46258820775E-01  0.88810100933E+00  0.88000000000E+00 0.  1.
        -11    1    4    4    0    0 -0.53445838121E-01 -0.32373446947E-03 -0.37302462172E-01  0.65178963030E-01  0.51100000000E-03 0.  1.
         11    1    4    4    0    0 -0.60529426058E-01  0.15032439464E-01 -0.20999038558E-01  0.65810382133E-01  0.51100000000E-03 0. -1.
</event>
<event>
 8    1  0.1097777E+005  0.1043930E+01  0.7957747E-01            NaN
         13   -1    0    0    0    0  0.00000000000E+00  0.00000000000E+00  0.74505805969E-08  0.10566000000E+00  0.10566000000E+00 0. -1.
     999900   -1    0    0    0    0 -0.00000000000E+00 -0.00000000000E+00 -0.74505805969E-08  0.93827000000E+00  0.93827000000E+00 0. -1.
     999902    2    1    2    0    0 -0.54943662597E-02  0.20510318504E-02 -0.22869585448E-01  0.10203204102E+01  0.10200472179E+01 0.  0.
     999903    2    3    3    0    0 -0.11224432248E-01  0.11892483297E+00  0.46806426554E-01  0.12984465775E+00  0.19992243550E-01 0.  0.
         14    1    1    2    0    0  0.54943662597E-02 -0.20510318504E-02  0.22869585448E-01  0.23609589806E-01  0.00000000000E+00 0. -1.
     999901    1    3    3    0    0  0.57300659885E-02 -0.11687380112E+00 -0.69676012001E-01  0.89047575245E+00  0.88000000000E+00 0. -1.
        -11    1    4    4    0    0 -0.11190638211E-01  0.54455843350E-01  0.13205363409E-01  0.57142908591E-01  0.51100000000E-03 0.  1.
         11    1    4    4    0    0 -0.33794036779E-04  0.64468989623E-01  0.33601063145E-01  0.72701749157E-01  0.51100000000E-03 0. -1.
</event>
<event>
 8    1  0.1097777E+005  0.1043930E+01  0.7957747E-01            NaN
         13   -1    0    0    0    0  0.00000000000E+00  0.00000000000E+00  0.74505805969E-08  0.10566000000E+00  0.10566000000E+00 0.  1.
     999900   -1    0    0    0    0 -0.00000000000E+00 -0.00000000000E+00 -0.74505805969E-08  0.93827000000E+00  0.93827000000E+00 0. -1.
     999902    2    1    2    0    0 -0.88624237372E-02  0.20472284381E-01  0.87249360570E-02  0.10199762635E+01  0.10196949527E+01 0.  0.
     999903    2    3    3    0    0  0.35925027492E-02  0.11209652336E+00 -0.66238248323E-01  0.13196184619E+00  0.21163333464E-01 0.  0.
         14    1    1    2    0    0  0.88624237372E-02 -0.20472284381E-01 -0.87249360570E-02  0.23953736483E-01  0.00000000000E+00 0.  1.
     999901    1    3    3    0    0 -0.12454926486E-01 -0.91624238983E-01  0.74963184380E-01  0.88801441732E+00  0.88000000000E+00 0.  1.
        -11    1    4    4    0    0  0.54935469998E-02  0.84366478356E-01 -0.59418320714E-01  0.10333769731E+00  0.51100000000E-03 0. -1.
         11    1    4    4    0    0 -0.19010442506E-02  0.27730045009E-01 -0.68199276095E-02  0.28624148879E-01  0.51100000000E-03 0.  1.
</event>
<event>
 8    1  0.1097777E+005  0.1043930E+01  0.7957747E-01            NaN
         13   -1    0    0    0    0  0.00000000000E+00  0.00000000000E+00  0.74505805969E-08  0.10566000000E+00  0.10566000000E+00 0. -1.
     999900   -1    0    0    0    0 -0.00000000000E+00 -0.00000000000E+00 -0.74505805969E-08  0.93827000000E+00  0.93827000000E+00 0. -1.
     999902    2    1    2    0    0 -0.30023885132E-02  0.23269201037E-01  0.43821171126E-02  0.10200621764E+01  0.10197829037E+01 0.  0.
     999903    2    3    3    0    0  0.95166333928E-01  0.36705144798E-02 -0.85904881954E-01  0.12979651447E+00  0.19934458509E-01 0.  0.
         14    1    1    2    0    0  0.30023885132E-02 -0.23269201037E-01 -0.43821171126E-02  0.23867823614E-01  0.00000000000E+00 0. -1.
     999901    1    3    3    0    0 -0.98168722441E-01  0.19598686557E-01  0.90286999067E-01  0.89026566191E+00  0.88000000000E+00 0.  1.
        -11    1    4    4    0    0  0.49721720209E-01  0.10867008797E-01 -0.50892290110E-01  0.71976577123E-01  0.51100000000E-03 0.  1.
         11    1    4    4    0    0  0.45444613719E-01 -0.71964943172E-02 -0.35012591844E-01  0.57819937350E-01  0.51100000000E-03 0. -1.
</event>
<event>
 8    1  0.1097777E+005  0.1043930E+01  0.7957747E-01            NaN
         13   -1    0    0    0    0  0.00000000000E+00  0.00000000000E+00  0.74505805969E-08  0.10566000000E+00  0.10566000000E+00 0.  1.
     999900   -1    0    0    0    0 -0.00000000000E+00 -0.00000000000E+00 -0.74505805969E-08  0.93827000000E+00  0.93827000000E+00 0. -1.
     999902    2    1    2    0    0  0.23349662112E-01 -0.27603897916E-02  0.29322471729E-02  0.10202356010E+01  0.10199604193E+01 0.  0.
     999903    2    3    3    0    0  0.84373524379E-01 -0.65440892717E-01 -0.75227826557E-01  0.13245085546E+00  0.21968185352E-01 0.  0.
         14    1    1    2    0    0 -0.23349662112E-01  0.27603897916E-02 -0.29322471729E-02  0.23694399043E-01  0.00000000000E+00 0. -1.
     999901    1    3    3    0    0 -0.61023862267E-01  0.62680502926E-01  0.78160073730E-01  0.88778474550E+00  0.88000000000E+00 0.  1.
        -11    1    4    4    0    0  0.83075279364E-01 -0.66722404180E-01 -0.75423523349E-01  0.13054635290E+00  0.51100000000E-03 0. -1.
         11    1    4    4    0    0  0.12982450146E-02  0.12815114632E-02  0.19569679266E-03  0.19045025552E-02  0.51100000000E-03 0.  1.
</event>
<event>
 8    1  0.1097777E+005  0.1043930E+01  0.7957747E-01            NaN
         13   -1    0    0    0    0  0.00000000000E+00  0.00000000000E+00  0.74505805969E-08  0.10566000000E+00  0.10566000000E+00 0. -1.
     999900   -1    0    0    0    0 -0.00000000000E+00 -0.00000000000E+00 -0.74505805969E-08  0.93827000000E+00  0.93827000000E+00 0.  1.
     999902    2    1    2    0    0  0.93755769575E-03  0.22714547879E-01 -0.62391861017E-02  0.10203554980E+01  0.10200831266E+01 0.  0.
     999903    2    3    3    0    0 -0.12768140107E+00  0.16773523362E-02 -0.19429464887E-01  0.13065926695E+00  0.19722734217E-01 0.  0.
         14    1    1    2    0    0 -0.93755769575E-03 -0.22714547879E-01  0.62391861017E-02  0.23574501967E-01  0.00000000000E+00 0.  1.
     999901    1    3    3    0    0  0.12861895876E+00  0.21037195542E-01  0.13190278786E-01  0.88969623108E+00  0.88000000000E+00 0.  1.
        -11    1    4    4    0    0 -0.37239886785E-01 -0.43353654058E-03  0.32644570668E-02  0.37388700467E-01  0.51100000000E-03 0.  1.
         11    1    4    4    0    0 -0.90441514281E-01  0.21108888768E-02 -0.22693921954E-01  0.93270566483E-01  0.51100000000E-03 0. -1.
</event>
<event>
 8    1  0.1097777E+005  0.1043930E+01  0.7957747E-01            NaN
         13   -1    0    0    0    0  0.00000000000E+00  0.00000000000E+00  0.74505805969E-08  0.10566000000E+00  0.10566000000E+00 0. -1.
     999900   -1    0    0    0    0 -0.00000000000E+00 -0.00000000000E+00 -0.74505805969E-08  0.93827000000E+00  0.93827000000E+00 0.  1.
     999902    2    1    2    0    0  0.72710395073E-02 -0.25281756313E-01  0.35054674435E-02  0.10173909058E+01  0.10170447049E+01 0.  0.
     999903    2    3    3    0    0 -0.71010688849E-01  0.10125700296E+00 -0.47336619496E-02  0.12486193159E+00  0.16510476208E-01 0.  0.
         14    1    1    2    0    0 -0.72710395073E-02  0.25281756313E-01 -0.35054674435E-02  0.26539094178E-01  0.00000000000E+00 0. -1.
     999901    1    3    3    0    0  0.78281728356E-01 -0.12653875928E+00  0.82391293931E-02  0.89252897423E+00  0.88000000000E+00 0. -1.
        -11    1    4    4    0    0 -0.33797070482E-01  0.46808816883E-01 -0.10401204125E-01  0.58666459578E-01  0.51100000000E-03 0.  1.
         11    1    4    4    0    0 -0.37213618366E-01  0.54448186080E-01  0.56675421752E-02  0.66195472010E-01  0.51100000000E-03 0. -1.
</event>
<event>
 8    1  0.1097777E+005  0.1043930E+01  0.7957747E-01            NaN
         13   -1    0    0    0    0  0.00000000000E+00  0.00000000000E+00  0.74505805969E-08  0.10566000000E+00  0.10566000000E+00 0. -1.
     999900   -1    0    0    0    0 -0.00000000000E+00 -0.00000000000E+00 -0.74505805969E-08  0.93827000000E+00  0.93827000000E+00 0.  1.
     999902    2    1    2    0    0  0.22674163484E-01 -0.95944864403E-03 -0.65609297986E-02  0.10203061978E+01  0.10200326726E+01 0.  0.
     999903    2    3    3    0    0 -0.44394692337E-01 -0.10935178810E+00 -0.50794449175E-01  0.13002324562E+00  0.19931534473E-01 0.  0.
         14    1    1    2    0    0 -0.22674163484E-01  0.95944864403E-03  0.65609297986E-02  0.23623802218E-01  0.00000000000E+00 0. -1.
     999901    1    3    3    0    0  0.67068855821E-01  0.10839233946E+00  0.44233519376E-01  0.89028295216E+00  0.88000000000E+00 0. -1.
        -11    1    4    4    0    0 -0.25532122822E-01 -0.42745840849E-01 -0.14514787226E-01  0.51865560586E-01  0.51100000000E-03 0.  1.
         11    1    4    4    0    0 -0.18862569515E-01 -0.66605947250E-01 -0.36279661949E-01  0.78157685034E-01  0.51100000000E-03 0. -1.
</event>
<event>
 8    1  0.1097777E+005  0.1043930E+01  0.7957747E-01            NaN
         13   -1    0    0    0    0  0.00000000000E+00  0.00000000000E+00  0.74505805969E-08  0.10566000000E+00  0.10566000000E+00 0. -1.
     999900   -1    0    0    0    0 -0.00000000000E+00 -0.00000000000E+00 -0.74505805969E-08  0.93827000000E+00  0.93827000000E+00 0. -1.
     999902    2    1    2    0    0  0.64174349979E-02  0.18711238971E-01  0.13862922667E-01  0.10197747819E+01  0.10194886617E+01 0.  0.
     999903    2    3    3    0    0  0.70738613128E-01  0.10951146818E+00 -0.11744273621E-01  0.13239796000E+00  0.19864007579E-01 0.  0.
         14    1    1    2    0    0 -0.64174349979E-02 -0.18711238971E-01 -0.13862922667E-01  0.24155218084E-01  0.00000000000E+00 0.  1.
     999901    1    3    3    0    0 -0.64321178130E-01 -0.90800229212E-01  0.25607196288E-01  0.88737682192E+00  0.88000000000E+00 0.  1.
        -11    1    4    4    0    0  0.54333786094E-01  0.84036652757E-01 -0.49770190683E-03  0.10007411327E+00  0.51100000000E-03 0.  1.
         11    1    4    4    0    0  0.16404827034E-01  0.25474815426E-01 -0.11246571714E-01  0.32323846729E-01  0.51100000000E-03 0. -1.
</event>
<event>
 8    1  0.1097777E+005  0.1043930E+01  0.7957747E-01            NaN
         13   -1    0    0    0    0  0.00000000000E+00  0.00000000000E+00  0.74505805969E-08  0.10566000000E+00  0.10566000000E+00 0.  1.
     999900   -1    0    0    0    0 -0.00000000000E+00 -0.00000000000E+00 -0.74505805969E-08  0.93827000000E+00  0.93827000000E+00 0. -1.
     999902    2    1    2    0    0  0.29026871020E-02 -0.21100747729E-01  0.11158074839E-01  0.10198848387E+01  0.10196013508E+01 0.  0.
     999903    2    3    3    0    0  0.11626903569E+00 -0.26231667428E-02 -0.54350701045E-01  0.13000577406E+00  0.20545873591E-01 0.  0.
         14    1    1    2    0    0 -0.29026871020E-02  0.21100747729E-01 -0.11158074839E-01  0.24045161286E-01  0.00000000000E+00 0.  1.
     999901    1    3    3    0    0 -0.11336634859E+00 -0.18477580987E-01  0.65508775884E-01  0.88987906465E+00  0.88000000000E+00 0.  1.
        -11    1    4    4    0    0  0.36170032168E-01 -0.90549955295E-02 -0.12016278161E-01  0.39178007005E-01  0.51100000000E-03 0. -1.
         11    1    4    4    0    0  0.80099003520E-01  0.64318287867E-02 -0.42334422884E-01  0.90827767056E-01  0.51100000000E-03 0.  1.
</event>
<event>
 8    1  0.1097777E+005  0.1043930E+01  0.7957747E-01            NaN
         13   -1    0    0    0    0  0.00000000000E+00  0.00000000000E+00  0.74505805969E-08  0.10566000000E+00  0.10566000000E+00 0.  1.
     999900   -1    0    0    0    0 -0.00000000000E+00 -0.00000000000E+00 -0.74505805969E-08  0.93827000000E+00  0.93827000000E+00 0.  1.
     999902    2    1    2    0    0 -0.11265319268E-01 -0.21128838256E-01  0.14206064092E-02  0.10199434757E+01  0.10196613851E+01 0.  0.
     999903    2    3    3    0    0  0.11735665355E+00 -0.21690111007E-01 -0.45765529397E-01  0.12934229768E+00  0.19796495693E-01 0.  0.
         14    1    1    2    0    0  0.11265319268E-01  0.21128838256E-01 -0.14206064092E-02  0.23986524276E-01  0.00000000000E+00 0. -1.
     999901    1    3    3    0    0 -0.12862197281E+00  0.56127275079E-03  0.47186135806E-01  0.89060117804E+00  0.88000000000E+00 0.  1.
        -11    1    4    4    0    0  0.80937790043E-01 -0.58129407480E-02 -0.28309044525E-01  0.85944047264E-01  0.51100000000E-03 0.  1.
         11    1    4    4    0    0  0.36418863502E-01 -0.15877170259E-01 -0.17456484872E-01  0.43398250418E-01  0.51100000000E-03 0. -1.
</event>
<event>
 8    1  0.1097777E+005  0.1043930E+01  0.7957747E-01            NaN
         13   -1    0    0    0    0  0.00000000000E+00  0.00000000000E+00  0.74505805969E-08  0.10566000000E+00  0.10566000000E+00 0.  1.
     999900   -1    0    0    0    0 -0.00000000000E+00 -0.00000000000E+00 -0.74505805969E-08  0.93827000000E+00  0.93827000000E+00 0.  1.
     999902    2    1    2    0    0  0.17163146995E-01  0.16411230899E-01 -0.36240795474E-02  0.10199084250E+01  0.10196254995E+01 0.  0.
     999903    2    3    3    0    0  0.32611059834E-01 -0.54044542995E-02  0.12430973110E+00  0.13025589615E+00  0.20518281714E-01 0.  0.
         14    1    1    2    0    0 -0.17163146995E-01 -0.16411230899E-01  0.36240795474E-02  0.24021575031E-01  0.00000000000E+00 0.  1.
     999901    1    3    3    0    0 -0.15447912839E-01  0.21815685199E-01 -0.12793381065E+00  0.88965252882E+00  0.88000000000E+00 0.  1.
        -11    1    4    4    0    0  0.28707661994E-01 -0.35363462982E-02  0.69598294766E-01  0.75371210403E-01  0.51100000000E-03 0.  1.
         11    1    4    4    0    0  0.39033978405E-02 -0.18681080013E-02  0.54711436337E-01  0.54884685745E-01  0.51100000000E-03 0. -1.
</event>
<event>
 8    1  0.1097777E+005  0.1043930E+01  0.7957747E-01            NaN
         13   -1    0    0    0    0  0.00000000000E+00  0.00000000000E+00  0.74505805969E-08  0.10566000000E+00  0.10566000000E+00 0. -1.
     999900   -1    0    0    0    0 -0.00000000000E+00 -0.00000000000E+00 -0.74505805969E-08  0.93827000000E+00  0.93827000000E+00 0. -1.
     999902    2    1    2    0    0 -0.81655711677E-02 -0.17479663929E-01  0.76329446293E-02  0.10231820592E+01  0.10229716757E+01 0.  0.
     999903    2    3    3    0    0 -0.68691481435E-01  0.10663944576E+00  0.31093716384E-01  0.13210442677E+00  0.19856217174E-01 0.  0.
         14    1    1    2    0    0  0.81655711677E-02  0.17479663929E-01 -0.76329446293E-02  0.20747940796E-01  0.00000000000E+00 0.  1.
     999901    1    3    3    0    0  0.60525910268E-01 -0.12411910969E+00 -0.23460771755E-01  0.89107763243E+00  0.88000000000E+00 0. -1.
        -11    1    4    4    0    0 -0.49087810908E-01  0.76533460848E-01  0.31339946616E-01  0.96173994323E-01  0.51100000000E-03 0.  1.
         11    1    4    4    0    0 -0.19603670527E-01  0.30105984914E-01 -0.24623023214E-03  0.35930432451E-01  0.51100000000E-03 0. -1.
</event>
<event>
 8    1  0.1097777E+005  0.1043930E+01  0.7957747E-01            NaN
         13   -1    0    0    0    0  0.00000000000E+00  0.00000000000E+00  0.74505805969E-08  0.10566000000E+00  0.10566000000E+00 0.  1.
     999900   -1    0    0    0    0 -0.00000000000E+00 -0.00000000000E+00 -0.74505805969E-08  0.93827000000E+00  0.93827000000E+00 0. -1.
     999902    2    1    2    0    0 -0.93561249826E-02  0.15287352801E-01  0.14582901520E-01  0.10208236968E+01  0.10205621582E+01 0.  0.
     999903    2    3    3    0    0 -0.70412879021E-01  0.10601032673E+00 -0.32343827850E-01  0.13281429194E+00  0.19933640822E-01 0.  0.
         14    1    1    2    0    0  0.93561249826E-02 -0.15287352801E-01 -0.14582901520E-01  0.23106303190E-01  0.00000000000E+00 0. -1.
     999901    1    3    3    0    0  0.61056754039E-01 -0.90722973933E-01  0.46926729370E-01  0.88800940487E+00  0.88000000000E+00 0.  1.
        -11    1    4    4    0    0 -0.24336559418E-01  0.37644939456E-01 -0.17087534755E-02  0.44861905336E-01  0.51100000000E-03 0.  1.
         11    1    4    4    0    0 -0.46076319603E-01  0.68365387278E-01 -0.30635074374E-01  0.87952386601E-01  0.51100000000E-03 0. -1.
</event>
<event>
 8    1  0.1097777E+005  0.1043930E+01  0.7957747E-01            NaN
         13   -1    0    0    0    0  0.00000000000E+00  0.00000000000E+00  0.74505805969E-08  0.10566000000E+00  0.10566000000E+00 0. -1.
     999900   -1    0    0    0    0 -0.00000000000E+00 -0.00000000000E+00 -0.74505805969E-08  0.93827000000E+00  0.93827000000E+00 0. -1.
     999902    2    1    2    0    0  0.66361408411E-03 -0.21396587028E-01 -0.91083673227E-02  0.10206659360E+01  0.10204007723E+01 0.  0.
     999903    2    3    3    0    0  0.32900538056E-02 -0.12367633417E+00  0.44904350302E-01  0.13309316795E+00  0.19766906416E-01 0.  0.
         14    1    1    2    0    0 -0.66361408411E-03  0.21396587028E-01  0.91083673227E-02  0.23264064035E-01  0.00000000000E+00 0.  1.
     999901    1    3    3    0    0 -0.26264397214E-02  0.10227974715E+00 -0.54012717625E-01  0.88757276802E+00  0.88000000000E+00 0. -1.
        -11    1    4    4    0    0 -0.71850023725E-02 -0.43590825108E-01  0.20585144522E-01  0.48742113092E-01  0.51100000000E-03 0. -1.
         11    1    4    4    0    0  0.10475056178E-01 -0.80085509067E-01  0.24319205780E-01  0.84351054855E-01  0.51100000000E-03 0.  1.
</event>
<event>
 8    1  0.1097777E+005  0.1043930E+01  0.7957747E-01            NaN
         13   -1    0    0    0    0  0.00000000000E+00  0.00000000000E+00  0.74505805969E-08  0.10566000000E+00  0.10566000000E+00 0. -1.
     999900   -1    0    0    0    0 -0.00000000000E+00 -0.00000000000E+00 -0.74505805969E-08  0.93827000000E+00  0.93827000000E+00 0.  1.
     999902    2    1    2    0    0  0.86420326464E-02 -0.20816356458E-02 -0.21676273512E-01  0.10205018381E+01  0.10202328768E+01 0.  0.
     999903    2    3    3    0    0  0.69247672065E-01  0.35613388761E-01  0.10113182609E+00  0.12911203130E+00  0.19460648283E-01 0.  0.
         14    1    1    2    0    0 -0.86420326464E-02  0.20816356458E-02  0.21676273512E-01  0.23428161869E-01  0.00000000000E+00 0. -1.
     999901    1    3    3    0    0 -0.60605639419E-01 -0.37695024407E-01 -0.12280809961E+00  0.89138980683E+00  0.88000000000E+00 0.  1.
        -11    1    4    4    0    0  0.51389075278E-01  0.20432648400E-01  0.81715705521E-01  0.98671413430E-01  0.51100000000E-03 0.  1.
         11    1    4    4    0    0  0.17858596788E-01  0.15180740361E-01  0.19416120572E-01  0.30440617869E-01  0.51100000000E-03 0. -1.
</event>
<event>
 8    1  0.1097777E+005  0.1043930E+01  0.7957747E-01            NaN
         13   -1    0    0    0    0  0.00000000000E+00  0.00000000000E+00  0.74505805969E-08  0.10566000000E+00  0.10566000000E+00 0.  1.
     999900   -1    0    0    0    0 -0.00000000000E+00 -0.00000000000E+00 -0.74505805969E-08  0.93827000000E+00  0.93827000000E+00 0. -1.
     999902    2    1    2    0    0 -0.14325069582E-01 -0.19764138404E-01 -0.69327522293E-02  0.10185549761E+01  0.10182388460E+01 0.  0.
     999903    2    3    3    0    0 -0.89779111495E-01  0.14544325102E-01 -0.91624070878E-01  0.13061184583E+00  0.19815591164E-01 0.  0.
         14    1    1    2    0    0  0.14325069582E-01  0.19764138404E-01  0.69327522293E-02  0.25375023918E-01  0.00000000000E+00 0. -1.
     999901    1    3    3    0    0  0.75454041913E-01 -0.34308463506E-01  0.84691318649E-01  0.88794313025E+00  0.88000000000E+00 0.  1.
        -11    1    4    4    0    0 -0.74591737181E-01  0.16761446221E-01 -0.67350202785E-01  0.10188809681E+00  0.51100000000E-03 0. -1.
         11    1    4    4    0    0 -0.15187374314E-01 -0.22171211187E-02 -0.24273868093E-01  0.28723749021E-01  0.51100000000E-03 0.  1.
</event>
<event>
 8    1  0.1097777E+005  0.1043930E+01  0.7957747E-01            NaN
         13   -1    0    0    0    0  0.00000000000E+00  0.00000000000E+00  0.74505805969E-08  0.10566000000E+00  0.10566000000E+00 0. -1.
     999900   -1    0    0    0    0 -0.00000000000E+00 -0.00000000000E+00 -0.74505805969E-08  0.93827000000E+00  0.93827000000E+00 0.  1.
     999902    2    1    2    0    0 -0.21336249688E-01  0.89311912956E-02 -0.15262633044E-02  0.10207495943E+01  0.10204863561E+01 0.  0.
     999903    2    3    3    0    0 -0.11252228422E+00  0.68536595362E-01 -0.10315189230E-01  0.13398866693E+00  0.22091409797E-01 0.  0.
         14    1    1    2    0    0  0.21336249688E-01 -0.89311912956E-02  0.15262633044E-02  0.23180405700E-01  0.00000000000E+00 0. -1.
     999901    1    3    3    0    0  0.91186034535E-01 -0.59605404066E-01  0.87889259252E-02  0.88676092737E+00  0.88000000000E+00 0. -1.
        -11    1    4    4    0    0 -0.65836186846E-01  0.52136866195E-01 -0.37004524851E-02  0.84063135705E-01  0.51100000000E-03 0.  1.
         11    1    4    4    0    0 -0.46686097377E-01  0.16399729167E-01 -0.66147367444E-02  0.49925531227E-01  0.51100000000E-03 0. -1.
</event>
<event>
 8    1  0.1097777E+005  0.1043930E+01  0.7957747E-01            NaN
         13   -1    0    0    0    0  0.00000000000E+00  0.00000000000E+00  0.74505805969E-08  0.10566000000E+00  0.10566000000E+00 0.  1.
     999900   -1    0    0    0    0 -0.00000000000E+00 -0.00000000000E+00 -0.74505805969E-08  0.93827000000E+00  0.93827000000E+00 0. -1.
     999902    2    1    2    0    0  0.17514323220E-01 -0.10036628390E-01 -0.13597441104E-01  0.10195912278E+01  0.10193006897E+01 0.  0.
     999903    2    3    3    0    0 -0.65248249197E-01  0.69614443128E-01 -0.84178518009E-01  0.12932406285E+00  0.23134079231E-01 0.  0.
         14    1    1    2    0    0 -0.17514323220E-01  0.10036628390E-01  0.13597441104E-01  0.24338772193E-01  0.00000000000E+00 0. -1.
     999901    1    3    3    0    0  0.82762572418E-01 -0.79651071518E-01  0.70581076905E-01  0.89026716496E+00  0.88000000000E+00 0.  1.
        -11    1    4    4    0    0 -0.25068238713E-01  0.38474177398E-01 -0.29082097942E-01  0.54357230066E-01  0.51100000000E-03 0. -1.
         11    1    4    4    0    0 -0.40180010484E-01  0.31140265730E-01 -0.55096420067E-01  0.74966832782E-01  0.51100000000E-03 0.  1.
</event>
<event>
 8    1  0.1097777E+005  0.1043930E+01  0.7957747E-01            NaN
         13   -1    0    0    0    0  0.00000000000E+00  0.00000000000E+00  0.74505805969E-08  0.10566000000E+00  0.10566000000E+00 0.  1.
     999900   -1    0    0    0    0 -0.00000000000E+00 -0.00000000000E+00 -0.74505805969E-08  0.93827000000E+00  0.93827000000E+00 0.  1.
     999902    2    1    2    0    0  0.19595454010E-01  0.13045733422E-01 -0.41408472244E-02  0.10200277073E+01  0.10197476179E+01 0.  0.
     999903    2    3    3    0    0 -0.33872466391E-01 -0.24450450124E-01  0.12070669608E+00  0.12881971178E+00  0.16710570720E-01 0.  0.
         14    1    1    2    0    0 -0.19595454010E-01 -0.13045733422E-01  0.41408472244E-02  0.23902292654E-01  0.00000000000E+00 0. -1.
     999901    1    3    3    0    0  0.53467920401E-01  0.37496183546E-01 -0.12484754330E+00  0.89120799557E+00  0.88000000000E+00 0.  1.
        -11    1    4    4    0    0 -0.78918799410E-02 -0.88896481374E-02  0.57661059742E-01  0.58875857060E-01  0.51100000000E-03 0. -1.
         11    1    4    4    0    0 -0.25980586450E-01 -0.15560801986E-01  0.63045636338E-01  0.69943854719E-01  0.51100000000E-03 0.  1.
</event>
<event>
 8    1  0.1097777E+005  0.1043930E+01  0.7957747E-01            NaN
         13   -1    0    0    0    0  0.00000000000E+00  0.00000000000E+00  0.74505805969E-08  0.10566000000E+00  0.10566000000E+00 0. -1.
     999900   -1    0    0    0    0 -0.00000000000E+00 -0.00000000000E+00 -0.74505805969E-08  0.93827000000E+00  0.93827000000E+00 0. -1.
     999902    2    1    2    0    0 -0.21048031072E-01  0.14498110587E-01  0.61864029330E-02  0.10176338709E+01  0.10172940621E+01 0.  0.
     999903    2    3    3    0    0  0.81705385508E-01  0.83579408367E-01  0.48275018019E-01  0.12796992211E+00  0.19609591411E-01 0.  0.
         14    1    1    2    0    0  0.21048031072E-01 -0.14498110587E-01 -0.61864029330E-02  0.26296129066E-01  0.00000000000E+00 0.  1.
     999901    1    3    3    0    0 -0.10275341658E+00 -0.69081297780E-01 -0.42088615086E-01  0.88966394883E+00  0.88000000000E+00 0.  1.
        -11    1    4    4    0    0  0.55630760425E-01  0.47347802052E-01  0.37177175078E-01  0.81969502453E-01  0.51100000000E-03 0. -1.
         11    1    4    4    0    0  0.26074625083E-01  0.36231606315E-01  0.11097842941E-01  0.46000419654E-01  0.51100000000E-03 0.  1.
</event>
<event>
 8    1  0.1097777E+005  0.1043930E+01  0.7957747E-01            NaN
         13   -1    0    0    0    0  0.00000000000E+00  0.00000000000E+00  0.74505805969E-08  0.10566000000E+00  0.10566000000E+00 0. -1.
     999900   -1    0    0    0    0 -0.00000000000E+00 -0.00000000000E+00 -0.74505805969E-08  0.93827000000E+00  0.93827000000E+00 0.  1.
     999902    2    1    2    0    0  0.20744546135E-03  0.99374617959E-03 -0.11902539078E-01  0.10319842476E+01  0.10319151061E+01 0.  0.
     999903    2    3    3    0    0 -0.12277640131E+00  0.39715531095E-01 -0.54758103027E-01  0.14155682066E+00  0.19710796510E-01 0.  0.
         14    1    1    2    0    0 -0.20744546135E-03 -0.99374617959E-03  0.11902539078E-01  0.11945752450E-01  0.00000000000E+00 0. -1.
     999901    1    3    3    0    0  0.12298384677E+00 -0.38721784915E-01  0.42855563949E-01  0.89042742689E+00  0.88000000000E+00 0. -1.
        -11    1    4    4    0    0 -0.52075835782E-01  0.69228150924E-02 -0.24216517703E-01  0.57849104503E-01  0.51100000000E-03 0.  1.
         11    1    4    4    0    0 -0.70700565532E-01  0.32792716002E-01 -0.30541585324E-01  0.83707716158E-01  0.51100000000E-03 0. -1.
</event>
<event>
 8    1  0.1097777E+005  0.1043930E+01  0.7957747E-01            NaN
         13   -1    0    0    0    0  0.00000000000E+00  0.00000000000E+00  0.74505805969E-08  0.10566000000E+00  0.10566000000E+00 0. -1.
     999900   -1    0    0    0    0 -0.00000000000E+00 -0.00000000000E+00 -0.74505805969E-08  0.93827000000E+00  0.93827000000E+00 0.  1.
     999902    2    1    2    0    0 -0.25923921910E-02  0.19689636762E-01 -0.13435349706E-01  0.10199527000E+01  0.10196708289E+01 0.  0.
     999903    2    3    3    0    0 -0.10071356235E+00  0.57581066985E-01 -0.61069500251E-01  0.13240972256E+00  0.18548580865E-01 0.  0.
         14    1    1    2    0    0  0.25923921910E-02 -0.19689636762E-01  0.13435349706E-01  0.23977299990E-01  0.00000000000E+00 0.  1.
     999901    1    3    3    0    0  0.98121170158E-01 -0.37891430223E-01  0.47634150545E-01  0.88754297745E+00  0.88000000000E+00 0. -1.
        -11    1    4    4    0    0 -0.39685353908E-01  0.32080445730E-01 -0.21858333277E-01  0.55516935864E-01  0.51100000000E-03 0. -1.
         11    1    4    4    0    0 -0.61028208441E-01  0.25500621255E-01 -0.39211166974E-01  0.76892786699E-01  0.51100000000E-03 0.  1.
</event>
<event>
 8    1  0.1097777E+005  0.1043930E+01  0.7957747E-01            NaN
         13   -1    0    0    0    0  0.00000000000E+00  0.00000000000E+00  0.74505805969E-08  0.10566000000E+00  0.10566000000E+00 0. -1.
     999900   -1    0    0    0    0 -0.00000000000E+00 -0.00000000000E+00 -0.74505805969E-08  0.93827000000E+00  0.93827000000E+00 0. -1.
     999902    2    1    2    0    0  0.18835429314E-01 -0.13356745540E-01 -0.51305365746E-02  0.10202762803E+01  0.10200020538E+01 0.  0.
     999903    2    3    3    0    0  0.30553940184E-01  0.80070459034E-01  0.95123046613E-01  0.12959297691E+00  0.20028080174E-01 0.  0.
         14    1    1    2    0    0 -0.18835429314E-01  0.13356745540E-01  0.51305365746E-02  0.23653719673E-01  0.00000000000E+00 0.  1.
     999901    1    3    3    0    0 -0.11718510871E-01 -0.93427204574E-01 -0.10025358319E+00  0.89068330342E+00  0.88000000000E+00 0.  1.
        -11    1    4    4    0    0  0.31638083668E-01  0.62545922494E-01  0.71195157800E-01  0.99909821209E-01  0.51100000000E-03 0.  1.
         11    1    4    4    0    0 -0.10841434841E-02  0.17524536540E-01  0.23927888813E-01  0.29683155697E-01  0.51100000000E-03 0. -1.
</event>
<event>
 8    1  0.1097777E+005  0.1043930E+01  0.7957747E-01            NaN
         13   -1    0    0    0    0  0.00000000000E+00  0.00000000000E+00  0.74505805969E-08  0.10566000000E+00  0.10566000000E+00 0. -1.
     999900   -1    0    0    0    0 -0.00000000000E+00 -0.00000000000E+00 -0.74505805969E-08  0.93827000000E+00  0.93827000000E+00 0.  1.
     999902    2    1    2    0    0  0.14371763657E-02 -0.62986098040E-02  0.23087749344E-01  0.10199553857E+01  0.10196735785E+01 0.  0.
     999903    2    3    3    0    0 -0.75465795598E-01 -0.96142220590E-01  0.45116977957E-01  0.13177115457E+00  0.19740379750E-01 0.  0.
         14    1    1    2    0    0 -0.14371763657E-02  0.62986098040E-02 -0.23087749344E-01  0.23974614306E-01  0.00000000000E+00 0.  1.
     999901    1    3    3    0    0  0.76902971964E-01  0.89843610786E-01 -0.22029228613E-01  0.88818423112E+00  0.88000000000E+00 0. -1.
        -11    1    4    4    0    0 -0.13631574332E-01 -0.27933819832E-01  0.56194968041E-02  0.31590472843E-01  0.51100000000E-03 0. -1.
         11    1    4    4    0    0 -0.61834221266E-01 -0.68208400759E-01  0.39497481153E-01  0.10018068173E+00  0.51100000000E-03 0.  1.
</event>
<event>
 8    1  0.1097777E+005  0.1043930E+01  0.7957747E-01            NaN
         13   -1    0    0    0    0  0.00000000000E+00  0.00000000000E+00  0.74505805969E-08  0.10566000000E+00  0.10566000000E+00 0.  1.
     999900   -1    0    0    0    0 -0.00000000000E+00 -0.00000000000E+00 -0.74505805969E-08  0.93827000000E+00  0.93827000000E+00 0.  1.
     999902    2    1    2    0    0 -0.35173214775E-02 -0.20224467639E-01 -0.11716139170E-01  0.10202938294E+01  0.10200200144E+01 0.  0.
     999903    2    3    3    0    0  0.11667314125E+00 -0.41155663660E-01 -0.39603757925E-01  0.13143974604E+00  0.20038429531E-01 0.  0.
         14    1    1    2    0    0  0.35173214775E-02  0.20224467639E-01  0.11716139170E-01  0.23636170559E-01  0.00000000000E+00 0.  1.
     999901    1    3    3    0    0 -0.12019046272E+00  0.20931196021E-01  0.27887618755E-01  0.88885408340E+00  0.88000000000E+00 0. -1.
        -11    1    4    4    0    0  0.83842490907E-01 -0.20848237271E-01 -0.22946145861E-01  0.89392387873E-01  0.51100000000E-03 0. -1.
         11    1    4    4    0    0  0.32830650339E-01 -0.20307426389E-01 -0.16657612064E-01  0.42047358168E-01  0.51100000000E-03 0.  1.
</event>
<event>
 8    1  0.1097777E+005  0.1043930E+01  0.7957747E-01            NaN
         13   -1    0    0    0    0  0.00000000000E+00  0.00000000000E+00  0.74505805969E-08  0.10566000000E+00  0.10566000000E+00 0.  1.
     999900   -1    0    0    0    0 -0.00000000000E+00 -0.00000000000E+00 -0.74505805969E-08  0.93827000000E+00  0.93827000000E+00 0. -1.
     999902    2    1    2    0    0  0.23226871060E-01 -0.16222346390E-02 -0.28139612699E-02  0.10204771204E+01  0.10202075846E+01 0.  0.
     999903    2    3    3    0    0 -0.12327090906E+00 -0.14557712212E-01 -0.24227381065E-01  0.12801565863E+00  0.19834284837E-01 0.  0.
         14    1    1    2    0    0 -0.23226871060E-01  0.16222346390E-02  0.28139612699E-02  0.23452879620E-01  0.00000000000E+00 0. -1.
     999901    1    3    3    0    0  0.14649778012E+00  0.12935477573E-01  0.21413419795E-01  0.89246146175E+00  0.88000000000E+00 0. -1.
        -11    1    4    4    0    0 -0.37413347110E-01 -0.50335809966E-02  0.17922519677E-02  0.37796412102E-01  0.51100000000E-03 0. -1.
         11    1    4    4    0    0 -0.85857561953E-01 -0.95241312156E-02 -0.26019633033E-01  0.90219246528E-01  0.51100000000E-03 0.  1.
</event>
<event>
 8    1  0.1097777E+005  0.1043930E+01  0.7957747E-01            NaN
         13   -1    0    0    0    0  0.00000000000E+00  0.00000000000E+00  0.74505805969E-08  0.10566000000E+00  0.10566000000E+00 0. -1.
     999900   -1    0    0    0    0 -0.00000000000E+00 -0.00000000000E+00 -0.74505805969E-08  0.93827000000E+00  0.93827000000E+00 0.  1.
     999902    2    1    2    0    0  0.11005241233E-02 -0.11415494902E-01  0.20990742573E-01  0.10200106365E+01  0.10197301420E+01 0.  0.
     999903    2    3    3    0    0 -0.14282601431E-01 -0.32733056492E-01  0.12682677245E+00  0.13327936704E+00  0.20072712318E-01 0.  0.
         14    1    1    2    0    0 -0.11005241233E-02  0.11415494902E-01 -0.20990742573E-01  0.23919363515E-01  0.00000000000E+00 0.  1.
     999901    1    3    3    0    0  0.15383125555E-01  0.21317561590E-01 -0.10583602987E+00  0.88673126944E+00  0.88000000000E+00 0.  1.
        -11    1    4    4    0    0 -0.12606243496E-01 -0.25148600254E-01  0.63222796916E-01  0.69200813873E-01  0.51100000000E-03 0.  1.
         11    1    4    4    0    0 -0.16763579353E-02 -0.75844562377E-02  0.63603975530E-01  0.64078553171E-01  0.51100000000E-03 0. -1.
</event>
<event>
 8    1  0.1097777E+005  0.1043930E+01  0.7957747E-01            NaN
         13   -1    0    0    0    0  0.00000000000E+00  0.00000000000E+00  0.74505805969E-08  0.10566000000E+00  0.10566000000E+00 0.  1.
     999900   -1    0    0    0    0 -0.00000000000E+00 -0.00000000000E+00 -0.74505805969E-08  0.93827000000E+00  0.93827000000E+00 0. -1.
     999902    2    1    2    0    0  0.14100058292E-01 -0.55142100566E-02 -0.33335959470E-01  0.10073171013E+01  0.10066514979E+01 0.  0.
     999903    2    3    3    0    0  0.74753574766E-01  0.36344158683E-01 -0.87309139393E-01  0.12258885137E+00  0.22274331608E-01 0.  0.
         14    1    1    2    0    0 -0.14100058292E-01  0.55142100566E-02  0.33335959470E-01  0.36612898686E-01  0.00000000000E+00 0.  1.
     999901    1    3    3    0    0 -0.60653516474E-01 -0.41858368739E-01  0.53973179923E-01  0.88472824994E+00  0.88000000000E+00 0.  1.
        -11    1    4    4    0    0  0.86685892340E-02  0.92704306523E-02 -0.23982571336E-01  0.27138720911E-01  0.51100000000E-03 0. -1.
         11    1    4    4    0    0  0.66084985532E-01  0.27073728030E-01 -0.63326568057E-01  0.95450130462E-01  0.51100000000E-03 0.  1.
</event>
<event>
 8    1  0.1097777E+005  0.1043930E+01  0.7957747E-01            NaN
         13   -1    0    0    0    0  0.00000000000E+00  0.00000000000E+00  0.74505805969E-08  0.10566000000E+00  0.10566000000E+00 0.  1.
     999900   -1    0    0    0    0 -0.00000000000E+00 -0.00000000000E+00 -0.74505805969E-08  0.93827000000E+00  0.93827000000E+00 0. -1.
     999902    2    1    2    0    0 -0.21827836868E-01 -0.36087653493E-02  0.50249532953E-02  0.10212423865E+01  0.10209903448E+01 0.  0.
     999903    2    3    3    0    0  0.64743884056E-01 -0.88033892619E-01  0.67795917248E-01  0.13075799087E+00  0.23656479230E-01 0.  0.
         14    1    1    2    0    0  0.21827836868E-01  0.36087653493E-02 -0.50249532953E-02  0.22687613478E-01  0.00000000000E+00 0. -1.
     999901    1    3    3    0    0 -0.86571720924E-01  0.84425127270E-01 -0.62770963953E-01  0.89048439565E+00  0.88000000000E+00 0. -1.
        -11    1    4    4    0    0  0.30046113395E-01 -0.24970073368E-01  0.16725875548E-01  0.42500465033E-01  0.51100000000E-03 0. -1.
         11    1    4    4    0    0  0.34697770661E-01 -0.63063819251E-01  0.51070041700E-01  0.88257525841E-01  0.51100000000E-03 0.  1.
</event>
<event>
 8    1  0.1097777E+005  0.1043930E+01  0.7957747E-01            NaN
         13   -1    0    0    0    0  0.00000000000E+00  0.00000000000E+00  0.74505805969E-08  0.10566000000E+00  0.10566000000E+00 0.  1.
     999900   -1    0    0    0    0 -0.00000000000E+00 -0.00000000000E+00 -0.74505805969E-08  0.93827000000E+00  0.93827000000E+00 0. -1.
     999902    2    1    2    0    0  0.11633135365E-01 -0.19026274386E-01 -0.84967698863E-02  0.10200652969E+01  0.10197860981E+01 0.  0.
     999903    2    3    3    0    0  0.21458482973E-01 -0.12735488549E+00 -0.24458921596E-01  0.13322460336E+00  0.21698450298E-01 0.  0.
         14    1    1    2    0    0 -0.11633135365E-01  0.19026274386E-01  0.84967698863E-02  0.23864703098E-01  0.00000000000E+00 0.  1.
     999901    1    3    3    0    0 -0.98253476073E-02  0.10832861110E+00  0.15962151710E-01  0.88684069354E+00  0.88000000000E+00 0. -1.
        -11    1    4    4    0    0  0.32664701019E-02 -0.64373453256E-01 -0.20109519926E-01  0.67522331296E-01  0.51100000000E-03 0.  1.
         11    1    4    4    0    0  0.18192012871E-01 -0.62981432231E-01 -0.43494016696E-02  0.65702272062E-01  0.51100000000E-03 0. -1.
</event>
<event>
 8    1  0.1097777E+005  0.1043930E+01  0.7957747E-01            NaN
         13   -1    0    0    0    0  0.00000000000E+00  0.00000000000E+00  0.74505805969E-08  0.10566000000E+00  0.10566000000E+00 0. -1.
     999900   -1    0    0    0    0 -0.00000000000E+00 -0.00000000000E+00 -0.74505805969E-08  0.93827000000E+00  0.93827000000E+00 0.  1.
     999902    2    1    2    0    0  0.17314129543E-01 -0.11504883946E-01 -0.11611384056E-01  0.10201189589E+01  0.10198410291E+01 0.  0.
     999903    2    3    3    0    0  0.54560336572E-03 -0.11357983089E+00  0.62045454076E-01  0.13100377627E+00  0.20289784550E-01 0.  0.
         14    1    1    2    0    0 -0.17314129543E-01  0.11504883946E-01  0.11611384056E-01  0.23811041055E-01  0.00000000000E+00 0. -1.
     999901    1    3    3    0    0  0.16768526177E-01  0.10207494694E+00 -0.73656838132E-01  0.88911518268E+00  0.88000000000E+00 0. -1.
        -11    1    4    4    0    0 -0.85936297437E-02 -0.34254138948E-01  0.22694872120E-01  0.41982315906E-01  0.51100000000E-03 0. -1.
         11    1    4    4    0    0  0.91392331095E-02 -0.79325691941E-01  0.39350581955E-01  0.89021460362E-01  0.51100000000E-03 0.  1.
</event>
<event>
 8    1  0.1097777E+005  0.1043930E+01  0.7957747E-01            NaN
         13   -1    0    0    0    0  0.00000000000E+00  0.00000000000E+00  0.74505805969E-08  0.10566000000E+00  0.10566000000E+00 0.  1.
     999900   -1    0    0    0    0 -0.00000000000E+00 -0.00000000000E+00 -0.74505805969E-08  0.93827000000E+00  0.93827000000E+00 0.  1.
     999902    2    1    2    0    0 -0.64051166318E-02 -0.19167304321E-01 -0.13032847790E-01  0.10198828339E+01  0.10195992981E+01 0.  0.
     999903    2    3    3    0    0 -0.17382458067E-01 -0.12270512918E+00  0.41249662094E-01  0.13208377217E+00  0.19644074742E-01 0.  0.
         14    1    1    2    0    0  0.64051166318E-02  0.19167304321E-01  0.13032847790E-01  0.24047166060E-01  0.00000000000E+00 0.  1.
     999901    1    3    3    0    0  0.10977341435E-01  0.10353782486E+00 -0.54282509884E-01  0.88779906177E+00  0.88000000000E+00 0.  1.
        -11    1    4    4    0    0 -0.19168870064E-01 -0.10013405464E+00  0.27531076863E-01  0.10560537766E+00  0.51100000000E-03 0. -1.
         11    1    4    4    0    0  0.17864119973E-02 -0.22571074543E-01  0.13718585231E-01  0.26478394505E-01  0.51100000000E-03 0.  1.
</event>
<event>
 8    1  0.1097777E+005  0.1043930E+01  0.7957747E-01            NaN
         13   -1    0    0    0    0  0.00000000000E+00  0.00000000000E+00  0.74505805969E-08  0.10566000000E+00  0.10566000000E+00 0.  1.
     999900   -1    0    0    0    0 -0.00000000000E+00 -0.00000000000E+00 -0.74505805969E-08  0.93827000000E+00  0.93827000000E+00 0.  1.
     999902    2    1    2    0    0 -0.14484469828E-01 -0.37000134817E-02  0.17822338059E-01  0.10206678913E+01  0.10204027728E+01 0.  0.
     999903    2    3    3    0    0 -0.11288325107E+00 -0.59823463887E-01 -0.27344936661E-01  0.13225793836E+00  0.20565541436E-01 0.  0.
         14    1    1    2    0    0  0.14484469828E-01  0.37000134817E-02 -0.17822338059E-01  0.23262108672E-01  0.00000000000E+00 0. -1.
     999901    1    3    3    0    0  0.98398781238E-01  0.56123450405E-01  0.45167274719E-01  0.88840995297E+00  0.88000000000E+00 0. -1.
        -11    1    4    4    0    0 -0.69419688328E-01 -0.33651948509E-01 -0.65538808234E-02  0.77425843494E-01  0.51100000000E-03 0.  1.
         11    1    4    4    0    0 -0.43463562738E-01 -0.26171515378E-01 -0.20791055837E-01  0.54832094862E-01  0.51100000000E-03 0. -1.
</event>
<event>
 8    1  0.1097777E+005  0.1043930E+01  0.7957747E-01            NaN
         13   -1    0    0    0    0  0.00000000000E+00  0.00000000000E+00  0.74505805969E-08  0.10566000000E+00  0.10566000000E+00 0.  1.
     999900   -1    0    0    0    0 -0.00000000000E+00 -0.00000000000E+00 -0.74505805969E-08  0.93827000000E+00  0.93827000000E+00 0. -1.
     999902    2    1    2    0    0  0.26015964352E-02  0.22887419585E-01  0.39163832523E-03  0.10208918651E+01  0.10206318849E+01 0.  0.
     999903    2    3    3    0    0  0.11758200275E+00  0.48039731897E-01  0.31844049620E-01  0.13249871630E+00  0.20211954701E-01 0.  0.
         14    1    1    2    0    0 -0.26015964352E-02 -0.22887419585E-01 -0.39163832523E-03  0.23038134904E-01  0.00000000000E+00 0.  1.
     999901    1    3    3    0    0 -0.11498040632E+00 -0.25152312311E-01 -0.31452411295E-01  0.88839314880E+00  0.88000000000E+00 0.  1.
        -11    1    4    4    0    0  0.12732970916E-01  0.11814573521E-01  0.12333826343E-02  0.17421109309E-01  0.51100000000E-03 0. -1.
         11    1    4    4    0    0  0.10484903184E+00  0.36225158376E-01  0.30610666986E-01  0.11507760699E+00  0.51100000000E-03 0.  1.
</event>
<event>
 8    1  0.1097777E+005  0.1043930E+01  0.7957747E-01            NaN
         13   -1    0    0    0    0  0.00000000000E+00  0.00000000000E+00  0.74505805969E-08  0.10566000000E+00  0.10566000000E+00 0. -1.
     999900   -1    0    0    0    0 -0.00000000000E+00 -0.00000000000E+00 -0.74505805969E-08  0.93827000000E+00  0.93827000000E+00 0.  1.
     999902    2    1    2    0    0 -0.19467294729E-01  0.29313023304E-02 -0.96108468853E-02  0.10220225475E+01  0.10217877231E+01 0.  0.
     999903    2    3    3    0    0  0.24502295581E-01  0.11152513781E+00 -0.64190567676E-01  0.13258177268E+00  0.20476294053E-01 0.  0.
         14    1    1    2    0    0  0.19467294729E-01 -0.29313023304E-02  0.96108468853E-02  0.21907452505E-01  0.00000000000E+00 0. -1.
     999901    1    3    3    0    0 -0.43969590310E-01 -0.10859383548E+00  0.54579720790E-01  0.88944077481E+00  0.88000000000E+00 0. -1.
        -11    1    4    4    0    0  0.13824320253E-01  0.27952996700E-01 -0.23294095902E-01  0.38927597920E-01  0.51100000000E-03 0.  1.
         11    1    4    4    0    0  0.10677975328E-01  0.83572141106E-01 -0.40896471774E-01  0.93654174764E-01  0.51100000000E-03 0. -1.
</event>
<event>
 8    1  0.1097777E+005  0.1043930E+01  0.7957747E-01            NaN
         13   -1    0    0    0    0  0.00000000000E+00  0.00000000000E+00  0.74505805969E-08  0.10566000000E+00  0.10566000000E+00 0.  1.
     999900   -1    0    0    0    0 -0.00000000000E+00 -0.00000000000E+00 -0.74505805969E-08  0.93827000000E+00  0.93827000000E+00 0.  1.
     999902    2    1    2    0    0  0.10144929491E-02  0.11555882418E-02 -0.24254285972E-01  0.10196270173E+01  0.10193373433E+01 0.  0.
     999903    2    3    3    0    0 -0.31826289940E-01  0.12219110271E+00 -0.26419398138E-01  0.13073287259E+00  0.21201911821E-01 0.  0.
         14    1    1    2    0    0 -0.10144929491E-02 -0.11555882418E-02  0.24254285972E-01  0.24302982700E-01  0.00000000000E+00 0.  1.
     999901    1    3    3    0    0  0.32840782889E-01 -0.12103551447E+00  0.21651121664E-02  0.88889414471E+00  0.88000000000E+00 0. -1.
        -11    1    4    4    0    0 -0.74606126493E-02  0.33934768735E-01 -0.17016911411E-01  0.38691932818E-01  0.51100000000E-03 0. -1.
         11    1    4    4    0    0 -0.24365677291E-01  0.88256333978E-01 -0.94024867272E-02  0.92040939775E-01  0.51100000000E-03 0.  1.
</event>
<event>
 8    1  0.1097777E+005  0.1043930E+01  0.7957747E-01            NaN
         13   -1    0    0    0    0  0.00000000000E+00  0.00000000000E+00  0.74505805969E-08  0.10566000000E+00  0.10566000000E+00 0. -1.
     999900   -1    0    0    0    0 -0.00000000000E+00 -0.00000000000E+00 -0.74505805969E-08  0.93827000000E+00  0.93827000000E+00 0. -1.
     999902    2    1    2    0    0 -0.88633507982E-03  0.25062219253E-01  0.74645747922E-03  0.10188410059E+01  0.10185320504E+01 0.  0.
     999903    2    3    3    0    0  0.33557348161E-01  0.10000286280E+00 -0.76587624975E-01  0.13160765013E+00  0.18117425033E-01 0.  0.
         14    1    1    2    0    0  0.88633507982E-03 -0.25062219253E-01 -0.74645747922E-03  0.25088994051E-01  0.00000000000E+00 0. -1.
     999901    1    3    3    0    0 -0.34443683241E-01 -0.74940643545E-01  0.77334082455E-01  0.88723335582E+00  0.88000000000E+00 0.  1.
        -11    1    4    4    0    0  0.52835967938E-02  0.43018813663E-01 -0.28748371055E-01  0.52012158995E-01  0.51100000000E-03 0. -1.
         11    1    4    4    0    0  0.28273751367E-01  0.56984049134E-01 -0.47839253921E-01  0.79595491134E-01  0.51100000000E-03 0.  1.
</event>
<event>
 8    1  0.1097777E+005  0.1043930E+01  0.7957747E-01            NaN
         13   -1    0    0    0    0  0.00000000000E+00  0.00000000000E+00  0.74505805969E-08  0.10566000000E+00  0.10566000000E+00 0. -1.
     999900   -1    0    0    0    0 -0.00000000000E+00 -0.00000000000E+00 -0.74505805969E-08  0.93827000000E+00  0.93827000000E+00 0. -1.
     999902    2    1    2    0    0  0.45742370833E-02  0.23132109351E-01 -0.75157525890E-03  0.10203379888E+01  0.10200652079E+01 0.  0.
     999903    2    3    3    0    0  0.12386188363E+00 -0.34803693620E-01  0.45907281002E-02  0.13038594508E+00  0.20648403880E-01 0.  0.
         14    1    1    2    0    0 -0.45742370833E-02 -0.23132109351E-01  0.75157525890E-03  0.23592011218E-01  0.00000000000E+00 0.  1.
     999901    1    3    3    0    0 -0.11928764655E+00  0.57935802971E-01 -0.53423033591E-02  0.88995204370E+00  0.88000000000E+00 0. -1.
        -11    1    4    4    0    0  0.79717847655E-01 -0.12551363200E-01 -0.34359650143E-03  0.80702237469E-01  0.51100000000E-03 0.  1.
         11    1    4    4    0    0  0.44144035979E-01 -0.22252330420E-01  0.49343246017E-02  0.49683707610E-01  0.51100000000E-03 0. -1.
</event>
<event>
 8    1  0.1097777E+005  0.1043930E+01  0.7957747E-01            NaN
         13   -1    0    0    0    0  0.00000000000E+00  0.00000000000E+00  0.74505805969E-08  0.10566000000E+00  0.10566000000E+00 0. -1.
     999900   -1    0    0    0    0 -0.00000000000E+00 -0.00000000000E+00 -0.74505805969E-08  0.93827000000E+00  0.93827000000E+00 0.  1.
     999902    2    1    2    0    0 -0.37730281429E-02 -0.17843576395E-02  0.23177134975E-01  0.10203800688E+01  0.10201082715E+01 0.  0.
     999903    2    3    3    0    0 -0.70245843743E-01  0.41996213378E-02 -0.10683886657E+00  0.12832704130E+00  0.10058366527E-01 0.  0.
         14    1    1    2    0    0  0.37730281429E-02  0.17843576395E-02 -0.23177134975E-01  0.23549931193E-01  0.00000000000E+00 0.  1.
     999901    1    3    3    0    0  0.66472815600E-01 -0.59839789772E-02  0.13001600155E+00  0.89205302750E+00  0.88000000000E+00 0. -1.
        -11    1    4    4    0    0 -0.65837000222E-01  0.32281064784E-02 -0.94851861401E-01  0.11550786987E+00  0.51100000000E-03 0.  1.
         11    1    4    4    0    0 -0.44088435206E-02  0.97151485931E-03 -0.11987005170E-01  0.12819171434E-01  0.51100000000E-03 0. -1.
</event>
<event>
 8    1  0.1097777E+005  0.1043930E+01  0.7957747E-01            NaN
         13   -1    0    0    0    0  0.00000000000E+00  0.00000000000E+00  0.74505805969E-08  0.10566000000E+00  0.10566000000E+00 0.  1.
     999900   -1    0    0    0    0 -0.00000000000E+00 -0.00000000000E+00 -0.74505805969E-08  0.93827000000E+00  0.93827000000E+00 0.  1.
     999902    2    1    2    0    0 -0.95953131016E-02 -0.20778350561E-01 -0.36305625944E-02  0.10207569365E+01  0.10204938670E+01 0.  0.
     999903    2    3    3    0    0 -0.50203097662E-02  0.11913613338E+00  0.37015938505E-01  0.12876527092E+00  0.31491165522E-01 0.  0.
         14    1    1    2    0    0  0.95953131016E-02  0.20778350561E-01  0.36305625944E-02  0.23173063464E-01  0.00000000000E+00 0.  1.
     999901    1    3    3    0    0 -0.45750033354E-02 -0.13991448394E+00 -0.40646501100E-01  0.89199166561E+00  0.88000000000E+00 0. -1.
        -11    1    4    4    0    0  0.10403679705E-01  0.65114646895E-01  0.28908233412E-01  0.72000700494E-01  0.51100000000E-03 0.  1.
         11    1    4    4    0    0 -0.15423989471E-01  0.54021486483E-01  0.81077050935E-02  0.56764570429E-01  0.51100000000E-03 0. -1.
</event>
<event>
 8    1  0.1097777E+005  0.1043930E+01  0.7957747E-01            NaN
         13   -1    0    0    0    0  0.00000000000E+00  0.00000000000E+00  0.74505805969E-08  0.10566000000E+00  0.10566000000E+00 0. -1.
     999900   -1    0    0    0    0 -0.00000000000E+00 -0.00000000000E+00 -0.74505805969E-08  0.93827000000E+00  0.93827000000E+00 0. -1.
     999902    2    1    2    0    0 -0.13265496284E-01 -0.13831557607E-01 -0.13521340194E-01  0.10204755331E+01  0.10202059604E+01 0.  0.
     999903    2    3    3    0    0 -0.73370128927E-01 -0.43074576239E-01 -0.10112061253E+00  0.13360386621E+00  0.19647387880E-01 0.  0.
         14    1    1    2    0    0  0.13265496284E-01  0.13831557607E-01  0.13521340194E-01  0.23454466912E-01  0.00000000000E+00 0. -1.
     999901    1    3    3    0    0  0.60104632644E-01  0.29243018632E-01  0.87599272332E-01  0.88687166688E+00  0.88000000000E+00 0.  1.
        -11    1    4    4    0    0 -0.50178930507E-01 -0.18725387722E-01 -0.65599527738E-01  0.84688395738E-01  0.51100000000E-03 0. -1.
         11    1    4    4    0    0 -0.23191198421E-01 -0.24349188517E-01 -0.35521084788E-01  0.48915470469E-01  0.51100000000E-03 0.  1.
</event>
<event>
 8    1  0.1097777E+005  0.1043930E+01  0.7957747E-01            NaN
         13   -1    0    0    0    0  0.00000000000E+00  0.00000000000E+00  0.74505805969E-08  0.10566000000E+00  0.10566000000E+00 0.  1.
     999900   -1    0    0    0    0 -0.00000000000E+00 -0.00000000000E+00 -0.74505805969E-08  0.93827000000E+00  0.93827000000E+00 0. -1.
     999902    2    1    2    0    0  0.21256565834E-01  0.91201544540E-02  0.36068673003E-02  0.10205199957E+01  0.10202514560E+01 0.  0.
     999903    2    3    3    0    0  0.13039697793E+00  0.36881636292E-02 -0.14202217379E-01  0.13358239952E+00  0.25011598841E-01 0.  0.
         14    1    1    2    0    0 -0.21256565834E-01 -0.91201544540E-02 -0.36068673003E-02  0.23410004273E-01  0.00000000000E+00 0.  1.
     999901    1    3    3    0    0 -0.10914041210E+00  0.54319908248E-02  0.17809084680E-01  0.88693759621E+00  0.88000000000E+00 0. -1.
        -11    1    4    4    0    0  0.25638717029E-01  0.45310083099E-02  0.63930478311E-02  0.26814287773E-01  0.51100000000E-03 0.  1.
         11    1    4    4    0    0  0.10475826090E+00 -0.84284468065E-03 -0.20595265210E-01  0.10676811174E+00  0.51100000000E-03 0. -1.
</event>
<event>
 8    1  0.1097777E+005  0.1043930E+01  0.7957747E-01            NaN
         13   -1    0    0    0    0  0.00000000000E+00  0.00000000000E+00  0.74505805969E-08  0.10566000000E+00  0.10566000000E+00 0.  1.
     999900   -1    0    0    0    0 -0.00000000000E+00 -0.00000000000E+00 -0.74505805969E-08  0.93827000000E+00  0.93827000000E+00 0. -1.
     999902    2    1    2    0    0  0.11893334152E-01  0.19399929592E-01  0.38961835518E-02  0.10208434474E+01  0.10205823608E+01 0.  0.
     999903    2    3    3    0    0  0.16656084753E-01  0.10610657607E+00 -0.75744446771E-01  0.13299021833E+00  0.20326000841E-01 0.  0.
         14    1    1    2    0    0 -0.11893334152E-01 -0.19399929592E-01 -0.38961835518E-02  0.23086552616E-01  0.00000000000E+00 0.  1.
     999901    1    3    3    0    0 -0.47627506018E-02 -0.86706646483E-01  0.79640630323E-01  0.88785322905E+00  0.88000000000E+00 0.  1.
        -11    1    4    4    0    0  0.13586279194E-01  0.36962090274E-01 -0.34906760295E-01  0.52626287491E-01  0.51100000000E-03 0.  1.
         11    1    4    4    0    0  0.30698055592E-02  0.69144485801E-01 -0.40837686476E-01  0.80363930843E-01  0.51100000000E-03 0. -1.
</event>
<event>
 8    1  0.1097777E+005  0.1043930E+01  0.7957747E-01            NaN
         13   -1    0    0    0    0  0.00000000000E+00  0.00000000000E+00  0.74505805969E-08  0.10566000000E+00  0.10566000000E+00 0.  1.
     999900   -1    0    0    0    0 -0.00000000000E+00 -0.00000000000E+00 -0.74505805969E-08  0.93827000000E+00  0.93827000000E+00 0. -1.
     999902    2    1    2    0    0  0.17035044344E-01  0.79586639557E-02 -0.14207138822E-01  0.10203635862E+01  0.10200914038E+01 0.  0.
     999903    2    3    3    0    0  0.92114639010E-02  0.12895960711E+00 -0.18085707747E-01  0.13204073947E+00  0.19804866089E-01 0.  0.
         14    1    1    2    0    0 -0.17035044344E-01 -0.79586639557E-02  0.14207138822E-01  0.23566413840E-01  0.00000000000E+00 0.  1.
     999901    1    3    3    0    0  0.78235804431E-02 -0.12100094316E+00  0.38785689258E-02  0.88832284669E+00  0.88000000000E+00 0. -1.
        -11    1    4    4    0    0 -0.19410598242E-02  0.76215743842E-01 -0.41436313118E-02  0.76354686327E-01  0.51100000000E-03 0.  1.
         11    1    4    4    0    0  0.11152523725E-01  0.52743863271E-01 -0.13942076436E-01  0.55686053142E-01  0.51100000000E-03 0. -1.
</event>
<event>
 8    1  0.1097777E+005  0.1043930E+01  0.7957747E-01            NaN
         13   -1    0    0    0    0  0.00000000000E+00  0.00000000000E+00  0.74505805969E-08  0.10566000000E+00  0.10566000000E+00 0. -1.
     999900   -1    0    0    0    0 -0.00000000000E+00 -0.00000000000E+00 -0.74505805969E-08  0.93827000000E+00  0.93827000000E+00 0. -1.
     999902    2    1    2    0    0 -0.56236178964E-02  0.91083106434E-03 -0.27110824049E-01  0.10162270855E+01  0.10158494169E+01 0.  0.
     999903    2    3    3    0    0 -0.50172680594E-01 -0.10101211201E+00 -0.58515848063E-01  0.12866909818E+00  0.20270365098E-01 0.  0.
         14    1    1    2    0    0  0.56236178964E-02 -0.91083106434E-03  0.27110824049E-01  0.27702914505E-01  0.00000000000E+00 0. -1.
     999901    1    3    3    0    0  0.44549062698E-01  0.10192294308E+00  0.31405024014E-01  0.88755798731E+00  0.88000000000E+00 0.  1.
        -11    1    4    4    0    0 -0.19846297996E-01 -0.59494715601E-01 -0.37845959372E-01  0.73253494732E-01  0.51100000000E-03 0.  1.
         11    1    4    4    0    0 -0.30326382598E-01 -0.41517396409E-01 -0.20669888691E-01  0.55415603449E-01  0.51100000000E-03 0. -1.
</event>
<event>
 8    1  0.1097777E+005  0.1043930E+01  0.7957747E-01            NaN
         13   -1    0    0    0    0  0.00000000000E+00  0.00000000000E+00  0.74505805969E-08  0.10566000000E+00  0.10566000000E+00 0. -1.
     999900   -1    0    0    0    0 -0.00000000000E+00 -0.00000000000E+00 -0.74505805969E-08  0.93827000000E+00  0.93827000000E+00 0. -1.
     999902    2    1    2    0    0  0.19055165646E-01 -0.15142961114E-02 -0.15451220207E-01  0.10193508902E+01  0.10190545151E+01 0.  0.
     999903    2    3    3    0    0 -0.10030070983E+00 -0.29056677896E-01 -0.72849052626E-01  0.12901448249E+00  0.20814161075E-01 0.  0.
         14    1    1    2    0    0 -0.19055165646E-01  0.15142961114E-02  0.15451220207E-01  0.24579109756E-01  0.00000000000E+00 0. -1.
     999901    1    3    3    0    0  0.11935587548E+00  0.27542381785E-01  0.57397832418E-01  0.89033640775E+00  0.88000000000E+00 0.  1.
        -11    1    4    4    0    0 -0.47504933706E-01 -0.30036889011E-02 -0.32649180865E-01  0.57723227609E-01  0.51100000000E-03 0. -1.
         11    1    4    4    0    0 -0.52795776123E-01 -0.26052988995E-01 -0.40199871761E-01  0.71291254882E-01  0.51100000000E-03 0.  1.
</event>
<event>
 8    1  0.1097777E+005  0.1043930E+01  0.7957747E-01            NaN
         13   -1    0    0    0    0  0.00000000000E+00  0.00000000000E+00  0.74505805969E-08  0.10566000000E+00  0.10566000000E+00 0.  1.
     999900   -1    0    0    0    0 -0.00000000000E+00 -0.00000000000E+00 -0.74505805969E-08  0.93827000000E+00  0.93827000000E+00 0.  1.
     999902    2    1    2    0    0 -0.14036958088E-01 -0.13143033576E-01 -0.12632769151E-01  0.10209221235E+01  0.10206628336E+01 0.  0.
     999903    2    3    3    0    0  0.10389334826E+00  0.40526177197E-01  0.60432597165E-01  0.12843879645E+00  0.20204622794E-01 0.  0.
         14    1    1    2    0    0  0.14036958088E-01  0.13143033576E-01  0.12632769151E-01  0.23007876486E-01  0.00000000000E+00 0.  1.
     999901    1    3    3    0    0 -0.11793030635E+00 -0.53669210773E-01 -0.73065366316E-01  0.89248332707E+00  0.88000000000E+00 0.  1.
        -11    1    4    4    0    0  0.68782045900E-01  0.22350393553E-01  0.28977930851E-01  0.77913359108E-01  0.51100000000E-03 0. -1.
         11    1    4    4    0    0  0.35111302357E-01  0.18175783644E-01  0.31454666313E-01  0.50525437338E-01  0.51100000000E-03 0.  1.
</event>
<event>
 7    1  0.1097777E+005  0.1043930E+01  0.7957747E-01            NaN
         13   -1    0    0    0    0  0.00000000000E+00  0.00000000000E+00  0.74505805969E-08  0.10566000000E+00  0.10566000000E+00 0. -1.
     999900   -1    0    0    0    0 -0.00000000000E+00 -0.00000000000E+00 -0.74505805969E-08  0.93827000000E+00  0.93827000000E+00 0. -1.
     999903    2    1    2    0    0  0.19234309524E-01 -0.11133432195E-01 -0.11265239549E+00  0.11661857504E+00  0.20381802133E-01 0.  0.
         14    1    1    2    0    0  0.32574841824E-02  0.39150888094E-01 -0.84573966743E-03  0.39295273473E-01  0.00000000000E+00 0.  1.
     999901    1    1    2    0    0 -0.22491793706E-01 -0.28017455899E-01  0.11349813516E+00  0.88801615149E+00  0.88000000000E+00 0.  1.
        -11    1    3    3    0    0  0.10525592497E-01 -0.14717802220E-01 -0.93890989787E-01  0.95619981613E-01  0.51100000000E-03 0.  1.
         11    1    3    3    0    0  0.87087170268E-02  0.35843700249E-02 -0.18761405707E-01  0.20998593425E-01  0.51100000000E-03 0. -1.
</event>
<event>
 8    1  0.1097777E+005  0.1043930E+01  0.7957747E-01            NaN
         13   -1    0    0    0    0  0.00000000000E+00  0.00000000000E+00  0.74505805969E-08  0.10566000000E+00  0.10566000000E+00 0. -1.
     999900   -1    0    0    0    0 -0.00000000000E+00 -0.00000000000E+00 -0.74505805969E-08  0.93827000000E+00  0.93827000000E+00 0.  1.
     999902    2    1    2    0    0  0.24800687427E-01  0.17321681736E-01  0.30122620045E-02  0.10135295316E+01  0.10130735033E+01 0.  0.
     999903    2    3    3    0    0  0.31261443594E-01 -0.10459787984E+00  0.54455333734E-01  0.12361239476E+00  0.19915984623E-01 0.  0.
         14    1    1    2    0    0 -0.24800687427E-01 -0.17321681736E-01 -0.30122620045E-02  0.30400468374E-01  0.00000000000E+00 0.  1.
     999901    1    3    3    0    0 -0.64607561670E-02  0.12191956157E+00 -0.51443071729E-01  0.88991713687E+00  0.88000000000E+00 0.  1.
        -11    1    4    4    0    0  0.22814025977E-01 -0.92587277875E-01  0.41399105037E-01  0.10395687002E+00  0.51100000000E-03 0.  1.
         11    1    4    4    0    0  0.84474176166E-02 -0.12010601962E-01  0.13056228696E-01  0.19655524736E-01  0.51100000000E-03 0. -1.
</event>
<event>
 8    1  0.1097777E+005  0.1043930E+01  0.7957747E-01            NaN
         13   -1    0    0    0    0  0.00000000000E+00  0.00000000000E+00  0.74505805969E-08  0.10566000000E+00  0.10566000000E+00 0. -1.
     999900   -1    0    0    0    0 -0.00000000000E+00 -0.00000000000E+00 -0.74505805969E-08  0.93827000000E+00  0.93827000000E+00 0. -1.
     999902    2    1    2    0    0 -0.11013189119E-02  0.17393976872E-01 -0.15688782196E-01  0.10204800273E+01  0.10202105591E+01 0.  0.
     999903    2    3    3    0    0 -0.13638435216E-03 -0.77763574091E-01 -0.10365735691E+00  0.13098895887E+00  0.19132894385E-01 0.  0.
         14    1    1    2    0    0  0.11013189119E-02 -0.17393976872E-01  0.15688782196E-01  0.23449972741E-01  0.00000000000E+00 0. -1.
     999901    1    3    3    0    0 -0.96493455976E-03  0.95157550963E-01  0.87968574719E-01  0.88949106839E+00  0.88000000000E+00 0.  1.
        -11    1    4    4    0    0 -0.87200264838E-02 -0.55404568231E-01 -0.74473466441E-01  0.93232308603E-01  0.51100000000E-03 0. -1.
         11    1    4    4    0    0  0.85836421316E-02 -0.22359005860E-01 -0.29183890474E-01  0.37756650268E-01  0.51100000000E-03 0.  1.
</event>
<event>
 8    1  0.1097777E+005  0.1043930E+01  0.7957747E-01            NaN
         13   -1    0    0    0    0  0.00000000000E+00  0.00000000000E+00  0.74505805969E-08  0.10566000000E+00  0.10566000000E+00 0.  1.
     999900   -1    0    0    0    0 -0.00000000000E+00 -0.00000000000E+00 -0.74505805969E-08  0.93827000000E+00  0.93827000000E+00 0. -1.
     999902    2    1    2    0    0  0.26496544003E-02  0.21690765310E-01 -0.91606066986E-02  0.10202355559E+01  0.10199603731E+01 0.  0.
     999903    2    3    3    0    0 -0.55262613354E-01  0.88844955860E-01  0.77324065319E-01  0.13156063523E+00  0.19539883494E-01 0.  0.
         14    1    1    2    0    0 -0.26496544003E-02 -0.21690765310E-01  0.91606066986E-02  0.23694444144E-01  0.00000000000E+00 0.  1.
     999901    1    3    3    0    0  0.57912267754E-01 -0.67154190550E-01 -0.86484672017E-01  0.88867492063E+00  0.88000000000E+00 0. -1.
        -11    1    4    4    0    0 -0.20236684436E-01  0.42605576341E-01  0.44804635761E-01  0.65057474889E-01  0.51100000000E-03 0.  1.
         11    1    4    4    0    0 -0.35025928918E-01  0.46239379520E-01  0.32519429558E-01  0.66503160336E-01  0.51100000000E-03 0. -1.
</event>
<event>
 7    1  0.1097777E+005  0.1043930E+01  0.7957747E-01            NaN
         13   -1    0    0    0    0  0.00000000000E+00  0.00000000000E+00  0.74505805969E-08  0.10566000000E+00  0.10566000000E+00 0.  1.
     999900   -1    0    0    0    0 -0.00000000000E+00 -0.00000000000E+00 -0.74505805969E-08  0.93827000000E+00  0.93827000000E+00 0. -1.
     999903    2    1    2    0    0  0.26864127213E-01 -0.53690653709E-01 -0.95937941291E-01  0.11488216441E+00  0.19734626780E-01 0.  0.
         14    1    1    2    0    0 -0.39843623766E-01 -0.81298171816E-02  0.13912885853E-01  0.42978793317E-01  0.00000000000E+00 0.  1.
     999901    1    1    2    0    0  0.12979496553E-01  0.61820470891E-01  0.82025055437E-01  0.88606904227E+00  0.88000000000E+00 0.  1.
        -11    1    3    3    0    0  0.21695110007E-01 -0.22965671682E-01 -0.41539653056E-01  0.52191031519E-01  0.51100000000E-03 0.  1.
         11    1    3    3    0    0  0.51690172056E-02 -0.30724982028E-01 -0.54398288235E-01  0.62691132893E-01  0.51100000000E-03 0. -1.
</event>
<event>
 8    1  0.1097777E+005  0.1043930E+01  0.7957747E-01            NaN
         13   -1    0    0    0    0  0.00000000000E+00  0.00000000000E+00  0.74505805969E-08  0.10566000000E+00  0.10566000000E+00 0. -1.
     999900   -1    0    0    0    0 -0.00000000000E+00 -0.00000000000E+00 -0.74505805969E-08  0.93827000000E+00  0.93827000000E+00 0. -1.
     999902    2    1    2    0    0  0.14351465917E-01 -0.11052628410E-01  0.15288412053E-01  0.10202263988E+01  0.10199510008E+01 0.  0.
     999903    2    3    3    0    0  0.96946701789E-01 -0.35063305404E-01 -0.78429988727E-01  0.13107982803E+00  0.20063893192E-01 0.  0.
         14    1    1    2    0    0 -0.14351465917E-01  0.11052628410E-01 -0.15288412053E-01  0.23703601242E-01  0.00000000000E+00 0.  1.
     999901    1    3    3    0    0 -0.82595235872E-01  0.24010676995E-01  0.93718400780E-01  0.88914657073E+00  0.88000000000E+00 0.  1.
        -11    1    4    4    0    0  0.53088486882E-01 -0.29706342822E-01 -0.44939784607E-01  0.75635306602E-01  0.51100000000E-03 0.  1.
         11    1    4    4    0    0  0.43858214908E-01 -0.53569625824E-02 -0.33490204119E-01  0.55444521424E-01  0.51100000000E-03 0. -1.
</event>
<event>
 8    1  0.1097777E+005  0.1043930E+01  0.7957747E-01            NaN
         13   -1    0    0    0    0  0.00000000000E+00  0.00000000000E+00  0.74505805969E-08  0.10566000000E+00  0.10566000000E+00 0.  1.
     999900   -1    0    0    0    0 -0.00000000000E+00 -0.00000000000E+00 -0.74505805969E-08  0.93827000000E+00  0.93827000000E+00 0.  1.
     999902    2    1    2    0    0 -0.16925600794E-01 -0.23472742708E-02  0.17442091779E-01  0.10195125426E+01  0.10192201001E+01 0.  0.
     999903    2    3    3    0    0 -0.11534671995E+00  0.57993779831E-01  0.17789868319E-01  0.13197218836E+00  0.20785446465E-01 0.  0.
         14    1    1    2    0    0  0.16925600794E-01  0.23472742708E-02 -0.17442091779E-01  0.24417457369E-01  0.00000000000E+00 0. -1.
     999901    1    3    3    0    0  0.98421119153E-01 -0.60341054102E-01 -0.34777654036E-03  0.88754035427E+00  0.88000000000E+00 0.  1.
        -11    1    4    4    0    0 -0.11706489592E-01  0.11351454424E-01 -0.25523013416E-02  0.16512806522E-01  0.51100000000E-03 0. -1.
         11    1    4    4    0    0 -0.10364023036E+00  0.46642325408E-01  0.20342169661E-01  0.11545938184E+00  0.51100000000E-03 0.  1.
</event>
<event>
 8    1  0.1097777E+005  0.1043930E+01  0.7957747E-01            NaN
         13   -1    0    0    0    0  0.00000000000E+00  0.00000000000E+00  0.74505805969E-08  0.10566000000E+00  0.10566000000E+00 0.  1.
     999900   -1    0    0    0    0 -0.00000000000E+00 -0.00000000000E+00 -0.74505805969E-08  0.93827000000E+00  0.93827000000E+00 0.  1.
     999902    2    1    2    0    0 -0.30276953666E-02  0.55704431839E-02 -0.22031994199E-01  0.10210039113E+01  0.10207464824E+01 0.  0.
     999903    2    3    3    0    0  0.93423591233E-01  0.22633709606E-01  0.84107283649E-01  0.12923064857E+00  0.19653833154E-01 0.  0.
         14    1    1    2    0    0  0.30276953666E-02 -0.55704431839E-02  0.22031994199E-01  0.22926088740E-01  0.00000000000E+00 0.  1.
     999901    1    3    3    0    0 -0.96451286599E-01 -0.17063266422E-01 -0.10613927785E+00  0.89177326269E+00  0.88000000000E+00 0.  1.
        -11    1    4    4    0    0  0.58389273783E-01  0.23186786643E-01  0.58315880544E-01  0.85720110898E-01  0.51100000000E-03 0. -1.
         11    1    4    4    0    0  0.35034317450E-01 -0.55307703737E-03  0.25791403105E-01  0.43510537672E-01  0.51100000000E-03 0.  1.
</event>
<event>
 8    1  0.1097777E+005  0.1043930E+01  0.7957747E-01            NaN
         13   -1    0    0    0    0  0.00000000000E+00  0.00000000000E+00  0.74505805969E-08  0.10566000000E+00  0.10566000000E+00 0. -1.
     999900   -1    0    0    0    0 -0.00000000000E+00 -0.00000000000E+00 -0.74505805969E-08  0.93827000000E+00  0.93827000000E+00 0. -1.
     999902    2    1    2    0    0  0.19144828702E-01 -0.20281664888E-02 -0.77768420779E-02  0.10231666381E+01  0.10229559385E+01 0.  0.
     999903    2    3    3    0    0  0.11621519112E+00  0.21233387528E-02 -0.67853382466E-01  0.13578336071E+00  0.17959964379E-01 0.  0.
         14    1    1    2    0    0 -0.19144828702E-01  0.20281664888E-02  0.77768420779E-02  0.20763361916E-01  0.00000000000E+00 0.  1.
     999901    1    3    3    0    0 -0.97070362414E-01 -0.41515052416E-02  0.60076540388E-01  0.88738327737E+00  0.88000000000E+00 0. -1.
        -11    1    4    4    0    0  0.81090962558E-01 -0.63347976603E-02 -0.50035104923E-01  0.95496841391E-01  0.51100000000E-03 0.  1.
         11    1    4    4    0    0  0.35124228559E-01  0.84581364131E-02 -0.17818277542E-01  0.40286519321E-01  0.51100000000E-03 0. -1.
</event>
<event>
 8    1  0.1097777E+005  0.1043930E+01  0.7957747E-01            NaN
         13   -1    0    0    0    0  0.00000000000E+00  0.00000000000E+00  0.74505805969E-08  0.10566000000E+00  0.10566000000E+00 0.  1.
     999900   -1    0    0    0    0 -0.00000000000E+00 -0.00000000000E+00 -0.74505805969E-08  0.93827000000E+00  0.93827000000E+00 0. -1.
     999902    2    1    2    0    0  0.13238653934E-02 -0.20037659137E-01 -0.12653282364E-01  0.10201946686E+01  0.10199185241E+01 0.  0.
     999903    2    3    3    0    0 -0.11728339592E+00 -0.47794890186E-01 -0.29792710896E-01  0.13163858913E+00  0.20034121839E-01 0.  0.
         14    1    1    2    0    0 -0.13238653934E-02  0.20037659137E-01  0.12653282364E-01  0.23735331425E-01  0.00000000000E+00 0.  1.
     999901    1    3    3    0    0  0.11860726132E+00  0.27757231049E-01  0.17139428533E-01  0.88855607945E+00  0.88000000000E+00 0. -1.
        -11    1    4    4    0    0 -0.34071502446E-01 -0.19271273536E-01 -0.17262176868E-01  0.42784262690E-01  0.51100000000E-03 0. -1.
         11    1    4    4    0    0 -0.83211893477E-01 -0.28523616650E-01 -0.12530534028E-01  0.88854326438E-01  0.51100000000E-03 0.  1.
</event>
<event>
 8    1  0.1097777E+005  0.1043930E+01  0.7957747E-01            NaN
         13   -1    0    0    0    0  0.00000000000E+00  0.00000000000E+00  0.74505805969E-08  0.10566000000E+00  0.10566000000E+00 0.  1.
     999900   -1    0    0    0    0 -0.00000000000E+00 -0.00000000000E+00 -0.74505805969E-08  0.93827000000E+00  0.93827000000E+00 0. -1.
     999902    2    1    2    0    0 -0.12020977471E-01 -0.17668106902E-01 -0.10819332347E-01  0.10199774667E+01  0.10196961845E+01 0.  0.
     999903    2    3    3    0    0 -0.44889720071E-02 -0.10431243595E+00 -0.79832973979E-01  0.13300122482E+00  0.20366317912E-01 0.  0.
         14    1    1    2    0    0  0.12020977471E-01  0.17668106902E-01  0.10819332347E-01  0.23952533337E-01  0.00000000000E+00 0.  1.
     999901    1    3    3    0    0 -0.75320054635E-02  0.86644329050E-01  0.69013641632E-01  0.88697624184E+00  0.88000000000E+00 0. -1.
        -11    1    4    4    0    0  0.81042628261E-02 -0.41078933370E-01 -0.32862785014E-01  0.53229518152E-01  0.51100000000E-03 0.  1.
         11    1    4    4    0    0 -0.12593234833E-01 -0.63233502582E-01 -0.46970188965E-01  0.79771706668E-01  0.51100000000E-03 0. -1.
</event>
<event>
 8    1  0.1097777E+005  0.1043930E+01  0.7957747E-01            NaN
         13   -1    0    0    0    0  0.00000000000E+00  0.00000000000E+00  0.74505805969E-08  0.10566000000E+00  0.10566000000E+00 0.  1.
     999900   -1    0    0    0    0 -0.00000000000E+00 -0.00000000000E+00 -0.74505805969E-08  0.93827000000E+00  0.93827000000E+00 0.  1.
     999902    2    1    2    0    0 -0.13276156880E-01 -0.16097578950E-01  0.12177034680E-01  0.10197707665E+01  0.10194845500E+01 0.  0.
     999903    2    3    3    0    0 -0.86827291543E-01 -0.81231079221E-01 -0.53385380501E-01  0.13187968503E+00  0.20119286400E-01 0.  0.
         14    1    1    2    0    0  0.13276156880E-01  0.16097578950E-01 -0.12177034680E-01  0.24159233497E-01  0.00000000000E+00 0. -1.
     999901    1    3    3    0    0  0.73551134663E-01  0.65133500271E-01  0.65562415182E-01  0.88789108147E+00  0.88000000000E+00 0. -1.
        -11    1    4    4    0    0 -0.21058813789E-01 -0.32267490344E-01 -0.19041670531E-01  0.42982681500E-01  0.51100000000E-03 0. -1.
         11    1    4    4    0    0 -0.65768477755E-01 -0.48963588877E-01 -0.34343709970E-01  0.88897003534E-01  0.51100000000E-03 0.  1.
</event>
<event>
 8    1  0.1097777E+005  0.1043930E+01  0.7957747E-01            NaN
         13   -1    0    0    0    0  0.00000000000E+00  0.00000000000E+00  0.74505805969E-08  0.10566000000E+00  0.10566000000E+00 0. -1.
     999900   -1    0    0    0    0 -0.00000000000E+00 -0.00000000000E+00 -0.74505805969E-08  0.93827000000E+00  0.93827000000E+00 0. -1.
     999902    2    1    2    0    0  0.12578042937E-01 -0.14508505109E-01  0.10969589133E-01  0.10218158468E+01  0.10215765214E+01 0.  0.
     999903    2    3    3    0    0 -0.82136412744E-01 -0.99122337263E-01 -0.10755528924E-01  0.13243274071E+00  0.29173984397E-01 0.  0.
         14    1    1    2    0    0 -0.12578042937E-01  0.14508505109E-01 -0.10969589133E-01  0.22114153169E-01  0.00000000000E+00 0.  1.
     999901    1    3    3    0    0  0.94714455681E-01  0.84613832154E-01  0.21725118057E-01  0.88938310613E+00  0.88000000000E+00 0. -1.
        -11    1    4    4    0    0 -0.25741649340E-01 -0.49914326456E-01  0.33704333710E-02  0.56264495363E-01  0.51100000000E-03 0.  1.
         11    1    4    4    0    0 -0.56394763403E-01 -0.49208010807E-01 -0.14125962295E-01  0.76168245343E-01  0.51100000000E-03 0. -1.
</event>
<event>
 8    1  0.1097777E+005  0.1043930E+01  0.7957747E-01            NaN
         13   -1    0    0    0    0  0.00000000000E+00  0.00000000000E+00  0.74505805969E-08  0.10566000000E+00  0.10566000000E+00 0. -1.
     999900   -1    0    0    0    0 -0.00000000000E+00 -0.00000000000E+00 -0.74505805969E-08  0.93827000000E+00  0.93827000000E+00 0.  1.
     999902    2    1    2    0    0 -0.10449815608E-01  0.17243545658E-01 -0.13050624547E-01  0.10199121459E+01  0.10196293092E+01 0.  0.
     999903    2    3    3    0    0  0.55260370488E-01 -0.33876822294E-01 -0.11184158958E+00  0.13047930678E+00  0.17747132291E-01 0.  0.
         14    1    1    2    0    0  0.10449815608E-01 -0.17243545658E-01  0.13050624547E-01  0.24017854071E-01  0.00000000000E+00 0. -1.
     999901    1    3    3    0    0 -0.65710186096E-01  0.51120367952E-01  0.98790965031E-01  0.88943283914E+00  0.88000000000E+00 0. -1.
        -11    1    4    4    0    0  0.13386577700E-01 -0.85379126544E-02 -0.14425910831E-01  0.21458435155E-01  0.51100000000E-03 0. -1.
         11    1    4    4    0    0  0.41873792788E-01 -0.25338909640E-01 -0.97415678747E-01  0.10902087163E+00  0.51100000000E-03 0.  1.
</event>
<event>
 8    1  0.1097777E+005  0.1043930E+01  0.7957747E-01            NaN
         13   -1    0    0    0    0  0.00000000000E+00  0.00000000000E+00  0.74505805969E-08  0.10566000000E+00  0.10566000000E+00 0.  1.
     999900   -1    0    0    0    0 -0.00000000000E+00 -0.00000000000E+00 -0.74505805969E-08  0.93827000000E+00  0.93827000000E+00 0.  1.
     999902    2    1    2    0    0 -0.69103161092E-02  0.28060396555E-01  0.45688509268E-02  0.10146723049E+01  0.10142503999E+01 0.  0.
     999903    2    3    3    0    0  0.43209635353E-01 -0.36106098655E-01 -0.10837356516E+00  0.12372598890E+00  0.19813322732E-01 0.  0.
         14    1    1    2    0    0  0.69103161092E-02 -0.28060396555E-01 -0.45688509268E-02  0.29257695096E-01  0.00000000000E+00 0.  1.
     999901    1    3    3    0    0 -0.50119951462E-01  0.64166495210E-01  0.11294241609E+00  0.89094631600E+00  0.88000000000E+00 0. -1.
        -11    1    4    4    0    0  0.21496815809E-01 -0.68029801922E-02 -0.32732733887E-01  0.39750303372E-01  0.51100000000E-03 0. -1.
         11    1    4    4    0    0  0.21712819544E-01 -0.29303118463E-01 -0.75640831272E-01  0.83975685533E-01  0.51100000000E-03 0.  1.
</event>
<event>
 8    1  0.1097777E+005  0.1043930E+01  0.7957747E-01            NaN
         13   -1    0    0    0    0  0.00000000000E+00  0.00000000000E+00  0.74505805969E-08  0.10566000000E+00  0.10566000000E+00 0.  1.
     999900   -1    0    0    0    0 -0.00000000000E+00 -0.00000000000E+00 -0.74505805969E-08  0.93827000000E+00  0.93827000000E+00 0.  1.
     999902    2    1    2    0    0  0.13000814736E-02 -0.21868973371E-01  0.61975476769E-02  0.10211626592E+01  0.10209088230E+01 0.  0.
     999903    2    3    3    0    0 -0.80276724649E-01 -0.96705915269E-01  0.39896081100E-01  0.13358678399E+00  0.21385626042E-01 0.  0.
         14    1    1    2    0    0 -0.13000814736E-02  0.21868973371E-01 -0.61975476769E-02  0.22767340761E-01  0.00000000000E+00 0. -1.
     999901    1    3    3    0    0  0.81576806122E-01  0.74836941898E-01 -0.33698533423E-01  0.88757587525E+00  0.88000000000E+00 0.  1.
        -11    1    4    4    0    0 -0.63710642702E-01 -0.61457935251E-01  0.28696278115E-01  0.93058375751E-01  0.51100000000E-03 0. -1.
         11    1    4    4    0    0 -0.16566081946E-01 -0.35247980019E-01  0.11199802985E-01  0.40528408238E-01  0.51100000000E-03 0.  1.
</event>
<event>
 8    1  0.1097777E+005  0.1043930E+01  0.7957747E-01            NaN
         13   -1    0    0    0    0  0.00000000000E+00  0.00000000000E+00  0.74505805969E-08  0.10566000000E+00  0.10566000000E+00 0.  1.
     999900   -1    0    0    0    0 -0.00000000000E+00 -0.00000000000E+00 -0.74505805969E-08  0.93827000000E+00  0.93827000000E+00 0. -1.
     999902    2    1    2    0    0  0.79925193979E-02  0.10650300055E-01 -0.19466867650E-01  0.10203446615E+01  0.10200720367E+01 0.  0.
     999903    2    3    3    0    0  0.11731809492E+00 -0.48573279202E-01 -0.25618655035E-01  0.13158296208E+00  0.23127074566E-01 0.  0.
         14    1    1    2    0    0 -0.79925193979E-02 -0.10650300055E-01  0.19466867650E-01  0.23585338533E-01  0.00000000000E+00 0.  1.
     999901    1    3    3    0    0 -0.10932557552E+00  0.59223579257E-01  0.61517873844E-02  0.88876169938E+00  0.88000000000E+00 0. -1.
        -11    1    4    4    0    0  0.92227409929E-01 -0.28115323610E-01 -0.15473026446E-01  0.97652661164E-01  0.51100000000E-03 0. -1.
         11    1    4    4    0    0  0.25090684986E-01 -0.20457955592E-01 -0.10145628589E-01  0.33930300920E-01  0.51100000000E-03 0.  1.
</event>
<event>
 8    1  0.1097777E+005  0.1043930E+01  0.7957747E-01            NaN
         13   -1    0    0    0    0  0.00000000000E+00  0.00000000000E+00  0.74505805969E-08  0.10566000000E+00  0.10566000000E+00 0. -1.
     999900   -1    0    0    0    0 -0.00000000000E+00 -0.00000000000E+00 -0.74505805969E-08  0.93827000000E+00  0.93827000000E+00 0. -1.
     999902    2    1    2    0    0  0.14210222310E-01  0.19173038362E-01  0.23633663504E-02  0.10199483128E+01  0.10196663374E+01 0.  0.
     999903    2    3    3    0    0 -0.65206965725E-01 -0.10783260912E+00 -0.64896449506E-02  0.12724685096E+00  0.16426369667E-01 0.  0.
         14    1    1    2    0    0 -0.14210222310E-01 -0.19173038362E-01 -0.23633663504E-02  0.23981687151E-01  0.00000000000E+00 0. -1.
     999901    1    3    3    0    0  0.79417188035E-01  0.12700564748E+00  0.88530113011E-02  0.89270146189E+00  0.88000000000E+00 0.  1.
        -11    1    4    4    0    0 -0.45240498171E-01 -0.87901609096E-01 -0.54144914715E-02  0.99009966141E-01  0.51100000000E-03 0. -1.
         11    1    4    4    0    0 -0.19966467555E-01 -0.19931000020E-01 -0.10751534791E-02  0.28236884821E-01  0.51100000000E-03 0.  1.
</event>
<event>
 8    1  0.1097777E+005  0.1043930E+01  0.7957747E-01            NaN
         13   -1    0    0    0    0  0.00000000000E+00  0.00000000000E+00  0.74505805969E-08  0.10566000000E+00  0.10566000000E+00 0. -1.
     999900   -1    0    0    0    0 -0.00000000000E+00 -0.00000000000E+00 -0.74505805969E-08  0.93827000000E+00  0.93827000000E+00 0.  1.
     999902    2    1    2    0    0 -0.43191025997E-02 -0.22720619237E-01  0.43369204190E-02  0.10203993803E+01  0.10201280337E+01 0.  0.
     999903    2    3    3    0    0 -0.73849989929E-01  0.10337949649E+00 -0.38282094763E-03  0.12868302434E+00  0.20445852752E-01 0.  0.
         14    1    1    2    0    0  0.43191025997E-02  0.22720619237E-01 -0.43369204190E-02  0.23530619722E-01  0.00000000000E+00 0. -1.
     999901    1    3    3    0    0  0.69530887330E-01 -0.12610011573E+00  0.47197413667E-02  0.89171635593E+00  0.88000000000E+00 0.  1.
        -11    1    4    4    0    0 -0.31509442782E-01  0.32920794274E-01  0.71694614345E-02  0.46133349958E-01  0.51100000000E-03 0. -1.
         11    1    4    4    0    0 -0.42340547148E-01  0.70458702220E-01 -0.75522823822E-02  0.82549674387E-01  0.51100000000E-03 0.  1.
</event>
<event>
 8    1  0.1097777E+005  0.1043930E+01  0.7957747E-01            NaN
         13   -1    0    0    0    0  0.00000000000E+00  0.00000000000E+00  0.74505805969E-08  0.10566000000E+00  0.10566000000E+00 0. -1.
     999900   -1    0    0    0    0 -0.00000000000E+00 -0.00000000000E+00 -0.74505805969E-08  0.93827000000E+00  0.93827000000E+00 0.  1.
     999902    2    1    2    0    0 -0.10378059945E-01 -0.21138382892E-01 -0.82369550918E-02  0.10189823991E+01  0.10186769591E+01 0.  0.
     999903    2    3    3    0    0 -0.62544990099E-01  0.86619816688E-03 -0.11333552658E+00  0.13092198457E+00  0.19570344242E-01 0.  0.
         14    1    1    2    0    0  0.10378059945E-01  0.21138382892E-01  0.82369550918E-02  0.24947600861E-01  0.00000000000E+00 0. -1.
     999901    1    3    3    0    0  0.52166930153E-01 -0.22004581059E-01  0.10509857149E+00  0.88806041457E+00  0.88000000000E+00 0. -1.
        -11    1    4    4    0    0 -0.50722190583E-01 -0.71670248797E-02 -0.89512752041E-01  0.10313535166E+00  0.51100000000E-03 0. -1.
         11    1    4    4    0    0 -0.11822799516E-01  0.80332230466E-02 -0.23822774540E-01  0.27786632914E-01  0.51100000000E-03 0.  1.
</event>
<event>
 8    1  0.1097777E+005  0.1043930E+01  0.7957747E-01            NaN
         13   -1    0    0    0    0  0.00000000000E+00  0.00000000000E+00  0.74505805969E-08  0.10566000000E+00  0.10566000000E+00 0. -1.
     999900   -1    0    0    0    0 -0.00000000000E+00 -0.00000000000E+00 -0.74505805969E-08  0.93827000000E+00  0.93827000000E+00 0. -1.
     999902    2    1    2    0    0  0.12381372086E-01  0.11041543562E-01 -0.29134905994E-01  0.10104030436E+01  0.10098466486E+01 0.  0.
     999903    2    3    3    0    0 -0.11966055940E-01  0.19079213158E-01  0.11450118013E+00  0.11838918348E+00  0.19956844552E-01 0.  0.
         14    1    1    2    0    0 -0.12381372086E-01 -0.11041543562E-01  0.29134905994E-01  0.33526956412E-01  0.00000000000E+00 0. -1.
     999901    1    3    3    0    0  0.24347428027E-01 -0.80376695958E-02 -0.14363608613E+00  0.89201386011E+00  0.88000000000E+00 0. -1.
        -11    1    4    4    0    0 -0.52705372297E-02  0.65513914560E-02  0.10693608479E-01  0.13612996585E-01  0.51100000000E-03 0.  1.
         11    1    4    4    0    0 -0.66955187108E-02  0.12527821702E-01  0.10380757165E+00  0.10477618690E+00  0.51100000000E-03 0. -1.
</event>
<event>
 8    1  0.1097777E+005  0.1043930E+01  0.7957747E-01            NaN
         13   -1    0    0    0    0  0.00000000000E+00  0.00000000000E+00  0.74505805969E-08  0.10566000000E+00  0.10566000000E+00 0.  1.
     999900   -1    0    0    0    0 -0.00000000000E+00 -0.00000000000E+00 -0.74505805969E-08  0.93827000000E+00  0.93827000000E+00 0.  1.
     999902    2    1    2    0    0  0.19722148086E-01 -0.86301835103E-03 -0.12577823502E-01  0.10205225318E+01  0.10202540508E+01 0.  0.
     999903    2    3    3    0    0 -0.35063749540E-02 -0.32478956120E-01 -0.12677382773E+00  0.13227714945E+00  0.18933135275E-01 0.  0.
         14    1    1    2    0    0 -0.19722148086E-01  0.86301835103E-03  0.12577823502E-01  0.23407468249E-01  0.00000000000E+00 0.  1.
     999901    1    3    3    0    0  0.23228523040E-01  0.31615937769E-01  0.11419600423E+00  0.88824538231E+00  0.88000000000E+00 0. -1.
        -11    1    4    4    0    0  0.11149178069E-02 -0.86746995846E-02 -0.69909870557E-01  0.70456685821E-01  0.51100000000E-03 0.  1.
         11    1    4    4    0    0 -0.46212927609E-02 -0.23804256536E-01 -0.56863957177E-01  0.61820463625E-01  0.51100000000E-03 0. -1.
</event>
<event>
 8    1  0.1097777E+005  0.1043930E+01  0.7957747E-01            NaN
         13   -1    0    0    0    0  0.00000000000E+00  0.00000000000E+00  0.74505805969E-08  0.10566000000E+00  0.10566000000E+00 0.  1.
     999900   -1    0    0    0    0 -0.00000000000E+00 -0.00000000000E+00 -0.74505805969E-08  0.93827000000E+00  0.93827000000E+00 0.  1.
     999902    2    1    2    0    0 -0.57386413885E-02 -0.13607375984E-01 -0.18070318680E-01  0.10205927100E+01  0.10203258551E+01 0.  0.
     999903    2    3    3    0    0 -0.16123924969E-01 -0.68861701163E-01 -0.11192847688E+00  0.13381751392E+00  0.19422364767E-01 0.  0.
         14    1    1    2    0    0  0.57386413885E-02  0.13607375984E-01  0.18070318680E-01  0.23337289974E-01  0.00000000000E+00 0.  1.
     999901    1    3    3    0    0  0.10385283581E-01  0.55254325179E-01  0.93858158196E-01  0.88677519610E+00  0.88000000000E+00 0. -1.
        -11    1    4    4    0    0 -0.12363560326E-02 -0.32819857996E-01 -0.64766190678E-01  0.72619503104E-01  0.51100000000E-03 0. -1.
         11    1    4    4    0    0 -0.14887568937E-01 -0.36041843167E-01 -0.47162286197E-01  0.61198010818E-01  0.51100000000E-03 0.  1.
</event>
<event>
 8    1  0.1097777E+005  0.1043930E+01  0.7957747E-01            NaN
         13   -1    0    0    0    0  0.00000000000E+00  0.00000000000E+00  0.74505805969E-08  0.10566000000E+00  0.10566000000E+00 0. -1.
     999900   -1    0    0    0    0 -0.00000000000E+00 -0.00000000000E+00 -0.74505805969E-08  0.93827000000E+00  0.93827000000E+00 0.  1.
     999902    2    1    2    0    0  0.82254003876E-03  0.80114868694E-02 -0.22262595111E-01  0.10202554644E+01  0.10199807493E+01 0.  0.
     999903    2    3    3    0    0  0.92805066200E-01  0.90658898556E-01 -0.72115511862E-02  0.13148220104E+00  0.20093444681E-01 0.  0.
         14    1    1    2    0    0 -0.82254003876E-03 -0.80114868694E-02  0.22262595111E-01  0.23674535583E-01  0.00000000000E+00 0. -1.
     999901    1    3    3    0    0 -0.91982526161E-01 -0.82647411686E-01 -0.15051043925E-01  0.88877326338E+00  0.88000000000E+00 0.  1.
        -11    1    4    4    0    0  0.87390473212E-01  0.77354477141E-01 -0.41296585348E-02  0.11678238370E+00  0.51100000000E-03 0.  1.
         11    1    4    4    0    0  0.54145929872E-02  0.13304421415E-01 -0.30818926514E-02  0.14699817336E-01  0.51100000000E-03 0. -1.
</event>
<event>
 8    1  0.1097777E+005  0.1043930E+01  0.7957747E-01            NaN
         13   -1    0    0    0    0  0.00000000000E+00  0.00000000000E+00  0.74505805969E-08  0.10566000000E+00  0.10566000000E+00 0. -1.
     999900   -1    0    0    0    0 -0.00000000000E+00 -0.00000000000E+00 -0.74505805969E-08  0.93827000000E+00  0.93827000000E+00 0. -1.
     999902    2    1    2    0    0 -0.55551946293E-02  0.10371024725E-01  0.19227374394E-01  0.10213886986E+01  0.10211399333E+01 0.  0.
     999903    2    3    3    0    0 -0.46563004367E-01 -0.11998351891E+00  0.12660279699E-01  0.13081749191E+00  0.19717386282E-01 0.  0.
         14    1    1    2    0    0  0.55551946293E-02 -0.10371024725E-01 -0.19227374394E-01  0.22541301367E-01  0.00000000000E+00 0.  1.
     999901    1    3    3    0    0  0.41007809738E-01  0.13035454364E+00  0.65670946945E-02  0.89057120672E+00  0.88000000000E+00 0. -1.
        -11    1    4    4    0    0 -0.32238470109E-02 -0.31508204030E-01  0.25685305837E-02  0.31780789498E-01  0.51100000000E-03 0.  1.
         11    1    4    4    0    0 -0.43339157356E-01 -0.88475314883E-01  0.10091749116E-01  0.99036702415E-01  0.51100000000E-03 0. -1.
</event>
<event>
 8    1  0.1097777E+005  0.1043930E+01  0.7957747E-01            NaN
         13   -1    0    0    0    0  0.00000000000E+00  0.00000000000E+00  0.74505805969E-08  0.10566000000E+00  0.10566000000E+00 0. -1.
     999900   -1    0    0    0    0 -0.00000000000E+00 -0.00000000000E+00 -0.74505805969E-08  0.93827000000E+00  0.93827000000E+00 0. -1.
     999902    2    1    2    0    0 -0.13773632717E-01 -0.12107592056E-01  0.67595938776E-02  0.10243852091E+01  0.10241987393E+01 0.  0.
     999903    2    3    3    0    0 -0.30120122179E-01 -0.70058575106E-01 -0.10924756986E+00  0.13473180115E+00  0.20054949938E-01 0.  0.
         14    1    1    2    0    0  0.13773632717E-01  0.12107592056E-01 -0.67595938776E-02  0.19544790943E-01  0.00000000000E+00 0. -1.
     999901    1    3    3    0    0  0.16346489462E-01  0.57950983050E-01  0.11600716373E+00  0.88965340790E+00  0.88000000000E+00 0.  1.
        -11    1    4    4    0    0 -0.89383317260E-04 -0.22073551228E-01 -0.26866695717E-01  0.34775423979E-01  0.51100000000E-03 0.  1.
         11    1    4    4    0    0 -0.30030738862E-01 -0.47985023879E-01 -0.82380874139E-01  0.99956377176E-01  0.51100000000E-03 0. -1.
</event>
<event>
 8    1  0.1097777E+005  0.1043930E+01  0.7957747E-01            NaN
         13   -1    0    0    0    0  0.00000000000E+00  0.00000000000E+00  0.74505805969E-08  0.10566000000E+00  0.10566000000E+00 0. -1.
     999900   -1    0    0    0    0 -0.00000000000E+00 -0.00000000000E+00 -0.74505805969E-08  0.93827000000E+00  0.93827000000E+00 0. -1.
     999902    2    1    2    0    0 -0.94276822407E-02 -0.17801975695E-01  0.13719908608E-01  0.10195573222E+01  0.10192659642E+01 0.  0.
     999903    2    3    3    0    0 -0.57421425185E-01  0.10027363472E+00 -0.51509928854E-01  0.12798557476E+00  0.19365244239E-01 0.  0.
         14    1    1    2    0    0  0.94276822407E-02  0.17801975695E-01 -0.13719908608E-01  0.24372677803E-01  0.00000000000E+00 0.  1.
     999901    1    3    3    0    0  0.47993742944E-01 -0.11807561042E+00  0.65229837462E-01  0.89157174744E+00  0.88000000000E+00 0.  1.
        -11    1    4    4    0    0 -0.12926021185E-01  0.22213432153E-01 -0.20677973844E-01  0.32990276067E-01  0.51100000000E-03 0.  1.
         11    1    4    4    0    0 -0.44495404000E-01  0.78060202571E-01 -0.30831955010E-01  0.94995298690E-01  0.51100000000E-03 0. -1.
</event>
<event>
 8    1  0.1097777E+005  0.1043930E+01  0.7957747E-01            NaN
         13   -1    0    0    0    0  0.00000000000E+00  0.00000000000E+00  0.74505805969E-08  0.10566000000E+00  0.10566000000E+00 0. -1.
     999900   -1    0    0    0    0 -0.00000000000E+00 -0.00000000000E+00 -0.74505805969E-08  0.93827000000E+00  0.93827000000E+00 0.  1.
     999902    2    1    2    0    0 -0.14012577851E-03  0.10634299207E-01  0.20922937077E-01  0.10204592256E+01  0.10201892736E+01 0.  0.
     999903    2    3    3    0    0 -0.74873484159E-01  0.24394922796E-01 -0.10000972611E+00  0.12894414517E+00  0.20579027392E-01 0.  0.
         14    1    1    2    0    0  0.14012577851E-03 -0.10634299207E-01 -0.20922937077E-01  0.23470774397E-01  0.00000000000E+00 0.  1.
     999901    1    3    3    0    0  0.74733358381E-01 -0.13760623589E-01  0.12093266319E+00  0.89151508043E+00  0.88000000000E+00 0. -1.
        -11    1    4    4    0    0 -0.39623592580E-01  0.74644859813E-02 -0.64795190673E-01  0.76317923813E-01  0.51100000000E-03 0. -1.
         11    1    4    4    0    0 -0.35249891580E-01  0.16930436814E-01 -0.35214535438E-01  0.52626221356E-01  0.51100000000E-03 0.  1.
</event>
<event>
 8    1  0.1097777E+005  0.1043930E+01  0.7957747E-01            NaN
         13   -1    0    0    0    0  0.00000000000E+00  0.00000000000E+00  0.74505805969E-08  0.10566000000E+00  0.10566000000E+00 0.  1.
     999900   -1    0    0    0    0 -0.00000000000E+00 -0.00000000000E+00 -0.74505805969E-08  0.93827000000E+00  0.93827000000E+00 0. -1.
     999902    2    1    2    0    0 -0.62361924501E-03  0.12249143941E-01 -0.20389923256E-01  0.10201354754E+01  0.10198579356E+01 0.  0.
     999903    2    3    3    0    0 -0.10476923032E+00  0.68751802363E-01  0.28239906096E-01  0.13086402138E+00  0.24989954900E-01 0.  0.
         14    1    1    2    0    0  0.62361924501E-03 -0.12249143941E-01  0.20389923256E-01  0.23794524552E-01  0.00000000000E+00 0.  1.
     999901    1    3    3    0    0  0.10414561107E+00 -0.56502658422E-01 -0.48629829351E-01  0.88927145407E+00  0.88000000000E+00 0.  1.
        -11    1    4    4    0    0 -0.63485627657E-01  0.29423544905E-01  0.22751187692E-01  0.73580211852E-01  0.51100000000E-03 0.  1.
         11    1    4    4    0    0 -0.41283602662E-01  0.39328257458E-01  0.54887184040E-02  0.57283809530E-01  0.51100000000E-03 0. -1.
</event>
<event>
 8    1  0.1881863E+005  0.1043930E+01  0.7957747E-01            NaN
         13   -1    0    0    0    0  0.00000000000E+00  0.00000000000E+00  0.74505805969E-08  0.10566000000E+00  0.10566000000E+00 0.  1.
     999900   -1    0    0    0    0 -0.00000000000E+00 -0.00000000000E+00 -0.74505805969E-08  0.93827000000E+00  0.93827000000E+00 0.  1.
     999902    2    1    2    0    0 -0.17891745840E-01  0.15325372900E-01  0.46385183160E-02  0.10199196382E+01  0.10196369799E+01 0.  0.
     999903    2    3    3    0    0 -0.16245285956E-01  0.25873926618E-01 -0.12523526220E+00  0.13032356033E+00  0.19156985278E-01 0.  0.
         14    1    1    2    0    0  0.17891745840E-01 -0.15325372900E-01 -0.46385183160E-02  0.24010361845E-01  0.00000000000E+00 0. -1.
     999901    1    3    3    0    0 -0.16464598844E-02 -0.10548553718E-01  0.12987378051E+00  0.88959607782E+00  0.88000000000E+00 0. -1.
        -11    1    4    4    0    0 -0.54460068161E-02  0.22478043194E-01 -0.64098864357E-01  0.68145777191E-01  0.51100000000E-03 0.  1.
         11    1    4    4    0    0 -0.10799279140E-01  0.33958834237E-02 -0.61136397841E-01  0.62177783140E-01  0.51100000000E-03 0. -1.
</event>
<event>
 8    1  0.1097777E+005  0.1043930E+01  0.7957747E-01            NaN
         13   -1    0    0    0    0  0.00000000000E+00  0.00000000000E+00  0.74505805969E-08  0.10566000000E+00  0.10566000000E+00 0.  1.
     999900   -1    0    0    0    0 -0.00000000000E+00 -0.00000000000E+00 -0.74505805969E-08  0.93827000000E+00  0.93827000000E+00 0.  1.
     999902    2    1    2    0    0  0.14218565629E-01 -0.16380450111E-01 -0.92129343534E-02  0.10203638184E+01  0.10200916415E+01 0.  0.
     999903    2    3    3    0    0  0.10382560486E+00  0.30910026185E-01 -0.71944264532E-01  0.13233170729E+00  0.24505460876E-01 0.  0.
         14    1    1    2    0    0 -0.14218565629E-01  0.16380450111E-01  0.92129343534E-02  0.23566181570E-01  0.00000000000E+00 0.  1.
     999901    1    3    3    0    0 -0.89607039229E-01 -0.47290476296E-01  0.62731330178E-01  0.88803211114E+00  0.88000000000E+00 0. -1.
        -11    1    4    4    0    0  0.80008215346E-01  0.25680123409E-01 -0.66939294996E-01  0.10743329836E+00  0.51100000000E-03 0. -1.
         11    1    4    4    0    0  0.23817389511E-01  0.52299027762E-02 -0.50049695354E-02  0.24898408930E-01  0.51100000000E-03 0.  1.
</event>
<event>
 8    1  0.1097777E+005  0.1043930E+01  0.7957747E-01            NaN
         13   -1    0    0    0    0  0.00000000000E+00  0.00000000000E+00  0.74505805969E-08  0.10566000000E+00  0.10566000000E+00 0.  1.
     999900   -1    0    0    0    0 -0.00000000000E+00 -0.00000000000E+00 -0.74505805969E-08  0.93827000000E+00  0.93827000000E+00 0.  1.
     999902    2    1    2    0    0  0.18372305426E-01 -0.14684542316E-02  0.15822367424E-01  0.10196391524E+01  0.10193497711E+01 0.  0.
     999903    2    3    3    0    0 -0.80868663477E-01 -0.97913550603E-01  0.13951368757E-01  0.12882271390E+00  0.16548317228E-01 0.  0.
         14    1    1    2    0    0 -0.18372305426E-01  0.14684542316E-02 -0.15822367424E-01  0.24290847564E-01  0.00000000000E+00 0. -1.
     999901    1    3    3    0    0  0.99240968904E-01  0.96445096371E-01  0.18709986664E-02  0.89081643853E+00  0.88000000000E+00 0.  1.
        -11    1    4    4    0    0 -0.65279560676E-01 -0.80768675036E-01  0.17680730248E-01  0.10534642496E+00  0.51100000000E-03 0. -1.
         11    1    4    4    0    0 -0.15589102801E-01 -0.17144875567E-01 -0.37293614912E-02  0.23476288942E-01  0.51100000000E-03 0.  1.
</event>
<event>
 8    1  0.1097777E+005  0.1043930E+01  0.7957747E-01            NaN
         13   -1    0    0    0    0  0.00000000000E+00  0.00000000000E+00  0.74505805969E-08  0.10566000000E+00  0.10566000000E+00 0. -1.
     999900   -1    0    0    0    0 -0.00000000000E+00 -0.00000000000E+00 -0.74505805969E-08  0.93827000000E+00  0.93827000000E+00 0. -1.
     999902    2    1    2    0    0  0.64074689373E-02 -0.20457633941E-01  0.86281089367E-02  0.10208212417E+01  0.10205596469E+01 0.  0.
     999903    2    3    3    0    0  0.49713411534E-01 -0.70608939298E-01  0.99949936006E-01  0.13361763816E+00  0.20165265331E-01 0.  0.
         14    1    1    2    0    0 -0.64074689373E-02  0.20457633941E-01 -0.86281089367E-02  0.23108758263E-01  0.00000000000E+00 0.  1.
     999901    1    3    3    0    0 -0.43305942596E-01  0.50151305357E-01 -0.91321827070E-01  0.88720360357E+00  0.88000000000E+00 0. -1.
        -11    1    4    4    0    0  0.25448564077E-01 -0.23997546617E-01  0.50683319978E-01  0.61583859105E-01  0.51100000000E-03 0.  1.
         11    1    4    4    0    0  0.24264847456E-01 -0.46611392681E-01  0.49266616028E-01  0.72033779060E-01  0.51100000000E-03 0. -1.
</event>
<event>
 8    1  0.1097777E+005  0.1043930E+01  0.7957747E-01            NaN
         13   -1    0    0    0    0  0.00000000000E+00  0.00000000000E+00  0.74505805969E-08  0.10566000000E+00  0.10566000000E+00 0. -1.
     999900   -1    0    0    0    0 -0.00000000000E+00 -0.00000000000E+00 -0.74505805969E-08  0.93827000000E+00  0.93827000000E+00 0. -1.
     999902    2    1    2    0    0  0.71206208391E-02 -0.19572699786E-01  0.76883616446E-02  0.10217285423E+01  0.10214873027E+01 0.  0.
     999903    2    3    3    0    0  0.21004469154E-01  0.11003358636E+00 -0.61244487001E-01  0.12946048380E+00  0.21460471247E-01 0.  0.
         14    1    1    2    0    0 -0.71206208391E-02  0.19572699786E-01 -0.76883616446E-02  0.22201457673E-01  0.00000000000E+00 0.  1.
     999901    1    3    3    0    0 -0.13883848315E-01 -0.12960628614E+00  0.68932848646E-01  0.89226805853E+00  0.88000000000E+00 0. -1.
        -11    1    4    4    0    0  0.13254523540E-01  0.82937514157E-01 -0.55562309176E-01  0.10070623104E+00  0.51100000000E-03 0. -1.
         11    1    4    4    0    0  0.77499456144E-02  0.27096072198E-01 -0.56821778247E-02  0.28754252754E-01  0.51100000000E-03 0.  1.
</event>
<event>
 8    1  0.1097777E+005  0.1043930E+01  0.7957747E-01            NaN
         13   -1    0    0    0    0  0.00000000000E+00  0.00000000000E+00  0.74505805969E-08  0.10566000000E+00  0.10566000000E+00 0. -1.
     999900   -1    0    0    0    0 -0.00000000000E+00 -0.00000000000E+00 -0.74505805969E-08  0.93827000000E+00  0.93827000000E+00 0.  1.
     999902    2    1    2    0    0 -0.10018526938E-01 -0.96749830593E-02 -0.19443169151E-01  0.10200132066E+01  0.10197327732E+01 0.  0.
     999903    2    3    3    0    0  0.98351604740E-01 -0.77356048957E-01  0.26831112943E-01  0.12958290541E+00  0.20367235636E-01 0.  0.
         14    1    1    2    0    0  0.10018526938E-01  0.96749830593E-02  0.19443169151E-01  0.23916793385E-01  0.00000000000E+00 0. -1.
     999901    1    3    3    0    0 -0.10837013168E+00  0.67681065898E-01 -0.46274282094E-01  0.89043030121E+00  0.88000000000E+00 0.  1.
        -11    1    4    4    0    0  0.52606336771E-01 -0.28960372029E-01  0.15601278032E-01  0.62046682536E-01  0.51100000000E-03 0.  1.
         11    1    4    4    0    0  0.45745267969E-01 -0.48395676928E-01  0.11229834911E-01  0.67536222873E-01  0.51100000000E-03 0. -1.
</event>
<event>
 8    1  0.1097777E+005  0.1043930E+01  0.7957747E-01            NaN
         13   -1    0    0    0    0  0.00000000000E+00  0.00000000000E+00  0.74505805969E-08  0.10566000000E+00  0.10566000000E+00 0. -1.
     999900   -1    0    0    0    0 -0.00000000000E+00 -0.00000000000E+00 -0.74505805969E-08  0.93827000000E+00  0.93827000000E+00 0. -1.
     999902    2    1    2    0    0  0.61064259468E-03 -0.32704674590E-02  0.23367500557E-01  0.10203268450E+01  0.10200538034E+01 0.  0.
     999903    2    3    3    0    0  0.65155212420E-01  0.10625336944E+00  0.35997185692E-01  0.13110191214E+00  0.18892690786E-01 0.  0.
         14    1    1    2    0    0 -0.61064259468E-03  0.32704674590E-02 -0.23367500557E-01  0.23603154960E-01  0.00000000000E+00 0.  1.
     999901    1    3    3    0    0 -0.64544569826E-01 -0.10952383690E+00 -0.12629685135E-01  0.88922493290E+00  0.88000000000E+00 0. -1.
        -11    1    4    4    0    0  0.38707504409E-01  0.73993684207E-01  0.31038627708E-01  0.89089807111E-01  0.51100000000E-03 0. -1.
         11    1    4    4    0    0  0.26447708011E-01  0.32259685238E-01  0.49585579843E-02  0.42012105029E-01  0.51100000000E-03 0.  1.
</event>
<event>
 7    1  0.1097777E+005  0.1043930E+01  0.7957747E-01            NaN
         13   -1    0    0    0    0  0.00000000000E+00  0.00000000000E+00  0.74505805969E-08  0.10566000000E+00  0.10566000000E+00 0. -1.
     999900   -1    0    0    0    0 -0.00000000000E+00 -0.00000000000E+00 -0.74505805969E-08  0.93827000000E+00  0.93827000000E+00 0. -1.
     999902    2    1    2    0    0  0.14305573230E-01  0.53809302533E-03  0.23050481215E-01  0.10167958213E+01  0.10164337059E+01 0.  0.
         14    1    1    2    0    0 -0.14305573230E-01 -0.53809302533E-03 -0.23050481215E-01  0.27134178701E-01  0.00000000000E+00 0.  1.
     999901    1    3    3    0    0  0.38933539824E-01  0.76719593248E-01  0.10651843130E+00  0.89058850920E+00  0.88000000000E+00 0. -1.
        -11    1    3    3    0    0 -0.15603815965E-01 -0.44866960861E-01 -0.14083941490E-01  0.49549387266E-01  0.51100000000E-03 0.  1.
         11    1    3    3    0    0 -0.90241506282E-02 -0.31314539361E-01 -0.69384008595E-01  0.76657924833E-01  0.51100000000E-03 0. -1.
</event>
<event>
 8    1  0.1097777E+005  0.1043930E+01  0.7957747E-01            NaN
         13   -1    0    0    0    0  0.00000000000E+00  0.00000000000E+00  0.74505805969E-08  0.10566000000E+00  0.10566000000E+00 0.  1.
     999900   -1    0    0    0    0 -0.00000000000E+00 -0.00000000000E+00 -0.74505805969E-08  0.93827000000E+00  0.93827000000E+00 0. -1.
     999902    2    1    2    0    0  0.93052000491E-02 -0.52906269986E-02 -0.21845852613E-01  0.10196026747E+01  0.10193124131E+01 0.  0.
     999903    2    3    3    0    0  0.52150015664E-01 -0.20283480417E-01 -0.11904672735E+00  0.13308788407E+00  0.20229134483E-01 0.  0.
         14    1    1    2    0    0 -0.93052000491E-02  0.52906269986E-02  0.21845852613E-01  0.24327325344E-01  0.00000000000E+00 0.  1.
     999901    1    3    3    0    0 -0.42844815614E-01  0.14992853418E-01  0.97200874737E-01  0.88651479059E+00  0.88000000000E+00 0.  1.
        -11    1    4    4    0    0  0.65574645807E-02  0.20502082877E-03 -0.32351622569E-01  0.33014102731E-01  0.51100000000E-03 0.  1.
         11    1    4    4    0    0  0.45592551083E-01 -0.20488501246E-01 -0.86695104781E-01  0.10007378134E+00  0.51100000000E-03 0. -1.
</event>
<event>
 8    1  0.1097777E+005  0.1043930E+01  0.7957747E-01            NaN
         13   -1    0    0    0    0  0.00000000000E+00  0.00000000000E+00  0.74505805969E-08  0.10566000000E+00  0.10566000000E+00 0.  1.
     999900   -1    0    0    0    0 -0.00000000000E+00 -0.00000000000E+00 -0.74505805969E-08  0.93827000000E+00  0.93827000000E+00 0.  1.
     999902    2    1    2    0    0  0.24233040159E-02  0.10659628201E-01 -0.21009151888E-01  0.10202469989E+01  0.10199720851E+01 0.  0.
     999903    2    3    3    0    0 -0.76417735081E-01  0.43954111240E-01 -0.97278802545E-01  0.13281165389E+00  0.20103130475E-01 0.  0.
         14    1    1    2    0    0 -0.24233040159E-02 -0.10659628201E-01  0.21009151888E-01  0.23683001051E-01  0.00000000000E+00 0.  1.
     999901    1    3    3    0    0  0.78841039097E-01 -0.33294483038E-01  0.76269650658E-01  0.88743534506E+00  0.88000000000E+00 0. -1.
        -11    1    4    4    0    0 -0.19103637267E-01  0.16858774274E-02 -0.19545252495E-01  0.27387390450E-01  0.51100000000E-03 0.  1.
         11    1    4    4    0    0 -0.57314097813E-01  0.42268233812E-01 -0.77733550050E-01  0.10542426344E+00  0.51100000000E-03 0. -1.
</event>
<event>
 8    1  0.1097777E+005  0.1043930E+01  0.7957747E-01            NaN
         13   -1    0    0    0    0  0.00000000000E+00  0.00000000000E+00  0.74505805969E-08  0.10566000000E+00  0.10566000000E+00 0. -1.
     999900   -1    0    0    0    0 -0.00000000000E+00 -0.00000000000E+00 -0.74505805969E-08  0.93827000000E+00  0.93827000000E+00 0. -1.
     999902    2    1    2    0    0  0.10658510625E-02  0.27232079708E-02 -0.23030364381E-01  0.10207147123E+01  0.10204506722E+01 0.  0.
     999903    2    3    3    0    0  0.63285287357E-01  0.11174892158E+00  0.15444218080E-01  0.13097421193E+00  0.20563833508E-01 0.  0.
         14    1    1    2    0    0 -0.10658510625E-02 -0.27232079708E-02  0.23030364381E-01  0.23215287714E-01  0.00000000000E+00 0. -1.
     999901    1    3    3    0    0 -0.62219436295E-01 -0.10902571361E+00 -0.38474582462E-01  0.88974050036E+00  0.88000000000E+00 0. -1.
        -11    1    4    4    0    0  0.31059614016E-01  0.53354183201E-01 -0.28760184908E-02  0.61805348403E-01  0.51100000000E-03 0. -1.
         11    1    4    4    0    0  0.32225673341E-01  0.58394738377E-01  0.18320236571E-01  0.69168863526E-01  0.51100000000E-03 0.  1.
</event>
<event>
 8    1  0.1097777E+005  0.1043930E+01  0.7957747E-01            NaN
         13   -1    0    0    0    0  0.00000000000E+00  0.00000000000E+00  0.74505805969E-08  0.10566000000E+00  0.10566000000E+00 0. -1.
     999900   -1    0    0    0    0 -0.00000000000E+00 -0.00000000000E+00 -0.74505805969E-08  0.93827000000E+00  0.93827000000E+00 0.  1.
     999902    2    1    2    0    0  0.21315018013E-01  0.28816842952E-02 -0.11678300715E-01  0.10194551802E+01  0.10191613452E+01 0.  0.
     999903    2    3    3    0    0  0.63592777405E-01 -0.10928044608E+00  0.25649125425E-01  0.13054512334E+00  0.19947289474E-01 0.  0.
         14    1    1    2    0    0 -0.21315018013E-01 -0.28816842952E-02  0.11678300715E-01  0.24474819813E-01  0.00000000000E+00 0. -1.
     999901    1    3    3    0    0 -0.42277759392E-01  0.11216213038E+00 -0.37327426140E-01  0.88891005685E+00  0.88000000000E+00 0.  1.
        -11    1    4    4    0    0  0.24102126244E-01 -0.32249429213E-01  0.16441066496E-01  0.43491469998E-01  0.51100000000E-03 0. -1.
         11    1    4    4    0    0  0.39490651161E-01 -0.77031016870E-01  0.92080589287E-02  0.87053653338E-01  0.51100000000E-03 0.  1.
</event>
<event>
 8    1  0.1097777E+005  0.1043930E+01  0.7957747E-01            NaN
         13   -1    0    0    0    0  0.00000000000E+00  0.00000000000E+00  0.74505805969E-08  0.10566000000E+00  0.10566000000E+00 0. -1.
     999900   -1    0    0    0    0 -0.00000000000E+00 -0.00000000000E+00 -0.74505805969E-08  0.93827000000E+00  0.93827000000E+00 0.  1.
     999902    2    1    2    0    0 -0.19571268340E-01 -0.36300825741E-02  0.11922841554E-01  0.10207272804E+01  0.10204635294E+01 0.  0.
     999903    2    3    3    0    0  0.96148501845E-01  0.75073164025E-01  0.37158759381E-01  0.12931148645E+00  0.21451637831E-01 0.  0.
         14    1    1    2    0    0  0.19571268340E-01  0.36300825741E-02 -0.11922841554E-01  0.23202719553E-01  0.00000000000E+00 0. -1.
     999901    1    3    3    0    0 -0.11571977018E+00 -0.78703246599E-01 -0.25235917826E-01  0.89141579400E+00  0.88000000000E+00 0. -1.
        -11    1    4    4    0    0  0.64174902118E-01  0.39042102089E-01  0.16592246639E-01  0.76930277309E-01  0.51100000000E-03 0. -1.
         11    1    4    4    0    0  0.31973599727E-01  0.36031061937E-01  0.20566512742E-01  0.52381209142E-01  0.51100000000E-03 0.  1.
</event>
<event>
 8    1  0.1097777E+005  0.1043930E+01  0.7957747E-01            NaN
         13   -1    0    0    0    0  0.00000000000E+00  0.00000000000E+00  0.74505805969E-08  0.10566000000E+00  0.10566000000E+00 0. -1.
     999900   -1    0    0    0    0 -0.00000000000E+00 -0.00000000000E+00 -0.74505805969E-08  0.93827000000E+00  0.93827000000E+00 0.  1.
     999902    2    1    2    0    0 -0.20752518687E-01 -0.39932563605E-02 -0.10567813562E-01  0.10203018005E+01  0.10200281723E+01 0.  0.
     999903    2    3    3    0    0 -0.11518083483E+00  0.61469047573E-01  0.10921069097E-01  0.13257222895E+00  0.20274555862E-01 0.  0.
         14    1    1    2    0    0  0.20752518687E-01  0.39932563605E-02  0.10567813562E-01  0.23628199502E-01  0.00000000000E+00 0. -1.
     999901    1    3    3    0    0  0.94428316146E-01 -0.65462303934E-01 -0.21488882659E-01  0.88772957155E+00  0.88000000000E+00 0. -1.
        -11    1    4    4    0    0 -0.51908666104E-01  0.21385627826E-01 -0.36651277160E-02  0.56263211572E-01  0.51100000000E-03 0. -1.
         11    1    4    4    0    0 -0.63272168729E-01  0.40083419748E-01  0.14586196813E-01  0.76309017376E-01  0.51100000000E-03 0.  1.
</event>
<event>
 8    1  0.1097777E+005  0.1043930E+01  0.7957747E-01            NaN
         13   -1    0    0    0    0  0.00000000000E+00  0.00000000000E+00  0.74505805969E-08  0.10566000000E+00  0.10566000000E+00 0. -1.
     999900   -1    0    0    0    0 -0.00000000000E+00 -0.00000000000E+00 -0.74505805969E-08  0.93827000000E+00  0.93827000000E+00 0. -1.
     999902    2    1    2    0    0 -0.91759800867E-02 -0.22236964841E-01 -0.52889219239E-03  0.10198683928E+01  0.10195845122E+01 0.  0.
     999903    2    3    3    0    0 -0.33986031546E-01 -0.80150145196E-02  0.12423668599E+00  0.13060788424E+00  0.20109064677E-01 0.  0.
         14    1    1    2    0    0  0.91759800867E-02  0.22236964841E-01  0.52889219239E-03  0.24061607238E-01  0.00000000000E+00 0.  1.
     999901    1    3    3    0    0  0.24810051459E-01 -0.14221950322E-01 -0.12476557818E+00  0.88926050853E+00  0.88000000000E+00 0. -1.
        -11    1    4    4    0    0 -0.66734911037E-02 -0.74770057623E-02  0.15302196786E-01  0.18299165177E-01  0.51100000000E-03 0.  1.
         11    1    4    4    0    0 -0.27312540442E-01 -0.53800875734E-03  0.10893448920E+00  0.11230871906E+00  0.51100000000E-03 0. -1.
</event>
<event>
 8    1  0.1097777E+005  0.1043930E+01  0.7957747E-01            NaN
         13   -1    0    0    0    0  0.00000000000E+00  0.00000000000E+00  0.74505805969E-08  0.10566000000E+00  0.10566000000E+00 0.  1.
     999900   -1    0    0    0    0 -0.00000000000E+00 -0.00000000000E+00 -0.74505805969E-08  0.93827000000E+00  0.93827000000E+00 0. -1.
     999902    2    1    2    0    0 -0.10636736620E-01 -0.99618029566E-02  0.18242381280E-01  0.10205812921E+01  0.10203141730E+01 0.  0.
     999903    2    3    3    0    0  0.85471432502E-01  0.94172005223E-01  0.10730380507E-01  0.12921320861E+00  0.20178698462E-01 0.  0.
         14    1    1    2    0    0  0.10636736620E-01  0.99618029566E-02 -0.18242381280E-01  0.23348707862E-01  0.00000000000E+00 0. -1.
     999901    1    3    3    0    0 -0.96108169121E-01 -0.10413380818E+00  0.75120007726E-02  0.89136808353E+00  0.88000000000E+00 0. -1.
        -11    1    4    4    0    0  0.49022749140E-01  0.40181769847E-01  0.91923347130E-02  0.64051266184E-01  0.51100000000E-03 0.  1.
         11    1    4    4    0    0  0.36448683362E-01  0.53990235377E-01  0.15380457945E-02  0.65161942426E-01  0.51100000000E-03 0. -1.
</event>
<event>
 8    1  0.1097777E+005  0.1043930E+01  0.7957747E-01            NaN
         13   -1    0    0    0    0  0.00000000000E+00  0.00000000000E+00  0.74505805969E-08  0.10566000000E+00  0.10566000000E+00 0.  1.
     999900   -1    0    0    0    0 -0.00000000000E+00 -0.00000000000E+00 -0.74505805969E-08  0.93827000000E+00  0.93827000000E+00 0.  1.
     999902    2    1    2    0    0  0.20863146634E-01  0.28411795405E-02  0.11479610867E-01  0.10199482433E+01  0.10196662662E+01 0.  0.
     999903    2    3    3    0    0 -0.11308084465E+00 -0.30842851561E-02 -0.55381716696E-01  0.12728563007E+00  0.18376801639E-01 0.  0.
         14    1    1    2    0    0 -0.20863146634E-01 -0.28411795405E-02 -0.11479610867E-01  0.23981756697E-01  0.00000000000E+00 0. -1.
     999901    1    3    3    0    0  0.13394399128E+00  0.59254646966E-02  0.66861327563E-01  0.89266261323E+00  0.88000000000E+00 0.  1.
        -11    1    4    4    0    0 -0.10813915123E+00 -0.42147471900E-02 -0.48177261456E-01  0.11846159616E+00  0.51100000000E-03 0. -1.
         11    1    4    4    0    0 -0.49416934204E-02  0.11304620339E-02 -0.72044552401E-02  0.88240339175E-02  0.51100000000E-03 0.  1.
</event>
<event>
 8    1  0.1097777E+005  0.1043930E+01  0.7957747E-01            NaN
         13   -1    0    0    0    0  0.00000000000E+00  0.00000000000E+00  0.74505805969E-08  0.10566000000E+00  0.10566000000E+00 0.  1.
     999900   -1    0    0    0    0 -0.00000000000E+00 -0.00000000000E+00 -0.74505805969E-08  0.93827000000E+00  0.93827000000E+00 0.  1.
     999902    2    1    2    0    0  0.24366477619E-01  0.68560190376E-03  0.13336438355E-02  0.10195174236E+01  0.10192250993E+01 0.  0.
     999903    2    3    3    0    0 -0.10773819184E+00 -0.64304143702E-01 -0.72975438774E-02  0.12724515116E+00  0.19888023239E-01 0.  0.
         14    1    1    2    0    0 -0.24366477619E-01 -0.68560190376E-03 -0.13336438355E-02  0.24412576419E-01  0.00000000000E+00 0. -1.
     999901    1    3    3    0    0  0.13210466946E+00  0.64989745605E-01  0.86311877129E-02  0.89227227242E+00  0.88000000000E+00 0. -1.
        -11    1    4    4    0    0 -0.18193296269E-01 -0.90514975929E-02  0.59839637486E-02  0.21189492230E-01  0.51100000000E-03 0. -1.
         11    1    4    4    0    0 -0.89544895575E-01 -0.55252646109E-01 -0.13281507626E-01  0.10605565893E+00  0.51100000000E-03 0.  1.
</event>
<event>
 8    1  0.1097777E+005  0.1043930E+01  0.7957747E-01            NaN
         13   -1    0    0    0    0  0.00000000000E+00  0.00000000000E+00  0.74505805969E-08  0.10566000000E+00  0.10566000000E+00 0.  1.
     999900   -1    0    0    0    0 -0.00000000000E+00 -0.00000000000E+00 -0.74505805969E-08  0.93827000000E+00  0.93827000000E+00 0.  1.
     999902    2    1    2    0    0 -0.12140642935E-01  0.21683185881E-01  0.47336483295E-02  0.10186325063E+01  0.10183183293E+01 0.  0.
     999903    2    3    3    0    0 -0.36714756471E-01  0.33453312084E-01  0.11935937849E+00  0.13078033339E+00  0.19741756188E-01 0.  0.
         14    1    1    2    0    0  0.12140642935E-01 -0.21683185881E-01 -0.47336483295E-02  0.25297493697E-01  0.00000000000E+00 0. -1.
     999901    1    3    3    0    0  0.24574113536E-01 -0.11770126203E-01 -0.11462573016E+00  0.88785217291E+00  0.88000000000E+00 0.  1.
        -11    1    4    4    0    0  0.16559409419E-02  0.37103195294E-02  0.17056741498E-01  0.17541441302E-01  0.51100000000E-03 0.  1.
         11    1    4    4    0    0 -0.38370697413E-01  0.29742992554E-01  0.10230263699E+00  0.11323889209E+00  0.51100000000E-03 0. -1.
</event>
<event>
 8    1  0.1097777E+005  0.1043930E+01  0.7957747E-01            NaN
         13   -1    0    0    0    0  0.00000000000E+00  0.00000000000E+00  0.74505805969E-08  0.10566000000E+00  0.10566000000E+00 0.  1.
     999900   -1    0    0    0    0 -0.00000000000E+00 -0.00000000000E+00 -0.74505805969E-08  0.93827000000E+00  0.93827000000E+00 0. -1.
     999902    2    1    2    0    0 -0.20402650148E-02  0.14503834273E-01 -0.26083490541E-01  0.10140155826E+01  0.10135742348E+01 0.  0.
     999903    2    3    3    0    0  0.37149838266E-01 -0.51008117088E-01 -0.10764529010E+00  0.12695301033E+00  0.23401278976E-01 0.  0.
         14    1    1    2    0    0  0.20402650148E-02 -0.14503834273E-01  0.26083490541E-01  0.29914417406E-01  0.00000000000E+00 0.  1.
     999901    1    3    3    0    0 -0.39190103281E-01  0.65511951361E-01  0.81561799564E-01  0.88706257227E+00  0.88000000000E+00 0.  1.
        -11    1    4    4    0    0  0.17304609132E-01 -0.10754621175E-01 -0.49263230144E-01  0.53312647084E-01  0.51100000000E-03 0. -1.
         11    1    4    4    0    0  0.19845229134E-01 -0.40253495913E-01 -0.58382059961E-01  0.73640363245E-01  0.51100000000E-03 0.  1.
</event>
<event>
 8    1  0.1097777E+005  0.1043930E+01  0.7957747E-01            NaN
         13   -1    0    0    0    0  0.00000000000E+00  0.00000000000E+00  0.74505805969E-08  0.10566000000E+00  0.10566000000E+00 0. -1.
     999900   -1    0    0    0    0 -0.00000000000E+00 -0.00000000000E+00 -0.74505805969E-08  0.93827000000E+00  0.93827000000E+00 0. -1.
     999902    2    1    2    0    0 -0.18174154761E-01 -0.14053626195E-01 -0.40891961072E-02  0.10205949226E+01  0.10203281189E+01 0.  0.
     999903    2    3    3    0    0  0.52831328851E-01  0.11494878813E+00 -0.82328570918E-02  0.12835024122E+00  0.20040740616E-01 0.  0.
         14    1    1    2    0    0  0.18174154761E-01  0.14053626195E-01  0.40891961072E-02  0.23335077358E-01  0.00000000000E+00 0.  1.
     999901    1    3    3    0    0 -0.71005483612E-01 -0.12900241432E+00  0.41436609847E-02  0.89224468142E+00  0.88000000000E+00 0.  1.
        -11    1    4    4    0    0  0.87358655564E-02  0.21610359361E-01 -0.93314363177E-02  0.25112940956E-01  0.51100000000E-03 0. -1.
         11    1    4    4    0    0  0.44095463294E-01  0.93338428767E-01  0.10985792259E-02  0.10323730026E+00  0.51100000000E-03 0.  1.
</event>
<event>
 8    1  0.1097777E+005  0.1043930E+01  0.7957747E-01            NaN
         13   -1    0    0    0    0  0.00000000000E+00  0.00000000000E+00  0.74505805969E-08  0.10566000000E+00  0.10566000000E+00 0.  1.
     999900   -1    0    0    0    0 -0.00000000000E+00 -0.00000000000E+00 -0.74505805969E-08  0.93827000000E+00  0.93827000000E+00 0.  1.
     999902    2    1    2    0    0  0.22192545055E-01 -0.71713307380E-02  0.42729108226E-02  0.10202193524E+01  0.10199437888E+01 0.  0.
     999903    2    3    3    0    0  0.11592520235E+00 -0.60680970963E-01 -0.13413336018E-01  0.13344886581E+00  0.22535514777E-01 0.  0.
         14    1    1    2    0    0 -0.22192545055E-01  0.71713307380E-02 -0.42729108226E-02  0.23710647554E-01  0.00000000000E+00 0.  1.
     999901    1    3    3    0    0 -0.93732657294E-01  0.53509640225E-01  0.17686246840E-01  0.88677048664E+00  0.88000000000E+00 0.  1.
        -11    1    4    4    0    0  0.49385978261E-01 -0.13609410974E-01 -0.36604815353E-02  0.51360015206E-01  0.51100000000E-03 0. -1.
         11    1    4    4    0    0  0.66539224087E-01 -0.47071559989E-01 -0.97528544822E-02  0.82088850604E-01  0.51100000000E-03 0.  1.
</event>
<event>
 8    1  0.1097777E+005  0.1043930E+01  0.7957747E-01            NaN
         13   -1    0    0    0    0  0.00000000000E+00  0.00000000000E+00  0.74505805969E-08  0.10566000000E+00  0.10566000000E+00 0. -1.
     999900   -1    0    0    0    0 -0.00000000000E+00 -0.00000000000E+00 -0.74505805969E-08  0.93827000000E+00  0.93827000000E+00 0. -1.
     999902    2    1    2    0    0 -0.12827606535E-01 -0.66153214627E-02 -0.19288507507E-01  0.10198394108E+01  0.10195548378E+01 0.  0.
     999903    2    3    3    0    0  0.78592656391E-01 -0.11550560438E-01 -0.10278110993E+00  0.13115890816E+00  0.18124059907E-01 0.  0.
         14    1    1    2    0    0  0.12827606535E-01  0.66153214627E-02  0.19288507507E-01  0.24090589227E-01  0.00000000000E+00 0.  1.
     999901    1    3    3    0    0 -0.91420262927E-01  0.49352389753E-02  0.83492602422E-01  0.88868050261E+00  0.88000000000E+00 0.  1.
        -11    1    4    4    0    0  0.31708181840E-01 -0.13470634745E-01 -0.40372999425E-01  0.53076426025E-01  0.51100000000E-03 0.  1.
         11    1    4    4    0    0  0.46884474552E-01  0.19200743075E-02 -0.62408110504E-01  0.78082482139E-01  0.51100000000E-03 0. -1.
</event>
<event>
 8    1  0.1097777E+005  0.1043930E+01  0.7957747E-01            NaN
         13   -1    0    0    0    0  0.00000000000E+00  0.00000000000E+00  0.74505805969E-08  0.10566000000E+00  0.10566000000E+00 0. -1.
     999900   -1    0    0    0    0 -0.00000000000E+00 -0.00000000000E+00 -0.74505805969E-08  0.93827000000E+00  0.93827000000E+00 0.  1.
     999902    2    1    2    0    0 -0.12402600057E-01  0.20215738528E-01  0.63449665830E-02  0.10193788458E+01  0.10190831527E+01 0.  0.
     999903    2    3    3    0    0 -0.14034302578E-01 -0.11768789592E+00 -0.41599275205E-01  0.12734817077E+00  0.20967937556E-01 0.  0.
         14    1    1    2    0    0  0.12402600057E-01 -0.20215738528E-01 -0.63449665830E-02  0.24551154216E-01  0.00000000000E+00 0. -1.
     999901    1    3    3    0    0  0.16317025214E-02  0.13790363445E+00  0.47944241788E-01  0.89203067502E+00  0.88000000000E+00 0. -1.
        -11    1    4    4    0    0 -0.14400283711E-01 -0.45678727498E-01 -0.11242508722E-01  0.49199282923E-01  0.51100000000E-03 0. -1.
         11    1    4    4    0    0  0.36598113284E-03 -0.72009168423E-01 -0.30356766483E-01  0.78148887845E-01  0.51100000000E-03 0.  1.
</event>
<event>
 8    1  0.1097777E+005  0.1043930E+01  0.7957747E-01            NaN
         13   -1    0    0    0    0  0.00000000000E+00  0.00000000000E+00  0.74505805969E-08  0.10566000000E+00  0.10566000000E+00 0.  1.
     999900   -1    0    0    0    0 -0.00000000000E+00 -0.00000000000E+00 -0.74505805969E-08  0.93827000000E+00  0.93827000000E+00 0.  1.
     999902    2    1    2    0    0  0.13461006502E-01 -0.12320754218E-01 -0.11366021248E-01  0.10224314856E+01  0.10222054376E+01 0.  0.
     999903    2    3    3    0    0 -0.17339147643E-01 -0.12741716309E+00 -0.32790422681E-01  0.13414389831E+00  0.19585559568E-01 0.  0.
         14    1    1    2    0    0 -0.13461006502E-01  0.12320754218E-01  0.11366021248E-01  0.21498514357E-01  0.00000000000E+00 0.  1.
     999901    1    3    3    0    0  0.30800154144E-01  0.11509640887E+00  0.21424401432E-01  0.88828758733E+00  0.88000000000E+00 0.  1.
        -11    1    4    4    0    0 -0.17579173582E-01 -0.81015631077E-01 -0.27949494124E-01  0.87487114282E-01  0.51100000000E-03 0.  1.
         11    1    4    4    0    0  0.24002593946E-03 -0.46401532013E-01 -0.48409285563E-02  0.46656784029E-01  0.51100000000E-03 0. -1.
</event>
<event>
 8    1  0.1097777E+005  0.1043930E+01  0.7957747E-01            NaN
         13   -1    0    0    0    0  0.00000000000E+00  0.00000000000E+00  0.74505805969E-08  0.10566000000E+00  0.10566000000E+00 0. -1.
     999900   -1    0    0    0    0 -0.00000000000E+00 -0.00000000000E+00 -0.74505805969E-08  0.93827000000E+00  0.93827000000E+00 0.  1.
     999902    2    1    2    0    0 -0.10567311227E-01 -0.19388606601E-01 -0.39538860232E-02  0.10214974489E+01  0.10212511047E+01 0.  0.
     999903    2    3    3    0    0  0.62834781508E-01 -0.11310366778E+00 -0.24866871744E-01  0.13323637646E+00  0.19822241741E-01 0.  0.
         14    1    1    2    0    0  0.10567311227E-01  0.19388606601E-01  0.39538860232E-02  0.22432551063E-01  0.00000000000E+00 0. -1.
     999901    1    3    3    0    0 -0.73402092735E-01  0.93715061183E-01  0.20912985721E-01  0.88826107248E+00  0.88000000000E+00 0.  1.
        -11    1    4    4    0    0  0.36448390347E-01 -0.69242052559E-01 -0.24666801416E-01  0.82046689235E-01  0.51100000000E-03 0. -1.
         11    1    4    4    0    0  0.26386391162E-01 -0.43861615226E-01 -0.20007032879E-03  0.51189687222E-01  0.51100000000E-03 0.  1.
</event>
<event>
 8    1  0.1097777E+005  0.1043930E+01  0.7957747E-01            NaN
         13   -1    0    0    0    0  0.00000000000E+00  0.00000000000E+00  0.74505805969E-08  0.10566000000E+00  0.10566000000E+00 0.  1.
     999900   -1    0    0    0    0 -0.00000000000E+00 -0.00000000000E+00 -0.74505805969E-08  0.93827000000E+00  0.93827000000E+00 0. -1.
     999902    2    1    2    0    0 -0.32189971941E-02 -0.23142554313E-01  0.47047971435E-02  0.10200956785E+01  0.10198171986E+01 0.  0.
     999903    2    3    3    0    0  0.26135047445E-01 -0.12082124875E+00 -0.44498236072E-01  0.13283938763E+00  0.19631480847E-01 0.  0.
         14    1    1    2    0    0  0.32189971941E-02  0.23142554313E-01 -0.47047971435E-02  0.23834321455E-01  0.00000000000E+00 0.  1.
     999901    1    3    3    0    0 -0.29354044640E-01  0.97678694433E-01  0.49203033215E-01  0.88725629091E+00  0.88000000000E+00 0. -1.
        -11    1    4    4    0    0  0.23561993338E-01 -0.86739876987E-01 -0.24202676194E-01  0.93086005638E-01  0.51100000000E-03 0.  1.
         11    1    4    4    0    0  0.25730541078E-02 -0.34081371759E-01 -0.20295559878E-01  0.39753381997E-01  0.51100000000E-03 0. -1.
</event>
<event>
 8    1  0.1097777E+005  0.1043930E+01  0.7957747E-01            NaN
         13   -1    0    0    0    0  0.00000000000E+00  0.00000000000E+00  0.74505805969E-08  0.10566000000E+00  0.10566000000E+00 0.  1.
     999900   -1    0    0    0    0 -0.00000000000E+00 -0.00000000000E+00 -0.74505805969E-08  0.93827000000E+00  0.93827000000E+00 0.  1.
     999902    2    1    2    0    0  0.20425176338E-01  0.12219098257E-01 -0.94347636992E-03  0.10201101692E+01  0.10198320318E+01 0.  0.
     999903    2    3    3    0    0  0.75869160427E-01 -0.74272309769E-01 -0.74218663247E-01  0.13110845266E+00  0.20211652160E-01 0.  0.
         14    1    1    2    0    0 -0.20425176338E-01 -0.12219098257E-01  0.94347636992E-03  0.23819830778E-01  0.00000000000E+00 0.  1.
     999901    1    3    3    0    0 -0.55443984089E-01  0.86491408026E-01  0.73275186877E-01  0.88900171656E+00  0.88000000000E+00 0. -1.
        -11    1    4    4    0    0  0.22312848495E-01 -0.34737494878E-01 -0.24386952289E-01  0.47953532939E-01  0.51100000000E-03 0. -1.
         11    1    4    4    0    0  0.53556311932E-01 -0.39534814891E-01 -0.49831710958E-01  0.83154919724E-01  0.51100000000E-03 0.  1.
</event>
<event>
 8    1  0.1097777E+005  0.1043930E+01  0.7957747E-01            NaN
         13   -1    0    0    0    0  0.00000000000E+00  0.00000000000E+00  0.74505805969E-08  0.10566000000E+00  0.10566000000E+00 0. -1.
     999900   -1    0    0    0    0 -0.00000000000E+00 -0.00000000000E+00 -0.74505805969E-08  0.93827000000E+00  0.93827000000E+00 0.  1.
     999902    2    1    2    0    0  0.81114996127E-02 -0.10696525874E-02 -0.36757097767E-02  0.10349605282E+01  0.10349216605E+01 0.  0.
     999903    2    3    3    0    0  0.98470473756E-01  0.74283017279E-01 -0.73218662544E-01  0.14441070286E+00  0.16705618794E-01 0.  0.
         14    1    1    2    0    0 -0.81114996127E-02  0.10696525874E-02  0.36757097767E-02  0.89694718344E-02  0.00000000000E+00 0. -1.
     999901    1    3    3    0    0 -0.90358974143E-01 -0.75352669867E-01  0.69542952767E-01  0.89054982530E+00  0.88000000000E+00 0. -1.
        -11    1    4    4    0    0  0.82348874877E-01  0.67702690436E-01 -0.58494057986E-01  0.12160101737E+00  0.51100000000E-03 0.  1.
         11    1    4    4    0    0  0.16121598879E-01  0.65803268431E-02 -0.14724604558E-01  0.22809685491E-01  0.51100000000E-03 0. -1.
</event>
<event>
 8    1  0.1097777E+005  0.1043930E+01  0.7957747E-01            NaN
         13   -1    0    0    0    0  0.00000000000E+00  0.00000000000E+00  0.74505805969E-08  0.10566000000E+00  0.10566000000E+00 0.  1.
     999900   -1    0    0    0    0 -0.00000000000E+00 -0.00000000000E+00 -0.74505805969E-08  0.93827000000E+00  0.93827000000E+00 0.  1.
     999902    2    1    2    0    0 -0.71813858135E-02  0.22246153584E-01 -0.35360655579E-02  0.10202875084E+01  0.10200135452E+01 0.  0.
     999903    2    3    3    0    0  0.10936096108E-01 -0.72322017195E-01  0.10376677740E+00  0.12855588831E+00  0.20223747379E-01 0.  0.
         14    1    1    2    0    0  0.71813858135E-02 -0.22246153584E-01  0.35360655579E-02  0.23642491643E-01  0.00000000000E+00 0. -1.
     999901    1    3    3    0    0 -0.18117481922E-01  0.94568170779E-01 -0.10730284296E+00  0.89173162004E+00  0.88000000000E+00 0. -1.
        -11    1    4    4    0    0  0.30610579982E-02 -0.47006449112E-01  0.50547207605E-01  0.69096003154E-01  0.51100000000E-03 0. -1.
         11    1    4    4    0    0  0.78750381102E-02 -0.25315568083E-01  0.53219569800E-01  0.59459885160E-01  0.51100000000E-03 0.  1.
</event>
<event>
 8    1  0.1097777E+005  0.1043930E+01  0.7957747E-01            NaN
         13   -1    0    0    0    0  0.00000000000E+00  0.00000000000E+00  0.74505805969E-08  0.10566000000E+00  0.10566000000E+00 0.  1.
     999900   -1    0    0    0    0 -0.00000000000E+00 -0.00000000000E+00 -0.74505805969E-08  0.93827000000E+00  0.93827000000E+00 0. -1.
     999902    2    1    2    0    0  0.18579741084E-01 -0.68109811834E-02  0.52828287087E-02  0.10234481904E+01  0.10232432233E+01 0.  0.
     999903    2    3    3    0    0  0.56789630852E-01  0.11702559219E+00  0.24149981724E-01  0.13375641121E+00  0.19685134550E-01 0.  0.
         14    1    1    2    0    0 -0.18579741084E-01  0.68109811834E-02 -0.52828287087E-02  0.20481809553E-01  0.00000000000E+00 0.  1.
     999901    1    3    3    0    0 -0.38209889768E-01 -0.12383657337E+00 -0.18867153016E-01  0.88969177924E+00  0.88000000000E+00 0.  1.
        -11    1    4    4    0    0  0.35912873447E-01  0.56801311377E-01  0.59503464340E-02  0.67466963746E-01  0.51100000000E-03 0.  1.
         11    1    4    4    0    0  0.20876757405E-01  0.60224280813E-01  0.18199635290E-01  0.66289447463E-01  0.51100000000E-03 0. -1.
</event>
<event>
 8    1  0.1097777E+005  0.1043930E+01  0.7957747E-01            NaN
         13   -1    0    0    0    0  0.00000000000E+00  0.00000000000E+00  0.74505805969E-08  0.10566000000E+00  0.10566000000E+00 0. -1.
     999900   -1    0    0    0    0 -0.00000000000E+00 -0.00000000000E+00 -0.74505805969E-08  0.93827000000E+00  0.93827000000E+00 0. -1.
     999902    2    1    2    0    0  0.21519361465E-02 -0.20685504500E-01  0.10671608484E-01  0.10205547106E+01  0.10202869759E+01 0.  0.
     999903    2    3    3    0    0  0.56493292256E-01  0.90995703462E-01  0.70629058174E-01  0.12981312578E+00  0.19780638237E-01 0.  0.
         14    1    1    2    0    0 -0.21519361465E-02  0.20685504500E-01 -0.10671608484E-01  0.23375289372E-01  0.00000000000E+00 0. -1.
     999901    1    3    3    0    0 -0.54341356109E-01 -0.11168120796E+00 -0.59957449690E-01  0.89074158484E+00  0.88000000000E+00 0. -1.
        -11    1    4    4    0    0  0.40524545818E-01  0.46728636054E-01  0.40194783499E-01  0.73767784179E-01  0.51100000000E-03 0.  1.
         11    1    4    4    0    0  0.15968746438E-01  0.44267067407E-01  0.30434274675E-01  0.56045341605E-01  0.51100000000E-03 0. -1.
</event>
<event>
 8    1  0.1097777E+005  0.1043930E+01  0.7957747E-01            NaN
         13   -1    0    0    0    0  0.00000000000E+00  0.00000000000E+00  0.74505805969E-08  0.10566000000E+00  0.10566000000E+00 0. -1.
     999900   -1    0    0    0    0 -0.00000000000E+00 -0.00000000000E+00 -0.74505805969E-08  0.93827000000E+00  0.93827000000E+00 0.  1.
     999902    2    1    2    0    0  0.18114355763E-01  0.42425499255E-02  0.13879159446E-01  0.10207187919E+01  0.10204548456E+01 0.  0.
     999903    2    3    3    0    0  0.77725264712E-02  0.12312620272E+00 -0.39745503218E-01  0.13104700928E+00  0.19316823067E-01 0.  0.
         14    1    1    2    0    0 -0.18114355763E-01 -0.42425499255E-02 -0.13879159446E-01  0.23211208101E-01  0.00000000000E+00 0.  1.
     999901    1    3    3    0    0  0.10341829292E-01 -0.11888365279E+00  0.53624662664E-01  0.88967178261E+00  0.88000000000E+00 0. -1.
        -11    1    4    4    0    0 -0.15925985698E-02  0.54724367173E-01 -0.90652716663E-02  0.55495342184E-01  0.51100000000E-03 0. -1.
         11    1    4    4    0    0  0.93651250410E-02  0.68401835543E-01 -0.30680231552E-01  0.75551667101E-01  0.51100000000E-03 0.  1.
</event>
<event>
 8    1  0.1097777E+005  0.1043930E+01  0.7957747E-01            NaN
         13   -1    0    0    0    0  0.00000000000E+00  0.00000000000E+00  0.74505805969E-08  0.10566000000E+00  0.10566000000E+00 0. -1.
     999900   -1    0    0    0    0 -0.00000000000E+00 -0.00000000000E+00 -0.74505805969E-08  0.93827000000E+00  0.93827000000E+00 0. -1.
     999902    2    1    2    0    0  0.36045048575E-02 -0.29798220838E-02  0.22946472426E-01  0.10205117936E+01  0.10202430634E+01 0.  0.
     999903    2    3    3    0    0 -0.23020034248E-01 -0.95263530924E-01  0.86682522988E-01  0.13299422579E+00  0.23844118802E-01 0.  0.
         14    1    1    2    0    0 -0.36045048575E-02  0.29798220838E-02 -0.22946472426E-01  0.23418206416E-01  0.00000000000E+00 0.  1.
     999901    1    3    3    0    0  0.26624539105E-01  0.92283708840E-01 -0.63736050561E-01  0.88751756779E+00  0.88000000000E+00 0.  1.
        -11    1    4    4    0    0 -0.45347235560E-02 -0.66466668029E-01  0.56072993670E-01  0.87079408684E-01  0.51100000000E-03 0.  1.
         11    1    4    4    0    0 -0.18485310692E-01 -0.28796862895E-01  0.30609529317E-01  0.45914817107E-01  0.51100000000E-03 0. -1.
</event>
<event>
 8    1  0.1097777E+005  0.1043930E+01  0.7957747E-01            NaN
         13   -1    0    0    0    0  0.00000000000E+00  0.00000000000E+00  0.74505805969E-08  0.10566000000E+00  0.10566000000E+00 0.  1.
     999900   -1    0    0    0    0 -0.00000000000E+00 -0.00000000000E+00 -0.74505805969E-08  0.93827000000E+00  0.93827000000E+00 0. -1.
     999902    2    1    2    0    0 -0.14863363402E-01  0.14465021629E-01  0.11202491031E-01  0.10203577233E+01  0.10200854039E+01 0.  0.
     999903    2    3    3    0    0 -0.67214987831E-01  0.11138105008E+00 -0.19499025752E-01  0.13295928278E+00  0.19348539114E-01 0.  0.
         14    1    1    2    0    0  0.14863363402E-01 -0.14465021629E-01 -0.11202491031E-01  0.23572276675E-01  0.00000000000E+00 0. -1.
     999901    1    3    3    0    0  0.52351624429E-01 -0.96916028451E-01  0.30701516783E-01  0.88739844055E+00  0.88000000000E+00 0.  1.
        -11    1    4    4    0    0 -0.98819919006E-02  0.30150981980E-01 -0.89704459771E-02  0.32976741809E-01  0.51100000000E-03 0.  1.
         11    1    4    4    0    0 -0.57332995930E-01  0.81230068100E-01 -0.10528579775E-01  0.99982540970E-01  0.51100000000E-03 0. -1.
</event>
<event>
 8    1  0.1097777E+005  0.1043930E+01  0.7957747E-01            NaN
         13   -1    0    0    0    0  0.00000000000E+00  0.00000000000E+00  0.74505805969E-08  0.10566000000E+00  0.10566000000E+00 0. -1.
     999900   -1    0    0    0    0 -0.00000000000E+00 -0.00000000000E+00 -0.74505805969E-08  0.93827000000E+00  0.93827000000E+00 0.  1.
     999902    2    1    2    0    0  0.21358679672E-01 -0.51113253880E-02  0.74189499496E-02  0.10207489805E+01  0.10204857283E+01 0.  0.
     999903    2    3    3    0    0  0.13323780989E-01  0.11730453476E+00 -0.51269996991E-01  0.13030269081E+00  0.20305211765E-01 0.  0.
         14    1    1    2    0    0 -0.21358679672E-01  0.51113253880E-02 -0.74189499496E-02  0.23181019454E-01  0.00000000000E+00 0.  1.
     999901    1    3    3    0    0  0.80348986827E-02 -0.12241586015E+00  0.58688946940E-01  0.89044628974E+00  0.88000000000E+00 0.  1.
        -11    1    4    4    0    0 -0.12623408667E-02  0.54937539814E-01 -0.31129680865E-01  0.63158886445E-01  0.51100000000E-03 0. -1.
         11    1    4    4    0    0  0.14586121856E-01  0.62366994950E-01 -0.20140316126E-01  0.67143804364E-01  0.51100000000E-03 0.  1.
</event>
<event>
 8    1  0.1097777E+005  0.1043930E+01  0.7957747E-01            NaN
         13   -1    0    0    0    0  0.00000000000E+00  0.00000000000E+00  0.74505805969E-08  0.10566000000E+00  0.10566000000E+00 0.  1.
     999900   -1    0    0    0    0 -0.00000000000E+00 -0.00000000000E+00 -0.74505805969E-08  0.93827000000E+00  0.93827000000E+00 0. -1.
     999902    2    1    2    0    0  0.21744645684E-01 -0.60891846523E-02 -0.46215017832E-02  0.10208807904E+01  0.10206205574E+01 0.  0.
     999903    2    3    3    0    0 -0.11939900312E+00  0.37459374985E-01 -0.17471637224E-01  0.12847778017E+00  0.23279930590E-01 0.  0.
         14    1    1    2    0    0 -0.21744645684E-01  0.60891846523E-02  0.46215017832E-02  0.23049209626E-01  0.00000000000E+00 0.  1.
     999901    1    3    3    0    0  0.14114364881E+00 -0.43548559638E-01  0.12850135441E-01  0.89240301021E+00  0.88000000000E+00 0.  1.
        -11    1    4    4    0    0 -0.56587545852E-01  0.12768603770E-01  0.25807954932E-02  0.58069864940E-01  0.51100000000E-03 0. -1.
         11    1    4    4    0    0 -0.62811457271E-01  0.24690771215E-01 -0.20052432718E-01  0.70407915227E-01  0.51100000000E-03 0.  1.
</event>
<event>
 8    1  0.1097777E+005  0.1043930E+01  0.7957747E-01            NaN
         13   -1    0    0    0    0  0.00000000000E+00  0.00000000000E+00  0.74505805969E-08  0.10566000000E+00  0.10566000000E+00 0. -1.
     999900   -1    0    0    0    0 -0.00000000000E+00 -0.00000000000E+00 -0.74505805969E-08  0.93827000000E+00  0.93827000000E+00 0.  1.
     999902    2    1    2    0    0  0.26985384092E-02  0.77790657480E-02  0.13742520826E-01  0.10279096114E+01  0.10277847616E+01 0.  0.
     999903    2    3    3    0    0 -0.74566312578E-01 -0.23873395075E-02  0.11524553202E+00  0.13865370091E+00  0.19428889912E-01 0.  0.
         14    1    1    2    0    0 -0.26985384092E-02 -0.77790657480E-02 -0.13742520826E-01  0.16020388638E-01  0.00000000000E+00 0.  1.
     999901    1    3    3    0    0  0.77264850987E-01  0.10166405255E-01 -0.10150301120E+00  0.88925591045E+00  0.88000000000E+00 0.  1.
        -11    1    4    4    0    0 -0.30477992377E-01  0.63973908014E-02  0.36543749418E-01  0.48016053262E-01  0.51100000000E-03 0. -1.
         11    1    4    4    0    0 -0.44088320201E-01 -0.87847303089E-02  0.78701782605E-01  0.90637647647E-01  0.51100000000E-03 0.  1.
</event>
<event>
 8    1  0.1097777E+005  0.1043930E+01  0.7957747E-01            NaN
         13   -1    0    0    0    0  0.00000000000E+00  0.00000000000E+00  0.74505805969E-08  0.10566000000E+00  0.10566000000E+00 0. -1.
     999900   -1    0    0    0    0 -0.00000000000E+00 -0.00000000000E+00 -0.74505805969E-08  0.93827000000E+00  0.93827000000E+00 0. -1.
     999902    2    1    2    0    0  0.24615483665E-02 -0.21465746749E-01 -0.93678089912E-02  0.10203801943E+01  0.10201083999E+01 0.  0.
     999903    2    3    3    0    0 -0.21113602289E-01  0.11577618303E+00  0.45403390630E-01  0.12774868054E+00  0.20207640651E-01 0.  0.
         14    1    1    2    0    0 -0.24615483665E-02  0.21465746749E-01  0.93678089912E-02  0.23549805713E-01  0.00000000000E+00 0.  1.
     999901    1    3    3    0    0  0.23575150655E-01 -0.13724192978E+00 -0.54771199622E-01  0.89263151374E+00  0.88000000000E+00 0. -1.
        -11    1    4    4    0    0 -0.24901097806E-01  0.10217597981E+00  0.41793132638E-01  0.11316767462E+00  0.51100000000E-03 0. -1.
         11    1    4    4    0    0  0.37874955172E-02  0.13600203221E-01  0.36102579925E-02  0.14581005923E-01  0.51100000000E-03 0.  1.
</event>
<event>
 8    1  0.1097777E+005  0.1043930E+01  0.7957747E-01            NaN
         13   -1    0    0    0    0  0.00000000000E+00  0.00000000000E+00  0.74505805969E-08  0.10566000000E+00  0.10566000000E+00 0.  1.
     999900   -1    0    0    0    0 -0.00000000000E+00 -0.00000000000E+00 -0.74505805969E-08  0.93827000000E+00  0.93827000000E+00 0. -1.
     999902    2    1    2    0    0 -0.14891087822E-01 -0.18996403054E-01  0.26807957970E-02  0.10196443151E+01  0.10193550583E+01 0.  0.
     999903    2    3    3    0    0  0.19438547552E-01  0.35910034766E-01  0.12118013868E+00  0.12934361586E+00  0.19435977624E-01 0.  0.
         14    1    1    2    0    0  0.14891087822E-01  0.18996403054E-01 -0.26807957970E-02  0.24285684911E-01  0.00000000000E+00 0. -1.
     999901    1    3    3    0    0 -0.34329635373E-01 -0.54906437820E-01 -0.11849934288E+00  0.89030069923E+00  0.88000000000E+00 0. -1.
        -11    1    4    4    0    0  0.18800772133E-01  0.14379508908E-01  0.62782442167E-01  0.67097954325E-01  0.51100000000E-03 0.  1.
         11    1    4    4    0    0  0.63777541902E-03  0.21530525858E-01  0.58397696513E-01  0.62245661537E-01  0.51100000000E-03 0. -1.
</event>
<event>
 8    1  0.1097777E+005  0.1043930E+01  0.7957747E-01            NaN
         13   -1    0    0    0    0  0.00000000000E+00  0.00000000000E+00  0.74505805969E-08  0.10566000000E+00  0.10566000000E+00 0. -1.
     999900   -1    0    0    0    0 -0.00000000000E+00 -0.00000000000E+00 -0.74505805969E-08  0.93827000000E+00  0.93827000000E+00 0. -1.
     999902    2    1    2    0    0  0.93542179569E-02  0.18024028363E-01 -0.14121594741E-01  0.10191956832E+01  0.10188955070E+01 0.  0.
     999903    2    3    3    0    0  0.48990898555E-01  0.67095268535E-01 -0.10151298271E+00  0.13262007568E+00  0.19527304340E-01 0.  0.
         14    1    1    2    0    0 -0.93542179569E-02 -0.18024028363E-01  0.14121594741E-01  0.24734316850E-01  0.00000000000E+00 0.  1.
     999901    1    3    3    0    0 -0.39636680599E-01 -0.49071240172E-01  0.87391387970E-01  0.88657560747E+00  0.88000000000E+00 0.  1.
        -11    1    4    4    0    0  0.36930771220E-01  0.56798676834E-01 -0.91521629049E-01  0.11387028259E+00  0.51100000000E-03 0.  1.
         11    1    4    4    0    0  0.12060127335E-01  0.10296591701E-01 -0.99913536623E-02  0.18749793092E-01  0.51100000000E-03 0. -1.
</event>
<event>
 8    1  0.1097777E+005  0.1043930E+01  0.7957747E-01            NaN
         13   -1    0    0    0    0  0.00000000000E+00  0.00000000000E+00  0.74505805969E-08  0.10566000000E+00  0.10566000000E+00 0.  1.
     999900   -1    0    0    0    0 -0.00000000000E+00 -0.00000000000E+00 -0.74505805969E-08  0.93827000000E+00  0.93827000000E+00 0.  1.
     999902    2    1    2    0    0  0.12533930547E-01  0.91823949562E-02  0.26224175031E-01  0.10134484786E+01  0.10129899780E+01 0.  0.
     999903    2    3    3    0    0  0.41734252833E-01 -0.75018477026E-01 -0.84413674434E-01  0.12205452561E+00  0.20052905887E-01 0.  0.
         14    1    1    2    0    0 -0.12533930547E-01 -0.91823949562E-02 -0.26224175031E-01  0.30481521421E-01  0.00000000000E+00 0. -1.
     999901    1    3    3    0    0 -0.29200322286E-01  0.84200871982E-01  0.11063784946E+00  0.89139395297E+00  0.88000000000E+00 0. -1.
        -11    1    4    4    0    0  0.21360542619E-01 -0.26441848109E-01 -0.44304516844E-01  0.55844385987E-01  0.51100000000E-03 0. -1.
         11    1    4    4    0    0  0.20373710214E-01 -0.48576628916E-01 -0.40109157590E-01  0.66210139619E-01  0.51100000000E-03 0.  1.
</event>
<event>
 8    1  0.1097777E+005  0.1043930E+01  0.7957747E-01            NaN
         13   -1    0    0    0    0  0.00000000000E+00  0.00000000000E+00  0.74505805969E-08  0.10566000000E+00  0.10566000000E+00 0. -1.
     999900   -1    0    0    0    0 -0.00000000000E+00 -0.00000000000E+00 -0.74505805969E-08  0.93827000000E+00  0.93827000000E+00 0. -1.
     999902    2    1    2    0    0 -0.27833215414E-02  0.23508705585E-01 -0.24868466801E-02  0.10201268380E+01  0.10198490942E+01 0.  0.
     999903    2    3    3    0    0 -0.92299923418E-01  0.14991933361E-01  0.89361502793E-01  0.13078895125E+00  0.19396846628E-01 0.  0.
         14    1    1    2    0    0  0.27833215414E-02 -0.23508705585E-01  0.24868466801E-02  0.23803162048E-01  0.00000000000E+00 0. -1.
     999901    1    3    3    0    0  0.89516601877E-01  0.85167722233E-02 -0.91848349473E-01  0.88933788670E+00  0.88000000000E+00 0. -1.
        -11    1    4    4    0    0 -0.32718512714E-01  0.46165482878E-02  0.44778629336E-01  0.55652496427E-01  0.51100000000E-03 0. -1.
         11    1    4    4    0    0 -0.59581410705E-01  0.10375385073E-01  0.44582873456E-01  0.75136454825E-01  0.51100000000E-03 0.  1.
</event>
<event>
 8    1  0.1097777E+005  0.1043930E+01  0.7957747E-01            NaN
         13   -1    0    0    0    0  0.00000000000E+00  0.00000000000E+00  0.74505805969E-08  0.10566000000E+00  0.10566000000E+00 0. -1.
     999900   -1    0    0    0    0 -0.00000000000E+00 -0.00000000000E+00 -0.74505805969E-08  0.93827000000E+00  0.93827000000E+00 0.  1.
     999902    2    1    2    0    0 -0.38979632905E-02 -0.23263562298E-01  0.33854760150E-02  0.10201004197E+01  0.10198220518E+01 0.  0.
     999903    2    3    3    0    0  0.21805076713E-01 -0.38669556872E-01  0.12240710940E+00  0.13158247384E+00  0.18964466507E-01 0.  0.
         14    1    1    2    0    0  0.38979632905E-02  0.23263562298E-01 -0.33854760150E-02  0.23829580283E-01  0.00000000000E+00 0.  1.
     999901    1    3    3    0    0 -0.25703040003E-01  0.15405994574E-01 -0.11902163339E+00  0.88851794588E+00  0.88000000000E+00 0.  1.
        -11    1    4    4    0    0  0.10637682525E-01 -0.18737612009E-01  0.85485521411E-01  0.88160614138E-01  0.51100000000E-03 0.  1.
         11    1    4    4    0    0  0.11167394188E-01 -0.19931944863E-01  0.36921587993E-01  0.43421859701E-01  0.51100000000E-03 0. -1.
</event>
<event>
 8    1  0.1097777E+005  0.1043930E+01  0.7957747E-01            NaN
         13   -1    0    0    0    0  0.00000000000E+00  0.00000000000E+00  0.74505805969E-08  0.10566000000E+00  0.10566000000E+00 0.  1.
     999900   -1    0    0    0    0 -0.00000000000E+00 -0.00000000000E+00 -0.74505805969E-08  0.93827000000E+00  0.93827000000E+00 0. -1.
     999902    2    1    2    0    0  0.48991905007E-02  0.22014201607E-01 -0.38734161188E-02  0.10210470261E+01  0.10207905755E+01 0.  0.
     999903    2    3    3    0    0  0.37950598312E-02 -0.12297213250E+00 -0.32550299612E-01  0.12872162595E+00  0.19318052022E-01 0.  0.
         14    1    1    2    0    0 -0.48991905007E-02 -0.22014201607E-01  0.38734161188E-02  0.22882973853E-01  0.00000000000E+00 0.  1.
     999901    1    3    3    0    0  0.11041306695E-02  0.14498633410E+00  0.28676883493E-01  0.89232540019E+00  0.88000000000E+00 0.  1.
        -11    1    4    4    0    0 -0.60188447644E-02 -0.58420543634E-01 -0.21235803892E-01  0.62453237697E-01  0.51100000000E-03 0.  1.
         11    1    4    4    0    0  0.98139045955E-02 -0.64551588861E-01 -0.11314495719E-01  0.66268388258E-01  0.51100000000E-03 0. -1.
</event>
<event>
 8    1  0.1097777E+005  0.1043930E+01  0.7957747E-01            NaN
         13   -1    0    0    0    0  0.00000000000E+00  0.00000000000E+00  0.74505805969E-08  0.10566000000E+00  0.10566000000E+00 0. -1.
     999900   -1    0    0    0    0 -0.00000000000E+00 -0.00000000000E+00 -0.74505805969E-08  0.93827000000E+00  0.93827000000E+00 0.  1.
     999902    2    1    2    0    0 -0.14466417226E-01 -0.14305048377E-01  0.12354158187E-01  0.10201279652E+01  0.10198502481E+01 0.  0.
     999903    2    3    3    0    0 -0.12025716062E+00  0.59508048451E-02  0.51950184157E-01  0.13267665596E+00  0.20176140493E-01 0.  0.
         14    1    1    2    0    0  0.14466417226E-01  0.14305048377E-01 -0.12354158187E-01  0.23802034807E-01  0.00000000000E+00 0.  1.
     999901    1    3    3    0    0  0.10579074339E+00 -0.20255853223E-01 -0.39596025970E-01  0.88745130923E+00  0.88000000000E+00 0.  1.
        -11    1    4    4    0    0 -0.15886202146E-01 -0.57070916336E-02  0.96988918739E-02  0.19474905343E-01  0.51100000000E-03 0.  1.
         11    1    4    4    0    0 -0.10437095847E+00  0.11657896479E-01  0.42251292283E-01  0.11320175062E+00  0.51100000000E-03 0. -1.
</event>
<event>
 8    1  0.1097777E+005  0.1043930E+01  0.7957747E-01            NaN
         13   -1    0    0    0    0  0.00000000000E+00  0.00000000000E+00  0.74505805969E-08  0.10566000000E+00  0.10566000000E+00 0.  1.
     999900   -1    0    0    0    0 -0.00000000000E+00 -0.00000000000E+00 -0.74505805969E-08  0.93827000000E+00  0.93827000000E+00 0. -1.
     999902    2    1    2    0    0  0.22083472224E-01 -0.86430790521E-02 -0.18431165011E-02  0.10201438772E+01  0.10198665356E+01 0.  0.
     999903    2    3    3    0    0  0.38621561312E-01 -0.80497917523E-01  0.94857658687E-01  0.13178152648E+00  0.19921234535E-01 0.  0.
         14    1    1    2    0    0 -0.22083472224E-01  0.86430790521E-02  0.18431165011E-02  0.23786122832E-01  0.00000000000E+00 0.  1.
     999901    1    3    3    0    0 -0.16538089088E-01  0.71854838471E-01 -0.96700775188E-01  0.88836235069E+00  0.88000000000E+00 0. -1.
        -11    1    4    4    0    0  0.41825994586E-03 -0.14527898649E-01  0.96774409932E-02  0.17468507828E-01  0.51100000000E-03 0.  1.
         11    1    4    4    0    0  0.38203301366E-01 -0.65970018874E-01  0.85180217693E-01  0.11431301865E+00  0.51100000000E-03 0. -1.
</event>
<event>
 8    1  0.1097777E+005  0.1043930E+01  0.7957747E-01            NaN
         13   -1    0    0    0    0  0.00000000000E+00  0.00000000000E+00  0.74505805969E-08  0.10566000000E+00  0.10566000000E+00 0. -1.
     999900   -1    0    0    0    0 -0.00000000000E+00 -0.00000000000E+00 -0.74505805969E-08  0.93827000000E+00  0.93827000000E+00 0. -1.
     999902    2    1    2    0    0  0.17852391061E-01 -0.16082526191E-01  0.48734514398E-02  0.10194125359E+01  0.10191176637E+01 0.  0.
     999903    2    3    3    0    0 -0.98993976491E-01  0.66965087719E-01  0.31088460741E-01  0.12742755484E+00  0.31419086339E-01 0.  0.
         14    1    1    2    0    0 -0.17852391061E-01  0.16082526191E-01 -0.48734514398E-02  0.24517464066E-01  0.00000000000E+00 0. -1.
     999901    1    3    3    0    0  0.11684636755E+00 -0.83047613910E-01 -0.26215009301E-01  0.89198498109E+00  0.88000000000E+00 0. -1.
        -11    1    4    4    0    0 -0.64716966394E-01  0.30884293202E-01  0.67548001022E-02  0.72027867880E-01  0.51100000000E-03 0. -1.
         11    1    4    4    0    0 -0.34277010097E-01  0.36080794517E-01  0.24333660638E-01  0.55399686960E-01  0.51100000000E-03 0.  1.
</event>
<event>
 8    1  0.1097777E+005  0.1043930E+01  0.7957747E-01            NaN
         13   -1    0    0    0    0  0.00000000000E+00  0.00000000000E+00  0.74505805969E-08  0.10566000000E+00  0.10566000000E+00 0.  1.
     999900   -1    0    0    0    0 -0.00000000000E+00 -0.00000000000E+00 -0.74505805969E-08  0.93827000000E+00  0.93827000000E+00 0. -1.
     999902    2    1    2    0    0 -0.17331050438E-01 -0.13354344052E-01 -0.81391185097E-02  0.10205858559E+01  0.10203188424E+01 0.  0.
     999903    2    3    3    0    0 -0.79799781025E-01  0.33978406669E-01 -0.98118122763E-01  0.13253239308E+00  0.20374789073E-01 0.  0.
         14    1    1    2    0    0  0.17331050438E-01  0.13354344052E-01  0.81391185097E-02  0.23344144115E-01  0.00000000000E+00 0. -1.
     999901    1    3    3    0    0  0.62468730587E-01 -0.47332750720E-01  0.89979004253E-01  0.88805346280E+00  0.88000000000E+00 0.  1.
        -11    1    4    4    0    0 -0.44878488718E-01  0.13975853567E-01 -0.66060292782E-01  0.81077904734E-01  0.51100000000E-03 0. -1.
         11    1    4    4    0    0 -0.34921292307E-01  0.20002553102E-01 -0.32057829981E-01  0.51454488347E-01  0.51100000000E-03 0.  1.
</event>
<event>
 8    1  0.1097777E+005  0.1043930E+01  0.7957747E-01            NaN
         13   -1    0    0    0    0  0.00000000000E+00  0.00000000000E+00  0.74505805969E-08  0.10566000000E+00  0.10566000000E+00 0. -1.
     999900   -1    0    0    0    0 -0.00000000000E+00 -0.00000000000E+00 -0.74505805969E-08  0.93827000000E+00  0.93827000000E+00 0. -1.
     999902    2    1    2    0    0  0.73673362077E-02  0.11590128437E-01 -0.19093961360E-01  0.10204100493E+01  0.10201389516E+01 0.  0.
     999903    2    3    3    0    0  0.10672807456E+00 -0.58173527054E-01  0.41503368608E-01  0.13001038604E+00  0.20127834554E-01 0.  0.
         14    1    1    2    0    0 -0.73673362077E-02 -0.11590128437E-01  0.19093961360E-01  0.23519950689E-01  0.00000000000E+00 0. -1.
     999901    1    3    3    0    0 -0.99360738350E-01  0.69763655492E-01 -0.60597329968E-01  0.89039966327E+00  0.88000000000E+00 0. -1.
        -11    1    4    4    0    0  0.94148168829E-01 -0.43946277560E-01  0.38348452252E-01  0.11075205604E+00  0.51100000000E-03 0.  1.
         11    1    4    4    0    0  0.12579905729E-01 -0.14227249494E-01  0.31549163558E-02  0.19258330004E-01  0.51100000000E-03 0. -1.
</event>
<event>
 8    1  0.1097777E+005  0.1043930E+01  0.7957747E-01            NaN
         13   -1    0    0    0    0  0.00000000000E+00  0.00000000000E+00  0.74505805969E-08  0.10566000000E+00  0.10566000000E+00 0.  1.
     999900   -1    0    0    0    0 -0.00000000000E+00 -0.00000000000E+00 -0.74505805969E-08  0.93827000000E+00  0.93827000000E+00 0. -1.
     999902    2    1    2    0    0 -0.11011771571E-01 -0.12868317458E-01  0.14362200655E-01  0.10217235704E+01  0.10214822215E+01 0.  0.
     999903    2    3    3    0    0  0.73903971361E-01 -0.89792656036E-01  0.61521333877E-01  0.13304363866E+00  0.19779211401E-01 0.  0.
         14    1    1    2    0    0  0.11011771571E-01  0.12868317458E-01 -0.14362200655E-01  0.22206429587E-01  0.00000000000E+00 0.  1.
     999901    1    3    3    0    0 -0.84915742932E-01  0.76924338579E-01 -0.47159133222E-01  0.88867993176E+00  0.88000000000E+00 0.  1.
        -11    1    4    4    0    0  0.26838754959E-01 -0.18935900398E-01  0.15423677101E-01  0.36291018557E-01  0.51100000000E-03 0. -1.
         11    1    4    4    0    0  0.47065216402E-01 -0.70856755638E-01  0.46097656776E-01  0.96752620098E-01  0.51100000000E-03 0.  1.
</event>
<event>
 8    1  0.1097777E+005  0.1043930E+01  0.7957747E-01            NaN
         13   -1    0    0    0    0  0.00000000000E+00  0.00000000000E+00  0.74505805969E-08  0.10566000000E+00  0.10566000000E+00 0.  1.
     999900   -1    0    0    0    0 -0.00000000000E+00 -0.00000000000E+00 -0.74505805969E-08  0.93827000000E+00  0.93827000000E+00 0.  1.
     999902    2    1    2    0    0  0.12853180437E-01 -0.14320154879E-01  0.14386127700E-01  0.10199043522E+01  0.10196213296E+01 0.  0.
     999903    2    3    3    0    0  0.96154703421E-01  0.82643172736E-01  0.22573747269E-01  0.13063045301E+00  0.21888814421E-01 0.  0.
         14    1    1    2    0    0 -0.12853180437E-01  0.14320154879E-01 -0.14386127700E-01  0.24025647823E-01  0.00000000000E+00 0. -1.
     999901    1    3    3    0    0 -0.83301522984E-01 -0.96963327616E-01 -0.81876195691E-02  0.88927389917E+00  0.88000000000E+00 0.  1.
        -11    1    4    4    0    0  0.41864652079E-01  0.30049936171E-01  0.19101527756E-01  0.54961597877E-01  0.51100000000E-03 0.  1.
         11    1    4    4    0    0  0.54290051342E-01  0.52593236565E-01  0.34722195134E-02  0.75668855128E-01  0.51100000000E-03 0. -1.
</event>
<event>
 8    1  0.1097777E+005  0.1043930E+01  0.7957747E-01            NaN
         13   -1    0    0    0    0  0.00000000000E+00  0.00000000000E+00  0.74505805969E-08  0.10566000000E+00  0.10566000000E+00 0. -1.
     999900   -1    0    0    0    0 -0.00000000000E+00 -0.00000000000E+00 -0.74505805969E-08  0.93827000000E+00  0.93827000000E+00 0. -1.
     999902    2    1    2    0    0 -0.38855966886E-02 -0.23630828150E-01  0.28137628493E-02  0.10198171163E+01  0.10195320100E+01 0.  0.
     999903    2    3    3    0    0 -0.10841828332E+00  0.66604377184E-01  0.81697483588E-02  0.12903197863E+00  0.19794936287E-01 0.  0.
         14    1    1    2    0    0  0.38855966886E-02  0.23630828150E-01 -0.28137628493E-02  0.24112883735E-01  0.00000000000E+00 0.  1.
     999901    1    3    3    0    0  0.10453268663E+00 -0.90235205334E-01 -0.53559855095E-02  0.89078513764E+00  0.88000000000E+00 0. -1.
        -11    1    4    4    0    0 -0.89771319630E-01  0.45637110216E-01  0.66819592907E-02  0.10092841700E+00  0.51100000000E-03 0.  1.
         11    1    4    4    0    0 -0.18646963687E-01  0.20967266967E-01  0.14877890681E-02  0.28103561627E-01  0.51100000000E-03 0. -1.
</event>
<event>
 8    1  0.1097777E+005  0.1043930E+01  0.7957747E-01            NaN
         13   -1    0    0    0    0  0.00000000000E+00  0.00000000000E+00  0.74505805969E-08  0.10566000000E+00  0.10566000000E+00 0.  1.
     999900   -1    0    0    0    0 -0.00000000000E+00 -0.00000000000E+00 -0.74505805969E-08  0.93827000000E+00  0.93827000000E+00 0.  1.
     999902    2    1    2    0    0  0.39843428319E-03 -0.15814923672E-01 -0.17735634358E-01  0.10201639888E+01  0.10198871216E+01 0.  0.
     999903    2    3    3    0    0 -0.65987827051E-01  0.65070120031E-01  0.85506718487E-01  0.12797089908E+00  0.21832046735E-01 0.  0.
         14    1    1    2    0    0 -0.39843428319E-03  0.15814923672E-01  0.17735634358E-01  0.23766011165E-01  0.00000000000E+00 0.  1.
     999901    1    3    3    0    0  0.66386261334E-01 -0.80885043703E-01 -0.10324235284E+00  0.89219308976E+00  0.88000000000E+00 0.  1.
        -11    1    4    4    0    0 -0.41963025281E-01  0.31551452904E-01  0.36630685351E-01  0.64019199474E-01  0.51100000000E-03 0.  1.
         11    1    4    4    0    0 -0.24024801770E-01  0.33518667127E-01  0.48876033136E-01  0.63951699604E-01  0.51100000000E-03 0. -1.
</event>
<event>
 8    1  0.1097777E+005  0.1043930E+01  0.7957747E-01            NaN
         13   -1    0    0    0    0  0.00000000000E+00  0.00000000000E+00  0.74505805969E-08  0.10566000000E+00  0.10566000000E+00 0.  1.
     999900   -1    0    0    0    0 -0.00000000000E+00 -0.00000000000E+00 -0.74505805969E-08  0.93827000000E+00  0.93827000000E+00 0. -1.
     999902    2    1    2    0    0 -0.11326854217E-01  0.12882400218E-01  0.16550529649E-01  0.10200936015E+01  0.10198150724E+01 0.  0.
     999903    2    3    3    0    0  0.80213390409E-01 -0.88111664150E-01  0.46559330145E-01  0.12909419323E+00  0.17311445426E-01 0.  0.
         14    1    1    2    0    0  0.11326854217E-01 -0.12882400218E-01 -0.16550529649E-01  0.23836398501E-01  0.00000000000E+00 0. -1.
     999901    1    3    3    0    0 -0.91540244626E-01  0.10099406437E+00 -0.30008800496E-01  0.89099940827E+00  0.88000000000E+00 0. -1.
        -11    1    4    4    0    0  0.25404957907E-01 -0.39923681070E-01  0.20893396372E-01  0.51731106014E-01  0.51100000000E-03 0. -1.
         11    1    4    4    0    0  0.54808432502E-01 -0.48187983079E-01  0.25665933774E-01  0.77363087219E-01  0.51100000000E-03 0.  1.
</event>
<event>
 8    1  0.1097777E+005  0.1043930E+01  0.7957747E-01            NaN
         13   -1    0    0    0    0  0.00000000000E+00  0.00000000000E+00  0.74505805969E-08  0.10566000000E+00  0.10566000000E+00 0. -1.
     999900   -1    0    0    0    0 -0.00000000000E+00 -0.00000000000E+00 -0.74505805969E-08  0.93827000000E+00  0.93827000000E+00 0. -1.
     999902    2    1    2    0    0  0.45143658188E-02 -0.20701118421E-01  0.10034981523E-01  0.10204860955E+01  0.10202167684E+01 0.  0.
     999903    2    3    3    0    0  0.95579588833E-01 -0.59598742567E-01 -0.65578540963E-01  0.13170979927E+00  0.18959384812E-01 0.  0.
         14    1    1    2    0    0 -0.45143658188E-02  0.20701118421E-01 -0.10034981523E-01  0.23443904470E-01  0.00000000000E+00 0.  1.
     999901    1    3    3    0    0 -0.91065223014E-01  0.38897624146E-01  0.75613522486E-01  0.88877629626E+00  0.88000000000E+00 0.  1.
        -11    1    4    4    0    0  0.31528169897E-01 -0.29543367015E-01 -0.29201072379E-01  0.52151699691E-01  0.51100000000E-03 0. -1.
         11    1    4    4    0    0  0.64051418937E-01 -0.30055375552E-01 -0.36377468584E-01  0.79558099581E-01  0.51100000000E-03 0.  1.
</event>
<event>
 8    1  0.1097777E+005  0.1043930E+01  0.7957747E-01            NaN
         13   -1    0    0    0    0  0.00000000000E+00  0.00000000000E+00  0.74505805969E-08  0.10566000000E+00  0.10566000000E+00 0. -1.
     999900   -1    0    0    0    0 -0.00000000000E+00 -0.00000000000E+00 -0.74505805969E-08  0.93827000000E+00  0.93827000000E+00 0.  1.
     999902    2    1    2    0    0 -0.11938112614E-01 -0.19377129855E-01  0.41972204791E-02  0.10207867860E+01  0.10205244015E+01 0.  0.
     999903    2    3    3    0    0 -0.37407240489E-01 -0.10031577325E+00 -0.78240604457E-01  0.13287027222E+00  0.83881494392E-02 0.  0.
         14    1    1    2    0    0  0.11938112614E-01  0.19377129855E-01 -0.41972204791E-02  0.23143213994E-01  0.00000000000E+00 0.  1.
     999901    1    3    3    0    0  0.25469127875E-01  0.80938643395E-01  0.82437824936E-01  0.88791651378E+00  0.88000000000E+00 0. -1.
        -11    1    4    4    0    0 -0.30047844802E-02 -0.13701468649E-01 -0.78972452189E-02  0.16105482792E-01  0.51100000000E-03 0.  1.
         11    1    4    4    0    0 -0.34402456009E-01 -0.86614304601E-01 -0.70343359238E-01  0.11676478943E+00  0.51100000000E-03 0. -1.
</event>
<event>
 8    1  0.1097777E+005  0.1043930E+01  0.7957747E-01            NaN
         13   -1    0    0    0    0  0.00000000000E+00  0.00000000000E+00  0.74505805969E-08  0.10566000000E+00  0.10566000000E+00 0.  1.
     999900   -1    0    0    0    0 -0.00000000000E+00 -0.00000000000E+00 -0.74505805969E-08  0.93827000000E+00  0.93827000000E+00 0. -1.
     999902    2    1    2    0    0 -0.22659783394E-01  0.10034200334E-01 -0.51529470701E-02  0.10186178720E+01  0.10183033268E+01 0.  0.
     999903    2    3    3    0    0 -0.11216792974E+00 -0.45348713680E-01  0.45740833910E-01  0.13088528144E+00  0.20014562568E-01 0.  0.
         14    1    1    2    0    0  0.22659783394E-01 -0.10034200334E-01  0.51529470701E-02  0.25312127988E-01  0.00000000000E+00 0.  1.
     999901    1    3    3    0    0  0.89508146348E-01  0.55382914014E-01 -0.50893780981E-01  0.88773259058E+00  0.88000000000E+00 0. -1.
        -11    1    4    4    0    0 -0.65862917648E-01 -0.35945680309E-01  0.23262814446E-01  0.78558484653E-01  0.51100000000E-03 0.  1.
         11    1    4    4    0    0 -0.46305012094E-01 -0.94030333717E-02  0.22478019464E-01  0.52326796784E-01  0.51100000000E-03 0. -1.
</event>
<event>
 8    1  0.1097777E+005  0.1043930E+01  0.7957747E-01            NaN
         13   -1    0    0    0    0  0.00000000000E+00  0.00000000000E+00  0.74505805969E-08  0.10566000000E+00  0.10566000000E+00 0.  1.
     999900   -1    0    0    0    0 -0.00000000000E+00 -0.00000000000E+00 -0.74505805969E-08  0.93827000000E+00  0.93827000000E+00 0. -1.
     999902    2    1    2    0    0  0.18810828873E-01 -0.91199543309E-02 -0.81275637470E-02  0.10215005965E+01  0.10212543221E+01 0.  0.
     999903    2    3    3    0    0 -0.12669891424E+00 -0.92569910584E-03  0.13403622968E-01  0.12925409289E+00  0.21759862842E-01 0.  0.
         14    1    1    2    0    0 -0.18810828873E-01  0.91199543309E-02  0.81275637470E-02  0.22429403522E-01  0.00000000000E+00 0.  1.
     999901    1    3    3    0    0  0.14550974312E+00 -0.81942552250E-02 -0.21531186715E-01  0.89224650359E+00  0.88000000000E+00 0.  1.
        -11    1    4    4    0    0 -0.10378375604E-01 -0.60629451809E-02  0.26875238593E-02  0.12326957854E-01  0.51100000000E-03 0. -1.
         11    1    4    4    0    0 -0.11632053864E+00  0.51372460751E-02  0.10716099109E-01  0.11692713504E+00  0.51100000000E-03 0.  1.
</event>
<event>
 8    1  0.1097777E+005  0.1043930E+01  0.7957747E-01            NaN
         13   -1    0    0    0    0  0.00000000000E+00  0.00000000000E+00  0.74505805969E-08  0.10566000000E+00  0.10566000000E+00 0.  1.
     999900   -1    0    0    0    0 -0.00000000000E+00 -0.00000000000E+00 -0.74505805969E-08  0.93827000000E+00  0.93827000000E+00 0. -1.
     999902    2    1    2    0    0  0.20832851782E-01 -0.10174762764E-01  0.55121100325E-02  0.10200989936E+01  0.10198205920E+01 0.  0.
     999903    2    3    3    0    0 -0.10417058862E+00  0.39999429122E-01  0.58899713433E-01  0.12825060632E+00  0.22969020744E-01 0.  0.
         14    1    1    2    0    0 -0.20832851782E-01  0.10174762764E-01 -0.55121100325E-02  0.23831006435E-01  0.00000000000E+00 0. -1.
     999901    1    3    3    0    0  0.12500344040E+00 -0.50174191886E-01 -0.53387603401E-01  0.89184838725E+00  0.88000000000E+00 0. -1.
        -11    1    4    4    0    0 -0.83691671815E-01  0.21714023486E-01  0.45050226703E-01  0.97496557858E-01  0.51100000000E-03 0.  1.
         11    1    4    4    0    0 -0.20478916806E-01  0.18285405636E-01  0.13849486730E-01  0.30754048457E-01  0.51100000000E-03 0. -1.
</event>
<event>
 8    1  0.1097777E+005  0.1043930E+01  0.7957747E-01            NaN
         13   -1    0    0    0    0  0.00000000000E+00  0.00000000000E+00  0.74505805969E-08  0.10566000000E+00  0.10566000000E+00 0. -1.
     999900   -1    0    0    0    0 -0.00000000000E+00 -0.00000000000E+00 -0.74505805969E-08  0.93827000000E+00  0.93827000000E+00 0. -1.
     999902    2    1    2    0    0 -0.12815659722E-01  0.25337300702E-01 -0.52330686890E-02  0.10150577824E+01  0.10146470799E+01 0.  0.
     999903    2    3    3    0    0  0.11138249566E+00 -0.70410004506E-03  0.51100083880E-01  0.12417240233E+00  0.20025254867E-01 0.  0.
         14    1    1    2    0    0  0.12815659722E-01 -0.25337300702E-01  0.52330686890E-02  0.28872217596E-01  0.00000000000E+00 0. -1.
     999901    1    3    3    0    0 -0.12419815538E+00  0.26041400747E-01 -0.56333152569E-01  0.89088538007E+00  0.88000000000E+00 0. -1.
        -11    1    4    4    0    0  0.96797628711E-01  0.11198611823E-02  0.51100884401E-01  0.10946504703E+00  0.51100000000E-03 0.  1.
         11    1    4    4    0    0  0.14584866945E-01 -0.18239612274E-02 -0.80052115000E-06  0.14707355302E-01  0.51100000000E-03 0. -1.
</event>
<event>
 8    1  0.1097777E+005  0.1043930E+01  0.7957747E-01            NaN
         13   -1    0    0    0    0  0.00000000000E+00  0.00000000000E+00  0.74505805969E-08  0.10566000000E+00  0.10566000000E+00 0. -1.
     999900   -1    0    0    0    0 -0.00000000000E+00 -0.00000000000E+00 -0.74505805969E-08  0.93827000000E+00  0.93827000000E+00 0.  1.
     999902    2    1    2    0    0  0.21327147209E-01  0.73174346194E-02 -0.67778349219E-02  0.10203857628E+01  0.10201140985E+01 0.  0.
     999903    2    3    3    0    0 -0.10507126110E+00 -0.10286673372E-01 -0.71404122425E-01  0.12883485611E+00  0.18817170110E-01 0.  0.
         14    1    1    2    0    0 -0.21327147209E-01 -0.73174346194E-02  0.67778349219E-02  0.23544237166E-01  0.00000000000E+00 0. -1.
     999901    1    3    3    0    0  0.12639840831E+00  0.17604107992E-01  0.64626287503E-01  0.89155090672E+00  0.88000000000E+00 0. -1.
        -11    1    4    4    0    0 -0.50227999668E-01  0.40585975523E-02 -0.30180629728E-01  0.58740579641E-01  0.51100000000E-03 0.  1.
         11    1    4    4    0    0 -0.54843261436E-01 -0.14345270925E-01 -0.41223492697E-01  0.70094276471E-01  0.51100000000E-03 0. -1.
</event>
<event>
 8    1  0.1097777E+005  0.1043930E+01  0.7957747E-01            NaN
         13   -1    0    0    0    0  0.00000000000E+00  0.00000000000E+00  0.74505805969E-08  0.10566000000E+00  0.10566000000E+00 0. -1.
     999900   -1    0    0    0    0 -0.00000000000E+00 -0.00000000000E+00 -0.74505805969E-08  0.93827000000E+00  0.93827000000E+00 0.  1.
     999902    2    1    2    0    0 -0.12820533229E-01 -0.11188211613E-01  0.16334061546E-01  0.10203430604E+01  0.10200703982E+01 0.  0.
     999903    2    3    3    0    0 -0.73841660686E-01 -0.10407954473E+00  0.32360677504E-01  0.13320765353E+00  0.20295886974E-01 0.  0.
         14    1    1    2    0    0  0.12820533229E-01  0.11188211613E-01 -0.16334061546E-01  0.23586939564E-01  0.00000000000E+00 0. -1.
     999901    1    3    3    0    0  0.61021127457E-01  0.92891333112E-01 -0.16026615958E-01  0.88713540690E+00  0.88000000000E+00 0.  1.
        -11    1    4    4    0    0 -0.43416638990E-01 -0.61442193817E-01  0.29288474581E-01  0.80735516264E-01  0.51100000000E-03 0. -1.
         11    1    4    4    0    0 -0.30425021696E-01 -0.42637350909E-01  0.30722029234E-02  0.52472137268E-01  0.51100000000E-03 0.  1.
</event>
<event>
 7    1  0.1097777E+005  0.1043930E+01  0.7957747E-01            NaN
         13   -1    0    0    0    0  0.00000000000E+00  0.00000000000E+00  0.74505805969E-08  0.10566000000E+00  0.10566000000E+00 0. -1.
     999900   -1    0    0    0    0 -0.00000000000E+00 -0.00000000000E+00 -0.74505805969E-08  0.93827000000E+00  0.93827000000E+00 0. -1.
     999903    2    1    2    0    0  0.63917898060E-02  0.11719265138E+00 -0.84472665335E-01  0.14598026139E+00  0.19990823219E-01 0.  0.
         14    1    1    2    0    0  0.40131681318E-02  0.32696251632E-02 -0.18508121249E-02  0.54974059959E-02  0.00000000000E+00 0. -1.
     999901    1    1    2    0    0 -0.10404957938E-01 -0.12046227655E+00  0.86323477460E-01  0.89245233261E+00  0.88000000000E+00 0.  1.
        -11    1    3    3    0    0 -0.50936727552E-02  0.62176104472E-01 -0.50861545631E-01  0.80492058083E-01  0.51100000000E-03 0.  1.
         11    1    3    3    0    0  0.11485462561E-01  0.55016546911E-01 -0.33611119704E-01  0.65488203312E-01  0.51100000000E-03 0. -1.
</event>
<event>
 8    1  0.1097777E+005  0.1043930E+01  0.7957747E-01            NaN
         13   -1    0    0    0    0  0.00000000000E+00  0.00000000000E+00  0.74505805969E-08  0.10566000000E+00  0.10566000000E+00 0.  1.
     999900   -1    0    0    0    0 -0.00000000000E+00 -0.00000000000E+00 -0.74505805969E-08  0.93827000000E+00  0.93827000000E+00 0. -1.
     999902    2    1    2    0    0 -0.44486110762E-02 -0.47513685461E-03 -0.23412775153E-01  0.10200936006E+01  0.10198150715E+01 0.  0.
     999903    2    3    3    0    0 -0.61641003443E-01  0.98396330275E-01 -0.59363977792E-01  0.13198379561E+00  0.20351641910E-01 0.  0.
         14    1    1    2    0    0  0.44486110762E-02  0.47513685461E-03  0.23412775153E-01  0.23836399391E-01  0.00000000000E+00 0.  1.
     999901    1    3    3    0    0  0.57192392367E-01 -0.98871467130E-01  0.35951202639E-01  0.88810980499E+00  0.88000000000E+00 0.  1.
        -11    1    4    4    0    0 -0.31464520141E-01  0.43829088956E-01 -0.38288560415E-01  0.66161016060E-01  0.51100000000E-03 0.  1.
         11    1    4    4    0    0 -0.30176483301E-01  0.54567241320E-01 -0.21075417377E-01  0.65822779555E-01  0.51100000000E-03 0. -1.
</event>
<event>
 8    1  0.1097777E+005  0.1043930E+01  0.7957747E-01            NaN
         13   -1    0    0    0    0  0.00000000000E+00  0.00000000000E+00  0.74505805969E-08  0.10566000000E+00  0.10566000000E+00 0. -1.
     999900   -1    0    0    0    0 -0.00000000000E+00 -0.00000000000E+00 -0.74505805969E-08  0.93827000000E+00  0.93827000000E+00 0. -1.
     999902    2    1    2    0    0 -0.84052559508E-02 -0.84922991891E-02  0.19963304412E-01  0.10206641238E+01  0.10203989184E+01 0.  0.
     999903    2    3    3    0    0  0.88932842752E-02 -0.90438596149E-01  0.94949167277E-01  0.13351288825E+00  0.23497165430E-01 0.  0.
         14    1    1    2    0    0  0.84052559508E-02  0.84922991891E-02 -0.19963304412E-01  0.23265876218E-01  0.00000000000E+00 0.  1.
     999901    1    3    3    0    0 -0.17298540226E-01  0.81946296960E-01 -0.74985862865E-01  0.88715123553E+00  0.88000000000E+00 0. -1.
        -11    1    4    4    0    0  0.63366251834E-02 -0.85330382396E-01  0.78603728325E-01  0.11619050825E+00  0.51100000000E-03 0.  1.
         11    1    4    4    0    0  0.25566590918E-02 -0.51082137526E-02  0.16345438952E-01  0.17322380003E-01  0.51100000000E-03 0. -1.
</event>
<event>
 8    1  0.1097777E+005  0.1043930E+01  0.7957747E-01            NaN
         13   -1    0    0    0    0  0.00000000000E+00  0.00000000000E+00  0.74505805969E-08  0.10566000000E+00  0.10566000000E+00 0. -1.
     999900   -1    0    0    0    0 -0.00000000000E+00 -0.00000000000E+00 -0.74505805969E-08  0.93827000000E+00  0.93827000000E+00 0.  1.
     999902    2    1    2    0    0  0.75347506670E-02 -0.20769301053E-01 -0.86359680697E-02  0.10202083584E+01  0.10199325362E+01 0.  0.
     999903    2    3    3    0    0  0.45626477660E-01  0.65063428347E-01  0.99086231777E-01  0.12868028292E+00  0.20627862522E-01 0.  0.
         14    1    1    2    0    0 -0.75347506670E-02  0.20769301053E-01  0.86359680697E-02  0.23721641561E-01  0.00000000000E+00 0. -1.
     999901    1    3    3    0    0 -0.38091726993E-01 -0.85832729400E-01 -0.10772219985E+00  0.89152807552E+00  0.88000000000E+00 0.  1.
        -11    1    4    4    0    0  0.40751010391E-01  0.42097114081E-01  0.69297771208E-01  0.90748300685E-01  0.51100000000E-03 0. -1.
         11    1    4    4    0    0  0.48754672687E-02  0.22966314266E-01  0.29788460569E-01  0.37931982233E-01  0.51100000000E-03 0.  1.
</event>
<event>
 8    1  0.1097777E+005  0.1043930E+01  0.7957747E-01            NaN
         13   -1    0    0    0    0  0.00000000000E+00  0.00000000000E+00  0.74505805969E-08  0.10566000000E+00  0.10566000000E+00 0. -1.
     999900   -1    0    0    0    0 -0.00000000000E+00 -0.00000000000E+00 -0.74505805969E-08  0.93827000000E+00  0.93827000000E+00 0. -1.
     999902    2    1    2    0    0  0.97702644307E-02  0.30201610139E-02 -0.21497727834E-01  0.10201238718E+01  0.10198460580E+01 0.  0.
     999903    2    3    3    0    0 -0.10406693679E+00 -0.20868492610E-01  0.68245899715E-01  0.12794480070E+00  0.21141141942E-01 0.  0.
         14    1    1    2    0    0 -0.97702644307E-02 -0.30201610139E-02  0.21497727834E-01  0.23806128236E-01  0.00000000000E+00 0. -1.
     999901    1    3    3    0    0  0.11383720122E+00  0.23888653624E-01 -0.89743627548E-01  0.89217907106E+00  0.88000000000E+00 0. -1.
        -11    1    4    4    0    0 -0.61310253939E-01 -0.14781228635E-01  0.28351364520E-01  0.69148340176E-01  0.51100000000E-03 0.  1.
         11    1    4    4    0    0 -0.42756682850E-01 -0.60872639753E-02  0.39894535195E-01  0.58796460527E-01  0.51100000000E-03 0. -1.
</event>
<event>
 8    1  0.1097777E+005  0.1043930E+01  0.7957747E-01            NaN
         13   -1    0    0    0    0  0.00000000000E+00  0.00000000000E+00  0.74505805969E-08  0.10566000000E+00  0.10566000000E+00 0.  1.
     999900   -1    0    0    0    0 -0.00000000000E+00 -0.00000000000E+00 -0.74505805969E-08  0.93827000000E+00  0.93827000000E+00 0. -1.
     999902    2    1    2    0    0 -0.29115898899E-02 -0.22947974550E-01 -0.40665209955E-02  0.10204433339E+01  0.10201730119E+01 0.  0.
     999903    2    3    3    0    0 -0.94892935554E-01  0.42144833347E-01 -0.75924919820E-01  0.13035273678E+00  0.21127856991E-01 0.  0.
         14    1    1    2    0    0  0.29115898899E-02  0.22947974550E-01  0.40665209955E-02  0.23486666103E-01  0.00000000000E+00 0. -1.
     999901    1    3    3    0    0  0.91981345664E-01 -0.65092807897E-01  0.71858398825E-01  0.89009059711E+00  0.88000000000E+00 0.  1.
        -11    1    4    4    0    0 -0.31935711621E-01  0.90822141793E-02 -0.13924688753E-01  0.36007421027E-01  0.51100000000E-03 0.  1.
         11    1    4    4    0    0 -0.62957223933E-01  0.33062619168E-01 -0.62000231067E-01  0.94345315755E-01  0.51100000000E-03 0. -1.
</event>
<event>
 8    1  0.1097777E+005  0.1043930E+01  0.7957747E-01            NaN
         13   -1    0    0    0    0  0.00000000000E+00  0.00000000000E+00  0.74505805969E-08  0.10566000000E+00  0.10566000000E+00 0. -1.
     999900   -1    0    0    0    0 -0.00000000000E+00 -0.00000000000E+00 -0.74505805969E-08  0.93827000000E+00  0.93827000000E+00 0.  1.
     999902    2    1    2    0    0  0.15623852578E-01  0.20397433495E-01  0.10161053541E-02  0.10182163357E+01  0.10178916021E+01 0.  0.
     999903    2    3    3    0    0 -0.79856799760E-01 -0.82935017427E-01 -0.46416869261E-01  0.12577920206E+00  0.20262189804E-01 0.  0.
         14    1    1    2    0    0 -0.15623852578E-01 -0.20397433495E-01 -0.10161053541E-02  0.25713664318E-01  0.00000000000E+00 0.  1.
     999901    1    3    3    0    0  0.95480652338E-01  0.10333245092E+00  0.47432974615E-01  0.89243713362E+00  0.88000000000E+00 0. -1.
        -11    1    4    4    0    0 -0.35545669278E-01 -0.42822526246E-01 -0.12454554508E-01  0.57031924459E-01  0.51100000000E-03 0. -1.
         11    1    4    4    0    0 -0.44311130482E-01 -0.40112491181E-01 -0.33962314753E-01  0.68747277602E-01  0.51100000000E-03 0.  1.
</event>
<event>
 8    1  0.1097777E+005  0.1043930E+01  0.7957747E-01            NaN
         13   -1    0    0    0    0  0.00000000000E+00  0.00000000000E+00  0.74505805969E-08  0.10566000000E+00  0.10566000000E+00 0.  1.
     999900   -1    0    0    0    0 -0.00000000000E+00 -0.00000000000E+00 -0.74505805969E-08  0.93827000000E+00  0.93827000000E+00 0. -1.
     999902    2    1    2    0    0  0.17639228285E-01  0.11116668640E-01 -0.65842919146E-02  0.10220650601E+01  0.10218311561E+01 0.  0.
     999903    2    3    3    0    0  0.12326005479E+00 -0.46516822861E-01  0.97553669637E-02  0.13372708232E+00  0.20758358476E-01 0.  0.
         14    1    1    2    0    0 -0.17639228285E-01 -0.11116668640E-01  0.65842919146E-02  0.21864939885E-01  0.00000000000E+00 0. -1.
     999901    1    3    3    0    0 -0.10562082650E+00  0.57633491501E-01 -0.16339658878E-01  0.88833797779E+00  0.88000000000E+00 0.  1.
        -11    1    4    4    0    0  0.35242507190E-01 -0.20341385686E-01 -0.39304579810E-02  0.40884176714E-01  0.51100000000E-03 0. -1.
         11    1    4    4    0    0  0.88017547599E-01 -0.26175437175E-01  0.13685824945E-01  0.92842905610E-01  0.51100000000E-03 0.  1.
</event>
<event>
 8    1  0.1097777E+005  0.1043930E+01  0.7957747E-01            NaN
         13   -1    0    0    0    0  0.00000000000E+00  0.00000000000E+00  0.74505805969E-08  0.10566000000E+00  0.10566000000E+00 0. -1.
     999900   -1    0    0    0    0 -0.00000000000E+00 -0.00000000000E+00 -0.74505805969E-08  0.93827000000E+00  0.93827000000E+00 0. -1.
     999902    2    1    2    0    0  0.17237424488E-01 -0.14993221099E-01  0.68030563468E-02  0.10200929058E+01  0.10198143603E+01 0.  0.
     999903    2    3    3    0    0 -0.47006789686E-01  0.96992798485E-01  0.67258483299E-01  0.12862050230E+00  0.20057138437E-01 0.  0.
         14    1    1    2    0    0 -0.17237424488E-01  0.14993221099E-01 -0.68030563468E-02  0.23837094151E-01  0.00000000000E+00 0.  1.
     999901    1    3    3    0    0  0.64244214174E-01 -0.11198601958E+00 -0.60455426952E-01  0.89147240355E+00  0.88000000000E+00 0. -1.
        -11    1    4    4    0    0 -0.19504046272E-01  0.34367757186E-01  0.35835713739E-01  0.53348008915E-01  0.51100000000E-03 0.  1.
         11    1    4    4    0    0 -0.27502743414E-01  0.62625041299E-01  0.31422769560E-01  0.75272493388E-01  0.51100000000E-03 0. -1.
</event>
<event>
 8    1  0.1097777E+005  0.1043930E+01  0.7957747E-01            NaN
         13   -1    0    0    0    0  0.00000000000E+00  0.00000000000E+00  0.74505805969E-08  0.10566000000E+00  0.10566000000E+00 0.  1.
     999900   -1    0    0    0    0 -0.00000000000E+00 -0.00000000000E+00 -0.74505805969E-08  0.93827000000E+00  0.93827000000E+00 0. -1.
     999902    2    1    2    0    0 -0.10797825360E-01 -0.10283104567E-01 -0.19261523955E-01  0.10195713962E+01  0.10192803787E+01 0.  0.
     999903    2    3    3    0    0  0.29301898186E-01 -0.38947380740E-01 -0.12150174090E+00  0.13228187725E+00  0.18982157434E-01 0.  0.
         14    1    1    2    0    0  0.10797825360E-01  0.10283104567E-01  0.19261523955E-01  0.24358603760E-01  0.00000000000E+00 0.  1.
     999901    1    3    3    0    0 -0.40099723546E-01  0.28664276174E-01  0.10224021695E+00  0.88728951900E+00  0.88000000000E+00 0.  1.
        -11    1    4    4    0    0  0.62875584912E-02 -0.22709670388E-01 -0.65121529623E-01  0.69255593726E-01  0.51100000000E-03 0. -1.
         11    1    4    4    0    0  0.23014339695E-01 -0.16237710352E-01 -0.56380211282E-01  0.63026283519E-01  0.51100000000E-03 0.  1.
</event>
<event>
 8    1  0.1097777E+005  0.1043930E+01  0.7957747E-01            NaN
         13   -1    0    0    0    0  0.00000000000E+00  0.00000000000E+00  0.74505805969E-08  0.10566000000E+00  0.10566000000E+00 0. -1.
     999900   -1    0    0    0    0 -0.00000000000E+00 -0.00000000000E+00 -0.74505805969E-08  0.93827000000E+00  0.93827000000E+00 0. -1.
     999902    2    1    2    0    0 -0.10967175585E-01 -0.20860377304E-01  0.22379451056E-02  0.10202563294E+01  0.10199816346E+01 0.  0.
     999903    2    3    3    0    0  0.52646642576E-01 -0.77518031261E-02 -0.11680701536E+00  0.12986863002E+00  0.19754057839E-01 0.  0.
         14    1    1    2    0    0  0.10967175585E-01  0.20860377304E-01 -0.22379451056E-02  0.23673670605E-01  0.00000000000E+00 0. -1.
     999901    1    3    3    0    0 -0.63613818162E-01 -0.13108574178E-01  0.11904496046E+00  0.89038769937E+00  0.88000000000E+00 0.  1.
        -11    1    4    4    0    0  0.37135356654E-02  0.30502217954E-02 -0.23129052149E-01  0.23628549987E-01  0.51100000000E-03 0.  1.
         11    1    4    4    0    0  0.48933106911E-01 -0.10802024921E-01 -0.93677963210E-01  0.10624008004E+00  0.51100000000E-03 0. -1.
</event>
<event>
 8    1  0.1097777E+005  0.1043930E+01  0.7957747E-01            NaN
         13   -1    0    0    0    0  0.00000000000E+00  0.00000000000E+00  0.74505805969E-08  0.10566000000E+00  0.10566000000E+00 0. -1.
     999900   -1    0    0    0    0 -0.00000000000E+00 -0.00000000000E+00 -0.74505805969E-08  0.93827000000E+00  0.93827000000E+00 0. -1.
     999902    2    1    2    0    0 -0.10451234508E-01  0.58298567111E-02  0.20420476906E-01  0.10202612145E+01  0.10199866344E+01 0.  0.
     999903    2    3    3    0    0  0.11732432318E+00  0.50594960599E-01  0.14361692735E-01  0.12988645261E+00  0.18422418578E-01 0.  0.
         14    1    1    2    0    0  0.10451234508E-01 -0.58298567111E-02 -0.20420476906E-01  0.23668785543E-01  0.00000000000E+00 0.  1.
     999901    1    3    3    0    0 -0.12777555769E+00 -0.44765103888E-01  0.60587841706E-02  0.89037476185E+00  0.88000000000E+00 0. -1.
        -11    1    4    4    0    0  0.31138749679E-01  0.64468955440E-02  0.82586609516E-02  0.32858040042E-01  0.51100000000E-03 0. -1.
         11    1    4    4    0    0  0.86185573499E-01  0.44148065055E-01  0.61030317836E-02  0.97028412568E-01  0.51100000000E-03 0.  1.
</event>
<event>
 8    1  0.1097777E+005  0.1043930E+01  0.7957747E-01            NaN
         13   -1    0    0    0    0  0.00000000000E+00  0.00000000000E+00  0.74505805969E-08  0.10566000000E+00  0.10566000000E+00 0. -1.
     999900   -1    0    0    0    0 -0.00000000000E+00 -0.00000000000E+00 -0.74505805969E-08  0.93827000000E+00  0.93827000000E+00 0. -1.
     999902    2    1    2    0    0 -0.11648131619E-02  0.96361363877E-02 -0.19183429062E-01  0.10224307939E+01  0.10222047311E+01 0.  0.
     999903    2    3    3    0    0 -0.67998814051E-02  0.85753741593E-01 -0.10086323648E+00  0.13535851115E+00  0.27360399887E-01 0.  0.
         14    1    1    2    0    0  0.11648131619E-02 -0.96361363877E-02  0.19183429062E-01  0.21499206142E-01  0.00000000000E+00 0. -1.
     999901    1    3    3    0    0  0.56350682432E-02 -0.76117605206E-01  0.81679807418E-01  0.88707228271E+00  0.88000000000E+00 0. -1.
        -11    1    4    4    0    0 -0.13793104318E-01  0.61382399665E-01 -0.58084753601E-01  0.85627965276E-01  0.51100000000E-03 0.  1.
         11    1    4    4    0    0  0.69932229125E-02  0.24371341928E-01 -0.42778482879E-01  0.49730545870E-01  0.51100000000E-03 0. -1.
</event>
<event>
 8    1  0.1097777E+005  0.1043930E+01  0.7957747E-01            NaN
         13   -1    0    0    0    0  0.00000000000E+00  0.00000000000E+00  0.74505805969E-08  0.10566000000E+00  0.10566000000E+00 0. -1.
     999900   -1    0    0    0    0 -0.00000000000E+00 -0.00000000000E+00 -0.74505805969E-08  0.93827000000E+00  0.93827000000E+00 0.  1.
     999902    2    1    2    0    0 -0.36529970652E-02  0.58376924154E-02 -0.23380146627E-01  0.10195567709E+01  0.10192653996E+01 0.  0.
     999903    2    3    3    0    0 -0.93770526063E-02  0.45721260340E-01  0.11694343228E+00  0.12752864881E+00  0.20234306319E-01 0.  0.
         14    1    1    2    0    0  0.36529970652E-02 -0.58376924154E-02  0.23380146627E-01  0.24373229096E-01  0.00000000000E+00 0. -1.
     999901    1    3    3    0    0  0.57240555411E-02 -0.39883567924E-01 -0.14032357891E+00  0.89202812209E+00  0.88000000000E+00 0.  1.
        -11    1    4    4    0    0 -0.11810238192E-01  0.43065042016E-01  0.11507930110E+00  0.12344061824E+00  0.51100000000E-03 0.  1.
         11    1    4    4    0    0  0.24331855856E-02  0.26562183235E-02  0.18641311799E-02  0.40880305689E-02  0.51100000000E-03 0. -1.
</event>
<event>
 8    1  0.1097777E+005  0.1043930E+01  0.7957747E-01            NaN
         13   -1    0    0    0    0  0.00000000000E+00  0.00000000000E+00  0.74505805969E-08  0.10566000000E+00  0.10566000000E+00 0.  1.
     999900   -1    0    0    0    0 -0.00000000000E+00 -0.00000000000E+00 -0.74505805969E-08  0.93827000000E+00  0.93827000000E+00 0.  1.
     999902    2    1    2    0    0  0.43483121994E-02  0.21734624879E-01  0.89974086409E-02  0.10200081460E+01  0.10197275924E+01 0.  0.
     999903    2    3    3    0    0  0.74599632738E-01  0.71912933876E-02 -0.10415112242E+00  0.12986807464E+00  0.20035982691E-01 0.  0.
         14    1    1    2    0    0 -0.43483121994E-02 -0.21734624879E-01 -0.89974086409E-02  0.23921854022E-01  0.00000000000E+00 0.  1.
     999901    1    3    3    0    0 -0.70251320539E-01  0.14543331491E-01  0.11314853106E+00  0.89014007134E+00  0.88000000000E+00 0. -1.
        -11    1    4    4    0    0  0.22746990087E-01  0.44606814913E-02 -0.48477212435E-01  0.53736621441E-01  0.51100000000E-03 0.  1.
         11    1    4    4    0    0  0.51852642651E-01  0.27306118963E-02 -0.55673909987E-01  0.76131453195E-01  0.51100000000E-03 0. -1.
</event>
<event>
 8    1  0.1097777E+005  0.1043930E+01  0.7957747E-01            NaN
         13   -1    0    0    0    0  0.00000000000E+00  0.00000000000E+00  0.74505805969E-08  0.10566000000E+00  0.10566000000E+00 0. -1.
     999900   -1    0    0    0    0 -0.00000000000E+00 -0.00000000000E+00 -0.74505805969E-08  0.93827000000E+00  0.93827000000E+00 0.  1.
     999902    2    1    2    0    0  0.31366195079E-02 -0.51095112880E-02  0.22387794810E-01  0.10207533125E+01  0.10204901597E+01 0.  0.
     999903    2    3    3    0    0 -0.10789893400E+00  0.67507960538E-01  0.23165818249E-01  0.13080792277E+00  0.19353367441E-01 0.  0.
         14    1    1    2    0    0 -0.31366195079E-02  0.51095112880E-02 -0.22387794810E-01  0.23176687512E-01  0.00000000000E+00 0.  1.
     999901    1    3    3    0    0  0.11103555350E+00 -0.72617471826E-01 -0.77802343878E-03  0.88994538972E+00  0.88000000000E+00 0.  1.
        -11    1    4    4    0    0 -0.55236456556E-01  0.44551663762E-01  0.17403791201E-01  0.73068939680E-01  0.51100000000E-03 0. -1.
         11    1    4    4    0    0 -0.52662477440E-01  0.22956296776E-01  0.57620270484E-02  0.57738983092E-01  0.51100000000E-03 0.  1.
</event>
<event>
 8    1  0.1097777E+005  0.1043930E+01  0.7957747E-01            NaN
         13   -1    0    0    0    0  0.00000000000E+00  0.00000000000E+00  0.74505805969E-08  0.10566000000E+00  0.10566000000E+00 0. -1.
     999900   -1    0    0    0    0 -0.00000000000E+00 -0.00000000000E+00 -0.74505805969E-08  0.93827000000E+00  0.93827000000E+00 0.  1.
     999902    2    1    2    0    0  0.18087504794E-01  0.68752999354E-03 -0.17278073767E-01  0.10189067636E+01  0.10185994456E+01 0.  0.
     999903    2    3    3    0    0 -0.94619161226E-01  0.30450713187E-01 -0.79925886187E-01  0.12901160795E+00  0.19385976840E-01 0.  0.
         14    1    1    2    0    0 -0.18087504794E-01 -0.68752999354E-03  0.17278073767E-01  0.25023236407E-01  0.00000000000E+00 0. -1.
     999901    1    3    3    0    0  0.11270666602E+00 -0.29763183193E-01  0.62647812421E-01  0.88989515564E+00  0.88000000000E+00 0. -1.
        -11    1    4    4    0    0 -0.67605504564E-01  0.13942046736E-01 -0.61022321966E-01  0.92135062889E-01  0.51100000000E-03 0. -1.
         11    1    4    4    0    0 -0.27013656662E-01  0.16508666451E-01 -0.18903564222E-01  0.36876545060E-01  0.51100000000E-03 0.  1.
</event>
<event>
 8    1  0.1097777E+005  0.1043930E+01  0.7957747E-01            NaN
         13   -1    0    0    0    0  0.00000000000E+00  0.00000000000E+00  0.74505805969E-08  0.10566000000E+00  0.10566000000E+00 0.  1.
     999900   -1    0    0    0    0 -0.00000000000E+00 -0.00000000000E+00 -0.74505805969E-08  0.93827000000E+00  0.93827000000E+00 0.  1.
     999902    2    1    2    0    0 -0.98443294506E-02 -0.16950070878E-01  0.14389101843E-01  0.10196141209E+01  0.10193241357E+01 0.  0.
     999903    2    3    3    0    0  0.48016736965E-01 -0.61963373602E-01 -0.10092827172E+00  0.12906811024E+00  0.18082985160E-01 0.  0.
         14    1    1    2    0    0  0.98443294506E-02  0.16950070878E-01 -0.14389101843E-01  0.24315879111E-01  0.00000000000E+00 0. -1.
     999901    1    3    3    0    0 -0.57861066415E-01  0.45013302724E-01  0.11531737357E+00  0.89054601064E+00  0.88000000000E+00 0. -1.
        -11    1    4    4    0    0  0.23110670681E-01 -0.44034244584E-01 -0.60886232120E-01  0.78616233554E-01  0.51100000000E-03 0.  1.
         11    1    4    4    0    0  0.24906066284E-01 -0.17929129018E-01 -0.40042039602E-01  0.50451876690E-01  0.51100000000E-03 0. -1.
</event>
<event>
 8    1  0.1097777E+005  0.1043930E+01  0.7957747E-01            NaN
         13   -1    0    0    0    0  0.00000000000E+00  0.00000000000E+00  0.74505805969E-08  0.10566000000E+00  0.10566000000E+00 0. -1.
     999900   -1    0    0    0    0 -0.00000000000E+00 -0.00000000000E+00 -0.74505805969E-08  0.93827000000E+00  0.93827000000E+00 0. -1.
     999902    2    1    2    0    0  0.12621281731E-01  0.12099673234E-01 -0.17071757846E-01  0.10194934749E+01  0.10192005698E+01 0.  0.
     999903    2    3    3    0    0  0.68769785465E-01  0.82614783488E-01 -0.75770811085E-01  0.13294363752E+00  0.19450169658E-01 0.  0.
         14    1    1    2    0    0 -0.12621281731E-01 -0.12099673234E-01  0.17071757846E-01  0.24436525138E-01  0.00000000000E+00 0. -1.
     999901    1    3    3    0    0 -0.56148503734E-01 -0.70515110255E-01  0.58699053240E-01  0.88654983735E+00  0.88000000000E+00 0. -1.
        -11    1    4    4    0    0  0.18166883275E-01  0.35929401231E-01 -0.31014959531E-01  0.50824662876E-01  0.51100000000E-03 0. -1.
         11    1    4    4    0    0  0.50602902191E-01  0.46685382257E-01 -0.44755851554E-01  0.82118974641E-01  0.51100000000E-03 0.  1.
</event>
<event>
 8    1  0.1097777E+005  0.1043930E+01  0.7957747E-01            NaN
         13   -1    0    0    0    0  0.00000000000E+00  0.00000000000E+00  0.74505805969E-08  0.10566000000E+00  0.10566000000E+00 0.  1.
     999900   -1    0    0    0    0 -0.00000000000E+00 -0.00000000000E+00 -0.74505805969E-08  0.93827000000E+00  0.93827000000E+00 0. -1.
     999902    2    1    2    0    0  0.10613132937E-01  0.37242507159E-02 -0.22136997067E-01  0.10190994689E+01  0.10187969240E+01 0.  0.
     999903    2    3    3    0    0  0.19622954314E-01  0.75408340306E-01 -0.10492536446E+00  0.13226594489E+00  0.20333960439E-01 0.  0.
         14    1    1    2    0    0 -0.10613132937E-01 -0.37242507159E-02  0.22136997067E-01  0.24830531071E-01  0.00000000000E+00 0.  1.
     999901    1    3    3    0    0 -0.90098213776E-02 -0.71684089590E-01  0.82788367393E-01  0.88683352404E+00  0.88000000000E+00 0.  1.
        -11    1    4    4    0    0  0.20150318334E-01  0.37827208594E-01 -0.52984732691E-01  0.68151126611E-01  0.51100000000E-03 0. -1.
         11    1    4    4    0    0 -0.52736401963E-03  0.37581131712E-01 -0.51940631769E-01  0.64114818280E-01  0.51100000000E-03 0.  1.
</event>
<event>
 8    1  0.1097777E+005  0.1043930E+01  0.7957747E-01            NaN
         13   -1    0    0    0    0  0.00000000000E+00  0.00000000000E+00  0.74505805969E-08  0.10566000000E+00  0.10566000000E+00 0. -1.
     999900   -1    0    0    0    0 -0.00000000000E+00 -0.00000000000E+00 -0.74505805969E-08  0.93827000000E+00  0.93827000000E+00 0.  1.
     999902    2    1    2    0    0 -0.87296254910E-02 -0.21566213686E-01  0.53403540339E-02  0.10200589440E+01  0.10197795948E+01 0.  0.
     999903    2    3    3    0    0  0.89953330185E-01 -0.81468638099E-01  0.46624746425E-01  0.13155963209E+00  0.20132789437E-01 0.  0.
         14    1    1    2    0    0  0.87296254910E-02  0.21566213686E-01 -0.53403540339E-02  0.23871056013E-01  0.00000000000E+00 0.  1.
     999901    1    3    3    0    0 -0.98682955676E-01  0.59902424413E-01 -0.41284392391E-01  0.88849931190E+00  0.88000000000E+00 0.  1.
        -11    1    4    4    0    0  0.64432599221E-01 -0.64523285765E-01  0.42637078906E-01  0.10066278293E+00  0.51100000000E-03 0.  1.
         11    1    4    4    0    0  0.25520730964E-01 -0.16945352334E-01  0.39876675192E-02  0.30896849158E-01  0.51100000000E-03 0. -1.
</event>
<event>
 8    1  0.1097777E+005  0.1043930E+01  0.7957747E-01            NaN
         13   -1    0    0    0    0  0.00000000000E+00  0.00000000000E+00  0.74505805969E-08  0.10566000000E+00  0.10566000000E+00 0. -1.
     999900   -1    0    0    0    0 -0.00000000000E+00 -0.00000000000E+00 -0.74505805969E-08  0.93827000000E+00  0.93827000000E+00 0. -1.
     999902    2    1    2    0    0 -0.15874821414E-01 -0.14478637874E-01  0.10652731564E-01  0.10199483070E+01  0.10196663314E+01 0.  0.
     999903    2    3    3    0    0 -0.10890221871E+00  0.30027841283E-01  0.65714296989E-01  0.13221709806E+00  0.20040651151E-01 0.  0.
         14    1    1    2    0    0  0.15874821414E-01  0.14478637874E-01 -0.10652731564E-01  0.23981693005E-01  0.00000000000E+00 0. -1.
     999901    1    3    3    0    0  0.93027397294E-01 -0.44506479157E-01 -0.55061565425E-01  0.88773120894E+00  0.88000000000E+00 0.  1.
        -11    1    4    4    0    0 -0.39502873234E-01  0.44905292003E-02  0.31544284275E-01  0.50753766733E-01  0.51100000000E-03 0.  1.
         11    1    4    4    0    0 -0.69399345474E-01  0.25537312082E-01  0.34170012714E-01  0.81463331324E-01  0.51100000000E-03 0. -1.
</event>
<event>
 8    1  0.1097777E+005  0.1043930E+01  0.7957747E-01            NaN
         13   -1    0    0    0    0  0.00000000000E+00  0.00000000000E+00  0.74505805969E-08  0.10566000000E+00  0.10566000000E+00 0.  1.
     999900   -1    0    0    0    0 -0.00000000000E+00 -0.00000000000E+00 -0.74505805969E-08  0.93827000000E+00  0.93827000000E+00 0. -1.
     999902    2    1    2    0    0 -0.27955378085E-02 -0.20858724668E-01 -0.11465389006E-01  0.10199642626E+01  0.10196826665E+01 0.  0.
     999903    2    3    3    0    0 -0.12234414390E+00  0.22967687269E-01  0.31193005093E-01  0.12977756180E+00  0.19328936233E-01 0.  0.
         14    1    1    2    0    0  0.27955378085E-02  0.20858724668E-01  0.11465389006E-01  0.23965737449E-01  0.00000000000E+00 0.  1.
     999901    1    3    3    0    0  0.11954860609E+00 -0.43826411937E-01 -0.42658394099E-01  0.89018670075E+00  0.88000000000E+00 0.  1.
        -11    1    4    4    0    0 -0.54575003603E-01  0.59580393867E-02  0.22626256033E-01  0.59381291959E-01  0.51100000000E-03 0. -1.
         11    1    4    4    0    0 -0.67769140296E-01  0.17009647882E-01  0.85667490599E-02  0.70396269844E-01  0.51100000000E-03 0.  1.
</event>
<event>
 8    1  0.1097777E+005  0.1043930E+01  0.7957747E-01            NaN
         13   -1    0    0    0    0  0.00000000000E+00  0.00000000000E+00  0.74505805969E-08  0.10566000000E+00  0.10566000000E+00 0.  1.
     999900   -1    0    0    0    0 -0.00000000000E+00 -0.00000000000E+00 -0.74505805969E-08  0.93827000000E+00  0.93827000000E+00 0. -1.
     999902    2    1    2    0    0 -0.22499269171E-01 -0.27060280415E-02 -0.77948989065E-02  0.10199654397E+01  0.10196838716E+01 0.  0.
     999903    2    3    3    0    0 -0.75916555554E-01  0.72929113447E-02  0.10478653073E+00  0.13113026738E+00  0.19960461834E-01 0.  0.
         14    1    1    2    0    0  0.22499269171E-01  0.27060280415E-02  0.77948989065E-02  0.23964560291E-01  0.00000000000E+00 0.  1.
     999901    1    3    3    0    0  0.53417286384E-01 -0.99989393862E-02 -0.11258142964E+00  0.88883517233E+00  0.88000000000E+00 0. -1.
        -11    1    4    4    0    0 -0.34176161452E-01 -0.53676708486E-02  0.38325761574E-01  0.51632809561E-01  0.51100000000E-03 0. -1.
         11    1    4    4    0    0 -0.41740394103E-01  0.12660582193E-01  0.66460769158E-01  0.79497457817E-01  0.51100000000E-03 0.  1.
</event>
<event>
 8    1  0.1097777E+005  0.1043930E+01  0.7957747E-01            NaN
         13   -1    0    0    0    0  0.00000000000E+00  0.00000000000E+00  0.74505805969E-08  0.10566000000E+00  0.10566000000E+00 0. -1.
     999900   -1    0    0    0    0 -0.00000000000E+00 -0.00000000000E+00 -0.74505805969E-08  0.93827000000E+00  0.93827000000E+00 0.  1.
     999902    2    1    2    0    0 -0.22641080719E-02 -0.84776003123E-02 -0.22087759765E-01  0.10201631108E+01  0.10198862228E+01 0.  0.
     999903    2    3    3    0    0  0.88882302898E-01 -0.38862317589E-02 -0.95969502372E-01  0.13236400016E+00  0.19872508340E-01 0.  0.
         14    1    1    2    0    0  0.22641080719E-02  0.84776003123E-02  0.22087759765E-01  0.23766889234E-01  0.00000000000E+00 0. -1.
     999901    1    3    3    0    0 -0.91146410970E-01 -0.45913685534E-02  0.73881742607E-01  0.88779911060E+00  0.88000000000E+00 0. -1.
        -11    1    4    4    0    0  0.73430971318E-01 -0.91400038631E-02 -0.71155028529E-01  0.10265937086E+00  0.51100000000E-03 0. -1.
         11    1    4    4    0    0  0.15451331580E-01  0.52537721042E-02 -0.24814473843E-01  0.29704629303E-01  0.51100000000E-03 0.  1.
</event>
<event>
 8    1  0.1097777E+005  0.1043930E+01  0.7957747E-01            NaN
         13   -1    0    0    0    0  0.00000000000E+00  0.00000000000E+00  0.74505805969E-08  0.10566000000E+00  0.10566000000E+00 0.  1.
     999900   -1    0    0    0    0 -0.00000000000E+00 -0.00000000000E+00 -0.74505805969E-08  0.93827000000E+00  0.93827000000E+00 0.  1.
     999902    2    1    2    0    0  0.17680835144E-01 -0.93781871330E-02  0.11373383477E-01  0.10209100917E+01  0.10206505275E+01 0.  0.
     999903    2    3    3    0    0 -0.71914509273E-01 -0.82092184375E-01  0.70471822812E-01  0.13141176308E+00  0.19797734336E-01 0.  0.
         14    1    1    2    0    0 -0.17680835144E-01  0.93781871330E-02 -0.11373383477E-01  0.23019908276E-01  0.00000000000E+00 0. -1.
     999901    1    3    3    0    0  0.89595344417E-01  0.72713997242E-01 -0.59098439336E-01  0.88949832865E+00  0.88000000000E+00 0.  1.
        -11    1    4    4    0    0 -0.37497386642E-01 -0.49006772936E-01  0.29052716799E-01  0.68205859521E-01  0.51100000000E-03 0. -1.
         11    1    4    4    0    0 -0.34417122631E-01 -0.33085411439E-01  0.41419106014E-01  0.63205903555E-01  0.51100000000E-03 0.  1.
</event>
<event>
 8    1  0.1097777E+005  0.1043930E+01  0.7957747E-01            NaN
         13   -1    0    0    0    0  0.00000000000E+00  0.00000000000E+00  0.74505805969E-08  0.10566000000E+00  0.10566000000E+00 0.  1.
     999900   -1    0    0    0    0 -0.00000000000E+00 -0.00000000000E+00 -0.74505805969E-08  0.93827000000E+00  0.93827000000E+00 0.  1.
     999902    2    1    2    0    0 -0.16408101955E-01 -0.10346019196E-01  0.12853856045E-01  0.10206601152E+01  0.10203948173E+01 0.  0.
     999903    2    3    3    0    0 -0.11314921689E+00  0.52542490954E-01  0.40582213591E-01  0.13269464863E+00  0.19937278532E-01 0.  0.
         14    1    1    2    0    0  0.16408101955E-01  0.10346019196E-01 -0.12853856045E-01  0.23269884791E-01  0.00000000000E+00 0. -1.
     999901    1    3    3    0    0  0.96741114939E-01 -0.62888510149E-01 -0.27728357546E-01  0.88796546658E+00  0.88000000000E+00 0.  1.
        -11    1    4    4    0    0 -0.82258869961E-01  0.32118875636E-01  0.36049160350E-01  0.95383158589E-01  0.51100000000E-03 0.  1.
         11    1    4    4    0    0 -0.30890346933E-01  0.20423615318E-01  0.45330532408E-02  0.37311490040E-01  0.51100000000E-03 0. -1.
</event>
<event>
 8    1  0.1097777E+005  0.1043930E+01  0.7957747E-01            NaN
         13   -1    0    0    0    0  0.00000000000E+00  0.00000000000E+00  0.74505805969E-08  0.10566000000E+00  0.10566000000E+00 0. -1.
     999900   -1    0    0    0    0 -0.00000000000E+00 -0.00000000000E+00 -0.74505805969E-08  0.93827000000E+00  0.93827000000E+00 0.  1.
     999902    2    1    2    0    0  0.13891654764E-01 -0.96439704980E-02  0.13303699408E-01  0.10224132006E+01  0.10221867638E+01 0.  0.
     999903    2    3    3    0    0  0.17122642881E-01  0.27288810797E-01  0.12793512649E+00  0.13420442237E+00  0.24608256783E-01 0.  0.
         14    1    1    2    0    0 -0.13891654764E-01  0.96439704980E-02 -0.13303699408E-01  0.21516799414E-01  0.00000000000E+00 0.  1.
     999901    1    3    3    0    0 -0.32309881165E-02 -0.36932781295E-01 -0.11463142708E+00  0.88820877821E+00  0.88000000000E+00 0.  1.
        -11    1    4    4    0    0  0.76536425334E-02 -0.33088321761E-02  0.31454399660E-01  0.32544845880E-01  0.51100000000E-03 0.  1.
         11    1    4    4    0    0  0.94690003476E-02  0.30597642973E-01  0.96480726826E-01  0.10165957649E+00  0.51100000000E-03 0. -1.
</event>
<event>
 8    1  0.1097777E+005  0.1043930E+01  0.7957747E-01            NaN
         13   -1    0    0    0    0  0.00000000000E+00  0.00000000000E+00  0.74505805969E-08  0.10566000000E+00  0.10566000000E+00 0. -1.
     999900   -1    0    0    0    0 -0.00000000000E+00 -0.00000000000E+00 -0.74505805969E-08  0.93827000000E+00  0.93827000000E+00 0.  1.
     999902    2    1    2    0    0 -0.20389991833E-01 -0.83747005091E-02 -0.78050053046E-02  0.10205461277E+01  0.10202781941E+01 0.  0.
     999903    2    3    3    0    0  0.54958513765E-01  0.70184098717E-01 -0.91980870958E-01  0.12985288164E+00  0.21331767394E-01 0.  0.
         14    1    1    2    0    0  0.20389991833E-01  0.83747005091E-02  0.78050053046E-02  0.23383872292E-01  0.00000000000E+00 0.  1.
     999901    1    3    3    0    0 -0.75348505598E-01 -0.78558799226E-01  0.84175865653E-01  0.89069324607E+00  0.88000000000E+00 0. -1.
        -11    1    4    4    0    0  0.47331542380E-01  0.55663465726E-01 -0.62676727066E-01  0.96266970231E-01  0.51100000000E-03 0.  1.
         11    1    4    4    0    0  0.76269713845E-02  0.14520632992E-01 -0.29304143892E-01  0.33585911410E-01  0.51100000000E-03 0. -1.
</event>
<event>
 7    1  0.1097777E+005  0.1043930E+01  0.7957747E-01            NaN
         13   -1    0    0    0    0  0.00000000000E+00  0.00000000000E+00  0.74505805969E-08  0.10566000000E+00  0.10566000000E+00 0. -1.
     999900   -1    0    0    0    0 -0.00000000000E+00 -0.00000000000E+00 -0.74505805969E-08  0.93827000000E+00  0.93827000000E+00 0. -1.
     999903    2    1    2    0    0  0.88050758594E-01 -0.64407608146E-01  0.16351174635E-01  0.11199081397E+00  0.19321113487E-01 0.  0.
         14    1    1    2    0    0 -0.35104601504E-02 -0.39932262641E-01 -0.11629482172E-01  0.41739115775E-01  0.00000000000E+00 0. -1.
     999901    1    1    2    0    0 -0.84540298444E-01  0.10433987079E+00 -0.47216924629E-02  0.89020007025E+00  0.88000000000E+00 0. -1.
        -11    1    3    3    0    0  0.56041518000E-01 -0.43721062046E-01  0.15353785584E-02  0.71097127329E-01  0.51100000000E-03 0. -1.
         11    1    3    3    0    0  0.32009240594E-01 -0.20686546101E-01  0.14815796076E-01  0.40893686644E-01  0.51100000000E-03 0.  1.
</event>
<event>
 8    1  0.1097777E+005  0.1043930E+01  0.7957747E-01            NaN
         13   -1    0    0    0    0  0.00000000000E+00  0.00000000000E+00  0.74505805969E-08  0.10566000000E+00  0.10566000000E+00 0. -1.
     999900   -1    0    0    0    0 -0.00000000000E+00 -0.00000000000E+00 -0.74505805969E-08  0.93827000000E+00  0.93827000000E+00 0.  1.
     999902    2    1    2    0    0  0.27253695033E-02 -0.20072556761E-02  0.23412981283E-01  0.10202736181E+01  0.10199993291E+01 0.  0.
     999903    2    3    3    0    0 -0.82235103551E-01 -0.88898073767E-01 -0.41512887306E-01  0.12955275007E+00  0.19877511471E-01 0.  0.
         14    1    1    2    0    0 -0.27253695033E-02  0.20072556761E-02 -0.23412981283E-01  0.23656381948E-01  0.00000000000E+00 0.  1.
     999901    1    3    3    0    0  0.84960473054E-01  0.86890818091E-01  0.64925868589E-01  0.89072086798E+00  0.88000000000E+00 0. -1.
        -11    1    4    4    0    0 -0.21280744140E-01 -0.31523279190E-01 -0.55368366280E-02  0.38438325703E-01  0.51100000000E-03 0. -1.
         11    1    4    4    0    0 -0.60954359411E-01 -0.57374794577E-01 -0.35976050678E-01  0.91114424365E-01  0.51100000000E-03 0.  1.
</event>
<event>
 8    1  0.1097777E+005  0.1043930E+01  0.7957747E-01            NaN
         13   -1    0    0    0    0  0.00000000000E+00  0.00000000000E+00  0.74505805969E-08  0.10566000000E+00  0.10566000000E+00 0.  1.
     999900   -1    0    0    0    0 -0.00000000000E+00 -0.00000000000E+00 -0.74505805969E-08  0.93827000000E+00  0.93827000000E+00 0. -1.
     999902    2    1    2    0    0  0.91029513895E-02  0.26413985949E-02  0.17301163251E-01  0.10242025835E+01  0.10240125786E+01 0.  0.
     999903    2    3    3    0    0 -0.11747579238E+00  0.49196226607E-01 -0.31352549255E-01  0.13259913237E+00  0.19460653974E-01 0.  0.
         14    1    1    2    0    0 -0.91029513895E-02 -0.26413985949E-02 -0.17301163251E-01  0.19727416465E-01  0.00000000000E+00 0. -1.
     999901    1    3    3    0    0  0.12657874377E+00 -0.46554828012E-01  0.48653712506E-01  0.89160345116E+00  0.88000000000E+00 0. -1.
        -11    1    4    4    0    0 -0.28179396984E-01  0.21098249869E-01 -0.75578609852E-02  0.36008289956E-01  0.51100000000E-03 0. -1.
         11    1    4    4    0    0 -0.89296395397E-01  0.28097976738E-01 -0.23794688270E-01  0.96590842416E-01  0.51100000000E-03 0.  1.
</event>
<event>
 8    1  0.1097777E+005  0.1043930E+01  0.7957747E-01            NaN
         13   -1    0    0    0    0  0.00000000000E+00  0.00000000000E+00  0.74505805969E-08  0.10566000000E+00  0.10566000000E+00 0. -1.
     999900   -1    0    0    0    0 -0.00000000000E+00 -0.00000000000E+00 -0.74505805969E-08  0.93827000000E+00  0.93827000000E+00 0. -1.
     999902    2    1    2    0    0 -0.13687287891E-01 -0.15524725243E-01  0.12381216241E-01  0.10198125072E+01  0.10195272906E+01 0.  0.
     999903    2    3    3    0    0 -0.27910040590E-01 -0.71307356471E-02  0.12710063686E+00  0.13221277126E+00  0.22267178481E-01 0.  0.
         14    1    1    2    0    0  0.13687287891E-01  0.15524725243E-01 -0.12381216241E-01  0.24117492807E-01  0.00000000000E+00 0.  1.
     999901    1    3    3    0    0  0.14222752699E-01 -0.83939895958E-02 -0.11471942062E+00  0.88759973593E+00  0.88000000000E+00 0. -1.
        -11    1    4    4    0    0 -0.10502947533E-01 -0.30221178928E-02  0.14318579627E-01  0.18020209404E-01  0.51100000000E-03 0. -1.
         11    1    4    4    0    0 -0.17407093058E-01 -0.41086177543E-02  0.11278205724E+00  0.11419256186E+00  0.51100000000E-03 0.  1.
</event>
<event>
 8    1  0.1097777E+005  0.1043930E+01  0.7957747E-01            NaN
         13   -1    0    0    0    0  0.00000000000E+00  0.00000000000E+00  0.74505805969E-08  0.10566000000E+00  0.10566000000E+00 0. -1.
     999900   -1    0    0    0    0 -0.00000000000E+00 -0.00000000000E+00 -0.74505805969E-08  0.93827000000E+00  0.93827000000E+00 0. -1.
     999902    2    1    2    0    0 -0.15024679096E-01 -0.11857225249E-01 -0.13987593026E-01  0.10202237238E+01  0.10199482629E+01 0.  0.
     999903    2    3    3    0    0 -0.72568791095E-01  0.10021842826E+00 -0.37948041516E-01  0.13092828356E+00  0.19804009163E-01 0.  0.
         14    1    1    2    0    0  0.15024679096E-01  0.11857225249E-01  0.13987593026E-01  0.23706276199E-01  0.00000000000E+00 0. -1.
     999901    1    3    3    0    0  0.57544111999E-01 -0.11207565351E+00  0.23960448490E-01  0.88929544024E+00  0.88000000000E+00 0.  1.
        -11    1    4    4    0    0 -0.47364195203E-01  0.50860936582E-01 -0.26187001459E-01  0.74271273206E-01  0.51100000000E-03 0.  1.
         11    1    4    4    0    0 -0.25204595892E-01  0.49357491675E-01 -0.11761040057E-01  0.56657010358E-01  0.51100000000E-03 0. -1.
</event>
<event>
 8    1  0.1097777E+005  0.1043930E+01  0.7957747E-01            NaN
         13   -1    0    0    0    0  0.00000000000E+00  0.00000000000E+00  0.74505805969E-08  0.10566000000E+00  0.10566000000E+00 0.  1.
     999900   -1    0    0    0    0 -0.00000000000E+00 -0.00000000000E+00 -0.74505805969E-08  0.93827000000E+00  0.93827000000E+00 0. -1.
     999902    2    1    2    0    0  0.15791373840E-01 -0.10095452421E-01 -0.14018754457E-01  0.10205246347E+01  0.10202562026E+01 0.  0.
     999903    2    3    3    0    0 -0.43366027698E-01  0.95913877294E-01 -0.73840569990E-01  0.13017850778E+00  0.20345267153E-01 0.  0.
         14    1    1    2    0    0 -0.15791373840E-01  0.10095452421E-01  0.14018754457E-01  0.23405365280E-01  0.00000000000E+00 0.  1.
     999901    1    3    3    0    0  0.59157401538E-01 -0.10600932972E+00  0.59821815534E-01  0.89034612694E+00  0.88000000000E+00 0. -1.
        -11    1    4    4    0    0 -0.20437975566E-01  0.23770810779E-01 -0.18471278650E-01  0.36389717590E-01  0.51100000000E-03 0. -1.
         11    1    4    4    0    0 -0.22928052132E-01  0.72143066515E-01 -0.55369291341E-01  0.93788790190E-01  0.51100000000E-03 0.  1.
</event>
<event>
 8    1  0.1097777E+005  0.1043930E+01  0.7957747E-01            NaN
         13   -1    0    0    0    0  0.00000000000E+00  0.00000000000E+00  0.74505805969E-08  0.10566000000E+00  0.10566000000E+00 0.  1.
     999900   -1    0    0    0    0 -0.00000000000E+00 -0.00000000000E+00 -0.74505805969E-08  0.93827000000E+00  0.93827000000E+00 0.  1.
     999902    2    1    2    0    0  0.15860689876E-01  0.18114037382E-01  0.48842869628E-02  0.10193630284E+01  0.10190669495E+01 0.  0.
     999903    2    3    3    0    0  0.10541053180E+00 -0.60206575699E-01 -0.42377470542E-01  0.13010099373E+00  0.19854636433E-01 0.  0.
         14    1    1    2    0    0 -0.15860689876E-01 -0.18114037382E-01 -0.48842869628E-02  0.24566971583E-01  0.00000000000E+00 0.  1.
     999901    1    3    3    0    0 -0.89549841919E-01  0.78320613081E-01  0.47261757505E-01  0.88926203469E+00  0.88000000000E+00 0. -1.
        -11    1    4    4    0    0  0.75816416961E-01 -0.32868871325E-01 -0.30649846121E-01  0.88137199702E-01  0.51100000000E-03 0. -1.
         11    1    4    4    0    0  0.29594114834E-01 -0.27337704374E-01 -0.11727624422E-01  0.41963794024E-01  0.51100000000E-03 0.  1.
</event>
<event>
 8    1  0.1097777E+005  0.1043930E+01  0.7957747E-01            NaN
         13   -1    0    0    0    0  0.00000000000E+00  0.00000000000E+00  0.74505805969E-08  0.10566000000E+00  0.10566000000E+00 0.  1.
     999900   -1    0    0    0    0 -0.00000000000E+00 -0.00000000000E+00 -0.74505805969E-08  0.93827000000E+00  0.93827000000E+00 0. -1.
     999902    2    1    2    0    0  0.69536949270E-03  0.22087963517E-01 -0.83987301487E-02  0.10202889269E+01  0.10200149969E+01 0.  0.
     999903    2    3    3    0    0  0.87000382477E-01  0.27751338575E-01 -0.93691613236E-01  0.13194467772E+00  0.17090238240E-01 0.  0.
         14    1    1    2    0    0 -0.69536949270E-03 -0.22087963517E-01  0.83987301487E-02  0.23641073139E-01  0.00000000000E+00 0.  1.
     999901    1    3    3    0    0 -0.86305012984E-01 -0.56633750576E-02  0.85292883087E-01  0.88834424914E+00  0.88000000000E+00 0.  1.
        -11    1    4    4    0    0  0.36637223988E-01  0.13893394337E-01 -0.28754203840E-01  0.48604299678E-01  0.51100000000E-03 0.  1.
         11    1    4    4    0    0  0.50363158489E-01  0.13857944238E-01 -0.64937409395E-01  0.83340378038E-01  0.51100000000E-03 0. -1.
</event>
<event>
 8    1  0.1097777E+005  0.1043930E+01  0.7957747E-01            NaN
         13   -1    0    0    0    0  0.00000000000E+00  0.00000000000E+00  0.74505805969E-08  0.10566000000E+00  0.10566000000E+00 0.  1.
     999900   -1    0    0    0    0 -0.00000000000E+00 -0.00000000000E+00 -0.74505805969E-08  0.93827000000E+00  0.93827000000E+00 0. -1.
     999902    2    1    2    0    0  0.10559214897E-01  0.18342958526E-01  0.12549266036E-01  0.10193242034E+01  0.10190271765E+01 0.  0.
     999903    2    3    3    0    0  0.15006606122E-01 -0.10166089218E+00  0.75147448582E-01  0.12896515455E+00  0.20609144371E-01 0.  0.
         14    1    1    2    0    0 -0.10559214897E-01 -0.18342958526E-01 -0.12549266036E-01  0.24605796569E-01  0.00000000000E+00 0.  1.
     999901    1    3    3    0    0 -0.44473912244E-02  0.12000385071E+00 -0.62598182547E-01  0.89035904889E+00  0.88000000000E+00 0. -1.
        -11    1    4    4    0    0  0.13831926089E-01 -0.82905726688E-01  0.70235314907E-01  0.10953511893E+00  0.51100000000E-03 0. -1.
         11    1    4    4    0    0  0.11746800328E-02 -0.18755165496E-01  0.49121336757E-02  0.19430035621E-01  0.51100000000E-03 0.  1.
</event>
<event>
 8    1  0.1097777E+005  0.1043930E+01  0.7957747E-01            NaN
         13   -1    0    0    0    0  0.00000000000E+00  0.00000000000E+00  0.74505805969E-08  0.10566000000E+00  0.10566000000E+00 0. -1.
     999900   -1    0    0    0    0 -0.00000000000E+00 -0.00000000000E+00 -0.74505805969E-08  0.93827000000E+00  0.93827000000E+00 0. -1.
     999902    2    1    2    0    0  0.13630634829E-02  0.21408142987E-01 -0.88124958367E-02  0.10207389110E+01  0.10204754273E+01 0.  0.
     999903    2    3    3    0    0  0.70130164881E-01  0.11152116058E+00 -0.11701892236E-01  0.13346352034E+00  0.17898818330E-01 0.  0.
         14    1    1    2    0    0 -0.13630634829E-02 -0.21408142987E-01  0.88124958367E-02  0.23191089045E-01  0.00000000000E+00 0. -1.
     999901    1    3    3    0    0 -0.68767101398E-01 -0.90113017591E-01  0.28893963990E-02  0.88727539061E+00  0.88000000000E+00 0.  1.
        -11    1    4    4    0    0  0.80413015669E-02  0.26134402433E-01 -0.34699320003E-02  0.27567572807E-01  0.51100000000E-03 0.  1.
         11    1    4    4    0    0  0.62088863314E-01  0.85386758146E-01 -0.82319602354E-02  0.10589594754E+00  0.51100000000E-03 0. -1.
</event>
<event>
 8    1  0.1097777E+005  0.1043930E+01  0.7957747E-01            NaN
         13   -1    0    0    0    0  0.00000000000E+00  0.00000000000E+00  0.74505805969E-08  0.10566000000E+00  0.10566000000E+00 0. -1.
     999900   -1    0    0    0    0 -0.00000000000E+00 -0.00000000000E+00 -0.74505805969E-08  0.93827000000E+00  0.93827000000E+00 0.  1.
     999902    2    1    2    0    0  0.28626070945E-02 -0.92621926761E-02 -0.22289256496E-01  0.10196237521E+01  0.10193339993E+01 0.  0.
     999903    2    3    3    0    0 -0.12219270816E-01 -0.76087027606E-01 -0.10647857029E+00  0.13295534611E+00  0.20022282034E-01 0.  0.
         14    1    1    2    0    0 -0.28626070945E-02  0.92621926761E-02  0.22289256496E-01  0.24306247915E-01  0.00000000000E+00 0. -1.
     999901    1    3    3    0    0  0.15081877910E-01  0.66824834930E-01  0.84189313795E-01  0.88666840598E+00  0.88000000000E+00 0. -1.
        -11    1    4    4    0    0  0.34570013099E-02 -0.27126136453E-01 -0.46604160933E-01  0.54036904743E-01  0.51100000000E-03 0.  1.
         11    1    4    4    0    0 -0.15676272126E-01 -0.48960891153E-01 -0.59874409357E-01  0.78918441363E-01  0.51100000000E-03 0. -1.
</event>
<event>
 8    1  0.1097777E+005  0.1043930E+01  0.7957747E-01            NaN
         13   -1    0    0    0    0  0.00000000000E+00  0.00000000000E+00  0.74505805969E-08  0.10566000000E+00  0.10566000000E+00 0.  1.
     999900   -1    0    0    0    0 -0.00000000000E+00 -0.00000000000E+00 -0.74505805969E-08  0.93827000000E+00  0.93827000000E+00 0.  1.
     999902    2    1    2    0    0 -0.19356162567E-01  0.25365074115E-02 -0.14453067006E-01  0.10196403717E+01  0.10193510198E+01 0.  0.
     999903    2    3    3    0    0 -0.34957057697E-01  0.11911943420E+00  0.34316095478E-01  0.13047593357E+00  0.20855199482E-01 0.  0.
         14    1    1    2    0    0  0.19356162567E-01 -0.25365074115E-02  0.14453067006E-01  0.24289628343E-01  0.00000000000E+00 0. -1.
     999901    1    3    3    0    0  0.15600895129E-01 -0.11658292679E+00 -0.48769162483E-01  0.88916443809E+00  0.88000000000E+00 0.  1.
        -11    1    4    4    0    0 -0.14029616258E-01  0.19652485175E-01  0.84873292909E-02  0.25599730182E-01  0.51100000000E-03 0. -1.
         11    1    4    4    0    0 -0.20927441438E-01  0.99466949025E-01  0.25828766187E-01  0.10487620339E+00  0.51100000000E-03 0.  1.
</event>
<event>
 8    1  0.1097777E+005  0.1043930E+01  0.7957747E-01            NaN
         13   -1    0    0    0    0  0.00000000000E+00  0.00000000000E+00  0.74505805969E-08  0.10566000000E+00  0.10566000000E+00 0.  1.
     999900   -1    0    0    0    0 -0.00000000000E+00 -0.00000000000E+00 -0.74505805969E-08  0.93827000000E+00  0.93827000000E+00 0.  1.
     999902    2    1    2    0    0  0.20794223758E-01 -0.67258345333E-02 -0.68708989681E-02  0.10210204857E+01  0.10207634331E+01 0.  0.
     999903    2    3    3    0    0  0.11710073386E+00 -0.52132619925E-01  0.32556515870E-01  0.13372614837E+00  0.19808182721E-01 0.  0.
         14    1    1    2    0    0 -0.20794223758E-01  0.67258345333E-02  0.68708989681E-02  0.22909514279E-01  0.00000000000E+00 0. -1.
     999901    1    3    3    0    0 -0.96306510100E-01  0.45406785392E-01 -0.39427414838E-01  0.88729433735E+00  0.88000000000E+00 0. -1.
        -11    1    4    4    0    0  0.31462199546E-01 -0.48214282923E-02  0.67690785327E-02  0.32545317885E-01  0.51100000000E-03 0.  1.
         11    1    4    4    0    0  0.85638534313E-01 -0.47311191632E-01  0.25787437337E-01  0.10118083049E+00  0.51100000000E-03 0. -1.
</event>
<event>
 8    1  0.1097777E+005  0.1043930E+01  0.7957747E-01            NaN
         13   -1    0    0    0    0  0.00000000000E+00  0.00000000000E+00  0.74505805969E-08  0.10566000000E+00  0.10566000000E+00 0. -1.
     999900   -1    0    0    0    0 -0.00000000000E+00 -0.00000000000E+00 -0.74505805969E-08  0.93827000000E+00  0.93827000000E+00 0.  1.
     999902    2    1    2    0    0  0.14506097243E-01 -0.82738631662E-02  0.22536620913E-01  0.10158803485E+01  0.10154930327E+01 0.  0.
     999903    2    3    3    0    0 -0.56983691416E-01 -0.42426001211E-01  0.10508603444E+00  0.12847313411E+00  0.20375595417E-01 0.  0.
         14    1    1    2    0    0 -0.14506097243E-01  0.82738631662E-02 -0.22536620913E-01  0.28049651532E-01  0.00000000000E+00 0.  1.
     999901    1    3    3    0    0  0.71489788659E-01  0.34152138045E-01 -0.82549413526E-01  0.88740721435E+00  0.88000000000E+00 0. -1.
        -11    1    4    4    0    0 -0.27558682474E-01 -0.11596529630E-01  0.31488209716E-01  0.43424980729E-01  0.51100000000E-03 0. -1.
         11    1    4    4    0    0 -0.29425008943E-01 -0.30829471581E-01  0.73597824722E-01  0.85048153384E-01  0.51100000000E-03 0.  1.
</event>
<event>
 8    1  0.1097777E+005  0.1043930E+01  0.7957747E-01            NaN
         13   -1    0    0    0    0  0.00000000000E+00  0.00000000000E+00  0.74505805969E-08  0.10566000000E+00  0.10566000000E+00 0. -1.
     999900   -1    0    0    0    0 -0.00000000000E+00 -0.00000000000E+00 -0.74505805969E-08  0.93827000000E+00  0.93827000000E+00 0.  1.
     999902    2    1    2    0    0  0.16701368631E-01  0.17178686340E-01  0.88083964446E-03  0.10199546198E+01  0.10196727944E+01 0.  0.
     999903    2    3    3    0    0 -0.19009998804E-02 -0.63528630208E-01 -0.11049363726E+00  0.12907640522E+00  0.20306990256E-01 0.  0.
         14    1    1    2    0    0 -0.16701368631E-01 -0.17178686340E-01 -0.88083964446E-03  0.23975380226E-01  0.00000000000E+00 0.  1.
     999901    1    3    3    0    0  0.18602368511E-01  0.80707316547E-01  0.11137447690E+00  0.89087821455E+00  0.88000000000E+00 0.  1.
        -11    1    4    4    0    0  0.91933741970E-02 -0.28630973153E-01 -0.48070846485E-01  0.56703775497E-01  0.51100000000E-03 0. -1.
         11    1    4    4    0    0 -0.11094374077E-01 -0.34897657054E-01 -0.62422790776E-01  0.72372629725E-01  0.51100000000E-03 0.  1.
</event>
<event>
 8    1  0.1097777E+005  0.1043930E+01  0.7957747E-01            NaN
         13   -1    0    0    0    0  0.00000000000E+00  0.00000000000E+00  0.74505805969E-08  0.10566000000E+00  0.10566000000E+00 0. -1.
     999900   -1    0    0    0    0 -0.00000000000E+00 -0.00000000000E+00 -0.74505805969E-08  0.93827000000E+00  0.93827000000E+00 0.  1.
     999902    2    1    2    0    0  0.24663088163E-02 -0.21770777963E-01 -0.80513434304E-02  0.10205874726E+01  0.10203204966E+01 0.  0.
     999903    2    3    3    0    0  0.48670533550E-01 -0.17392010730E-01 -0.11979984363E+00  0.13230726275E+00  0.21952365959E-01 0.  0.
         14    1    1    2    0    0 -0.24663088163E-02  0.21770777963E-01  0.80513434304E-02  0.23342527355E-01  0.00000000000E+00 0.  1.
     999901    1    3    3    0    0 -0.46204224734E-01 -0.43787672332E-02  0.11174850020E+00  0.88828020989E+00  0.88000000000E+00 0. -1.
        -11    1    4    4    0    0  0.10287151497E-01 -0.14246072241E-01 -0.40391841679E-01  0.44051538628E-01  0.51100000000E-03 0.  1.
         11    1    4    4    0    0  0.38383382053E-01 -0.31459384890E-02 -0.79408001948E-01  0.88255724127E-01  0.51100000000E-03 0. -1.
</event>
<event>
 8    1  0.1097777E+005  0.1043930E+01  0.7957747E-01            NaN
         13   -1    0    0    0    0  0.00000000000E+00  0.00000000000E+00  0.74505805969E-08  0.10566000000E+00  0.10566000000E+00 0. -1.
     999900   -1    0    0    0    0 -0.00000000000E+00 -0.00000000000E+00 -0.74505805969E-08  0.93827000000E+00  0.93827000000E+00 0. -1.
     999902    2    1    2    0    0 -0.21819523943E-01 -0.61972540958E-02  0.82065453610E-02  0.10198085371E+01  0.10195232256E+01 0.  0.
     999903    2    3    3    0    0 -0.11195416001E+00  0.95497671503E-02 -0.66314100087E-01  0.13193154798E+00  0.19581661942E-01 0.  0.
         14    1    1    2    0    0  0.21819523943E-01  0.61972540958E-02 -0.82065453610E-02  0.24121462853E-01  0.00000000000E+00 0. -1.
     999901    1    3    3    0    0  0.90134636072E-01 -0.15747021246E-01  0.74520645448E-01  0.88787698917E+00  0.88000000000E+00 0.  1.
        -11    1    4    4    0    0 -0.70215576897E-01  0.42825166703E-02 -0.30481743296E-01  0.76667887563E-01  0.51100000000E-03 0.  1.
         11    1    4    4    0    0 -0.41738583117E-01  0.52672504800E-02 -0.35832356791E-01  0.55263660415E-01  0.51100000000E-03 0. -1.
</event>
<event>
 8    1  0.1097777E+005  0.1043930E+01  0.7957747E-01            NaN
         13   -1    0    0    0    0  0.00000000000E+00  0.00000000000E+00  0.74505805969E-08  0.10566000000E+00  0.10566000000E+00 0.  1.
     999900   -1    0    0    0    0 -0.00000000000E+00 -0.00000000000E+00 -0.74505805969E-08  0.93827000000E+00  0.93827000000E+00 0.  1.
     999902    2    1    2    0    0 -0.31451005420E-02  0.23202097620E-01 -0.39303539845E-02  0.10201881240E+01  0.10199118255E+01 0.  0.
     999903    2    3    3    0    0 -0.12185233448E+00 -0.23231839985E-01 -0.35274655290E-01  0.13045221762E+00  0.19641027704E-01 0.  0.
         14    1    1    2    0    0  0.31451005420E-02 -0.23202097620E-01  0.39303539845E-02  0.23741875954E-01  0.00000000000E+00 0.  1.
     999901    1    3    3    0    0  0.11870723394E+00  0.46433937605E-01  0.31344301305E-01  0.88973590642E+00  0.88000000000E+00 0.  1.
        -11    1    4    4    0    0 -0.82553614986E-01 -0.86435102726E-02 -0.17047239802E-01  0.84738887902E-01  0.51100000000E-03 0. -1.
         11    1    4    4    0    0 -0.39298719498E-01 -0.14588329712E-01 -0.18227415488E-01  0.45713329722E-01  0.51100000000E-03 0.  1.
</event>
<event>
 8    1  0.1097777E+005  0.1043930E+01  0.7957747E-01            NaN
         13   -1    0    0    0    0  0.00000000000E+00  0.00000000000E+00  0.74505805969E-08  0.10566000000E+00  0.10566000000E+00 0. -1.
     999900   -1    0    0    0    0 -0.00000000000E+00 -0.00000000000E+00 -0.74505805969E-08  0.93827000000E+00  0.93827000000E+00 0. -1.
     999902    2    1    2    0    0  0.35763383509E-02  0.35908866313E-02  0.21923436743E-01  0.10214284058E+01  0.10211805259E+01 0.  0.
     999903    2    3    3    0    0  0.97482140412E-01 -0.11554727735E-01  0.88714250518E-01  0.13378619066E+00  0.19805229980E-01 0.  0.
         14    1    1    2    0    0 -0.35763383509E-02 -0.35908866313E-02 -0.21923436743E-01  0.22501594198E-01  0.00000000000E+00 0.  1.
     999901    1    3    3    0    0 -0.93905802061E-01  0.15145614366E-01 -0.66790813775E-01  0.88764221514E+00  0.88000000000E+00 0. -1.
        -11    1    4    4    0    0  0.18584237797E-01 -0.53536703133E-02  0.28017178008E-01  0.34047893692E-01  0.51100000000E-03 0.  1.
         11    1    4    4    0    0  0.78897902615E-01 -0.62010574218E-02  0.60697072510E-01  0.99738296970E-01  0.51100000000E-03 0. -1.
</event>
<event>
 8    1  0.1097777E+005  0.1043930E+01  0.7957747E-01            NaN
         13   -1    0    0    0    0  0.00000000000E+00  0.00000000000E+00  0.74505805969E-08  0.10566000000E+00  0.10566000000E+00 0.  1.
     999900   -1    0    0    0    0 -0.00000000000E+00 -0.00000000000E+00 -0.74505805969E-08  0.93827000000E+00  0.93827000000E+00 0.  1.
     999902    2    1    2    0    0  0.99133809679E-02 -0.60981489698E-02 -0.20617471636E-01  0.10202542174E+01  0.10199794731E+01 0.  0.
     999903    2    3    3    0    0  0.50475304055E-01 -0.88622883523E-01 -0.83283718632E-01  0.13324651740E+00  0.20412858868E-01 0.  0.
         14    1    1    2    0    0 -0.99133809679E-02  0.60981489698E-02  0.20617471636E-01  0.23675782558E-01  0.00000000000E+00 0.  1.
     999901    1    3    3    0    0 -0.40561923087E-01  0.82524734553E-01  0.62666246996E-01  0.88700770004E+00  0.88000000000E+00 0. -1.
        -11    1    4    4    0    0  0.48443417018E-01 -0.72008979314E-01 -0.64842146826E-01  0.10833661837E+00  0.51100000000E-03 0.  1.
         11    1    4    4    0    0  0.20318870364E-02 -0.16613904209E-01 -0.18441571806E-01  0.24909899030E-01  0.51100000000E-03 0. -1.
</event>
<event>
 8    1  0.1097777E+005  0.1043930E+01  0.7957747E-01            NaN
         13   -1    0    0    0    0  0.00000000000E+00  0.00000000000E+00  0.74505805969E-08  0.10566000000E+00  0.10566000000E+00 0. -1.
     999900   -1    0    0    0    0 -0.00000000000E+00 -0.00000000000E+00 -0.74505805969E-08  0.93827000000E+00  0.93827000000E+00 0.  1.
     999902    2    1    2    0    0  0.14422788245E-01  0.18296778329E-02  0.16018753316E-01  0.10222975013E+01  0.10220685966E+01 0.  0.
     999903    2    3    3    0    0  0.30635028425E-01  0.12729910723E+00 -0.97578053534E-02  0.13287642813E+00  0.20429457153E-01 0.  0.
         14    1    1    2    0    0 -0.14422788245E-01 -0.18296778329E-02 -0.16018753316E-01  0.21632498690E-01  0.00000000000E+00 0.  1.
     999901    1    3    3    0    0 -0.16212240180E-01 -0.12546942939E+00  0.25776558670E-01  0.88942107318E+00  0.88000000000E+00 0.  1.
        -11    1    4    4    0    0  0.41872416473E-02  0.21815531875E-01  0.59388694037E-02  0.22999602483E-01  0.51100000000E-03 0.  1.
         11    1    4    4    0    0  0.26447786778E-01  0.10548357535E+00 -0.15696674757E-01  0.10987682564E+00  0.51100000000E-03 0. -1.
</event>
<event>
 8    1  0.1097777E+005  0.1043930E+01  0.7957747E-01            NaN
         13   -1    0    0    0    0  0.00000000000E+00  0.00000000000E+00  0.74505805969E-08  0.10566000000E+00  0.10566000000E+00 0.  1.
     999900   -1    0    0    0    0 -0.00000000000E+00 -0.00000000000E+00 -0.74505805969E-08  0.93827000000E+00  0.93827000000E+00 0.  1.
     999902    2    1    2    0    0 -0.15173372219E-01  0.96652058339E-02 -0.15874642312E-01  0.10199372574E+01  0.10196550188E+01 0.  0.
     999903    2    3    3    0    0 -0.69444589911E-01 -0.10838984073E+00 -0.50624660120E-02  0.13033101741E+00  0.19739222294E-01 0.  0.
         14    1    1    2    0    0  0.15173372219E-01 -0.96652058339E-02  0.15874642312E-01  0.23992742587E-01  0.00000000000E+00 0. -1.
     999901    1    3    3    0    0  0.54271217692E-01  0.11805504656E+00 -0.10812176300E-01  0.88960624000E+00  0.88000000000E+00 0. -1.
        -11    1    4    4    0    0 -0.41595415177E-01 -0.56518454905E-01 -0.11464999313E-01  0.71107113842E-01  0.51100000000E-03 0. -1.
         11    1    4    4    0    0 -0.27849174734E-01 -0.51871385824E-01  0.64025333005E-02  0.59223903572E-01  0.51100000000E-03 0.  1.
</event>
<event>
 8    1  0.1097777E+005  0.1043930E+01  0.7957747E-01            NaN
         13   -1    0    0    0    0  0.00000000000E+00  0.00000000000E+00  0.74505805969E-08  0.10566000000E+00  0.10566000000E+00 0.  1.
     999900   -1    0    0    0    0 -0.00000000000E+00 -0.00000000000E+00 -0.74505805969E-08  0.93827000000E+00  0.93827000000E+00 0. -1.
     999902    2    1    2    0    0 -0.20117626007E-01  0.36956495673E-02  0.11802064429E-01  0.10203150592E+01  0.10200417416E+01 0.  0.
     999903    2    3    3    0    0  0.47133360580E-01 -0.11365507613E+00 -0.32746552087E-01  0.12886765909E+00  0.19887354639E-01 0.  0.
         14    1    1    2    0    0  0.20117626007E-01 -0.36956495673E-02 -0.11802064429E-01  0.23614940751E-01  0.00000000000E+00 0. -1.
     999901    1    3    3    0    0 -0.67250986587E-01  0.11735072570E+00  0.44548616516E-01  0.89144740016E+00  0.88000000000E+00 0. -1.
        -11    1    4    4    0    0  0.74747331061E-02 -0.21727115754E-01  0.15562643268E-02  0.23035239822E-01  0.51100000000E-03 0.  1.
         11    1    4    4    0    0  0.39658627474E-01 -0.91927960381E-01 -0.34302816414E-01  0.10583241927E+00  0.51100000000E-03 0. -1.
</event>
<event>
 8    1  0.1097777E+005  0.1043930E+01  0.7957747E-01            NaN
         13   -1    0    0    0    0  0.00000000000E+00  0.00000000000E+00  0.74505805969E-08  0.10566000000E+00  0.10566000000E+00 0. -1.
     999900   -1    0    0    0    0 -0.00000000000E+00 -0.00000000000E+00 -0.74505805969E-08  0.93827000000E+00  0.93827000000E+00 0. -1.
     999902    2    1    2    0    0  0.16416473559E-01 -0.15512774995E-01  0.69550050838E-02  0.10202969958E+01  0.10200232550E+01 0.  0.
     999903    2    3    3    0    0  0.66191368204E-01 -0.77505529441E-01 -0.81843935562E-01  0.13226214648E+00  0.20160388970E-01 0.  0.
         14    1    1    2    0    0 -0.16416473559E-01  0.15512774995E-01 -0.69550050838E-02  0.23633004208E-01  0.00000000000E+00 0. -1.
     999901    1    3    3    0    0 -0.49774894645E-01  0.61992754446E-01  0.88798940646E-01  0.88803484932E+00  0.88000000000E+00 0.  1.
        -11    1    4    4    0    0  0.51939031160E-01 -0.70946565915E-01 -0.65854283311E-01  0.10985502230E+00  0.51100000000E-03 0.  1.
         11    1    4    4    0    0  0.14252337044E-01 -0.65589635262E-02 -0.15989652251E-01  0.22407124176E-01  0.51100000000E-03 0. -1.
</event>
<event>
 8    1  0.1097777E+005  0.1043930E+01  0.7957747E-01            NaN
         13   -1    0    0    0    0  0.00000000000E+00  0.00000000000E+00  0.74505805969E-08  0.10566000000E+00  0.10566000000E+00 0.  1.
     999900   -1    0    0    0    0 -0.00000000000E+00 -0.00000000000E+00 -0.74505805969E-08  0.93827000000E+00  0.93827000000E+00 0. -1.
     999902    2    1    2    0    0 -0.32512831992E-02 -0.11900943309E-01 -0.19055094909E-01  0.10212297811E+01  0.10209774561E+01 0.  0.
     999903    2    3    3    0    0 -0.10801824800E+00  0.32602539579E-01  0.61859447547E-01  0.13021696413E+00  0.19974959530E-01 0.  0.
         14    1    1    2    0    0  0.32512831992E-02  0.11900943309E-01  0.19055094909E-01  0.22700218856E-01  0.00000000000E+00 0.  1.
     999901    1    3    3    0    0  0.10476696480E+00 -0.44503482888E-01 -0.80914542456E-01  0.89101281701E+00  0.88000000000E+00 0. -1.
        -11    1    4    4    0    0 -0.36839960753E-01  0.20857830638E-01  0.25585756210E-01  0.49468412639E-01  0.51100000000E-03 0. -1.
         11    1    4    4    0    0 -0.71178287248E-01  0.11744708941E-01  0.36273691337E-01  0.80748551491E-01  0.51100000000E-03 0.  1.
</event>
<event>
 8    1  0.1097777E+005  0.1043930E+01  0.7957747E-01            NaN
         13   -1    0    0    0    0  0.00000000000E+00  0.00000000000E+00  0.74505805969E-08  0.10566000000E+00  0.10566000000E+00 0. -1.
     999900   -1    0    0    0    0 -0.00000000000E+00 -0.00000000000E+00 -0.74505805969E-08  0.93827000000E+00  0.93827000000E+00 0. -1.
     999902    2    1    2    0    0 -0.67942002818E-02  0.21417215285E-01  0.37290706874E-02  0.10211536035E+01  0.10208995630E+01 0.  0.
     999903    2    3    3    0    0 -0.11567376914E+00  0.58711259941E-01 -0.23134797116E-01  0.13325311717E+00  0.19842920357E-01 0.  0.
         14    1    1    2    0    0  0.67942002818E-02 -0.21417215285E-01 -0.37290706874E-02  0.22776396472E-01  0.00000000000E+00 0. -1.
     999901    1    3    3    0    0  0.10887956885E+00 -0.37294044656E-01  0.26863867803E-01  0.88790048636E+00  0.88000000000E+00 0. -1.
        -11    1    4    4    0    0 -0.61848002096E-01  0.42209364889E-01 -0.11415930591E-01  0.75745563829E-01  0.51100000000E-03 0. -1.
         11    1    4    4    0    0 -0.53825767039E-01  0.16501895053E-01 -0.11718866524E-01  0.57507553342E-01  0.51100000000E-03 0.  1.
</event>
<event>
 8    1  0.1097777E+005  0.1043930E+01  0.7957747E-01            NaN
         13   -1    0    0    0    0  0.00000000000E+00  0.00000000000E+00  0.74505805969E-08  0.10566000000E+00  0.10566000000E+00 0. -1.
     999900   -1    0    0    0    0 -0.00000000000E+00 -0.00000000000E+00 -0.74505805969E-08  0.93827000000E+00  0.93827000000E+00 0. -1.
     999902    2    1    2    0    0  0.69446336430E-02  0.20451094965E-01 -0.11657990089E-01  0.10193864885E+01  0.10190909817E+01 0.  0.
     999903    2    3    3    0    0 -0.12620459164E+00 -0.12190303399E-01  0.70063843683E-02  0.12857644372E+00  0.20164573139E-01 0.  0.
         14    1    1    2    0    0 -0.69446336430E-02 -0.20451094965E-01  0.11657990089E-01  0.24543511456E-01  0.00000000000E+00 0. -1.
     999901    1    3    3    0    0  0.13314922528E+00  0.32641398364E-01 -0.18664374458E-01  0.89081004482E+00  0.88000000000E+00 0.  1.
        -11    1    4    4    0    0 -0.12179893883E+00 -0.15228364258E-01  0.50385624177E-02  0.12285166995E+00  0.51100000000E-03 0.  1.
         11    1    4    4    0    0 -0.44056528153E-02  0.30380608594E-02  0.19678219507E-02  0.57247737722E-02  0.51100000000E-03 0. -1.
</event>
<event>
 8    1  0.1097777E+005  0.1043930E+01  0.7957747E-01            NaN
         13   -1    0    0    0    0  0.00000000000E+00  0.00000000000E+00  0.74505805969E-08  0.10566000000E+00  0.10566000000E+00 0.  1.
     999900   -1    0    0    0    0 -0.00000000000E+00 -0.00000000000E+00 -0.74505805969E-08  0.93827000000E+00  0.93827000000E+00 0. -1.
     999902    2    1    2    0    0 -0.31137917764E-02 -0.19352579544E-01 -0.14144027055E-01  0.10197582906E+01  0.10194717748E+01 0.  0.
     999903    2    3    3    0    0 -0.43516920367E-01 -0.90938606787E-02 -0.12260222093E+00  0.13212050753E+00  0.21168449887E-01 0.  0.
         14    1    1    2    0    0  0.31137917764E-02  0.19352579544E-01  0.14144027055E-01  0.24171709406E-01  0.00000000000E+00 0. -1.
     999901    1    3    3    0    0  0.40403128591E-01 -0.10258718866E-01  0.10845819388E+00  0.88763778307E+00  0.88000000000E+00 0.  1.
        -11    1    4    4    0    0 -0.45295959765E-01 -0.70352762960E-02 -0.10914019857E+00  0.11837678466E+00  0.51100000000E-03 0.  1.
         11    1    4    4    0    0  0.17790393976E-02 -0.20585843827E-02 -0.13462022368E-01  0.13743722860E-01  0.51100000000E-03 0. -1.
</event>
<event>
 8    1  0.1097777E+005  0.1043930E+01  0.7957747E-01            NaN
         13   -1    0    0    0    0  0.00000000000E+00  0.00000000000E+00  0.74505805969E-08  0.10566000000E+00  0.10566000000E+00 0.  1.
     999900   -1    0    0    0    0 -0.00000000000E+00 -0.00000000000E+00 -0.74505805969E-08  0.93827000000E+00  0.93827000000E+00 0.  1.
     999902    2    1    2    0    0  0.68316251698E-02  0.18436471725E-01 -0.12955727691E-01  0.10203837589E+01  0.10201120477E+01 0.  0.
     999903    2    3    3    0    0 -0.51257705552E-01 -0.25930023259E-01 -0.11627401087E+00  0.13132952887E+00  0.20690119957E-01 0.  0.
         14    1    1    2    0    0 -0.68316251698E-02 -0.18436471725E-01  0.12955727691E-01  0.23546241146E-01  0.00000000000E+00 0.  1.
     999901    1    3    3    0    0  0.58089330722E-01  0.44366494983E-01  0.10331828318E+00  0.88905422999E+00  0.88000000000E+00 0. -1.
        -11    1    4    4    0    0 -0.29698340250E-01 -0.15967360547E-01 -0.45220821511E-01  0.56410387657E-01  0.51100000000E-03 0.  1.
         11    1    4    4    0    0 -0.21559365301E-01 -0.99626627120E-02 -0.71053189358E-01  0.74919141209E-01  0.51100000000E-03 0. -1.
</event>
<event>
 8    1  0.1097777E+005  0.1043930E+01  0.7957747E-01            NaN
         13   -1    0    0    0    0  0.00000000000E+00  0.00000000000E+00  0.74505805969E-08  0.10566000000E+00  0.10566000000E+00 0. -1.
     999900   -1    0    0    0    0 -0.00000000000E+00 -0.00000000000E+00 -0.74505805969E-08  0.93827000000E+00  0.93827000000E+00 0. -1.
     999902    2    1    2    0    0 -0.67233246775E-02 -0.41590925778E-02  0.25875001583E-01  0.10168741900E+01  0.10165141915E+01 0.  0.
     999903    2    3    3    0    0  0.12349094083E+00 -0.14760669241E-01 -0.12710058668E-01  0.12639288465E+00  0.18593705264E-01 0.  0.
         14    1    1    2    0    0  0.67233246775E-02  0.41590925778E-02 -0.25875001583E-01  0.27055809962E-01  0.00000000000E+00 0. -1.
     999901    1    3    3    0    0 -0.13021426551E+00  0.10601576663E-01  0.38585060250E-01  0.89048130539E+00  0.88000000000E+00 0. -1.
        -11    1    4    4    0    0  0.95833014950E-01 -0.47205098165E-02 -0.55775623907E-02  0.96112539715E-01  0.51100000000E-03 0.  1.
         11    1    4    4    0    0  0.27657925881E-01 -0.10040159425E-01 -0.71324962769E-02  0.30280344936E-01  0.51100000000E-03 0. -1.
</event>
<event>
 8    1  0.1097777E+005  0.1043930E+01  0.7957747E-01            NaN
         13   -1    0    0    0    0  0.00000000000E+00  0.00000000000E+00  0.74505805969E-08  0.10566000000E+00  0.10566000000E+00 0.  1.
     999900   -1    0    0    0    0 -0.00000000000E+00 -0.00000000000E+00 -0.74505805969E-08  0.93827000000E+00  0.93827000000E+00 0. -1.
     999902    2    1    2    0    0  0.19462339285E-01  0.13456295965E-02 -0.13804719612E-01  0.10200309696E+01  0.10197509575E+01 0.  0.
     999903    2    3    3    0    0  0.31627281221E-02 -0.12639438003E+00  0.22271545188E-01  0.12992722046E+00  0.19987964883E-01 0.  0.
         14    1    1    2    0    0 -0.19462339285E-01 -0.13456295965E-02  0.13804719612E-01  0.23899030378E-01  0.00000000000E+00 0. -1.
     999901    1    3    3    0    0  0.16299611163E-01  0.12774000963E+00 -0.36076264800E-01  0.89010374916E+00  0.88000000000E+00 0.  1.
        -11    1    4    4    0    0  0.24219202004E-02 -0.69886277129E-01  0.22340321151E-01  0.73411909787E-01  0.51100000000E-03 0.  1.
         11    1    4    4    0    0  0.74080792178E-03 -0.56508102900E-01 -0.68775962910E-04  0.56515310677E-01  0.51100000000E-03 0. -1.
</event>
<event>
 8    1  0.1097777E+005  0.1043930E+01  0.7957747E-01            NaN
         13   -1    0    0    0    0  0.00000000000E+00  0.00000000000E+00  0.74505805969E-08  0.10566000000E+00  0.10566000000E+00 0.  1.
     999900   -1    0    0    0    0 -0.00000000000E+00 -0.00000000000E+00 -0.74505805969E-08  0.93827000000E+00  0.93827000000E+00 0.  1.
     999902    2    1    2    0    0 -0.20747273126E-01 -0.70756267328E-02  0.85213436330E-03  0.10219928177E+01  0.10217573486E+01 0.  0.
     999903    2    3    3    0    0  0.41438259766E-01  0.11469043135E+00  0.41224484194E-01  0.13051991284E+00  0.21563050233E-01 0.  0.
         14    1    1    2    0    0  0.20747273126E-01  0.70756267328E-02 -0.85213436330E-03  0.21937182335E-01  0.00000000000E+00 0.  1.
     999901    1    3    3    0    0 -0.62185532892E-01 -0.12176605808E+00 -0.40372349830E-01  0.89147290482E+00  0.88000000000E+00 0.  1.
        -11    1    4    4    0    0  0.27170652203E-01  0.69720691209E-01  0.36033672827E-01  0.83053632204E-01  0.51100000000E-03 0. -1.
         11    1    4    4    0    0  0.14267607563E-01  0.44969740142E-01  0.51908113664E-02  0.47466280638E-01  0.51100000000E-03 0.  1.
</event>
<event>
 8    1  0.1097777E+005  0.1043930E+01  0.7957747E-01            NaN
         13   -1    0    0    0    0  0.00000000000E+00  0.00000000000E+00  0.74505805969E-08  0.10566000000E+00  0.10566000000E+00 0. -1.
     999900   -1    0    0    0    0 -0.00000000000E+00 -0.00000000000E+00 -0.74505805969E-08  0.93827000000E+00  0.93827000000E+00 0. -1.
     999902    2    1    2    0    0 -0.10153506713E-01 -0.12757961664E-01 -0.18164930041E-01  0.10195204943E+01  0.10192282445E+01 0.  0.
     999903    2    3    3    0    0  0.67042701560E-01  0.94099188184E-01 -0.53645620688E-01  0.12899447872E+00  0.20306202780E-01 0.  0.
         14    1    1    2    0    0  0.10153506713E-01  0.12757961664E-01  0.18164930041E-01  0.24409505685E-01  0.00000000000E+00 0. -1.
     999901    1    3    3    0    0 -0.77196208273E-01 -0.10685714985E+00  0.35480690647E-01  0.89052601560E+00  0.88000000000E+00 0.  1.
        -11    1    4    4    0    0  0.13763146917E-01  0.18023962960E-01 -0.19900301847E-01  0.30175662187E-01  0.51100000000E-03 0.  1.
         11    1    4    4    0    0  0.53279554643E-01  0.76075225224E-01 -0.33745318841E-01  0.98818816531E-01  0.51100000000E-03 0. -1.
</event>
<event>
 8    1  0.1097777E+005  0.1043930E+01  0.7957747E-01            NaN
         13   -1    0    0    0    0  0.00000000000E+00  0.00000000000E+00  0.74505805969E-08  0.10566000000E+00  0.10566000000E+00 0.  1.
     999900   -1    0    0    0    0 -0.00000000000E+00 -0.00000000000E+00 -0.74505805969E-08  0.93827000000E+00  0.93827000000E+00 0.  1.
     999902    2    1    2    0    0 -0.22552158019E-01 -0.11173723874E-01  0.66088073018E-02  0.10179083115E+01  0.10175756495E+01 0.  0.
     999903    2    3    3    0    0  0.58824260773E-01  0.93831164471E-01  0.57799652956E-01  0.12646641731E+00  0.19707200281E-01 0.  0.
         14    1    1    2    0    0  0.22552158019E-01  0.11173723874E-01 -0.66088073018E-02  0.26021688463E-01  0.00000000000E+00 0. -1.
     999901    1    3    3    0    0 -0.81376418791E-01 -0.10500488835E+00 -0.51190845654E-01  0.89144189423E+00  0.88000000000E+00 0. -1.
        -11    1    4    4    0    0  0.35518738396E-01  0.52881752568E-01  0.22390717688E-01  0.67525298159E-01  0.51100000000E-03 0.  1.
         11    1    4    4    0    0  0.23305522376E-01  0.40949411903E-01  0.35408935268E-01  0.58941119147E-01  0.51100000000E-03 0. -1.
</event>
<event>
 8    1  0.1097777E+005  0.1043930E+01  0.7957747E-01            NaN
         13   -1    0    0    0    0  0.00000000000E+00  0.00000000000E+00  0.74505805969E-08  0.10566000000E+00  0.10566000000E+00 0.  1.
     999900   -1    0    0    0    0 -0.00000000000E+00 -0.00000000000E+00 -0.74505805969E-08  0.93827000000E+00  0.93827000000E+00 0. -1.
     999902    2    1    2    0    0  0.98173847163E-02  0.12176859629E-01  0.17340119047E-01  0.10205775551E+01  0.10203103495E+01 0.  0.
     999903    2    3    3    0    0  0.42889659588E-01 -0.10485797693E+00 -0.58076363150E-01  0.12901792497E+00  0.20929471587E-01 0.  0.
         14    1    1    2    0    0 -0.98173847163E-02 -0.12176859629E-01 -0.17340119047E-01  0.23352444875E-01  0.00000000000E+00 0. -1.
     999901    1    3    3    0    0 -0.33072274872E-01  0.11703483656E+00  0.75416482196E-01  0.89155963015E+00  0.88000000000E+00 0. -1.
        -11    1    4    4    0    0  0.15219119205E-01 -0.30966727640E-01 -0.75549265082E-02  0.35325597598E-01  0.51100000000E-03 0. -1.
         11    1    4    4    0    0  0.27670540383E-01 -0.73891249293E-01 -0.50521436641E-01  0.93692327373E-01  0.51100000000E-03 0.  1.
</event>
<event>
 8    1  0.1097777E+005  0.1043930E+01  0.7957747E-01            NaN
         13   -1    0    0    0    0  0.00000000000E+00  0.00000000000E+00  0.74505805969E-08  0.10566000000E+00  0.10566000000E+00 0.  1.
     999900   -1    0    0    0    0 -0.00000000000E+00 -0.00000000000E+00 -0.74505805969E-08  0.93827000000E+00  0.93827000000E+00 0. -1.
     999902    2    1    2    0    0  0.13143276703E-02  0.22786593724E-01  0.47003776739E-02  0.10206265698E+01  0.10203604976E+01 0.  0.
     999903    2    3    3    0    0 -0.47980937317E-01  0.22819608476E-01 -0.11799409567E+00  0.13074794993E+00  0.18695318133E-01 0.  0.
         14    1    1    2    0    0 -0.13143276703E-02 -0.22786593724E-01 -0.47003776739E-02  0.23303430242E-01  0.00000000000E+00 0.  1.
     999901    1    3    3    0    0  0.49295264988E-01 -0.33014751932E-04  0.12269447335E+00  0.88987861983E+00  0.88000000000E+00 0.  1.
        -11    1    4    4    0    0 -0.19382308816E-01  0.21546119473E-03 -0.49365746709E-01  0.53037330134E-01  0.51100000000E-03 0.  1.
         11    1    4    4    0    0 -0.28598628501E-01  0.22604147281E-01 -0.68628348963E-01  0.77710619795E-01  0.51100000000E-03 0. -1.
</event>
<event>
 8    1  0.1097777E+005  0.1043930E+01  0.7957747E-01            NaN
         13   -1    0    0    0    0  0.00000000000E+00  0.00000000000E+00  0.74505805969E-08  0.10566000000E+00  0.10566000000E+00 0. -1.
     999900   -1    0    0    0    0 -0.00000000000E+00 -0.00000000000E+00 -0.74505805969E-08  0.93827000000E+00  0.93827000000E+00 0. -1.
     999902    2    1    2    0    0 -0.18259510912E-01  0.34680712739E-03  0.15744419031E-01  0.10198174152E+01  0.10195323161E+01 0.  0.
     999903    2    3    3    0    0 -0.50861675733E-01 -0.11087190534E+00 -0.40717139451E-01  0.13042413285E+00  0.21750391547E-01 0.  0.
         14    1    1    2    0    0  0.18259510912E-01 -0.34680712739E-03 -0.15744419031E-01  0.24112584775E-01  0.00000000000E+00 0.  1.
     999901    1    3    3    0    0  0.32602164820E-01  0.11121871246E+00  0.56461558482E-01  0.88939328238E+00  0.88000000000E+00 0. -1.
        -11    1    4    4    0    0 -0.31129856331E-01 -0.65143740890E-01 -0.35164417331E-01  0.80309229230E-01  0.51100000000E-03 0. -1.
         11    1    4    4    0    0 -0.19731819402E-01 -0.45728164446E-01 -0.55527221206E-02  0.50114903617E-01  0.51100000000E-03 0.  1.
</event>
<event>
 8    1  0.1097777E+005  0.1043930E+01  0.7957747E-01            NaN
         13   -1    0    0    0    0  0.00000000000E+00  0.00000000000E+00  0.74505805969E-08  0.10566000000E+00  0.10566000000E+00 0. -1.
     999900   -1    0    0    0    0 -0.00000000000E+00 -0.00000000000E+00 -0.74505805969E-08  0.93827000000E+00  0.93827000000E+00 0. -1.
     999902    2    1    2    0    0 -0.56246687182E-02 -0.12487221334E-01  0.18688006616E-01  0.10207608570E+01  0.10204978775E+01 0.  0.
     999903    2    3    3    0    0  0.12018173401E+00 -0.39484089138E-01  0.27838003932E-01  0.13135667203E+00  0.21839833803E-01 0.  0.
         14    1    1    2    0    0  0.56246687182E-02  0.12487221334E-01 -0.18688006616E-01  0.23169142973E-01  0.00000000000E+00 0.  1.
     999901    1    3    3    0    0 -0.12580640272E+00  0.26996867804E-01 -0.91499973159E-02  0.88940418500E+00  0.88000000000E+00 0.  1.
        -11    1    4    4    0    0  0.92844056975E-01 -0.21221628145E-01  0.17067586366E-01  0.96757118819E-01  0.51100000000E-03 0.  1.
         11    1    4    4    0    0  0.27337677030E-01 -0.18262460993E-01  0.10770417566E-01  0.34599553212E-01  0.51100000000E-03 0. -1.
</event>
<event>
 8    1  0.1097777E+005  0.1043930E+01  0.7957747E-01            NaN
         13   -1    0    0    0    0  0.00000000000E+00  0.00000000000E+00  0.74505805969E-08  0.10566000000E+00  0.10566000000E+00 0.  1.
     999900   -1    0    0    0    0 -0.00000000000E+00 -0.00000000000E+00 -0.74505805969E-08  0.93827000000E+00  0.93827000000E+00 0. -1.
     999902    2    1    2    0    0  0.24834525661E-01  0.13707718710E-01  0.35511287580E-02  0.10153421401E+01  0.10149396020E+01 0.  0.
     999903    2    3    3    0    0 -0.39575053938E-01  0.10303361085E+00  0.58858762575E-01  0.12675526012E+00  0.20504442887E-01 0.  0.
         14    1    1    2    0    0 -0.24834525661E-01 -0.13707718710E-01 -0.35511287580E-02  0.28587859880E-01  0.00000000000E+00 0.  1.
     999901    1    3    3    0    0  0.64409579599E-01 -0.89325892136E-01 -0.55307633817E-01  0.88858688000E+00  0.88000000000E+00 0.  1.
        -11    1    4    4    0    0 -0.55248205123E-02  0.19805164412E-01  0.20341799910E-01  0.28927808829E-01  0.51100000000E-03 0.  1.
         11    1    4    4    0    0 -0.34050233425E-01  0.83228446434E-01  0.38516962665E-01  0.97827451291E-01  0.51100000000E-03 0. -1.
</event>
<event>
 8    1  0.1097777E+005  0.1043930E+01  0.7957747E-01            NaN
         13   -1    0    0    0    0  0.00000000000E+00  0.00000000000E+00  0.74505805969E-08  0.10566000000E+00  0.10566000000E+00 0.  1.
     999900   -1    0    0    0    0 -0.00000000000E+00 -0.00000000000E+00 -0.74505805969E-08  0.93827000000E+00  0.93827000000E+00 0. -1.
     999902    2    1    2    0    0  0.11450661278E-02 -0.23648058470E-01  0.19265655850E-02  0.10201759793E+01  0.10198993946E+01 0.  0.
     999903    2    3    3    0    0 -0.91337963247E-01 -0.84989593539E-01 -0.38866463995E-01  0.13226834561E+00  0.20456262795E-01 0.  0.
         14    1    1    2    0    0 -0.11450661278E-02  0.23648058470E-01 -0.19265655850E-02  0.23754020729E-01  0.00000000000E+00 0. -1.
     999901    1    3    3    0    0  0.92483029375E-01  0.61341535068E-01  0.40793029580E-01  0.88790763366E+00  0.88000000000E+00 0.  1.
        -11    1    4    4    0    0 -0.19715251933E-01 -0.29512625925E-01 -0.66456631262E-02  0.36112493782E-01  0.51100000000E-03 0. -1.
         11    1    4    4    0    0 -0.71622711314E-01 -0.55476967614E-01 -0.32220800869E-01  0.96155851830E-01  0.51100000000E-03 0.  1.
</event>
<event>
 8    1  0.1097777E+005  0.1043930E+01  0.7957747E-01            NaN
         13   -1    0    0    0    0  0.00000000000E+00  0.00000000000E+00  0.74505805969E-08  0.10566000000E+00  0.10566000000E+00 0. -1.
     999900   -1    0    0    0    0 -0.00000000000E+00 -0.00000000000E+00 -0.74505805969E-08  0.93827000000E+00  0.93827000000E+00 0. -1.
     999902    2    1    2    0    0  0.40662398968E-02  0.14129860640E-01 -0.18283117809E-01  0.10204681231E+01  0.10201983781E+01 0.  0.
     999903    2    3    3    0    0  0.33603344238E-01 -0.11796860566E+00  0.32620959289E-01  0.12866451786E+00  0.21086832558E-01 0.  0.
         14    1    1    2    0    0 -0.40662398968E-02 -0.14129860640E-01  0.18283117809E-01  0.23461876852E-01  0.00000000000E+00 0. -1.
     999901    1    3    3    0    0 -0.29537104341E-01  0.13209846630E+00 -0.50904077099E-01  0.89180360528E+00  0.88000000000E+00 0. -1.
        -11    1    4    4    0    0  0.20351944893E-01 -0.53599404327E-01  0.24837857601E-01  0.62484222779E-01  0.51100000000E-03 0.  1.
         11    1    4    4    0    0  0.13251399345E-01 -0.64369201331E-01  0.77831016886E-02  0.66180295085E-01  0.51100000000E-03 0. -1.
</event>
<event>
 8    1  0.1097777E+005  0.1043930E+01  0.7957747E-01            NaN
         13   -1    0    0    0    0  0.00000000000E+00  0.00000000000E+00  0.74505805969E-08  0.10566000000E+00  0.10566000000E+00 0.  1.
     999900   -1    0    0    0    0 -0.00000000000E+00 -0.00000000000E+00 -0.74505805969E-08  0.93827000000E+00  0.93827000000E+00 0.  1.
     999902    2    1    2    0    0  0.12900839219E-01 -0.18857436741E-01 -0.53934265321E-02  0.10204539777E+01  0.10201839035E+01 0.  0.
     999903    2    3    3    0    0  0.10159060569E-01  0.76595325738E-01 -0.10267375150E+00  0.12995849269E+00  0.19423185581E-01 0.  0.
         14    1    1    2    0    0 -0.12900839219E-01  0.18857436741E-01  0.53934265321E-02  0.23476022294E-01  0.00000000000E+00 0.  1.
     999901    1    3    3    0    0  0.27417786491E-02 -0.95452762479E-01  0.97280324966E-01  0.89049548502E+00  0.88000000000E+00 0. -1.
        -11    1    4    4    0    0  0.79266769847E-02  0.31163759402E-01 -0.57302586931E-01  0.65710423055E-01  0.51100000000E-03 0. -1.
         11    1    4    4    0    0  0.22323835847E-02  0.45431566336E-01 -0.45371164567E-01  0.64248069631E-01  0.51100000000E-03 0.  1.
</event>
<event>
 8    1  0.1097777E+005  0.1043930E+01  0.7957747E-01            NaN
         13   -1    0    0    0    0  0.00000000000E+00  0.00000000000E+00  0.74505805969E-08  0.10566000000E+00  0.10566000000E+00 0.  1.
     999900   -1    0    0    0    0 -0.00000000000E+00 -0.00000000000E+00 -0.74505805969E-08  0.93827000000E+00  0.93827000000E+00 0. -1.
     999902    2    1    2    0    0  0.15373721526E-01  0.14351974257E-01  0.13010836958E-01  0.10191992023E+01  0.10188991125E+01 0.  0.
     999903    2    3    3    0    0  0.50692021997E-01  0.45007469157E-01  0.11188464147E+00  0.13242799674E+00  0.20582709995E-01 0.  0.
         14    1    1    2    0    0 -0.15373721526E-01 -0.14351974257E-01 -0.13010836958E-01  0.24730797743E-01  0.00000000000E+00 0. -1.
     999901    1    3    3    0    0 -0.35318300471E-01 -0.30655494900E-01 -0.98873804508E-01  0.88677120552E+00  0.88000000000E+00 0. -1.
        -11    1    4    4    0    0  0.45647609058E-01  0.46720636063E-01  0.10072276806E+00  0.12004940306E+00  0.51100000000E-03 0.  1.
         11    1    4    4    0    0  0.50444129388E-02 -0.17131669061E-02  0.11161873403E-01  0.12378593685E-01  0.51100000000E-03 0. -1.
</event>
<event>
 8    1  0.1191584E+005  0.1043930E+01  0.7957747E-01            NaN
         13   -1    0    0    0    0  0.00000000000E+00  0.00000000000E+00  0.74505805969E-08  0.10566000000E+00  0.10566000000E+00 0. -1.
     999900   -1    0    0    0    0 -0.00000000000E+00 -0.00000000000E+00 -0.74505805969E-08  0.93827000000E+00  0.93827000000E+00 0.  1.
     999902    2    1    2    0    0 -0.36889055106E-02 -0.14904937688E-01  0.16892365375E-01  0.10211020084E+01  0.10208468026E+01 0.  0.
     999903    2    3    3    0    0  0.12364813136E-01 -0.32733684291E-02 -0.12699349899E+00  0.12919609565E+00  0.20016962786E-01 0.  0.
         14    1    1    2    0    0  0.36889055106E-02  0.14904937688E-01 -0.16892365375E-01  0.22827991574E-01  0.00000000000E+00 0.  1.
     999901    1    3    3    0    0 -0.16053718646E-01 -0.11631569258E-01  0.14388586437E+00  0.89190591278E+00  0.88000000000E+00 0. -1.
        -11    1    4    4    0    0  0.36852064847E-02  0.67067198597E-02 -0.80220700448E-01  0.80586492289E-01  0.51100000000E-03 0. -1.
         11    1    4    4    0    0  0.86796066509E-02 -0.99800882888E-02 -0.46772798545E-01  0.48609603358E-01  0.51100000000E-03 0.  1.
</event>
<event>
 8    1  0.1097777E+005  0.1043930E+01  0.7957747E-01            NaN
         13   -1    0    0    0    0  0.00000000000E+00  0.00000000000E+00  0.74505805969E-08  0.10566000000E+00  0.10566000000E+00 0. -1.
     999900   -1    0    0    0    0 -0.00000000000E+00 -0.00000000000E+00 -0.74505805969E-08  0.93827000000E+00  0.93827000000E+00 0.  1.
     999902    2    1    2    0    0 -0.10653170557E-01 -0.11816691299E-01 -0.19150628823E-01  0.10190327949E+01  0.10187286029E+01 0.  0.
     999903    2    3    3    0    0  0.74221972332E-02 -0.60898402572E-01  0.11052221034E+00  0.12799363837E+00  0.20087509494E-01 0.  0.
         14    1    1    2    0    0  0.10653170557E-01  0.11816691299E-01  0.19150628823E-01  0.24897205074E-01  0.00000000000E+00 0. -1.
     999901    1    3    3    0    0 -0.18075367790E-01  0.49081711273E-01 -0.12967283916E+00  0.89103915656E+00  0.88000000000E+00 0.  1.
        -11    1    4    4    0    0  0.73306045901E-02 -0.49799548456E-01  0.71655894156E-01  0.87570320762E-01  0.51100000000E-03 0.  1.
         11    1    4    4    0    0  0.91592643150E-04 -0.11098854116E-01  0.38866316181E-01  0.40423317607E-01  0.51100000000E-03 0. -1.
</event>
<event>
 8    1  0.1097777E+005  0.1043930E+01  0.7957747E-01            NaN
         13   -1    0    0    0    0  0.00000000000E+00  0.00000000000E+00  0.74505805969E-08  0.10566000000E+00  0.10566000000E+00 0.  1.
     999900   -1    0    0    0    0 -0.00000000000E+00 -0.00000000000E+00 -0.74505805969E-08  0.93827000000E+00  0.93827000000E+00 0. -1.
     999902    2    1    2    0    0 -0.13693025181E-01  0.57939710430E-02 -0.17951082586E-01  0.10206209802E+01  0.10203547789E+01 0.  0.
     999903    2    3    3    0    0  0.75661741939E-01 -0.66247922925E-01  0.76983125829E-01  0.12810385831E+00  0.19253840328E-01 0.  0.
         14    1    1    2    0    0  0.13693025181E-01 -0.57939710430E-02  0.17951082586E-01  0.23309019822E-01  0.00000000000E+00 0.  1.
     999901    1    3    3    0    0 -0.89354767120E-01  0.72041893968E-01 -0.94934208415E-01  0.89251712186E+00  0.88000000000E+00 0. -1.
        -11    1    4    4    0    0  0.44517102277E-01 -0.30511654049E-01  0.49909738505E-01  0.73511744276E-01  0.51100000000E-03 0. -1.
         11    1    4    4    0    0  0.31144639663E-01 -0.35736268876E-01  0.27073387324E-01  0.54592114038E-01  0.51100000000E-03 0.  1.
</event>
<event>
 8    1  0.1097777E+005  0.1043930E+01  0.7957747E-01            NaN
         13   -1    0    0    0    0  0.00000000000E+00  0.00000000000E+00  0.74505805969E-08  0.10566000000E+00  0.10566000000E+00 0. -1.
     999900   -1    0    0    0    0 -0.00000000000E+00 -0.00000000000E+00 -0.74505805969E-08  0.93827000000E+00  0.93827000000E+00 0.  1.
     999902    2    1    2    0    0 -0.29965730884E-02  0.19015271648E-01 -0.13696817447E-01  0.10203045304E+01  0.10200309662E+01 0.  0.
     999903    2    3    3    0    0  0.52273125717E-01  0.11945993336E+00 -0.16467334397E-01  0.13286352084E+00  0.19452164806E-01 0.  0.
         14    1    1    2    0    0  0.29965730884E-02 -0.19015271648E-01  0.13696817447E-01  0.23625469611E-01  0.00000000000E+00 0. -1.
     999901    1    3    3    0    0 -0.55269698805E-01 -0.10044466171E+00  0.27705169498E-02  0.88744100955E+00  0.88000000000E+00 0.  1.
        -11    1    4    4    0    0  0.15266484073E-01  0.59045801743E-01 -0.77283820315E-02  0.61477323049E-01  0.51100000000E-03 0. -1.
         11    1    4    4    0    0  0.37006641644E-01  0.60414131619E-01 -0.87389523656E-02  0.71386197787E-01  0.51100000000E-03 0.  1.
</event>
<event>
 8    1  0.1097777E+005  0.1043930E+01  0.7957747E-01            NaN
         13   -1    0    0    0    0  0.00000000000E+00  0.00000000000E+00  0.74505805969E-08  0.10566000000E+00  0.10566000000E+00 0. -1.
     999900   -1    0    0    0    0 -0.00000000000E+00 -0.00000000000E+00 -0.74505805969E-08  0.93827000000E+00  0.93827000000E+00 0. -1.
     999902    2    1    2    0    0  0.65995068742E-04 -0.44316300476E-02  0.23365769689E-01  0.10201475928E+01  0.10198703389E+01 0.  0.
     999903    2    3    3    0    0  0.10309515495E+00 -0.77837311721E-01  0.67490198648E-03  0.13081172969E+00  0.20591140371E-01 0.  0.
         14    1    1    2    0    0 -0.65995068742E-04  0.44316300476E-02 -0.23365769689E-01  0.23782407224E-01  0.00000000000E+00 0.  1.
     999901    1    3    3    0    0 -0.10302915988E+00  0.73405681673E-01  0.22690867702E-01  0.88933586308E+00  0.88000000000E+00 0.  1.
        -11    1    4    4    0    0  0.78034906892E-01 -0.47232602557E-01  0.18281351157E-02  0.91235785945E-01  0.51100000000E-03 0.  1.
         11    1    4    4    0    0  0.25060248061E-01 -0.30604709164E-01 -0.11532331292E-02  0.39575943748E-01  0.51100000000E-03 0. -1.
</event>
<event>
 8    1  0.1097777E+005  0.1043930E+01  0.7957747E-01            NaN
         13   -1    0    0    0    0  0.00000000000E+00  0.00000000000E+00  0.74505805969E-08  0.10566000000E+00  0.10566000000E+00 0. -1.
     999900   -1    0    0    0    0 -0.00000000000E+00 -0.00000000000E+00 -0.74505805969E-08  0.93827000000E+00  0.93827000000E+00 0. -1.
     999902    2    1    2    0    0  0.12933493386E-01  0.13885480166E-01  0.12902178209E-01  0.10209833660E+01  0.10207254702E+01 0.  0.
     999903    2    3    3    0    0 -0.53426699731E-01  0.62092753003E-01 -0.99017209527E-01  0.13011100377E+00  0.20360336449E-01 0.  0.
         14    1    1    2    0    0 -0.12933493386E-01 -0.13885480166E-01 -0.12902178209E-01  0.22946634026E-01  0.00000000000E+00 0.  1.
     999901    1    3    3    0    0  0.66360193117E-01 -0.48207272837E-01  0.11191938774E+00  0.89087236220E+00  0.88000000000E+00 0. -1.
        -11    1    4    4    0    0 -0.31971135849E-01  0.29235658402E-01 -0.65326853810E-01  0.78388367755E-01  0.51100000000E-03 0.  1.
         11    1    4    4    0    0 -0.21455563882E-01  0.32857094601E-01 -0.33690355717E-01  0.51722636016E-01  0.51100000000E-03 0. -1.
</event>
<event>
 8    1  0.1097777E+005  0.1043930E+01  0.7957747E-01            NaN
         13   -1    0    0    0    0  0.00000000000E+00  0.00000000000E+00  0.74505805969E-08  0.10566000000E+00  0.10566000000E+00 0. -1.
     999900   -1    0    0    0    0 -0.00000000000E+00 -0.00000000000E+00 -0.74505805969E-08  0.93827000000E+00  0.93827000000E+00 0. -1.
     999902    2    1    2    0    0 -0.35314343554E-02 -0.13254572627E-01 -0.19698692406E-01  0.10199259752E+01  0.10196434679E+01 0.  0.
     999903    2    3    3    0    0 -0.26514664044E-01  0.11860195204E+00  0.35247925115E-01  0.12811125076E+00  0.20015641650E-01 0.  0.
         14    1    1    2    0    0  0.35314343554E-02  0.13254572627E-01  0.19698692406E-01  0.24004024800E-01  0.00000000000E+00 0.  1.
     999901    1    3    3    0    0  0.22983229689E-01 -0.13185652466E+00 -0.54946617521E-01  0.89181472444E+00  0.88000000000E+00 0.  1.
        -11    1    4    4    0    0 -0.18728871032E-01  0.82403618921E-01  0.33912790022E-01  0.91057484423E-01  0.51100000000E-03 0. -1.
         11    1    4    4    0    0 -0.77857930123E-02  0.36198333117E-01  0.13351350929E-02  0.37053766341E-01  0.51100000000E-03 0.  1.
</event>
<event>
 8    1  0.1097777E+005  0.1043930E+01  0.7957747E-01            NaN
         13   -1    0    0    0    0  0.00000000000E+00  0.00000000000E+00  0.74505805969E-08  0.10566000000E+00  0.10566000000E+00 0.  1.
     999900   -1    0    0    0    0 -0.00000000000E+00 -0.00000000000E+00 -0.74505805969E-08  0.93827000000E+00  0.93827000000E+00 0. -1.
     999902    2    1    2    0    0  0.19777425048E-02  0.21636224262E-01 -0.10029698234E-01  0.10200002588E+01  0.10197195181E+01 0.  0.
     999903    2    3    3    0    0 -0.10124332757E+00  0.54437568437E-01 -0.61472426110E-01  0.13186914704E+00  0.19923667662E-01 0.  0.
         14    1    1    2    0    0 -0.19777425048E-02 -0.21636224262E-01  0.10029698234E-01  0.23929741168E-01  0.00000000000E+00 0.  1.
     999901    1    3    3    0    0  0.10322107008E+00 -0.32801344176E-01  0.51442727875E-01  0.88813111180E+00  0.88000000000E+00 0. -1.
        -11    1    4    4    0    0 -0.37806979899E-01  0.30546908718E-01 -0.21283910053E-01  0.53063615684E-01  0.51100000000E-03 0. -1.
         11    1    4    4    0    0 -0.63436347672E-01  0.23890659719E-01 -0.40188516057E-01  0.78805531352E-01  0.51100000000E-03 0.  1.
</event>
<event>
 8    1  0.1097777E+005  0.1043930E+01  0.7957747E-01            NaN
         13   -1    0    0    0    0  0.00000000000E+00  0.00000000000E+00  0.74505805969E-08  0.10566000000E+00  0.10566000000E+00 0.  1.
     999900   -1    0    0    0    0 -0.00000000000E+00 -0.00000000000E+00 -0.74505805969E-08  0.93827000000E+00  0.93827000000E+00 0.  1.
     999902    2    1    2    0    0  0.22263391273E-01  0.10260765272E-01 -0.21529658717E-02  0.10193215227E+01  0.10190244302E+01 0.  0.
     999903    2    3    3    0    0  0.31877791360E-01 -0.86864387999E-01  0.88240359990E-01  0.12932338477E+00  0.19405185716E-01 0.  0.
         14    1    1    2    0    0 -0.22263391273E-01 -0.10260765272E-01  0.21529658717E-02  0.24608477340E-01  0.00000000000E+00 0.  1.
     999901    1    3    3    0    0 -0.96144000865E-02  0.97125153271E-01 -0.90393325862E-01  0.88999813789E+00  0.88000000000E+00 0.  1.
        -11    1    4    4    0    0  0.34273106422E-01 -0.76672488816E-01  0.80007277408E-01  0.11599457713E+00  0.51100000000E-03 0.  1.
         11    1    4    4    0    0 -0.23953150625E-02 -0.10191899183E-01  0.82330825827E-02  0.13328807637E-01  0.51100000000E-03 0. -1.
</event>
<event>
 8    1  0.1097777E+005  0.1043930E+01  0.7957747E-01            NaN
         13   -1    0    0    0    0  0.00000000000E+00  0.00000000000E+00  0.74505805969E-08  0.10566000000E+00  0.10566000000E+00 0. -1.
     999900   -1    0    0    0    0 -0.00000000000E+00 -0.00000000000E+00 -0.74505805969E-08  0.93827000000E+00  0.93827000000E+00 0.  1.
     999902    2    1    2    0    0  0.18513229842E-01 -0.14806423299E-01 -0.25936078215E-02  0.10200826385E+01  0.10198038501E+01 0.  0.
     999903    2    3    3    0    0  0.30063972055E-02  0.56985482640E-01  0.11397156576E+00  0.12936271655E+00  0.22109070012E-01 0.  0.
         14    1    1    2    0    0 -0.18513229842E-01  0.14806423299E-01  0.25936078215E-02  0.23847361524E-01  0.00000000000E+00 0. -1.
     999901    1    3    3    0    0  0.15506832637E-01 -0.71791905939E-01 -0.11656517358E+00  0.89071992192E+00  0.88000000000E+00 0.  1.
        -11    1    4    4    0    0  0.11977841091E-01  0.33718110306E-01  0.74877040287E-01  0.82989227752E-01  0.51100000000E-03 0.  1.
         11    1    4    4    0    0 -0.89714438860E-02  0.23267372334E-01  0.39094525472E-01  0.46373488802E-01  0.51100000000E-03 0. -1.
</event>
<event>
 8    1  0.1097777E+005  0.1043930E+01  0.7957747E-01            NaN
         13   -1    0    0    0    0  0.00000000000E+00  0.00000000000E+00  0.74505805969E-08  0.10566000000E+00  0.10566000000E+00 0.  1.
     999900   -1    0    0    0    0 -0.00000000000E+00 -0.00000000000E+00 -0.74505805969E-08  0.93827000000E+00  0.93827000000E+00 0. -1.
     999902    2    1    2    0    0 -0.91065953628E-02  0.21696679575E-01 -0.11197736674E-02  0.10203730504E+01  0.10201010891E+01 0.  0.
     999903    2    3    3    0    0 -0.65884929328E-01 -0.63508614837E-01 -0.90050893022E-01  0.12998410984E+00  0.20311016833E-01 0.  0.
         14    1    1    2    0    0  0.91065953628E-02 -0.21696679575E-01  0.11197736674E-02  0.23556949648E-01  0.00000000000E+00 0. -1.
     999901    1    3    3    0    0  0.56778333965E-01  0.85205294412E-01  0.88931119354E-01  0.89038894052E+00  0.88000000000E+00 0.  1.
        -11    1    4    4    0    0 -0.22373505378E-01 -0.20807068964E-01 -0.44043933169E-01  0.53606315223E-01  0.51100000000E-03 0. -1.
         11    1    4    4    0    0 -0.43511423949E-01 -0.42701545873E-01 -0.46006959853E-01  0.76377794613E-01  0.51100000000E-03 0.  1.
</event>
<event>
 8    1  0.1097777E+005  0.1043930E+01  0.7957747E-01            NaN
         13   -1    0    0    0    0  0.00000000000E+00  0.00000000000E+00  0.74505805969E-08  0.10566000000E+00  0.10566000000E+00 0. -1.
     999900   -1    0    0    0    0 -0.00000000000E+00 -0.00000000000E+00 -0.74505805969E-08  0.93827000000E+00  0.93827000000E+00 0. -1.
     999902    2    1    2    0    0  0.35088230171E-02  0.10512283507E-01 -0.19979580744E-01  0.10210826021E+01  0.10208269573E+01 0.  0.
     999903    2    3    3    0    0  0.36742826226E-01 -0.60170475868E-01  0.10576472350E+00  0.12871934565E+00  0.20297087503E-01 0.  0.
         14    1    1    2    0    0 -0.35088230171E-02 -0.10512283507E-01  0.19979580744E-01  0.22847397887E-01  0.00000000000E+00 0. -1.
     999901    1    3    3    0    0 -0.33234003209E-01  0.70682759375E-01 -0.12574430424E+00  0.89236325647E+00  0.88000000000E+00 0. -1.
        -11    1    4    4    0    0  0.27266203488E-01 -0.29888711380E-01  0.47700147751E-01  0.62548750084E-01  0.51100000000E-03 0. -1.
         11    1    4    4    0    0  0.94766227374E-02 -0.30281764488E-01  0.58064575749E-01  0.66170595562E-01  0.51100000000E-03 0.  1.
</event>
<event>
 8    1  0.1097777E+005  0.1043930E+01  0.7957747E-01            NaN
         13   -1    0    0    0    0  0.00000000000E+00  0.00000000000E+00  0.74505805969E-08  0.10566000000E+00  0.10566000000E+00 0. -1.
     999900   -1    0    0    0    0 -0.00000000000E+00 -0.00000000000E+00 -0.74505805969E-08  0.93827000000E+00  0.93827000000E+00 0.  1.
     999902    2    1    2    0    0  0.19083546939E-01  0.13743501266E-01 -0.19438304339E-02  0.10203324563E+01  0.10200595460E+01 0.  0.
     999903    2    3    3    0    0  0.20568648513E-01  0.79050097704E-01  0.10142467898E+00  0.13187750203E+00  0.20801989973E-01 0.  0.
         14    1    1    2    0    0 -0.19083546939E-01 -0.13743501266E-01  0.19438304339E-02  0.23597543677E-01  0.00000000000E+00 0.  1.
     999901    1    3    3    0    0 -0.14851015737E-02 -0.65306596438E-01 -0.10336850942E+00  0.88845495429E+00  0.88000000000E+00 0. -1.
        -11    1    4    4    0    0  0.14101954635E-01  0.29789991168E-01  0.53537502031E-01  0.62871567048E-01  0.51100000000E-03 0.  1.
         11    1    4    4    0    0  0.64666938774E-02  0.49260106536E-01  0.47887176951E-01  0.69005934984E-01  0.51100000000E-03 0. -1.
</event>
<event>
 8    1  0.1097777E+005  0.1043930E+01  0.7957747E-01            NaN
         13   -1    0    0    0    0  0.00000000000E+00  0.00000000000E+00  0.74505805969E-08  0.10566000000E+00  0.10566000000E+00 0.  1.
     999900   -1    0    0    0    0 -0.00000000000E+00 -0.00000000000E+00 -0.74505805969E-08  0.93827000000E+00  0.93827000000E+00 0.  1.
     999902    2    1    2    0    0 -0.11731619673E-01 -0.45967733979E-02 -0.19572310069E-01  0.10206526173E+01  0.10203871464E+01 0.  0.
     999903    2    3    3    0    0 -0.14458760434E-01 -0.89926614484E-01 -0.95227199422E-01  0.13329007503E+00  0.20054247549E-01 0.  0.
         14    1    1    2    0    0  0.11731619673E-01  0.45967733979E-02  0.19572310069E-01  0.23277382741E-01  0.00000000000E+00 0.  1.
     999901    1    3    3    0    0  0.27271407613E-02  0.85329841086E-01  0.75654889353E-01  0.88736254223E+00  0.88000000000E+00 0. -1.
        -11    1    4    4    0    0 -0.10481076705E-01 -0.46074839366E-01 -0.35592403710E-01  0.59159311307E-01  0.51100000000E-03 0. -1.
         11    1    4    4    0    0 -0.39776837290E-02 -0.43851775118E-01 -0.59634795712E-01  0.74130763719E-01  0.51100000000E-03 0.  1.
</event>
<event>
 8    1  0.1097777E+005  0.1043930E+01  0.7957747E-01            NaN
         13   -1    0    0    0    0  0.00000000000E+00  0.00000000000E+00  0.74505805969E-08  0.10566000000E+00  0.10566000000E+00 0.  1.
     999900   -1    0    0    0    0 -0.00000000000E+00 -0.00000000000E+00 -0.74505805969E-08  0.93827000000E+00  0.93827000000E+00 0.  1.
     999902    2    1    2    0    0  0.93730489900E-02 -0.16638821846E-01 -0.13133680731E-01  0.10207524676E+01  0.10204892954E+01 0.  0.
     999903    2    3    3    0    0 -0.48749657782E-01  0.90650840578E-02 -0.12064772995E+00  0.13193403246E+00  0.19799224632E-01 0.  0.
         14    1    1    2    0    0 -0.93730489900E-02  0.16638821846E-01  0.13133680731E-01  0.23177532426E-01  0.00000000000E+00 0.  1.
     999901    1    3    3    0    0  0.58122706772E-01 -0.25703905904E-01  0.10751404922E+00  0.88881843512E+00  0.88000000000E+00 0. -1.
        -11    1    4    4    0    0 -0.38271100680E-01 -0.16763513909E-02 -0.83656900755E-01  0.92012094130E-01  0.51100000000E-03 0. -1.
         11    1    4    4    0    0 -0.10478557102E-01  0.10741435449E-01 -0.36990829195E-01  0.39921938329E-01  0.51100000000E-03 0.  1.
</event>
<event>
 8    1  0.1097777E+005  0.1043930E+01  0.7957747E-01            NaN
         13   -1    0    0    0    0  0.00000000000E+00  0.00000000000E+00  0.74505805969E-08  0.10566000000E+00  0.10566000000E+00 0. -1.
     999900   -1    0    0    0    0 -0.00000000000E+00 -0.00000000000E+00 -0.74505805969E-08  0.93827000000E+00  0.93827000000E+00 0.  1.
     999902    2    1    2    0    0  0.93768397504E-03  0.17134031784E-01  0.13268316594E-01  0.10222389299E+01  0.10220087707E+01 0.  0.
     999903    2    3    3    0    0  0.74126187838E-01 -0.85725707373E-01 -0.60858521320E-01  0.13014506089E+00  0.19758254728E-01 0.  0.
         14    1    1    2    0    0 -0.93768397504E-03 -0.17134031784E-01 -0.13268316594E-01  0.21691070090E-01  0.00000000000E+00 0.  1.
     999901    1    3    3    0    0 -0.73188503863E-01  0.10285973916E+00  0.74126837913E-01  0.89209386902E+00  0.88000000000E+00 0.  1.
        -11    1    4    4    0    0  0.27062307594E-01 -0.25968826992E-01 -0.10616503123E-01  0.38983582791E-01  0.51100000000E-03 0. -1.
         11    1    4    4    0    0  0.47063880244E-01 -0.59756880380E-01 -0.50242018196E-01  0.91161478103E-01  0.51100000000E-03 0.  1.
</event>
<event>
 8    1  0.1097777E+005  0.1043930E+01  0.7957747E-01            NaN
         13   -1    0    0    0    0  0.00000000000E+00  0.00000000000E+00  0.74505805969E-08  0.10566000000E+00  0.10566000000E+00 0. -1.
     999900   -1    0    0    0    0 -0.00000000000E+00 -0.00000000000E+00 -0.74505805969E-08  0.93827000000E+00  0.93827000000E+00 0.  1.
     999902    2    1    2    0    0  0.30926210407E-02  0.23518484297E-01  0.28598440295E-02  0.10200372790E+01  0.10197574165E+01 0.  0.
     999903    2    3    3    0    0 -0.12384221870E+00 -0.26135446395E-01  0.18995961496E-01  0.12939799138E+00  0.19053528056E-01 0.  0.
         14    1    1    2    0    0 -0.30926210407E-02 -0.23518484297E-01 -0.28598440295E-02  0.23892720992E-01  0.00000000000E+00 0.  1.
     999901    1    3    3    0    0  0.12693483974E+00  0.49653930692E-01 -0.16136117467E-01  0.89063928762E+00  0.88000000000E+00 0.  1.
        -11    1    4    4    0    0 -0.39425935039E-01 -0.17146498119E-01  0.88656387406E-02  0.43900654013E-01  0.51100000000E-03 0. -1.
         11    1    4    4    0    0 -0.84416283656E-01 -0.89889482754E-02  0.10130322756E-01  0.85497337371E-01  0.51100000000E-03 0.  1.
</event>
<event>
 8    1  0.1097777E+005  0.1043930E+01  0.7957747E-01            NaN
         13   -1    0    0    0    0  0.00000000000E+00  0.00000000000E+00  0.74505805969E-08  0.10566000000E+00  0.10566000000E+00 0.  1.
     999900   -1    0    0    0    0 -0.00000000000E+00 -0.00000000000E+00 -0.74505805969E-08  0.93827000000E+00  0.93827000000E+00 0.  1.
     999902    2    1    2    0    0 -0.83462744507E-02  0.21283990489E-02  0.93741174177E-02  0.10311995461E+01  0.10311209625E+01 0.  0.
     999903    2    3    3    0    0  0.69936245154E-01  0.32820741236E-01  0.11625721027E+00  0.14075349590E+00  0.18097740868E-01 0.  0.
         14    1    1    2    0    0  0.83462744507E-02 -0.21283990489E-02 -0.93741174177E-02  0.12730453923E-01  0.00000000000E+00 0. -1.
     999901    1    3    3    0    0 -0.78282519605E-01 -0.30692342187E-01 -0.10688309286E+00  0.89044605018E+00  0.88000000000E+00 0.  1.
        -11    1    4    4    0    0  0.54724764408E-01  0.26555060000E-01  0.76591448925E-01  0.97808395450E-01  0.51100000000E-03 0.  1.
         11    1    4    4    0    0  0.15211480746E-01  0.62656812362E-02  0.39665761350E-01  0.42945100446E-01  0.51100000000E-03 0. -1.
</event>
<event>
 8    1  0.1097777E+005  0.1043930E+01  0.7957747E-01            NaN
         13   -1    0    0    0    0  0.00000000000E+00  0.00000000000E+00  0.74505805969E-08  0.10566000000E+00  0.10566000000E+00 0.  1.
     999900   -1    0    0    0    0 -0.00000000000E+00 -0.00000000000E+00 -0.74505805969E-08  0.93827000000E+00  0.93827000000E+00 0.  1.
     999902    2    1    2    0    0 -0.15221430626E-01 -0.80657021580E-02 -0.11471914554E-01  0.10232333257E+01  0.10230239912E+01 0.  0.
     999903    2    3    3    0    0 -0.65135550028E-01  0.23519517976E-01  0.11143123096E+00  0.13273109182E+00  0.20120037263E-01 0.  0.
         14    1    1    2    0    0  0.15221430626E-01  0.80657021580E-02  0.11471914554E-01  0.20696674253E-01  0.00000000000E+00 0.  1.
     999901    1    3    3    0    0  0.49914119402E-01 -0.31585220134E-01 -0.12290314552E+00  0.89050223392E+00  0.88000000000E+00 0.  1.
        -11    1    4    4    0    0 -0.17571999600E-01 -0.21866416522E-02  0.33255320093E-01  0.37679357839E-01  0.51100000000E-03 0.  1.
         11    1    4    4    0    0 -0.47563550428E-01  0.25706159628E-01  0.78175910869E-01  0.95051733983E-01  0.51100000000E-03 0. -1.
</event>
<event>
 8    1  0.1097777E+005  0.1043930E+01  0.7957747E-01            NaN
         13   -1    0    0    0    0  0.00000000000E+00  0.00000000000E+00  0.74505805969E-08  0.10566000000E+00  0.10566000000E+00 0.  1.
     999900   -1    0    0    0    0 -0.00000000000E+00 -0.00000000000E+00 -0.74505805969E-08  0.93827000000E+00  0.93827000000E+00 0. -1.
     999902    2    1    2    0    0  0.25910233118E-01 -0.82965305809E-02 -0.32495671324E-02  0.10165305057E+01  0.10161611766E+01 0.  0.
     999903    2    3    3    0    0 -0.11778701255E+00  0.15401217823E-01  0.30345044415E-01  0.12392808605E+00  0.18065739843E-01 0.  0.
         14    1    1    2    0    0 -0.25910233118E-01  0.82965305809E-02  0.32495671324E-02  0.27399494273E-01  0.00000000000E+00 0.  1.
     999901    1    3    3    0    0  0.14369724566E+00 -0.23697748404E-01 -0.33594611547E-01  0.89260241968E+00  0.88000000000E+00 0. -1.
        -11    1    4    4    0    0 -0.95278233427E-01  0.53786014990E-02  0.22283276438E-01  0.97998350236E-01  0.51100000000E-03 0. -1.
         11    1    4    4    0    0 -0.22508779119E-01  0.10022616324E-01  0.80617679768E-02  0.25929735812E-01  0.51100000000E-03 0.  1.
</event>
<event>
 8    1  0.1097777E+005  0.1043930E+01  0.7957747E-01            NaN
         13   -1    0    0    0    0  0.00000000000E+00  0.00000000000E+00  0.74505805969E-08  0.10566000000E+00  0.10566000000E+00 0.  1.
     999900   -1    0    0    0    0 -0.00000000000E+00 -0.00000000000E+00 -0.74505805969E-08  0.93827000000E+00  0.93827000000E+00 0.  1.
     999902    2    1    2    0    0 -0.10558392717E-01  0.10717197154E-01 -0.18296033970E-01  0.10202428129E+01  0.10199678007E+01 0.  0.
     999903    2    3    3    0    0 -0.44419847823E-01  0.18775654267E-02 -0.12401148490E+00  0.13322506014E+00  0.19834821125E-01 0.  0.
         14    1    1    2    0    0  0.10558392717E-01 -0.10717197154E-01  0.18296033970E-01  0.23687187056E-01  0.00000000000E+00 0.  1.
     999901    1    3    3    0    0  0.33861455105E-01  0.88396317270E-02  0.10571545093E+00  0.88701775281E+00  0.88000000000E+00 0. -1.
        -11    1    4    4    0    0 -0.16937771953E-01 -0.61759046183E-02 -0.30586883635E-01  0.35508428409E-01  0.51100000000E-03 0.  1.
         11    1    4    4    0    0 -0.27482075870E-01  0.80534700450E-02 -0.93424601263E-01  0.97716631727E-01  0.51100000000E-03 0. -1.
</event>
<event>
 8    1  0.1097777E+005  0.1043930E+01  0.7957747E-01            NaN
         13   -1    0    0    0    0  0.00000000000E+00  0.00000000000E+00  0.74505805969E-08  0.10566000000E+00  0.10566000000E+00 0.  1.
     999900   -1    0    0    0    0 -0.00000000000E+00 -0.00000000000E+00 -0.74505805969E-08  0.93827000000E+00  0.93827000000E+00 0. -1.
     999902    2    1    2    0    0  0.10194155975E-01 -0.20437089084E-01  0.56457716414E-02  0.10204040534E+01  0.10201328159E+01 0.  0.
     999903    2    3    3    0    0  0.73554247593E-01  0.93608656117E-01  0.48131734854E-01  0.12977169923E+00  0.18740922678E-01 0.  0.
         14    1    1    2    0    0 -0.10194155975E-01  0.20437089084E-01 -0.56457716414E-02  0.23525946606E-01  0.00000000000E+00 0.  1.
     999901    1    3    3    0    0 -0.63360091618E-01 -0.11404574520E+00 -0.42485963213E-01  0.89063235416E+00  0.88000000000E+00 0.  1.
        -11    1    4    4    0    0  0.60231911290E-01  0.64099529921E-01  0.38249731828E-01  0.95916296737E-01  0.51100000000E-03 0.  1.
         11    1    4    4    0    0  0.13322336304E-01  0.29509126195E-01  0.98820030262E-02  0.33855402497E-01  0.51100000000E-03 0. -1.
</event>
<event>
 8    1  0.1097777E+005  0.1043930E+01  0.7957747E-01            NaN
         13   -1    0    0    0    0  0.00000000000E+00  0.00000000000E+00  0.74505805969E-08  0.10566000000E+00  0.10566000000E+00 0. -1.
     999900   -1    0    0    0    0 -0.00000000000E+00 -0.00000000000E+00 -0.74505805969E-08  0.93827000000E+00  0.93827000000E+00 0. -1.
     999902    2    1    2    0    0 -0.80846286896E-02  0.19391079410E-01  0.99805081938E-02  0.10206709002E+01  0.10204058510E+01 0.  0.
     999903    2    3    3    0    0 -0.54134015744E-01  0.60987808336E-01 -0.10126774665E+00  0.13149880876E+00  0.19666615574E-01 0.  0.
         14    1    1    2    0    0  0.80846286896E-02 -0.19391079410E-01 -0.99805081938E-02  0.23259099843E-01  0.00000000000E+00 0. -1.
     999901    1    3    3    0    0  0.46049387054E-01 -0.41596728926E-01  0.11124825485E+00  0.88917209139E+00  0.88000000000E+00 0.  1.
        -11    1    4    4    0    0 -0.99616900619E-02  0.88159343525E-02 -0.29597252211E-01  0.32453265272E-01  0.51100000000E-03 0. -1.
         11    1    4    4    0    0 -0.44172325682E-01  0.52171873983E-01 -0.71670494441E-01  0.99045543491E-01  0.51100000000E-03 0.  1.
</event>
<event>
 8    1  0.1097777E+005  0.1043930E+01  0.7957747E-01            NaN
         13   -1    0    0    0    0  0.00000000000E+00  0.00000000000E+00  0.74505805969E-08  0.10566000000E+00  0.10566000000E+00 0. -1.
     999900   -1    0    0    0    0 -0.00000000000E+00 -0.00000000000E+00 -0.74505805969E-08  0.93827000000E+00  0.93827000000E+00 0.  1.
     999902    2    1    2    0    0 -0.16610371200E-01  0.14831525991E-01  0.86239215457E-02  0.10200500792E+01  0.10197705200E+01 0.  0.
     999903    2    3    3    0    0 -0.28998639330E-01 -0.61415954169E-01 -0.10797912313E+00  0.12900383043E+00  0.19226458957E-01 0.  0.
         14    1    1    2    0    0  0.16610371200E-01 -0.14831525991E-01 -0.86239215457E-02  0.23879920800E-01  0.00000000000E+00 0.  1.
     999901    1    3    3    0    0  0.12388268130E-01  0.76247480160E-01  0.11660304468E+00  0.89104624877E+00  0.88000000000E+00 0. -1.
        -11    1    4    4    0    0 -0.84125820204E-02 -0.37493970732E-01 -0.50893323807E-01  0.63772728550E-01  0.51100000000E-03 0.  1.
         11    1    4    4    0    0 -0.20586057310E-01 -0.23921983437E-01 -0.57085799324E-01  0.65231101881E-01  0.51100000000E-03 0. -1.
</event>
<event>
 8    1  0.1097777E+005  0.1043930E+01  0.7957747E-01            NaN
         13   -1    0    0    0    0  0.00000000000E+00  0.00000000000E+00  0.74505805969E-08  0.10566000000E+00  0.10566000000E+00 0. -1.
     999900   -1    0    0    0    0 -0.00000000000E+00 -0.00000000000E+00 -0.74505805969E-08  0.93827000000E+00  0.93827000000E+00 0.  1.
     999902    2    1    2    0    0 -0.21790818084E-01 -0.51701011391E-02 -0.11872593186E-01  0.10185818607E+01  0.10182664085E+01 0.  0.
     999903    2    3    3    0    0 -0.81384338604E-01  0.93255465791E-01  0.34707398485E-01  0.12987005387E+00  0.18483368574E-01 0.  0.
         14    1    1    2    0    0  0.21790818084E-01  0.51701011391E-02  0.11872593186E-01  0.25348139330E-01  0.00000000000E+00 0.  1.
     999901    1    3    3    0    0  0.59593520520E-01 -0.98425566930E-01 -0.46579991671E-01  0.88871180680E+00  0.88000000000E+00 0.  1.
        -11    1    4    4    0    0 -0.30747450140E-01  0.35957426547E-01  0.22653345096E-01  0.52457386315E-01  0.51100000000E-03 0. -1.
         11    1    4    4    0    0 -0.50636888464E-01  0.57298039244E-01  0.12054053390E-01  0.77412667559E-01  0.51100000000E-03 0.  1.
</event>
<event>
 8    1  0.1097777E+005  0.1043930E+01  0.7957747E-01            NaN
         13   -1    0    0    0    0  0.00000000000E+00  0.00000000000E+00  0.74505805969E-08  0.10566000000E+00  0.10566000000E+00 0. -1.
     999900   -1    0    0    0    0 -0.00000000000E+00 -0.00000000000E+00 -0.74505805969E-08  0.93827000000E+00  0.93827000000E+00 0. -1.
     999902    2    1    2    0    0  0.18100899517E-01 -0.16856396364E-01 -0.11893431354E-02  0.10191672215E+01  0.10188663456E+01 0.  0.
     999903    2    3    3    0    0  0.75083035334E-01 -0.87287053102E-01  0.61929695796E-01  0.13226730929E+00  0.20071423748E-01 0.  0.
         14    1    1    2    0    0 -0.18100899517E-01  0.16856396364E-01  0.11893431354E-02  0.24762778496E-01  0.00000000000E+00 0. -1.
     999901    1    3    3    0    0 -0.56982135817E-01  0.70430656738E-01 -0.63119038931E-01  0.88689991221E+00  0.88000000000E+00 0.  1.
        -11    1    4    4    0    0  0.45137490852E-01 -0.47757613954E-01  0.45859703234E-01  0.80134613449E-01  0.51100000000E-03 0. -1.
         11    1    4    4    0    0  0.29945544482E-01 -0.39529439148E-01  0.16069992562E-01  0.52132695840E-01  0.51100000000E-03 0.  1.
</event>
<event>
 8    1  0.1097777E+005  0.1043930E+01  0.7957747E-01            NaN
         13   -1    0    0    0    0  0.00000000000E+00  0.00000000000E+00  0.74505805969E-08  0.10566000000E+00  0.10566000000E+00 0.  1.
     999900   -1    0    0    0    0 -0.00000000000E+00 -0.00000000000E+00 -0.74505805969E-08  0.93827000000E+00  0.93827000000E+00 0. -1.
     999902    2    1    2    0    0 -0.94288626958E-02 -0.13418480589E-01  0.18259308855E-01  0.10193869474E+01  0.10190914517E+01 0.  0.
     999903    2    3    3    0    0 -0.66574596769E-01  0.12928668436E-01  0.11152722385E+00  0.13222365283E+00  0.21105575260E-01 0.  0.
         14    1    1    2    0    0  0.94288626958E-02  0.13418480589E-01 -0.18259308855E-01  0.24543052641E-01  0.00000000000E+00 0. -1.
     999901    1    3    3    0    0  0.57145734074E-01 -0.26347149025E-01 -0.93267914994E-01  0.88716329452E+00  0.88000000000E+00 0. -1.
        -11    1    4    4    0    0 -0.10301365685E-01 -0.56012353299E-02  0.20174074992E-01  0.23339802805E-01  0.51100000000E-03 0.  1.
         11    1    4    4    0    0 -0.56273231085E-01  0.18529903766E-01  0.91353148857E-01  0.10888385003E+00  0.51100000000E-03 0. -1.
</event>
<event>
 8    1  0.1097777E+005  0.1043930E+01  0.7957747E-01            NaN
         13   -1    0    0    0    0  0.00000000000E+00  0.00000000000E+00  0.74505805969E-08  0.10566000000E+00  0.10566000000E+00 0.  1.
     999900   -1    0    0    0    0 -0.00000000000E+00 -0.00000000000E+00 -0.74505805969E-08  0.93827000000E+00  0.93827000000E+00 0. -1.
     999902    2    1    2    0    0  0.49014245260E-02  0.50074419602E-02  0.16793108006E-01  0.10257336566E+01  0.10255722438E+01 0.  0.
     999903    2    3    3    0    0  0.57918809290E-01 -0.10024219575E+00 -0.64716424938E-01  0.13414399015E+00  0.20082533667E-01 0.  0.
         14    1    1    2    0    0 -0.49014245260E-02 -0.50074419602E-02 -0.16793108006E-01  0.18196343420E-01  0.00000000000E+00 0. -1.
     999901    1    3    3    0    0 -0.53017384764E-01  0.10524963771E+00  0.81509532944E-01  0.89158966643E+00  0.88000000000E+00 0.  1.
        -11    1    4    4    0    0  0.54757675482E-01 -0.82019265465E-01 -0.50413556505E-01  0.11075807299E+00  0.51100000000E-03 0.  1.
         11    1    4    4    0    0  0.31611338080E-02 -0.18222930284E-01 -0.14302868433E-01  0.23385917162E-01  0.51100000000E-03 0. -1.
</event>
<event>
 8    1  0.1097777E+005  0.1043930E+01  0.7957747E-01            NaN
         13   -1    0    0    0    0  0.00000000000E+00  0.00000000000E+00  0.74505805969E-08  0.10566000000E+00  0.10566000000E+00 0.  1.
     999900   -1    0    0    0    0 -0.00000000000E+00 -0.00000000000E+00 -0.74505805969E-08  0.93827000000E+00  0.93827000000E+00 0.  1.
     999902    2    1    2    0    0  0.12357537745E-01 -0.17090918118E-01  0.11114009403E-01  0.10200903392E+01  0.10198117330E+01 0.  0.
     999903    2    3    3    0    0  0.64695034647E-01  0.70967605502E-01 -0.84051705447E-01  0.12905160243E+00  0.19177548422E-01 0.  0.
         14    1    1    2    0    0 -0.12357537745E-01  0.17090918118E-01 -0.11114009403E-01  0.23839660783E-01  0.00000000000E+00 0.  1.
     999901    1    3    3    0    0 -0.52337496903E-01 -0.88058523621E-01  0.95165714851E-01  0.89103873678E+00  0.88000000000E+00 0. -1.
        -11    1    4    4    0    0  0.23572492512E-01  0.25776771689E-01 -0.18854056861E-01  0.39696863139E-01  0.51100000000E-03 0. -1.
         11    1    4    4    0    0  0.41122542135E-01  0.45190833814E-01 -0.65197648586E-01  0.89354739295E-01  0.51100000000E-03 0.  1.
</event>
<event>
 8    1  0.1097777E+005  0.1043930E+01  0.7957747E-01            NaN
         13   -1    0    0    0    0  0.00000000000E+00  0.00000000000E+00  0.74505805969E-08  0.10566000000E+00  0.10566000000E+00 0. -1.
     999900   -1    0    0    0    0 -0.00000000000E+00 -0.00000000000E+00 -0.74505805969E-08  0.93827000000E+00  0.93827000000E+00 0.  1.
     999902    2    1    2    0    0 -0.27089954728E-02  0.14957939544E-01 -0.17624085483E-01  0.10206558297E+01  0.10203904330E+01 0.  0.
     999903    2    3    3    0    0  0.18453269443E-01 -0.10194303557E+00 -0.77245671351E-01  0.13067357546E+00  0.19385147077E-01 0.  0.
         14    1    1    2    0    0  0.27089954728E-02 -0.14957939544E-01  0.17624085483E-01  0.23274170253E-01  0.00000000000E+00 0.  1.
     999901    1    3    3    0    0 -0.21162264916E-01  0.11690097511E+00  0.59621585869E-01  0.88998225428E+00  0.88000000000E+00 0. -1.
        -11    1    4    4    0    0  0.63317547678E-02 -0.80544788738E-01 -0.59728982239E-01  0.10047570130E+00  0.51100000000E-03 0.  1.
         11    1    4    4    0    0  0.12121514675E-01 -0.21398246833E-01 -0.17516689112E-01  0.30197874163E-01  0.51100000000E-03 0. -1.
</event>
<event>
 8    1  0.1097777E+005  0.1043930E+01  0.7957747E-01            NaN
         13   -1    0    0    0    0  0.00000000000E+00  0.00000000000E+00  0.74505805969E-08  0.10566000000E+00  0.10566000000E+00 0. -1.
     999900   -1    0    0    0    0 -0.00000000000E+00 -0.00000000000E+00 -0.74505805969E-08  0.93827000000E+00  0.93827000000E+00 0. -1.
     999902    2    1    2    0    0  0.76857159223E-02 -0.18793895992E-01  0.11722847801E-01  0.10204841919E+01  0.10202148205E+01 0.  0.
     999903    2    3    3    0    0  0.11140168940E+00  0.61244441163E-01  0.22804730558E-01  0.13071683655E+00  0.20139951504E-01 0.  0.
         14    1    1    2    0    0 -0.76857159223E-02  0.18793895992E-01 -0.11722847801E-01  0.23445808076E-01  0.00000000000E+00 0.  1.
     999901    1    3    3    0    0 -0.10371597348E+00 -0.80038337155E-01 -0.11081882757E-01  0.88976735538E+00  0.88000000000E+00 0. -1.
        -11    1    4    4    0    0  0.39579554467E-01  0.11354834923E-01  0.94833763656E-02  0.42257176387E-01  0.51100000000E-03 0.  1.
         11    1    4    4    0    0  0.71822134933E-01  0.49889606240E-01  0.13321354192E-01  0.88459660160E-01  0.51100000000E-03 0. -1.
</event>
<event>
 8    1  0.1097777E+005  0.1043930E+01  0.7957747E-01            NaN
         13   -1    0    0    0    0  0.00000000000E+00  0.00000000000E+00  0.74505805969E-08  0.10566000000E+00  0.10566000000E+00 0.  1.
     999900   -1    0    0    0    0 -0.00000000000E+00 -0.00000000000E+00 -0.74505805969E-08  0.93827000000E+00  0.93827000000E+00 0.  1.
     999902    2    1    2    0    0 -0.23135941936E-01  0.30928235813E-03  0.69892374777E-02  0.10197594207E+01  0.10194729320E+01 0.  0.
     999903    2    3    3    0    0  0.32203366975E-01 -0.10293462921E+00  0.69308081763E-01  0.12981257802E+00  0.20374014797E-01 0.  0.
         14    1    1    2    0    0  0.23135941936E-01 -0.30928235813E-03 -0.69892374777E-02  0.24170579334E-01  0.00000000000E+00 0.  1.
     999901    1    3    3    0    0 -0.55339308911E-01  0.10324391157E+00 -0.62318844285E-01  0.88994684265E+00  0.88000000000E+00 0.  1.
        -11    1    4    4    0    0  0.15955901742E-01 -0.27496552522E-01  0.27544123588E-01  0.42066507654E-01  0.51100000000E-03 0.  1.
         11    1    4    4    0    0  0.16247465233E-01 -0.75438076688E-01  0.41763958175E-01  0.87746070364E-01  0.51100000000E-03 0. -1.
</event>
<event>
 8    1  0.1097777E+005  0.1043930E+01  0.7957747E-01            NaN
         13   -1    0    0    0    0  0.00000000000E+00  0.00000000000E+00  0.74505805969E-08  0.10566000000E+00  0.10566000000E+00 0. -1.
     999900   -1    0    0    0    0 -0.00000000000E+00 -0.00000000000E+00 -0.74505805969E-08  0.93827000000E+00  0.93827000000E+00 0. -1.
     999902    2    1    2    0    0 -0.16669643873E-01  0.17444746109E-01  0.10236348215E-02  0.10197795544E+01  0.10194935486E+01 0.  0.
     999903    2    3    3    0    0 -0.12695093474E+00 -0.27990324287E-01 -0.54673167256E-02  0.13170948894E+00  0.20432812850E-01 0.  0.
         14    1    1    2    0    0  0.16669643873E-01 -0.17444746109E-01 -0.10236348215E-02  0.24150445584E-01  0.00000000000E+00 0. -1.
     999901    1    3    3    0    0  0.11028129087E+00  0.45435070396E-01  0.64909515471E-02  0.88807006547E+00  0.88000000000E+00 0. -1.
        -11    1    4    4    0    0 -0.50478031228E-01 -0.15770815909E-01 -0.11175753702E-01  0.54054684005E-01  0.51100000000E-03 0.  1.
         11    1    4    4    0    0 -0.76472903510E-01 -0.12219508378E-01  0.57084369765E-02  0.77654804938E-01  0.51100000000E-03 0. -1.
</event>
<event>
 8    1  0.1097777E+005  0.1043930E+01  0.7957747E-01            NaN
         13   -1    0    0    0    0  0.00000000000E+00  0.00000000000E+00  0.74505805969E-08  0.10566000000E+00  0.10566000000E+00 0. -1.
     999900   -1    0    0    0    0 -0.00000000000E+00 -0.00000000000E+00 -0.74505805969E-08  0.93827000000E+00  0.93827000000E+00 0. -1.
     999902    2    1    2    0    0 -0.10313568482E-01 -0.23194830423E-02  0.21112573603E-01  0.10203187641E+01  0.10200455333E+01 0.  0.
     999903    2    3    3    0    0 -0.11694169650E+00  0.56846280911E-01  0.12924165212E-01  0.13187225736E+00  0.17787585015E-01 0.  0.
         14    1    1    2    0    0  0.10313568482E-01  0.23194830423E-02 -0.21112573603E-01  0.23611235897E-01  0.00000000000E+00 0.  1.
     999901    1    3    3    0    0  0.10662812802E+00 -0.59165763954E-01  0.81884083917E-02  0.88844650674E+00  0.88000000000E+00 0.  1.
        -11    1    4    4    0    0 -0.85131207406E-01  0.49762710298E-01  0.11006656589E-01  0.99222262728E-01  0.51100000000E-03 0. -1.
         11    1    4    4    0    0 -0.31810489097E-01  0.70835706133E-02  0.19175086224E-02  0.32649994633E-01  0.51100000000E-03 0.  1.
</event>
<event>
 8    1  0.1097777E+005  0.1043930E+01  0.7957747E-01            NaN
         13   -1    0    0    0    0  0.00000000000E+00  0.00000000000E+00  0.74505805969E-08  0.10566000000E+00  0.10566000000E+00 0.  1.
     999900   -1    0    0    0    0 -0.00000000000E+00 -0.00000000000E+00 -0.74505805969E-08  0.93827000000E+00  0.93827000000E+00 0. -1.
     999902    2    1    2    0    0  0.21538770104E-01  0.10519728036E-01  0.10454910839E-01  0.10177787389E+01  0.10174427124E+01 0.  0.
     999903    2    3    3    0    0 -0.77602765267E-01 -0.78429574685E-01  0.58502376027E-01  0.12645972678E+00  0.19903445267E-01 0.  0.
         14    1    1    2    0    0 -0.21538770104E-01 -0.10519728036E-01 -0.10454910839E-01  0.26151261083E-01  0.00000000000E+00 0. -1.
     999901    1    3    3    0    0  0.99141535371E-01  0.88949302721E-01 -0.48047465188E-01  0.89131901214E+00  0.88000000000E+00 0.  1.
        -11    1    4    4    0    0 -0.32068172403E-01 -0.34027650757E-01  0.13917632235E-01  0.48787399042E-01  0.51100000000E-03 0. -1.
         11    1    4    4    0    0 -0.45534592865E-01 -0.44401923928E-01  0.44584743792E-01  0.77672327736E-01  0.51100000000E-03 0.  1.
</event>
<event>
 8    1  0.1097777E+005  0.1043930E+01  0.7957747E-01            NaN
         13   -1    0    0    0    0  0.00000000000E+00  0.00000000000E+00  0.74505805969E-08  0.10566000000E+00  0.10566000000E+00 0.  1.
     999900   -1    0    0    0    0 -0.00000000000E+00 -0.00000000000E+00 -0.74505805969E-08  0.93827000000E+00  0.93827000000E+00 0.  1.
     999902    2    1    2    0    0  0.44604481422E-04 -0.69585607462E-02 -0.22016631295E-01  0.10208398374E+01  0.10205786682E+01 0.  0.
     999903    2    3    3    0    0 -0.12130446740E+00  0.43629999761E-01 -0.10412520949E-01  0.13099746082E+00  0.20822186719E-01 0.  0.
         14    1    1    2    0    0 -0.44604481422E-04  0.69585607462E-02  0.22016631295E-01  0.23090162641E-01  0.00000000000E+00 0.  1.
     999901    1    3    3    0    0  0.12134907188E+00 -0.50588560508E-01 -0.11604110346E-01  0.88984237653E+00  0.88000000000E+00 0.  1.
        -11    1    4    4    0    0 -0.41083682235E-01  0.25030685367E-01 -0.65709060883E-02  0.48557616125E-01  0.51100000000E-03 0. -1.
         11    1    4    4    0    0 -0.80220785164E-01  0.18599314394E-01 -0.38416148603E-02  0.82439844699E-01  0.51100000000E-03 0.  1.
</event>
<event>
 8    1  0.1097777E+005  0.1043930E+01  0.7957747E-01            NaN
         13   -1    0    0    0    0  0.00000000000E+00  0.00000000000E+00  0.74505805969E-08  0.10566000000E+00  0.10566000000E+00 0. -1.
     999900   -1    0    0    0    0 -0.00000000000E+00 -0.00000000000E+00 -0.74505805969E-08  0.93827000000E+00  0.93827000000E+00 0.  1.
     999902    2    1    2    0    0  0.46214747349E-02  0.10195452040E-01 -0.21216281951E-01  0.10199417552E+01  0.10196596236E+01 0.  0.
     999903    2    3    3    0    0  0.69000609238E-01  0.42237516864E-01 -0.10386383278E+00  0.13314866512E+00  0.19894204103E-01 0.  0.
         14    1    1    2    0    0 -0.46214747349E-02 -0.10195452040E-01  0.21216281951E-01  0.23988244847E-01  0.00000000000E+00 0. -1.
     999901    1    3    3    0    0 -0.64379134503E-01 -0.32042064824E-01  0.82647550828E-01  0.88679309004E+00  0.88000000000E+00 0.  1.
        -11    1    4    4    0    0  0.39504482708E-01  0.16666631643E-01 -0.66391500879E-01  0.79034633385E-01  0.51100000000E-03 0.  1.
         11    1    4    4    0    0  0.29496126530E-01  0.25570885221E-01 -0.37472331900E-01  0.54114031732E-01  0.51100000000E-03 0. -1.
</event>
<event>
 7    1  0.1097777E+005  0.1043930E+01  0.7957747E-01            NaN
         13   -1    0    0    0    0  0.00000000000E+00  0.00000000000E+00  0.74505805969E-08  0.10566000000E+00  0.10566000000E+00 0. -1.
     999900   -1    0    0    0    0 -0.00000000000E+00 -0.00000000000E+00 -0.74505805969E-08  0.93827000000E+00  0.93827000000E+00 0. -1.
     999902    2    1    2    0    0  0.20008230404E-02  0.20470509809E-01  0.12313734224E-01  0.10199576594E+01  0.10196759063E+01 0.  0.
         14    1    1    2    0    0 -0.20008230404E-02 -0.20470509809E-01 -0.12313734224E-01  0.23972340629E-01  0.00000000000E+00 0.  1.
     999901    1    3    3    0    0 -0.30279174861E-01 -0.88786128639E-01  0.56020272110E-01  0.88675705577E+00  0.88000000000E+00 0.  1.
        -11    1    3    3    0    0  0.14683467426E-01  0.71847145612E-01 -0.53422874774E-01  0.90729715190E-01  0.51100000000E-03 0. -1.
         11    1    3    3    0    0  0.17596530475E-01  0.37409492836E-01  0.97163368881E-02  0.42470888412E-01  0.51100000000E-03 0.  1.
</event>
<event>
 8    1  0.1097777E+005  0.1043930E+01  0.7957747E-01            NaN
         13   -1    0    0    0    0  0.00000000000E+00  0.00000000000E+00  0.74505805969E-08  0.10566000000E+00  0.10566000000E+00 0. -1.
     999900   -1    0    0    0    0 -0.00000000000E+00 -0.00000000000E+00 -0.74505805969E-08  0.93827000000E+00  0.93827000000E+00 0. -1.
     999902    2    1    2    0    0 -0.15062870252E-01 -0.19239330395E-01 -0.40785468557E-02  0.10191575064E+01  0.10188563915E+01 0.  0.
     999903    2    3    3    0    0  0.10649547343E+00  0.61583333153E-01  0.23021077049E-01  0.12672088486E+00  0.19860007288E-01 0.  0.
         14    1    1    2    0    0  0.15062870252E-01  0.19239330395E-01  0.40785468557E-02  0.24772493591E-01  0.00000000000E+00 0.  1.
     999901    1    3    3    0    0 -0.12155834368E+00 -0.80822663548E-01 -0.27099623905E-01  0.89243662155E+00  0.88000000000E+00 0.  1.
        -11    1    4    4    0    0  0.20761573751E-01  0.21757375774E-01  0.56688513264E-02  0.30607570004E-01  0.51100000000E-03 0.  1.
         11    1    4    4    0    0  0.85733899674E-01  0.39825957379E-01  0.17352225723E-01  0.96113314858E-01  0.51100000000E-03 0. -1.
</event>
<event>
 8    1  0.1097777E+005  0.1043930E+01  0.7957747E-01            NaN
         13   -1    0    0    0    0  0.00000000000E+00  0.00000000000E+00  0.74505805969E-08  0.10566000000E+00  0.10566000000E+00 0. -1.
     999900   -1    0    0    0    0 -0.00000000000E+00 -0.00000000000E+00 -0.74505805969E-08  0.93827000000E+00  0.93827000000E+00 0. -1.
     999902    2    1    2    0    0 -0.12378329976E-01  0.94052334357E-02  0.16455770867E-01  0.10212921144E+01  0.10210411887E+01 0.  0.
     999903    2    3    3    0    0 -0.48034969369E-02  0.42580719239E-01 -0.12106455016E+00  0.12996174376E+00  0.19930837996E-01 0.  0.
         14    1    1    2    0    0  0.12378329976E-01 -0.94052334357E-02 -0.16455770867E-01  0.22637885586E-01  0.00000000000E+00 0.  1.
     999901    1    3    3    0    0 -0.75748330388E-02 -0.33175485803E-01  0.13752032102E+00  0.89133037065E+00  0.88000000000E+00 0.  1.
        -11    1    4    4    0    0 -0.89255155983E-02  0.76988365898E-02 -0.37553227021E-01  0.39362963484E-01  0.51100000000E-03 0. -1.
         11    1    4    4    0    0  0.41220186614E-02  0.34881882649E-01 -0.83511323135E-01  0.90598780277E-01  0.51100000000E-03 0.  1.
</event>
<event>
 8    1  0.1097777E+005  0.1043930E+01  0.7957747E-01            NaN
         13   -1    0    0    0    0  0.00000000000E+00  0.00000000000E+00  0.74505805969E-08  0.10566000000E+00  0.10566000000E+00 0. -1.
     999900   -1    0    0    0    0 -0.00000000000E+00 -0.00000000000E+00 -0.74505805969E-08  0.93827000000E+00  0.93827000000E+00 0.  1.
     999902    2    1    2    0    0  0.18465316774E-01  0.86233170831E-02  0.12619733627E-01  0.10199594514E+01  0.10196777410E+01 0.  0.
     999903    2    3    3    0    0 -0.58664453240E-01  0.85362311696E-01  0.77728483755E-01  0.13087170321E+00  0.18906167861E-01 0.  0.
         14    1    1    2    0    0 -0.18465316774E-01 -0.86233170831E-02 -0.12619733627E-01  0.23970548552E-01  0.00000000000E+00 0.  1.
     999901    1    3    3    0    0  0.77129770014E-01 -0.76738994613E-01 -0.65108750128E-01  0.88908774823E+00  0.88000000000E+00 0.  1.
        -11    1    4    4    0    0 -0.44818002024E-02  0.14286237734E-01  0.17796405942E-01  0.23262766540E-01  0.51100000000E-03 0. -1.
         11    1    4    4    0    0 -0.54182653038E-01  0.71076073962E-01  0.59932077813E-01  0.10760893667E+00  0.51100000000E-03 0.  1.
</event>
<event>
 8    1  0.1097777E+005  0.1043930E+01  0.7957747E-01            NaN
         13   -1    0    0    0    0  0.00000000000E+00  0.00000000000E+00  0.74505805969E-08  0.10566000000E+00  0.10566000000E+00 0. -1.
     999900   -1    0    0    0    0 -0.00000000000E+00 -0.00000000000E+00 -0.74505805969E-08  0.93827000000E+00  0.93827000000E+00 0. -1.
     999902    2    1    2    0    0 -0.16300384883E-01  0.16507373293E-01  0.24524986029E-03  0.10207296537E+01  0.10204659572E+01 0.  0.
     999903    2    3    3    0    0  0.67767882501E-01  0.86649817363E-01 -0.68913908802E-01  0.13125204002E+00  0.19424068423E-01 0.  0.
         14    1    1    2    0    0  0.16300384883E-01 -0.16507373293E-01 -0.24524986029E-03  0.23200346288E-01  0.00000000000E+00 0. -1.
     999901    1    3    3    0    0 -0.84068267384E-01 -0.70142444070E-01  0.69159158662E-01  0.88947761370E+00  0.88000000000E+00 0.  1.
        -11    1    4    4    0    0  0.60795308259E-01  0.69871993380E-01 -0.51004468521E-01  0.10573496061E+00  0.51100000000E-03 0. -1.
         11    1    4    4    0    0  0.69725742417E-02  0.16777823984E-01 -0.17909440281E-01  0.25517079405E-01  0.51100000000E-03 0.  1.
</event>
<event>
 8    1  0.1097777E+005  0.1043930E+01  0.7957747E-01            NaN
         13   -1    0    0    0    0  0.00000000000E+00  0.00000000000E+00  0.74505805969E-08  0.10566000000E+00  0.10566000000E+00 0.  1.
     999900   -1    0    0    0    0 -0.00000000000E+00 -0.00000000000E+00 -0.74505805969E-08  0.93827000000E+00  0.93827000000E+00 0.  1.
     999902    2    1    2    0    0  0.14830982432E-02  0.19524957874E-01  0.13472431135E-01  0.10201617447E+01  0.10198848245E+01 0.  0.
     999903    2    3    3    0    0  0.22060482331E-01 -0.35737785810E-02  0.12803988763E+00  0.13219627100E+00  0.24128913530E-01 0.  0.
         14    1    1    2    0    0 -0.14830982432E-02 -0.19524957874E-01 -0.13472431135E-01  0.23768255323E-01  0.00000000000E+00 0. -1.
     999901    1    3    3    0    0 -0.20577384088E-01  0.23098736456E-01 -0.11456745649E+00  0.88796547368E+00  0.88000000000E+00 0.  1.
        -11    1    4    4    0    0  0.78659222091E-03 -0.95843176805E-02  0.24568373420E-01  0.26388330114E-01  0.51100000000E-03 0. -1.
         11    1    4    4    0    0  0.21273890110E-01  0.60105390995E-02  0.10347151421E+00  0.10580794088E+00  0.51100000000E-03 0.  1.
</event>
<event>
 8    1  0.1097777E+005  0.1043930E+01  0.7957747E-01            NaN
         13   -1    0    0    0    0  0.00000000000E+00  0.00000000000E+00  0.74505805969E-08  0.10566000000E+00  0.10566000000E+00 0. -1.
     999900   -1    0    0    0    0 -0.00000000000E+00 -0.00000000000E+00 -0.74505805969E-08  0.93827000000E+00  0.93827000000E+00 0.  1.
     999902    2    1    2    0    0 -0.20807334081E-02  0.67158072400E-02  0.22596689091E-01  0.10202647961E+01  0.10199903001E+01 0.  0.
     999903    2    3    3    0    0  0.66216762458E-01  0.60137898178E-01 -0.90509560235E-01  0.12879887336E+00  0.19898312939E-01 0.  0.
         14    1    1    2    0    0  0.20807334081E-02 -0.67158072400E-02 -0.22596689091E-01  0.23665203913E-01  0.00000000000E+00 0.  1.
     999901    1    3    3    0    0 -0.68297495866E-01 -0.53422090938E-01  0.11310624933E+00  0.89146592272E+00  0.88000000000E+00 0. -1.
        -11    1    4    4    0    0  0.49124009024E-01  0.32202279656E-01 -0.54633336075E-01  0.80219808086E-01  0.51100000000E-03 0. -1.
         11    1    4    4    0    0  0.17092753434E-01  0.27935618522E-01 -0.35876224161E-01  0.48579065277E-01  0.51100000000E-03 0.  1.
</event>
<event>
 8    1  0.1097777E+005  0.1043930E+01  0.7957747E-01            NaN
         13   -1    0    0    0    0  0.00000000000E+00  0.00000000000E+00  0.74505805969E-08  0.10566000000E+00  0.10566000000E+00 0.  1.
     999900   -1    0    0    0    0 -0.00000000000E+00 -0.00000000000E+00 -0.74505805969E-08  0.93827000000E+00  0.93827000000E+00 0. -1.
     999902    2    1    2    0    0 -0.12569326486E-01 -0.53846710161E-02 -0.21876252446E-01  0.10181316847E+01  0.10178047820E+01 0.  0.
     999903    2    3    3    0    0 -0.39290155773E-01 -0.30708830298E-01  0.11265134984E+00  0.12714740229E+00  0.31454517800E-01 0.  0.
         14    1    1    2    0    0  0.12569326486E-01  0.53846710161E-02  0.21876252446E-01  0.25798315282E-01  0.00000000000E+00 0.  1.
     999901    1    3    3    0    0  0.26720829287E-01  0.25324159282E-01 -0.13452760228E+00  0.89098428243E+00  0.88000000000E+00 0. -1.
        -11    1    4    4    0    0 -0.40788028300E-01 -0.27218244591E-01  0.76991899974E-01  0.91282582533E-01  0.51100000000E-03 0. -1.
         11    1    4    4    0    0  0.14978725276E-02 -0.34905857065E-02  0.35659449862E-01  0.35864819756E-01  0.51100000000E-03 0.  1.
</event>
<event>
 8    1  0.1097777E+005  0.1043930E+01  0.7957747E-01            NaN
         13   -1    0    0    0    0  0.00000000000E+00  0.00000000000E+00  0.74505805969E-08  0.10566000000E+00  0.10566000000E+00 0. -1.
     999900   -1    0    0    0    0 -0.00000000000E+00 -0.00000000000E+00 -0.74505805969E-08  0.93827000000E+00  0.93827000000E+00 0. -1.
     999902    2    1    2    0    0 -0.15362744442E-01 -0.10847287541E-01  0.14926889668E-01  0.10199198022E+01  0.10196371479E+01 0.  0.
     999903    2    3    3    0    0 -0.10539639169E+00 -0.42914360093E-02 -0.74658754414E-01  0.13077716771E+00  0.20047996866E-01 0.  0.
         14    1    1    2    0    0  0.15362744442E-01  0.10847287541E-01 -0.14926889668E-01  0.24010197812E-01  0.00000000000E+00 0.  1.
     999901    1    3    3    0    0  0.90033647249E-01 -0.65558515314E-02  0.89585644082E-01  0.88914263448E+00  0.88000000000E+00 0.  1.
        -11    1    4    4    0    0 -0.49236355715E-01  0.75108120580E-02 -0.38413713341E-01  0.62900759261E-01  0.51100000000E-03 0. -1.
         11    1    4    4    0    0 -0.56160035976E-01 -0.11802248067E-01 -0.36245041073E-01  0.67876408447E-01  0.51100000000E-03 0.  1.
</event>
<event>
 8    1  0.1097777E+005  0.1043930E+01  0.7957747E-01            NaN
         13   -1    0    0    0    0  0.00000000000E+00  0.00000000000E+00  0.74505805969E-08  0.10566000000E+00  0.10566000000E+00 0.  1.
     999900   -1    0    0    0    0 -0.00000000000E+00 -0.00000000000E+00 -0.74505805969E-08  0.93827000000E+00  0.93827000000E+00 0.  1.
     999902    2    1    2    0    0 -0.50464155359E-03 -0.14236372822E-01  0.14269859588E-01  0.10237667198E+01  0.10235681408E+01 0.  0.
     999903    2    3    3    0    0  0.12624721898E+00 -0.13961889048E-01  0.33677169449E-01  0.13447331878E+00  0.28559185484E-01 0.  0.
         14    1    1    2    0    0  0.50464155359E-03  0.14236372822E-01 -0.14269859588E-01  0.20163280162E-01  0.00000000000E+00 0. -1.
     999901    1    3    3    0    0 -0.12675186053E+00 -0.27448377414E-03 -0.19407309861E-01  0.88929340106E+00  0.88000000000E+00 0.  1.
        -11    1    4    4    0    0  0.39006499176E-01  0.65496327773E-02  0.18133956320E-01  0.43514436229E-01  0.51100000000E-03 0. -1.
         11    1    4    4    0    0  0.87240719804E-01 -0.20511521825E-01  0.15543213129E-01  0.90958882551E-01  0.51100000000E-03 0.  1.
</event>
<event>
 8    1  0.1097777E+005  0.1043930E+01  0.7957747E-01            NaN
         13   -1    0    0    0    0  0.00000000000E+00  0.00000000000E+00  0.74505805969E-08  0.10566000000E+00  0.10566000000E+00 0.  1.
     999900   -1    0    0    0    0 -0.00000000000E+00 -0.00000000000E+00 -0.74505805969E-08  0.93827000000E+00  0.93827000000E+00 0.  1.
     999902    2    1    2    0    0 -0.71297440488E-02 -0.20787861841E-01  0.10593099270E-01  0.10195336437E+01  0.10192417124E+01 0.  0.
     999903    2    3    3    0    0 -0.27417872618E-01  0.29476969308E-01 -0.12139531516E+00  0.12804101725E+00  0.60867147343E-02 0.  0.
         14    1    1    2    0    0  0.71297440488E-02  0.20787861841E-01 -0.10593099270E-01  0.24396356332E-01  0.00000000000E+00 0. -1.
     999901    1    3    3    0    0  0.20288128569E-01 -0.50264831149E-01  0.13198841443E+00  0.89149262642E+00  0.88000000000E+00 0. -1.
        -11    1    4    4    0    0 -0.14515890737E-01  0.17798343754E-01 -0.60845367712E-01  0.65037773773E-01  0.51100000000E-03 0.  1.
         11    1    4    4    0    0 -0.12901981880E-01  0.11678625554E-01 -0.60549947453E-01  0.63003243478E-01  0.51100000000E-03 0. -1.
</event>
<event>
 8    1  0.1097777E+005  0.1043930E+01  0.7957747E-01            NaN
         13   -1    0    0    0    0  0.00000000000E+00  0.00000000000E+00  0.74505805969E-08  0.10566000000E+00  0.10566000000E+00 0.  1.
     999900   -1    0    0    0    0 -0.00000000000E+00 -0.00000000000E+00 -0.74505805969E-08  0.93827000000E+00  0.93827000000E+00 0. -1.
     999902    2    1    2    0    0 -0.78044676202E-02 -0.19585567129E-01 -0.11643991959E-01  0.10198450108E+01  0.10195605717E+01 0.  0.
     999903    2    3    3    0    0  0.49004555277E-01  0.88596631908E-01  0.74454790407E-01  0.12724002900E+00  0.19892197986E-01 0.  0.
         14    1    1    2    0    0  0.78044676202E-02  0.19585567129E-01  0.11643991959E-01  0.24084989170E-01  0.00000000000E+00 0.  1.
     999901    1    3    3    0    0 -0.56809022897E-01 -0.10818219904E+00 -0.86098782367E-01  0.89260498183E+00  0.88000000000E+00 0. -1.
        -11    1    4    4    0    0  0.42302464178E-01  0.59357857507E-01  0.56988978199E-01  0.92524907352E-01  0.51100000000E-03 0. -1.
         11    1    4    4    0    0  0.67020910984E-02  0.29238774402E-01  0.17465812209E-01  0.34715121643E-01  0.51100000000E-03 0.  1.
</event>
<event>
 8    1  0.1097777E+005  0.1043930E+01  0.7957747E-01            NaN
         13   -1    0    0    0    0  0.00000000000E+00  0.00000000000E+00  0.74505805969E-08  0.10566000000E+00  0.10566000000E+00 0.  1.
     999900   -1    0    0    0    0 -0.00000000000E+00 -0.00000000000E+00 -0.74505805969E-08  0.93827000000E+00  0.93827000000E+00 0.  1.
     999902    2    1    2    0    0 -0.57587382969E-03  0.21678728567E-01 -0.10216446519E-01  0.10199576267E+01  0.10196758728E+01 0.  0.
     999903    2    3    3    0    0 -0.92760784001E-01 -0.68936528936E-01  0.51765153449E-01  0.12835743529E+00  0.20956908470E-01 0.  0.
         14    1    1    2    0    0  0.57587382969E-03 -0.21678728567E-01  0.10216446519E-01  0.23972373316E-01  0.00000000000E+00 0.  1.
     999901    1    3    3    0    0  0.92184910172E-01  0.90615257503E-01 -0.61981599968E-01  0.89160019139E+00  0.88000000000E+00 0.  1.
        -11    1    4    4    0    0 -0.41379946340E-01 -0.40158970954E-01  0.33533731392E-01  0.66706934941E-01  0.51100000000E-03 0. -1.
         11    1    4    4    0    0 -0.51380837661E-01 -0.28777557983E-01  0.18231422057E-01  0.61650500350E-01  0.51100000000E-03 0.  1.
</event>
<event>
 8    1  0.1097777E+005  0.1043930E+01  0.7957747E-01            NaN
         13   -1    0    0    0    0  0.00000000000E+00  0.00000000000E+00  0.74505805969E-08  0.10566000000E+00  0.10566000000E+00 0.  1.
     999900   -1    0    0    0    0 -0.00000000000E+00 -0.00000000000E+00 -0.74505805969E-08  0.93827000000E+00  0.93827000000E+00 0. -1.
     999902    2    1    2    0    0 -0.16695156946E-01 -0.76806358267E-03 -0.16971153214E-01  0.10201111371E+01  0.10198330225E+01 0.  0.
     999903    2    3    3    0    0 -0.40320061767E-01  0.97101822783E-03  0.12112091901E+00  0.12902720116E+00  0.18737432054E-01 0.  0.
         14    1    1    2    0    0  0.16695156946E-01  0.76806358267E-03  0.16971153214E-01  0.23818862872E-01  0.00000000000E+00 0.  1.
     999901    1    3    3    0    0  0.23624904822E-01 -0.17390818105E-02 -0.13809207222E+00  0.89108393597E+00  0.88000000000E+00 0. -1.
        -11    1    4    4    0    0 -0.35689907147E-01 -0.52877282081E-02  0.90504253305E-01  0.97432081621E-01  0.51100000000E-03 0.  1.
         11    1    4    4    0    0 -0.46301546200E-02  0.62587464359E-02  0.30616665703E-01  0.31595119536E-01  0.51100000000E-03 0. -1.
</event>
<event>
 8    1  0.1097777E+005  0.1043930E+01  0.7957747E-01            NaN
         13   -1    0    0    0    0  0.00000000000E+00  0.00000000000E+00  0.74505805969E-08  0.10566000000E+00  0.10566000000E+00 0. -1.
     999900   -1    0    0    0    0 -0.00000000000E+00 -0.00000000000E+00 -0.74505805969E-08  0.93827000000E+00  0.93827000000E+00 0. -1.
     999902    2    1    2    0    0 -0.13088065479E-01 -0.10153821945E-01 -0.17170989499E-01  0.10200712398E+01  0.10197921817E+01 0.  0.
     999903    2    3    3    0    0  0.35541836040E-01 -0.10587712230E+00  0.62336458292E-01  0.12998739442E+00  0.23188392354E-01 0.  0.
         14    1    1    2    0    0  0.13088065479E-01  0.10153821945E-01  0.17170989499E-01  0.23858760204E-01  0.00000000000E+00 0. -1.
     999901    1    3    3    0    0 -0.48629901519E-01  0.95723300351E-01 -0.79507447791E-01  0.89008384538E+00  0.88000000000E+00 0. -1.
        -11    1    4    4    0    0  0.32375381735E-01 -0.60918021833E-01  0.37220830084E-01  0.78388915286E-01  0.51100000000E-03 0. -1.
         11    1    4    4    0    0  0.31664543053E-02 -0.44959100463E-01  0.25115628208E-01  0.51598479131E-01  0.51100000000E-03 0.  1.
</event>
<event>
 8    1  0.1097777E+005  0.1043930E+01  0.7957747E-01            NaN
         13   -1    0    0    0    0  0.00000000000E+00  0.00000000000E+00  0.74505805969E-08  0.10566000000E+00  0.10566000000E+00 0.  1.
     999900   -1    0    0    0    0 -0.00000000000E+00 -0.00000000000E+00 -0.74505805969E-08  0.93827000000E+00  0.93827000000E+00 0.  1.
     999902    2    1    2    0    0  0.25879880888E-02  0.16810840031E-01  0.17254308524E-01  0.10197016450E+01  0.10194137686E+01 0.  0.
     999903    2    3    3    0    0 -0.25196956144E-01 -0.52303079645E-01 -0.11134585075E+00  0.12724058812E+00  0.20537040864E-01 0.  0.
         14    1    1    2    0    0 -0.25879880888E-02 -0.16810840031E-01 -0.17254308524E-01  0.24228355032E-01  0.00000000000E+00 0. -1.
     999901    1    3    3    0    0  0.27784944233E-01  0.69113919676E-01  0.12860015927E+00  0.89246105684E+00  0.88000000000E+00 0. -1.
        -11    1    4    4    0    0 -0.22727832603E-01 -0.29563780877E-01 -0.81561726626E-01  0.89683598756E-01  0.51100000000E-03 0.  1.
         11    1    4    4    0    0 -0.24691235410E-02 -0.22739298768E-01 -0.29784124124E-01  0.37556989368E-01  0.51100000000E-03 0. -1.
</event>
<event>
 7    1  0.1453928E+005  0.1043930E+01  0.7957747E-01            NaN
         13   -1    0    0    0    0  0.00000000000E+00  0.00000000000E+00  0.74505805969E-08  0.10566000000E+00  0.10566000000E+00 0. -1.
     999900   -1    0    0    0    0 -0.00000000000E+00 -0.00000000000E+00 -0.74505805969E-08  0.93827000000E+00  0.93827000000E+00 0. -1.
     999903    2    1    2    0    0  0.22437314205E-01  0.57368653866E-01  0.63630425328E-01  0.90784934412E-01  0.19961908065E-01 0.  0.
         14    1    1    2    0    0 -0.27736892834E-01  0.44839615443E-01  0.32620797040E-01  0.62000344650E-01  0.00000000000E+00 0. -1.
     999901    1    1    2    0    0  0.52995786292E-02 -0.10220826931E+00 -0.96251222368E-01  0.89114472094E+00  0.88000000000E+00 0. -1.
        -11    1    3    3    0    0 -0.27299710037E-03  0.25839226343E-01  0.23715400826E-01  0.35077364536E-01  0.51100000000E-03 0.  1.
         11    1    3    3    0    0  0.22710311305E-01  0.31529427523E-01  0.39915024502E-01  0.55707569876E-01  0.51100000000E-03 0. -1.
</event>
<event>
 8    1  0.1097777E+005  0.1043930E+01  0.7957747E-01            NaN
         13   -1    0    0    0    0  0.00000000000E+00  0.00000000000E+00  0.74505805969E-08  0.10566000000E+00  0.10566000000E+00 0. -1.
     999900   -1    0    0    0    0 -0.00000000000E+00 -0.00000000000E+00 -0.74505805969E-08  0.93827000000E+00  0.93827000000E+00 0.  1.
     999902    2    1    2    0    0  0.90124706352E-02 -0.18237520690E-01 -0.59325666672E-02  0.10227397396E+01  0.10225201944E+01 0.  0.
     999903    2    3    3    0    0 -0.20097642754E-01  0.84236997244E-01 -0.97189302258E-01  0.13163019679E+00  0.19518229539E-01 0.  0.
         14    1    1    2    0    0 -0.90124706352E-02  0.18237520690E-01  0.59325666672E-02  0.21190260384E-01  0.00000000000E+00 0. -1.
     999901    1    3    3    0    0  0.29110113389E-01 -0.10247451793E+00  0.91256735591E-01  0.89110954283E+00  0.88000000000E+00 0. -1.
        -11    1    4    4    0    0 -0.15678552225E-01  0.28786166977E-01 -0.30404876887E-01  0.44712169133E-01  0.51100000000E-03 0. -1.
         11    1    4    4    0    0 -0.44190905290E-02  0.55450830266E-01 -0.66784425372E-01  0.86918027656E-01  0.51100000000E-03 0.  1.
</event>
<event>
 8    1  0.1097777E+005  0.1043930E+01  0.7957747E-01            NaN
         13   -1    0    0    0    0  0.00000000000E+00  0.00000000000E+00  0.74505805969E-08  0.10566000000E+00  0.10566000000E+00 0. -1.
     999900   -1    0    0    0    0 -0.00000000000E+00 -0.00000000000E+00 -0.74505805969E-08  0.93827000000E+00  0.93827000000E+00 0. -1.
     999902    2    1    2    0    0  0.10773150077E-01 -0.15457331863E-01  0.13811495071E-01  0.10205687657E+01  0.10203013566E+01 0.  0.
     999903    2    3    3    0    0 -0.81773941454E-01  0.20240939608E-01  0.98250731761E-01  0.13097935738E+00  0.20142309488E-01 0.  0.
         14    1    1    2    0    0 -0.10773150077E-01  0.15457331863E-01 -0.13811495071E-01  0.23361234278E-01  0.00000000000E+00 0.  1.
     999901    1    3    3    0    0  0.92547091531E-01 -0.35698271471E-01 -0.84439236690E-01  0.88958940834E+00  0.88000000000E+00 0. -1.
        -11    1    4    4    0    0 -0.37650850555E-01  0.14554217006E-02  0.33630903993E-01  0.50507461075E-01  0.51100000000E-03 0.  1.
         11    1    4    4    0    0 -0.44123090899E-01  0.18785517907E-01  0.64619827768E-01  0.80471896307E-01  0.51100000000E-03 0. -1.
</event>
<event>
 8    1  0.1097777E+005  0.1043930E+01  0.7957747E-01            NaN
         13   -1    0    0    0    0  0.00000000000E+00  0.00000000000E+00  0.74505805969E-08  0.10566000000E+00  0.10566000000E+00 0. -1.
     999900   -1    0    0    0    0 -0.00000000000E+00 -0.00000000000E+00 -0.74505805969E-08  0.93827000000E+00  0.93827000000E+00 0. -1.
     999902    2    1    2    0    0 -0.13491612275E-01  0.72837120230E-02 -0.15876692806E-01  0.10218586286E+01  0.10216202383E+01 0.  0.
     999903    2    3    3    0    0 -0.30707090959E-01  0.11113998017E+00 -0.65559667121E-01  0.13419264686E+00  0.20361136762E-01 0.  0.
         14    1    1    2    0    0  0.13491612275E-01 -0.72837120230E-02  0.15876692806E-01  0.22071371436E-01  0.00000000000E+00 0. -1.
     999901    1    3    3    0    0  0.17215478684E-01 -0.10385626815E+00  0.49682974315E-01  0.88766598171E+00  0.88000000000E+00 0.  1.
        -11    1    4    4    0    0 -0.17067345757E-01  0.90304326581E-01 -0.47721714565E-01  0.10355572825E+00  0.51100000000E-03 0.  1.
         11    1    4    4    0    0 -0.13639745202E-01  0.20835653590E-01 -0.17837952556E-01  0.30636918613E-01  0.51100000000E-03 0. -1.
</event>
<event>
 8    1  0.1097777E+005  0.1043930E+01  0.7957747E-01            NaN
         13   -1    0    0    0    0  0.00000000000E+00  0.00000000000E+00  0.74505805969E-08  0.10566000000E+00  0.10566000000E+00 0.  1.
     999900   -1    0    0    0    0 -0.00000000000E+00 -0.00000000000E+00 -0.74505805969E-08  0.93827000000E+00  0.93827000000E+00 0.  1.
     999902    2    1    2    0    0  0.57595012722E-02 -0.91159632930E-02 -0.21674742970E-01  0.10197211767E+01  0.10194337699E+01 0.  0.
     999903    2    3    3    0    0 -0.22986310389E-01 -0.83580575657E-01 -0.97821443488E-01  0.13283357382E+00  0.23698954307E-01 0.  0.
         14    1    1    2    0    0 -0.57595012722E-02  0.91159632930E-02  0.21674742970E-01  0.24208823277E-01  0.00000000000E+00 0.  1.
     999901    1    3    3    0    0  0.28745811661E-01  0.74464612364E-01  0.76146700518E-01  0.88688760290E+00  0.88000000000E+00 0. -1.
        -11    1    4    4    0    0 -0.10870101173E-01 -0.91109974946E-02 -0.19065023536E-01  0.23767743231E-01  0.51100000000E-03 0.  1.
         11    1    4    4    0    0 -0.12116209216E-01 -0.74469578163E-01 -0.78756419952E-01  0.10906583059E+00  0.51100000000E-03 0. -1.
</event>
<event>
 8    1  0.1097777E+005  0.1043930E+01  0.7957747E-01            NaN
         13   -1    0    0    0    0  0.00000000000E+00  0.00000000000E+00  0.74505805969E-08  0.10566000000E+00  0.10566000000E+00 0. -1.
     999900   -1    0    0    0    0 -0.00000000000E+00 -0.00000000000E+00 -0.74505805969E-08  0.93827000000E+00  0.93827000000E+00 0. -1.
     999902    2    1    2    0    0 -0.16891000008E-02  0.18202346478E-01  0.14987137403E-01  0.10202912022E+01  0.10200173256E+01 0.  0.
     999903    2    3    3    0    0  0.28814957881E-01  0.84629709134E-01  0.97197280683E-01  0.13344194793E+00  0.19156007664E-01 0.  0.
         14    1    1    2    0    0  0.16891000008E-02 -0.18202346478E-01 -0.14987137403E-01  0.23638797847E-01  0.00000000000E+00 0.  1.
     999901    1    3    3    0    0 -0.30504057882E-01 -0.66427362656E-01 -0.82210143280E-01  0.88684925422E+00  0.88000000000E+00 0. -1.
        -11    1    4    4    0    0  0.21009235984E-01  0.71771102536E-01  0.89187720472E-01  0.11639239563E+00  0.51100000000E-03 0.  1.
         11    1    4    4    0    0  0.78057218971E-02  0.12858606598E-01  0.80095602105E-02  0.17049552303E-01  0.51100000000E-03 0. -1.
</event>
<event>
 8    1  0.1097777E+005  0.1043930E+01  0.7957747E-01            NaN
         13   -1    0    0    0    0  0.00000000000E+00  0.00000000000E+00  0.74505805969E-08  0.10566000000E+00  0.10566000000E+00 0. -1.
     999900   -1    0    0    0    0 -0.00000000000E+00 -0.00000000000E+00 -0.74505805969E-08  0.93827000000E+00  0.93827000000E+00 0.  1.
     999902    2    1    2    0    0 -0.40486586772E-02  0.98689632882E-02  0.20756224598E-01  0.10205931422E+01  0.10203262973E+01 0.  0.
     999903    2    3    3    0    0  0.12116784113E+00 -0.40186383489E-01  0.48506288346E-04  0.13008007705E+00  0.24984654310E-01 0.  0.
         14    1    1    2    0    0  0.40486586772E-02 -0.98689632882E-02 -0.20756224598E-01  0.23336857823E-01  0.00000000000E+00 0.  1.
     999901    1    3    3    0    0 -0.12521649980E+00  0.50055346777E-01  0.20707718310E-01  0.89051306513E+00  0.88000000000E+00 0.  1.
        -11    1    4    4    0    0  0.27135613806E-01  0.16689500133E-03 -0.51348423247E-02  0.27622402453E-01  0.51100000000E-03 0.  1.
         11    1    4    4    0    0  0.94032227321E-01 -0.40353278490E-01  0.51833486130E-02  0.10245767460E+00  0.51100000000E-03 0. -1.
</event>
<event>
 8    1  0.1460246E+005  0.1043930E+01  0.7957747E-01            NaN
         13   -1    0    0    0    0  0.00000000000E+00  0.00000000000E+00  0.74505805969E-08  0.10566000000E+00  0.10566000000E+00 0. -1.
     999900   -1    0    0    0    0 -0.00000000000E+00 -0.00000000000E+00 -0.74505805969E-08  0.93827000000E+00  0.93827000000E+00 0.  1.
     999902    2    1    2    0    0  0.10659657665E-01  0.19376333352E-01  0.79038784650E-02  0.10204450710E+01  0.10201747894E+01 0.  0.
     999903    2    3    3    0    0 -0.35450777966E-01  0.10298498713E+00  0.73328464218E-01  0.13286580373E+00  0.20336983588E-01 0.  0.
         14    1    1    2    0    0 -0.10659657665E-01 -0.19376333352E-01 -0.79038784650E-02  0.23484929008E-01  0.00000000000E+00 0.  1.
     999901    1    3    3    0    0  0.46110435631E-01 -0.83608653783E-01 -0.65424585753E-01  0.88757926727E+00  0.88000000000E+00 0.  1.
        -11    1    4    4    0    0 -0.32566112002E-01  0.65145855817E-01  0.49129117170E-01  0.87854797570E-01  0.51100000000E-03 0. -1.
         11    1    4    4    0    0 -0.28846659639E-02  0.37839131318E-01  0.24199347048E-01  0.45011006156E-01  0.51100000000E-03 0.  1.
</event>
<event>
 8    1  0.1097777E+005  0.1043930E+01  0.7957747E-01            NaN
         13   -1    0    0    0    0  0.00000000000E+00  0.00000000000E+00  0.74505805969E-08  0.10566000000E+00  0.10566000000E+00 0. -1.
     999900   -1    0    0    0    0 -0.00000000000E+00 -0.00000000000E+00 -0.74505805969E-08  0.93827000000E+00  0.93827000000E+00 0. -1.
     999902    2    1    2    0    0 -0.12809321542E-02 -0.11893343499E-02 -0.23506171576E-01  0.10203589286E+01  0.10200866374E+01 0.  0.
     999903    2    3    3    0    0  0.10829989310E+00 -0.69030793476E-01 -0.16661434885E-01  0.13094492421E+00  0.19361107170E-01 0.  0.
         14    1    1    2    0    0  0.12809321542E-02  0.11893343499E-02  0.23506171576E-01  0.23571071370E-01  0.00000000000E+00 0. -1.
     999901    1    3    3    0    0 -0.10958082525E+00  0.67841459126E-01 -0.68447366916E-02  0.88941400442E+00  0.88000000000E+00 0.  1.
        -11    1    4    4    0    0  0.78736242001E-01 -0.58969083527E-01 -0.16277632898E-01  0.99709433206E-01  0.51100000000E-03 0.  1.
         11    1    4    4    0    0  0.29563651096E-01 -0.10061709949E-01 -0.38380198624E-03  0.31235491003E-01  0.51100000000E-03 0. -1.
</event>
<event>
 8    1  0.1097777E+005  0.1043930E+01  0.7957747E-01            NaN
         13   -1    0    0    0    0  0.00000000000E+00  0.00000000000E+00  0.74505805969E-08  0.10566000000E+00  0.10566000000E+00 0. -1.
     999900   -1    0    0    0    0 -0.00000000000E+00 -0.00000000000E+00 -0.74505805969E-08  0.93827000000E+00  0.93827000000E+00 0. -1.
     999902    2    1    2    0    0 -0.21103428363E-01  0.54544868605E-02 -0.90370787351E-02  0.10203339218E+01  0.10200610457E+01 0.  0.
     999903    2    3    3    0    0  0.11168104194E+00 -0.50483653675E-01  0.29929852833E-01  0.12776503767E+00  0.20170630685E-01 0.  0.
         14    1    1    2    0    0  0.21103428363E-01 -0.54544868605E-02  0.90370787351E-02  0.23596078226E-01  0.00000000000E+00 0. -1.
     999901    1    3    3    0    0 -0.13278447030E+00  0.55938140536E-01 -0.38966931568E-01  0.89256888411E+00  0.88000000000E+00 0.  1.
        -11    1    4    4    0    0  0.57125814796E-01 -0.28401572360E-01  0.25619135755E-01  0.68750340119E-01  0.51100000000E-03 0.  1.
         11    1    4    4    0    0  0.54555227144E-01 -0.22082081315E-01  0.43107170772E-02  0.59014697548E-01  0.51100000000E-03 0. -1.
</event>
<event>
 8    1  0.1097777E+005  0.1043930E+01  0.7957747E-01            NaN
         13   -1    0    0    0    0  0.00000000000E+00  0.00000000000E+00  0.74505805969E-08  0.10566000000E+00  0.10566000000E+00 0. -1.
     999900   -1    0    0    0    0 -0.00000000000E+00 -0.00000000000E+00 -0.74505805969E-08  0.93827000000E+00  0.93827000000E+00 0. -1.
     999902    2    1    2    0    0  0.61915409673E-02 -0.96252936185E-02  0.21021697633E-01  0.10199948119E+01  0.10197139418E+01 0.  0.
     999903    2    3    3    0    0  0.17422897923E-01 -0.12753561877E+00  0.23028699408E-01  0.13205730500E+00  0.18436902672E-01 0.  0.
         14    1    1    2    0    0 -0.61915409673E-02  0.96252936185E-02 -0.21021697633E-01  0.23935188075E-01  0.00000000000E+00 0.  1.
     999901    1    3    3    0    0 -0.11231356956E-01  0.11791032515E+00 -0.20070017746E-02  0.88793750693E+00  0.88000000000E+00 0.  1.
        -11    1    4    4    0    0  0.81705602210E-02 -0.61145469739E-01  0.20383803548E-01  0.64971432891E-01  0.51100000000E-03 0.  1.
         11    1    4    4    0    0  0.92523377018E-02 -0.66390149028E-01  0.26448958599E-02  0.67085872104E-01  0.51100000000E-03 0. -1.
</event>
<event>
 8    1  0.1097777E+005  0.1043930E+01  0.7957747E-01            NaN
         13   -1    0    0    0    0  0.00000000000E+00  0.00000000000E+00  0.74505805969E-08  0.10566000000E+00  0.10566000000E+00 0. -1.
     999900   -1    0    0    0    0 -0.00000000000E+00 -0.00000000000E+00 -0.74505805969E-08  0.93827000000E+00  0.93827000000E+00 0. -1.
     999902    2    1    2    0    0 -0.38553884244E-03 -0.48545993204E-02 -0.22801619315E-01  0.10206141338E+01  0.10203477743E+01 0.  0.
     999903    2    3    3    0    0 -0.82584800548E-01 -0.67039194425E-01  0.70968733637E-01  0.12965031768E+00  0.21404225022E-01 0.  0.
         14    1    1    2    0    0  0.38553884244E-03  0.48545993204E-02  0.22801619315E-01  0.23315866232E-01  0.00000000000E+00 0. -1.
     999901    1    3    3    0    0  0.82199261706E-01  0.62184595105E-01 -0.93770352951E-01  0.89096381609E+00  0.88000000000E+00 0. -1.
        -11    1    4    4    0    0 -0.27771807853E-01 -0.15298282928E-01  0.11843308939E-01  0.33850197335E-01  0.51100000000E-03 0.  1.
         11    1    4    4    0    0 -0.54812992695E-01 -0.51740911497E-01  0.59125424698E-01  0.95800120341E-01  0.51100000000E-03 0. -1.
</event>
<event>
 8    1  0.1097777E+005  0.1043930E+01  0.7957747E-01            NaN
         13   -1    0    0    0    0  0.00000000000E+00  0.00000000000E+00  0.74505805969E-08  0.10566000000E+00  0.10566000000E+00 0.  1.
     999900   -1    0    0    0    0 -0.00000000000E+00 -0.00000000000E+00 -0.74505805969E-08  0.93827000000E+00  0.93827000000E+00 0.  1.
     999902    2    1    2    0    0 -0.21664577930E-01 -0.37384573382E-02 -0.51660984962E-02  0.10213464092E+01  0.10210966991E+01 0.  0.
     999903    2    3    3    0    0 -0.21471451261E-01  0.11172992401E+00  0.63002359087E-01  0.13118916297E+00  0.17224984516E-01 0.  0.
         14    1    1    2    0    0  0.21664577930E-01  0.37384573382E-02  0.51660984962E-02  0.22583590809E-01  0.00000000000E+00 0.  1.
     999901    1    3    3    0    0 -0.19312666894E-03 -0.11546838135E+00 -0.68168457583E-01  0.89015724622E+00  0.88000000000E+00 0.  1.
        -11    1    4    4    0    0 -0.53321711388E-02  0.62002494621E-01  0.40616600383E-01  0.74314942884E-01  0.51100000000E-03 0. -1.
         11    1    4    4    0    0 -0.16139280122E-01  0.49727429391E-01  0.22385758704E-01  0.56874220086E-01  0.51100000000E-03 0.  1.
</event>
<event>
 8    1  0.1097777E+005  0.1043930E+01  0.7957747E-01            NaN
         13   -1    0    0    0    0  0.00000000000E+00  0.00000000000E+00  0.74505805969E-08  0.10566000000E+00  0.10566000000E+00 0. -1.
     999900   -1    0    0    0    0 -0.00000000000E+00 -0.00000000000E+00 -0.74505805969E-08  0.93827000000E+00  0.93827000000E+00 0.  1.
     999902    2    1    2    0    0 -0.17532172780E-01 -0.71340008077E-02 -0.66002055187E-02  0.10238842084E+01  0.10236879595E+01 0.  0.
     999903    2    3    3    0    0 -0.75461883510E-01 -0.58286005212E-02 -0.10906068269E+00  0.13604655155E+00  0.29765134498E-01 0.  0.
         14    1    1    2    0    0  0.17532172780E-01  0.71340008077E-02  0.66002055187E-02  0.20045791648E-01  0.00000000000E+00 0.  1.
     999901    1    3    3    0    0  0.57929710730E-01 -0.13054002865E-02  0.10246047718E+00  0.88783765680E+00  0.88000000000E+00 0. -1.
        -11    1    4    4    0    0 -0.21007553701E-01 -0.11567674063E-01 -0.50298828414E-01  0.55725771924E-01  0.51100000000E-03 0. -1.
         11    1    4    4    0    0 -0.54454329809E-01  0.57390735416E-02 -0.58761854280E-01  0.80320779624E-01  0.51100000000E-03 0.  1.
</event>
<event>
 8    1  0.1097777E+005  0.1043930E+01  0.7957747E-01            NaN
         13   -1    0    0    0    0  0.00000000000E+00  0.00000000000E+00  0.74505805969E-08  0.10566000000E+00  0.10566000000E+00 0.  1.
     999900   -1    0    0    0    0 -0.00000000000E+00 -0.00000000000E+00 -0.74505805969E-08  0.93827000000E+00  0.93827000000E+00 0. -1.
     999902    2    1    2    0    0 -0.18531192607E-02  0.15683709332E-01  0.17660357756E-01  0.10202382076E+01  0.10199630872E+01 0.  0.
     999903    2    3    3    0    0  0.18271750073E-01  0.83567591992E-01  0.10043476984E+00  0.13352244980E+00  0.20584030868E-01 0.  0.
         14    1    1    2    0    0  0.18531192607E-02 -0.15683709332E-01 -0.17660357756E-01  0.23691792365E-01  0.00000000000E+00 0. -1.
     999901    1    3    3    0    0 -0.20124869334E-01 -0.67883882660E-01 -0.82774412084E-01  0.88671575783E+00  0.88000000000E+00 0. -1.
        -11    1    4    4    0    0  0.90115254008E-02  0.12725593216E-01  0.26185141288E-01  0.30480666955E-01  0.51100000000E-03 0.  1.
         11    1    4    4    0    0  0.92602246722E-02  0.70841998776E-01  0.74249628551E-01  0.10304178285E+00  0.51100000000E-03 0. -1.
</event>
<event>
 8    1  0.1097777E+005  0.1043930E+01  0.7957747E-01            NaN
         13   -1    0    0    0    0  0.00000000000E+00  0.00000000000E+00  0.74505805969E-08  0.10566000000E+00  0.10566000000E+00 0. -1.
     999900   -1    0    0    0    0 -0.00000000000E+00 -0.00000000000E+00 -0.74505805969E-08  0.93827000000E+00  0.93827000000E+00 0.  1.
     999902    2    1    2    0    0  0.73940752098E-02  0.16309787189E-01 -0.15364496251E-01  0.10203344654E+01  0.10200616021E+01 0.  0.
     999903    2    3    3    0    0  0.11491742921E+00 -0.48015233171E-01  0.32503902795E-01  0.13017135480E+00  0.19406178454E-01 0.  0.
         14    1    1    2    0    0 -0.73940752098E-02 -0.16309787189E-01  0.15364496251E-01  0.23595534565E-01  0.00000000000E+00 0. -1.
     999901    1    3    3    0    0 -0.10752335400E+00  0.64325020361E-01 -0.47868399046E-01  0.89016311063E+00  0.88000000000E+00 0.  1.
        -11    1    4    4    0    0  0.84386253089E-01 -0.26050390387E-01  0.25339188703E-01  0.91880346945E-01  0.51100000000E-03 0.  1.
         11    1    4    4    0    0  0.30531176120E-01 -0.21964842785E-01  0.71647140918E-02  0.38291007859E-01  0.51100000000E-03 0. -1.
</event>
<event>
 8    1  0.1097777E+005  0.1043930E+01  0.7957747E-01            NaN
         13   -1    0    0    0    0  0.00000000000E+00  0.00000000000E+00  0.74505805969E-08  0.10566000000E+00  0.10566000000E+00 0.  1.
     999900   -1    0    0    0    0 -0.00000000000E+00 -0.00000000000E+00 -0.74505805969E-08  0.93827000000E+00  0.93827000000E+00 0.  1.
     999902    2    1    2    0    0 -0.19985357374E-01  0.10164153785E-01 -0.52664372817E-03  0.10215022965E+01  0.10212560599E+01 0.  0.
     999903    2    3    3    0    0 -0.10967933936E+00  0.31813266624E-02 -0.73905100759E-01  0.13387728093E+00  0.20530078127E-01 0.  0.
         14    1    1    2    0    0  0.19985357374E-01 -0.10164153785E-01  0.52664372817E-03  0.22427703519E-01  0.00000000000E+00 0.  1.
     999901    1    3    3    0    0  0.89693981989E-01  0.69828271228E-02  0.73378457031E-01  0.88762501555E+00  0.88000000000E+00 0. -1.
        -11    1    4    4    0    0 -0.12078389766E-01 -0.52334681584E-02 -0.49254550849E-02  0.14064064743E-01  0.51100000000E-03 0.  1.
         11    1    4    4    0    0 -0.97600949597E-01  0.84147948208E-02 -0.68979645674E-01  0.11981321618E+00  0.51100000000E-03 0. -1.
</event>
<event>
 8    1  0.1097777E+005  0.1043930E+01  0.7957747E-01            NaN
         13   -1    0    0    0    0  0.00000000000E+00  0.00000000000E+00  0.74505805969E-08  0.10566000000E+00  0.10566000000E+00 0.  1.
     999900   -1    0    0    0    0 -0.00000000000E+00 -0.00000000000E+00 -0.74505805969E-08  0.93827000000E+00  0.93827000000E+00 0.  1.
     999902    2    1    2    0    0 -0.11427621526E-01  0.12282037345E-01 -0.18568518900E-01  0.10189054347E+01  0.10185980836E+01 0.  0.
     999903    2    3    3    0    0  0.35277277517E-01 -0.19855909371E-01 -0.12264634002E+00  0.13096039806E+00  0.21673894316E-01 0.  0.
         14    1    1    2    0    0  0.11427621526E-01 -0.12282037345E-01  0.18568518900E-01  0.25024565315E-01  0.00000000000E+00 0.  1.
     999901    1    3    3    0    0 -0.46704899044E-01  0.32137946716E-01  0.10407782112E+00  0.88794503662E+00  0.88000000000E+00 0. -1.
        -11    1    4    4    0    0  0.97369773631E-02 -0.47776745133E-02 -0.67259444338E-01  0.68130234665E-01  0.51100000000E-03 0.  1.
         11    1    4    4    0    0  0.25540300154E-01 -0.15078234858E-01 -0.55386895680E-01  0.62830163397E-01  0.51100000000E-03 0. -1.
</event>
<event>
 8    1  0.1097777E+005  0.1043930E+01  0.7957747E-01            NaN
         13   -1    0    0    0    0  0.00000000000E+00  0.00000000000E+00  0.74505805969E-08  0.10566000000E+00  0.10566000000E+00 0. -1.
     999900   -1    0    0    0    0 -0.00000000000E+00 -0.00000000000E+00 -0.74505805969E-08  0.93827000000E+00  0.93827000000E+00 0. -1.
     999902    2    1    2    0    0  0.87149706066E-02 -0.24864434454E-01 -0.13216742203E-02  0.10175493701E+01  0.10172073451E+01 0.  0.
     999903    2    3    3    0    0  0.14696780037E-02  0.12091570562E+00 -0.26056589664E-01  0.12518388465E+00  0.19216953235E-01 0.  0.
         14    1    1    2    0    0 -0.87149706066E-02  0.24864434454E-01  0.13216742203E-02  0.26380629942E-01  0.00000000000E+00 0. -1.
     999901    1    3    3    0    0  0.72452926029E-02 -0.14578014008E+00  0.24734915444E-01  0.89236548541E+00  0.88000000000E+00 0.  1.
        -11    1    4    4    0    0 -0.44334569046E-02  0.28886827722E-01 -0.13202572619E-01  0.32072938760E-01  0.51100000000E-03 0.  1.
         11    1    4    4    0    0  0.59031349083E-02  0.92028877900E-01 -0.12854017045E-01  0.93110945890E-01  0.51100000000E-03 0. -1.
</event>
<event>
 8    1  0.1097777E+005  0.1043930E+01  0.7957747E-01            NaN
         13   -1    0    0    0    0  0.00000000000E+00  0.00000000000E+00  0.74505805969E-08  0.10566000000E+00  0.10566000000E+00 0. -1.
     999900   -1    0    0    0    0 -0.00000000000E+00 -0.00000000000E+00 -0.74505805969E-08  0.93827000000E+00  0.93827000000E+00 0. -1.
     999902    2    1    2    0    0 -0.66618659530E-02  0.20667115553E-01  0.74301598686E-02  0.10209796754E+01  0.10207216958E+01 0.  0.
     999903    2    3    3    0    0 -0.62682615604E-01  0.76854597701E-01 -0.85582867645E-01  0.13252777416E+00  0.20085920516E-01 0.  0.
         14    1    1    2    0    0  0.66618659530E-02 -0.20667115553E-01 -0.74301598686E-02  0.22950324593E-01  0.00000000000E+00 0.  1.
     999901    1    3    3    0    0  0.56020749651E-01 -0.56187482148E-01  0.93013027513E-01  0.88845190125E+00  0.88000000000E+00 0.  1.
        -11    1    4    4    0    0 -0.41236253984E-01  0.47836994906E-01 -0.66473423575E-01  0.91693968651E-01  0.51100000000E-03 0. -1.
         11    1    4    4    0    0 -0.21446361620E-01  0.29017602795E-01 -0.19109444069E-01  0.40833805509E-01  0.51100000000E-03 0.  1.
</event>
<event>
 8    1  0.1097777E+005  0.1043930E+01  0.7957747E-01            NaN
         13   -1    0    0    0    0  0.00000000000E+00  0.00000000000E+00  0.74505805969E-08  0.10566000000E+00  0.10566000000E+00 0.  1.
     999900   -1    0    0    0    0 -0.00000000000E+00 -0.00000000000E+00 -0.74505805969E-08  0.93827000000E+00  0.93827000000E+00 0. -1.
     999902    2    1    2    0    0 -0.37423236719E-02 -0.35412280462E-02  0.23668635444E-01  0.10197070855E+01  0.10194193399E+01 0.  0.
     999903    2    3    3    0    0 -0.84145138290E-01  0.76911120580E-01  0.64523967508E-01  0.13144679080E+00  0.10917493426E-01 0.  0.
         14    1    1    2    0    0  0.37423236719E-02  0.35412280462E-02 -0.23668635444E-01  0.24222914488E-01  0.00000000000E+00 0. -1.
     999901    1    3    3    0    0  0.80402814618E-01 -0.80452348626E-01 -0.40855332065E-01  0.88826029471E+00  0.88000000000E+00 0. -1.
        -11    1    4    4    0    0 -0.13003137825E-01  0.17478310634E-01  0.11160034798E-01  0.24482247315E-01  0.51100000000E-03 0.  1.
         11    1    4    4    0    0 -0.71142000465E-01  0.59432809946E-01  0.53363932711E-01  0.10696454349E+00  0.51100000000E-03 0. -1.
</event>
<event>
 8    1  0.1097777E+005  0.1043930E+01  0.7957747E-01            NaN
         13   -1    0    0    0    0  0.00000000000E+00  0.00000000000E+00  0.74505805969E-08  0.10566000000E+00  0.10566000000E+00 0.  1.
     999900   -1    0    0    0    0 -0.00000000000E+00 -0.00000000000E+00 -0.74505805969E-08  0.93827000000E+00  0.93827000000E+00 0. -1.
     999902    2    1    2    0    0  0.11884506856E-01  0.21450063413E-01 -0.13204116294E-02  0.10193721049E+01  0.10190762474E+01 0.  0.
     999903    2    3    3    0    0  0.30985988333E-01  0.11332347619E+00  0.57660584301E-01  0.13241982411E+00  0.20197155882E-01 0.  0.
         14    1    1    2    0    0 -0.11884506856E-01 -0.21450063413E-01  0.13204116294E-02  0.24557895075E-01  0.00000000000E+00 0. -1.
     999901    1    3    3    0    0 -0.19101481477E-01 -0.91873412776E-01 -0.58980995930E-01  0.88695228082E+00  0.88000000000E+00 0.  1.
        -11    1    4    4    0    0  0.19893265326E-01  0.63988981723E-01  0.21958124926E-01  0.70517743572E-01  0.51100000000E-03 0. -1.
         11    1    4    4    0    0  0.11092723007E-01  0.49334494466E-01  0.35702459375E-01  0.61902080534E-01  0.51100000000E-03 0.  1.
</event>
<event>
 8    1  0.1097777E+005  0.1043930E+01  0.7957747E-01            NaN
         13   -1    0    0    0    0  0.00000000000E+00  0.00000000000E+00  0.74505805969E-08  0.10566000000E+00  0.10566000000E+00 0. -1.
     999900   -1    0    0    0    0 -0.00000000000E+00 -0.00000000000E+00 -0.74505805969E-08  0.93827000000E+00  0.93827000000E+00 0. -1.
     999902    2    1    2    0    0 -0.54447739008E-02  0.23618903178E-01 -0.35746169848E-03  0.10196890031E+01  0.10194008226E+01 0.  0.
     999903    2    3    3    0    0 -0.57383190179E-01  0.18587850649E-01  0.11414478978E+00  0.13073811801E+00  0.20617559488E-01 0.  0.
         14    1    1    2    0    0  0.54447739008E-02 -0.23618903178E-01  0.35746169848E-03  0.24240996865E-01  0.00000000000E+00 0.  1.
     999901    1    3    3    0    0  0.51938416278E-01  0.50310525286E-02 -0.11450225148E+00  0.88895088513E+00  0.88000000000E+00 0. -1.
        -11    1    4    4    0    0 -0.19413290106E-01 -0.33033717909E-02  0.40498202360E-01  0.45035026516E-01  0.51100000000E-03 0.  1.
         11    1    4    4    0    0 -0.37969900073E-01  0.21891222440E-01  0.73646587420E-01  0.85703091491E-01  0.51100000000E-03 0. -1.
</event>
<event>
 8    1  0.1097777E+005  0.1043930E+01  0.7957747E-01            NaN
         13   -1    0    0    0    0  0.00000000000E+00  0.00000000000E+00  0.74505805969E-08  0.10566000000E+00  0.10566000000E+00 0. -1.
     999900   -1    0    0    0    0 -0.00000000000E+00 -0.00000000000E+00 -0.74505805969E-08  0.93827000000E+00  0.93827000000E+00 0.  1.
     999902    2    1    2    0    0  0.20300124587E-01 -0.76912634920E-02  0.92293586538E-02  0.10203411964E+01  0.10200684906E+01 0.  0.
     999903    2    3    3    0    0 -0.31994792157E-01 -0.12279047465E+00 -0.23887694564E-01  0.13068995806E+00  0.20200886050E-01 0.  0.
         14    1    1    2    0    0 -0.20300124587E-01  0.76912634920E-02 -0.92293586538E-02  0.23588803563E-01  0.00000000000E+00 0. -1.
     999901    1    3    3    0    0  0.52294916744E-01  0.11509921116E+00  0.33117053218E-01  0.88965123837E+00  0.88000000000E+00 0.  1.
        -11    1    4    4    0    0 -0.11775022215E-01 -0.45827340079E-01 -0.18911960624E-01  0.50958018236E-01  0.51100000000E-03 0.  1.
         11    1    4    4    0    0 -0.20219769942E-01 -0.76963134571E-01 -0.49757339399E-02  0.79731939828E-01  0.51100000000E-03 0. -1.
</event>
<event>
 8    1  0.1097777E+005  0.1043930E+01  0.7957747E-01            NaN
         13   -1    0    0    0    0  0.00000000000E+00  0.00000000000E+00  0.74505805969E-08  0.10566000000E+00  0.10566000000E+00 0.  1.
     999900   -1    0    0    0    0 -0.00000000000E+00 -0.00000000000E+00 -0.74505805969E-08  0.93827000000E+00  0.93827000000E+00 0. -1.
     999902    2    1    2    0    0  0.35582209585E-02 -0.20812209448E-02  0.26363946796E-01  0.10172457330E+01  0.10168956835E+01 0.  0.
     999903    2    3    3    0    0 -0.77833855057E-01  0.25413163954E-01  0.10037776191E+00  0.12996975781E+00  0.10606835787E-01 0.  0.
         14    1    1    2    0    0 -0.35582209585E-02  0.20812209448E-02 -0.26363946796E-01  0.26684267044E-01  0.00000000000E+00 0. -1.
     999901    1    3    3    0    0  0.81392076015E-01 -0.27494384898E-01 -0.74013815110E-01  0.88727597514E+00  0.88000000000E+00 0. -1.
        -11    1    4    4    0    0 -0.52895012493E-01  0.21746295512E-01  0.65905398800E-01  0.87261483067E-01  0.51100000000E-03 0.  1.
         11    1    4    4    0    0 -0.24938842564E-01  0.36668684419E-02  0.34472363106E-01  0.42708274745E-01  0.51100000000E-03 0. -1.
</event>
<event>
 8    1  0.1097777E+005  0.1043930E+01  0.7957747E-01            NaN
         13   -1    0    0    0    0  0.00000000000E+00  0.00000000000E+00  0.74505805969E-08  0.10566000000E+00  0.10566000000E+00 0.  1.
     999900   -1    0    0    0    0 -0.00000000000E+00 -0.00000000000E+00 -0.74505805969E-08  0.93827000000E+00  0.93827000000E+00 0.  1.
     999902    2    1    2    0    0  0.20578523373E-01 -0.10097811261E-01  0.93621764699E-02  0.10191693101E+01  0.10188684856E+01 0.  0.
     999903    2    3    3    0    0  0.12993803065E+00 -0.49405329799E-02 -0.12047370695E-01  0.13212676993E+00  0.20100833721E-01 0.  0.
         14    1    1    2    0    0 -0.20578523373E-01  0.10097811261E-01 -0.93621764699E-02  0.24760689908E-01  0.00000000000E+00 0.  1.
     999901    1    3    3    0    0 -0.10935950727E+00 -0.51572782815E-02  0.21409547165E-01  0.88704254016E+00  0.88000000000E+00 0. -1.
        -11    1    4    4    0    0  0.85072981536E-01 -0.25011283854E-02  0.17267302317E-02  0.85128788015E-01  0.51100000000E-03 0. -1.
         11    1    4    4    0    0  0.44865049111E-01 -0.24394045946E-02 -0.13774100927E-01  0.46997981913E-01  0.51100000000E-03 0.  1.
</event>
<event>
 8    1  0.1097777E+005  0.1043930E+01  0.7957747E-01            NaN
         13   -1    0    0    0    0  0.00000000000E+00  0.00000000000E+00  0.74505805969E-08  0.10566000000E+00  0.10566000000E+00 0.  1.
     999900   -1    0    0    0    0 -0.00000000000E+00 -0.00000000000E+00 -0.74505805969E-08  0.93827000000E+00  0.93827000000E+00 0.  1.
     999902    2    1    2    0    0  0.11867347487E-01  0.19001147720E-01  0.70533478008E-02  0.10204432534E+01  0.10201729295E+01 0.  0.
     999903    2    3    3    0    0  0.16278378188E-01 -0.12570302833E+00 -0.69687208696E-02  0.12850414439E+00  0.19962843636E-01 0.  0.
         14    1    1    2    0    0 -0.11867347487E-01 -0.19001147720E-01 -0.70533478008E-02  0.23486746609E-01  0.00000000000E+00 0. -1.
     999901    1    3    3    0    0 -0.44110307011E-02  0.14470417605E+00  0.14022068670E-01  0.89193910900E+00  0.88000000000E+00 0.  1.
        -11    1    4    4    0    0  0.38892797967E-02 -0.79410122618E-01  0.29585936699E-02  0.79561978790E-01  0.51100000000E-03 0.  1.
         11    1    4    4    0    0  0.12389098392E-01 -0.46292905715E-01 -0.99273145395E-02  0.48942165598E-01  0.51100000000E-03 0. -1.
</event>
<event>
 8    1  0.1097777E+005  0.1043930E+01  0.7957747E-01            NaN
         13   -1    0    0    0    0  0.00000000000E+00  0.00000000000E+00  0.74505805969E-08  0.10566000000E+00  0.10566000000E+00 0.  1.
     999900   -1    0    0    0    0 -0.00000000000E+00 -0.00000000000E+00 -0.74505805969E-08  0.93827000000E+00  0.93827000000E+00 0.  1.
     999902    2    1    2    0    0  0.82203034320E-02  0.32203908744E-03 -0.22410047893E-01  0.10200576867E+01  0.10197783077E+01 0.  0.
     999903    2    3    3    0    0 -0.29568977798E-01  0.38401825942E-01  0.11606283913E+00  0.12761562110E+00  0.21590262581E-01 0.  0.
         14    1    1    2    0    0 -0.82203034320E-02 -0.32203908744E-03  0.22410047893E-01  0.23872313341E-01  0.00000000000E+00 0.  1.
     999901    1    3    3    0    0  0.37789281230E-01 -0.38079786855E-01 -0.13847288702E+00  0.89244206556E+00  0.88000000000E+00 0.  1.
        -11    1    4    4    0    0 -0.11863732581E-01  0.14213541000E-02  0.23126795641E-01  0.26036094098E-01  0.51100000000E-03 0. -1.
         11    1    4    4    0    0 -0.17705245218E-01  0.36980471842E-01  0.92936043486E-01  0.10157952700E+00  0.51100000000E-03 0.  1.
</event>
<event>
 8    1  0.1097777E+005  0.1043930E+01  0.7957747E-01            NaN
         13   -1    0    0    0    0  0.00000000000E+00  0.00000000000E+00  0.74505805969E-08  0.10566000000E+00  0.10566000000E+00 0.  1.
     999900   -1    0    0    0    0 -0.00000000000E+00 -0.00000000000E+00 -0.74505805969E-08  0.93827000000E+00  0.93827000000E+00 0. -1.
     999902    2    1    2    0    0 -0.21581866910E-01 -0.45407655232E-02 -0.10295103813E-01  0.10195910458E+01  0.10193005032E+01 0.  0.
     999903    2    3    3    0    0  0.29029930983E-01  0.75456677245E-01  0.97252992769E-01  0.12800384419E+00  0.19758352415E-01 0.  0.
         14    1    1    2    0    0  0.21581866910E-01  0.45407655232E-02  0.10295103813E-01  0.24338954238E-01  0.00000000000E+00 0.  1.
     999901    1    3    3    0    0 -0.50611797894E-01 -0.79997442768E-01 -0.10754809658E+00  0.89158720158E+00  0.88000000000E+00 0.  1.
        -11    1    4    4    0    0  0.96163982772E-02  0.10566882367E-01  0.26148070719E-01  0.29801289269E-01  0.51100000000E-03 0.  1.
         11    1    4    4    0    0  0.19413532706E-01  0.64889794878E-01  0.71104922050E-01  0.98202554917E-01  0.51100000000E-03 0. -1.
</event>
<event>
 8    1  0.1097777E+005  0.1043930E+01  0.7957747E-01            NaN
         13   -1    0    0    0    0  0.00000000000E+00  0.00000000000E+00  0.74505805969E-08  0.10566000000E+00  0.10566000000E+00 0.  1.
     999900   -1    0    0    0    0 -0.00000000000E+00 -0.00000000000E+00 -0.74505805969E-08  0.93827000000E+00  0.93827000000E+00 0. -1.
     999902    2    1    2    0    0 -0.10138068440E-01 -0.20393969705E-01  0.58819964125E-02  0.10204078336E+01  0.10201366842E+01 0.  0.
     999903    2    3    3    0    0  0.92520205653E-02 -0.46603788356E-01 -0.12044205423E+00  0.13078954693E+00  0.18496058646E-01 0.  0.
         14    1    1    2    0    0  0.10138068440E-01  0.20393969705E-01 -0.58819964125E-02  0.23522166436E-01  0.00000000000E+00 0. -1.
     999901    1    3    3    0    0 -0.19390089006E-01  0.26209818650E-01  0.12632405064E+00  0.88961828664E+00  0.88000000000E+00 0.  1.
        -11    1    4    4    0    0  0.73370179624E-02 -0.14226336828E-01 -0.22515215790E-01  0.27629993761E-01  0.51100000000E-03 0. -1.
         11    1    4    4    0    0  0.19150026029E-02 -0.32377451528E-01 -0.97926838438E-01  0.10315955317E+00  0.51100000000E-03 0.  1.
</event>
<event>
 8    1  0.1097777E+005  0.1043930E+01  0.7957747E-01            NaN
         13   -1    0    0    0    0  0.00000000000E+00  0.00000000000E+00  0.74505805969E-08  0.10566000000E+00  0.10566000000E+00 0. -1.
     999900   -1    0    0    0    0 -0.00000000000E+00 -0.00000000000E+00 -0.74505805969E-08  0.93827000000E+00  0.93827000000E+00 0.  1.
     999902    2    1    2    0    0  0.29804162258E-02 -0.17745841278E-01 -0.12800825023E-01  0.10218470001E+01  0.10216083558E+01 0.  0.
     999903    2    3    3    0    0 -0.53312750346E-01  0.30618656666E-01  0.11260008286E+00  0.12986413425E+00  0.20153491456E-01 0.  0.
         14    1    1    2    0    0 -0.29804162258E-02  0.17745841278E-01  0.12800825023E-01  0.22082999905E-01  0.00000000000E+00 0. -1.
     999901    1    3    3    0    0  0.56293166572E-01 -0.48364497944E-01 -0.12540090789E+00  0.89198286585E+00  0.88000000000E+00 0.  1.
        -11    1    4    4    0    0 -0.32639522414E-01  0.25241904900E-01  0.88554337551E-01  0.97696591581E-01  0.51100000000E-03 0.  1.
         11    1    4    4    0    0 -0.20673227932E-01  0.53767517658E-02  0.24045745313E-01  0.32167542668E-01  0.51100000000E-03 0. -1.
</event>
<event>
 8    1  0.1097777E+005  0.1043930E+01  0.7957747E-01            NaN
         13   -1    0    0    0    0  0.00000000000E+00  0.00000000000E+00  0.74505805969E-08  0.10566000000E+00  0.10566000000E+00 0. -1.
     999900   -1    0    0    0    0 -0.00000000000E+00 -0.00000000000E+00 -0.74505805969E-08  0.93827000000E+00  0.93827000000E+00 0.  1.
     999902    2    1    2    0    0  0.19244915106E-01  0.14017398146E-01  0.47074554662E-02  0.10196603823E+01  0.10193715127E+01 0.  0.
     999903    2    3    3    0    0  0.22859179510E-01 -0.11120313915E+00 -0.57047772683E-01  0.12864581781E+00  0.20164766963E-01 0.  0.
         14    1    1    2    0    0 -0.19244915106E-01 -0.14017398146E-01 -0.47074554662E-02  0.24269617739E-01  0.00000000000E+00 0.  1.
     999901    1    3    3    0    0 -0.36142644045E-02  0.12522053729E+00  0.61755228149E-01  0.89101456446E+00  0.88000000000E+00 0. -1.
        -11    1    4    4    0    0  0.22294805909E-01 -0.61086572586E-01 -0.28922260859E-01  0.71171525310E-01  0.51100000000E-03 0. -1.
         11    1    4    4    0    0  0.56437360144E-03 -0.50116566563E-01 -0.28125511824E-01  0.57474292496E-01  0.51100000000E-03 0.  1.
</event>
<event>
 8    1  0.1097777E+005  0.1043930E+01  0.7957747E-01            NaN
         13   -1    0    0    0    0  0.00000000000E+00  0.00000000000E+00  0.74505805969E-08  0.10566000000E+00  0.10566000000E+00 0.  1.
     999900   -1    0    0    0    0 -0.00000000000E+00 -0.00000000000E+00 -0.74505805969E-08  0.93827000000E+00  0.93827000000E+00 0. -1.
     999902    2    1    2    0    0  0.45040940339E-02  0.93023092458E-02 -0.21787306308E-01  0.10198155534E+01  0.10195304097E+01 0.  0.
     999903    2    3    3    0    0  0.25618422453E-01  0.11745054833E+00 -0.51235597499E-01  0.13245482720E+00  0.21639314363E-01 0.  0.
         14    1    1    2    0    0 -0.45040940339E-02 -0.93023092458E-02  0.21787306308E-01  0.24114446635E-01  0.00000000000E+00 0.  1.
     999901    1    3    3    0    0 -0.21114328420E-01 -0.10814823908E+00  0.29448291191E-01  0.88736072616E+00  0.88000000000E+00 0.  1.
        -11    1    4    4    0    0  0.18096598402E-01  0.43267896171E-01 -0.13067312893E-01  0.48688946384E-01  0.51100000000E-03 0. -1.
         11    1    4    4    0    0  0.75218240512E-02  0.74182652159E-01 -0.38168284606E-01  0.83765880818E-01  0.51100000000E-03 0.  1.
</event>
<event>
 8    1  0.1097777E+005  0.1043930E+01  0.7957747E-01            NaN
         13   -1    0    0    0    0  0.00000000000E+00  0.00000000000E+00  0.74505805969E-08  0.10566000000E+00  0.10566000000E+00 0. -1.
     999900   -1    0    0    0    0 -0.00000000000E+00 -0.00000000000E+00 -0.74505805969E-08  0.93827000000E+00  0.93827000000E+00 0. -1.
     999902    2    1    2    0    0  0.50939628614E-03  0.19960789093E-01 -0.12962662522E-01  0.10201240510E+01  0.10198462415E+01 0.  0.
     999903    2    3    3    0    0  0.73003440035E-01  0.10359520281E+00 -0.34737094649E-01  0.13292383270E+00  0.20015275536E-01 0.  0.
         14    1    1    2    0    0 -0.50939628614E-03 -0.19960789093E-01  0.12962662522E-01  0.23805948951E-01  0.00000000000E+00 0. -1.
     999901    1    3    3    0    0 -0.72494043749E-01 -0.83634413713E-01  0.21774432126E-01  0.88720021834E+00  0.88000000000E+00 0.  1.
        -11    1    4    4    0    0  0.29115503525E-01  0.33902424212E-01 -0.21169035592E-01  0.49451755296E-01  0.51100000000E-03 0. -1.
         11    1    4    4    0    0  0.43887936510E-01  0.69692778594E-01 -0.13568059057E-01  0.83472077408E-01  0.51100000000E-03 0.  1.
</event>
<event>
 8    1  0.1097777E+005  0.1043930E+01  0.7957747E-01            NaN
         13   -1    0    0    0    0  0.00000000000E+00  0.00000000000E+00  0.74505805969E-08  0.10566000000E+00  0.10566000000E+00 0. -1.
     999900   -1    0    0    0    0 -0.00000000000E+00 -0.00000000000E+00 -0.74505805969E-08  0.93827000000E+00  0.93827000000E+00 0. -1.
     999902    2    1    2    0    0  0.12799863918E-01  0.18335252483E-01  0.75483548543E-02  0.10203292445E+01  0.10200562590E+01 0.  0.
     999903    2    3    3    0    0 -0.54531361875E-01  0.57297545158E-01 -0.10143232989E+00  0.13020097066E+00  0.20176647506E-01 0.  0.
         14    1    1    2    0    0 -0.12799863918E-01 -0.18335252483E-01 -0.75483548543E-02  0.23600755516E-01  0.00000000000E+00 0.  1.
     999901    1    3    3    0    0  0.67331225792E-01 -0.38962292674E-01  0.10898068474E+00  0.89012827383E+00  0.88000000000E+00 0.  1.
        -11    1    4    4    0    0 -0.63803778397E-02  0.53614286514E-02 -0.28660160807E-02  0.88277577977E-02  0.51100000000E-03 0. -1.
         11    1    4    4    0    0 -0.48150984035E-01  0.51936116506E-01 -0.98566313808E-01  0.12137321286E+00  0.51100000000E-03 0.  1.
</event>
<event>
 8    1  0.1097777E+005  0.1043930E+01  0.7957747E-01            NaN
         13   -1    0    0    0    0  0.00000000000E+00  0.00000000000E+00  0.74505805969E-08  0.10566000000E+00  0.10566000000E+00 0. -1.
     999900   -1    0    0    0    0 -0.00000000000E+00 -0.00000000000E+00 -0.74505805969E-08  0.93827000000E+00  0.93827000000E+00 0.  1.
     999902    2    1    2    0    0  0.17308989524E-01 -0.63997234633E-02  0.15124499497E-01  0.10200698226E+01  0.10197907310E+01 0.  0.
     999903    2    3    3    0    0  0.74566469254E-01 -0.32814775355E-01 -0.99825750858E-01  0.13035653511E+00  0.19765573409E-01 0.  0.
         14    1    1    2    0    0 -0.17308989524E-01  0.63997234633E-02 -0.15124499497E-01  0.23860177362E-01  0.00000000000E+00 0. -1.
     999901    1    3    3    0    0 -0.57257479730E-01  0.26415051892E-01  0.11495025035E+00  0.88971328753E+00  0.88000000000E+00 0. -1.
        -11    1    4    4    0    0  0.18272328343E-01 -0.84949466497E-03 -0.29972526785E-01  0.35117134097E-01  0.51100000000E-03 0. -1.
         11    1    4    4    0    0  0.56294140910E-01 -0.31965280691E-01 -0.69853224073E-01  0.95239401010E-01  0.51100000000E-03 0.  1.
</event>
<event>
 8    1  0.1097777E+005  0.1043930E+01  0.7957747E-01            NaN
         13   -1    0    0    0    0  0.00000000000E+00  0.00000000000E+00  0.74505805969E-08  0.10566000000E+00  0.10566000000E+00 0.  1.
     999900   -1    0    0    0    0 -0.00000000000E+00 -0.00000000000E+00 -0.74505805969E-08  0.93827000000E+00  0.93827000000E+00 0. -1.
     999902    2    1    2    0    0  0.70117335893E-02 -0.21494231169E-01  0.75602328131E-02  0.10200904635E+01  0.10198118602E+01 0.  0.
     999903    2    3    3    0    0 -0.61925051955E-01  0.78704292799E-01  0.78131735475E-01  0.12892697590E+00  0.22102471829E-01 0.  0.
         14    1    1    2    0    0 -0.70117335893E-02  0.21494231169E-01 -0.75602328131E-02  0.23839536524E-01  0.00000000000E+00 0. -1.
     999901    1    3    3    0    0  0.68936785544E-01 -0.10019852397E+00 -0.70571502662E-01  0.89116348758E+00  0.88000000000E+00 0. -1.
        -11    1    4    4    0    0 -0.56988648249E-01  0.61740645862E-01  0.70471885032E-01  0.10966385495E+00  0.51100000000E-03 0.  1.
         11    1    4    4    0    0 -0.49364037058E-02  0.16963646937E-01  0.76598504435E-02  0.19263120951E-01  0.51100000000E-03 0. -1.
</event>
<event>
 8    1  0.1097777E+005  0.1043930E+01  0.7957747E-01            NaN
         13   -1    0    0    0    0  0.00000000000E+00  0.00000000000E+00  0.74505805969E-08  0.10566000000E+00  0.10566000000E+00 0.  1.
     999900   -1    0    0    0    0 -0.00000000000E+00 -0.00000000000E+00 -0.74505805969E-08  0.93827000000E+00  0.93827000000E+00 0.  1.
     999902    2    1    2    0    0 -0.18552990972E-01  0.65830226660E-02 -0.88389522436E-02  0.10223504556E+01  0.10221226821E+01 0.  0.
     999903    2    3    3    0    0 -0.66754109679E-01 -0.48046506903E-01 -0.10421617116E+00  0.13420376315E+00  0.19622989807E-01 0.  0.
         14    1    1    2    0    0  0.18552990972E-01 -0.65830226660E-02  0.88389522436E-02  0.21579544439E-01  0.00000000000E+00 0. -1.
     999901    1    3    3    0    0  0.48201118707E-01  0.54629529569E-01  0.95377218915E-01  0.88814669241E+00  0.88000000000E+00 0. -1.
        -11    1    4    4    0    0 -0.82098917144E-02 -0.12843018583E-01 -0.27755995971E-01  0.31670204951E-01  0.51100000000E-03 0. -1.
         11    1    4    4    0    0 -0.58544217965E-01 -0.35203488320E-01 -0.76460175188E-01  0.10253355820E+00  0.51100000000E-03 0.  1.
</event>
<event>
 8    1  0.1097777E+005  0.1043930E+01  0.7957747E-01            NaN
         13   -1    0    0    0    0  0.00000000000E+00  0.00000000000E+00  0.74505805969E-08  0.10566000000E+00  0.10566000000E+00 0. -1.
     999900   -1    0    0    0    0 -0.00000000000E+00 -0.00000000000E+00 -0.74505805969E-08  0.93827000000E+00  0.93827000000E+00 0.  1.
     999902    2    1    2    0    0 -0.16328055749E-01 -0.93732047292E-02  0.13442479975E-01  0.10207964175E+01  0.10205342539E+01 0.  0.
     999903    2    3    3    0    0  0.73119121023E-01 -0.79459324964E-01 -0.68983868501E-01  0.12966962259E+00  0.19880813023E-01 0.  0.
         14    1    1    2    0    0  0.16328055749E-01  0.93732047292E-02 -0.13442479975E-01  0.23133582501E-01  0.00000000000E+00 0.  1.
     999901    1    3    3    0    0 -0.89447176772E-01  0.70086120234E-01  0.82426348476E-01  0.89112679491E+00  0.88000000000E+00 0. -1.
        -11    1    4    4    0    0  0.24710323087E-01 -0.34098507556E-01 -0.17119345432E-01  0.45460327690E-01  0.51100000000E-03 0. -1.
         11    1    4    4    0    0  0.48408797936E-01 -0.45360817407E-01 -0.51864523069E-01  0.84209294900E-01  0.51100000000E-03 0.  1.
</event>
<event>
 8    1  0.1097777E+005  0.1043930E+01  0.7957747E-01            NaN
         13   -1    0    0    0    0  0.00000000000E+00  0.00000000000E+00  0.74505805969E-08  0.10566000000E+00  0.10566000000E+00 0. -1.
     999900   -1    0    0    0    0 -0.00000000000E+00 -0.00000000000E+00 -0.74505805969E-08  0.93827000000E+00  0.93827000000E+00 0.  1.
     999902    2    1    2    0    0 -0.92462320660E-02  0.21738400738E-01 -0.58531009448E-03  0.10202996496E+01  0.10200259710E+01 0.  0.
     999903    2    3    3    0    0 -0.16613238005E-01  0.11503954146E+00 -0.63067618706E-01  0.13313370424E+00  0.15393599308E-01 0.  0.
         14    1    1    2    0    0  0.92462320660E-02 -0.21738400738E-01  0.58531009448E-03  0.23630350441E-01  0.00000000000E+00 0.  1.
     999901    1    3    3    0    0  0.73670059392E-02 -0.93301140724E-01  0.62482308611E-01  0.88716594531E+00  0.88000000000E+00 0. -1.
        -11    1    4    4    0    0 -0.15394664006E-01  0.81233876519E-01 -0.51355083732E-01  0.97332133030E-01  0.51100000000E-03 0.  1.
         11    1    4    4    0    0 -0.12185739994E-02  0.33805664944E-01 -0.11712534974E-01  0.35801571214E-01  0.51100000000E-03 0. -1.
</event>
<event>
 8    1  0.1097777E+005  0.1043930E+01  0.7957747E-01            NaN
         13   -1    0    0    0    0  0.00000000000E+00  0.00000000000E+00  0.74505805969E-08  0.10566000000E+00  0.10566000000E+00 0.  1.
     999900   -1    0    0    0    0 -0.00000000000E+00 -0.00000000000E+00 -0.74505805969E-08  0.93827000000E+00  0.93827000000E+00 0.  1.
     999902    2    1    2    0    0 -0.40862327380E-02 -0.82575800497E-02  0.20982048273E-01  0.10210142570E+01  0.10207570631E+01 0.  0.
     999903    2    3    3    0    0 -0.49426257867E-01 -0.10888767815E+00 -0.50350186078E-01  0.13125562561E+00  0.19834732084E-01 0.  0.
         14    1    1    2    0    0  0.40862327380E-02  0.82575800497E-02 -0.20982048273E-01  0.22915742973E-01  0.00000000000E+00 0. -1.
     999901    1    3    3    0    0  0.45340025129E-01  0.10063009810E+00  0.71332234351E-01  0.88975863142E+00  0.88000000000E+00 0.  1.
        -11    1    4    4    0    0 -0.11600424237E-01 -0.44851902848E-01 -0.25218254709E-01  0.52749260877E-01  0.51100000000E-03 0.  1.
         11    1    4    4    0    0 -0.37825833630E-01 -0.64035775302E-01 -0.25131931368E-01  0.78506364733E-01  0.51100000000E-03 0. -1.
</event>
<event>
 7    1  0.1097777E+005  0.1043930E+01  0.7957747E-01            NaN
         13   -1    0    0    0    0  0.00000000000E+00  0.00000000000E+00  0.74505805969E-08  0.10566000000E+00  0.10566000000E+00 0. -1.
     999900   -1    0    0    0    0 -0.00000000000E+00 -0.00000000000E+00 -0.74505805969E-08  0.93827000000E+00  0.93827000000E+00 0. -1.
     999902    2    1    2    0    0  0.23492922789E-01 -0.21952016273E-02  0.24753803071E-02  0.10202052484E+01  0.10199293529E+01 0.  0.
         14    1    1    2    0    0 -0.23492922789E-01  0.21952016273E-02 -0.24753803071E-02  0.23724751611E-01  0.00000000000E+00 0. -1.
     999901    1    3    3    0    0  0.12592479470E-02 -0.89238995475E-01  0.90346567366E-01  0.88911623889E+00  0.88000000000E+00 0.  1.
        -11    1    3    3    0    0  0.73711565194E-02  0.27892975805E-01 -0.54244909428E-01  0.61442032580E-01  0.51100000000E-03 0. -1.
         11    1    3    3    0    0  0.14862518323E-01  0.59150818042E-01 -0.33626277631E-01  0.69646976921E-01  0.51100000000E-03 0.  1.
</event>
<event>
 8    1  0.1097777E+005  0.1043930E+01  0.7957747E-01            NaN
         13   -1    0    0    0    0  0.00000000000E+00  0.00000000000E+00  0.74505805969E-08  0.10566000000E+00  0.10566000000E+00 0. -1.
     999900   -1    0    0    0    0 -0.00000000000E+00 -0.00000000000E+00 -0.74505805969E-08  0.93827000000E+00  0.93827000000E+00 0.  1.
     999902    2    1    2    0    0  0.12401946785E-01 -0.13724109659E-01 -0.13952531853E-01  0.10207603514E+01  0.10204973603E+01 0.  0.
     999903    2    3    3    0    0 -0.72330329824E-01  0.66870313491E-01 -0.83404844445E-01  0.13031178836E+00  0.17929826255E-01 0.  0.
         14    1    1    2    0    0 -0.12401946785E-01  0.13724109659E-01  0.13952531853E-01  0.23169648575E-01  0.00000000000E+00 0. -1.
     999901    1    3    3    0    0  0.84732276608E-01 -0.80594423150E-01  0.69452312591E-01  0.89044856307E+00  0.88000000000E+00 0. -1.
        -11    1    4    4    0    0 -0.57750029998E-01  0.55127936674E-01 -0.57696407130E-01  0.98505288606E-01  0.51100000000E-03 0.  1.
         11    1    4    4    0    0 -0.14580299826E-01  0.11742376817E-01 -0.25708437315E-01  0.31806499752E-01  0.51100000000E-03 0. -1.
</event>
<event>
 8    1  0.1097777E+005  0.1043930E+01  0.7957747E-01            NaN
         13   -1    0    0    0    0  0.00000000000E+00  0.00000000000E+00  0.74505805969E-08  0.10566000000E+00  0.10566000000E+00 0. -1.
     999900   -1    0    0    0    0 -0.00000000000E+00 -0.00000000000E+00 -0.74505805969E-08  0.93827000000E+00  0.93827000000E+00 0.  1.
     999902    2    1    2    0    0  0.22434519187E-01 -0.89388332516E-02  0.26646631931E-02  0.10196336871E+01  0.10193441740E+01 0.  0.
     999903    2    3    3    0    0  0.71842845523E-01  0.92037636525E-01  0.56164760834E-01  0.13087067559E+00  0.18448099641E-01 0.  0.
         14    1    1    2    0    0 -0.22434519187E-01  0.89388332516E-02 -0.26646631931E-02  0.24296312910E-01  0.00000000000E+00 0.  1.
     999901    1    3    3    0    0 -0.49408326335E-01 -0.10097646978E+00 -0.53500097641E-01  0.88876301150E+00  0.88000000000E+00 0.  1.
        -11    1    4    4    0    0  0.28212169811E-01  0.33107345491E-01  0.11433238578E-01  0.44977804707E-01  0.51100000000E-03 0.  1.
         11    1    4    4    0    0  0.43630675712E-01  0.58930291034E-01  0.44731522256E-01  0.85892870885E-01  0.51100000000E-03 0. -1.
</event>
<event>
 8    1  0.1097777E+005  0.1043930E+01  0.7957747E-01            NaN
         13   -1    0    0    0    0  0.00000000000E+00  0.00000000000E+00  0.74505805969E-08  0.10566000000E+00  0.10566000000E+00 0. -1.
     999900   -1    0    0    0    0 -0.00000000000E+00 -0.00000000000E+00 -0.74505805969E-08  0.93827000000E+00  0.93827000000E+00 0.  1.
     999902    2    1    2    0    0 -0.13168062478E-01 -0.99298286135E-02 -0.18040869831E-01  0.10194867525E+01  0.10191936843E+01 0.  0.
     999903    2    3    3    0    0 -0.73421693927E-01  0.10429374070E+00 -0.33154266435E-03  0.12988507522E+00  0.24537590671E-01 0.  0.
         14    1    1    2    0    0  0.13168062478E-01  0.99298286135E-02  0.18040869831E-01  0.24443247533E-01  0.00000000000E+00 0. -1.
     999901    1    3    3    0    0  0.60253631449E-01 -0.11422356932E+00 -0.17709327167E-01  0.88960167725E+00  0.88000000000E+00 0.  1.
        -11    1    4    4    0    0 -0.33329758546E-01  0.45634267252E-01  0.11993592585E-01  0.57770810419E-01  0.51100000000E-03 0.  1.
         11    1    4    4    0    0 -0.40091935381E-01  0.58659473450E-01 -0.12325135250E-01  0.72114264802E-01  0.51100000000E-03 0. -1.
</event>
<event>
 8    1  0.1097777E+005  0.1043930E+01  0.7957747E-01            NaN
         13   -1    0    0    0    0  0.00000000000E+00  0.00000000000E+00  0.74505805969E-08  0.10566000000E+00  0.10566000000E+00 0. -1.
     999900   -1    0    0    0    0 -0.00000000000E+00 -0.00000000000E+00 -0.74505805969E-08  0.93827000000E+00  0.93827000000E+00 0.  1.
     999902    2    1    2    0    0  0.20516596876E-01 -0.10639951189E-01 -0.35814752721E-02  0.10205426899E+01  0.10202746766E+01 0.  0.
     999903    2    3    3    0    0 -0.12387729759E+00 -0.20322582693E-01 -0.17980769206E-01  0.12860620686E+00  0.21392899634E-01 0.  0.
         14    1    1    2    0    0 -0.20516596876E-01  0.10639951189E-01  0.35814752721E-02  0.23387310102E-01  0.00000000000E+00 0. -1.
     999901    1    3    3    0    0  0.14439389447E+00  0.96826315032E-02  0.14399293934E-01  0.89193648304E+00  0.88000000000E+00 0. -1.
        -11    1    4    4    0    0 -0.96870099987E-01 -0.24359890776E-01 -0.11599738243E-01  0.10055861772E+00  0.51100000000E-03 0. -1.
         11    1    4    4    0    0 -0.27007197606E-01  0.40373080829E-02 -0.63810309632E-02  0.28047589134E-01  0.51100000000E-03 0.  1.
</event>
<event>
 8    1  0.1097777E+005  0.1043930E+01  0.7957747E-01            NaN
         13   -1    0    0    0    0  0.00000000000E+00  0.00000000000E+00  0.74505805969E-08  0.10566000000E+00  0.10566000000E+00 0. -1.
     999900   -1    0    0    0    0 -0.00000000000E+00 -0.00000000000E+00 -0.74505805969E-08  0.93827000000E+00  0.93827000000E+00 0. -1.
     999902    2    1    2    0    0  0.17357612487E-01  0.12504072239E-01  0.87039238748E-02  0.10208346146E+01  0.10205733259E+01 0.  0.
     999903    2    3    3    0    0  0.16479595588E-01 -0.12546536922E+00  0.22603235482E-01  0.12997574336E+00  0.19226327321E-01 0.  0.
         14    1    1    2    0    0 -0.17357612487E-01 -0.12504072239E-01 -0.87039238748E-02  0.23095385353E-01  0.00000000000E+00 0.  1.
     999901    1    3    3    0    0  0.87801689861E-03  0.13796944146E+00 -0.13899311608E-01  0.89085887129E+00  0.88000000000E+00 0. -1.
        -11    1    4    4    0    0 -0.14758372180E-02 -0.58764610441E-01  0.74440846180E-02  0.59254814594E-01  0.51100000000E-03 0.  1.
         11    1    4    4    0    0  0.17955432806E-01 -0.66700758782E-01  0.15159150864E-01  0.70720928764E-01  0.51100000000E-03 0. -1.
</event>
<event>
 8    1  0.1097777E+005  0.1043930E+01  0.7957747E-01            NaN
         13   -1    0    0    0    0  0.00000000000E+00  0.00000000000E+00  0.74505805969E-08  0.10566000000E+00  0.10566000000E+00 0.  1.
     999900   -1    0    0    0    0 -0.00000000000E+00 -0.00000000000E+00 -0.74505805969E-08  0.93827000000E+00  0.93827000000E+00 0.  1.
     999902    2    1    2    0    0  0.90858976154E-02 -0.21979469286E-01 -0.14763404758E-02  0.10201008123E+01  0.10198224537E+01 0.  0.
     999903    2    3    3    0    0 -0.90731512402E-02  0.96562832172E-01 -0.81578743739E-01  0.12836182397E+00  0.20370660078E-01 0.  0.
         14    1    1    2    0    0 -0.90858976154E-02  0.21979469286E-01  0.14763404758E-02  0.23829187707E-01  0.00000000000E+00 0. -1.
     999901    1    3    3    0    0  0.18159048856E-01 -0.11854230146E+00  0.80102403264E-01  0.89173898832E+00  0.88000000000E+00 0. -1.
        -11    1    4    4    0    0  0.53066661854E-02  0.15935047080E-01 -0.97634966014E-02  0.19433821506E-01  0.51100000000E-03 0.  1.
         11    1    4    4    0    0 -0.14379817426E-01  0.80627785092E-01 -0.71815247138E-01  0.10892800246E+00  0.51100000000E-03 0. -1.
</event>
<event>
 8    1  0.1097777E+005  0.1043930E+01  0.7957747E-01            NaN
         13   -1    0    0    0    0  0.00000000000E+00  0.00000000000E+00  0.74505805969E-08  0.10566000000E+00  0.10566000000E+00 0. -1.
     999900   -1    0    0    0    0 -0.00000000000E+00 -0.00000000000E+00 -0.74505805969E-08  0.93827000000E+00  0.93827000000E+00 0.  1.
     999902    2    1    2    0    0  0.18311422840E-01  0.14431580064E-01  0.63133959103E-02  0.10197755454E+01  0.10194894434E+01 0.  0.
     999903    2    3    3    0    0  0.12559640553E+00  0.37856212624E-01  0.54472800038E-02  0.13295000952E+00  0.20939967847E-01 0.  0.
         14    1    1    2    0    0 -0.18311422840E-01 -0.14431580064E-01 -0.63133959103E-02  0.24154454609E-01  0.00000000000E+00 0.  1.
     999901    1    3    3    0    0 -0.10728498270E+00 -0.23424632560E-01  0.86611590644E-03  0.88682553587E+00  0.88000000000E+00 0. -1.
        -11    1    4    4    0    0  0.64080510717E-01  0.10209450380E-01  0.84485609096E-02  0.65438398768E-01  0.51100000000E-03 0. -1.
         11    1    4    4    0    0  0.61515894817E-01  0.27646762244E-01 -0.30012809058E-02  0.67511610748E-01  0.51100000000E-03 0.  1.
</event>
<event>
 8    1  0.1097777E+005  0.1043930E+01  0.7957747E-01            NaN
         13   -1    0    0    0    0  0.00000000000E+00  0.00000000000E+00  0.74505805969E-08  0.10566000000E+00  0.10566000000E+00 0.  1.
     999900   -1    0    0    0    0 -0.00000000000E+00 -0.00000000000E+00 -0.74505805969E-08  0.93827000000E+00  0.93827000000E+00 0.  1.
     999902    2    1    2    0    0  0.13850777035E-01  0.12503533377E-01  0.12766042367E-01  0.10213212802E+01  0.10210710079E+01 0.  0.
     999903    2    3    3    0    0 -0.13474762621E-01  0.13049366996E+00 -0.56246722552E-02  0.13283572840E+00  0.20087973354E-01 0.  0.
         14    1    1    2    0    0 -0.13850777035E-01 -0.12503533377E-01 -0.12766042367E-01  0.22608719758E-01  0.00000000000E+00 0. -1.
     999901    1    3    3    0    0  0.27325539656E-01 -0.11799013659E+00  0.18390714622E-01  0.88848555184E+00  0.88000000000E+00 0.  1.
        -11    1    4    4    0    0 -0.14993021940E-01  0.90942224884E-01  0.34084205165E-02  0.92234252993E-01  0.51100000000E-03 0.  1.
         11    1    4    4    0    0  0.15182593195E-02  0.39551445078E-01 -0.90330927717E-02  0.40601475406E-01  0.51100000000E-03 0. -1.
</event>
<event>
 8    1  0.1097777E+005  0.1043930E+01  0.7957747E-01            NaN
         13   -1    0    0    0    0  0.00000000000E+00  0.00000000000E+00  0.74505805969E-08  0.10566000000E+00  0.10566000000E+00 0. -1.
     999900   -1    0    0    0    0 -0.00000000000E+00 -0.00000000000E+00 -0.74505805969E-08  0.93827000000E+00  0.93827000000E+00 0.  1.
     999902    2    1    2    0    0  0.52579294031E-02 -0.11990920635E-01  0.19957560093E-01  0.10200609363E+01  0.10197816342E+01 0.  0.
     999903    2    3    3    0    0  0.13936488450E-01 -0.56258375840E-01 -0.11339634028E+00  0.12887173764E+00  0.19747511548E-01 0.  0.
         14    1    1    2    0    0 -0.52579294031E-02  0.11990920635E-01 -0.19957560093E-01  0.23869063747E-01  0.00000000000E+00 0.  1.
     999901    1    3    3    0    0 -0.86785590468E-02  0.44267455205E-01  0.13335390037E+00  0.89118919861E+00  0.88000000000E+00 0. -1.
        -11    1    4    4    0    0  0.94324622401E-02 -0.70522287524E-02 -0.20342167476E-01  0.23511064904E-01  0.51100000000E-03 0.  1.
         11    1    4    4    0    0  0.45040262097E-02 -0.49206147088E-01 -0.93054172800E-01  0.10536067274E+00  0.51100000000E-03 0. -1.
</event>
<event>
 8    1  0.1097777E+005  0.1043930E+01  0.7957747E-01            NaN
         13   -1    0    0    0    0  0.00000000000E+00  0.00000000000E+00  0.74505805969E-08  0.10566000000E+00  0.10566000000E+00 0. -1.
     999900   -1    0    0    0    0 -0.00000000000E+00 -0.00000000000E+00 -0.74505805969E-08  0.93827000000E+00  0.93827000000E+00 0.  1.
     999902    2    1    2    0    0 -0.14014023168E-01 -0.50824947546E-02 -0.17687897434E-01  0.10207980672E+01  0.10205359414E+01 0.  0.
     999903    2    3    3    0    0 -0.10372237843E+00  0.54335332995E-01  0.55198830210E-01  0.13125293497E+00  0.21673990897E-01 0.  0.
         14    1    1    2    0    0  0.14014023168E-01  0.50824947546E-02  0.17687897434E-01  0.23131932776E-01  0.00000000000E+00 0. -1.
     999901    1    3    3    0    0  0.89708355263E-01 -0.59417827750E-01 -0.72886727644E-01  0.88954513226E+00  0.88000000000E+00 0.  1.
        -11    1    4    4    0    0 -0.11641012269E-01  0.42425620133E-02 -0.76350898895E-03  0.12424031796E-01  0.51100000000E-03 0. -1.
         11    1    4    4    0    0 -0.92081366162E-01  0.50092770982E-01  0.55962339199E-01  0.11882890317E+00  0.51100000000E-03 0.  1.
</event>
<event>
 8    1  0.1097777E+005  0.1043930E+01  0.7957747E-01            NaN
         13   -1    0    0    0    0  0.00000000000E+00  0.00000000000E+00  0.74505805969E-08  0.10566000000E+00  0.10566000000E+00 0. -1.
     999900   -1    0    0    0    0 -0.00000000000E+00 -0.00000000000E+00 -0.74505805969E-08  0.93827000000E+00  0.93827000000E+00 0. -1.
     999902    2    1    2    0    0  0.19071062531E-01 -0.14695398104E-01 -0.21200161251E-02  0.10197607092E+01  0.10194742514E+01 0.  0.
     999903    2    3    3    0    0  0.57102467080E-02  0.91993493856E-01 -0.88119423578E-01  0.12905484909E+00  0.19867345910E-01 0.  0.
         14    1    1    2    0    0 -0.19071062531E-01  0.14695398104E-01  0.21200161251E-02  0.24169290844E-01  0.00000000000E+00 0.  1.
     999901    1    3    3    0    0  0.13360815823E-01 -0.10668889196E+00  0.85999407453E-01  0.89070586006E+00  0.88000000000E+00 0.  1.
        -11    1    4    4    0    0  0.12158403351E-01  0.55190558705E-01 -0.58813388111E-01  0.81566538999E-01  0.51100000000E-03 0.  1.
         11    1    4    4    0    0 -0.64481566429E-02  0.36802935151E-01 -0.29306035468E-01  0.47488310095E-01  0.51100000000E-03 0. -1.
</event>
<event>
 8    1  0.1973586E+005  0.1043930E+01  0.7957747E-01            NaN
         13   -1    0    0    0    0  0.00000000000E+00  0.00000000000E+00  0.74505805969E-08  0.10566000000E+00  0.10566000000E+00 0.  1.
     999900   -1    0    0    0    0 -0.00000000000E+00 -0.00000000000E+00 -0.74505805969E-08  0.93827000000E+00  0.93827000000E+00 0.  1.
     999902    2    1    2    0    0 -0.13212455721E-01  0.21415641910E-01 -0.27474661462E-01  0.10066733801E+01  0.10059837168E+01 0.  0.
     999903    2    3    3    0    0 -0.61225443982E-01  0.79308156231E-01  0.61396548885E-01  0.11900515249E+00  0.18824225603E-01 0.  0.
         14    1    1    2    0    0  0.13212455721E-01 -0.21415641910E-01  0.27474661462E-01  0.37256619909E-01  0.00000000000E+00 0.  1.
     999901    1    3    3    0    0  0.48012988261E-01 -0.57892514321E-01 -0.88871210348E-01  0.88766822760E+00  0.88000000000E+00 0.  1.
        -11    1    4    4    0    0 -0.36266686586E-01  0.41045839635E-01  0.43469718599E-01  0.69927899034E-01  0.51100000000E-03 0. -1.
         11    1    4    4    0    0 -0.24958757396E-01  0.38262316596E-01  0.17926830287E-01  0.49077253460E-01  0.51100000000E-03 0.  1.
</event>
<event>
 8    1  0.1097777E+005  0.1043930E+01  0.7957747E-01            NaN
         13   -1    0    0    0    0  0.00000000000E+00  0.00000000000E+00  0.74505805969E-08  0.10566000000E+00  0.10566000000E+00 0.  1.
     999900   -1    0    0    0    0 -0.00000000000E+00 -0.00000000000E+00 -0.74505805969E-08  0.93827000000E+00  0.93827000000E+00 0.  1.
     999902    2    1    2    0    0  0.24518632895E-02 -0.51609379829E-02 -0.22652302275E-01  0.10205681997E+01  0.10203007775E+01 0.  0.
     999903    2    3    3    0    0  0.83017860212E-01 -0.69146512392E-01  0.70302723909E-01  0.12971149379E+00  0.14470429902E-01 0.  0.
         14    1    1    2    0    0 -0.24518632895E-02  0.51609379829E-02  0.22652302275E-01  0.23361800291E-01  0.00000000000E+00 0.  1.
     999901    1    3    3    0    0 -0.80565996923E-01  0.63985574409E-01 -0.92955026184E-01  0.89085670592E+00  0.88000000000E+00 0.  1.
        -11    1    4    4    0    0  0.92721120668E-02 -0.30274932597E-02  0.86227800506E-02  0.13028861593E-01  0.51100000000E-03 0.  1.
         11    1    4    4    0    0  0.73745748145E-01 -0.66119019132E-01  0.61679943858E-01  0.11668263219E+00  0.51100000000E-03 0. -1.
</event>
<event>
 8    1  0.1097777E+005  0.1043930E+01  0.7957747E-01            NaN
         13   -1    0    0    0    0  0.00000000000E+00  0.00000000000E+00  0.74505805969E-08  0.10566000000E+00  0.10566000000E+00 0. -1.
     999900   -1    0    0    0    0 -0.00000000000E+00 -0.00000000000E+00 -0.74505805969E-08  0.93827000000E+00  0.93827000000E+00 0.  1.
     999902    2    1    2    0    0  0.17627024520E-01 -0.34399514130E-02 -0.15708346048E-01  0.10200700462E+01  0.10197909598E+01 0.  0.
     999903    2    3    3    0    0 -0.15204318530E-01 -0.68004899630E-01  0.10624195563E+00  0.12871242679E+00  0.20583925700E-01 0.  0.
         14    1    1    2    0    0 -0.17627024520E-01  0.34399514130E-02  0.15708346048E-01  0.23859953787E-01  0.00000000000E+00 0. -1.
     999901    1    3    3    0    0  0.32831343050E-01  0.64564948217E-01 -0.12195030168E+00  0.89135761942E+00  0.88000000000E+00 0.  1.
        -11    1    4    4    0    0 -0.10356550908E-01 -0.99059323508E-02  0.19882230740E-01  0.24514278751E-01  0.51100000000E-03 0. -1.
         11    1    4    4    0    0 -0.48477676222E-02 -0.58098967280E-01  0.86359724894E-01  0.10419814804E+00  0.51100000000E-03 0.  1.
</event>
<event>
 8    1  0.1097777E+005  0.1043930E+01  0.7957747E-01            NaN
         13   -1    0    0    0    0  0.00000000000E+00  0.00000000000E+00  0.74505805969E-08  0.10566000000E+00  0.10566000000E+00 0. -1.
     999900   -1    0    0    0    0 -0.00000000000E+00 -0.00000000000E+00 -0.74505805969E-08  0.93827000000E+00  0.93827000000E+00 0.  1.
     999902    2    1    2    0    0 -0.30430786973E-02 -0.24708191160E-01 -0.35142590604E-03  0.10190326399E+01  0.10187284440E+01 0.  0.
     999903    2    3    3    0    0 -0.44145466967E-01 -0.11898774462E+00 -0.29843037199E-01  0.13255207293E+00  0.23927798605E-01 0.  0.
         14    1    1    2    0    0  0.30430786973E-02  0.24708191160E-01  0.35142590604E-03  0.24897360072E-01  0.00000000000E+00 0.  1.
     999901    1    3    3    0    0  0.41102388270E-01  0.94279553460E-01  0.29491611293E-01  0.88648056699E+00  0.88000000000E+00 0.  1.
        -11    1    4    4    0    0 -0.20911597890E-01 -0.49507107856E-01 -0.82679765454E-03  0.53751217381E-01  0.51100000000E-03 0. -1.
         11    1    4    4    0    0 -0.23233869077E-01 -0.69480636765E-01 -0.29016239545E-01  0.78800855553E-01  0.51100000000E-03 0.  1.
</event>
<event>
 8    1  0.1097777E+005  0.1043930E+01  0.7957747E-01            NaN
         13   -1    0    0    0    0  0.00000000000E+00  0.00000000000E+00  0.74505805969E-08  0.10566000000E+00  0.10566000000E+00 0.  1.
     999900   -1    0    0    0    0 -0.00000000000E+00 -0.00000000000E+00 -0.74505805969E-08  0.93827000000E+00  0.93827000000E+00 0.  1.
     999902    2    1    2    0    0  0.11366260354E-01 -0.20004682547E-01  0.53755336489E-02  0.10203021444E+01  0.10200285243E+01 0.  0.
     999903    2    3    3    0    0  0.69536022619E-01 -0.74838004486E-01 -0.81655340996E-01  0.13240305803E+00  0.20663729218E-01 0.  0.
         14    1    1    2    0    0 -0.11366260354E-01  0.20004682547E-01 -0.53755336489E-02  0.23627855600E-01  0.00000000000E+00 0.  1.
     999901    1    3    3    0    0 -0.58169762265E-01  0.54833321939E-01  0.87030874645E-01  0.88789908637E+00  0.88000000000E+00 0. -1.
        -11    1    4    4    0    0  0.17556294917E-01 -0.19685344208E-01 -0.10337541195E-01  0.28334822159E-01  0.51100000000E-03 0.  1.
         11    1    4    4    0    0  0.51979727702E-01 -0.55152660277E-01 -0.71317799801E-01  0.10406823587E+00  0.51100000000E-03 0. -1.
</event>
<event>
 8    1  0.1097777E+005  0.1043930E+01  0.7957747E-01            NaN
         13   -1    0    0    0    0  0.00000000000E+00  0.00000000000E+00  0.74505805969E-08  0.10566000000E+00  0.10566000000E+00 0. -1.
     999900   -1    0    0    0    0 -0.00000000000E+00 -0.00000000000E+00 -0.74505805969E-08  0.93827000000E+00  0.93827000000E+00 0.  1.
     999902    2    1    2    0    0 -0.36890370517E-02 -0.12388701786E-02  0.24045665799E-01  0.10195714730E+01  0.10192804573E+01 0.  0.
     999903    2    3    3    0    0  0.46332475273E-01  0.93935714915E-01 -0.70727785219E-01  0.12797607129E+00  0.20120596881E-01 0.  0.
         14    1    1    2    0    0  0.36890370517E-02  0.12388701786E-02 -0.24045665799E-01  0.24358526995E-01  0.00000000000E+00 0.  1.
     999901    1    3    3    0    0 -0.50021512325E-01 -0.95174585094E-01  0.94773451018E-01  0.89159540172E+00  0.88000000000E+00 0. -1.
        -11    1    4    4    0    0  0.26105420480E-02  0.16052133746E-01 -0.48083723287E-02  0.16966658275E-01  0.51100000000E-03 0.  1.
         11    1    4    4    0    0  0.43721933225E-01  0.77883581170E-01 -0.65919412891E-01  0.11100941301E+00  0.51100000000E-03 0. -1.
</event>
<event>
 8    1  0.1097777E+005  0.1043930E+01  0.7957747E-01            NaN
         13   -1    0    0    0    0  0.00000000000E+00  0.00000000000E+00  0.74505805969E-08  0.10566000000E+00  0.10566000000E+00 0.  1.
     999900   -1    0    0    0    0 -0.00000000000E+00 -0.00000000000E+00 -0.74505805969E-08  0.93827000000E+00  0.93827000000E+00 0. -1.
     999902    2    1    2    0    0  0.20502497350E-01 -0.50421022880E-02  0.12518186434E-01  0.10193845282E+01  0.10190889736E+01 0.  0.
     999903    2    3    3    0    0 -0.86097468023E-02 -0.10429948900E+00 -0.73001606219E-01  0.12920859813E+00  0.20325259531E-01 0.  0.
         14    1    1    2    0    0 -0.20502497350E-01  0.50421022880E-02 -0.12518186434E-01  0.24545471775E-01  0.00000000000E+00 0. -1.
     999901    1    3    3    0    0  0.29112244152E-01  0.99257386715E-01  0.85519792653E-01  0.89017593009E+00  0.88000000000E+00 0.  1.
        -11    1    4    4    0    0  0.20878949551E-02 -0.80029613212E-01 -0.55993948754E-01  0.97696886922E-01  0.51100000000E-03 0. -1.
         11    1    4    4    0    0 -0.10697641757E-01 -0.24269875791E-01 -0.17007657465E-01  0.31511711212E-01  0.51100000000E-03 0.  1.
</event>
<event>
 8    1  0.1097777E+005  0.1043930E+01  0.7957747E-01            NaN
         13   -1    0    0    0    0  0.00000000000E+00  0.00000000000E+00  0.74505805969E-08  0.10566000000E+00  0.10566000000E+00 0.  1.
     999900   -1    0    0    0    0 -0.00000000000E+00 -0.00000000000E+00 -0.74505805969E-08  0.93827000000E+00  0.93827000000E+00 0. -1.
     999902    2    1    2    0    0 -0.23512245650E-01  0.52261182621E-02  0.19431199224E-01  0.10129831179E+01  0.10125102902E+01 0.  0.
     999903    2    3    3    0    0 -0.33584850051E-01  0.52899862990E-01  0.10876997242E+00  0.12711876052E+00  0.20048309655E-01 0.  0.
         14    1    1    2    0    0  0.23512245650E-01 -0.52261182621E-02 -0.19431199224E-01  0.30946882087E-01  0.00000000000E+00 0. -1.
     999901    1    3    3    0    0  0.10072604401E-01 -0.47673744728E-01 -0.89338773194E-01  0.88586435739E+00  0.88000000000E+00 0. -1.
        -11    1    4    4    0    0 -0.51756560780E-02  0.21947548521E-01  0.26967608820E-01  0.35156725508E-01  0.51100000000E-03 0. -1.
         11    1    4    4    0    0 -0.28409193973E-01  0.30952314468E-01  0.81802363599E-01  0.91962035017E-01  0.51100000000E-03 0.  1.
</event>
<event>
 8    1  0.1097777E+005  0.1043930E+01  0.7957747E-01            NaN
         13   -1    0    0    0    0  0.00000000000E+00  0.00000000000E+00  0.74505805969E-08  0.10566000000E+00  0.10566000000E+00 0. -1.
     999900   -1    0    0    0    0 -0.00000000000E+00 -0.00000000000E+00 -0.74505805969E-08  0.93827000000E+00  0.93827000000E+00 0. -1.
     999902    2    1    2    0    0 -0.48191620276E-02 -0.21820674329E-01  0.64989520724E-02  0.10206576445E+01  0.10203922897E+01 0.  0.
     999903    2    3    3    0    0 -0.43466062087E-01  0.10556911296E+00 -0.55426576854E-01  0.12849369552E+00  0.20109405826E-01 0.  0.
         14    1    1    2    0    0  0.48191620276E-02  0.21820674329E-01 -0.64989520724E-02  0.23272355464E-01  0.00000000000E+00 0. -1.
     999901    1    3    3    0    0  0.38646900059E-01 -0.12738978729E+00  0.61925528926E-01  0.89216394902E+00  0.88000000000E+00 0.  1.
        -11    1    4    4    0    0 -0.37041875335E-01  0.67958611868E-01 -0.32263483119E-01  0.83855035146E-01  0.51100000000E-03 0. -1.
         11    1    4    4    0    0 -0.64241867525E-02  0.37610501091E-01 -0.23163093735E-01  0.44638660375E-01  0.51100000000E-03 0.  1.
</event>
<event>
 8    1  0.1097777E+005  0.1043930E+01  0.7957747E-01            NaN
         13   -1    0    0    0    0  0.00000000000E+00  0.00000000000E+00  0.74505805969E-08  0.10566000000E+00  0.10566000000E+00 0.  1.
     999900   -1    0    0    0    0 -0.00000000000E+00 -0.00000000000E+00 -0.74505805969E-08  0.93827000000E+00  0.93827000000E+00 0.  1.
     999902    2    1    2    0    0 -0.16291963323E-01 -0.15483097407E-01  0.76314914197E-02  0.10201940771E+01  0.10199179187E+01 0.  0.
     999903    2    3    3    0    0 -0.10727485565E+00  0.71481440958E-01 -0.11944230941E-01  0.13102371855E+00  0.20175706046E-01 0.  0.
         14    1    1    2    0    0  0.16291963323E-01  0.15483097407E-01 -0.76314914197E-02  0.23735922892E-01  0.00000000000E+00 0. -1.
     999901    1    3    3    0    0  0.90982892326E-01 -0.86964538365E-01  0.19575722361E-01  0.88917035856E+00  0.88000000000E+00 0. -1.
        -11    1    4    4    0    0 -0.40831228890E-01  0.23325600612E-01  0.48019779320E-02  0.47271481991E-01  0.51100000000E-03 0.  1.
         11    1    4    4    0    0 -0.66443626759E-01  0.48155840346E-01 -0.16746208873E-01  0.83752236561E-01  0.51100000000E-03 0. -1.
</event>
<event>
 8    1  0.1097777E+005  0.1043930E+01  0.7957747E-01            NaN
         13   -1    0    0    0    0  0.00000000000E+00  0.00000000000E+00  0.74505805969E-08  0.10566000000E+00  0.10566000000E+00 0.  1.
     999900   -1    0    0    0    0 -0.00000000000E+00 -0.00000000000E+00 -0.74505805969E-08  0.93827000000E+00  0.93827000000E+00 0. -1.
     999902    2    1    2    0    0 -0.90789392561E-02  0.11695122495E-02 -0.19973510444E-01  0.10219587457E+01  0.10217225366E+01 0.  0.
     999903    2    3    3    0    0  0.12008885831E+00  0.48297523644E-01 -0.92387135689E-02  0.13121714159E+00  0.19457639623E-01 0.  0.
         14    1    1    2    0    0  0.90789392561E-02 -0.11695122495E-02  0.19973510444E-01  0.21971254319E-01  0.00000000000E+00 0.  1.
     999901    1    3    3    0    0 -0.12916779757E+00 -0.47128011395E-01 -0.10734796875E-01  0.89074160409E+00  0.88000000000E+00 0.  1.
        -11    1    4    4    0    0  0.34984023346E-01  0.13656409119E-01 -0.11573216115E-01  0.39301143136E-01  0.51100000000E-03 0. -1.
         11    1    4    4    0    0  0.85104834963E-01  0.34641114525E-01  0.23345025456E-02  0.91915998459E-01  0.51100000000E-03 0.  1.
</event>
<event>
 8    1  0.1097777E+005  0.1043930E+01  0.7957747E-01            NaN
         13   -1    0    0    0    0  0.00000000000E+00  0.00000000000E+00  0.74505805969E-08  0.10566000000E+00  0.10566000000E+00 0. -1.
     999900   -1    0    0    0    0 -0.00000000000E+00 -0.00000000000E+00 -0.74505805969E-08  0.93827000000E+00  0.93827000000E+00 0.  1.
     999902    2    1    2    0    0  0.17304369141E-01  0.63014027319E-02 -0.19368503260E-01  0.10172038370E+01  0.10168526729E+01 0.  0.
     999903    2    3    3    0    0 -0.11464246348E+00 -0.46591140855E-01 -0.92262194777E-02  0.12573849631E+00  0.20283428968E-01 0.  0.
         14    1    1    2    0    0 -0.17304369141E-01 -0.63014027319E-02  0.19368503260E-01  0.26726162955E-01  0.00000000000E+00 0. -1.
     999901    1    3    3    0    0  0.13194683262E+00  0.52892543587E-01 -0.10142283782E-01  0.89146534073E+00  0.88000000000E+00 0. -1.
        -11    1    4    4    0    0 -0.77107923560E-01 -0.27500948784E-01  0.28863762261E-02  0.81917802390E-01  0.51100000000E-03 0.  1.
         11    1    4    4    0    0 -0.37534539918E-01 -0.19090192071E-01 -0.12112595704E-01  0.43820693923E-01  0.51100000000E-03 0. -1.
</event>
<event>
 8    1  0.1097777E+005  0.1043930E+01  0.7957747E-01            NaN
         13   -1    0    0    0    0  0.00000000000E+00  0.00000000000E+00  0.74505805969E-08  0.10566000000E+00  0.10566000000E+00 0.  1.
     999900   -1    0    0    0    0 -0.00000000000E+00 -0.00000000000E+00 -0.74505805969E-08  0.93827000000E+00  0.93827000000E+00 0. -1.
     999902    2    1    2    0    0 -0.82045190867E-02 -0.74949266210E-02  0.21101301738E-01  0.10200814572E+01  0.10198026409E+01 0.  0.
     999903    2    3    3    0    0  0.26468021832E-01 -0.12519226840E-01  0.12813696146E+00  0.13290387569E+00  0.19674147019E-01 0.  0.
         14    1    1    2    0    0  0.82045190867E-02  0.74949266210E-02 -0.21101301738E-01  0.23848542797E-01  0.00000000000E+00 0. -1.
     999901    1    3    3    0    0 -0.34672540919E-01  0.50243002191E-02 -0.10703565972E+00  0.88717758151E+00  0.88000000000E+00 0. -1.
        -11    1    4    4    0    0  0.59003521734E-02 -0.12646976727E-01  0.65579683645E-01  0.67050102193E-01  0.51100000000E-03 0.  1.
         11    1    4    4    0    0  0.20567669659E-01  0.12774988679E-03  0.62557277815E-01  0.65853773497E-01  0.51100000000E-03 0. -1.
</event>
<event>
 7    1  0.1097777E+005  0.1043930E+01  0.7957747E-01            NaN
         13   -1    0    0    0    0  0.00000000000E+00  0.00000000000E+00  0.74505805969E-08  0.10566000000E+00  0.10566000000E+00 0.  1.
     999900   -1    0    0    0    0 -0.00000000000E+00 -0.00000000000E+00 -0.74505805969E-08  0.93827000000E+00  0.93827000000E+00 0.  1.
     999902    2    1    2    0    0 -0.19863902293E-01 -0.96964270782E-02  0.53673279934E-02  0.10211834943E+01  0.10209301276E+01 0.  0.
         14    1    1    2    0    0  0.19863902293E-01  0.96964270782E-02 -0.53673279934E-02  0.22746505714E-01  0.00000000000E+00 0. -1.
     999901    1    3    3    0    0  0.10256478854E-01  0.31877617417E-01 -0.11261586351E+00  0.88780837491E+00  0.88000000000E+00 0.  1.
        -11    1    3    3    0    0 -0.32200709702E-01 -0.15338415637E-01  0.62459433410E-01  0.71927704277E-01  0.51100000000E-03 0. -1.
         11    1    3    3    0    0  0.20803285551E-02 -0.26235628858E-01  0.55523758092E-01  0.61447415097E-01  0.51100000000E-03 0.  1.
</event>
<event>
 8    1  0.1097777E+005  0.1043930E+01  0.7957747E-01            NaN
         13   -1    0    0    0    0  0.00000000000E+00  0.00000000000E+00  0.74505805969E-08  0.10566000000E+00  0.10566000000E+00 0. -1.
     999900   -1    0    0    0    0 -0.00000000000E+00 -0.00000000000E+00 -0.74505805969E-08  0.93827000000E+00  0.93827000000E+00 0. -1.
     999902    2    1    2    0    0 -0.16467448035E-01  0.14327841875E-02 -0.16680911595E-01  0.10204463349E+01  0.10201760828E+01 0.  0.
     999903    2    3    3    0    0  0.11494574551E+00 -0.17544737135E-01  0.50055869742E-01  0.12798716398E+00  0.18835653333E-01 0.  0.
         14    1    1    2    0    0  0.16467448035E-01 -0.14327841875E-02  0.16680911595E-01  0.23483665109E-01  0.00000000000E+00 0. -1.
     999901    1    3    3    0    0 -0.13141319355E+00  0.18977521322E-01 -0.66736781336E-01  0.89245917091E+00  0.88000000000E+00 0. -1.
        -11    1    4    4    0    0  0.35285548259E-01  0.20356309138E-02  0.10234208518E-01  0.36799644755E-01  0.51100000000E-03 0. -1.
         11    1    4    4    0    0  0.79660197254E-01 -0.19580368049E-01  0.39821661223E-01  0.91187519229E-01  0.51100000000E-03 0.  1.
</event>
<event>
 8    1  0.1097777E+005  0.1043930E+01  0.7957747E-01            NaN
         13   -1    0    0    0    0  0.00000000000E+00  0.00000000000E+00  0.74505805969E-08  0.10566000000E+00  0.10566000000E+00 0.  1.
     999900   -1    0    0    0    0 -0.00000000000E+00 -0.00000000000E+00 -0.74505805969E-08  0.93827000000E+00  0.93827000000E+00 0.  1.
     999902    2    1    2    0    0  0.42074810176E-02  0.87298583696E-03 -0.23975884062E-01  0.10195720851E+01  0.10192810843E+01 0.  0.
     999903    2    3    3    0    0  0.98618010569E-01  0.83297057873E-01 -0.79655070277E-02  0.13054823397E+00  0.17761763182E-01 0.  0.
         14    1    1    2    0    0 -0.42074810176E-02 -0.87298583696E-03  0.23975884062E-01  0.24357914881E-01  0.00000000000E+00 0.  1.
     999901    1    3    3    0    0 -0.94410529551E-01 -0.82424072036E-01 -0.16010377034E-01  0.88902385115E+00  0.88000000000E+00 0. -1.
        -11    1    4    4    0    0  0.41937501906E-01  0.47016179573E-01 -0.41179190925E-02  0.63138685339E-01  0.51100000000E-03 0.  1.
         11    1    4    4    0    0  0.56680508663E-01  0.36280878301E-01 -0.38475879351E-02  0.67409548630E-01  0.51100000000E-03 0. -1.
</event>
<event>
 8    1  0.1097777E+005  0.1043930E+01  0.7957747E-01            NaN
         13   -1    0    0    0    0  0.00000000000E+00  0.00000000000E+00  0.74505805969E-08  0.10566000000E+00  0.10566000000E+00 0. -1.
     999900   -1    0    0    0    0 -0.00000000000E+00 -0.00000000000E+00 -0.74505805969E-08  0.93827000000E+00  0.93827000000E+00 0.  1.
     999902    2    1    2    0    0  0.15833634947E-01  0.87869863342E-02 -0.14306499730E-01  0.10208520655E+01  0.10205911761E+01 0.  0.
     999903    2    3    3    0    0  0.95580269271E-01 -0.80087403562E-01 -0.38519090775E-01  0.13245776545E+00  0.22622095189E-01 0.  0.
         14    1    1    2    0    0 -0.15833634947E-01 -0.87869863342E-02  0.14306499730E-01  0.23077934461E-01  0.00000000000E+00 0. -1.
     999901    1    3    3    0    0 -0.79746634325E-01  0.88874389896E-01  0.24212591045E-01  0.88839430009E+00  0.88000000000E+00 0. -1.
        -11    1    4    4    0    0  0.11633550144E-01 -0.21106315151E-01 -0.61822983333E-02  0.24885697939E-01  0.51100000000E-03 0.  1.
         11    1    4    4    0    0  0.83946719127E-01 -0.58981088410E-01 -0.32336792442E-01  0.10757206751E+00  0.51100000000E-03 0. -1.
</event>
<event>
 8    1  0.1097777E+005  0.1043930E+01  0.7957747E-01            NaN
         13   -1    0    0    0    0  0.00000000000E+00  0.00000000000E+00  0.74505805969E-08  0.10566000000E+00  0.10566000000E+00 0.  1.
     999900   -1    0    0    0    0 -0.00000000000E+00 -0.00000000000E+00 -0.74505805969E-08  0.93827000000E+00  0.93827000000E+00 0. -1.
     999902    2    1    2    0    0  0.15339088545E-01 -0.12233599226E-01  0.14913649155E-01  0.10192852132E+01  0.10189872326E+01 0.  0.
     999903    2    3    3    0    0 -0.68453924930E-01  0.18258072158E-01 -0.10350351610E+00  0.12688752369E+00  0.19187724900E-01 0.  0.
         14    1    1    2    0    0 -0.15339088545E-01  0.12233599226E-01 -0.14913649155E-01  0.24644786843E-01  0.00000000000E+00 0. -1.
     999901    1    3    3    0    0  0.83793013475E-01 -0.30491671384E-01  0.11841716526E+00  0.89239768946E+00  0.88000000000E+00 0.  1.
        -11    1    4    4    0    0 -0.36217987420E-01  0.12211057305E-01 -0.39494392578E-01  0.54962902938E-01  0.51100000000E-03 0.  1.
         11    1    4    4    0    0 -0.32235937509E-01  0.60470148533E-02 -0.64009123524E-01  0.71924620757E-01  0.51100000000E-03 0. -1.
</event>
<event>
 8    1  0.1097777E+005  0.1043930E+01  0.7957747E-01            NaN
         13   -1    0    0    0    0  0.00000000000E+00  0.00000000000E+00  0.74505805969E-08  0.10566000000E+00  0.10566000000E+00 0.  1.
     999900   -1    0    0    0    0 -0.00000000000E+00 -0.00000000000E+00 -0.74505805969E-08  0.93827000000E+00  0.93827000000E+00 0.  1.
     999902    2    1    2    0    0  0.95486482249E-02  0.12388693115E-01 -0.17859658686E-01  0.10201892374E+01  0.10199129651E+01 0.  0.
     999903    2    3    3    0    0 -0.82457374643E-01  0.75929164363E-01  0.61673227823E-01  0.12955576635E+00  0.20412078071E-01 0.  0.
         14    1    1    2    0    0 -0.95486482249E-02 -0.12388693115E-01  0.17859658686E-01  0.23740762591E-01  0.00000000000E+00 0.  1.
     999901    1    3    3    0    0  0.92006022868E-01 -0.63540471247E-01 -0.79532886509E-01  0.89063347106E+00  0.88000000000E+00 0.  1.
        -11    1    4    4    0    0 -0.54675777551E-01  0.38103874442E-01  0.41187161841E-01  0.78345320983E-01  0.51100000000E-03 0.  1.
         11    1    4    4    0    0 -0.27781597091E-01  0.37825289920E-01  0.20486065981E-01  0.51210445369E-01  0.51100000000E-03 0. -1.
</event>
<event>
 8    1  0.1097777E+005  0.1043930E+01  0.7957747E-01            NaN
         13   -1    0    0    0    0  0.00000000000E+00  0.00000000000E+00  0.74505805969E-08  0.10566000000E+00  0.10566000000E+00 0.  1.
     999900   -1    0    0    0    0 -0.00000000000E+00 -0.00000000000E+00 -0.74505805969E-08  0.93827000000E+00  0.93827000000E+00 0. -1.
     999902    2    1    2    0    0 -0.17850555359E-01  0.12950933247E-02  0.14146932849E-01  0.10211165105E+01  0.10208616325E+01 0.  0.
     999903    2    3    3    0    0  0.34399348515E-01  0.36646584146E-01 -0.11714724544E+00  0.12914232837E+00  0.20687594255E-01 0.  0.
         14    1    1    2    0    0  0.17850555359E-01 -0.12950933247E-02 -0.14146932849E-01  0.22813489483E-01  0.00000000000E+00 0. -1.
     999901    1    3    3    0    0 -0.52249903874E-01 -0.35351490821E-01  0.13129417829E+00  0.89197418214E+00  0.88000000000E+00 0.  1.
        -11    1    4    4    0    0  0.27656266446E-01  0.20610106422E-01 -0.94370733054E-01  0.10047756933E+00  0.51100000000E-03 0. -1.
         11    1    4    4    0    0  0.67430820692E-02  0.16036477724E-01 -0.22776512386E-01  0.28664759044E-01  0.51100000000E-03 0.  1.
</event>
<event>
 8    1  0.1097777E+005  0.1043930E+01  0.7957747E-01            NaN
         13   -1    0    0    0    0  0.00000000000E+00  0.00000000000E+00  0.74505805969E-08  0.10566000000E+00  0.10566000000E+00 0. -1.
     999900   -1    0    0    0    0 -0.00000000000E+00 -0.00000000000E+00 -0.74505805969E-08  0.93827000000E+00  0.93827000000E+00 0. -1.
     999902    2    1    2    0    0  0.13306247432E-01 -0.15982800634E-01 -0.88460738933E-02  0.10213300186E+01  0.10210799419E+01 0.  0.
     999903    2    3    3    0    0  0.10399169597E+00  0.75248426319E-01 -0.22633749231E-01  0.13187114525E+00  0.20027826945E-01 0.  0.
         14    1    1    2    0    0 -0.13306247432E-01  0.15982800634E-01  0.88460738933E-02  0.22599981419E-01  0.00000000000E+00 0. -1.
     999901    1    3    3    0    0 -0.90685448538E-01 -0.91231226954E-01  0.13787675338E-01  0.88945887333E+00  0.88000000000E+00 0. -1.
        -11    1    4    4    0    0  0.38831873613E-01  0.35761169236E-01 -0.15494649017E-02  0.52815126582E-01  0.51100000000E-03 0. -1.
         11    1    4    4    0    0  0.65159822357E-01  0.39487257083E-01 -0.21084284330E-01  0.79056018672E-01  0.51100000000E-03 0.  1.
</event>
<event>
 8    1  0.1097777E+005  0.1043930E+01  0.7957747E-01            NaN
         13   -1    0    0    0    0  0.00000000000E+00  0.00000000000E+00  0.74505805969E-08  0.10566000000E+00  0.10566000000E+00 0.  1.
     999900   -1    0    0    0    0 -0.00000000000E+00 -0.00000000000E+00 -0.74505805969E-08  0.93827000000E+00  0.93827000000E+00 0.  1.
     999902    2    1    2    0    0 -0.20529972554E-01 -0.12520431972E-01 -0.14342852998E-03  0.10198829303E+01  0.10195993968E+01 0.  0.
     999903    2    3    3    0    0  0.14265805403E-01  0.39964897962E-01 -0.12055251277E+00  0.12945393055E+00  0.20608384850E-01 0.  0.
         14    1    1    2    0    0  0.20529972554E-01  0.12520431972E-01  0.14342852998E-03  0.24047069709E-01  0.00000000000E+00 0.  1.
     999901    1    3    3    0    0 -0.34795777957E-01 -0.52485329934E-01  0.12040908424E+00  0.89042899975E+00  0.88000000000E+00 0. -1.
        -11    1    4    4    0    0  0.39435255951E-02  0.29800968701E-01 -0.99123688079E-01  0.10358289332E+00  0.51100000000E-03 0.  1.
         11    1    4    4    0    0  0.10322279808E-01  0.10163929261E-01 -0.21428824688E-01  0.25871037223E-01  0.51100000000E-03 0. -1.
</event>
<event>
 8    1  0.1097777E+005  0.1043930E+01  0.7957747E-01            NaN
         13   -1    0    0    0    0  0.00000000000E+00  0.00000000000E+00  0.74505805969E-08  0.10566000000E+00  0.10566000000E+00 0.  1.
     999900   -1    0    0    0    0 -0.00000000000E+00 -0.00000000000E+00 -0.74505805969E-08  0.93827000000E+00  0.93827000000E+00 0.  1.
     999902    2    1    2    0    0 -0.87980257809E-02  0.21894876143E-01  0.37128593545E-02  0.10200432634E+01  0.10197635427E+01 0.  0.
     999903    2    3    3    0    0 -0.36177309943E-01 -0.11147600265E+00 -0.47927079122E-01  0.12807684044E+00  0.19260717108E-01 0.  0.
         14    1    1    2    0    0  0.87980257809E-02 -0.21894876143E-01 -0.37128593545E-02  0.23886736561E-01  0.00000000000E+00 0.  1.
     999901    1    3    3    0    0  0.27379284162E-01  0.13337087879E+00  0.51639938476E-01  0.89196642300E+00  0.88000000000E+00 0.  1.
        -11    1    4    4    0    0 -0.11865657310E-01 -0.65952844429E-01 -0.30225922733E-01  0.73514889905E-01  0.51100000000E-03 0.  1.
         11    1    4    4    0    0 -0.24311652633E-01 -0.45523158218E-01 -0.17701156389E-01  0.54561950536E-01  0.51100000000E-03 0. -1.
</event>
<event>
 8    1  0.1097777E+005  0.1043930E+01  0.7957747E-01            NaN
         13   -1    0    0    0    0  0.00000000000E+00  0.00000000000E+00  0.74505805969E-08  0.10566000000E+00  0.10566000000E+00 0. -1.
     999900   -1    0    0    0    0 -0.00000000000E+00 -0.00000000000E+00 -0.74505805969E-08  0.93827000000E+00  0.93827000000E+00 0.  1.
     999902    2    1    2    0    0  0.27169323886E-03  0.13753507952E-01 -0.19129057465E-01  0.10203683015E+01  0.10200962293E+01 0.  0.
     999903    2    3    3    0    0 -0.11269426422E+00  0.12915063365E-01  0.59647644228E-01  0.12965635069E+00  0.19650235674E-01 0.  0.
         14    1    1    2    0    0 -0.27169323886E-03 -0.13753507952E-01  0.19129057465E-01  0.23561698532E-01  0.00000000000E+00 0. -1.
     999901    1    3    3    0    0  0.11296595746E+00  0.83844458772E-03 -0.78776701693E-01  0.89071195078E+00  0.88000000000E+00 0.  1.
        -11    1    4    4    0    0 -0.70727913858E-01  0.16982888010E-01  0.41549030122E-01  0.83770157628E-01  0.51100000000E-03 0.  1.
         11    1    4    4    0    0 -0.41966350361E-01 -0.40678246451E-02  0.18098614106E-01  0.45886193060E-01  0.51100000000E-03 0. -1.
</event>
<event>
 8    1  0.1097777E+005  0.1043930E+01  0.7957747E-01            NaN
         13   -1    0    0    0    0  0.00000000000E+00  0.00000000000E+00  0.74505805969E-08  0.10566000000E+00  0.10566000000E+00 0.  1.
     999900   -1    0    0    0    0 -0.00000000000E+00 -0.00000000000E+00 -0.74505805969E-08  0.93827000000E+00  0.93827000000E+00 0. -1.
     999902    2    1    2    0    0 -0.21119369511E-01 -0.10167022572E-01 -0.47284425689E-02  0.10200186160E+01  0.10197383109E+01 0.  0.
     999903    2    3    3    0    0  0.83456577686E-02 -0.11903396453E+00  0.50582103500E-01  0.13109822844E+00  0.19734781243E-01 0.  0.
         14    1    1    2    0    0  0.21119369511E-01  0.10167022572E-01  0.47284425689E-02  0.23911384018E-01  0.00000000000E+00 0.  1.
     999901    1    3    3    0    0 -0.29465027280E-01  0.10886694195E+00 -0.55310546068E-01  0.88892038754E+00  0.88000000000E+00 0. -1.
        -11    1    4    4    0    0  0.82277685282E-03 -0.12891044001E-01  0.12765182382E-01  0.18167745580E-01  0.51100000000E-03 0.  1.
         11    1    4    4    0    0  0.75228809158E-02 -0.10614292053E+00  0.37816921117E-01  0.11293048286E+00  0.51100000000E-03 0. -1.
</event>
<event>
 8    1  0.1097777E+005  0.1043930E+01  0.7957747E-01            NaN
         13   -1    0    0    0    0  0.00000000000E+00  0.00000000000E+00  0.74505805969E-08  0.10566000000E+00  0.10566000000E+00 0. -1.
     999900   -1    0    0    0    0 -0.00000000000E+00 -0.00000000000E+00 -0.74505805969E-08  0.93827000000E+00  0.93827000000E+00 0.  1.
     999902    2    1    2    0    0  0.18260883975E-01 -0.11792999014E-01 -0.11289466109E-01  0.10194353729E+01  0.10191410564E+01 0.  0.
     999903    2    3    3    0    0 -0.55626403438E-01 -0.10670854848E+00 -0.46425058535E-01  0.13055810210E+00  0.20226736931E-01 0.  0.
         14    1    1    2    0    0 -0.18260883975E-01  0.11792999014E-01  0.11289466109E-01  0.24494627050E-01  0.00000000000E+00 0.  1.
     999901    1    3    3    0    0  0.73887287413E-01  0.94915549465E-01  0.35135592426E-01  0.88887727085E+00  0.88000000000E+00 0. -1.
        -11    1    4    4    0    0 -0.32530265864E-01 -0.60841025824E-01 -0.37186495350E-01  0.78376942897E-01  0.51100000000E-03 0. -1.
         11    1    4    4    0    0 -0.23096137574E-01 -0.45867522656E-01 -0.92385631851E-02  0.52181159207E-01  0.51100000000E-03 0.  1.
</event>
<event>
 8    1  0.1097777E+005  0.1043930E+01  0.7957747E-01            NaN
         13   -1    0    0    0    0  0.00000000000E+00  0.00000000000E+00  0.74505805969E-08  0.10566000000E+00  0.10566000000E+00 0.  1.
     999900   -1    0    0    0    0 -0.00000000000E+00 -0.00000000000E+00 -0.74505805969E-08  0.93827000000E+00  0.93827000000E+00 0.  1.
     999902    2    1    2    0    0 -0.15798681372E-01 -0.16150790557E-01 -0.64242395556E-02  0.10204413384E+01  0.10201709700E+01 0.  0.
     999903    2    3    3    0    0  0.11610416823E+00  0.48122599004E-01  0.14965216352E-01  0.12803619548E+00  0.19322195441E-01 0.  0.
         14    1    1    2    0    0  0.15798681372E-01  0.16150790557E-01  0.64242395556E-02  0.23488661575E-01  0.00000000000E+00 0. -1.
     999901    1    3    3    0    0 -0.13190284960E+00 -0.64273389561E-01 -0.21389455908E-01  0.89240514295E+00  0.88000000000E+00 0.  1.
        -11    1    4    4    0    0  0.10609599628E+00  0.38239777248E-01  0.10479045289E-01  0.11326390644E+00  0.51100000000E-03 0. -1.
         11    1    4    4    0    0  0.10008171950E-01  0.98828217559E-02  0.44861710637E-02  0.14772289039E-01  0.51100000000E-03 0.  1.
</event>
<event>
 8    1  0.1097777E+005  0.1043930E+01  0.7957747E-01            NaN
         13   -1    0    0    0    0  0.00000000000E+00  0.00000000000E+00  0.74505805969E-08  0.10566000000E+00  0.10566000000E+00 0. -1.
     999900   -1    0    0    0    0 -0.00000000000E+00 -0.00000000000E+00 -0.74505805969E-08  0.93827000000E+00  0.93827000000E+00 0.  1.
     999902    2    1    2    0    0 -0.33897428460E-02 -0.11362512282E-01  0.20472910645E-01  0.10202712360E+01  0.10199968912E+01 0.  0.
     999903    2    3    3    0    0 -0.65111679575E-02 -0.37060032882E-02 -0.12401681373E+00  0.12844970351E+00  0.32604086806E-01 0.  0.
         14    1    1    2    0    0  0.33897428460E-02  0.11362512282E-01 -0.20472910645E-01  0.23658763961E-01  0.00000000000E+00 0.  1.
     999901    1    3    3    0    0  0.31214251116E-02 -0.76565089936E-02  0.14448972437E+00  0.89182153252E+00  0.88000000000E+00 0. -1.
        -11    1    4    4    0    0  0.82453735687E-02 -0.10649468164E-01 -0.86423663087E-01  0.87468325809E-01  0.51100000000E-03 0. -1.
         11    1    4    4    0    0 -0.14756541526E-01  0.69434648762E-02 -0.37593150643E-01  0.40981377705E-01  0.51100000000E-03 0.  1.
</event>
<event>
 8    1  0.1097777E+005  0.1043930E+01  0.7957747E-01            NaN
         13   -1    0    0    0    0  0.00000000000E+00  0.00000000000E+00  0.74505805969E-08  0.10566000000E+00  0.10566000000E+00 0.  1.
     999900   -1    0    0    0    0 -0.00000000000E+00 -0.00000000000E+00 -0.74505805969E-08  0.93827000000E+00  0.93827000000E+00 0. -1.
     999902    2    1    2    0    0  0.52577355227E-02 -0.21417896253E-01  0.88415505943E-02  0.10201698847E+01  0.10198931564E+01 0.  0.
     999903    2    3    3    0    0 -0.12411121971E+00  0.29479190237E-01  0.50553575192E-02  0.12924835321E+00  0.20173315350E-01 0.  0.
         14    1    1    2    0    0 -0.52577355227E-02  0.21417896253E-01 -0.88415505943E-02  0.23760115312E-01  0.00000000000E+00 0. -1.
     999901    1    3    3    0    0  0.12936895524E+00 -0.50897086490E-01  0.37861930750E-02  0.89092153148E+00  0.88000000000E+00 0. -1.
        -11    1    4    4    0    0 -0.87997191441E-01  0.21120359818E-01  0.12733904682E-01  0.91389215719E-01  0.51100000000E-03 0. -1.
         11    1    4    4    0    0 -0.36114028273E-01  0.83588304196E-02 -0.76785471631E-02  0.37859137491E-01  0.51100000000E-03 0.  1.
</event>
<event>
 8    1  0.1097777E+005  0.1043930E+01  0.7957747E-01            NaN
         13   -1    0    0    0    0  0.00000000000E+00  0.00000000000E+00  0.74505805969E-08  0.10566000000E+00  0.10566000000E+00 0. -1.
     999900   -1    0    0    0    0 -0.00000000000E+00 -0.00000000000E+00 -0.74505805969E-08  0.93827000000E+00  0.93827000000E+00 0. -1.
     999902    2    1    2    0    0  0.85250606897E-03 -0.70649116141E-02 -0.19715119945E-01  0.10229699023E+01  0.10227551492E+01 0.  0.
     999903    2    3    3    0    0 -0.12777175177E-01  0.74696262252E-02 -0.13313063678E+00  0.13546773299E+00  0.20216050844E-01 0.  0.
         14    1    1    2    0    0 -0.85250606897E-03  0.70649116141E-02  0.19715119945E-01  0.20960097737E-01  0.00000000000E+00 0. -1.
     999901    1    3    3    0    0  0.13629681246E-01 -0.14534537839E-01  0.11341551683E+00  0.88750216927E+00  0.88000000000E+00 0.  1.
        -11    1    4    4    0    0 -0.95215189204E-03  0.46403295470E-02 -0.10095876299E+00  0.10107112445E+00  0.51100000000E-03 0. -1.
         11    1    4    4    0    0 -0.11825023285E-01  0.28292966782E-02 -0.32171873786E-01  0.34396608543E-01  0.51100000000E-03 0.  1.
</event>
<event>
 8    1  0.1097777E+005  0.1043930E+01  0.7957747E-01            NaN
         13   -1    0    0    0    0  0.00000000000E+00  0.00000000000E+00  0.74505805969E-08  0.10566000000E+00  0.10566000000E+00 0.  1.
     999900   -1    0    0    0    0 -0.00000000000E+00 -0.00000000000E+00 -0.74505805969E-08  0.93827000000E+00  0.93827000000E+00 0. -1.
     999902    2    1    2    0    0  0.47472244693E-02  0.11961041448E-01  0.19820122255E-01  0.10202986670E+01  0.10200249654E+01 0.  0.
     999903    2    3    3    0    0  0.95634407306E-01  0.70622765897E-02  0.89504749735E-01  0.13286392281E+00  0.21116489972E-01 0.  0.
         14    1    1    2    0    0 -0.47472244693E-02 -0.11961041448E-01 -0.19820122255E-01  0.23631332990E-01  0.00000000000E+00 0. -1.
     999901    1    3    3    0    0 -0.90887182836E-01  0.48987648585E-02 -0.69684627480E-01  0.88743474420E+00  0.88000000000E+00 0.  1.
        -11    1    4    4    0    0  0.62080613095E-01  0.14635866920E-01  0.58843014779E-01  0.86781176715E-01  0.51100000000E-03 0. -1.
         11    1    4    4    0    0  0.33553794211E-01 -0.75735903298E-02  0.30661734956E-01  0.46082746098E-01  0.51100000000E-03 0.  1.
</event>
<event>
 8    1  0.1097777E+005  0.1043930E+01  0.7957747E-01            NaN
         13   -1    0    0    0    0  0.00000000000E+00  0.00000000000E+00  0.74505805969E-08  0.10566000000E+00  0.10566000000E+00 0.  1.
     999900   -1    0    0    0    0 -0.00000000000E+00 -0.00000000000E+00 -0.74505805969E-08  0.93827000000E+00  0.93827000000E+00 0.  1.
     999902    2    1    2    0    0  0.71477980817E-02 -0.21486468433E-01 -0.52092111785E-02  0.10206943544E+01  0.10204298457E+01 0.  0.
     999903    2    3    3    0    0  0.50500105109E-01 -0.73341149523E-01 -0.97176210155E-01  0.13332393609E+00  0.20071653772E-01 0.  0.
         14    1    1    2    0    0 -0.71477980817E-02  0.21486468433E-01  0.52092111785E-02  0.23235645552E-01  0.00000000000E+00 0.  1.
     999901    1    3    3    0    0 -0.43352307027E-01  0.51854681090E-01  0.91966998977E-01  0.88737041836E+00  0.88000000000E+00 0. -1.
        -11    1    4    4    0    0  0.22948992774E-01 -0.43425764275E-01 -0.64947802761E-01  0.81430531601E-01  0.51100000000E-03 0.  1.
         11    1    4    4    0    0  0.27551112334E-01 -0.29915385247E-01 -0.32228407394E-01  0.51893404489E-01  0.51100000000E-03 0. -1.
</event>
<event>
 8    1  0.1097777E+005  0.1043930E+01  0.7957747E-01            NaN
         13   -1    0    0    0    0  0.00000000000E+00  0.00000000000E+00  0.74505805969E-08  0.10566000000E+00  0.10566000000E+00 0.  1.
     999900   -1    0    0    0    0 -0.00000000000E+00 -0.00000000000E+00 -0.74505805969E-08  0.93827000000E+00  0.93827000000E+00 0.  1.
     999902    2    1    2    0    0 -0.68843762119E-02  0.12229118075E-01 -0.19187662313E-01  0.10201579082E+01  0.10198808976E+01 0.  0.
     999903    2    3    3    0    0 -0.89225001864E-01  0.51284065249E-01  0.77152503240E-01  0.13022156493E+00  0.20346766578E-01 0.  0.
         14    1    1    2    0    0  0.68843762119E-02 -0.12229118075E-01  0.19187662313E-01  0.23772091826E-01  0.00000000000E+00 0.  1.
     999901    1    3    3    0    0  0.82340625652E-01 -0.39054947174E-01 -0.96340165553E-01  0.88993634325E+00  0.88000000000E+00 0.  1.
        -11    1    4    4    0    0 -0.83461588864E-01  0.48282786814E-01  0.64554117980E-01  0.11603688891E+00  0.51100000000E-03 0.  1.
         11    1    4    4    0    0 -0.57634129993E-02  0.30012784346E-02  0.12598385260E-01  0.14184676020E-01  0.51100000000E-03 0. -1.
</event>
<event>
 8    1  0.1097777E+005  0.1043930E+01  0.7957747E-01            NaN
         13   -1    0    0    0    0  0.00000000000E+00  0.00000000000E+00  0.74505805969E-08  0.10566000000E+00  0.10566000000E+00 0.  1.
     999900   -1    0    0    0    0 -0.00000000000E+00 -0.00000000000E+00 -0.74505805969E-08  0.93827000000E+00  0.93827000000E+00 0.  1.
     999902    2    1    2    0    0  0.93652620735E-02 -0.13615351776E-02 -0.21696493039E-01  0.10202593489E+01  0.10199847251E+01 0.  0.
     999903    2    3    3    0    0 -0.48760810437E-01  0.13283889298E-01  0.11548610519E+00  0.12761597444E+00  0.19867513488E-01 0.  0.
         14    1    1    2    0    0 -0.93652620735E-02  0.13615351776E-02  0.21696493039E-01  0.23670651067E-01  0.00000000000E+00 0.  1.
     999901    1    3    3    0    0  0.58126072510E-01 -0.14645424476E-01 -0.13718259823E+00  0.89264337449E+00  0.88000000000E+00 0.  1.
        -11    1    4    4    0    0 -0.28542479761E-01  0.16763434482E-01  0.61194598284E-01  0.69575325128E-01  0.51100000000E-03 0.  1.
         11    1    4    4    0    0 -0.20218330676E-01 -0.34795451837E-02  0.54291506904E-01  0.58040649315E-01  0.51100000000E-03 0. -1.
</event>
<event>
 8    1  0.1097777E+005  0.1043930E+01  0.7957747E-01            NaN
         13   -1    0    0    0    0  0.00000000000E+00  0.00000000000E+00  0.74505805969E-08  0.10566000000E+00  0.10566000000E+00 0. -1.
     999900   -1    0    0    0    0 -0.00000000000E+00 -0.00000000000E+00 -0.74505805969E-08  0.93827000000E+00  0.93827000000E+00 0.  1.
     999902    2    1    2    0    0 -0.19815274746E-01  0.12068658248E-01  0.52366407480E-02  0.10201451302E+01  0.10198678182E+01 0.  0.
     999903    2    3    3    0    0 -0.83868650063E-01  0.10045363148E+00 -0.14928245429E-01  0.13317198460E+00  0.19673393913E-01 0.  0.
         14    1    1    2    0    0  0.19815274746E-01 -0.12068658248E-01 -0.52366407480E-02  0.23784869802E-01  0.00000000000E+00 0. -1.
     999901    1    3    3    0    0  0.64053375317E-01 -0.88384973237E-01  0.20164886177E-01  0.88697314560E+00  0.88000000000E+00 0. -1.
        -11    1    4    4    0    0 -0.31439244093E-01  0.35599419499E-01  0.39596353841E-02  0.47662192262E-01  0.51100000000E-03 0.  1.
         11    1    4    4    0    0 -0.52429405971E-01  0.64854211985E-01 -0.18887880813E-01  0.85509792335E-01  0.51100000000E-03 0. -1.
</event>
<event>
 8    1  0.1097777E+005  0.1043930E+01  0.7957747E-01            NaN
         13   -1    0    0    0    0  0.00000000000E+00  0.00000000000E+00  0.74505805969E-08  0.10566000000E+00  0.10566000000E+00 0. -1.
     999900   -1    0    0    0    0 -0.00000000000E+00 -0.00000000000E+00 -0.74505805969E-08  0.93827000000E+00  0.93827000000E+00 0. -1.
     999902    2    1    2    0    0  0.10419699794E-03  0.13701962425E-01 -0.19964487352E-01  0.10197156368E+01  0.10194280968E+01 0.  0.
     999903    2    3    3    0    0 -0.78255536758E-01  0.51992949294E-01 -0.91328996326E-01  0.13252944397E+00  0.19896535898E-01 0.  0.
         14    1    1    2    0    0 -0.10419699794E-03 -0.13701962425E-01  0.19964487352E-01  0.24214363228E-01  0.00000000000E+00 0. -1.
     999901    1    3    3    0    0  0.78359733756E-01 -0.38290986869E-01  0.71364508974E-01  0.88718619280E+00  0.88000000000E+00 0.  1.
        -11    1    4    4    0    0 -0.27009028892E-01  0.28398088866E-01 -0.31400379048E-01  0.50221350223E-01  0.51100000000E-03 0. -1.
         11    1    4    4    0    0 -0.51246507866E-01  0.23594860429E-01 -0.59928617278E-01  0.82308093751E-01  0.51100000000E-03 0.  1.
</event>
<event>
 8    1  0.1097777E+005  0.1043930E+01  0.7957747E-01            NaN
         13   -1    0    0    0    0  0.00000000000E+00  0.00000000000E+00  0.74505805969E-08  0.10566000000E+00  0.10566000000E+00 0.  1.
     999900   -1    0    0    0    0 -0.00000000000E+00 -0.00000000000E+00 -0.74505805969E-08  0.93827000000E+00  0.93827000000E+00 0. -1.
     999902    2    1    2    0    0 -0.20588063400E-01  0.11349201484E-01 -0.38005968220E-02  0.10201157760E+01  0.10198377710E+01 0.  0.
     999903    2    3    3    0    0  0.10882582177E+00 -0.61029328125E-01 -0.17495689688E-01  0.12760574199E+00  0.20235806278E-01 0.  0.
         14    1    1    2    0    0  0.20588063400E-01 -0.11349201484E-01  0.38005968220E-02  0.23814224007E-01  0.00000000000E+00 0. -1.
     999901    1    3    3    0    0 -0.12941388517E+00  0.72378529608E-01  0.13695092866E-01  0.89251003400E+00  0.88000000000E+00 0. -1.
        -11    1    4    4    0    0  0.70396648535E-01 -0.49517483629E-01 -0.84840682061E-02  0.86486472030E-01  0.51100000000E-03 0. -1.
         11    1    4    4    0    0  0.38429173238E-01 -0.11511844496E-01 -0.90116214816E-02  0.41119269962E-01  0.51100000000E-03 0.  1.
</event>
<event>
 8    1  0.1097777E+005  0.1043930E+01  0.7957747E-01            NaN
         13   -1    0    0    0    0  0.00000000000E+00  0.00000000000E+00  0.74505805969E-08  0.10566000000E+00  0.10566000000E+00 0. -1.
     999900   -1    0    0    0    0 -0.00000000000E+00 -0.00000000000E+00 -0.74505805969E-08  0.93827000000E+00  0.93827000000E+00 0. -1.
     999902    2    1    2    0    0 -0.11491650560E-01 -0.10315158161E-01  0.17067324484E-01  0.10209136127E+01  0.10206541287E+01 0.  0.
     999903    2    3    3    0    0  0.72481809456E-01 -0.98301443180E-01 -0.42121686857E-01  0.13057858169E+00  0.18966893758E-01 0.  0.
         14    1    1    2    0    0  0.11491650560E-01  0.10315158161E-01 -0.17067324484E-01  0.23016387325E-01  0.00000000000E+00 0.  1.
     999901    1    3    3    0    0 -0.83973460016E-01  0.87986285019E-01  0.59189011341E-01  0.89033503099E+00  0.88000000000E+00 0.  1.
        -11    1    4    4    0    0  0.33287696269E-01 -0.54439981244E-01 -0.13782315815E-01  0.65283961514E-01  0.51100000000E-03 0.  1.
         11    1    4    4    0    0  0.39194113187E-01 -0.43861461935E-01 -0.28339371042E-01  0.65294620174E-01  0.51100000000E-03 0. -1.
</event>
<event>
 7    1  0.1097777E+005  0.1043930E+01  0.7957747E-01            NaN
         13   -1    0    0    0    0  0.00000000000E+00  0.00000000000E+00  0.74505805969E-08  0.10566000000E+00  0.10566000000E+00 0. -1.
     999900   -1    0    0    0    0 -0.00000000000E+00 -0.00000000000E+00 -0.74505805969E-08  0.93827000000E+00  0.93827000000E+00 0. -1.
     999903    2    1    2    0    0 -0.71630986240E-01 -0.92132385162E-01  0.22942493352E-02  0.11843980116E+00  0.20083533902E-01 0.  0.
         14    1    1    2    0    0  0.24476797796E-01  0.34176200210E-01 -0.48864479064E-02  0.42320251231E-01  0.00000000000E+00 0. -1.
     999901    1    1    2    0    0  0.47154188445E-01  0.57956184952E-01  0.25921985712E-02  0.88316994761E+00  0.88000000000E+00 0. -1.
        -11    1    3    3    0    0 -0.44053500771E-01 -0.71352128898E-01  0.49754337425E-03  0.83859083580E-01  0.51100000000E-03 0.  1.
         11    1    3    3    0    0 -0.27577485469E-01 -0.20780256264E-01  0.17967059609E-02  0.34580717582E-01  0.51100000000E-03 0. -1.
</event>
<event>
 8    1  0.1097777E+005  0.1043930E+01  0.7957747E-01            NaN
         13   -1    0    0    0    0  0.00000000000E+00  0.00000000000E+00  0.74505805969E-08  0.10566000000E+00  0.10566000000E+00 0. -1.
     999900   -1    0    0    0    0 -0.00000000000E+00 -0.00000000000E+00 -0.74505805969E-08  0.93827000000E+00  0.93827000000E+00 0.  1.
     999902    2    1    2    0    0 -0.19759122986E-01 -0.68297499835E-02 -0.11061178309E-01  0.10202779791E+01  0.10200037924E+01 0.  0.
     999903    2    3    3    0    0 -0.35172862171E-01  0.34394214187E-01  0.11852270197E+00  0.12970008775E+00  0.18825240414E-01 0.  0.
         14    1    1    2    0    0  0.19759122986E-01  0.68297499835E-02  0.11061178309E-01  0.23652020877E-01  0.00000000000E+00 0. -1.
     999901    1    3    3    0    0  0.15413739185E-01 -0.41223964170E-01 -0.12958388028E+00  0.89057789137E+00  0.88000000000E+00 0.  1.
        -11    1    4    4    0    0 -0.16607180087E-01  0.25610185286E-01  0.85728162291E-01  0.91001422800E-01  0.51100000000E-03 0. -1.
         11    1    4    4    0    0 -0.18565682084E-01  0.87840289001E-02  0.32794539679E-01  0.38698664947E-01  0.51100000000E-03 0.  1.
</event>
<event>
 8    1  0.1097777E+005  0.1043930E+01  0.7957747E-01            NaN
         13   -1    0    0    0    0  0.00000000000E+00  0.00000000000E+00  0.74505805969E-08  0.10566000000E+00  0.10566000000E+00 0. -1.
     999900   -1    0    0    0    0 -0.00000000000E+00 -0.00000000000E+00 -0.74505805969E-08  0.93827000000E+00  0.93827000000E+00 0.  1.
     999902    2    1    2    0    0 -0.66409539768E-02 -0.63157544328E-02 -0.22160242063E-01  0.10199494380E+01  0.10196674893E+01 0.  0.
     999903    2    3    3    0    0 -0.56740064306E-01 -0.66046295765E-01 -0.97089869573E-01  0.13333108299E+00  0.27734217789E-01 0.  0.
         14    1    1    2    0    0  0.66409539768E-02  0.63157544328E-02  0.22160242063E-01  0.23980561964E-01  0.00000000000E+00 0. -1.
     999901    1    3    3    0    0  0.50099110329E-01  0.59730541332E-01  0.74929627510E-01  0.88661835504E+00  0.88000000000E+00 0. -1.
        -11    1    4    4    0    0 -0.32722569901E-01 -0.30531189859E-01 -0.30608552104E-01  0.54222363634E-01  0.51100000000E-03 0. -1.
         11    1    4    4    0    0 -0.24017494405E-01 -0.35515105905E-01 -0.66481317470E-01  0.79108719358E-01  0.51100000000E-03 0.  1.
</event>
<event>
 8    1  0.1097777E+005  0.1043930E+01  0.7957747E-01            NaN
         13   -1    0    0    0    0  0.00000000000E+00  0.00000000000E+00  0.74505805969E-08  0.10566000000E+00  0.10566000000E+00 0.  1.
     999900   -1    0    0    0    0 -0.00000000000E+00 -0.00000000000E+00 -0.74505805969E-08  0.93827000000E+00  0.93827000000E+00 0. -1.
     999902    2    1    2    0    0 -0.15381079934E-01  0.18000865987E-01 -0.22717535196E-02  0.10201440869E+01  0.10198667503E+01 0.  0.
     999903    2    3    3    0    0  0.56302368778E-01  0.10801927515E+00 -0.46174737097E-01  0.13156696436E+00  0.18429303585E-01 0.  0.
         14    1    1    2    0    0  0.15381079934E-01 -0.18000865987E-01  0.22717535196E-02  0.23785913064E-01  0.00000000000E+00 0.  1.
     999901    1    3    3    0    0 -0.71683448712E-01 -0.90018409158E-01  0.43902983578E-01  0.88857712258E+00  0.88000000000E+00 0.  1.
        -11    1    4    4    0    0  0.22831746964E-01  0.46275964420E-01 -0.99996282678E-02  0.52564315262E-01  0.51100000000E-03 0.  1.
         11    1    4    4    0    0  0.33470621815E-01  0.61743310725E-01 -0.36175108829E-01  0.79002649094E-01  0.51100000000E-03 0. -1.
</event>
<event>
 8    1  0.1097777E+005  0.1043930E+01  0.7957747E-01            NaN
         13   -1    0    0    0    0  0.00000000000E+00  0.00000000000E+00  0.74505805969E-08  0.10566000000E+00  0.10566000000E+00 0.  1.
     999900   -1    0    0    0    0 -0.00000000000E+00 -0.00000000000E+00 -0.74505805969E-08  0.93827000000E+00  0.93827000000E+00 0.  1.
     999902    2    1    2    0    0 -0.21404940981E-01 -0.17873741521E-02  0.97601215961E-02  0.10203370736E+01  0.10200642713E+01 0.  0.
     999903    2    3    3    0    0  0.10802517505E+00  0.55974386681E-01 -0.35658399911E-01  0.12783978053E+00  0.16398707104E-01 0.  0.
         14    1    1    2    0    0  0.21404940981E-01  0.17873741521E-02 -0.97601215961E-02  0.23592926447E-01  0.00000000000E+00 0. -1.
     999901    1    3    3    0    0 -0.12943011603E+00 -0.57761760833E-01  0.45418521507E-01  0.89249729302E+00  0.88000000000E+00 0.  1.
        -11    1    4    4    0    0  0.29807699679E-01  0.10951787202E-01 -0.15609011821E-01  0.35388458205E-01  0.51100000000E-03 0. -1.
         11    1    4    4    0    0  0.78217475367E-01  0.45022599478E-01 -0.20049388090E-01  0.92451322329E-01  0.51100000000E-03 0.  1.
</event>
<event>
 7    1  0.1097777E+005  0.1043930E+01  0.7957747E-01            NaN
         13   -1    0    0    0    0  0.00000000000E+00  0.00000000000E+00  0.74505805969E-08  0.10566000000E+00  0.10566000000E+00 0. -1.
     999900   -1    0    0    0    0 -0.00000000000E+00 -0.00000000000E+00 -0.74505805969E-08  0.93827000000E+00  0.93827000000E+00 0.  1.
     999902    2    1    2    0    0  0.20904742606E-01 -0.64928890717E-02  0.99607070038E-02  0.10198804354E+01  0.10195968424E+01 0.  0.
         14    1    1    2    0    0 -0.20904742606E-01  0.64928890717E-02 -0.99607070038E-02  0.24049564569E-01  0.00000000000E+00 0.  1.
     999901    1    3    3    0    0 -0.58226240580E-01  0.64951475302E-01  0.75650657552E-01  0.88754268135E+00  0.88000000000E+00 0. -1.
        -11    1    3    3    0    0  0.35068798590E-01 -0.58400284169E-02 -0.16038686730E-01  0.39005476020E-01  0.51100000000E-03 0. -1.
         11    1    3    3    0    0  0.44062184596E-01 -0.65604335957E-01 -0.49651263818E-01  0.93332278058E-01  0.51100000000E-03 0.  1.
</event>
<event>
 8    1  0.1097777E+005  0.1043930E+01  0.7957747E-01            NaN
         13   -1    0    0    0    0  0.00000000000E+00  0.00000000000E+00  0.74505805969E-08  0.10566000000E+00  0.10566000000E+00 0.  1.
     999900   -1    0    0    0    0 -0.00000000000E+00 -0.00000000000E+00 -0.74505805969E-08  0.93827000000E+00  0.93827000000E+00 0.  1.
     999902    2    1    2    0    0 -0.20636869743E-02  0.20601320547E-01  0.11135194396E-01  0.10204211556E+01  0.10201503168E+01 0.  0.
     999903    2    3    3    0    0 -0.90885549598E-01  0.37822185218E-01 -0.83778541183E-01  0.13070519041E+00  0.19346886492E-01 0.  0.
         14    1    1    2    0    0  0.20636869743E-02 -0.20601320547E-01 -0.11135194396E-01  0.23508844430E-01  0.00000000000E+00 0. -1.
     999901    1    3    3    0    0  0.88821862623E-01 -0.17220864671E-01  0.94913735579E-01  0.88971596516E+00  0.88000000000E+00 0. -1.
        -11    1    4    4    0    0 -0.26262168076E-01  0.10693760728E-01 -0.36229885274E-01  0.46010039106E-01  0.51100000000E-03 0. -1.
         11    1    4    4    0    0 -0.64623381522E-01  0.27128424490E-01 -0.47548655909E-01  0.84695151304E-01  0.51100000000E-03 0.  1.
</event>
<event>
 8    1  0.1097777E+005  0.1043930E+01  0.7957747E-01            NaN
         13   -1    0    0    0    0  0.00000000000E+00  0.00000000000E+00  0.74505805969E-08  0.10566000000E+00  0.10566000000E+00 0.  1.
     999900   -1    0    0    0    0 -0.00000000000E+00 -0.00000000000E+00 -0.74505805969E-08  0.93827000000E+00  0.93827000000E+00 0.  1.
     999902    2    1    2    0    0 -0.18290220898E-01 -0.58304305168E-02  0.14496032365E-01  0.10198746252E+01  0.10195908935E+01 0.  0.
     999903    2    3    3    0    0 -0.91530450180E-01  0.70796891347E-01  0.60891534700E-01  0.13230016624E+00  0.20137821460E-01 0.  0.
         14    1    1    2    0    0  0.18290220898E-01  0.58304305168E-02 -0.14496032365E-01  0.24055374759E-01  0.00000000000E+00 0. -1.
     999901    1    3    3    0    0  0.73240229283E-01 -0.76627321864E-01 -0.46395502335E-01  0.88757445901E+00  0.88000000000E+00 0.  1.
        -11    1    4    4    0    0 -0.26963260221E-01  0.32855170228E-01  0.20073051236E-01  0.47007107115E-01  0.51100000000E-03 0. -1.
         11    1    4    4    0    0 -0.64567189959E-01  0.37941721119E-01  0.40818483465E-01  0.85293059120E-01  0.51100000000E-03 0.  1.
</event>
<event>
 8    1  0.1097777E+005  0.1043930E+01  0.7957747E-01            NaN
         13   -1    0    0    0    0  0.00000000000E+00  0.00000000000E+00  0.74505805969E-08  0.10566000000E+00  0.10566000000E+00 0. -1.
     999900   -1    0    0    0    0 -0.00000000000E+00 -0.00000000000E+00 -0.74505805969E-08  0.93827000000E+00  0.93827000000E+00 0.  1.
     999902    2    1    2    0    0  0.55107738987E-02 -0.22970587674E-01  0.20023754841E-02  0.10202229117E+01  0.10199474318E+01 0.  0.
     999903    2    3    3    0    0  0.83259940755E-01 -0.93801931797E-01  0.39973170492E-01  0.13314693215E+00  0.19980766719E-01 0.  0.
         14    1    1    2    0    0 -0.55107738987E-02  0.22970587674E-01 -0.20023754841E-02  0.23707088278E-01  0.00000000000E+00 0. -1.
     999901    1    3    3    0    0 -0.77749166857E-01  0.70831344123E-01 -0.37970795008E-01  0.88707597957E+00  0.88000000000E+00 0. -1.
        -11    1    4    4    0    0  0.98057118826E-02 -0.11211165302E-01  0.11993914311E-01  0.19130010833E-01  0.51100000000E-03 0. -1.
         11    1    4    4    0    0  0.73454228873E-01 -0.82590766495E-01  0.27979256181E-01  0.11401692132E+00  0.51100000000E-03 0.  1.
</event>
<event>
 8    1  0.1097777E+005  0.1043930E+01  0.7957747E-01            NaN
         13   -1    0    0    0    0  0.00000000000E+00  0.00000000000E+00  0.74505805969E-08  0.10566000000E+00  0.10566000000E+00 0. -1.
     999900   -1    0    0    0    0 -0.00000000000E+00 -0.00000000000E+00 -0.74505805969E-08  0.93827000000E+00  0.93827000000E+00 0. -1.
     999902    2    1    2    0    0 -0.13300581942E-01  0.14410893353E-01 -0.14584833519E-01  0.10194903458E+01  0.10191973649E+01 0.  0.
     999903    2    3    3    0    0 -0.30127791130E-01 -0.49457582422E-01 -0.11628502027E+00  0.13117437437E+00  0.18187201380E-01 0.  0.
         14    1    1    2    0    0  0.13300581942E-01 -0.14410893353E-01  0.14584833519E-01  0.24439654171E-01  0.00000000000E+00 0.  1.
     999901    1    3    3    0    0  0.16827209188E-01  0.63868475775E-01  0.10170018675E+00  0.88831597146E+00  0.88000000000E+00 0.  1.
        -11    1    4    4    0    0 -0.58434920122E-02 -0.19301754641E-01 -0.56021066101E-01  0.59542632620E-01  0.51100000000E-03 0. -1.
         11    1    4    4    0    0 -0.24284299118E-01 -0.30155827780E-01 -0.60263954170E-01  0.71631741748E-01  0.51100000000E-03 0.  1.
</event>
<event>
 8    1  0.1097777E+005  0.1043930E+01  0.7957747E-01            NaN
         13   -1    0    0    0    0  0.00000000000E+00  0.00000000000E+00  0.74505805969E-08  0.10566000000E+00  0.10566000000E+00 0.  1.
     999900   -1    0    0    0    0 -0.00000000000E+00 -0.00000000000E+00 -0.74505805969E-08  0.93827000000E+00  0.93827000000E+00 0.  1.
     999902    2    1    2    0    0 -0.74279512973E-02  0.19312329337E-01  0.10742855029E-01  0.10206158528E+01  0.10203495330E+01 0.  0.
     999903    2    3    3    0    0 -0.78935367322E-01 -0.12387856853E-01 -0.10044195935E+00  0.13017760380E+00  0.21757070603E-01 0.  0.
         14    1    1    2    0    0  0.74279512973E-02 -0.19312329337E-01 -0.10742855029E-01  0.23314147187E-01  0.00000000000E+00 0.  1.
     999901    1    3    3    0    0  0.71507416025E-01  0.31700186190E-01  0.11118481438E+00  0.89043824901E+00  0.88000000000E+00 0. -1.
        -11    1    4    4    0    0 -0.47905472273E-01 -0.60397056006E-02 -0.76523627919E-01  0.90485021237E-01  0.51100000000E-03 0. -1.
         11    1    4    4    0    0 -0.31029895049E-01 -0.63481512527E-02 -0.23918331436E-01  0.39692582566E-01  0.51100000000E-03 0.  1.
</event>
<event>
 8    1  0.1097777E+005  0.1043930E+01  0.7957747E-01            NaN
         13   -1    0    0    0    0  0.00000000000E+00  0.00000000000E+00  0.74505805969E-08  0.10566000000E+00  0.10566000000E+00 0. -1.
     999900   -1    0    0    0    0 -0.00000000000E+00 -0.00000000000E+00 -0.74505805969E-08  0.93827000000E+00  0.93827000000E+00 0. -1.
     999902    2    1    2    0    0 -0.17189142434E-01 -0.15779154730E-01  0.72915279924E-02  0.10194838403E+01  0.10191907015E+01 0.  0.
     999903    2    3    3    0    0  0.95170665676E-01  0.67531823932E-01 -0.45370862496E-01  0.12688159241E+00  0.20552870349E-01 0.  0.
         14    1    1    2    0    0  0.17189142434E-01  0.15779154730E-01 -0.72915279924E-02  0.24446159659E-01  0.00000000000E+00 0.  1.
     999901    1    3    3    0    0 -0.11235980811E+00 -0.83310978661E-01  0.52662390488E-01  0.89260224793E+00  0.88000000000E+00 0.  1.
        -11    1    4    4    0    0  0.12387435925E-01  0.15829146016E-01 -0.13451078735E-01  0.24190970889E-01  0.51100000000E-03 0. -1.
         11    1    4    4    0    0  0.82783229751E-01  0.51702677915E-01 -0.31919783761E-01  0.10269062152E+00  0.51100000000E-03 0.  1.
</event>
<event>
 8    1  0.1097777E+005  0.1043930E+01  0.7957747E-01            NaN
         13   -1    0    0    0    0  0.00000000000E+00  0.00000000000E+00  0.74505805969E-08  0.10566000000E+00  0.10566000000E+00 0.  1.
     999900   -1    0    0    0    0 -0.00000000000E+00 -0.00000000000E+00 -0.74505805969E-08  0.93827000000E+00  0.93827000000E+00 0. -1.
     999902    2    1    2    0    0 -0.60026305249E-02 -0.54530945847E-02 -0.21726006372E-01  0.10207397614E+01  0.10204762973E+01 0.  0.
     999903    2    3    3    0    0 -0.50079429657E-01  0.79832666809E-01  0.85774737043E-01  0.12901512051E+00  0.20159162714E-01 0.  0.
         14    1    1    2    0    0  0.60026305249E-02  0.54530945847E-02  0.21726006372E-01  0.23190238607E-01  0.00000000000E+00 0.  1.
     999901    1    3    3    0    0  0.44076799132E-01 -0.85285761394E-01 -0.10750074342E+00  0.89172464088E+00  0.88000000000E+00 0. -1.
        -11    1    4    4    0    0 -0.38912965027E-01  0.50183529221E-01  0.66377056294E-01  0.91862833483E-01  0.51100000000E-03 0.  1.
         11    1    4    4    0    0 -0.11166464629E-01  0.29649137589E-01  0.19397680750E-01  0.37152287030E-01  0.51100000000E-03 0. -1.
</event>
<event>
 8    1  0.1097777E+005  0.1043930E+01  0.7957747E-01            NaN
         13   -1    0    0    0    0  0.00000000000E+00  0.00000000000E+00  0.74505805969E-08  0.10566000000E+00  0.10566000000E+00 0. -1.
     999900   -1    0    0    0    0 -0.00000000000E+00 -0.00000000000E+00 -0.74505805969E-08  0.93827000000E+00  0.93827000000E+00 0. -1.
     999902    2    1    2    0    0  0.18907030602E-01 -0.15179242989E-01  0.35075787516E-02  0.10194312586E+01  0.10191368419E+01 0.  0.
     999903    2    3    3    0    0  0.46228678771E-01  0.10483509070E+00  0.56285575884E-01  0.12929900448E+00  0.20559171281E-01 0.  0.
         14    1    1    2    0    0 -0.18907030602E-01  0.15179242989E-01 -0.35075787516E-02  0.24498741449E-01  0.00000000000E+00 0.  1.
     999901    1    3    3    0    0 -0.27321648168E-01 -0.12001433369E+00 -0.52777997133E-01  0.89013225407E+00  0.88000000000E+00 0.  1.
        -11    1    4    4    0    0  0.35822448580E-01  0.66635377370E-01  0.45410140077E-01  0.88237538963E-01  0.51100000000E-03 0.  1.
         11    1    4    4    0    0  0.10406230191E-01  0.38199713334E-01  0.10875435808E-01  0.41061465519E-01  0.51100000000E-03 0. -1.
</event>
<event>
 8    1  0.1097777E+005  0.1043930E+01  0.7957747E-01            NaN
         13   -1    0    0    0    0  0.00000000000E+00  0.00000000000E+00  0.74505805969E-08  0.10566000000E+00  0.10566000000E+00 0. -1.
     999900   -1    0    0    0    0 -0.00000000000E+00 -0.00000000000E+00 -0.74505805969E-08  0.93827000000E+00  0.93827000000E+00 0. -1.
     999902    2    1    2    0    0 -0.12136233461E-01 -0.13506078708E-01  0.13265320674E-01  0.10214428691E+01  0.10211953113E+01 0.  0.
     999903    2    3    3    0    0 -0.68230759974E-01  0.99697629523E-01 -0.44349748968E-01  0.13055501322E+00  0.21969462980E-01 0.  0.
         14    1    1    2    0    0  0.12136233461E-01  0.13506078708E-01 -0.13265320674E-01  0.22487130926E-01  0.00000000000E+00 0.  1.
     999901    1    3    3    0    0  0.56094526513E-01 -0.11320370823E+00  0.57615069642E-01  0.89088785586E+00  0.88000000000E+00 0.  1.
        -11    1    4    4    0    0 -0.43875678626E-01  0.47734394103E-01 -0.17276894801E-01  0.67099923772E-01  0.51100000000E-03 0. -1.
         11    1    4    4    0    0 -0.24355081348E-01  0.51963235421E-01 -0.27072854168E-01  0.63455089446E-01  0.51100000000E-03 0.  1.
</event>
<event>
 8    1  0.1097777E+005  0.1043930E+01  0.7957747E-01            NaN
         13   -1    0    0    0    0  0.00000000000E+00  0.00000000000E+00  0.74505805969E-08  0.10566000000E+00  0.10566000000E+00 0.  1.
     999900   -1    0    0    0    0 -0.00000000000E+00 -0.00000000000E+00 -0.74505805969E-08  0.93827000000E+00  0.93827000000E+00 0.  1.
     999902    2    1    2    0    0 -0.15781841734E-01 -0.58350853293E-02 -0.15333437845E-01  0.10211653549E+01  0.10209115794E+01 0.  0.
     999903    2    3    3    0    0 -0.34020961236E-01 -0.29185739853E-02  0.12382251662E+00  0.13003935307E+00  0.20304527736E-01 0.  0.
         14    1    1    2    0    0  0.15781841734E-01  0.58350853293E-02  0.15333437845E-01  0.22764645077E-01  0.00000000000E+00 0.  1.
     999901    1    3    3    0    0  0.18239119502E-01 -0.29165113439E-02 -0.13915595447E+00  0.89112600185E+00  0.88000000000E+00 0.  1.
        -11    1    4    4    0    0 -0.15249118163E-01  0.85695044810E-02  0.48229850399E-01  0.51306447960E-01  0.51100000000E-03 0.  1.
         11    1    4    4    0    0 -0.18771843073E-01 -0.11488078466E-01  0.75592666222E-01  0.78732905108E-01  0.51100000000E-03 0. -1.
</event>
<event>
 8    1  0.1097777E+005  0.1043930E+01  0.7957747E-01            NaN
         13   -1    0    0    0    0  0.00000000000E+00  0.00000000000E+00  0.74505805969E-08  0.10566000000E+00  0.10566000000E+00 0.  1.
     999900   -1    0    0    0    0 -0.00000000000E+00 -0.00000000000E+00 -0.74505805969E-08  0.93827000000E+00  0.93827000000E+00 0. -1.
     999902    2    1    2    0    0 -0.18311058678E-01 -0.12038197996E-02 -0.14817743705E-01  0.10203437841E+01  0.10200711388E+01 0.  0.
     999903    2    3    3    0    0  0.74672657313E-01 -0.62488526169E-01 -0.84775660775E-01  0.13057083731E+00  0.19519458071E-01 0.  0.
         14    1    1    2    0    0  0.18311058678E-01  0.12038197996E-02  0.14817743705E-01  0.23586215901E-01  0.00000000000E+00 0. -1.
     999901    1    3    3    0    0 -0.92983715991E-01  0.61284706369E-01  0.69957917070E-01  0.88977294679E+00  0.88000000000E+00 0.  1.
        -11    1    4    4    0    0  0.53082573126E-01 -0.48234443289E-01 -0.72306936351E-01  0.10184731344E+00  0.51100000000E-03 0. -1.
         11    1    4    4    0    0  0.21590084186E-01 -0.14254082880E-01 -0.12468724425E-01  0.28723523873E-01  0.51100000000E-03 0.  1.
</event>
<event>
 8    1  0.1200397E+005  0.1043930E+01  0.7957747E-01            NaN
         13   -1    0    0    0    0  0.00000000000E+00  0.00000000000E+00  0.74505805969E-08  0.10566000000E+00  0.10566000000E+00 0.  1.
     999900   -1    0    0    0    0 -0.00000000000E+00 -0.00000000000E+00 -0.74505805969E-08  0.93827000000E+00  0.93827000000E+00 0. -1.
     999902    2    1    2    0    0 -0.10823600264E-02  0.18842689004E-01 -0.15593526734E-01  0.10194478329E+01  0.10191538193E+01 0.  0.
     999903    2    3    3    0    0  0.93862903432E-01 -0.42039332785E-01  0.72913055998E-01  0.12784554550E+00  0.21227803172E-01 0.  0.
         14    1    1    2    0    0  0.10823600264E-02 -0.18842689004E-01  0.15593526734E-01  0.24482167145E-01  0.00000000000E+00 0.  1.
     999901    1    3    3    0    0 -0.94945263458E-01  0.60882021788E-01 -0.88506582732E-01  0.89160228736E+00  0.88000000000E+00 0. -1.
        -11    1    4    4    0    0  0.34415868373E-01 -0.45542970930E-02  0.23096548175E-01  0.41700183171E-01  0.51100000000E-03 0.  1.
         11    1    4    4    0    0  0.59447035059E-01 -0.37485035692E-01  0.49816507824E-01  0.86145362329E-01  0.51100000000E-03 0. -1.
</event>
<event>
 8    1  0.1097777E+005  0.1043930E+01  0.7957747E-01            NaN
         13   -1    0    0    0    0  0.00000000000E+00  0.00000000000E+00  0.74505805969E-08  0.10566000000E+00  0.10566000000E+00 0.  1.
     999900   -1    0    0    0    0 -0.00000000000E+00 -0.00000000000E+00 -0.74505805969E-08  0.93827000000E+00  0.93827000000E+00 0. -1.
     999902    2    1    2    0    0  0.37966827385E-02 -0.91049861428E-02  0.21482262410E-01  0.10202909820E+01  0.10200171003E+01 0.  0.
     999903    2    3    3    0    0 -0.81336642353E-01 -0.10090056365E+00 -0.37745903336E-02  0.13107108813E+00  0.19204412986E-01 0.  0.
         14    1    1    2    0    0 -0.37966827385E-02  0.91049861428E-02 -0.21482262410E-01  0.23639017973E-01  0.00000000000E+00 0. -1.
     999901    1    3    3    0    0  0.85133325091E-01  0.91795577504E-01  0.25256852744E-01  0.88921989390E+00  0.88000000000E+00 0.  1.
        -11    1    4    4    0    0 -0.62603334576E-01 -0.83541322390E-01 -0.97062358017E-02  0.10484656495E+00  0.51100000000E-03 0. -1.
         11    1    4    4    0    0 -0.18733307777E-01 -0.17359241257E-01  0.59316454681E-02  0.26224523184E-01  0.51100000000E-03 0.  1.
</event>
<event>
 8    1  0.1097777E+005  0.1043930E+01  0.7957747E-01            NaN
         13   -1    0    0    0    0  0.00000000000E+00  0.00000000000E+00  0.74505805969E-08  0.10566000000E+00  0.10566000000E+00 0. -1.
     999900   -1    0    0    0    0 -0.00000000000E+00 -0.00000000000E+00 -0.74505805969E-08  0.93827000000E+00  0.93827000000E+00 0.  1.
     999902    2    1    2    0    0  0.13662434863E-01  0.40868593170E-02 -0.18976405545E-01  0.10201925083E+01  0.10199163130E+01 0.  0.
     999903    2    3    3    0    0 -0.10811824075E+00 -0.45014787110E-01  0.47512035890E-01  0.12796932013E+00  0.20071579368E-01 0.  0.
         14    1    1    2    0    0 -0.13662434863E-01 -0.40868593170E-02  0.18976405545E-01  0.23737491714E-01  0.00000000000E+00 0. -1.
     999901    1    3    3    0    0  0.12178067562E+00  0.49101646427E-01 -0.66488441435E-01  0.89222318815E+00  0.88000000000E+00 0.  1.
        -11    1    4    4    0    0 -0.20364805535E-01 -0.67495540158E-02  0.87247661833E-03  0.21477991534E-01  0.51100000000E-03 0. -1.
         11    1    4    4    0    0 -0.87753435219E-01 -0.38265233094E-01  0.46639559271E-01  0.10649132860E+00  0.51100000000E-03 0.  1.
</event>
<event>
 8    1  0.1097777E+005  0.1043930E+01  0.7957747E-01            NaN
         13   -1    0    0    0    0  0.00000000000E+00  0.00000000000E+00  0.74505805969E-08  0.10566000000E+00  0.10566000000E+00 0.  1.
     999900   -1    0    0    0    0 -0.00000000000E+00 -0.00000000000E+00 -0.74505805969E-08  0.93827000000E+00  0.93827000000E+00 0. -1.
     999902    2    1    2    0    0 -0.89800976727E-02 -0.43497753685E-02 -0.20253521338E-01  0.10213519614E+01  0.10211023755E+01 0.  0.
     999903    2    3    3    0    0 -0.12196798743E-01  0.48878310371E-01  0.11713764212E+00  0.12909644415E+00  0.20169619894E-01 0.  0.
         14    1    1    2    0    0  0.89800976727E-02  0.43497753685E-02  0.20253521338E-01  0.22578038589E-01  0.00000000000E+00 0.  1.
     999901    1    3    3    0    0  0.32167010699E-02 -0.53228085740E-01 -0.13739116346E+00  0.89225551726E+00  0.88000000000E+00 0. -1.
        -11    1    4    4    0    0 -0.29342233432E-02  0.46018658051E-02  0.34082162986E-01  0.34520164981E-01  0.51100000000E-03 0. -1.
         11    1    4    4    0    0 -0.92625753994E-02  0.44276444566E-01  0.83055479137E-01  0.94576279173E-01  0.51100000000E-03 0.  1.
</event>
<event>
 8    1  0.1097777E+005  0.1043930E+01  0.7957747E-01            NaN
         13   -1    0    0    0    0  0.00000000000E+00  0.00000000000E+00  0.74505805969E-08  0.10566000000E+00  0.10566000000E+00 0. -1.
     999900   -1    0    0    0    0 -0.00000000000E+00 -0.00000000000E+00 -0.74505805969E-08  0.93827000000E+00  0.93827000000E+00 0. -1.
     999902    2    1    2    0    0  0.15342677480E-01 -0.16994804935E-01  0.51133303861E-02  0.10204700918E+01  0.10202003925E+01 0.  0.
     999903    2    3    3    0    0  0.87337180330E-01 -0.85959400007E-01  0.49772391927E-01  0.13371547204E+00  0.19640136139E-01 0.  0.
         14    1    1    2    0    0 -0.15342677480E-01  0.16994804935E-01 -0.51133303861E-02  0.23459908241E-01  0.00000000000E+00 0.  1.
     999901    1    3    3    0    0 -0.71994502850E-01  0.68964595072E-01 -0.44659061540E-01  0.88675461972E+00  0.88000000000E+00 0. -1.
        -11    1    4    4    0    0  0.30630607699E-01 -0.41088063476E-01  0.14534340148E-01  0.53272612596E-01  0.51100000000E-03 0.  1.
         11    1    4    4    0    0  0.56706572630E-01 -0.44871336530E-01  0.35238051779E-01  0.80442859445E-01  0.51100000000E-03 0. -1.
</event>
<event>
 8    1  0.1097777E+005  0.1043930E+01  0.7957747E-01            NaN
         13   -1    0    0    0    0  0.00000000000E+00  0.00000000000E+00  0.74505805969E-08  0.10566000000E+00  0.10566000000E+00 0.  1.
     999900   -1    0    0    0    0 -0.00000000000E+00 -0.00000000000E+00 -0.74505805969E-08  0.93827000000E+00  0.93827000000E+00 0. -1.
     999902    2    1    2    0    0  0.15461239329E-01 -0.16979516829E-02  0.17796368002E-01  0.10202943558E+01  0.10200205532E+01 0.  0.
     999903    2    3    3    0    0  0.50743228397E-02 -0.61034483509E-01 -0.11161268650E+00  0.12879258049E+00  0.19472546601E-01 0.  0.
         14    1    1    2    0    0 -0.15461239329E-01  0.16979516829E-02 -0.17796368002E-01  0.23635644175E-01  0.00000000000E+00 0. -1.
     999901    1    3    3    0    0  0.10386916489E-01  0.59336531826E-01  0.12940905450E+00  0.89150177534E+00  0.88000000000E+00 0. -1.
        -11    1    4    4    0    0  0.19113811348E-02 -0.41279024968E-01 -0.55347880863E-01  0.69074310110E-01  0.51100000000E-03 0. -1.
         11    1    4    4    0    0  0.31629417049E-02 -0.19755458541E-01 -0.56264805638E-01  0.59718270377E-01  0.51100000000E-03 0.  1.
</event>
<event>
 8    1  0.1097777E+005  0.1043930E+01  0.7957747E-01            NaN
         13   -1    0    0    0    0  0.00000000000E+00  0.00000000000E+00  0.74505805969E-08  0.10566000000E+00  0.10566000000E+00 0. -1.
     999900   -1    0    0    0    0 -0.00000000000E+00 -0.00000000000E+00 -0.74505805969E-08  0.93827000000E+00  0.93827000000E+00 0.  1.
     999902    2    1    2    0    0  0.37786061487E-02  0.18072757021E-01  0.14139755082E-01  0.10206741387E+01  0.10204091642E+01 0.  0.
     999903    2    3    3    0    0  0.36280666259E-01  0.75227799974E-01  0.10266000691E+00  0.13379256948E+00  0.19643472097E-01 0.  0.
         14    1    1    2    0    0 -0.37786061487E-02 -0.18072757021E-01 -0.14139755082E-01  0.23255861294E-01  0.00000000000E+00 0. -1.
     999901    1    3    3    0    0 -0.32502060110E-01 -0.57155042953E-01 -0.88520251830E-01  0.88688156922E+00  0.88000000000E+00 0.  1.
        -11    1    4    4    0    0  0.14370037711E-01  0.33131242687E-01  0.29728560850E-01  0.46778474505E-01  0.51100000000E-03 0.  1.
         11    1    4    4    0    0  0.21910628548E-01  0.42096557287E-01  0.72931446062E-01  0.87014094976E-01  0.51100000000E-03 0. -1.
</event>
<event>
 8    1  0.1097777E+005  0.1043930E+01  0.7957747E-01            NaN
         13   -1    0    0    0    0  0.00000000000E+00  0.00000000000E+00  0.74505805969E-08  0.10566000000E+00  0.10566000000E+00 0.  1.
     999900   -1    0    0    0    0 -0.00000000000E+00 -0.00000000000E+00 -0.74505805969E-08  0.93827000000E+00  0.93827000000E+00 0.  1.
     999902    2    1    2    0    0  0.18984386139E-01 -0.13434837412E-01  0.63294605634E-02  0.10198268084E+01  0.10195419341E+01 0.  0.
     999903    2    3    3    0    0 -0.77996601393E-01  0.94142067844E-01  0.30831195532E-01  0.12765057162E+00  0.19947607652E-01 0.  0.
         14    1    1    2    0    0 -0.18984386139E-01  0.13434837412E-01 -0.63294605634E-02  0.24103191581E-01  0.00000000000E+00 0. -1.
     999901    1    3    3    0    0  0.96980987532E-01 -0.10757690526E+00 -0.24501734968E-01  0.89217623680E+00  0.88000000000E+00 0.  1.
        -11    1    4    4    0    0 -0.44254780011E-01  0.54942116552E-01  0.76330573850E-02  0.70962288655E-01  0.51100000000E-03 0.  1.
         11    1    4    4    0    0 -0.33741821382E-01  0.39199951291E-01  0.23198138147E-01  0.56688282968E-01  0.51100000000E-03 0. -1.
</event>
<event>
 8    1  0.1097777E+005  0.1043930E+01  0.7957747E-01            NaN
         13   -1    0    0    0    0  0.00000000000E+00  0.00000000000E+00  0.74505805969E-08  0.10566000000E+00  0.10566000000E+00 0. -1.
     999900   -1    0    0    0    0 -0.00000000000E+00 -0.00000000000E+00 -0.74505805969E-08  0.93827000000E+00  0.93827000000E+00 0. -1.
     999902    2    1    2    0    0  0.14387688809E-01  0.13687920077E-01 -0.15517730846E-01  0.10187275256E+01  0.10184157337E+01 0.  0.
     999903    2    3    3    0    0  0.45666623329E-01 -0.30313743218E-01  0.11355389305E+00  0.12767533733E+00  0.20053469085E-01 0.  0.
         14    1    1    2    0    0 -0.14387688809E-01 -0.13687920077E-01  0.15517730846E-01  0.25202474401E-01  0.00000000000E+00 0. -1.
     999901    1    3    3    0    0 -0.31278934520E-01  0.44001663295E-01 -0.12907162390E+00  0.89105218827E+00  0.88000000000E+00 0. -1.
        -11    1    4    4    0    0  0.55112649590E-02 -0.44288167778E-02  0.35174618320E-01  0.35881796979E-01  0.51100000000E-03 0.  1.
         11    1    4    4    0    0  0.40155358370E-01 -0.25884926440E-01  0.78379274730E-01  0.91793540354E-01  0.51100000000E-03 0. -1.
</event>
<event>
 8    1  0.1097777E+005  0.1043930E+01  0.7957747E-01            NaN
         13   -1    0    0    0    0  0.00000000000E+00  0.00000000000E+00  0.74505805969E-08  0.10566000000E+00  0.10566000000E+00 0. -1.
     999900   -1    0    0    0    0 -0.00000000000E+00 -0.00000000000E+00 -0.74505805969E-08  0.93827000000E+00  0.93827000000E+00 0.  1.
     999902    2    1    2    0    0  0.69898184706E-02 -0.20381808561E-01  0.90852016352E-02  0.10205458906E+01  0.10202779515E+01 0.  0.
     999903    2    3    3    0    0 -0.11139885519E+00 -0.66642869598E-01  0.53721754911E-02  0.13140599703E+00  0.19690068039E-01 0.  0.
         14    1    1    2    0    0 -0.69898184706E-02  0.20381808561E-01 -0.90852016352E-02  0.23384109374E-01  0.00000000000E+00 0.  1.
     999901    1    3    3    0    0  0.11838867366E+00  0.46261061037E-01  0.37130261440E-02  0.88913989360E+00  0.88000000000E+00 0. -1.
        -11    1    4    4    0    0 -0.70352415104E-01 -0.45446327695E-01  0.12421056216E-01  0.84672160540E-01  0.51100000000E-03 0. -1.
         11    1    4    4    0    0 -0.41046440089E-01 -0.21196541903E-01 -0.70488807252E-02  0.46733836490E-01  0.51100000000E-03 0.  1.
</event>
<event>
 8    1  0.1097777E+005  0.1043930E+01  0.7957747E-01            NaN
         13   -1    0    0    0    0  0.00000000000E+00  0.00000000000E+00  0.74505805969E-08  0.10566000000E+00  0.10566000000E+00 0.  1.
     999900   -1    0    0    0    0 -0.00000000000E+00 -0.00000000000E+00 -0.74505805969E-08  0.93827000000E+00  0.93827000000E+00 0.  1.
     999902    2    1    2    0    0 -0.16778951044E-01 -0.11248535084E-01  0.16839018516E-01  0.10176314205E+01  0.10172915475E+01 0.  0.
     999903    2    3    3    0    0  0.98445169026E-02 -0.12053756386E+00  0.45833164313E-01  0.12999773403E+00  0.13134423694E-01 0.  0.
         14    1    1    2    0    0  0.16778951044E-01  0.11248535084E-01 -0.16839018516E-01  0.26298579510E-01  0.00000000000E+00 0. -1.
     999901    1    3    3    0    0 -0.26623467946E-01  0.10928902878E+00 -0.28994145798E-01  0.88763368646E+00  0.88000000000E+00 0.  1.
        -11    1    4    4    0    0  0.84636387552E-02 -0.68696430003E-01  0.32392749638E-01  0.76422405263E-01  0.51100000000E-03 0. -1.
         11    1    4    4    0    0  0.13808781474E-02 -0.51841133860E-01  0.13440414676E-01  0.53575328762E-01  0.51100000000E-03 0.  1.
</event>
<event>
 8    1  0.1097777E+005  0.1043930E+01  0.7957747E-01            NaN
         13   -1    0    0    0    0  0.00000000000E+00  0.00000000000E+00  0.74505805969E-08  0.10566000000E+00  0.10566000000E+00 0.  1.
     999900   -1    0    0    0    0 -0.00000000000E+00 -0.00000000000E+00 -0.74505805969E-08  0.93827000000E+00  0.93827000000E+00 0.  1.
     999902    2    1    2    0    0 -0.11342249580E-01 -0.13741957849E-01 -0.15412602630E-01  0.10203707905E+01  0.10200987765E+01 0.  0.
     999903    2    3    3    0    0 -0.67761637023E-01  0.10174247277E+00 -0.41414469056E-01  0.13065403894E+00  0.20301463654E-01 0.  0.
         14    1    1    2    0    0  0.11342249580E-01  0.13741957849E-01  0.15412602630E-01  0.23559209471E-01  0.00000000000E+00 0.  1.
     999901    1    3    3    0    0  0.56419387443E-01 -0.11548443062E+00  0.26001866426E-01  0.88971675159E+00  0.88000000000E+00 0.  1.
        -11    1    4    4    0    0 -0.13555990882E-01  0.31582903103E-01 -0.47060377089E-02  0.34693696389E-01  0.51100000000E-03 0. -1.
         11    1    4    4    0    0 -0.54205646142E-01  0.70159569672E-01 -0.36708431347E-01  0.95960342554E-01  0.51100000000E-03 0.  1.
</event>
<event>
 7    1  0.1097777E+005  0.1043930E+01  0.7957747E-01            NaN
         13   -1    0    0    0    0  0.00000000000E+00  0.00000000000E+00  0.74505805969E-08  0.10566000000E+00  0.10566000000E+00 0. -1.
     999900   -1    0    0    0    0 -0.00000000000E+00 -0.00000000000E+00 -0.74505805969E-08  0.93827000000E+00  0.93827000000E+00 0.  1.
     999903    2    1    2    0    0  0.87686146803E-03  0.54254925998E-01  0.80334324037E-01  0.99057582802E-01  0.20357681865E-01 0.  0.
         14    1    1    2    0    0  0.52148877648E-01 -0.26723494965E-01 -0.14668999615E-01  0.60405547533E-01  0.00000000000E+00 0.  1.
     999901    1    1    2    0    0 -0.53025739116E-01 -0.27531431033E-01 -0.65665324422E-01  0.88446686967E+00  0.88000000000E+00 0.  1.
        -11    1    3    3    0    0 -0.70871613604E-02  0.84974714490E-02  0.20605712702E-01  0.23394259855E-01  0.51100000000E-03 0. -1.
         11    1    3    3    0    0  0.79640228285E-02  0.45757454549E-01  0.59728611335E-01  0.75663322947E-01  0.51100000000E-03 0.  1.
</event>
<event>
 8    1  0.1097777E+005  0.1043930E+01  0.7957747E-01            NaN
         13   -1    0    0    0    0  0.00000000000E+00  0.00000000000E+00  0.74505805969E-08  0.10566000000E+00  0.10566000000E+00 0.  1.
     999900   -1    0    0    0    0 -0.00000000000E+00 -0.00000000000E+00 -0.74505805969E-08  0.93827000000E+00  0.93827000000E+00 0. -1.
     999902    2    1    2    0    0  0.12521067135E-01  0.22821660042E-02 -0.19343685381E-01  0.10207747939E+01  0.10205121344E+01 0.  0.
     999903    2    3    3    0    0  0.27776930830E-01 -0.28314078068E-01  0.12108892882E+00  0.12898435293E+00  0.20029720825E-01 0.  0.
         14    1    1    2    0    0 -0.12521067135E-01 -0.22821660042E-02  0.19343685381E-01  0.23155206067E-01  0.00000000000E+00 0.  1.
     999901    1    3    3    0    0 -0.15255863695E-01  0.30596244072E-01 -0.14043261420E+00  0.89179044100E+00  0.88000000000E+00 0. -1.
        -11    1    4    4    0    0  0.14219012021E-01 -0.22004508055E-02  0.30328617049E-01  0.33572435415E-01  0.51100000000E-03 0.  1.
         11    1    4    4    0    0  0.13557918810E-01 -0.26113627262E-01  0.90760311769E-01  0.95411917518E-01  0.51100000000E-03 0. -1.
</event>
<event>
 8    1  0.1097777E+005  0.1043930E+01  0.7957747E-01            NaN
         13   -1    0    0    0    0  0.00000000000E+00  0.00000000000E+00  0.74505805969E-08  0.10566000000E+00  0.10566000000E+00 0. -1.
     999900   -1    0    0    0    0 -0.00000000000E+00 -0.00000000000E+00 -0.74505805969E-08  0.93827000000E+00  0.93827000000E+00 0.  1.
     999902    2    1    2    0    0 -0.13274379070E-01 -0.10693712505E-02 -0.20337874432E-01  0.10196198821E+01  0.10193300360E+01 0.  0.
     999903    2    3    3    0    0 -0.41487251232E-01  0.10704670411E+00 -0.61155997740E-01  0.13161584436E+00  0.20062042544E-01 0.  0.
         14    1    1    2    0    0  0.13274379070E-01  0.10693712505E-02  0.20337874432E-01  0.24310117873E-01  0.00000000000E+00 0. -1.
     999901    1    3    3    0    0  0.28212872163E-01 -0.10811607536E+00  0.40818123307E-01  0.88800403777E+00  0.88000000000E+00 0.  1.
        -11    1    4    4    0    0 -0.14202862998E-01  0.49848605864E-01 -0.37469404014E-01  0.63959535506E-01  0.51100000000E-03 0. -1.
         11    1    4    4    0    0 -0.27284388234E-01  0.57198098244E-01 -0.23686593726E-01  0.67656308851E-01  0.51100000000E-03 0.  1.
</event>
<event>
 8    1  0.1097777E+005  0.1043930E+01  0.7957747E-01            NaN
         13   -1    0    0    0    0  0.00000000000E+00  0.00000000000E+00  0.74505805969E-08  0.10566000000E+00  0.10566000000E+00 0. -1.
     999900   -1    0    0    0    0 -0.00000000000E+00 -0.00000000000E+00 -0.74505805969E-08  0.93827000000E+00  0.93827000000E+00 0. -1.
     999902    2    1    2    0    0  0.14222062491E-02  0.13662868862E-01 -0.18773314052E-01  0.10206677134E+01  0.10204025908E+01 0.  0.
     999903    2    3    3    0    0 -0.50597813818E-01 -0.61614270870E-01 -0.10318713708E+00  0.13190541462E+00  0.19874506567E-01 0.  0.
         14    1    1    2    0    0 -0.14222062491E-02 -0.13662868862E-01  0.18773314052E-01  0.23262286574E-01  0.00000000000E+00 0.  1.
     999901    1    3    3    0    0  0.52020020067E-01  0.75277139732E-01  0.84413823023E-01  0.88876229880E+00  0.88000000000E+00 0.  1.
        -11    1    4    4    0    0 -0.18678321809E-01 -0.95174191856E-02 -0.23618469581E-01  0.31584081432E-01  0.51100000000E-03 0. -1.
         11    1    4    4    0    0 -0.31919492008E-01 -0.52096851685E-01 -0.79568667495E-01  0.10032133319E+00  0.51100000000E-03 0.  1.
</event>
<event>
 8    1  0.1097777E+005  0.1043930E+01  0.7957747E-01            NaN
         13   -1    0    0    0    0  0.00000000000E+00  0.00000000000E+00  0.74505805969E-08  0.10566000000E+00  0.10566000000E+00 0. -1.
     999900   -1    0    0    0    0 -0.00000000000E+00 -0.00000000000E+00 -0.74505805969E-08  0.93827000000E+00  0.93827000000E+00 0. -1.
     999902    2    1    2    0    0  0.10725525686E-01 -0.97530531948E-02  0.18393250928E-01  0.10205105502E+01  0.10202417912E+01 0.  0.
     999903    2    3    3    0    0 -0.95505258779E-02  0.83615188451E-01  0.99206003469E-01  0.13165766713E+00  0.20228640748E-01 0.  0.
         14    1    1    2    0    0 -0.10725525686E-01  0.97530531948E-02 -0.18393250928E-01  0.23419449771E-01  0.00000000000E+00 0.  1.
     999901    1    3    3    0    0  0.20276051564E-01 -0.93368241646E-01 -0.80812752541E-01  0.88885288310E+00  0.88000000000E+00 0. -1.
        -11    1    4    4    0    0 -0.15540719611E-02  0.61124975305E-01  0.81719996442E-01  0.10206417925E+00  0.51100000000E-03 0.  1.
         11    1    4    4    0    0 -0.79964539168E-02  0.22490213146E-01  0.17486007027E-01  0.29593487888E-01  0.51100000000E-03 0. -1.
</event>
<event>
 8    1  0.1097777E+005  0.1043930E+01  0.7957747E-01            NaN
         13   -1    0    0    0    0  0.00000000000E+00  0.00000000000E+00  0.74505805969E-08  0.10566000000E+00  0.10566000000E+00 0.  1.
     999900   -1    0    0    0    0 -0.00000000000E+00 -0.00000000000E+00 -0.74505805969E-08  0.93827000000E+00  0.93827000000E+00 0. -1.
     999902    2    1    2    0    0  0.24602245929E-01  0.65605137483E-03  0.56588076693E-02  0.10186768217E+01  0.10183637583E+01 0.  0.
     999903    2    3    3    0    0 -0.10722788577E+00 -0.43262572507E-01  0.47661657388E-01  0.12678430101E+00  0.20812393672E-01 0.  0.
         14    1    1    2    0    0 -0.24602245929E-01 -0.65605137483E-03 -0.56588076693E-02  0.25253178264E-01  0.00000000000E+00 0.  1.
     999901    1    3    3    0    0  0.13183013170E+00  0.43918623882E-01 -0.42002849719E-01  0.89189252073E+00  0.88000000000E+00 0.  1.
        -11    1    4    4    0    0 -0.59445718547E-01 -0.27744917862E-01  0.16440295801E-01  0.67632228766E-01  0.51100000000E-03 0. -1.
         11    1    4    4    0    0 -0.47782167223E-01 -0.15517654645E-01  0.31221361587E-01  0.59152072242E-01  0.51100000000E-03 0.  1.
</event>
<event>
 8    1  0.1097777E+005  0.1043930E+01  0.7957747E-01            NaN
         13   -1    0    0    0    0  0.00000000000E+00  0.00000000000E+00  0.74505805969E-08  0.10566000000E+00  0.10566000000E+00 0. -1.
     999900   -1    0    0    0    0 -0.00000000000E+00 -0.00000000000E+00 -0.74505805969E-08  0.93827000000E+00  0.93827000000E+00 0.  1.
     999902    2    1    2    0    0  0.20283986025E-01 -0.10404297410E-01 -0.90172034562E-02  0.10194147098E+01  0.10191198905E+01 0.  0.
     999903    2    3    3    0    0 -0.86334512692E-01 -0.88477821087E-01  0.29360089082E-01  0.12872071303E+00  0.20616358193E-01 0.  0.
         14    1    1    2    0    0 -0.20283986025E-01  0.10404297410E-01  0.90172034562E-02  0.24515290164E-01  0.00000000000E+00 0.  1.
     999901    1    3    3    0    0  0.10661849872E+00  0.78073523677E-01 -0.38377292539E-01  0.89069399681E+00  0.88000000000E+00 0.  1.
        -11    1    4    4    0    0 -0.51473052885E-01 -0.48373751066E-01  0.26692589200E-01  0.75513246551E-01  0.51100000000E-03 0. -1.
         11    1    4    4    0    0 -0.34861459807E-01 -0.40104070022E-01  0.26674998821E-02  0.53207466476E-01  0.51100000000E-03 0.  1.
</event>
<event>
 8    1  0.1097777E+005  0.1043930E+01  0.7957747E-01            NaN
         13   -1    0    0    0    0  0.00000000000E+00  0.00000000000E+00  0.74505805969E-08  0.10566000000E+00  0.10566000000E+00 0. -1.
     999900   -1    0    0    0    0 -0.00000000000E+00 -0.00000000000E+00 -0.74505805969E-08  0.93827000000E+00  0.93827000000E+00 0. -1.
     999902    2    1    2    0    0 -0.62420494009E-02 -0.11579081506E-01  0.20403002832E-01  0.10196540688E+01  0.10193650471E+01 0.  0.
     999903    2    3    3    0    0  0.64322131798E-01  0.58344503317E-01  0.95970145147E-01  0.13084643814E+00  0.19212077159E-01 0.  0.
         14    1    1    2    0    0  0.62420494009E-02  0.11579081506E-01 -0.20403002832E-01  0.24275931163E-01  0.00000000000E+00 0.  1.
     999901    1    3    3    0    0 -0.70564181199E-01 -0.69923584823E-01 -0.75567142314E-01  0.88880763069E+00  0.88000000000E+00 0. -1.
        -11    1    4    4    0    0  0.29559066114E-01  0.23338982111E-01  0.55293134288E-01  0.66903200939E-01  0.51100000000E-03 0. -1.
         11    1    4    4    0    0  0.34763065685E-01  0.35005521205E-01  0.40677010858E-01  0.63943237203E-01  0.51100000000E-03 0.  1.
</event>
<event>
 8    1  0.1097777E+005  0.1043930E+01  0.7957747E-01            NaN
         13   -1    0    0    0    0  0.00000000000E+00  0.00000000000E+00  0.74505805969E-08  0.10566000000E+00  0.10566000000E+00 0. -1.
     999900   -1    0    0    0    0 -0.00000000000E+00 -0.00000000000E+00 -0.74505805969E-08  0.93827000000E+00  0.93827000000E+00 0.  1.
     999902    2    1    2    0    0 -0.41445379375E-02 -0.23171386760E-01 -0.18019690004E-02  0.10203220045E+01  0.10200488495E+01 0.  0.
     999903    2    3    3    0    0  0.86868292967E-01  0.89895203881E-01  0.19280102115E-01  0.12818308985E+00  0.20783026329E-01 0.  0.
         14    1    1    2    0    0  0.41445379375E-02  0.23171386760E-01  0.18019690004E-02  0.23607995497E-01  0.00000000000E+00 0. -1.
     999901    1    3    3    0    0 -0.91012830904E-01 -0.11306659064E+00 -0.21082071115E-01  0.89213891465E+00  0.88000000000E+00 0.  1.
        -11    1    4    4    0    0  0.81650337960E-01  0.82071717945E-01  0.12221721395E-01  0.11641381434E+00  0.51100000000E-03 0. -1.
         11    1    4    4    0    0  0.52179550064E-02  0.78234859354E-02  0.70583807198E-02  0.11769275509E-01  0.51100000000E-03 0.  1.
</event>
<event>
 8    1  0.1097777E+005  0.1043930E+01  0.7957747E-01            NaN
         13   -1    0    0    0    0  0.00000000000E+00  0.00000000000E+00  0.74505805969E-08  0.10566000000E+00  0.10566000000E+00 0.  1.
     999900   -1    0    0    0    0 -0.00000000000E+00 -0.00000000000E+00 -0.74505805969E-08  0.93827000000E+00  0.93827000000E+00 0.  1.
     999902    2    1    2    0    0  0.90084194135E-02 -0.20153139025E-01  0.95426450824E-02  0.10198808273E+01  0.10195972436E+01 0.  0.
     999903    2    3    3    0    0  0.12417604414E+00 -0.25582712258E-01 -0.28750293008E-01  0.13153437958E+00  0.20013709257E-01 0.  0.
         14    1    1    2    0    0 -0.90084194135E-02  0.20153139025E-01 -0.95426450824E-02  0.24049172710E-01  0.00000000000E+00 0. -1.
     999901    1    3    3    0    0 -0.11516762473E+00  0.54295732330E-02  0.38292938091E-01  0.88834644771E+00  0.88000000000E+00 0. -1.
        -11    1    4    4    0    0  0.10327385537E+00 -0.28301023385E-01 -0.26625620842E-01  0.11034320067E+00  0.51100000000E-03 0.  1.
         11    1    4    4    0    0  0.20902188767E-01  0.27183111270E-02 -0.21246721660E-02  0.21191178907E-01  0.51100000000E-03 0. -1.
</event>
<event>
 8    1  0.1097777E+005  0.1043930E+01  0.7957747E-01            NaN
         13   -1    0    0    0    0  0.00000000000E+00  0.00000000000E+00  0.74505805969E-08  0.10566000000E+00  0.10566000000E+00 0.  1.
     999900   -1    0    0    0    0 -0.00000000000E+00 -0.00000000000E+00 -0.74505805969E-08  0.93827000000E+00  0.93827000000E+00 0.  1.
     999902    2    1    2    0    0 -0.17179334031E-01  0.13021541121E-01 -0.93811284841E-02  0.10204205206E+01  0.10201496671E+01 0.  0.
     999903    2    3    3    0    0  0.60056212523E-01  0.85197491808E-01  0.75625190641E-01  0.13002691560E+00  0.17957395321E-01 0.  0.
         14    1    1    2    0    0  0.17179334031E-01 -0.13021541121E-01  0.93811284841E-02  0.23509479419E-01  0.00000000000E+00 0.  1.
     999901    1    3    3    0    0 -0.77235546554E-01 -0.72175950687E-01 -0.85006319125E-01  0.89039360499E+00  0.88000000000E+00 0.  1.
        -11    1    4    4    0    0  0.41099345923E-01  0.47056882722E-01  0.52195232258E-01  0.81413204324E-01  0.51100000000E-03 0.  1.
         11    1    4    4    0    0  0.18956866601E-01  0.38140609086E-01  0.23429958383E-01  0.48613711272E-01  0.51100000000E-03 0. -1.
</event>
<event>
 8    1  0.1097777E+005  0.1043930E+01  0.7957747E-01            NaN
         13   -1    0    0    0    0  0.00000000000E+00  0.00000000000E+00  0.74505805969E-08  0.10566000000E+00  0.10566000000E+00 0. -1.
     999900   -1    0    0    0    0 -0.00000000000E+00 -0.00000000000E+00 -0.74505805969E-08  0.93827000000E+00  0.93827000000E+00 0. -1.
     999902    2    1    2    0    0  0.28596281305E-02  0.18136096851E-01  0.14963278045E-01  0.10202446634E+01  0.10199696946E+01 0.  0.
     999903    2    3    3    0    0  0.11434022519E-01  0.13053230556E+00  0.16589876689E-01  0.13305298520E+00  0.16076479571E-01 0.  0.
         14    1    1    2    0    0 -0.28596281305E-02 -0.18136096851E-01 -0.14963278045E-01  0.23685336643E-01  0.00000000000E+00 0.  1.
     999901    1    3    3    0    0 -0.85743943882E-02 -0.11239620871E+00 -0.16265986438E-02  0.88719167816E+00  0.88000000000E+00 0.  1.
        -11    1    4    4    0    0  0.23502490436E-02  0.74347948042E-01  0.16224156828E-01  0.76135572727E-01  0.51100000000E-03 0.  1.
         11    1    4    4    0    0  0.90837734750E-02  0.56184357519E-01  0.36571986076E-03  0.56917412471E-01  0.51100000000E-03 0. -1.
</event>
<event>
 8    1  0.1097777E+005  0.1043930E+01  0.7957747E-01            NaN
         13   -1    0    0    0    0  0.00000000000E+00  0.00000000000E+00  0.74505805969E-08  0.10566000000E+00  0.10566000000E+00 0.  1.
     999900   -1    0    0    0    0 -0.00000000000E+00 -0.00000000000E+00 -0.74505805969E-08  0.93827000000E+00  0.93827000000E+00 0.  1.
     999902    2    1    2    0    0 -0.13873920428E-01  0.11466266499E-01  0.15835458046E-01  0.10199566259E+01  0.10196748482E+01 0.  0.
     999903    2    3    3    0    0 -0.81912094215E-01 -0.98045112670E-01 -0.13786887560E-01  0.13006931918E+00  0.20137383783E-01 0.  0.
         14    1    1    2    0    0  0.13873920428E-01 -0.11466266499E-01 -0.15835458046E-01  0.23973374126E-01  0.00000000000E+00 0. -1.
     999901    1    3    3    0    0  0.68038173786E-01  0.10951137917E+00  0.29622345606E-01  0.88988730670E+00  0.88000000000E+00 0. -1.
        -11    1    4    4    0    0 -0.51908372218E-01 -0.54592602817E-01 -0.16772371647E-01  0.77177749127E-01  0.51100000000E-03 0.  1.
         11    1    4    4    0    0 -0.30003721997E-01 -0.43452509853E-01  0.29854840872E-02  0.52891570050E-01  0.51100000000E-03 0. -1.
</event>
<event>
 8    1  0.1097777E+005  0.1043930E+01  0.7957747E-01            NaN
         13   -1    0    0    0    0  0.00000000000E+00  0.00000000000E+00  0.74505805969E-08  0.10566000000E+00  0.10566000000E+00 0.  1.
     999900   -1    0    0    0    0 -0.00000000000E+00 -0.00000000000E+00 -0.74505805969E-08  0.93827000000E+00  0.93827000000E+00 0.  1.
     999902    2    1    2    0    0 -0.19794775008E-01 -0.12044060481E-01  0.53134538354E-02  0.10201576357E+01  0.10198806187E+01 0.  0.
     999903    2    3    3    0    0 -0.82925598696E-01 -0.44532927090E-01 -0.90596945534E-01  0.13210367789E+00  0.19589248545E-01 0.  0.
         14    1    1    2    0    0  0.19794775008E-01  0.12044060481E-01 -0.53134538354E-02  0.23772364253E-01  0.00000000000E+00 0. -1.
     999901    1    3    3    0    0  0.63130823688E-01  0.32488866608E-01  0.95910399370E-01  0.88805395785E+00  0.88000000000E+00 0.  1.
        -11    1    4    4    0    0 -0.68623710813E-01 -0.28816023785E-01 -0.75592924901E-01  0.10608547652E+00  0.51100000000E-03 0.  1.
         11    1    4    4    0    0 -0.14301887883E-01 -0.15716903305E-01 -0.15004020633E-01  0.26018201372E-01  0.51100000000E-03 0. -1.
</event>
<event>
 8    1  0.1097777E+005  0.1043930E+01  0.7957747E-01            NaN
         13   -1    0    0    0    0  0.00000000000E+00  0.00000000000E+00  0.74505805969E-08  0.10566000000E+00  0.10566000000E+00 0. -1.
     999900   -1    0    0    0    0 -0.00000000000E+00 -0.00000000000E+00 -0.74505805969E-08  0.93827000000E+00  0.93827000000E+00 0. -1.
     999902    2    1    2    0    0  0.20075730482E-02 -0.50881152606E-02  0.20416874603E-01  0.10227931120E+01  0.10225746828E+01 0.  0.
     999903    2    3    3    0    0 -0.51201242267E-01 -0.12120559710E+00 -0.47587479429E-02  0.13321553831E+00  0.20282257950E-01 0.  0.
         14    1    1    2    0    0 -0.20075730482E-02  0.50881152606E-02 -0.20416874603E-01  0.21136888016E-01  0.00000000000E+00 0.  1.
     999901    1    3    3    0    0  0.53208815315E-01  0.11611748184E+00  0.25175622546E-01  0.88957757368E+00  0.88000000000E+00 0. -1.
        -11    1    4    4    0    0 -0.15669145455E-01 -0.58274773076E-01  0.36504263009E-02  0.60457075926E-01  0.51100000000E-03 0. -1.
         11    1    4    4    0    0 -0.35532096812E-01 -0.62930824021E-01 -0.84091742439E-02  0.72758462383E-01  0.51100000000E-03 0.  1.
</event>
<event>
 8    1  0.1097777E+005  0.1043930E+01  0.7957747E-01            NaN
         13   -1    0    0    0    0  0.00000000000E+00  0.00000000000E+00  0.74505805969E-08  0.10566000000E+00  0.10566000000E+00 0.  1.
     999900   -1    0    0    0    0 -0.00000000000E+00 -0.00000000000E+00 -0.74505805969E-08  0.93827000000E+00  0.93827000000E+00 0. -1.
     999902    2    1    2    0    0  0.36509912215E-02  0.18145638484E-01  0.16223386419E-01  0.10193171538E+01  0.10190199545E+01 0.  0.
     999903    2    3    3    0    0 -0.20284220865E-01 -0.56458467507E-01 -0.10994353332E+00  0.12687289296E+00  0.20251969770E-01 0.  0.
         14    1    1    2    0    0 -0.36509912215E-02 -0.18145638484E-01 -0.16223386419E-01  0.24612846235E-01  0.00000000000E+00 0. -1.
     999901    1    3    3    0    0  0.23935212086E-01  0.74604105991E-01  0.12616691974E+00  0.89244426081E+00  0.88000000000E+00 0.  1.
        -11    1    4    4    0    0  0.68188329705E-03 -0.30997432069E-02 -0.19678935943E-01  0.19939784694E-01  0.51100000000E-03 0.  1.
         11    1    4    4    0    0 -0.20966104162E-01 -0.53358724300E-01 -0.90264597377E-01  0.10693310827E+00  0.51100000000E-03 0. -1.
</event>
<event>
 8    1  0.1097777E+005  0.1043930E+01  0.7957747E-01            NaN
         13   -1    0    0    0    0  0.00000000000E+00  0.00000000000E+00  0.74505805969E-08  0.10566000000E+00  0.10566000000E+00 0. -1.
     999900   -1    0    0    0    0 -0.00000000000E+00 -0.00000000000E+00 -0.74505805969E-08  0.93827000000E+00  0.93827000000E+00 0.  1.
     999902    2    1    2    0    0  0.14367504178E-01 -0.12978826661E-02 -0.19057212859E-01  0.10200283884E+01  0.10197483151E+01 0.  0.
     999903    2    3    3    0    0 -0.10979503007E+00 -0.41833709769E-01 -0.51000932964E-01  0.12981499293E+00  0.21114670856E-01 0.  0.
         14    1    1    2    0    0 -0.14367504178E-01  0.12978826661E-02  0.19057212859E-01  0.23901611612E-01  0.00000000000E+00 0. -1.
     999901    1    3    3    0    0  0.12416253425E+00  0.40535827103E-01  0.31943720105E-01  0.89021339545E+00  0.88000000000E+00 0. -1.
        -11    1    4    4    0    0 -0.77431252535E-01 -0.37002166744E-01 -0.43609435984E-01  0.96264236561E-01  0.51100000000E-03 0. -1.
         11    1    4    4    0    0 -0.32363777540E-01 -0.48315430256E-02 -0.73914969795E-02  0.33550756374E-01  0.51100000000E-03 0.  1.
</event>
<event>
 7    1  0.1097777E+005  0.1043930E+01  0.7957747E-01            NaN
         13   -1    0    0    0    0  0.00000000000E+00  0.00000000000E+00  0.74505805969E-08  0.10566000000E+00  0.10566000000E+00 0. -1.
     999900   -1    0    0    0    0 -0.00000000000E+00 -0.00000000000E+00 -0.74505805969E-08  0.93827000000E+00  0.93827000000E+00 0. -1.
     999903    2    1    2    0    0  0.46886446986E-01  0.14453320200E-01 -0.81040558634E-01  0.96713002110E-01  0.19457524450E-01 0.  0.
         14    1    1    2    0    0 -0.12964144651E-01 -0.55689242686E-01 -0.18261426194E-01  0.60023666034E-01  0.00000000000E+00 0.  1.
     999901    1    1    2    0    0 -0.33922302335E-01  0.41235922487E-01  0.99301984827E-01  0.88719333186E+00  0.88000000000E+00 0.  1.
        -11    1    3    3    0    0  0.34695828896E-01  0.10760800307E-01 -0.73273247633E-01  0.81785238923E-01  0.51100000000E-03 0.  1.
         11    1    3    3    0    0  0.12190618090E-01  0.36925198929E-02 -0.77673110001E-02  0.14927763187E-01  0.51100000000E-03 0. -1.
</event>
<event>
 8    1  0.1097777E+005  0.1043930E+01  0.7957747E-01            NaN
         13   -1    0    0    0    0  0.00000000000E+00  0.00000000000E+00  0.74505805969E-08  0.10566000000E+00  0.10566000000E+00 0. -1.
     999900   -1    0    0    0    0 -0.00000000000E+00 -0.00000000000E+00 -0.74505805969E-08  0.93827000000E+00  0.93827000000E+00 0.  1.
     999902    2    1    2    0    0  0.31303258217E-02  0.74337415832E-02  0.22296942788E-01  0.10202189665E+01  0.10199433937E+01 0.  0.
     999903    2    3    3    0    0  0.18290713975E-01 -0.12425949051E+00 -0.21591475756E-01  0.12920878805E+00  0.21301358778E-01 0.  0.
         14    1    1    2    0    0 -0.31303258217E-02 -0.74337415832E-02 -0.22296942788E-01  0.23711033536E-01  0.00000000000E+00 0.  1.
     999901    1    3    3    0    0 -0.15160388154E-01  0.13169323209E+00  0.43888418544E-01  0.89101017841E+00  0.88000000000E+00 0.  1.
        -11    1    4    4    0    0  0.11387640432E-01 -0.40268384594E-01 -0.15800940388E-01  0.44734237342E-01  0.51100000000E-03 0.  1.
         11    1    4    4    0    0  0.69030735433E-02 -0.83991105915E-01 -0.57905353680E-02  0.84474550712E-01  0.51100000000E-03 0. -1.
</event>
<event>
 8    1  0.1097777E+005  0.1043930E+01  0.7957747E-01            NaN
         13   -1    0    0    0    0  0.00000000000E+00  0.00000000000E+00  0.74505805969E-08  0.10566000000E+00  0.10566000000E+00 0. -1.
     999900   -1    0    0    0    0 -0.00000000000E+00 -0.00000000000E+00 -0.74505805969E-08  0.93827000000E+00  0.93827000000E+00 0.  1.
     999902    2    1    2    0    0 -0.13818001478E-01 -0.15684524592E-01 -0.85114437400E-02  0.10213604154E+01  0.10211110184E+01 0.  0.
     999903    2    3    3    0    0  0.11386531464E+00 -0.24508936318E-01  0.54057794438E-01  0.12990328850E+00  0.19662690207E-01 0.  0.
         14    1    1    2    0    0  0.13818001478E-01  0.15684524592E-01  0.85114437400E-02  0.22569584645E-01  0.00000000000E+00 0. -1.
     999901    1    3    3    0    0 -0.12768331612E+00  0.88244117267E-02 -0.62569238178E-01  0.89145712686E+00  0.88000000000E+00 0.  1.
        -11    1    4    4    0    0  0.10141931541E+00 -0.16145892724E-01  0.50690149540E-01  0.11452650248E+00  0.51100000000E-03 0.  1.
         11    1    4    4    0    0  0.12445999231E-01 -0.83630435947E-02  0.33676448977E-02  0.15376786016E-01  0.51100000000E-03 0. -1.
</event>
<event>
 8    1  0.1097777E+005  0.1043930E+01  0.7957747E-01            NaN
         13   -1    0    0    0    0  0.00000000000E+00  0.00000000000E+00  0.74505805969E-08  0.10566000000E+00  0.10566000000E+00 0. -1.
     999900   -1    0    0    0    0 -0.00000000000E+00 -0.00000000000E+00 -0.74505805969E-08  0.93827000000E+00  0.93827000000E+00 0. -1.
     999902    2    1    2    0    0 -0.14132541076E-01 -0.19611463274E-01 -0.56997224096E-03  0.10197501928E+01  0.10194634827E+01 0.  0.
     999903    2    3    3    0    0  0.53602791315E-01  0.25296548102E-01 -0.11239349436E+00  0.12895880034E+00  0.22020445704E-01 0.  0.
         14    1    1    2    0    0  0.14132541076E-01  0.19611463274E-01  0.56997224096E-03  0.24179807224E-01  0.00000000000E+00 0.  1.
     999901    1    3    3    0    0 -0.67735332391E-01 -0.44908011376E-01  0.11182352212E+00  0.89079139244E+00  0.88000000000E+00 0.  1.
        -11    1    4    4    0    0  0.14873515037E-01  0.16978390397E-01 -0.30102790655E-01  0.37628796370E-01  0.51100000000E-03 0.  1.
         11    1    4    4    0    0  0.38729276278E-01  0.83181577050E-02 -0.82290703702E-01  0.91330003971E-01  0.51100000000E-03 0. -1.
</event>
<event>
 8    1  0.1097777E+005  0.1043930E+01  0.7957747E-01            NaN
         13   -1    0    0    0    0  0.00000000000E+00  0.00000000000E+00  0.74505805969E-08  0.10566000000E+00  0.10566000000E+00 0.  1.
     999900   -1    0    0    0    0 -0.00000000000E+00 -0.00000000000E+00 -0.74505805969E-08  0.93827000000E+00  0.93827000000E+00 0. -1.
     999902    2    1    2    0    0  0.22359425249E-01 -0.72914739414E-02 -0.53203349509E-02  0.10198174420E+01  0.10195323435E+01 0.  0.
     999903    2    3    3    0    0  0.13842334070E-01 -0.33744314357E-01 -0.12452863909E+00  0.13134520642E+00  0.20344343955E-01 0.  0.
         14    1    1    2    0    0 -0.22359425249E-01  0.72914739414E-02  0.53203349509E-02  0.24112558008E-01  0.00000000000E+00 0.  1.
     999901    1    3    3    0    0  0.85170911792E-02  0.26452840416E-01  0.11920830414E+00  0.88847223557E+00  0.88000000000E+00 0.  1.
        -11    1    4    4    0    0 -0.30101430060E-02 -0.10788849518E-01 -0.19206274653E-01  0.22239656965E-01  0.51100000000E-03 0. -1.
         11    1    4    4    0    0  0.16852477076E-01 -0.22955464839E-01 -0.10532236444E+00  0.10910554945E+00  0.51100000000E-03 0.  1.
</event>
<event>
 7    1  0.1267215E+005  0.1043930E+01  0.7957747E-01            NaN
         13   -1    0    0    0    0  0.00000000000E+00  0.00000000000E+00  0.74505805969E-08  0.10566000000E+00  0.10566000000E+00 0.  1.
     999900   -1    0    0    0    0 -0.00000000000E+00 -0.00000000000E+00 -0.74505805969E-08  0.93827000000E+00  0.93827000000E+00 0. -1.
     999903    2    1    2    0    0 -0.50289208607E-01 -0.84221285035E-01  0.35793406594E-01  0.10647437098E+00  0.20818125845E-01 0.  0.
         14    1    1    2    0    0 -0.30998148870E-01 -0.30415675312E-01  0.11902478533E-01  0.45029629504E-01  0.00000000000E+00 0.  1.
     999901    1    1    2    0    0  0.81287357477E-01  0.11463696035E+00 -0.47695885127E-01  0.89242599952E+00  0.88000000000E+00 0.  1.
        -11    1    3    3    0    0 -0.10482830326E-01 -0.37132129406E-01  0.15023611315E-01  0.41408390258E-01  0.51100000000E-03 0. -1.
         11    1    3    3    0    0 -0.39806378281E-01 -0.47089155629E-01  0.20769795279E-01  0.65065980717E-01  0.51100000000E-03 0.  1.
</event>
<event>
 8    1  0.1097777E+005  0.1043930E+01  0.7957747E-01            NaN
         13   -1    0    0    0    0  0.00000000000E+00  0.00000000000E+00  0.74505805969E-08  0.10566000000E+00  0.10566000000E+00 0. -1.
     999900   -1    0    0    0    0 -0.00000000000E+00 -0.00000000000E+00 -0.74505805969E-08  0.93827000000E+00  0.93827000000E+00 0. -1.
     999902    2    1    2    0    0 -0.18784569537E-01  0.16285662405E-01  0.11888408809E-01  0.10163724762E+01  0.10159988156E+01 0.  0.
     999903    2    3    3    0    0  0.54489078424E-01  0.74582585142E-01  0.86703717815E-01  0.12824811041E+00  0.19960497677E-01 0.  0.
         14    1    1    2    0    0  0.18784569537E-01 -0.16285662405E-01 -0.11888408809E-01  0.27557523776E-01  0.00000000000E+00 0.  1.
     999901    1    3    3    0    0 -0.73273647962E-01 -0.58296922737E-01 -0.74815309006E-01  0.88812436581E+00  0.88000000000E+00 0. -1.
        -11    1    4    4    0    0  0.49868573864E-01  0.59548676796E-01  0.78770117734E-01  0.11062509723E+00  0.51100000000E-03 0.  1.
         11    1    4    4    0    0  0.46205045608E-02  0.15033908346E-01  0.79336000810E-02  0.17623013187E-01  0.51100000000E-03 0. -1.
</event>
<event>
 8    1  0.1097777E+005  0.1043930E+01  0.7957747E-01            NaN
         13   -1    0    0    0    0  0.00000000000E+00  0.00000000000E+00  0.74505805969E-08  0.10566000000E+00  0.10566000000E+00 0. -1.
     999900   -1    0    0    0    0 -0.00000000000E+00 -0.00000000000E+00 -0.74505805969E-08  0.93827000000E+00  0.93827000000E+00 0. -1.
     999902    2    1    2    0    0  0.10040145126E-01 -0.17697383625E-01 -0.12028208538E-01  0.10202935937E+01  0.10200197732E+01 0.  0.
     999903    2    3    3    0    0 -0.10099006678E+00 -0.74171100135E-01 -0.33659391012E-01  0.13125765706E+00  0.19881454945E-01 0.  0.
         14    1    1    2    0    0 -0.10040145126E-01  0.17697383625E-01  0.12028208538E-01  0.23636406282E-01  0.00000000000E+00 0.  1.
     999901    1    3    3    0    0  0.11103021190E+00  0.56473716510E-01  0.21631182474E-01  0.88903593666E+00  0.88000000000E+00 0.  1.
        -11    1    4    4    0    0 -0.46155012088E-01 -0.31085127136E-01 -0.50483266258E-02  0.55877696737E-01  0.51100000000E-03 0. -1.
         11    1    4    4    0    0 -0.54835054690E-01 -0.43085972999E-01 -0.28611064386E-01  0.75379960323E-01  0.51100000000E-03 0.  1.
</event>
<event>
 8    1  0.1097777E+005  0.1043930E+01  0.7957747E-01            NaN
         13   -1    0    0    0    0  0.00000000000E+00  0.00000000000E+00  0.74505805969E-08  0.10566000000E+00  0.10566000000E+00 0.  1.
     999900   -1    0    0    0    0 -0.00000000000E+00 -0.00000000000E+00 -0.74505805969E-08  0.93827000000E+00  0.93827000000E+00 0. -1.
     999902    2    1    2    0    0  0.71297323206E-02  0.21741432513E-01 -0.48277850507E-03  0.10210442829E+01  0.10207877701E+01 0.  0.
     999903    2    3    3    0    0 -0.35668773094E-01 -0.49478607614E-01 -0.11305071117E+00  0.12999122859E+00  0.19921401287E-01 0.  0.
         14    1    1    2    0    0 -0.71297323206E-02 -0.21741432513E-01  0.48277850507E-03  0.22885717069E-01  0.00000000000E+00 0.  1.
     999901    1    3    3    0    0  0.42798505414E-01  0.71220040127E-01  0.11256793267E+00  0.89105305434E+00  0.88000000000E+00 0.  1.
        -11    1    4    4    0    0 -0.36197027082E-01 -0.41864485791E-01 -0.89507401201E-01  0.10523638121E+00  0.51100000000E-03 0.  1.
         11    1    4    4    0    0  0.52825398827E-03 -0.76141218228E-02 -0.23543309970E-01  0.24754847379E-01  0.51100000000E-03 0. -1.
</event>
<event>
 8    1  0.1097777E+005  0.1043930E+01  0.7957747E-01            NaN
         13   -1    0    0    0    0  0.00000000000E+00  0.00000000000E+00  0.74505805969E-08  0.10566000000E+00  0.10566000000E+00 0. -1.
     999900   -1    0    0    0    0 -0.00000000000E+00 -0.00000000000E+00 -0.74505805969E-08  0.93827000000E+00  0.93827000000E+00 0. -1.
     999902    2    1    2    0    0  0.22387829029E-01  0.53671929477E-02 -0.59979529022E-02  0.10201393067E+01  0.10198618573E+01 0.  0.
     999903    2    3    3    0    0  0.52115234908E-01  0.81817578482E-01 -0.88223215538E-01  0.13250797899E+00  0.19102745313E-01 0.  0.
         14    1    1    2    0    0 -0.22387829029E-01 -0.53671929477E-02  0.59979529022E-02  0.23790693302E-01  0.00000000000E+00 0. -1.
     999901    1    3    3    0    0 -0.29727405879E-01 -0.76450385534E-01  0.82225262636E-01  0.88763132771E+00  0.88000000000E+00 0.  1.
        -11    1    4    4    0    0  0.46029306912E-01  0.60942667041E-01 -0.61532971783E-01  0.98077895055E-01  0.51100000000E-03 0.  1.
         11    1    4    4    0    0  0.60859279960E-02  0.20874911441E-01 -0.26690243755E-01  0.34430083938E-01  0.51100000000E-03 0. -1.
</event>
<event>
 8    1  0.1097777E+005  0.1043930E+01  0.7957747E-01            NaN
         13   -1    0    0    0    0  0.00000000000E+00  0.00000000000E+00  0.74505805969E-08  0.10566000000E+00  0.10566000000E+00 0.  1.
     999900   -1    0    0    0    0 -0.00000000000E+00 -0.00000000000E+00 -0.74505805969E-08  0.93827000000E+00  0.93827000000E+00 0. -1.
     999902    2    1    2    0    0  0.20332157777E-01  0.31386525943E-02  0.12580049862E-01  0.10198155762E+01  0.10195304331E+01 0.  0.
     999903    2    3    3    0    0 -0.25614125356E-01 -0.11754264134E+00  0.44759798996E-01  0.12980963697E+00  0.19358364908E-01 0.  0.
         14    1    1    2    0    0 -0.20332157777E-01 -0.31386525943E-02 -0.12580049862E-01  0.24114423785E-01  0.00000000000E+00 0.  1.
     999901    1    3    3    0    0  0.45946283132E-01  0.12068129394E+00 -0.32179749135E-01  0.89000593925E+00  0.88000000000E+00 0.  1.
        -11    1    4    4    0    0 -0.23847885032E-01 -0.90563298840E-01  0.27033565489E-01  0.97475676460E-01  0.51100000000E-03 0.  1.
         11    1    4    4    0    0 -0.17662403239E-02 -0.26979342503E-01  0.17726233507E-01  0.32333960508E-01  0.51100000000E-03 0. -1.
</event>
<event>
 8    1  0.1097777E+005  0.1043930E+01  0.7957747E-01            NaN
         13   -1    0    0    0    0  0.00000000000E+00  0.00000000000E+00  0.74505805969E-08  0.10566000000E+00  0.10566000000E+00 0. -1.
     999900   -1    0    0    0    0 -0.00000000000E+00 -0.00000000000E+00 -0.74505805969E-08  0.93827000000E+00  0.93827000000E+00 0. -1.
     999902    2    1    2    0    0  0.42564127607E-02 -0.11674779234E-01 -0.20484663199E-01  0.10199708901E+01  0.10196894516E+01 0.  0.
     999903    2    3    3    0    0  0.35858135541E-01  0.11014970329E+00 -0.56237842969E-01  0.13029782473E+00  0.19901385081E-01 0.  0.
         14    1    1    2    0    0 -0.42564127607E-02  0.11674779234E-01  0.20484663199E-01  0.23959109877E-01  0.00000000000E+00 0. -1.
     999901    1    3    3    0    0 -0.31601722781E-01 -0.12182448252E+00  0.35753179771E-01  0.88967306539E+00  0.88000000000E+00 0.  1.
        -11    1    4    4    0    0  0.27058003623E-01  0.60295210953E-01 -0.39400957594E-01  0.76943775604E-01  0.51100000000E-03 0. -1.
         11    1    4    4    0    0  0.88001319179E-02  0.49854492335E-01 -0.16836885375E-01  0.53354049124E-01  0.51100000000E-03 0.  1.
</event>
<event>
 8    1  0.1097777E+005  0.1043930E+01  0.7957747E-01            NaN
         13   -1    0    0    0    0  0.00000000000E+00  0.00000000000E+00  0.74505805969E-08  0.10566000000E+00  0.10566000000E+00 0.  1.
     999900   -1    0    0    0    0 -0.00000000000E+00 -0.00000000000E+00 -0.74505805969E-08  0.93827000000E+00  0.93827000000E+00 0. -1.
     999902    2    1    2    0    0 -0.16361146449E-01 -0.15268812345E-01 -0.47932145865E-02  0.10210433522E+01  0.10207868183E+01 0.  0.
     999903    2    3    3    0    0 -0.12711194121E+00 -0.71346229127E-02 -0.35688240920E-01  0.13352636289E+00  0.18635734645E-01 0.  0.
         14    1    1    2    0    0  0.16361146449E-01  0.15268812345E-01  0.47932145865E-02  0.22886647846E-01  0.00000000000E+00 0. -1.
     999901    1    3    3    0    0  0.11075079476E+00 -0.81341894325E-02  0.30895026333E-01  0.88751698926E+00  0.88000000000E+00 0.  1.
        -11    1    4    4    0    0 -0.24860703047E-01  0.34425432227E-02 -0.12937293002E-01  0.28240756559E-01  0.51100000000E-03 0.  1.
         11    1    4    4    0    0 -0.10225123816E+00 -0.10577166135E-01 -0.22750947918E-01  0.10528560633E+00  0.51100000000E-03 0. -1.
</event>
<event>
 8    1  0.1097777E+005  0.1043930E+01  0.7957747E-01            NaN
         13   -1    0    0    0    0  0.00000000000E+00  0.00000000000E+00  0.74505805969E-08  0.10566000000E+00  0.10566000000E+00 0.  1.
     999900   -1    0    0    0    0 -0.00000000000E+00 -0.00000000000E+00 -0.74505805969E-08  0.93827000000E+00  0.93827000000E+00 0. -1.
     999902    2    1    2    0    0  0.19391233892E-01  0.65527881056E-02  0.12368716654E-01  0.10200146464E+01  0.10197342472E+01 0.  0.
     999903    2    3    3    0    0  0.72347498666E-01 -0.97672213920E-02 -0.10608101917E+00  0.13035119963E+00  0.20216167798E-01 0.  0.
         14    1    1    2    0    0 -0.19391233892E-01 -0.65527881056E-02 -0.12368716654E-01  0.23915353551E-01  0.00000000000E+00 0. -1.
     999901    1    3    3    0    0 -0.52956264774E-01  0.16320009498E-01  0.11844973582E+00  0.88966344682E+00  0.88000000000E+00 0.  1.
        -11    1    4    4    0    0  0.64513940911E-01 -0.17885045121E-02 -0.89393974373E-01  0.11025783916E+00  0.51100000000E-03 0.  1.
         11    1    4    4    0    0  0.78335577551E-02 -0.79787168799E-02 -0.16687044795E-01  0.20093360474E-01  0.51100000000E-03 0. -1.
</event>
<event>
 8    1  0.1097777E+005  0.1043930E+01  0.7957747E-01            NaN
         13   -1    0    0    0    0  0.00000000000E+00  0.00000000000E+00  0.74505805969E-08  0.10566000000E+00  0.10566000000E+00 0.  1.
     999900   -1    0    0    0    0 -0.00000000000E+00 -0.00000000000E+00 -0.74505805969E-08  0.93827000000E+00  0.93827000000E+00 0.  1.
     999902    2    1    2    0    0 -0.21338898677E-01  0.10009295516E-01 -0.23434579844E-02  0.10202440044E+01  0.10199690202E+01 0.  0.
     999903    2    3    3    0    0  0.45302272664E-02 -0.24099397429E-01 -0.12604041671E+00  0.13056229038E+00  0.23643627258E-01 0.  0.
         14    1    1    2    0    0  0.21338898677E-01 -0.10009295516E-01  0.23434579844E-02  0.23685995626E-01  0.00000000000E+00 0. -1.
     999901    1    3    3    0    0 -0.25869125943E-01  0.34108692945E-01  0.12369695873E+00  0.88968171399E+00  0.88000000000E+00 0. -1.
        -11    1    4    4    0    0  0.94472478942E-02 -0.25920120156E-01 -0.89878812381E-01  0.94018961693E-01  0.51100000000E-03 0.  1.
         11    1    4    4    0    0 -0.49170206278E-02  0.18207227269E-02 -0.36161604329E-01  0.36543328690E-01  0.51100000000E-03 0. -1.
</event>
<event>
 8    1  0.1097777E+005  0.1043930E+01  0.7957747E-01            NaN
         13   -1    0    0    0    0  0.00000000000E+00  0.00000000000E+00  0.74505805969E-08  0.10566000000E+00  0.10566000000E+00 0.  1.
     999900   -1    0    0    0    0 -0.00000000000E+00 -0.00000000000E+00 -0.74505805969E-08  0.93827000000E+00  0.93827000000E+00 0. -1.
     999902    2    1    2    0    0 -0.19197514992E-03  0.24604503745E-01  0.28339161624E-02  0.10191620865E+01  0.10188610842E+01 0.  0.
     999903    2    3    3    0    0  0.11410340128E+00 -0.53562687413E-01  0.13230686194E-01  0.12827397024E+00  0.19763924624E-01 0.  0.
         14    1    1    2    0    0  0.19197514992E-03 -0.24604503745E-01 -0.28339161624E-02  0.24767913514E-01  0.00000000000E+00 0. -1.
     999901    1    3    3    0    0 -0.11429537643E+00  0.78167191158E-01 -0.10396770031E-01  0.89088811625E+00  0.88000000000E+00 0.  1.
        -11    1    4    4    0    0  0.91583180907E-01 -0.44629068968E-01  0.28728360852E-02  0.10192029793E+00  0.51100000000E-03 0. -1.
         11    1    4    4    0    0  0.22520220373E-01 -0.89336184450E-02  0.10357850108E-01  0.26353672307E-01  0.51100000000E-03 0.  1.
</event>
<event>
 8    1  0.1097777E+005  0.1043930E+01  0.7957747E-01            NaN
         13   -1    0    0    0    0  0.00000000000E+00  0.00000000000E+00  0.74505805969E-08  0.10566000000E+00  0.10566000000E+00 0. -1.
     999900   -1    0    0    0    0 -0.00000000000E+00 -0.00000000000E+00 -0.74505805969E-08  0.93827000000E+00  0.93827000000E+00 0.  1.
     999902    2    1    2    0    0 -0.19875865175E-01  0.10641177164E-01 -0.94474909033E-02  0.10194853738E+01  0.10191922721E+01 0.  0.
     999903    2    3    3    0    0 -0.30183550426E-01 -0.35802732466E-01 -0.12083663541E+00  0.13118878667E+00  0.20399091226E-01 0.  0.
         14    1    1    2    0    0  0.19875865175E-01 -0.10641177164E-01  0.94474909033E-02  0.24444626245E-01  0.00000000000E+00 0. -1.
     999901    1    3    3    0    0  0.10307685251E-01  0.46443909630E-01  0.11138914450E+00  0.88829658709E+00  0.88000000000E+00 0. -1.
        -11    1    4    4    0    0 -0.18892334862E-02 -0.15388307162E-01 -0.47609021809E-01  0.50072440315E-01  0.51100000000E-03 0. -1.
         11    1    4    4    0    0 -0.28294316940E-01 -0.20414425304E-01 -0.73227613598E-01  0.81116346354E-01  0.51100000000E-03 0.  1.
</event>
<event>
 8    1  0.1097777E+005  0.1043930E+01  0.7957747E-01            NaN
         13   -1    0    0    0    0  0.00000000000E+00  0.00000000000E+00  0.74505805969E-08  0.10566000000E+00  0.10566000000E+00 0. -1.
     999900   -1    0    0    0    0 -0.00000000000E+00 -0.00000000000E+00 -0.74505805969E-08  0.93827000000E+00  0.93827000000E+00 0. -1.
     999902    2    1    2    0    0 -0.12212824331E-01  0.17537175726E-01 -0.56908407214E-02  0.10218145918E+01  0.10215752389E+01 0.  0.
     999903    2    3    3    0    0  0.74655446626E-01  0.98649006810E-01 -0.44243226793E-01  0.13298867405E+00  0.20578193618E-01 0.  0.
         14    1    1    2    0    0  0.12212824331E-01 -0.17537175726E-01  0.56908407214E-02  0.22115408174E-01  0.00000000000E+00 0. -1.
     999901    1    3    3    0    0 -0.86868270957E-01 -0.81111831083E-01  0.38552386072E-01  0.88882591778E+00  0.88000000000E+00 0.  1.
        -11    1    4    4    0    0  0.30202243832E-01  0.24263127147E-01 -0.14482037732E-01  0.41362608831E-01  0.51100000000E-03 0. -1.
         11    1    4    4    0    0  0.44453202794E-01  0.74385879663E-01 -0.29761189061E-01  0.91626065217E-01  0.51100000000E-03 0.  1.
</event>
<event>
 8    1  0.1097777E+005  0.1043930E+01  0.7957747E-01            NaN
         13   -1    0    0    0    0  0.00000000000E+00  0.00000000000E+00  0.74505805969E-08  0.10566000000E+00  0.10566000000E+00 0. -1.
     999900   -1    0    0    0    0 -0.00000000000E+00 -0.00000000000E+00 -0.74505805969E-08  0.93827000000E+00  0.93827000000E+00 0. -1.
     999902    2    1    2    0    0  0.26039896228E-02  0.15618706438E-01 -0.18106610386E-01  0.10198764329E+01  0.10195927443E+01 0.  0.
     999903    2    3    3    0    0 -0.11423859852E+00  0.40645973847E-02  0.56169878973E-01  0.12897650317E+00  0.20320057166E-01 0.  0.
         14    1    1    2    0    0 -0.26039896228E-02 -0.15618706438E-01  0.18106610386E-01  0.24053567145E-01  0.00000000000E+00 0. -1.
     999901    1    3    3    0    0  0.11684258814E+00  0.11554109054E-01 -0.74276489358E-01  0.89089992968E+00  0.88000000000E+00 0. -1.
        -11    1    4    4    0    0 -0.69254426962E-01 -0.71763014844E-02  0.36399528864E-01  0.78567561877E-01  0.51100000000E-03 0. -1.
         11    1    4    4    0    0 -0.44984171555E-01  0.11240898869E-01  0.19770350109E-01  0.50408941294E-01  0.51100000000E-03 0.  1.
</event>
<event>
 8    1  0.1097777E+005  0.1043930E+01  0.7957747E-01            NaN
         13   -1    0    0    0    0  0.00000000000E+00  0.00000000000E+00  0.74505805969E-08  0.10566000000E+00  0.10566000000E+00 0. -1.
     999900   -1    0    0    0    0 -0.00000000000E+00 -0.00000000000E+00 -0.74505805969E-08  0.93827000000E+00  0.93827000000E+00 0. -1.
     999902    2    1    2    0    0  0.14016441582E-01 -0.19387674155E-01  0.71696398727E-03  0.10199955775E+01  0.10197147256E+01 0.  0.
     999903    2    3    3    0    0  0.84573864222E-01  0.49057542471E-01  0.84293444575E-01  0.13058671443E+00  0.19700868132E-01 0.  0.
         14    1    1    2    0    0 -0.14016441582E-01  0.19387674155E-01 -0.71696398727E-03  0.23934422515E-01  0.00000000000E+00 0. -1.
     999901    1    3    3    0    0 -0.70557422641E-01 -0.68445216627E-01 -0.83576480588E-01  0.88940886305E+00  0.88000000000E+00 0. -1.
        -11    1    4    4    0    0  0.65786766421E-01  0.28060940925E-01  0.58907376167E-01  0.92658810319E-01  0.51100000000E-03 0.  1.
         11    1    4    4    0    0  0.18787097802E-01  0.20996601546E-01  0.25386068407E-01  0.37927904114E-01  0.51100000000E-03 0. -1.
</event>
<event>
 8    1  0.1097777E+005  0.1043930E+01  0.7957747E-01            NaN
         13   -1    0    0    0    0  0.00000000000E+00  0.00000000000E+00  0.74505805969E-08  0.10566000000E+00  0.10566000000E+00 0. -1.
     999900   -1    0    0    0    0 -0.00000000000E+00 -0.00000000000E+00 -0.74505805969E-08  0.93827000000E+00  0.93827000000E+00 0. -1.
     999902    2    1    2    0    0 -0.45619605363E-02  0.93042434876E-03  0.23257525493E-01  0.10202110273E+01  0.10199352678E+01 0.  0.
     999903    2    3    3    0    0 -0.65701735634E-01  0.37499057166E-02 -0.10837015146E+00  0.12831873173E+00  0.19769353209E-01 0.  0.
         14    1    1    2    0    0  0.45619605363E-02 -0.93042434876E-03 -0.23257525493E-01  0.23718972690E-01  0.00000000000E+00 0.  1.
     999901    1    3    3    0    0  0.61139775098E-01 -0.28194813678E-02  0.13162767696E+00  0.89189229558E+00  0.88000000000E+00 0.  1.
        -11    1    4    4    0    0 -0.43083840281E-01  0.43018057842E-02 -0.52589406310E-01  0.68122166755E-01  0.51100000000E-03 0. -1.
         11    1    4    4    0    0 -0.22617895353E-01 -0.55190006767E-03 -0.55780745153E-01  0.60196564975E-01  0.51100000000E-03 0.  1.
</event>
<event>
 8    1  0.1097777E+005  0.1043930E+01  0.7957747E-01            NaN
         13   -1    0    0    0    0  0.00000000000E+00  0.00000000000E+00  0.74505805969E-08  0.10566000000E+00  0.10566000000E+00 0.  1.
     999900   -1    0    0    0    0 -0.00000000000E+00 -0.00000000000E+00 -0.74505805969E-08  0.93827000000E+00  0.93827000000E+00 0. -1.
     999902    2    1    2    0    0 -0.55334731036E-04 -0.13604328023E-01 -0.19042168323E-01  0.10205273297E+01  0.10202589601E+01 0.  0.
     999903    2    3    3    0    0 -0.20134145430E-01 -0.57664389086E-01  0.11202407315E+00  0.12950386913E+00  0.22165143256E-01 0.  0.
         14    1    1    2    0    0  0.55334731036E-04  0.13604328023E-01  0.19042168323E-01  0.23402670304E-01  0.00000000000E+00 0. -1.
     999901    1    3    3    0    0  0.20078810699E-01  0.44060061063E-01 -0.13106624147E+00  0.89102346056E+00  0.88000000000E+00 0. -1.
        -11    1    4    4    0    0  0.22855459223E-02 -0.45259383848E-02  0.22044127900E-01  0.22625484178E-01  0.51100000000E-03 0. -1.
         11    1    4    4    0    0 -0.22419691352E-01 -0.53138450702E-01  0.89979945246E-01  0.10687838496E+00  0.51100000000E-03 0.  1.
</event>
<event>
 8    1  0.1097777E+005  0.1043930E+01  0.7957747E-01            NaN
         13   -1    0    0    0    0  0.00000000000E+00  0.00000000000E+00  0.74505805969E-08  0.10566000000E+00  0.10566000000E+00 0.  1.
     999900   -1    0    0    0    0 -0.00000000000E+00 -0.00000000000E+00 -0.74505805969E-08  0.93827000000E+00  0.93827000000E+00 0.  1.
     999902    2    1    2    0    0  0.20334777714E-01  0.11339338417E-01 -0.15783064821E-02  0.10205938728E+01  0.10203270448E+01 0.  0.
     999903    2    3    3    0    0  0.12325156945E+00  0.32745005943E-01  0.34526531140E-01  0.13360253807E+00  0.19858802585E-01 0.  0.
         14    1    1    2    0    0 -0.20334777714E-01 -0.11339338417E-01  0.15783064821E-02  0.23336127180E-01  0.00000000000E+00 0. -1.
     999901    1    3    3    0    0 -0.10291679174E+00 -0.21405667526E-01 -0.36104837622E-01  0.88699133475E+00  0.88000000000E+00 0. -1.
        -11    1    4    4    0    0  0.40261900739E-01  0.74821534948E-02  0.21640077008E-02  0.41011551084E-01  0.51100000000E-03 0. -1.
         11    1    4    4    0    0  0.82989668710E-01  0.25262852448E-01  0.32362523439E-01  0.92590986985E-01  0.51100000000E-03 0.  1.
</event>
<event>
 8    1  0.1097777E+005  0.1043930E+01  0.7957747E-01            NaN
         13   -1    0    0    0    0  0.00000000000E+00  0.00000000000E+00  0.74505805969E-08  0.10566000000E+00  0.10566000000E+00 0.  1.
     999900   -1    0    0    0    0 -0.00000000000E+00 -0.00000000000E+00 -0.74505805969E-08  0.93827000000E+00  0.93827000000E+00 0.  1.
     999902    2    1    2    0    0  0.62742476678E-02 -0.21608974506E-01 -0.93698989791E-02  0.10195556493E+01  0.10192642509E+01 0.  0.
     999903    2    3    3    0    0 -0.98926161096E-01  0.58007770545E-01  0.52383559326E-01  0.12758062631E+00  0.19531823525E-01 0.  0.
         14    1    1    2    0    0 -0.62742476678E-02  0.21608974506E-01  0.93698989791E-02  0.24374350656E-01  0.00000000000E+00 0. -1.
     999901    1    3    3    0    0  0.10520040876E+00 -0.79616745051E-01 -0.61753458305E-01  0.89197502303E+00  0.88000000000E+00 0. -1.
        -11    1    4    4    0    0 -0.71880701245E-01  0.31666848268E-01  0.36618367106E-01  0.86664816513E-01  0.51100000000E-03 0.  1.
         11    1    4    4    0    0 -0.27045459851E-01  0.26340922277E-01  0.15765192220E-01  0.40915809801E-01  0.51100000000E-03 0. -1.
</event>
<event>
 8    1  0.1097777E+005  0.1043930E+01  0.7957747E-01            NaN
         13   -1    0    0    0    0  0.00000000000E+00  0.00000000000E+00  0.74505805969E-08  0.10566000000E+00  0.10566000000E+00 0. -1.
     999900   -1    0    0    0    0 -0.00000000000E+00 -0.00000000000E+00 -0.74505805969E-08  0.93827000000E+00  0.93827000000E+00 0. -1.
     999902    2    1    2    0    0 -0.20833723377E-01 -0.85494687120E-02 -0.89521728730E-02  0.10196961632E+01  0.10194081550E+01 0.  0.
     999903    2    3    3    0    0 -0.51091458570E-01 -0.18232671403E-01  0.11638281767E+00  0.13024793270E+00  0.21835665269E-01 0.  0.
         14    1    1    2    0    0  0.20833723377E-01  0.85494687120E-02  0.89521728730E-02  0.24233836761E-01  0.00000000000E+00 0. -1.
     999901    1    3    3    0    0  0.30257735193E-01  0.96832026911E-02 -0.12533499055E+00  0.88944823054E+00  0.88000000000E+00 0. -1.
        -11    1    4    4    0    0 -0.37596842083E-01 -0.95902473902E-02  0.10027306337E+00  0.10751950399E+00  0.51100000000E-03 0. -1.
         11    1    4    4    0    0 -0.13494616487E-01 -0.86424240129E-02  0.16109754306E-01  0.22728428713E-01  0.51100000000E-03 0.  1.
</event>
<event>
 8    1  0.1097777E+005  0.1043930E+01  0.7957747E-01            NaN
         13   -1    0    0    0    0  0.00000000000E+00  0.00000000000E+00  0.74505805969E-08  0.10566000000E+00  0.10566000000E+00 0. -1.
     999900   -1    0    0    0    0 -0.00000000000E+00 -0.00000000000E+00 -0.74505805969E-08  0.93827000000E+00  0.93827000000E+00 0. -1.
     999902    2    1    2    0    0  0.75113251580E-02  0.83647709650E-03  0.21808184297E-01  0.10208493457E+01  0.10205883940E+01 0.  0.
     999903    2    3    3    0    0  0.12570929111E+00  0.15089082167E-01  0.34643391391E-01  0.13273975876E+00  0.19727461000E-01 0.  0.
         14    1    1    2    0    0 -0.75113251580E-02 -0.83647709650E-03 -0.21808184297E-01  0.23080654278E-01  0.00000000000E+00 0.  1.
     999901    1    3    3    0    0 -0.11819796595E+00 -0.14252605071E-01 -0.12835207093E-01  0.88810958696E+00  0.88000000000E+00 0.  1.
        -11    1    4    4    0    0  0.84239674699E-01  0.17187750878E-01  0.29498390934E-01  0.90896412263E-01  0.51100000000E-03 0.  1.
         11    1    4    4    0    0  0.41469616411E-01 -0.20986687109E-02  0.51450004568E-02  0.41843346500E-01  0.51100000000E-03 0. -1.
</event>
<event>
 8    1  0.1097777E+005  0.1043930E+01  0.7957747E-01            NaN
         13   -1    0    0    0    0  0.00000000000E+00  0.00000000000E+00  0.74505805969E-08  0.10566000000E+00  0.10566000000E+00 0. -1.
     999900   -1    0    0    0    0 -0.00000000000E+00 -0.00000000000E+00 -0.74505805969E-08  0.93827000000E+00  0.93827000000E+00 0. -1.
     999902    2    1    2    0    0  0.11652087573E-02 -0.22620537157E-01 -0.89158738003E-02  0.10195878715E+01  0.10192972523E+01 0.  0.
     999903    2    3    3    0    0 -0.20912719624E-01 -0.44253684285E-01 -0.12080279681E+00  0.13196514114E+00  0.20633767059E-01 0.  0.
         14    1    1    2    0    0 -0.11652087573E-02  0.22620537157E-01  0.89158738003E-02  0.24342128468E-01  0.00000000000E+00 0.  1.
     999901    1    3    3    0    0  0.22077928381E-01  0.21633147128E-01  0.11188692301E+00  0.88762273040E+00  0.88000000000E+00 0.  1.
        -11    1    4    4    0    0 -0.18641182198E-03 -0.23970107935E-01 -0.49987224622E-01  0.55439918562E-01  0.51100000000E-03 0. -1.
         11    1    4    4    0    0 -0.20726307802E-01 -0.20283576350E-01 -0.70815572188E-01  0.76525222573E-01  0.51100000000E-03 0.  1.
</event>
<event>
 8    1  0.1097777E+005  0.1043930E+01  0.7957747E-01            NaN
         13   -1    0    0    0    0  0.00000000000E+00  0.00000000000E+00  0.74505805969E-08  0.10566000000E+00  0.10566000000E+00 0.  1.
     999900   -1    0    0    0    0 -0.00000000000E+00 -0.00000000000E+00 -0.74505805969E-08  0.93827000000E+00  0.93827000000E+00 0.  1.
     999902    2    1    2    0    0 -0.77839525753E-02 -0.20842771750E-01 -0.48661250833E-02  0.10211552283E+01  0.10209012245E+01 0.  0.
     999903    2    3    3    0    0 -0.11376561639E+00  0.61310526752E-01 -0.56480064210E-02  0.13099687788E+00  0.20656376103E-01 0.  0.
         14    1    1    2    0    0  0.77839525753E-02  0.20842771750E-01  0.48661250833E-02  0.22774771684E-01  0.00000000000E+00 0.  1.
     999901    1    3    3    0    0  0.10598166381E+00 -0.82153298502E-01  0.78188133774E-03  0.89015835044E+00  0.88000000000E+00 0.  1.
        -11    1    4    4    0    0 -0.10880527881E+00  0.55664359322E-01 -0.11514748407E-02  0.12222396087E+00  0.51100000000E-03 0. -1.
         11    1    4    4    0    0 -0.49603375827E-02  0.56461674300E-02 -0.44965315803E-02  0.87729170083E-02  0.51100000000E-03 0.  1.
</event>
<event>
 8    1  0.1097777E+005  0.1043930E+01  0.7957747E-01            NaN
         13   -1    0    0    0    0  0.00000000000E+00  0.00000000000E+00  0.74505805969E-08  0.10566000000E+00  0.10566000000E+00 0.  1.
     999900   -1    0    0    0    0 -0.00000000000E+00 -0.00000000000E+00 -0.74505805969E-08  0.93827000000E+00  0.93827000000E+00 0. -1.
     999902    2    1    2    0    0  0.49348926255E-02  0.16198448281E-01  0.16945073049E-01  0.10199742409E+01  0.10196928821E+01 0.  0.
     999903    2    3    3    0    0 -0.63103207127E-01 -0.38498243245E-01 -0.10218417669E+00  0.12766673271E+00  0.19825720486E-01 0.  0.
         14    1    1    2    0    0 -0.49348926255E-02 -0.16198448281E-01 -0.16945073049E-01  0.23955759069E-01  0.00000000000E+00 0. -1.
     999901    1    3    3    0    0  0.68038099753E-01  0.54696691525E-01  0.11912924974E+00  0.89230750822E+00  0.88000000000E+00 0.  1.
        -11    1    4    4    0    0 -0.21933204196E-01 -0.19254182368E-01 -0.54297359566E-01  0.61646195031E-01  0.51100000000E-03 0.  1.
         11    1    4    4    0    0 -0.41170002931E-01 -0.19244060877E-01 -0.47886817124E-01  0.66020537681E-01  0.51100000000E-03 0. -1.
</event>
<event>
 8    1  0.1097777E+005  0.1043930E+01  0.7957747E-01            NaN
         13   -1    0    0    0    0  0.00000000000E+00  0.00000000000E+00  0.74505805969E-08  0.10566000000E+00  0.10566000000E+00 0. -1.
     999900   -1    0    0    0    0 -0.00000000000E+00 -0.00000000000E+00 -0.74505805969E-08  0.93827000000E+00  0.93827000000E+00 0.  1.
     999902    2    1    2    0    0  0.13430680611E-01  0.20359303595E-02 -0.17836614162E-01  0.10215096298E+01  0.10212635560E+01 0.  0.
     999903    2    3    3    0    0  0.77103498911E-02 -0.54316164644E-01 -0.12034870110E+00  0.13375008537E+00  0.19889199154E-01 0.  0.
         14    1    1    2    0    0 -0.13430680611E-01 -0.20359303595E-02  0.17836614162E-01  0.22420370177E-01  0.00000000000E+00 0. -1.
     999901    1    3    3    0    0  0.57203307202E-02  0.56352095004E-01  0.10251208694E+00  0.88775954445E+00  0.88000000000E+00 0. -1.
        -11    1    4    4    0    0  0.13483925229E-01 -0.47634118350E-01 -0.10187545132E+00  0.11326823992E+00  0.51100000000E-03 0.  1.
         11    1    4    4    0    0 -0.57735753378E-02 -0.66820462940E-02 -0.18473249780E-01  0.20481845456E-01  0.51100000000E-03 0. -1.
</event>
<event>
 8    1  0.1097777E+005  0.1043930E+01  0.7957747E-01            NaN
         13   -1    0    0    0    0  0.00000000000E+00  0.00000000000E+00  0.74505805969E-08  0.10566000000E+00  0.10566000000E+00 0. -1.
     999900   -1    0    0    0    0 -0.00000000000E+00 -0.00000000000E+00 -0.74505805969E-08  0.93827000000E+00  0.93827000000E+00 0.  1.
     999902    2    1    2    0    0 -0.21850076043E-01 -0.85726900686E-02 -0.13172330229E-02  0.10204214496E+01  0.10201506178E+01 0.  0.
     999903    2    3    3    0    0  0.85237086891E-01  0.81760923412E-01  0.45673766341E-01  0.12810089275E+00  0.19327084960E-01 0.  0.
         14    1    1    2    0    0  0.21850076043E-01  0.85726900686E-02  0.13172330229E-02  0.23508550380E-01  0.00000000000E+00 0.  1.
     999901    1    3    3    0    0 -0.10708716293E+00 -0.90333613481E-01 -0.46990999364E-01  0.89232055687E+00  0.88000000000E+00 0.  1.
        -11    1    4    4    0    0  0.18261218128E-01  0.29623001908E-01  0.13346100623E-01  0.37274305525E-01  0.51100000000E-03 0. -1.
         11    1    4    4    0    0  0.66975868763E-01  0.52137921504E-01  0.32327665718E-01  0.90826587226E-01  0.51100000000E-03 0.  1.
</event>
<event>
 8    1  0.1097777E+005  0.1043930E+01  0.7957747E-01            NaN
         13   -1    0    0    0    0  0.00000000000E+00  0.00000000000E+00  0.74505805969E-08  0.10566000000E+00  0.10566000000E+00 0. -1.
     999900   -1    0    0    0    0 -0.00000000000E+00 -0.00000000000E+00 -0.74505805969E-08  0.93827000000E+00  0.93827000000E+00 0.  1.
     999902    2    1    2    0    0  0.27483842231E-01  0.30871972963E-02 -0.90389422944E-02  0.10148336970E+01  0.10144165011E+01 0.  0.
     999903    2    3    3    0    0  0.48555889928E-01  0.10962055009E+00 -0.38629958572E-01  0.12766459547E+00  0.20775846294E-01 0.  0.
         14    1    1    2    0    0 -0.27483842231E-01 -0.30871972963E-02  0.90389422944E-02  0.29096303008E-01  0.00000000000E+00 0. -1.
     999901    1    3    3    0    0 -0.21072047697E-01 -0.10653335279E+00  0.29591016278E-01  0.88716910152E+00  0.88000000000E+00 0. -1.
        -11    1    4    4    0    0  0.33422793621E-01  0.54438661827E-01 -0.26562472153E-01  0.69184370220E-01  0.51100000000E-03 0. -1.
         11    1    4    4    0    0  0.15133096307E-01  0.55181888261E-01 -0.12067486419E-01  0.58480225250E-01  0.51100000000E-03 0.  1.
</event>
<event>
 8    1  0.1097777E+005  0.1043930E+01  0.7957747E-01            NaN
         13   -1    0    0    0    0  0.00000000000E+00  0.00000000000E+00  0.74505805969E-08  0.10566000000E+00  0.10566000000E+00 0.  1.
     999900   -1    0    0    0    0 -0.00000000000E+00 -0.00000000000E+00 -0.74505805969E-08  0.93827000000E+00  0.93827000000E+00 0.  1.
     999902    2    1    2    0    0  0.15309986372E-01 -0.16051698125E-01  0.59526016120E-02  0.10209629331E+01  0.10207045727E+01 0.  0.
     999903    2    3    3    0    0  0.76304657840E-01 -0.43089172735E-01  0.99293659614E-01  0.13351494698E+00  0.16968577218E-01 0.  0.
         14    1    1    2    0    0 -0.15309986372E-01  0.16051698125E-01 -0.59526016120E-02  0.22967066886E-01  0.00000000000E+00 0. -1.
     999901    1    3    3    0    0 -0.60994671468E-01  0.27037474610E-01 -0.93341058002E-01  0.88744798613E+00  0.88000000000E+00 0.  1.
        -11    1    4    4    0    0  0.54567089156E-01 -0.22531312330E-01  0.60645833828E-01  0.84636904102E-01  0.51100000000E-03 0.  1.
         11    1    4    4    0    0  0.21737568684E-01 -0.20557860405E-01  0.38647825786E-01  0.48878042880E-01  0.51100000000E-03 0. -1.
</event>
<event>
 8    1  0.1097777E+005  0.1043930E+01  0.7957747E-01            NaN
         13   -1    0    0    0    0  0.00000000000E+00  0.00000000000E+00  0.74505805969E-08  0.10566000000E+00  0.10566000000E+00 0. -1.
     999900   -1    0    0    0    0 -0.00000000000E+00 -0.00000000000E+00 -0.74505805969E-08  0.93827000000E+00  0.93827000000E+00 0. -1.
     999902    2    1    2    0    0 -0.15927444888E-01 -0.13681648356E-01 -0.52221898207E-02  0.10222934044E+01  0.10220644121E+01 0.  0.
     999903    2    3    3    0    0  0.13990569184E-02  0.12682700953E+00 -0.24551150248E-01  0.13076858741E+00  0.20263681048E-01 0.  0.
         14    1    1    2    0    0  0.15927444888E-01  0.13681648356E-01  0.52221898207E-02  0.21636595594E-01  0.00000000000E+00 0. -1.
     999901    1    3    3    0    0 -0.17326501806E-01 -0.14050865788E+00  0.19328960427E-01  0.89152481699E+00  0.88000000000E+00 0.  1.
        -11    1    4    4    0    0 -0.76734545677E-02  0.24420239004E-01 -0.60565089262E-02  0.26309169493E-01  0.51100000000E-03 0.  1.
         11    1    4    4    0    0  0.90725114860E-02  0.10240677052E+00 -0.18494641322E-01  0.10445941792E+00  0.51100000000E-03 0. -1.
</event>
<event>
 8    1  0.1097777E+005  0.1043930E+01  0.7957747E-01            NaN
         13   -1    0    0    0    0  0.00000000000E+00  0.00000000000E+00  0.74505805969E-08  0.10566000000E+00  0.10566000000E+00 0.  1.
     999900   -1    0    0    0    0 -0.00000000000E+00 -0.00000000000E+00 -0.74505805969E-08  0.93827000000E+00  0.93827000000E+00 0. -1.
     999902    2    1    2    0    0 -0.13799048181E-02  0.19285935961E-01 -0.14553291881E-01  0.10197297982E+01  0.10194425985E+01 0.  0.
     999903    2    3    3    0    0  0.93708150324E-02  0.52687163668E-01 -0.11961977430E+00  0.13278550134E+00  0.21432442058E-01 0.  0.
         14    1    1    2    0    0  0.13799048181E-02 -0.19285935961E-01  0.14553291881E-01  0.24200201812E-01  0.00000000000E+00 0. -1.
     999901    1    3    3    0    0 -0.10750719850E-01 -0.33401227707E-01  0.10506648242E+00  0.88694429685E+00  0.88000000000E+00 0.  1.
        -11    1    4    4    0    0 -0.59705432960E-02  0.27303609368E-01 -0.55930155356E-01  0.62526617299E-01  0.51100000000E-03 0.  1.
         11    1    4    4    0    0  0.15341358328E-01  0.25383554299E-01 -0.63689618941E-01  0.70258884037E-01  0.51100000000E-03 0. -1.
</event>
<event>
 8    1  0.1097777E+005  0.1043930E+01  0.7957747E-01            NaN
         13   -1    0    0    0    0  0.00000000000E+00  0.00000000000E+00  0.74505805969E-08  0.10566000000E+00  0.10566000000E+00 0. -1.
     999900   -1    0    0    0    0 -0.00000000000E+00 -0.00000000000E+00 -0.74505805969E-08  0.93827000000E+00  0.93827000000E+00 0.  1.
     999902    2    1    2    0    0  0.24341259628E-01  0.29103287072E-01 -0.25774761180E-03  0.10059884045E+01  0.10052726522E+01 0.  0.
     999903    2    3    3    0    0  0.58921013890E-01 -0.39015667790E-01 -0.92298499818E-01  0.11789637573E+00  0.19663014289E-01 0.  0.
         14    1    1    2    0    0 -0.24341259628E-01 -0.29103287072E-01  0.25774761180E-03  0.37941595545E-01  0.00000000000E+00 0.  1.
     999901    1    3    3    0    0 -0.34579754262E-01  0.68118954862E-01  0.92040752206E-01  0.88809202872E+00  0.88000000000E+00 0. -1.
        -11    1    4    4    0    0  0.36928383725E-01 -0.28926192321E-01 -0.73743100766E-01  0.87399863606E-01  0.51100000000E-03 0. -1.
         11    1    4    4    0    0  0.21992630165E-01 -0.10089475469E-01 -0.18555399052E-01  0.30496512125E-01  0.51100000000E-03 0.  1.
</event>
<event>
 8    1  0.1097777E+005  0.1043930E+01  0.7957747E-01            NaN
         13   -1    0    0    0    0  0.00000000000E+00  0.00000000000E+00  0.74505805969E-08  0.10566000000E+00  0.10566000000E+00 0.  1.
     999900   -1    0    0    0    0 -0.00000000000E+00 -0.00000000000E+00 -0.74505805969E-08  0.93827000000E+00  0.93827000000E+00 0. -1.
     999902    2    1    2    0    0 -0.11374089455E-01  0.23237817021E-01  0.25973598868E-03  0.10180565867E+01  0.10177277535E+01 0.  0.
     999903    2    3    3    0    0  0.52497441880E-02 -0.10335155286E+00  0.70349300811E-01  0.12608474441E+00  0.15467234937E-01 0.  0.
         14    1    1    2    0    0  0.11374089455E-01 -0.23237817021E-01 -0.25973598868E-03  0.25873413258E-01  0.00000000000E+00 0. -1.
     999901    1    3    3    0    0 -0.16623833643E-01  0.12658936988E+00 -0.70089564822E-01  0.89197184233E+00  0.88000000000E+00 0. -1.
        -11    1    4    4    0    0  0.81148276585E-02 -0.57417759574E-01  0.45968772821E-01  0.74000261743E-01  0.51100000000E-03 0.  1.
         11    1    4    4    0    0 -0.28650834704E-02 -0.45933793285E-01  0.24380527989E-01  0.52084482669E-01  0.51100000000E-03 0. -1.
</event>
<event>
 8    1  0.1097777E+005  0.1043930E+01  0.7957747E-01            NaN
         13   -1    0    0    0    0  0.00000000000E+00  0.00000000000E+00  0.74505805969E-08  0.10566000000E+00  0.10566000000E+00 0. -1.
     999900   -1    0    0    0    0 -0.00000000000E+00 -0.00000000000E+00 -0.74505805969E-08  0.93827000000E+00  0.93827000000E+00 0.  1.
     999902    2    1    2    0    0 -0.87297854862E-02 -0.48614838965E-02 -0.22019493339E-01  0.10197494031E+01  0.10194626741E+01 0.  0.
     999903    2    3    3    0    0  0.44099088077E-01  0.92415216603E-01  0.73562186682E-01  0.12767905614E+00  0.20130679025E-01 0.  0.
         14    1    1    2    0    0  0.87297854862E-02  0.48614838965E-02  0.22019493339E-01  0.24180596916E-01  0.00000000000E+00 0. -1.
     999901    1    3    3    0    0 -0.52828873563E-01 -0.97276700500E-01 -0.95581680021E-01  0.89207034694E+00  0.88000000000E+00 0.  1.
        -11    1    4    4    0    0  0.22721085161E-01  0.52225254798E-01  0.28756869534E-01  0.63803946712E-01  0.51100000000E-03 0. -1.
         11    1    4    4    0    0  0.21378002916E-01  0.40189961806E-01  0.44805317148E-01  0.63875109427E-01  0.51100000000E-03 0.  1.
</event>
<event>
 8    1  0.1097777E+005  0.1043930E+01  0.7957747E-01            NaN
         13   -1    0    0    0    0  0.00000000000E+00  0.00000000000E+00  0.74505805969E-08  0.10566000000E+00  0.10566000000E+00 0.  1.
     999900   -1    0    0    0    0 -0.00000000000E+00 -0.00000000000E+00 -0.74505805969E-08  0.93827000000E+00  0.93827000000E+00 0. -1.
     999902    2    1    2    0    0 -0.12742409092E-01  0.17015929579E-01  0.93049911318E-02  0.10207245328E+01  0.10204607186E+01 0.  0.
     999903    2    3    3    0    0 -0.11665365681E+00 -0.56637531568E-01  0.99081091368E-02  0.13155483948E+00  0.19814629290E-01 0.  0.
         14    1    1    2    0    0  0.12742409092E-01 -0.17015929579E-01 -0.93049911318E-02  0.23205467219E-01  0.00000000000E+00 0. -1.
     999901    1    3    3    0    0  0.10391124772E+00  0.73653461147E-01 -0.60311800501E-03  0.88916969331E+00  0.88000000000E+00 0.  1.
        -11    1    4    4    0    0 -0.10847652099E+00 -0.46805090232E-01  0.11285633217E-01  0.11868234374E+00  0.51100000000E-03 0.  1.
         11    1    4    4    0    0 -0.81771358148E-02 -0.98324413366E-02 -0.13775240800E-02  0.12872495732E-01  0.51100000000E-03 0. -1.
</event>
<event>
 7    1  0.1097777E+005  0.1043930E+01  0.7957747E-01            NaN
         13   -1    0    0    0    0  0.00000000000E+00  0.00000000000E+00  0.74505805969E-08  0.10566000000E+00  0.10566000000E+00 0.  1.
     999900   -1    0    0    0    0 -0.00000000000E+00 -0.00000000000E+00 -0.74505805969E-08  0.93827000000E+00  0.93827000000E+00 0.  1.
     999903    2    1    2    0    0  0.77412164733E-01  0.26513930710E-01 -0.73604346430E-01  0.11137969344E+00  0.17093990971E-01 0.  0.
         14    1    1    2    0    0  0.81911489459E-02  0.33603166429E-01  0.29163735088E-01  0.45241476096E-01  0.00000000000E+00 0.  1.
     999901    1    1    2    0    0 -0.85603313678E-01 -0.60117097139E-01  0.44440611342E-01  0.88730883046E+00  0.88000000000E+00 0. -1.
        -11    1    3    3    0    0  0.34038486447E-01  0.81599162655E-02 -0.41918968301E-01  0.54613769486E-01  0.51100000000E-03 0. -1.
         11    1    3    3    0    0  0.43373678285E-01  0.18354014445E-01 -0.31685378129E-01  0.56765923954E-01  0.51100000000E-03 0.  1.
</event>
<event>
 8    1  0.1097777E+005  0.1043930E+01  0.7957747E-01            NaN
         13   -1    0    0    0    0  0.00000000000E+00  0.00000000000E+00  0.74505805969E-08  0.10566000000E+00  0.10566000000E+00 0. -1.
     999900   -1    0    0    0    0 -0.00000000000E+00 -0.00000000000E+00 -0.74505805969E-08  0.93827000000E+00  0.93827000000E+00 0. -1.
     999902    2    1    2    0    0 -0.21889536174E-02 -0.14006795839E-01  0.19648044886E-01  0.10197013493E+01  0.10194134658E+01 0.  0.
     999903    2    3    3    0    0 -0.53788834051E-01  0.66635689712E-01  0.97233441201E-01  0.13111525224E+00  0.20082665928E-01 0.  0.
         14    1    1    2    0    0  0.21889536174E-02  0.14006795839E-01 -0.19648044886E-01  0.24228650715E-01  0.00000000000E+00 0.  1.
     999901    1    3    3    0    0  0.51599880434E-01 -0.80642485550E-01 -0.77585396315E-01  0.88858609704E+00  0.88000000000E+00 0. -1.
        -11    1    4    4    0    0 -0.20964422140E-01  0.13286340942E-01  0.34093811909E-01  0.42174435180E-01  0.51100000000E-03 0.  1.
         11    1    4    4    0    0 -0.32824411911E-01  0.53349348770E-01  0.63139629293E-01  0.88940817062E-01  0.51100000000E-03 0. -1.
</event>
<event>
 8    1  0.1097777E+005  0.1043930E+01  0.7957747E-01            NaN
         13   -1    0    0    0    0  0.00000000000E+00  0.00000000000E+00  0.74505805969E-08  0.10566000000E+00  0.10566000000E+00 0. -1.
     999900   -1    0    0    0    0 -0.00000000000E+00 -0.00000000000E+00 -0.74505805969E-08  0.93827000000E+00  0.93827000000E+00 0.  1.
     999902    2    1    2    0    0 -0.33425853054E-02  0.25258062634E-01 -0.10302838445E-01  0.10164474404E+01  0.10160758377E+01 0.  0.
     999903    2    3    3    0    0 -0.10904315901E+00 -0.40051427069E-01  0.44214730708E-01  0.12604859373E+00  0.20947033956E-01 0.  0.
         14    1    1    2    0    0  0.33425853054E-02 -0.25258062634E-01  0.10302838445E-01  0.27482559644E-01  0.00000000000E+00 0.  1.
     999901    1    3    3    0    0  0.10570057371E+00  0.65309489703E-01 -0.54517569154E-01  0.89039884663E+00  0.88000000000E+00 0. -1.
        -11    1    4    4    0    0 -0.50827030505E-01 -0.25432584627E-01  0.12643273266E-01  0.58226427597E-01  0.51100000000E-03 0.  1.
         11    1    4    4    0    0 -0.58216128509E-01 -0.14618842442E-01  0.31571457443E-01  0.67822166133E-01  0.51100000000E-03 0. -1.
</event>
<event>
 8    1  0.1097777E+005  0.1043930E+01  0.7957747E-01            NaN
         13   -1    0    0    0    0  0.00000000000E+00  0.00000000000E+00  0.74505805969E-08  0.10566000000E+00  0.10566000000E+00 0.  1.
     999900   -1    0    0    0    0 -0.00000000000E+00 -0.00000000000E+00 -0.74505805969E-08  0.93827000000E+00  0.93827000000E+00 0. -1.
     999902    2    1    2    0    0  0.20945009921E-01  0.59545115607E-02  0.78599116805E-02  0.10207798842E+01  0.10205173414E+01 0.  0.
     999903    2    3    3    0    0 -0.67599563142E-01 -0.88816656611E-01  0.62538776158E-01  0.12959444115E+00  0.20628165826E-01 0.  0.
         14    1    1    2    0    0 -0.20945009921E-01 -0.59545115607E-02 -0.78599116805E-02  0.23150115769E-01  0.00000000000E+00 0. -1.
     999901    1    3    3    0    0  0.88544573063E-01  0.94771168172E-01 -0.54678864478E-01  0.89118544308E+00  0.88000000000E+00 0.  1.
        -11    1    4    4    0    0 -0.17381557529E-01 -0.22171932602E-01  0.26553653231E-01  0.38717835146E-01  0.51100000000E-03 0.  1.
         11    1    4    4    0    0 -0.50218005613E-01 -0.66644724009E-01  0.35985122927E-01  0.90876606006E-01  0.51100000000E-03 0. -1.
</event>
<event>
 8    1  0.1097777E+005  0.1043930E+01  0.7957747E-01            NaN
         13   -1    0    0    0    0  0.00000000000E+00  0.00000000000E+00  0.74505805969E-08  0.10566000000E+00  0.10566000000E+00 0.  1.
     999900   -1    0    0    0    0 -0.00000000000E+00 -0.00000000000E+00 -0.74505805969E-08  0.93827000000E+00  0.93827000000E+00 0.  1.
     999902    2    1    2    0    0 -0.10780049822E-01  0.16557679615E-01  0.18902313838E-01  0.10165865603E+01  0.10162187613E+01 0.  0.
     999903    2    3    3    0    0 -0.18144558608E-01 -0.10958929848E+00 -0.51588235843E-01  0.12477031592E+00  0.23816933224E-01 0.  0.
         14    1    1    2    0    0  0.10780049822E-01 -0.16557679615E-01 -0.18902313838E-01  0.27343439740E-01  0.00000000000E+00 0.  1.
     999901    1    3    3    0    0  0.73645087866E-02  0.12614697810E+00  0.70490549680E-01  0.89181624434E+00  0.88000000000E+00 0. -1.
        -11    1    4    4    0    0 -0.69798799539E-02 -0.41360170429E-01 -0.32442859607E-01  0.53030016807E-01  0.51100000000E-03 0. -1.
         11    1    4    4    0    0 -0.11164678655E-01 -0.68229128055E-01 -0.19145376235E-01  0.71740299113E-01  0.51100000000E-03 0.  1.
</event>
<event>
 8    1  0.1097777E+005  0.1043930E+01  0.7957747E-01            NaN
         13   -1    0    0    0    0  0.00000000000E+00  0.00000000000E+00  0.74505805969E-08  0.10566000000E+00  0.10566000000E+00 0.  1.
     999900   -1    0    0    0    0 -0.00000000000E+00 -0.00000000000E+00 -0.74505805969E-08  0.93827000000E+00  0.93827000000E+00 0.  1.
     999902    2    1    2    0    0 -0.21688781746E-02 -0.12666590172E-01 -0.21232959048E-01  0.10191109531E+01  0.10188086914E+01 0.  0.
     999903    2    3    3    0    0  0.34859565232E-01  0.26473861247E-01 -0.12282910159E+00  0.13162863962E+00  0.17973757322E-01 0.  0.
         14    1    1    2    0    0  0.21688781746E-02  0.12666590172E-01  0.21232959048E-01  0.24819046901E-01  0.00000000000E+00 0.  1.
     999901    1    3    3    0    0 -0.37028443406E-01 -0.39140451419E-01  0.10159614255E+00  0.88748231348E+00  0.88000000000E+00 0. -1.
        -11    1    4    4    0    0  0.55493473517E-02  0.13710549921E-01 -0.48679321127E-01  0.50879385428E-01  0.51100000000E-03 0. -1.
         11    1    4    4    0    0  0.29310217880E-01  0.12763311326E-01 -0.74149780468E-01  0.80749254192E-01  0.51100000000E-03 0.  1.
</event>
<event>
 8    1  0.1097777E+005  0.1043930E+01  0.7957747E-01            NaN
         13   -1    0    0    0    0  0.00000000000E+00  0.00000000000E+00  0.74505805969E-08  0.10566000000E+00  0.10566000000E+00 0.  1.
     999900   -1    0    0    0    0 -0.00000000000E+00 -0.00000000000E+00 -0.74505805969E-08  0.93827000000E+00  0.93827000000E+00 0.  1.
     999902    2    1    2    0    0 -0.75077604564E-02  0.21258181967E-01  0.46654713945E-02  0.10209073288E+01  0.10206477015E+01 0.  0.
     999903    2    3    3    0    0 -0.37823000739E-01  0.25066525805E-01  0.12295823779E+00  0.13246673094E+00  0.19230092703E-01 0.  0.
         14    1    1    2    0    0  0.75077604564E-02 -0.21258181967E-01 -0.46654713945E-02  0.23022671238E-01  0.00000000000E+00 0.  1.
     999901    1    3    3    0    0  0.30315240283E-01 -0.38083438384E-02 -0.11829276639E+00  0.88844059782E+00  0.88000000000E+00 0.  1.
        -11    1    4    4    0    0 -0.38718169408E-01  0.26853412942E-01  0.11926356412E+00  0.12823517956E+00  0.51100000000E-03 0. -1.
         11    1    4    4    0    0  0.89516866900E-03 -0.17868871367E-02  0.36946736716E-02  0.42315513851E-02  0.51100000000E-03 0.  1.
</event>
<event>
 8    1  0.1097777E+005  0.1043930E+01  0.7957747E-01            NaN
         13   -1    0    0    0    0  0.00000000000E+00  0.00000000000E+00  0.74505805969E-08  0.10566000000E+00  0.10566000000E+00 0. -1.
     999900   -1    0    0    0    0 -0.00000000000E+00 -0.00000000000E+00 -0.74505805969E-08  0.93827000000E+00  0.93827000000E+00 0.  1.
     999902    2    1    2    0    0 -0.29725943480E-01 -0.24374814438E-03 -0.57331266223E-02  0.10136552602E+01  0.10132030530E+01 0.  0.
     999903    2    3    3    0    0  0.27037182116E-01 -0.97492614949E-01  0.67800371305E-01  0.12343811263E+00  0.20106171020E-01 0.  0.
         14    1    1    2    0    0  0.29725943480E-01  0.24374814438E-03  0.57331266223E-02  0.30274739798E-01  0.00000000000E+00 0. -1.
     999901    1    3    3    0    0 -0.56763125596E-01  0.97248866805E-01 -0.73533497927E-01  0.89021714758E+00  0.88000000000E+00 0.  1.
        -11    1    4    4    0    0  0.11600565916E-01 -0.58380070826E-01  0.28964217001E-01  0.66196622170E-01  0.51100000000E-03 0.  1.
         11    1    4    4    0    0  0.15436616200E-01 -0.39112544124E-01  0.38836154303E-01  0.57241490456E-01  0.51100000000E-03 0. -1.
</event>
<event>
 8    1  0.1097777E+005  0.1043930E+01  0.7957747E-01            NaN
         13   -1    0    0    0    0  0.00000000000E+00  0.00000000000E+00  0.74505805969E-08  0.10566000000E+00  0.10566000000E+00 0.  1.
     999900   -1    0    0    0    0 -0.00000000000E+00 -0.00000000000E+00 -0.74505805969E-08  0.93827000000E+00  0.93827000000E+00 0.  1.
     999902    2    1    2    0    0  0.15542379902E-01 -0.16119163954E-01 -0.95292804908E-02  0.10195948360E+01  0.10193043851E+01 0.  0.
     999903    2    3    3    0    0  0.12142394438E+00 -0.44678820951E-01 -0.21517048644E-01  0.13270686885E+00  0.20202929182E-01 0.  0.
         14    1    1    2    0    0 -0.15542379902E-01  0.16119163954E-01  0.95292804908E-02  0.24335163987E-01  0.00000000000E+00 0.  1.
     999901    1    3    3    0    0 -0.10588156448E+00  0.28559656997E-01  0.11987768153E-01  0.88688796716E+00  0.88000000000E+00 0. -1.
        -11    1    4    4    0    0  0.10499638403E+00 -0.32446784395E-01 -0.13568329526E-01  0.11073118424E+00  0.51100000000E-03 0.  1.
         11    1    4    4    0    0  0.16427560354E-01 -0.12232036556E-01 -0.79487191186E-02  0.21975684610E-01  0.51100000000E-03 0. -1.
</event>
<event>
 8    1  0.1097777E+005  0.1043930E+01  0.7957747E-01            NaN
         13   -1    0    0    0    0  0.00000000000E+00  0.00000000000E+00  0.74505805969E-08  0.10566000000E+00  0.10566000000E+00 0.  1.
     999900   -1    0    0    0    0 -0.00000000000E+00 -0.00000000000E+00 -0.74505805969E-08  0.93827000000E+00  0.93827000000E+00 0. -1.
     999902    2    1    2    0    0  0.10463587854E-02 -0.12185250259E-01 -0.17737242903E-01  0.10223850475E+01  0.10221580115E+01 0.  0.
     999903    2    3    3    0    0 -0.32128970077E-01 -0.10008987126E+00 -0.78715979010E-01  0.13528514838E+00  0.32490198120E-01 0.  0.
         14    1    1    2    0    0 -0.10463587854E-02  0.12185250259E-01  0.17737242903E-01  0.21544952457E-01  0.00000000000E+00 0.  1.
     999901    1    3    3    0    0  0.33175328862E-01  0.87904620999E-01  0.60978736107E-01  0.88709989916E+00  0.88000000000E+00 0. -1.
        -11    1    4    4    0    0 -0.19533859966E-01 -0.30773440342E-01 -0.42752375940E-01  0.56183654965E-01  0.51100000000E-03 0. -1.
         11    1    4    4    0    0 -0.12595110111E-01 -0.69316430917E-01 -0.35963603070E-01  0.79101493415E-01  0.51100000000E-03 0.  1.
</event>
<event>
 8    1  0.1097777E+005  0.1043930E+01  0.7957747E-01            NaN
         13   -1    0    0    0    0  0.00000000000E+00  0.00000000000E+00  0.74505805969E-08  0.10566000000E+00  0.10566000000E+00 0. -1.
     999900   -1    0    0    0    0 -0.00000000000E+00 -0.00000000000E+00 -0.74505805969E-08  0.93827000000E+00  0.93827000000E+00 0. -1.
     999902    2    1    2    0    0 -0.16899306104E-01  0.88989579043E-02 -0.13789435197E-01  0.10203731216E+01  0.10201011620E+01 0.  0.
     999903    2    3    3    0    0 -0.41394900940E-01 -0.67680157086E-01  0.10020238832E+00  0.12938573061E+00  0.20149619650E-01 0.  0.
         14    1    1    2    0    0  0.16899306104E-01 -0.88989579043E-02  0.13789435197E-01  0.23556878436E-01  0.00000000000E+00 0. -1.
     999901    1    3    3    0    0  0.24495594836E-01  0.76579114990E-01 -0.11399182352E+00  0.89098739096E+00  0.88000000000E+00 0. -1.
        -11    1    4    4    0    0 -0.19547869773E-01 -0.18221481347E-01  0.23823550933E-01  0.35804528976E-01  0.51100000000E-03 0.  1.
         11    1    4    4    0    0 -0.21847031168E-01 -0.49458675739E-01  0.76378837388E-01  0.93581201629E-01  0.51100000000E-03 0. -1.
</event>
<event>
 8    1  0.1097777E+005  0.1043930E+01  0.7957747E-01            NaN
         13   -1    0    0    0    0  0.00000000000E+00  0.00000000000E+00  0.74505805969E-08  0.10566000000E+00  0.10566000000E+00 0. -1.
     999900   -1    0    0    0    0 -0.00000000000E+00 -0.00000000000E+00 -0.74505805969E-08  0.93827000000E+00  0.93827000000E+00 0.  1.
     999902    2    1    2    0    0  0.12257275295E-01  0.18256741013E-01 -0.77148004341E-02  0.10206261905E+01  0.10203601096E+01 0.  0.
     999903    2    3    3    0    0 -0.50687298231E-01  0.58059788930E-01  0.10341229507E+00  0.13051634713E+00  0.20006818960E-01 0.  0.
         14    1    1    2    0    0 -0.12257275295E-01 -0.18256741013E-01  0.77148004341E-02  0.23303809470E-01  0.00000000000E+00 0. -1.
     999901    1    3    3    0    0  0.62944573526E-01 -0.39803047918E-01 -0.11112709550E+00  0.89010984340E+00  0.88000000000E+00 0.  1.
        -11    1    4    4    0    0 -0.14484803641E-01  0.18470038175E-01  0.47742403967E-01  0.53202914433E-01  0.51100000000E-03 0.  1.
         11    1    4    4    0    0 -0.36202494589E-01  0.39589750756E-01  0.55669891101E-01  0.77313432699E-01  0.51100000000E-03 0. -1.
</event>
<event>
 8    1  0.1097777E+005  0.1043930E+01  0.7957747E-01            NaN
         13   -1    0    0    0    0  0.00000000000E+00  0.00000000000E+00  0.74505805969E-08  0.10566000000E+00  0.10566000000E+00 0. -1.
     999900   -1    0    0    0    0 -0.00000000000E+00 -0.00000000000E+00 -0.74505805969E-08  0.93827000000E+00  0.93827000000E+00 0.  1.
     999902    2    1    2    0    0 -0.48070266499E-02  0.22008754122E-03  0.23350257394E-01  0.10200890591E+01  0.10198104226E+01 0.  0.
     999903    2    3    3    0    0  0.54766930205E-01 -0.11075792217E+00 -0.32984103034E-01  0.12933727820E+00  0.19324764221E-01 0.  0.
         14    1    1    2    0    0  0.48070266499E-02 -0.22008754122E-03 -0.23350257394E-01  0.23840940923E-01  0.00000000000E+00 0.  1.
     999901    1    3    3    0    0 -0.59573956855E-01  0.11097800971E+00  0.56334360427E-01  0.89075178088E+00  0.88000000000E+00 0. -1.
        -11    1    4    4    0    0  0.25684176633E-01 -0.47697734321E-01 -0.47907485075E-02  0.54387160075E-01  0.51100000000E-03 0.  1.
         11    1    4    4    0    0  0.29082753572E-01 -0.63060187845E-01 -0.28193354526E-01  0.74950118124E-01  0.51100000000E-03 0. -1.
</event>
<event>
 8    1  0.1097777E+005  0.1043930E+01  0.7957747E-01            NaN
         13   -1    0    0    0    0  0.00000000000E+00  0.00000000000E+00  0.74505805969E-08  0.10566000000E+00  0.10566000000E+00 0. -1.
     999900   -1    0    0    0    0 -0.00000000000E+00 -0.00000000000E+00 -0.74505805969E-08  0.93827000000E+00  0.93827000000E+00 0.  1.
     999902    2    1    2    0    0  0.32702551947E-02 -0.54714995143E-03 -0.23894647071E-01  0.10198063995E+01  0.10195210367E+01 0.  0.
     999903    2    3    3    0    0  0.22528318582E-01 -0.11952366798E+00  0.38401414165E-01  0.12940924986E+00  0.21878139645E-01 0.  0.
         14    1    1    2    0    0 -0.32702551947E-02  0.54714995143E-03  0.23894647071E-01  0.24123600493E-01  0.00000000000E+00 0. -1.
     999901    1    3    3    0    0 -0.19258063387E-01  0.11897651803E+00 -0.62296061235E-01  0.89039714964E+00  0.88000000000E+00 0.  1.
        -11    1    4    4    0    0 -0.70744403987E-03 -0.77266884220E-02  0.81892191272E-02  0.11292768569E-01  0.51100000000E-03 0. -1.
         11    1    4    4    0    0  0.23235762621E-01 -0.11179697956E+00  0.30212195037E-01  0.11811648129E+00  0.51100000000E-03 0.  1.
</event>
<event>
 8    1  0.1097777E+005  0.1043930E+01  0.7957747E-01            NaN
         13   -1    0    0    0    0  0.00000000000E+00  0.00000000000E+00  0.74505805969E-08  0.10566000000E+00  0.10566000000E+00 0. -1.
     999900   -1    0    0    0    0 -0.00000000000E+00 -0.00000000000E+00 -0.74505805969E-08  0.93827000000E+00  0.93827000000E+00 0.  1.
     999902    2    1    2    0    0 -0.16260955951E-01 -0.62743426486E-02  0.15834973473E-01  0.10203814873E+01  0.10201097231E+01 0.  0.
     999903    2    3    3    0    0 -0.38059627662E-01  0.12025183496E+00 -0.25624208621E-01  0.13009899312E+00  0.18976534856E-01 0.  0.
         14    1    1    2    0    0  0.16260955951E-01  0.62743426486E-02 -0.15834973473E-01  0.23548512671E-01  0.00000000000E+00 0. -1.
     999901    1    3    3    0    0  0.21798671711E-01 -0.12652617761E+00  0.41459182094E-01  0.89028249421E+00  0.88000000000E+00 0.  1.
        -11    1    4    4    0    0 -0.25370981486E-01  0.10208013796E+00 -0.18412877453E-01  0.10678640571E+00  0.51100000000E-03 0. -1.
         11    1    4    4    0    0 -0.12688646176E-01  0.18171696999E-01 -0.72113311684E-02  0.23312587412E-01  0.51100000000E-03 0.  1.
</event>
<event>
 8    1  0.1097777E+005  0.1043930E+01  0.7957747E-01            NaN
         13   -1    0    0    0    0  0.00000000000E+00  0.00000000000E+00  0.74505805969E-08  0.10566000000E+00  0.10566000000E+00 0.  1.
     999900   -1    0    0    0    0 -0.00000000000E+00 -0.00000000000E+00 -0.74505805969E-08  0.93827000000E+00  0.93827000000E+00 0.  1.
     999902    2    1    2    0    0  0.95359411966E-02  0.71537922875E-02  0.18567603303E-01  0.10218649414E+01  0.10216266890E+01 0.  0.
     999903    2    3    3    0    0 -0.78436290046E-01 -0.97736222092E-01 -0.28496107863E-01  0.13003759180E+00  0.19827415687E-01 0.  0.
         14    1    1    2    0    0 -0.95359411966E-02 -0.71537922875E-02 -0.18567603303E-01  0.22065058600E-01  0.00000000000E+00 0. -1.
     999901    1    3    3    0    0  0.87972231243E-01  0.10489001438E+00  0.47063711166E-01  0.89182734960E+00  0.88000000000E+00 0. -1.
        -11    1    4    4    0    0 -0.20165280524E-01 -0.30899606993E-01 -0.16978707420E-01  0.40619722766E-01  0.51100000000E-03 0. -1.
         11    1    4    4    0    0 -0.58271009522E-01 -0.66836615099E-01 -0.11517400442E-01  0.89417869034E-01  0.51100000000E-03 0.  1.
</event>
<event>
 8    1  0.1097777E+005  0.1043930E+01  0.7957747E-01            NaN
         13   -1    0    0    0    0  0.00000000000E+00  0.00000000000E+00  0.74505805969E-08  0.10566000000E+00  0.10566000000E+00 0.  1.
     999900   -1    0    0    0    0 -0.00000000000E+00 -0.00000000000E+00 -0.74505805969E-08  0.93827000000E+00  0.93827000000E+00 0.  1.
     999902    2    1    2    0    0  0.82693843312E-02  0.10733598696E-01 -0.20121740390E-01  0.10196714490E+01  0.10193828460E+01 0.  0.
     999903    2    3    3    0    0 -0.97947595314E-01  0.48235270862E-01  0.64599086390E-01  0.12845540303E+00  0.20183553267E-01 0.  0.
         14    1    1    2    0    0 -0.82693843312E-02 -0.10733598696E-01  0.20121740390E-01  0.24258550957E-01  0.00000000000E+00 0.  1.
     999901    1    3    3    0    0  0.10621697964E+00 -0.37501672166E-01 -0.84720826780E-01  0.89121604601E+00  0.88000000000E+00 0.  1.
        -11    1    4    4    0    0 -0.46914571119E-01  0.25992987174E-01  0.20450332736E-01  0.57402870970E-01  0.51100000000E-03 0.  1.
         11    1    4    4    0    0 -0.51033024194E-01  0.22242283688E-01  0.44148753654E-01  0.71052532061E-01  0.51100000000E-03 0. -1.
</event>
<event>
 8    1  0.1097777E+005  0.1043930E+01  0.7957747E-01            NaN
         13   -1    0    0    0    0  0.00000000000E+00  0.00000000000E+00  0.74505805969E-08  0.10566000000E+00  0.10566000000E+00 0. -1.
     999900   -1    0    0    0    0 -0.00000000000E+00 -0.00000000000E+00 -0.74505805969E-08  0.93827000000E+00  0.93827000000E+00 0. -1.
     999902    2    1    2    0    0 -0.12455319826E-01  0.19089096790E-01 -0.65346501231E-02  0.10202186048E+01  0.10199430236E+01 0.  0.
     999903    2    3    3    0    0 -0.41258956291E-01  0.34608699660E-01 -0.11933536029E+00  0.13241541282E+00  0.19820438187E-01 0.  0.
         14    1    1    2    0    0  0.12455319826E-01 -0.19089096790E-01  0.65346501231E-02  0.23711395161E-01  0.00000000000E+00 0.  1.
     999901    1    3    3    0    0  0.28803636465E-01 -0.15519602870E-01  0.11280071017E+00  0.88780319202E+00  0.88000000000E+00 0.  1.
        -11    1    4    4    0    0 -0.89388867312E-02  0.34677082559E-02 -0.41216614035E-01  0.42320197188E-01  0.51100000000E-03 0.  1.
         11    1    4    4    0    0 -0.32320069560E-01  0.31140991404E-01 -0.78118746256E-01  0.90095215631E-01  0.51100000000E-03 0. -1.
</event>
<event>
 8    1  0.1097777E+005  0.1043930E+01  0.7957747E-01            NaN
         13   -1    0    0    0    0  0.00000000000E+00  0.00000000000E+00  0.74505805969E-08  0.10566000000E+00  0.10566000000E+00 0. -1.
     999900   -1    0    0    0    0 -0.00000000000E+00 -0.00000000000E+00 -0.74505805969E-08  0.93827000000E+00  0.93827000000E+00 0.  1.
     999902    2    1    2    0    0 -0.97406894282E-02 -0.16147355374E-01  0.14791664574E-01  0.10199631175E+01  0.10196814942E+01 0.  0.
     999903    2    3    3    0    0  0.36366019991E-01  0.68876218134E-01  0.10240394107E+00  0.13033918139E+00  0.20864185210E-01 0.  0.
         14    1    1    2    0    0  0.97406894282E-02  0.16147355374E-01 -0.14791664574E-01  0.23966882504E-01  0.00000000000E+00 0.  1.
     999901    1    3    3    0    0 -0.46106709419E-01 -0.85023573507E-01 -0.87612276491E-01  0.88962393611E+00  0.88000000000E+00 0.  1.
        -11    1    4    4    0    0  0.30393937227E-01  0.45485903165E-01  0.82778096739E-01  0.99223148648E-01  0.51100000000E-03 0.  1.
         11    1    4    4    0    0  0.59720827642E-02  0.23390314969E-01  0.19625844326E-01  0.31116032739E-01  0.51100000000E-03 0. -1.
</event>
<event>
 8    1  0.1097777E+005  0.1043930E+01  0.7957747E-01            NaN
         13   -1    0    0    0    0  0.00000000000E+00  0.00000000000E+00  0.74505805969E-08  0.10566000000E+00  0.10566000000E+00 0.  1.
     999900   -1    0    0    0    0 -0.00000000000E+00 -0.00000000000E+00 -0.74505805969E-08  0.93827000000E+00  0.93827000000E+00 0. -1.
     999902    2    1    2    0    0 -0.22839168351E-01 -0.24388709733E-02 -0.23820473844E-02  0.10208377967E+01  0.10205765808E+01 0.  0.
     999903    2    3    3    0    0  0.71667839418E-01  0.10226828612E+00 -0.26809028812E-01  0.12927072651E+00  0.19927748326E-01 0.  0.
         14    1    1    2    0    0  0.22839168351E-01  0.24388709733E-02  0.23820473844E-02  0.23092203280E-01  0.00000000000E+00 0.  1.
     999901    1    3    3    0    0 -0.94507007768E-01 -0.10470715709E+00  0.24426981427E-01  0.89156707021E+00  0.88000000000E+00 0. -1.
        -11    1    4    4    0    0  0.42197203009E-01  0.47417334527E-01 -0.66690210574E-02  0.63825892225E-01  0.51100000000E-03 0.  1.
         11    1    4    4    0    0  0.29470636408E-01  0.54850951594E-01 -0.20140007754E-01  0.65444834283E-01  0.51100000000E-03 0. -1.
</event>
<event>
 8    1  0.1097777E+005  0.1043930E+01  0.7957747E-01            NaN
         13   -1    0    0    0    0  0.00000000000E+00  0.00000000000E+00  0.74505805969E-08  0.10566000000E+00  0.10566000000E+00 0.  1.
     999900   -1    0    0    0    0 -0.00000000000E+00 -0.00000000000E+00 -0.74505805969E-08  0.93827000000E+00  0.93827000000E+00 0. -1.
     999902    2    1    2    0    0 -0.15650514566E-01  0.17953430254E-01 -0.32726366423E-02  0.10198889016E+01  0.10196055105E+01 0.  0.
     999903    2    3    3    0    0  0.72779805022E-01 -0.54914799105E-01 -0.88196993125E-01  0.12840595354E+00  0.19920946964E-01 0.  0.
         14    1    1    2    0    0  0.15650514566E-01 -0.17953430254E-01  0.32726366423E-02  0.24041098449E-01  0.00000000000E+00 0. -1.
     999901    1    3    3    0    0 -0.88430319588E-01  0.72868229359E-01  0.84924356483E-01  0.89148294801E+00  0.88000000000E+00 0. -1.
        -11    1    4    4    0    0  0.83260611159E-02 -0.11808959112E-01 -0.67694005966E-02  0.15964357627E-01  0.51100000000E-03 0.  1.
         11    1    4    4    0    0  0.64453743906E-01 -0.43105839993E-01 -0.81427592529E-01  0.11244159591E+00  0.51100000000E-03 0. -1.
</event>
<event>
 8    1  0.1097777E+005  0.1043930E+01  0.7957747E-01            NaN
         13   -1    0    0    0    0  0.00000000000E+00  0.00000000000E+00  0.74505805969E-08  0.10566000000E+00  0.10566000000E+00 0. -1.
     999900   -1    0    0    0    0 -0.00000000000E+00 -0.00000000000E+00 -0.74505805969E-08  0.93827000000E+00  0.93827000000E+00 0.  1.
     999902    2    1    2    0    0 -0.86076970617E-02 -0.22389766622E-01 -0.39411535026E-02  0.10196210142E+01  0.10193311954E+01 0.  0.
     999903    2    3    3    0    0 -0.27189733838E-01  0.16379092269E-01 -0.12481491827E+00  0.13031860025E+00  0.19915256927E-01 0.  0.
         14    1    1    2    0    0  0.86076970617E-02  0.22389766622E-01  0.39411535026E-02  0.24308985767E-01  0.00000000000E+00 0. -1.
     999901    1    3    3    0    0  0.18582036776E-01 -0.38768858891E-01  0.12087376477E+00  0.88930241398E+00  0.88000000000E+00 0. -1.
        -11    1    4    4    0    0 -0.26840060884E-01  0.18063911315E-01 -0.93278080757E-01  0.98730720807E-01  0.51100000000E-03 0.  1.
         11    1    4    4    0    0 -0.34967295450E-03 -0.16848190457E-02 -0.31536837511E-01  0.31587879441E-01  0.51100000000E-03 0. -1.
</event>
<event>
 8    1  0.1097777E+005  0.1043930E+01  0.7957747E-01            NaN
         13   -1    0    0    0    0  0.00000000000E+00  0.00000000000E+00  0.74505805969E-08  0.10566000000E+00  0.10566000000E+00 0.  1.
     999900   -1    0    0    0    0 -0.00000000000E+00 -0.00000000000E+00 -0.74505805969E-08  0.93827000000E+00  0.93827000000E+00 0. -1.
     999902    2    1    2    0    0  0.65177574861E-02 -0.21556059285E-01 -0.70137805436E-02  0.10203431822E+01  0.10200705228E+01 0.  0.
     999903    2    3    3    0    0 -0.18627668695E-01 -0.98760700975E-01 -0.84950525240E-01  0.13317522445E+00  0.20454402225E-01 0.  0.
         14    1    1    2    0    0 -0.65177574861E-02  0.21556059285E-01  0.70137805436E-02  0.23586817761E-01  0.00000000000E+00 0.  1.
     999901    1    3    3    0    0  0.25145426181E-01  0.77204641690E-01  0.77936744696E-01  0.88716795779E+00  0.88000000000E+00 0.  1.
        -11    1    4    4    0    0 -0.59586004325E-02 -0.66900079283E-01 -0.65176250303E-01  0.93591293675E-01  0.51100000000E-03 0. -1.
         11    1    4    4    0    0 -0.12669068263E-01 -0.31860621692E-01 -0.19774274938E-01  0.39583930774E-01  0.51100000000E-03 0.  1.
</event>
<event>
 8    1  0.1097777E+005  0.1043930E+01  0.7957747E-01            NaN
         13   -1    0    0    0    0  0.00000000000E+00  0.00000000000E+00  0.74505805969E-08  0.10566000000E+00  0.10566000000E+00 0. -1.
     999900   -1    0    0    0    0 -0.00000000000E+00 -0.00000000000E+00 -0.74505805969E-08  0.93827000000E+00  0.93827000000E+00 0. -1.
     999902    2    1    2    0    0  0.22565136519E-01 -0.44335819176E-02  0.75537461831E-02  0.10197246056E+01  0.10194372812E+01 0.  0.
     999903    2    3    3    0    0 -0.55130297460E-01 -0.11545053223E+00  0.65018007096E-02  0.12935252032E+00  0.17933934619E-01 0.  0.
         14    1    1    2    0    0 -0.22565136519E-01  0.44335819176E-02 -0.75537461831E-02  0.24205394361E-01  0.00000000000E+00 0.  1.
     999901    1    3    3    0    0  0.77695433979E-01  0.11101695032E+00  0.10519454736E-02  0.89037208531E+00  0.88000000000E+00 0.  1.
        -11    1    4    4    0    0 -0.50984395153E-01 -0.97619353957E-01  0.67758664109E-03  0.11013476772E+00  0.51100000000E-03 0. -1.
         11    1    4    4    0    0 -0.41459023074E-02 -0.17831178276E-01  0.58242140685E-02  0.19217752605E-01  0.51100000000E-03 0.  1.
</event>
<event>
 8    1  0.1097777E+005  0.1043930E+01  0.7957747E-01            NaN
         13   -1    0    0    0    0  0.00000000000E+00  0.00000000000E+00  0.74505805969E-08  0.10566000000E+00  0.10566000000E+00 0. -1.
     999900   -1    0    0    0    0 -0.00000000000E+00 -0.00000000000E+00 -0.74505805969E-08  0.93827000000E+00  0.93827000000E+00 0.  1.
     999902    2    1    2    0    0 -0.45408727234E-02 -0.95731912121E-02  0.20857881391E-01  0.10205351986E+01  0.10202670116E+01 0.  0.
     999903    2    3    3    0    0  0.94946644136E-01 -0.30073641823E-01 -0.79278034406E-01  0.12905034956E+00  0.21206056143E-01 0.  0.
         14    1    1    2    0    0  0.45408727234E-02  0.95731912121E-02 -0.20857881391E-01  0.23394801371E-01  0.00000000000E+00 0.  1.
     999901    1    3    3    0    0 -0.99487516859E-01  0.20500450611E-01  0.10013591580E+00  0.89148484907E+00  0.88000000000E+00 0. -1.
        -11    1    4    4    0    0  0.70028124290E-01 -0.12127080074E-01 -0.53617482924E-01  0.89028646282E-01  0.51100000000E-03 0. -1.
         11    1    4    4    0    0  0.24918519846E-01 -0.17946561749E-01 -0.25660551482E-01  0.40021703278E-01  0.51100000000E-03 0.  1.
</event>
<event>
 8    1  0.1097777E+005  0.1043930E+01  0.7957747E-01            NaN
         13   -1    0    0    0    0  0.00000000000E+00  0.00000000000E+00  0.74505805969E-08  0.10566000000E+00  0.10566000000E+00 0.  1.
     999900   -1    0    0    0    0 -0.00000000000E+00 -0.00000000000E+00 -0.74505805969E-08  0.93827000000E+00  0.93827000000E+00 0.  1.
     999902    2    1    2    0    0  0.18059108464E-01 -0.10005002221E-01  0.84701963241E-02  0.10216146310E+01  0.10213708820E+01 0.  0.
     999903    2    3    3    0    0 -0.80277360903E-01 -0.49097136675E-02 -0.99621618578E-01  0.12954968738E+00  0.19750813948E-01 0.  0.
         14    1    1    2    0    0 -0.18059108464E-01  0.10005002221E-01 -0.84701963241E-02  0.22315369003E-01  0.00000000000E+00 0. -1.
     999901    1    3    3    0    0  0.98336469367E-01 -0.50952885537E-02  0.10809181490E+00  0.89206494361E+00  0.88000000000E+00 0. -1.
        -11    1    4    4    0    0 -0.54827711814E-01  0.37775380513E-02 -0.57239122902E-01  0.79353173145E-01  0.51100000000E-03 0.  1.
         11    1    4    4    0    0 -0.25449649088E-01 -0.86872517188E-02 -0.42382495676E-01  0.50196514240E-01  0.51100000000E-03 0. -1.
</event>
<event>
 8    1  0.1097777E+005  0.1043930E+01  0.7957747E-01            NaN
         13   -1    0    0    0    0  0.00000000000E+00  0.00000000000E+00  0.74505805969E-08  0.10566000000E+00  0.10566000000E+00 0.  1.
     999900   -1    0    0    0    0 -0.00000000000E+00 -0.00000000000E+00 -0.74505805969E-08  0.93827000000E+00  0.93827000000E+00 0.  1.
     999902    2    1    2    0    0 -0.17587485250E-01 -0.49862178987E-02 -0.15371443656E-01  0.10200456267E+01  0.10197659620E+01 0.  0.
     999903    2    3    3    0    0 -0.10896608304E+00  0.68430681854E-01  0.17294776847E-01  0.13167229796E+00  0.21957214616E-01 0.  0.
         14    1    1    2    0    0  0.17587485250E-01  0.49862178987E-02  0.15371443656E-01  0.23884373268E-01  0.00000000000E+00 0.  1.
     999901    1    3    3    0    0  0.91378597787E-01 -0.73416899753E-01 -0.32666220502E-01  0.88837332877E+00  0.88000000000E+00 0.  1.
        -11    1    4    4    0    0 -0.25296355411E-01  0.27468387905E-01  0.37604719838E-02  0.37534253712E-01  0.51100000000E-03 0. -1.
         11    1    4    4    0    0 -0.83669727626E-01  0.40962293949E-01  0.13534304863E-01  0.94138044253E-01  0.51100000000E-03 0.  1.
</event>
<event>
 8    1  0.1097777E+005  0.1043930E+01  0.7957747E-01            NaN
         13   -1    0    0    0    0  0.00000000000E+00  0.00000000000E+00  0.74505805969E-08  0.10566000000E+00  0.10566000000E+00 0. -1.
     999900   -1    0    0    0    0 -0.00000000000E+00 -0.00000000000E+00 -0.74505805969E-08  0.93827000000E+00  0.93827000000E+00 0.  1.
     999902    2    1    2    0    0  0.20653973124E-01 -0.89594523138E-02 -0.21010533453E-02  0.10213186573E+01  0.10210683263E+01 0.  0.
     999903    2    3    3    0    0 -0.10832525222E+00  0.58994274597E-01 -0.31952939226E-01  0.12882524859E+00  0.18980770411E-01 0.  0.
         14    1    1    2    0    0 -0.20653973124E-01  0.89594523138E-02  0.21010533453E-02  0.22611342657E-01  0.00000000000E+00 0. -1.
     999901    1    3    3    0    0  0.12897922535E+00 -0.67953726910E-01  0.29851885881E-01  0.89249340875E+00  0.88000000000E+00 0.  1.
        -11    1    4    4    0    0 -0.40614896409E-01  0.12574718935E-01 -0.76037333113E-02  0.43194574287E-01  0.51100000000E-03 0. -1.
         11    1    4    4    0    0 -0.67710355815E-01  0.46419555661E-01 -0.24349205915E-01  0.85630674306E-01  0.51100000000E-03 0.  1.
</event>
<event>
 8    1  0.1097777E+005  0.1043930E+01  0.7957747E-01            NaN
         13   -1    0    0    0    0  0.00000000000E+00  0.00000000000E+00  0.74505805969E-08  0.10566000000E+00  0.10566000000E+00 0.  1.
     999900   -1    0    0    0    0 -0.00000000000E+00 -0.00000000000E+00 -0.74505805969E-08  0.93827000000E+00  0.93827000000E+00 0.  1.
     999902    2    1    2    0    0 -0.15045454536E-01 -0.15984531421E-01 -0.72131151119E-02  0.10208237243E+01  0.10205621863E+01 0.  0.
     999903    2    3    3    0    0  0.28786938952E-01  0.96582482231E-01  0.77868393562E-01  0.12850568997E+00  0.17127811014E-01 0.  0.
         14    1    1    2    0    0  0.15045454536E-01  0.15984531421E-01  0.72131151119E-02  0.23106275697E-01  0.00000000000E+00 0.  1.
     999901    1    3    3    0    0 -0.43832393488E-01 -0.11256701365E+00 -0.85081508674E-01  0.89231803434E+00  0.88000000000E+00 0.  1.
        -11    1    4    4    0    0  0.16076485435E-01  0.78008143233E-01  0.58789465670E-01  0.98995889760E-01  0.51100000000E-03 0.  1.
         11    1    4    4    0    0  0.12710453517E-01  0.18574338998E-01  0.19078927892E-01  0.29509800208E-01  0.51100000000E-03 0. -1.
</event>
<event>
 8    1  0.1097777E+005  0.1043930E+01  0.7957747E-01            NaN
         13   -1    0    0    0    0  0.00000000000E+00  0.00000000000E+00  0.74505805969E-08  0.10566000000E+00  0.10566000000E+00 0. -1.
     999900   -1    0    0    0    0 -0.00000000000E+00 -0.00000000000E+00 -0.74505805969E-08  0.93827000000E+00  0.93827000000E+00 0.  1.
     999902    2    1    2    0    0 -0.60997794781E-02 -0.21622927097E-01 -0.92058147886E-02  0.10196502695E+01  0.10193611562E+01 0.  0.
     999903    2    3    3    0    0 -0.11880954323E+00  0.23477180799E-01 -0.45370165085E-01  0.13058032244E+00  0.18052233922E-01 0.  0.
         14    1    1    2    0    0  0.60997794781E-02  0.21622927097E-01  0.92058147886E-02  0.24279730473E-01  0.00000000000E+00 0. -1.
     999901    1    3    3    0    0  0.11270976375E+00 -0.45100107895E-01  0.36164350297E-01  0.88906994708E+00  0.88000000000E+00 0. -1.
        -11    1    4    4    0    0 -0.27487268630E-01 -0.14781229212E-02 -0.68449769983E-02  0.28369871611E-01  0.51100000000E-03 0.  1.
         11    1    4    4    0    0 -0.91322274596E-01  0.24955303720E-01 -0.38525188087E-01  0.10221045083E+00  0.51100000000E-03 0. -1.
</event>
<event>
 8    1  0.1097777E+005  0.1043930E+01  0.7957747E-01            NaN
         13   -1    0    0    0    0  0.00000000000E+00  0.00000000000E+00  0.74505805969E-08  0.10566000000E+00  0.10566000000E+00 0.  1.
     999900   -1    0    0    0    0 -0.00000000000E+00 -0.00000000000E+00 -0.74505805969E-08  0.93827000000E+00  0.93827000000E+00 0. -1.
     999902    2    1    2    0    0  0.18226766934E-01 -0.27949119930E-02 -0.15819036514E-01  0.10196345584E+01  0.10193450663E+01 0.  0.
     999903    2    3    3    0    0  0.94130481601E-01 -0.50980318010E-01  0.73822716208E-01  0.13052328805E+00  0.11269201537E-01 0.  0.
         14    1    1    2    0    0 -0.18226766934E-01  0.27949119930E-02  0.15819036514E-01  0.24295441592E-01  0.00000000000E+00 0.  1.
     999901    1    3    3    0    0 -0.75903714667E-01  0.48185406017E-01 -0.89641752722E-01  0.88911127036E+00  0.88000000000E+00 0. -1.
        -11    1    4    4    0    0  0.26134498744E-01 -0.19117772712E-01  0.18989722729E-01  0.37541602901E-01  0.51100000000E-03 0. -1.
         11    1    4    4    0    0  0.67995982857E-01 -0.31862545298E-01  0.54832993479E-01  0.92981685145E-01  0.51100000000E-03 0.  1.
</event>
<event>
 8    1  0.1097777E+005  0.1043930E+01  0.7957747E-01            NaN
         13   -1    0    0    0    0  0.00000000000E+00  0.00000000000E+00  0.74505805969E-08  0.10566000000E+00  0.10566000000E+00 0.  1.
     999900   -1    0    0    0    0 -0.00000000000E+00 -0.00000000000E+00 -0.74505805969E-08  0.93827000000E+00  0.93827000000E+00 0. -1.
     999902    2    1    2    0    0  0.11236005493E-01  0.68154028078E-02  0.19027437017E-01  0.10208055347E+01  0.10205435801E+01 0.  0.
     999903    2    3    3    0    0 -0.11892523721E+00 -0.10977840251E-02  0.49783096984E-01  0.13066482773E+00  0.21225533770E-01 0.  0.
         14    1    1    2    0    0 -0.11236005493E-01 -0.68154028078E-02 -0.19027437017E-01  0.23124465276E-01  0.00000000000E+00 0.  1.
     999901    1    3    3    0    0  0.13016124271E+00  0.79131868330E-02 -0.30755659967E-01  0.89014070699E+00  0.88000000000E+00 0.  1.
        -11    1    4    4    0    0 -0.36603964730E-01  0.17009894118E-02  0.52331972459E-02  0.37018793515E-01  0.51100000000E-03 0. -1.
         11    1    4    4    0    0 -0.82321272485E-01 -0.27987734369E-02  0.44549899738E-01  0.93646034214E-01  0.51100000000E-03 0.  1.
</event>
<event>
 8    1  0.1097777E+005  0.1043930E+01  0.7957747E-01            NaN
         13   -1    0    0    0    0  0.00000000000E+00  0.00000000000E+00  0.74505805969E-08  0.10566000000E+00  0.10566000000E+00 0.  1.
     999900   -1    0    0    0    0 -0.00000000000E+00 -0.00000000000E+00 -0.74505805969E-08  0.93827000000E+00  0.93827000000E+00 0. -1.
     999902    2    1    2    0    0 -0.32514288390E-02 -0.16281740853E-01  0.19096602044E-01  0.10186249198E+01  0.10183105519E+01 0.  0.
     999903    2    3    3    0    0  0.67912405093E-01  0.86402922412E-01 -0.59173086087E-01  0.12636118333E+00  0.19701136208E-01 0.  0.
         14    1    1    2    0    0  0.32514288390E-02  0.16281740853E-01 -0.19096602044E-01  0.25305080208E-01  0.00000000000E+00 0. -1.
     999901    1    3    3    0    0 -0.71163833932E-01 -0.10268466327E+00  0.78269688131E-01  0.89226373646E+00  0.88000000000E+00 0.  1.
        -11    1    4    4    0    0  0.16804950615E-01  0.27837397716E-01 -0.86427993114E-02  0.33649460289E-01  0.51100000000E-03 0. -1.
         11    1    4    4    0    0  0.51107454478E-01  0.58565524696E-01 -0.50530286775E-01  0.92711723038E-01  0.51100000000E-03 0.  1.
</event>
<event>
 8    1  0.1097777E+005  0.1043930E+01  0.7957747E-01            NaN
         13   -1    0    0    0    0  0.00000000000E+00  0.00000000000E+00  0.74505805969E-08  0.10566000000E+00  0.10566000000E+00 0. -1.
     999900   -1    0    0    0    0 -0.00000000000E+00 -0.00000000000E+00 -0.74505805969E-08  0.93827000000E+00  0.93827000000E+00 0. -1.
     999902    2    1    2    0    0 -0.29787399339E-03 -0.20469061539E-01  0.10944812993E-01  0.10207166387E+01  0.10204526429E+01 0.  0.
     999903    2    3    3    0    0 -0.36347914116E-01 -0.11028676005E+00  0.63701760947E-01  0.13384002956E+00  0.19258734742E-01 0.  0.
         14    1    1    2    0    0  0.29787399339E-03  0.20469061539E-01 -0.10944812993E-01  0.23213361253E-01  0.00000000000E+00 0.  1.
     999901    1    3    3    0    0  0.36050040123E-01  0.89817698507E-01 -0.52756947953E-01  0.88687660918E+00  0.88000000000E+00 0. -1.
        -11    1    4    4    0    0 -0.20335461295E-01 -0.33194621650E-01  0.22670890851E-01  0.45051573841E-01  0.51100000000E-03 0. -1.
         11    1    4    4    0    0 -0.16012452821E-01 -0.77092138396E-01  0.41030870095E-01  0.88788455723E-01  0.51100000000E-03 0.  1.
</event>
<event>
 8    1  0.1097777E+005  0.1043930E+01  0.7957747E-01            NaN
         13   -1    0    0    0    0  0.00000000000E+00  0.00000000000E+00  0.74505805969E-08  0.10566000000E+00  0.10566000000E+00 0. -1.
     999900   -1    0    0    0    0 -0.00000000000E+00 -0.00000000000E+00 -0.74505805969E-08  0.93827000000E+00  0.93827000000E+00 0.  1.
     999902    2    1    2    0    0  0.19957926988E-01  0.95989237190E-02 -0.62720183517E-02  0.10209126935E+01  0.10206531885E+01 0.  0.
     999903    2    3    3    0    0 -0.99353035866E-01 -0.63476927982E-02  0.79152473260E-01  0.12861972352E+00  0.19146809536E-01 0.  0.
         14    1    1    2    0    0 -0.19957926988E-01 -0.95989237190E-02  0.62720183517E-02  0.23017306541E-01  0.00000000000E+00 0. -1.
     999901    1    3    3    0    0  0.11931096285E+00  0.15946616517E-01 -0.85424491612E-01  0.89229296994E+00  0.88000000000E+00 0.  1.
        -11    1    4    4    0    0 -0.89093937612E-01 -0.75413479432E-02  0.77126904086E-01  0.11808226837E+00  0.51100000000E-03 0. -1.
         11    1    4    4    0    0 -0.10259098255E-01  0.11936551450E-02  0.20255691738E-02  0.10537455152E-01  0.51100000000E-03 0.  1.
</event>
<event>
 8    1  0.1097777E+005  0.1043930E+01  0.7957747E-01            NaN
         13   -1    0    0    0    0  0.00000000000E+00  0.00000000000E+00  0.74505805969E-08  0.10566000000E+00  0.10566000000E+00 0.  1.
     999900   -1    0    0    0    0 -0.00000000000E+00 -0.00000000000E+00 -0.74505805969E-08  0.93827000000E+00  0.93827000000E+00 0.  1.
     999902    2    1    2    0    0 -0.11524399212E-01  0.17500044787E-01  0.11077934423E-01  0.10202280175E+01  0.10199526576E+01 0.  0.
     999903    2    3    3    0    0  0.28899976431E-03 -0.10761747399E+00 -0.66168167825E-01  0.12794952383E+00  0.20279299443E-01 0.  0.
         14    1    1    2    0    0  0.11524399212E-01 -0.17500044787E-01 -0.11077934423E-01  0.23701982529E-01  0.00000000000E+00 0. -1.
     999901    1    3    3    0    0 -0.11813398977E-01  0.12511751878E+00  0.77246102249E-01  0.89227849364E+00  0.88000000000E+00 0. -1.
        -11    1    4    4    0    0 -0.66702431035E-02 -0.28072894072E-01 -0.10949331687E-01  0.30866300556E-01  0.51100000000E-03 0. -1.
         11    1    4    4    0    0  0.69592428678E-02 -0.79544579920E-01 -0.55218836138E-01  0.97083223274E-01  0.51100000000E-03 0.  1.
</event>
<event>
 8    1  0.1097777E+005  0.1043930E+01  0.7957747E-01            NaN
         13   -1    0    0    0    0  0.00000000000E+00  0.00000000000E+00  0.74505805969E-08  0.10566000000E+00  0.10566000000E+00 0. -1.
     999900   -1    0    0    0    0 -0.00000000000E+00 -0.00000000000E+00 -0.74505805969E-08  0.93827000000E+00  0.93827000000E+00 0. -1.
     999902    2    1    2    0    0  0.16232946147E-01  0.10790593316E-01 -0.11255089328E-01  0.10214217242E+01  0.10211736954E+01 0.  0.
     999903    2    3    3    0    0  0.24128856396E-01  0.11543626614E+00  0.57042794190E-01  0.13255859459E+00  0.20252589441E-01 0.  0.
         14    1    1    2    0    0 -0.16232946147E-01 -0.10790593316E-01  0.11255089328E-01  0.22508275823E-01  0.00000000000E+00 0. -1.
     999901    1    3    3    0    0 -0.78959102482E-02 -0.10464567283E+00 -0.68297883518E-01  0.88886312958E+00  0.88000000000E+00 0. -1.
        -11    1    4    4    0    0  0.21789309380E-01  0.70817468011E-01  0.27708239900E-01  0.79106861005E-01  0.51100000000E-03 0.  1.
         11    1    4    4    0    0  0.23395470155E-02  0.44618798134E-01  0.29334554290E-01  0.53451733588E-01  0.51100000000E-03 0. -1.
</event>
<event>
 8    1  0.1097777E+005  0.1043930E+01  0.7957747E-01            NaN
         13   -1    0    0    0    0  0.00000000000E+00  0.00000000000E+00  0.74505805969E-08  0.10566000000E+00  0.10566000000E+00 0. -1.
     999900   -1    0    0    0    0 -0.00000000000E+00 -0.00000000000E+00 -0.74505805969E-08  0.93827000000E+00  0.93827000000E+00 0.  1.
     999902    2    1    2    0    0  0.14280200795E-01 -0.18548931062E-01  0.51807490289E-02  0.10199544471E+01  0.10196726175E+01 0.  0.
     999903    2    3    3    0    0 -0.18788767704E-01  0.10937098732E+00 -0.60007478284E-01  0.12770640577E+00  0.19824176296E-01 0.  0.
         14    1    1    2    0    0 -0.14280200795E-01  0.18548931062E-01 -0.51807490289E-02  0.23975552940E-01  0.00000000000E+00 0.  1.
     999901    1    3    3    0    0  0.33068968499E-01 -0.12791991839E+00  0.65188227313E-01  0.89224804129E+00  0.88000000000E+00 0.  1.
        -11    1    4    4    0    0 -0.14341426970E-01  0.69393471163E-01 -0.48484668633E-01  0.85861251919E-01  0.51100000000E-03 0. -1.
         11    1    4    4    0    0 -0.44473407340E-02  0.39977516160E-01 -0.11522809652E-01  0.41845153855E-01  0.51100000000E-03 0.  1.
</event>
<event>
 8    1  0.1097777E+005  0.1043930E+01  0.7957747E-01            NaN
         13   -1    0    0    0    0  0.00000000000E+00  0.00000000000E+00  0.74505805969E-08  0.10566000000E+00  0.10566000000E+00 0.  1.
     999900   -1    0    0    0    0 -0.00000000000E+00 -0.00000000000E+00 -0.74505805969E-08  0.93827000000E+00  0.93827000000E+00 0.  1.
     999902    2    1    2    0    0  0.17475413934E-01 -0.18500792566E-02  0.14676445137E-02  0.10262957474E+01  0.10261442365E+01 0.  0.
     999903    2    3    3    0    0  0.89571916168E-01  0.53002089462E-01 -0.87043117510E-01  0.13722835901E+00  0.20561336476E-01 0.  0.
         14    1    1    2    0    0 -0.17475413934E-01  0.18500792566E-02 -0.14676445137E-02  0.17634252631E-01  0.00000000000E+00 0.  1.
     999901    1    3    3    0    0 -0.72096502234E-01 -0.54852168719E-01  0.88510762024E-01  0.88906738836E+00  0.88000000000E+00 0. -1.
        -11    1    4    4    0    0  0.53588786094E-01  0.43055698974E-01 -0.55523962667E-01  0.88366977771E-01  0.51100000000E-03 0.  1.
         11    1    4    4    0    0  0.35983130074E-01  0.99463904878E-02 -0.31519154843E-01  0.48861381240E-01  0.51100000000E-03 0. -1.
</event>
<event>
 8    1  0.1097777E+005  0.1043930E+01  0.7957747E-01            NaN
         13   -1    0    0    0    0  0.00000000000E+00  0.00000000000E+00  0.74505805969E-08  0.10566000000E+00  0.10566000000E+00 0. -1.
     999900   -1    0    0    0    0 -0.00000000000E+00 -0.00000000000E+00 -0.74505805969E-08  0.93827000000E+00  0.93827000000E+00 0.  1.
     999902    2    1    2    0    0 -0.14797862859E-01 -0.14862426737E-01  0.10946394140E-01  0.10202721891E+01  0.10199978665E+01 0.  0.
     999903    2    3    3    0    0  0.84791810121E-01  0.42600582660E-01 -0.83197647936E-01  0.12781311377E+00  0.20245560572E-01 0.  0.
         14    1    1    2    0    0  0.14797862859E-01  0.14862426737E-01 -0.10946394140E-01  0.23657810938E-01  0.00000000000E+00 0. -1.
     999901    1    3    3    0    0 -0.99589672980E-01 -0.57463009398E-01  0.94144042076E-01  0.89245907529E+00  0.88000000000E+00 0. -1.
        -11    1    4    4    0    0  0.67460719934E-01  0.42199873716E-01 -0.65912969767E-01  0.10332743479E+00  0.51100000000E-03 0.  1.
         11    1    4    4    0    0  0.17331090187E-01  0.40070894446E-03 -0.17284678169E-01  0.24485678981E-01  0.51100000000E-03 0. -1.
</event>
<event>
 8    1  0.1097777E+005  0.1043930E+01  0.7957747E-01            NaN
         13   -1    0    0    0    0  0.00000000000E+00  0.00000000000E+00  0.74505805969E-08  0.10566000000E+00  0.10566000000E+00 0. -1.
     999900   -1    0    0    0    0 -0.00000000000E+00 -0.00000000000E+00 -0.74505805969E-08  0.93827000000E+00  0.93827000000E+00 0. -1.
     999902    2    1    2    0    0  0.14630400352E-01 -0.11415098769E-01  0.14237894943E-01  0.10205404565E+01  0.10202723913E+01 0.  0.
     999903    2    3    3    0    0  0.35696961756E-01 -0.97198395996E-01  0.82106086506E-01  0.13351809738E+00  0.19075419358E-01 0.  0.
         14    1    1    2    0    0 -0.14630400352E-01  0.11415098769E-01 -0.14237894943E-01  0.23389543535E-01  0.00000000000E+00 0.  1.
     999901    1    3    3    0    0 -0.21066561404E-01  0.85783297227E-01 -0.67868191563E-01  0.88702235909E+00  0.88000000000E+00 0. -1.
        -11    1    4    4    0    0  0.17717716393E-01 -0.44521860982E-01  0.50017560570E-01  0.69268543119E-01  0.51100000000E-03 0. -1.
         11    1    4    4    0    0  0.17979245363E-01 -0.52676535014E-01  0.32088525936E-01  0.64249554260E-01  0.51100000000E-03 0.  1.
</event>
<event>
 8    1  0.1097777E+005  0.1043930E+01  0.7957747E-01            NaN
         13   -1    0    0    0    0  0.00000000000E+00  0.00000000000E+00  0.74505805969E-08  0.10566000000E+00  0.10566000000E+00 0. -1.
     999900   -1    0    0    0    0 -0.00000000000E+00 -0.00000000000E+00 -0.74505805969E-08  0.93827000000E+00  0.93827000000E+00 0. -1.
     999902    2    1    2    0    0  0.38775582681E-03  0.17839814897E-01 -0.14861164732E-01  0.10207079508E+01  0.10204437551E+01 0.  0.
     999903    2    3    3    0    0  0.93372573527E-01  0.70713155863E-01  0.55979970152E-01  0.13140472195E+00  0.20363103757E-01 0.  0.
         14    1    1    2    0    0 -0.38775582681E-03 -0.17839814897E-01  0.14861164732E-01  0.23222049163E-01  0.00000000000E+00 0. -1.
     999901    1    3    3    0    0 -0.92984817701E-01 -0.52873340965E-01 -0.70841134884E-01  0.88930322888E+00  0.88000000000E+00 0. -1.
        -11    1    4    4    0    0  0.49555445110E-02  0.11272485151E-01  0.65219236059E-02  0.13943563082E-01  0.51100000000E-03 0. -1.
         11    1    4    4    0    0  0.88417029016E-01  0.59440670711E-01  0.49458046546E-01  0.11746115887E+00  0.51100000000E-03 0.  1.
</event>
<event>
 8    1  0.1097777E+005  0.1043930E+01  0.7957747E-01            NaN
         13   -1    0    0    0    0  0.00000000000E+00  0.00000000000E+00  0.74505805969E-08  0.10566000000E+00  0.10566000000E+00 0.  1.
     999900   -1    0    0    0    0 -0.00000000000E+00 -0.00000000000E+00 -0.74505805969E-08  0.93827000000E+00  0.93827000000E+00 0.  1.
     999902    2    1    2    0    0 -0.92132935775E-02  0.96161929558E-02 -0.19198862788E-01  0.10205643783E+01  0.10202968676E+01 0.  0.
     999903    2    3    3    0    0 -0.87439616964E-01  0.97366597755E-01  0.40795259991E-03  0.13253064108E+00  0.20934742097E-01 0.  0.
         14    1    1    2    0    0  0.92132935775E-02 -0.96161929558E-02  0.19198862788E-01  0.23365621709E-01  0.00000000000E+00 0.  1.
     999901    1    3    3    0    0  0.78226323387E-01 -0.87750404800E-01 -0.19606815388E-01  0.88803373721E+00  0.88000000000E+00 0.  1.
        -11    1    4    4    0    0 -0.14637860159E-01  0.29419964941E-01  0.21036134995E-02  0.32931559300E-01  0.51100000000E-03 0. -1.
         11    1    4    4    0    0 -0.72801756805E-01  0.67946632815E-01 -0.16956608996E-02  0.99599081781E-01  0.51100000000E-03 0.  1.
</event>
<event>
 8    1  0.1097777E+005  0.1043930E+01  0.7957747E-01            NaN
         13   -1    0    0    0    0  0.00000000000E+00  0.00000000000E+00  0.74505805969E-08  0.10566000000E+00  0.10566000000E+00 0. -1.
     999900   -1    0    0    0    0 -0.00000000000E+00 -0.00000000000E+00 -0.74505805969E-08  0.93827000000E+00  0.93827000000E+00 0. -1.
     999902    2    1    2    0    0  0.16519700378E-01  0.99569777425E-02 -0.16526022322E-01  0.10185301709E+01  0.10182134146E+01 0.  0.
     999903    2    3    3    0    0 -0.93041642141E-01 -0.70685657380E-01 -0.46990595868E-01  0.12755597785E+00  0.20228743260E-01 0.  0.
         14    1    1    2    0    0 -0.16519700378E-01 -0.99569777425E-02  0.16526022322E-01  0.25399829136E-01  0.00000000000E+00 0.  1.
     999901    1    3    3    0    0  0.10956134252E+00  0.80642635123E-01  0.30464573546E-01  0.89097419301E+00  0.88000000000E+00 0.  1.
        -11    1    4    4    0    0 -0.68000602798E-01 -0.59282156519E-01 -0.29357378106E-01  0.94871348851E-01  0.51100000000E-03 0. -1.
         11    1    4    4    0    0 -0.25041039343E-01 -0.11403500861E-01 -0.17633217761E-01  0.32684629000E-01  0.51100000000E-03 0.  1.
</event>
<event>
 8    1  0.1097777E+005  0.1043930E+01  0.7957747E-01            NaN
         13   -1    0    0    0    0  0.00000000000E+00  0.00000000000E+00  0.74505805969E-08  0.10566000000E+00  0.10566000000E+00 0.  1.
     999900   -1    0    0    0    0 -0.00000000000E+00 -0.00000000000E+00 -0.74505805969E-08  0.93827000000E+00  0.93827000000E+00 0.  1.
     999902    2    1    2    0    0 -0.12826685402E-01  0.15805054410E-01 -0.65470659387E-02  0.10225480526E+01  0.10223244750E+01 0.  0.
     999903    2    3    3    0    0 -0.68573385531E-01 -0.11043746689E+00  0.17494446812E-02  0.13175419267E+00  0.21386056999E-01 0.  0.
         14    1    1    2    0    0  0.12826685402E-01 -0.15805054410E-01  0.65470659387E-02  0.21381947425E-01  0.00000000000E+00 0.  1.
     999901    1    3    3    0    0  0.55746700129E-01  0.12624252129E+00 -0.82965106199E-02  0.89079385991E+00  0.88000000000E+00 0. -1.
        -11    1    4    4    0    0 -0.46218152799E-01 -0.75429725065E-01  0.11147773984E-01  0.89164427085E-01  0.51100000000E-03 0. -1.
         11    1    4    4    0    0 -0.22355232732E-01 -0.35007741820E-01 -0.93983293026E-02  0.42589765584E-01  0.51100000000E-03 0.  1.
</event>
<event>
 8    1  0.1097777E+005  0.1043930E+01  0.7957747E-01            NaN
         13   -1    0    0    0    0  0.00000000000E+00  0.00000000000E+00  0.74505805969E-08  0.10566000000E+00  0.10566000000E+00 0.  1.
     999900   -1    0    0    0    0 -0.00000000000E+00 -0.00000000000E+00 -0.74505805969E-08  0.93827000000E+00  0.93827000000E+00 0.  1.
     999902    2    1    2    0    0  0.18366985587E-01  0.15232766717E-01  0.90979028637E-02  0.10183926709E+01  0.10180724321E+01 0.  0.
     999903    2    3    3    0    0  0.26765197914E-01  0.10794161457E+00 -0.64840826145E-01  0.13039920465E+00  0.20781045758E-01 0.  0.
         14    1    1    2    0    0 -0.18366985587E-01 -0.15232766717E-01 -0.90979028637E-02  0.25537329107E-01  0.00000000000E+00 0. -1.
     999901    1    3    3    0    0 -0.83982123275E-02 -0.92708847854E-01  0.73938729009E-01  0.88799346624E+00  0.88000000000E+00 0. -1.
        -11    1    4    4    0    0  0.74741572743E-02  0.38589510785E-01 -0.12001209410E-01  0.41101137672E-01  0.51100000000E-03 0. -1.
         11    1    4    4    0    0  0.19291040640E-01  0.69352103786E-01 -0.52839616735E-01  0.89298066979E-01  0.51100000000E-03 0.  1.
</event>
<event>
 8    1  0.1097777E+005  0.1043930E+01  0.7957747E-01            NaN
         13   -1    0    0    0    0  0.00000000000E+00  0.00000000000E+00  0.74505805969E-08  0.10566000000E+00  0.10566000000E+00 0. -1.
     999900   -1    0    0    0    0 -0.00000000000E+00 -0.00000000000E+00 -0.74505805969E-08  0.93827000000E+00  0.93827000000E+00 0.  1.
     999902    2    1    2    0    0  0.23812093160E-01 -0.62824961133E-04 -0.54779422911E-02  0.10194958522E+01  0.10192030048E+01 0.  0.
     999903    2    3    3    0    0 -0.90740780235E-01  0.75814015474E-01 -0.44594709655E-01  0.12797480521E+00  0.20179407786E-01 0.  0.
         14    1    1    2    0    0 -0.23812093160E-01  0.62824961133E-04  0.54779422911E-02  0.24434147814E-01  0.00000000000E+00 0. -1.
     999901    1    3    3    0    0  0.11455287340E+00 -0.75876840436E-01  0.39116767364E-01  0.89152104698E+00  0.88000000000E+00 0. -1.
        -11    1    4    4    0    0 -0.87806181774E-02  0.14744485175E-01 -0.10971825984E-01  0.20375013745E-01  0.51100000000E-03 0. -1.
         11    1    4    4    0    0 -0.81960162058E-01  0.61069530299E-01 -0.33622883671E-01  0.10759979146E+00  0.51100000000E-03 0.  1.
</event>
<event>
 8    1  0.1097777E+005  0.1043930E+01  0.7957747E-01            NaN
         13   -1    0    0    0    0  0.00000000000E+00  0.00000000000E+00  0.74505805969E-08  0.10566000000E+00  0.10566000000E+00 0.  1.
     999900   -1    0    0    0    0 -0.00000000000E+00 -0.00000000000E+00 -0.74505805969E-08  0.93827000000E+00  0.93827000000E+00 0. -1.
     999902    2    1    2    0    0  0.79573125858E-02  0.16330274122E-01  0.15349184532E-01  0.10201477768E+01  0.10198705272E+01 0.  0.
     999903    2    3    3    0    0  0.83225918752E-01 -0.88819536166E-01  0.41826592349E-01  0.13030346521E+00  0.20348603402E-01 0.  0.
         14    1    1    2    0    0 -0.79573125858E-02 -0.16330274122E-01 -0.15349184532E-01  0.23782223241E-01  0.00000000000E+00 0.  1.
     999901    1    3    3    0    0 -0.75268606166E-01  0.10514981029E+00 -0.26477407816E-01  0.88984431155E+00  0.88000000000E+00 0. -1.
        -11    1    4    4    0    0  0.61897278636E-01 -0.52587019036E-01  0.24609841564E-01  0.84867974504E-01  0.51100000000E-03 0.  1.
         11    1    4    4    0    0  0.21328640116E-01 -0.36232517130E-01  0.17216750784E-01  0.45435490702E-01  0.51100000000E-03 0. -1.
</event>
<event>
 8    1  0.1097777E+005  0.1043930E+01  0.7957747E-01            NaN
         13   -1    0    0    0    0  0.00000000000E+00  0.00000000000E+00  0.74505805969E-08  0.10566000000E+00  0.10566000000E+00 0.  1.
     999900   -1    0    0    0    0 -0.00000000000E+00 -0.00000000000E+00 -0.74505805969E-08  0.93827000000E+00  0.93827000000E+00 0. -1.
     999902    2    1    2    0    0 -0.14733797916E-01  0.15368745300E-01  0.25990034652E-02  0.10224815047E+01  0.10222565184E+01 0.  0.
     999903    2    3    3    0    0 -0.12530302645E+00 -0.28714947995E-02 -0.44115804988E-01  0.13414568191E+00  0.18432737303E-01 0.  0.
         14    1    1    2    0    0  0.14733797916E-01 -0.15368745300E-01 -0.25990034652E-02  0.21448495336E-01  0.00000000000E+00 0. -1.
     999901    1    3    3    0    0  0.11056922854E+00  0.18240240100E-01  0.46714808453E-01  0.88833582275E+00  0.88000000000E+00 0.  1.
        -11    1    4    4    0    0 -0.10487369643E+00  0.33645947663E-02 -0.40511338110E-01  0.11247774151E+00  0.51100000000E-03 0. -1.
         11    1    4    4    0    0 -0.20429330030E-01 -0.62360895658E-02 -0.36044668783E-02  0.21667940396E-01  0.51100000000E-03 0.  1.
</event>
<event>
 8    1  0.1097777E+005  0.1043930E+01  0.7957747E-01            NaN
         13   -1    0    0    0    0  0.00000000000E+00  0.00000000000E+00  0.74505805969E-08  0.10566000000E+00  0.10566000000E+00 0. -1.
     999900   -1    0    0    0    0 -0.00000000000E+00 -0.00000000000E+00 -0.74505805969E-08  0.93827000000E+00  0.93827000000E+00 0.  1.
     999902    2    1    2    0    0 -0.27700841024E-02 -0.12060330458E-01  0.19944511448E-01  0.10204585605E+01  0.10201885929E+01 0.  0.
     999903    2    3    3    0    0  0.90656934110E-01  0.73315817695E-02 -0.88796206424E-01  0.12864624966E+00  0.19815637327E-01 0.  0.
         14    1    1    2    0    0  0.27700841024E-02  0.12060330458E-01 -0.19944511448E-01  0.23471439529E-01  0.00000000000E+00 0.  1.
     999901    1    3    3    0    0 -0.93427018212E-01 -0.19391912227E-01  0.10874071787E+00  0.89181231081E+00  0.88000000000E+00 0.  1.
        -11    1    4    4    0    0  0.52921678672E-01  0.12543448656E-01 -0.59293876538E-01  0.80461587690E-01  0.51100000000E-03 0. -1.
         11    1    4    4    0    0  0.37735255438E-01 -0.52118668869E-02 -0.29502329886E-01  0.48184661970E-01  0.51100000000E-03 0.  1.
</event>
<event>
 8    1  0.1097777E+005  0.1043930E+01  0.7957747E-01            NaN
         13   -1    0    0    0    0  0.00000000000E+00  0.00000000000E+00  0.74505805969E-08  0.10566000000E+00  0.10566000000E+00 0. -1.
     999900   -1    0    0    0    0 -0.00000000000E+00 -0.00000000000E+00 -0.74505805969E-08  0.93827000000E+00  0.93827000000E+00 0. -1.
     999902    2    1    2    0    0  0.67383448438E-02  0.15115873934E-01 -0.16394102702E-01  0.10206349031E+01  0.10203690234E+01 0.  0.
     999903    2    3    3    0    0 -0.34455845652E-01 -0.85840597709E-01  0.86109060580E-01  0.12800056084E+00  0.20336168462E-01 0.  0.
         14    1    1    2    0    0 -0.67383448438E-02 -0.15115873934E-01  0.16394102702E-01  0.23295096897E-01  0.00000000000E+00 0. -1.
     999901    1    3    3    0    0  0.41194190496E-01  0.10095647164E+00 -0.10250316328E+00  0.89263434226E+00  0.88000000000E+00 0. -1.
        -11    1    4    4    0    0 -0.29734538494E-01 -0.82987035001E-01  0.75648654261E-01  0.11616355181E+00  0.51100000000E-03 0. -1.
         11    1    4    4    0    0 -0.47213071578E-02 -0.28535627088E-02  0.10460406319E-01  0.11837009029E-01  0.51100000000E-03 0.  1.
</event>
<event>
 8    1  0.1097777E+005  0.1043930E+01  0.7957747E-01            NaN
         13   -1    0    0    0    0  0.00000000000E+00  0.00000000000E+00  0.74505805969E-08  0.10566000000E+00  0.10566000000E+00 0.  1.
     999900   -1    0    0    0    0 -0.00000000000E+00 -0.00000000000E+00 -0.74505805969E-08  0.93827000000E+00  0.93827000000E+00 0. -1.
     999902    2    1    2    0    0  0.50568189345E-02  0.21639064374E-01  0.69276100168E-02  0.10206531380E+01  0.10203876792E+01 0.  0.
     999903    2    3    3    0    0  0.38547946570E-01  0.11224811986E+00  0.58684803342E-01  0.13385526720E+00  0.19691160910E-01 0.  0.
         14    1    1    2    0    0 -0.50568189345E-02 -0.21639064374E-01 -0.69276100168E-02  0.23276862015E-01  0.00000000000E+00 0. -1.
     999901    1    3    3    0    0 -0.33491127635E-01 -0.90609055483E-01 -0.51757193326E-01  0.88679787078E+00  0.88000000000E+00 0.  1.
        -11    1    4    4    0    0  0.12604148841E-01  0.66503363841E-01  0.34347762087E-01  0.75905150362E-01  0.51100000000E-03 0. -1.
         11    1    4    4    0    0  0.25943797728E-01  0.45744756016E-01  0.24337041255E-01  0.57950116839E-01  0.51100000000E-03 0.  1.
</event>
<event>
 8    1  0.1097777E+005  0.1043930E+01  0.7957747E-01            NaN
         13   -1    0    0    0    0  0.00000000000E+00  0.00000000000E+00  0.74505805969E-08  0.10566000000E+00  0.10566000000E+00 0.  1.
     999900   -1    0    0    0    0 -0.00000000000E+00 -0.00000000000E+00 -0.74505805969E-08  0.93827000000E+00  0.93827000000E+00 0.  1.
     999902    2    1    2    0    0 -0.10923181804E-01 -0.22845042015E-01  0.49279529557E-04  0.10186077909E+01  0.10182929919E+01 0.  0.
     999903    2    3    3    0    0 -0.89539918647E-01  0.88026103193E-01  0.13509156508E-01  0.12807190142E+00  0.21305462914E-01 0.  0.
         14    1    1    2    0    0  0.10923181804E-01  0.22845042015E-01 -0.49279529557E-04  0.25322209103E-01  0.00000000000E+00 0. -1.
     999901    1    3    3    0    0  0.78616736843E-01 -0.11087114521E+00 -0.13459876978E-01  0.89053588947E+00  0.88000000000E+00 0.  1.
        -11    1    4    4    0    0 -0.77775709089E-02  0.16365145212E-01 -0.20477498510E-02  0.18241792333E-01  0.51100000000E-03 0.  1.
         11    1    4    4    0    0 -0.81762347738E-01  0.71660957981E-01  0.15556906359E-01  0.10983010909E+00  0.51100000000E-03 0. -1.
</event>
<event>
 8    1  0.1097777E+005  0.1043930E+01  0.7957747E-01            NaN
         13   -1    0    0    0    0  0.00000000000E+00  0.00000000000E+00  0.74505805969E-08  0.10566000000E+00  0.10566000000E+00 0. -1.
     999900   -1    0    0    0    0 -0.00000000000E+00 -0.00000000000E+00 -0.74505805969E-08  0.93827000000E+00  0.93827000000E+00 0. -1.
     999902    2    1    2    0    0 -0.32511511030E-03 -0.57131829243E-02  0.20939165096E-01  0.10222229782E+01  0.10219924767E+01 0.  0.
     999903    2    3    3    0    0 -0.98800474209E-01  0.17058122924E-02 -0.82931500166E-01  0.13062802931E+00  0.20533017879E-01 0.  0.
         14    1    1    2    0    0  0.32511511030E-03  0.57131829243E-02 -0.20939165096E-01  0.21707021765E-01  0.00000000000E+00 0.  1.
     999901    1    3    3    0    0  0.98475359098E-01 -0.74189952167E-02  0.10387066526E+00  0.89159494892E+00  0.88000000000E+00 0.  1.
        -11    1    4    4    0    0 -0.45321907672E-01 -0.86179473295E-02 -0.32867753440E-01  0.56647106444E-01  0.51100000000E-03 0.  1.
         11    1    4    4    0    0 -0.53478566537E-01  0.10323759622E-01 -0.50063746726E-01  0.73980922870E-01  0.51100000000E-03 0. -1.
</event>
<event>
 7    1  0.1143319E+005  0.1043930E+01  0.7957747E-01            NaN
         13   -1    0    0    0    0  0.00000000000E+00  0.00000000000E+00  0.74505805969E-08  0.10566000000E+00  0.10566000000E+00 0.  1.
     999900   -1    0    0    0    0 -0.00000000000E+00 -0.00000000000E+00 -0.74505805969E-08  0.93827000000E+00  0.93827000000E+00 0. -1.
     999903    2    1    2    0    0  0.40388422217E-01  0.43170560659E-01  0.64599174833E-01  0.89843793596E-01  0.20098057166E-01 0.  0.
         14    1    1    2    0    0  0.56576892748E-01 -0.91954785535E-02 -0.35920252404E-01  0.67644409611E-01  0.00000000000E+00 0. -1.
     999901    1    1    2    0    0 -0.96965314965E-01 -0.33975082106E-01 -0.28678922429E-01  0.88644179679E+00  0.88000000000E+00 0.  1.
        -11    1    3    3    0    0  0.16354519256E-01  0.31671051860E-01  0.39966470226E-01  0.53554698107E-01  0.51100000000E-03 0.  1.
         11    1    3    3    0    0  0.24033902961E-01  0.11499508799E-01  0.24632704607E-01  0.36289095489E-01  0.51100000000E-03 0. -1.
</event>
<event>
 8    1  0.1097777E+005  0.1043930E+01  0.7957747E-01            NaN
         13   -1    0    0    0    0  0.00000000000E+00  0.00000000000E+00  0.74505805969E-08  0.10566000000E+00  0.10566000000E+00 0. -1.
     999900   -1    0    0    0    0 -0.00000000000E+00 -0.00000000000E+00 -0.74505805969E-08  0.93827000000E+00  0.93827000000E+00 0.  1.
     999902    2    1    2    0    0 -0.43790835729E-02  0.18255035982E-01 -0.14153655172E-01  0.10204193925E+01  0.10201485127E+01 0.  0.
     999903    2    3    3    0    0  0.40958655526E-01  0.12223369728E+00  0.22365587724E-01  0.13238745178E+00  0.20187363907E-01 0.  0.
         14    1    1    2    0    0  0.43790835729E-02 -0.18255035982E-01  0.14153655172E-01  0.23510607529E-01  0.00000000000E+00 0.  1.
     999901    1    3    3    0    0 -0.45337739099E-01 -0.10397866129E+00 -0.36519242896E-01  0.88803194069E+00  0.88000000000E+00 0.  1.
        -11    1    4    4    0    0  0.30626380797E-01  0.60077524353E-01  0.99675615080E-02  0.68168156323E-01  0.51100000000E-03 0.  1.
         11    1    4    4    0    0  0.10332274729E-01  0.62156172923E-01  0.12398026216E-01  0.64219295454E-01  0.51100000000E-03 0. -1.
</event>
<event>
 8    1  0.1097777E+005  0.1043930E+01  0.7957747E-01            NaN
         13   -1    0    0    0    0  0.00000000000E+00  0.00000000000E+00  0.74505805969E-08  0.10566000000E+00  0.10566000000E+00 0. -1.
     999900   -1    0    0    0    0 -0.00000000000E+00 -0.00000000000E+00 -0.74505805969E-08  0.93827000000E+00  0.93827000000E+00 0.  1.
     999902    2    1    2    0    0 -0.20357344944E-01  0.10591878706E-01 -0.68745141754E-02  0.10199744509E+01  0.10196930970E+01 0.  0.
     999903    2    3    3    0    0  0.40944782695E-01 -0.10116876301E+00  0.63826948487E-01  0.12798393037E+00  0.19859839903E-01 0.  0.
         14    1    1    2    0    0  0.20357344944E-01 -0.10591878706E-01  0.68745141754E-02  0.23955549103E-01  0.00000000000E+00 0. -1.
     999901    1    3    3    0    0 -0.61302127639E-01  0.11176064171E+00 -0.70701462663E-01  0.89199052053E+00  0.88000000000E+00 0. -1.
        -11    1    4    4    0    0  0.24784440862E-01 -0.79424423216E-01  0.42075688257E-01  0.93236967858E-01  0.51100000000E-03 0.  1.
         11    1    4    4    0    0  0.16160341833E-01 -0.21744339792E-01  0.21751260230E-01  0.34746962511E-01  0.51100000000E-03 0. -1.
</event>
<event>
 8    1  0.1097777E+005  0.1043930E+01  0.7957747E-01            NaN
         13   -1    0    0    0    0  0.00000000000E+00  0.00000000000E+00  0.74505805969E-08  0.10566000000E+00  0.10566000000E+00 0.  1.
     999900   -1    0    0    0    0 -0.00000000000E+00 -0.00000000000E+00 -0.74505805969E-08  0.93827000000E+00  0.93827000000E+00 0.  1.
     999902    2    1    2    0    0  0.14256923249E-01  0.14645064740E-01  0.84131962961E-02  0.10218275193E+01  0.10215884492E+01 0.  0.
     999903    2    3    3    0    0 -0.13043243156E-01  0.37327948481E-02 -0.12846438315E+00  0.13076082791E+00  0.20278965155E-01 0.  0.
         14    1    1    2    0    0 -0.14256923249E-01 -0.14645064740E-01 -0.84131962961E-02  0.22102480713E-01  0.00000000000E+00 0.  1.
     999901    1    3    3    0    0  0.27300166405E-01  0.10912269892E-01  0.13687757945E+00  0.89106669137E+00  0.88000000000E+00 0. -1.
        -11    1    4    4    0    0 -0.11268842398E-01  0.10272609198E-01 -0.11060440903E+00  0.11165173410E+00  0.51100000000E-03 0.  1.
         11    1    4    4    0    0 -0.17744007576E-02 -0.65398143494E-02 -0.17859974121E-01  0.19109093814E-01  0.51100000000E-03 0. -1.
</event>
<event>
 8    1  0.1097777E+005  0.1043930E+01  0.7957747E-01            NaN
         13   -1    0    0    0    0  0.00000000000E+00  0.00000000000E+00  0.74505805969E-08  0.10566000000E+00  0.10566000000E+00 0. -1.
     999900   -1    0    0    0    0 -0.00000000000E+00 -0.00000000000E+00 -0.74505805969E-08  0.93827000000E+00  0.93827000000E+00 0. -1.
     999902    2    1    2    0    0  0.22307662585E-01 -0.44954123846E-02 -0.75496944050E-02  0.10199542116E+01  0.10196723765E+01 0.  0.
     999903    2    3    3    0    0  0.32055909404E-01 -0.12636164069E+00 -0.38556067292E-03  0.13147363743E+00  0.17038870750E-01 0.  0.
         14    1    1    2    0    0 -0.22307662585E-01  0.44954123846E-02  0.75496944050E-02  0.23975788373E-01  0.00000000000E+00 0. -1.
     999901    1    3    3    0    0 -0.97482468192E-02  0.12186622830E+00 -0.71641337321E-02  0.88848057420E+00  0.88000000000E+00 0.  1.
        -11    1    4    4    0    0  0.10747809945E-01 -0.29421180074E-01 -0.66318811697E-02  0.32021308912E-01  0.51100000000E-03 0.  1.
         11    1    4    4    0    0  0.21308099459E-01 -0.96940460613E-01  0.62463204968E-02  0.99452328516E-01  0.51100000000E-03 0. -1.
</event>
<event>
 8    1  0.1097777E+005  0.1043930E+01  0.7957747E-01            NaN
         13   -1    0    0    0    0  0.00000000000E+00  0.00000000000E+00  0.74505805969E-08  0.10566000000E+00  0.10566000000E+00 0.  1.
     999900   -1    0    0    0    0 -0.00000000000E+00 -0.00000000000E+00 -0.74505805969E-08  0.93827000000E+00  0.93827000000E+00 0.  1.
     999902    2    1    2    0    0 -0.19394300800E-01  0.83708704168E-02 -0.23062316046E-01  0.10126557167E+01  0.10121726729E+01 0.  0.
     999903    2    3    3    0    0  0.62578339046E-02  0.12247273855E+00 -0.13393964350E-01  0.12486590747E+00  0.19322639433E-01 0.  0.
         14    1    1    2    0    0  0.19394300800E-01 -0.83708704168E-02  0.23062316046E-01  0.31274283309E-01  0.00000000000E+00 0. -1.
     999901    1    3    3    0    0 -0.25652134705E-01 -0.11410186813E+00 -0.96683516967E-02  0.88778980922E+00  0.88000000000E+00 0.  1.
        -11    1    4    4    0    0  0.97548076227E-02  0.57608225127E-01  0.51519271437E-03  0.58432785477E-01  0.51100000000E-03 0.  1.
         11    1    4    4    0    0 -0.34969737181E-02  0.64864513424E-01 -0.13909157064E-01  0.66433121996E-01  0.51100000000E-03 0. -1.
</event>
<event>
 8    1  0.1097777E+005  0.1043930E+01  0.7957747E-01            NaN
         13   -1    0    0    0    0  0.00000000000E+00  0.00000000000E+00  0.74505805969E-08  0.10566000000E+00  0.10566000000E+00 0. -1.
     999900   -1    0    0    0    0 -0.00000000000E+00 -0.00000000000E+00 -0.74505805969E-08  0.93827000000E+00  0.93827000000E+00 0.  1.
     999902    2    1    2    0    0 -0.85994595500E-02  0.50598902054E-02  0.23508039359E-01  0.10183921632E+01  0.10180719115E+01 0.  0.
     999903    2    3    3    0    0 -0.92738956245E-01  0.53283283439E-01  0.73855576179E-01  0.13163412123E+00  0.20815221323E-01 0.  0.
         14    1    1    2    0    0  0.85994595500E-02 -0.50598902054E-02 -0.23508039359E-01  0.25537836790E-01  0.00000000000E+00 0.  1.
     999901    1    3    3    0    0  0.84139496695E-01 -0.48223393233E-01 -0.50347536820E-01  0.88675804198E+00  0.88000000000E+00 0.  1.
        -11    1    4    4    0    0 -0.62577928008E-01  0.31928138508E-01  0.59214523321E-01  0.91880487566E-01  0.51100000000E-03 0. -1.
         11    1    4    4    0    0 -0.30161028237E-01  0.21355144930E-01  0.14641052858E-01  0.39753633660E-01  0.51100000000E-03 0.  1.
</event>
<event>
 8    1  0.1097777E+005  0.1043930E+01  0.7957747E-01            NaN
         13   -1    0    0    0    0  0.00000000000E+00  0.00000000000E+00  0.74505805969E-08  0.10566000000E+00  0.10566000000E+00 0.  1.
     999900   -1    0    0    0    0 -0.00000000000E+00 -0.00000000000E+00 -0.74505805969E-08  0.93827000000E+00  0.93827000000E+00 0.  1.
     999902    2    1    2    0    0  0.59219519973E-02 -0.12228513782E-01 -0.20854663086E-01  0.10190397803E+01  0.10187357610E+01 0.  0.
     999903    2    3    3    0    0  0.59360995067E-01 -0.11235597583E+00  0.22422760132E-01  0.13069627953E+00  0.20764013854E-01 0.  0.
         14    1    1    2    0    0 -0.59219519973E-02  0.12228513782E-01  0.20854663086E-01  0.24890219710E-01  0.00000000000E+00 0.  1.
     999901    1    3    3    0    0 -0.53439043070E-01  0.10012746205E+00 -0.43277423218E-01  0.88834350076E+00  0.88000000000E+00 0.  1.
        -11    1    4    4    0    0  0.20432012271E-01 -0.45513427061E-01  0.18605262460E-01  0.53248061753E-01  0.51100000000E-03 0. -1.
         11    1    4    4    0    0  0.38928982797E-01 -0.66842548768E-01  0.38174976711E-02  0.77448217777E-01  0.51100000000E-03 0.  1.
</event>
<event>
 8    1  0.1097777E+005  0.1043930E+01  0.7957747E-01            NaN
         13   -1    0    0    0    0  0.00000000000E+00  0.00000000000E+00  0.74505805969E-08  0.10566000000E+00  0.10566000000E+00 0.  1.
     999900   -1    0    0    0    0 -0.00000000000E+00 -0.00000000000E+00 -0.74505805969E-08  0.93827000000E+00  0.93827000000E+00 0. -1.
     999902    2    1    2    0    0  0.64615002005E-02 -0.16579780165E-01  0.10115858796E-02  0.10261068858E+01  0.10259520835E+01 0.  0.
     999903    2    3    3    0    0 -0.11576391932E+00 -0.23370680346E-01 -0.62962038471E-01  0.13533318043E+00  0.20084265483E-01 0.  0.
         14    1    1    2    0    0 -0.64615002005E-02  0.16579780165E-01 -0.10115858796E-02  0.17823114238E-01  0.00000000000E+00 0. -1.
     999901    1    3    3    0    0  0.12222541952E+00  0.67909001809E-02  0.63973624351E-01  0.89077370533E+00  0.88000000000E+00 0.  1.
        -11    1    4    4    0    0 -0.19122138663E-01  0.67172233925E-03 -0.17200235472E-01  0.25733569889E-01  0.51100000000E-03 0.  1.
         11    1    4    4    0    0 -0.96641780657E-01 -0.24042402685E-01 -0.45761802999E-01  0.10959961054E+00  0.51100000000E-03 0. -1.
</event>
<event>
 8    1  0.1097777E+005  0.1043930E+01  0.7957747E-01            NaN
         13   -1    0    0    0    0  0.00000000000E+00  0.00000000000E+00  0.74505805969E-08  0.10566000000E+00  0.10566000000E+00 0.  1.
     999900   -1    0    0    0    0 -0.00000000000E+00 -0.00000000000E+00 -0.74505805969E-08  0.93827000000E+00  0.93827000000E+00 0.  1.
     999902    2    1    2    0    0 -0.18161021210E-01  0.92584066267E-02 -0.12790547503E-01  0.10198646953E+01  0.10195807265E+01 0.  0.
     999903    2    3    3    0    0  0.89313090094E-01 -0.35126772744E-01  0.81003334271E-01  0.12727407189E+00  0.20650205495E-01 0.  0.
         14    1    1    2    0    0  0.18161021210E-01 -0.92584066267E-02  0.12790547503E-01  0.24065304696E-01  0.00000000000E+00 0.  1.
     999901    1    3    3    0    0 -0.10747411130E+00  0.44385179371E-01 -0.93793881775E-01  0.89259062341E+00  0.88000000000E+00 0.  1.
        -11    1    4    4    0    0  0.67464137569E-01 -0.20313011598E-01  0.49179694770E-01  0.85923988483E-01  0.51100000000E-03 0.  1.
         11    1    4    4    0    0  0.21848952525E-01 -0.14813761146E-01  0.31823639501E-01  0.41350083407E-01  0.51100000000E-03 0. -1.
</event>
<event>
 8    1  0.1097777E+005  0.1043930E+01  0.7957747E-01            NaN
         13   -1    0    0    0    0  0.00000000000E+00  0.00000000000E+00  0.74505805969E-08  0.10566000000E+00  0.10566000000E+00 0. -1.
     999900   -1    0    0    0    0 -0.00000000000E+00 -0.00000000000E+00 -0.74505805969E-08  0.93827000000E+00  0.93827000000E+00 0. -1.
     999902    2    1    2    0    0 -0.19390140601E-02 -0.13590572815E-02  0.23064231228E-01  0.10207445396E+01  0.10204811853E+01 0.  0.
     999903    2    3    3    0    0 -0.92382092141E-02  0.84167408377E-01  0.10069178044E+00  0.13316688610E+00  0.20617656608E-01 0.  0.
         14    1    1    2    0    0  0.19390140601E-02  0.13590572815E-02 -0.23064231228E-01  0.23185460409E-01  0.00000000000E+00 0.  1.
     999901    1    3    3    0    0  0.72991951540E-02 -0.85526465659E-01 -0.77627549209E-01  0.88757765349E+00  0.88000000000E+00 0. -1.
        -11    1    4    4    0    0 -0.57674363335E-02  0.64126769286E-01  0.61655824109E-01  0.89147112283E-01  0.51100000000E-03 0.  1.
         11    1    4    4    0    0 -0.34707728807E-02  0.20040639092E-01  0.39035956328E-01  0.44019773818E-01  0.51100000000E-03 0. -1.
</event>
<event>
 8    1  0.1097777E+005  0.1043930E+01  0.7957747E-01            NaN
         13   -1    0    0    0    0  0.00000000000E+00  0.00000000000E+00  0.74505805969E-08  0.10566000000E+00  0.10566000000E+00 0. -1.
     999900   -1    0    0    0    0 -0.00000000000E+00 -0.00000000000E+00 -0.74505805969E-08  0.93827000000E+00  0.93827000000E+00 0. -1.
     999902    2    1    2    0    0 -0.11301333226E-01 -0.51858423187E-02 -0.19307292224E-01  0.10209651437E+01  0.10207068335E+01 0.  0.
     999903    2    3    3    0    0  0.51548362046E-02 -0.51811359170E-02 -0.13190008672E+00  0.13363885481E+00  0.20206289442E-01 0.  0.
         14    1    1    2    0    0  0.11301333226E-01  0.51858423187E-02  0.19307292224E-01  0.22964856331E-01  0.00000000000E+00 0. -1.
     999901    1    3    3    0    0 -0.16456169431E-01 -0.47064017147E-05  0.11259279449E+00  0.88732628886E+00  0.88000000000E+00 0.  1.
        -11    1    4    4    0    0  0.22415477507E-03 -0.99763115093E-02 -0.11429673713E+00  0.11473265567E+00  0.51100000000E-03 0. -1.
         11    1    4    4    0    0  0.49306814295E-02  0.47951755923E-02 -0.17603349581E-01  0.18906199136E-01  0.51100000000E-03 0.  1.
</event>
<event>
 8    1  0.1097777E+005  0.1043930E+01  0.7957747E-01            NaN
         13   -1    0    0    0    0  0.00000000000E+00  0.00000000000E+00  0.74505805969E-08  0.10566000000E+00  0.10566000000E+00 0. -1.
     999900   -1    0    0    0    0 -0.00000000000E+00 -0.00000000000E+00 -0.74505805969E-08  0.93827000000E+00  0.93827000000E+00 0.  1.
     999902    2    1    2    0    0 -0.20404275456E-03  0.16594487135E-01 -0.16365669229E-01  0.10206221952E+01  0.10203560219E+01 0.  0.
     999903    2    3    3    0    0 -0.11185612886E+00 -0.49968667063E-01 -0.41730514425E-01  0.13071196531E+00  0.18317226580E-01 0.  0.
         14    1    1    2    0    0  0.20404275456E-03 -0.16594487135E-01  0.16365669229E-01  0.23307804831E-01  0.00000000000E+00 0. -1.
     999901    1    3    3    0    0  0.11165208611E+00  0.66563154198E-01  0.25364845196E-01  0.88991022986E+00  0.88000000000E+00 0. -1.
        -11    1    4    4    0    0 -0.35983524947E-01 -0.10642418730E-01 -0.56640648150E-02  0.37952837776E-01  0.51100000000E-03 0. -1.
         11    1    4    4    0    0 -0.75872603916E-01 -0.39326248333E-01 -0.36066449610E-01  0.92759127537E-01  0.51100000000E-03 0.  1.
</event>
<event>
 8    1  0.1097777E+005  0.1043930E+01  0.7957747E-01            NaN
         13   -1    0    0    0    0  0.00000000000E+00  0.00000000000E+00  0.74505805969E-08  0.10566000000E+00  0.10566000000E+00 0.  1.
     999900   -1    0    0    0    0 -0.00000000000E+00 -0.00000000000E+00 -0.74505805969E-08  0.93827000000E+00  0.93827000000E+00 0. -1.
     999902    2    1    2    0    0 -0.13320634189E-01 -0.53721339506E-02  0.19362856758E-01  0.10198215090E+01  0.10195365078E+01 0.  0.
     999903    2    3    3    0    0  0.67680495906E-03  0.30402226193E-01  0.12628071144E+00  0.13251820073E+00  0.26258370475E-01 0.  0.
         14    1    1    2    0    0  0.13320634189E-01  0.53721339506E-02 -0.19362856758E-01  0.24108491040E-01  0.00000000000E+00 0. -1.
     999901    1    3    3    0    0 -0.13997439148E-01 -0.35774360143E-01 -0.10691785468E+00  0.88730330823E+00  0.88000000000E+00 0. -1.
        -11    1    4    4    0    0  0.12089030695E-01  0.71174814417E-02  0.38171123118E-01  0.40670615514E-01  0.51100000000E-03 0. -1.
         11    1    4    4    0    0 -0.11412225736E-01  0.23284744751E-01  0.88109588324E-01  0.91847585216E-01  0.51100000000E-03 0.  1.
</event>
<event>
 8    1  0.1097777E+005  0.1043930E+01  0.7957747E-01            NaN
         13   -1    0    0    0    0  0.00000000000E+00  0.00000000000E+00  0.74505805969E-08  0.10566000000E+00  0.10566000000E+00 0. -1.
     999900   -1    0    0    0    0 -0.00000000000E+00 -0.00000000000E+00 -0.74505805969E-08  0.93827000000E+00  0.93827000000E+00 0. -1.
     999902    2    1    2    0    0 -0.19750218941E-01  0.20817919753E-02 -0.37462941575E-02  0.10237201082E+01  0.10235206008E+01 0.  0.
     999903    2    3    3    0    0 -0.12502779180E+00  0.40224300475E-01 -0.30356988537E-01  0.13622568719E+00  0.19645559965E-01 0.  0.
         14    1    1    2    0    0  0.19750218941E-01 -0.20817919753E-02  0.37462941575E-02  0.20209891785E-01  0.00000000000E+00 0. -1.
     999901    1    3    3    0    0  0.10527757285E+00 -0.38142508500E-01  0.26610694380E-01  0.88749442103E+00  0.88000000000E+00 0. -1.
        -11    1    4    4    0    0 -0.54463242546E-01  0.14783423449E-01 -0.34794183215E-02  0.56543451172E-01  0.51100000000E-03 0. -1.
         11    1    4    4    0    0 -0.70564549249E-01  0.25440877026E-01 -0.26877570216E-01  0.79682236015E-01  0.51100000000E-03 0.  1.
</event>
<event>
 8    1  0.1097777E+005  0.1043930E+01  0.7957747E-01            NaN
         13   -1    0    0    0    0  0.00000000000E+00  0.00000000000E+00  0.74505805969E-08  0.10566000000E+00  0.10566000000E+00 0. -1.
     999900   -1    0    0    0    0 -0.00000000000E+00 -0.00000000000E+00 -0.74505805969E-08  0.93827000000E+00  0.93827000000E+00 0.  1.
     999902    2    1    2    0    0 -0.16635908785E-01 -0.27891285450E-02 -0.15900900120E-01  0.10207487290E+01  0.10204854710E+01 0.  0.
     999903    2    3    3    0    0  0.39341837289E-02 -0.41846988251E-01  0.12050355549E+00  0.12914633972E+00  0.19774274998E-01 0.  0.
         14    1    1    2    0    0  0.16635908785E-01  0.27891285450E-02  0.15900900120E-01  0.23181270969E-01  0.00000000000E+00 0. -1.
     999901    1    3    3    0    0 -0.20570092514E-01  0.39057859706E-01 -0.13640445561E+00  0.89160238931E+00  0.88000000000E+00 0.  1.
        -11    1    4    4    0    0 -0.72475431323E-02 -0.20799152555E-01  0.68101098006E-01  0.71576199250E-01  0.51100000000E-03 0. -1.
         11    1    4    4    0    0  0.11181726861E-01 -0.21047835696E-01  0.52402457480E-01  0.57570140473E-01  0.51100000000E-03 0.  1.
</event>
<event>
 8    1  0.1097777E+005  0.1043930E+01  0.7957747E-01            NaN
         13   -1    0    0    0    0  0.00000000000E+00  0.00000000000E+00  0.74505805969E-08  0.10566000000E+00  0.10566000000E+00 0.  1.
     999900   -1    0    0    0    0 -0.00000000000E+00 -0.00000000000E+00 -0.74505805969E-08  0.93827000000E+00  0.93827000000E+00 0.  1.
     999902    2    1    2    0    0  0.22661508905E-01  0.55291213717E-02 -0.50297109875E-02  0.10200676204E+01  0.10197884766E+01 0.  0.
     999903    2    3    3    0    0 -0.30255413868E-01 -0.10528363045E+00 -0.64815229282E-01  0.12953184070E+00  0.24030208054E-01 0.  0.
         14    1    1    2    0    0 -0.22661508905E-01 -0.55291213717E-02  0.50297109875E-02  0.23862379630E-01  0.00000000000E+00 0. -1.
     999901    1    3    3    0    0  0.52916922774E-01  0.11081275182E+00  0.59785518294E-01  0.89053577967E+00  0.88000000000E+00 0. -1.
        -11    1    4    4    0    0 -0.75296447025E-02 -0.38547918093E-01 -0.36293658506E-01  0.53480167421E-01  0.51100000000E-03 0.  1.
         11    1    4    4    0    0 -0.22725769166E-01 -0.66735712353E-01 -0.28521570776E-01  0.76051673275E-01  0.51100000000E-03 0. -1.
</event>
<event>
 8    1  0.1097777E+005  0.1043930E+01  0.7957747E-01            NaN
         13   -1    0    0    0    0  0.00000000000E+00  0.00000000000E+00  0.74505805969E-08  0.10566000000E+00  0.10566000000E+00 0.  1.
     999900   -1    0    0    0    0 -0.00000000000E+00 -0.00000000000E+00 -0.74505805969E-08  0.93827000000E+00  0.93827000000E+00 0.  1.
     999902    2    1    2    0    0  0.21939254639E-01 -0.38760006505E-02 -0.87803336739E-02  0.10199832145E+01  0.10197020689E+01 0.  0.
     999903    2    3    3    0    0 -0.18643438683E-01  0.47494369244E-01 -0.11877973751E+00  0.13072187007E+00  0.19398153405E-01 0.  0.
         14    1    1    2    0    0 -0.21939254639E-01  0.38760006505E-02  0.87803336739E-02  0.23946785475E-01  0.00000000000E+00 0.  1.
     999901    1    3    3    0    0  0.40582693322E-01 -0.51370369895E-01  0.10999940384E+00  0.88926134446E+00  0.88000000000E+00 0. -1.
        -11    1    4    4    0    0 -0.13920766048E-01  0.11035005253E-01 -0.36205365285E-01  0.40331732727E-01  0.51100000000E-03 0. -1.
         11    1    4    4    0    0 -0.47226726353E-02  0.36459363991E-01 -0.82574372224E-01  0.90390137342E-01  0.51100000000E-03 0.  1.
</event>
<event>
 8    1  0.1097777E+005  0.1043930E+01  0.7957747E-01            NaN
         13   -1    0    0    0    0  0.00000000000E+00  0.00000000000E+00  0.74505805969E-08  0.10566000000E+00  0.10566000000E+00 0.  1.
     999900   -1    0    0    0    0 -0.00000000000E+00 -0.00000000000E+00 -0.74505805969E-08  0.93827000000E+00  0.93827000000E+00 0.  1.
     999902    2    1    2    0    0 -0.91273976040E-02  0.30188884996E-02  0.21340368573E-01  0.10205241374E+01  0.10202556937E+01 0.  0.
     999903    2    3    3    0    0  0.11444675291E+00  0.28964162670E-01  0.54920899860E-01  0.13087736476E+00  0.13251316690E-01 0.  0.
         14    1    1    2    0    0  0.91273976040E-02 -0.30188884996E-02 -0.21340368573E-01  0.23405862634E-01  0.00000000000E+00 0. -1.
     999901    1    3    3    0    0 -0.12357415051E+00 -0.25945274170E-01 -0.33580531287E-01  0.88964677261E+00  0.88000000000E+00 0. -1.
        -11    1    4    4    0    0  0.45679655763E-01  0.13574291422E-01  0.15407009777E-01  0.50085221468E-01  0.51100000000E-03 0. -1.
         11    1    4    4    0    0  0.68767097148E-01  0.15389871248E-01  0.39513890083E-01  0.80792143292E-01  0.51100000000E-03 0.  1.
</event>
