<event>
 8    1  0.1086486E+005  0.1043930E+01  0.7957747E-01            NaN
         13   -1    0    0    0    0  0.00000000000E+00  0.00000000000E+00  0.74505805969E-08  0.10566000000E+00  0.10566000000E+00 0.  1.
     999900   -1    0    0    0    0 -0.00000000000E+00 -0.00000000000E+00 -0.74505805969E-08  0.93827000000E+00  0.93827000000E+00 0.  1.
     999902    2    1    2    0    0 -0.76633301778E-03  0.60818890571E-02  0.22959466601E-01  0.10201662935E+01  0.10198894806E+01 0.  0.
     999903    2    3    3    0    0 -0.64972062653E-01  0.11153146189E+00 -0.88200129949E-02  0.13098019179E+00  0.20429931320E-01 0.  0.
         14    1    1    2    0    0  0.76633301778E-03 -0.60818890571E-02 -0.22959466601E-01  0.23763706516E-01  0.00000000000E+00 0. -1.
     999901    1    3    3    0    0  0.64205729635E-01 -0.10544957284E+00  0.31779479596E-01  0.88918610170E+00  0.88000000000E+00 0.  1.
        -11    1    4    4    0    0  0.47421306397E-03  0.90186000669E-02 -0.10898697907E-02  0.91109254391E-02  0.51100000000E-03 0.  1.
         11    1    4    4    0    0 -0.65446275717E-01  0.10251286183E+00 -0.77301432042E-02  0.12186926635E+00  0.51100000000E-03 0. -1.
</event>
<event>
 8    1  0.1086486E+005  0.1043930E+01  0.7957747E-01            NaN
         13   -1    0    0    0    0  0.00000000000E+00  0.00000000000E+00  0.74505805969E-08  0.10566000000E+00  0.10566000000E+00 0. -1.
     999900   -1    0    0    0    0 -0.00000000000E+00 -0.00000000000E+00 -0.74505805969E-08  0.93827000000E+00  0.93827000000E+00 0.  1.
     999902    2    1    2    0    0 -0.46595559399E-02 -0.15027744179E-01  0.18734077227E-01  0.10194655318E+01  0.10191719483E+01 0.  0.
     999903    2    3    3    0    0  0.63640385064E-01  0.59685353145E-01  0.94819159466E-01  0.13040092860E+00  0.20032203746E-01 0.  0.
         14    1    1    2    0    0  0.46595559399E-02  0.15027744179E-01 -0.18734077227E-01  0.24464468239E-01  0.00000000000E+00 0.  1.
     999901    1    3    3    0    0 -0.68299941004E-01 -0.74713097324E-01 -0.76085082239E-01  0.88906460316E+00  0.88000000000E+00 0. -1.
        -11    1    4    4    0    0  0.24722709063E-01  0.11687145760E-01  0.23753687714E-01  0.36225688681E-01  0.51100000000E-03 0.  1.
         11    1    4    4    0    0  0.38917676001E-01  0.47998207386E-01  0.71065471753E-01  0.94175239920E-01  0.51100000000E-03 0. -1.
</event>
<event>
 8    1  0.1086486E+005  0.1043930E+01  0.7957747E-01            NaN
         13   -1    0    0    0    0  0.00000000000E+00  0.00000000000E+00  0.74505805969E-08  0.10566000000E+00  0.10566000000E+00 0. -1.
     999900   -1    0    0    0    0 -0.00000000000E+00 -0.00000000000E+00 -0.74505805969E-08  0.93827000000E+00  0.93827000000E+00 0. -1.
     999902    2    1    2    0    0 -0.45911861354E-02  0.86323829989E-02 -0.20107352623E-01  0.10215714970E+01  0.10213267943E+01 0.  0.
     999903    2    3    3    0    0 -0.10082158885E+00  0.78151139001E-01 -0.33841371740E-01  0.13349392657E+00  0.20069795316E-01 0.  0.
         14    1    1    2    0    0  0.45911861354E-02 -0.86323829989E-02  0.20107352623E-01  0.22358502989E-01  0.00000000000E+00 0. -1.
     999901    1    3    3    0    0  0.96230402714E-01 -0.69518756002E-01  0.13734019117E-01  0.88807757044E+00  0.88000000000E+00 0. -1.
        -11    1    4    4    0    0 -0.44903670411E-01  0.36161158895E-01 -0.25585368338E-01  0.63078056588E-01  0.51100000000E-03 0.  1.
         11    1    4    4    0    0 -0.55917918439E-01  0.41989980106E-01 -0.82560034024E-02  0.70415869980E-01  0.51100000000E-03 0. -1.
</event>
<event>
 8    1  0.1086486E+005  0.1043930E+01  0.7957747E-01            NaN
         13   -1    0    0    0    0  0.00000000000E+00  0.00000000000E+00  0.74505805969E-08  0.10566000000E+00  0.10566000000E+00 0.  1.
     999900   -1    0    0    0    0 -0.00000000000E+00 -0.00000000000E+00 -0.74505805969E-08  0.93827000000E+00  0.93827000000E+00 0.  1.
     999902    2    1    2    0    0 -0.15884758442E-01 -0.12371929497E-03  0.16627739664E-01  0.10209338572E+01  0.10206748347E+01 0.  0.
     999903    2    3    3    0    0 -0.10730885770E+00 -0.75564810939E-01 -0.46719969910E-02  0.13273151369E+00  0.19250859178E-01 0.  0.
         14    1    1    2    0    0  0.15884758442E-01  0.12371929497E-03 -0.16627739664E-01  0.22996142798E-01  0.00000000000E+00 0. -1.
     999901    1    3    3    0    0  0.91424099254E-01  0.75441091644E-01  0.21299736655E-01  0.88820234351E+00  0.88000000000E+00 0.  1.
        -11    1    4    4    0    0 -0.10298682757E+00 -0.67491986111E-01 -0.67860641962E-02  0.12331977388E+00  0.51100000000E-03 0.  1.
         11    1    4    4    0    0 -0.43220301254E-02 -0.80728248275E-02  0.21140672052E-02  0.94117398098E-02  0.51100000000E-03 0. -1.
</event>
<event>
 8    1  0.1086486E+005  0.1043930E+01  0.7957747E-01            NaN
         13   -1    0    0    0    0  0.00000000000E+00  0.00000000000E+00  0.74505805969E-08  0.10566000000E+00  0.10566000000E+00 0. -1.
     999900   -1    0    0    0    0 -0.00000000000E+00 -0.00000000000E+00 -0.74505805969E-08  0.93827000000E+00  0.93827000000E+00 0. -1.
     999902    2    1    2    0    0  0.12402839311E-01  0.10795227772E-01 -0.10829098820E-01  0.10242415072E+01  0.10240522586E+01 0.  0.
     999903    2    3    3    0    0 -0.44021559334E-01 -0.81437679153E-01 -0.94105934347E-01  0.13372162919E+00  0.21343710112E-01 0.  0.
         14    1    1    2    0    0 -0.12402839311E-01 -0.10795227772E-01  0.10829098820E-01  0.19688492753E-01  0.00000000000E+00 0. -1.
     999901    1    3    3    0    0  0.56424398646E-01  0.92232906925E-01  0.83276835527E-01  0.89051987806E+00  0.88000000000E+00 0.  1.
        -11    1    4    4    0    0 -0.96623477555E-02 -0.11834717106E-01 -0.27391008162E-01  0.31367976381E-01  0.51100000000E-03 0.  1.
         11    1    4    4    0    0 -0.34359211579E-01 -0.69602962047E-01 -0.66714926186E-01  0.10235365281E+00  0.51100000000E-03 0. -1.
</event>
<event>
 7    1  0.1086486E+005  0.1043930E+01  0.7957747E-01            NaN
         13   -1    0    0    0    0  0.00000000000E+00  0.00000000000E+00  0.74505805969E-08  0.10566000000E+00  0.10566000000E+00 0. -1.
     999900   -1    0    0    0    0 -0.00000000000E+00 -0.00000000000E+00 -0.74505805969E-08  0.93827000000E+00  0.93827000000E+00 0.  1.
     999902    2    1    2    0    0 -0.18821421164E-01  0.10861834486E-01  0.58580320466E-02  0.10214235147E+01  0.10211755258E+01 0.  0.
         14    1    1    2    0    0  0.18821421164E-01 -0.10861834486E-01 -0.58580320466E-02  0.22506485343E-01  0.00000000000E+00 0.  1.
     999901    1    3    3    0    0 -0.73362200011E-02  0.50021269889E-01 -0.10810116327E+00  0.88805507096E+00  0.88000000000E+00 0.  1.
        -11    1    3    3    0    0 -0.26459244583E-01 -0.44805024331E-01  0.75361706002E-01  0.91581819603E-01  0.51100000000E-03 0.  1.
         11    1    3    3    0    0  0.14974043419E-01  0.56455889273E-02  0.38597489312E-01  0.41786624090E-01  0.51100000000E-03 0. -1.
</event>
<event>
 8    1  0.1086486E+005  0.1043930E+01  0.7957747E-01            NaN
         13   -1    0    0    0    0  0.00000000000E+00  0.00000000000E+00  0.74505805969E-08  0.10566000000E+00  0.10566000000E+00 0. -1.
     999900   -1    0    0    0    0 -0.00000000000E+00 -0.00000000000E+00 -0.74505805969E-08  0.93827000000E+00  0.93827000000E+00 0.  1.
     999902    2    1    2    0    0  0.95744035703E-02  0.16920358471E-01  0.13348408173E-01  0.10203472153E+01  0.10200746502E+01 0.  0.
     999903    2    3    3    0    0  0.41824754102E-01  0.58903127718E-01  0.11073090527E+00  0.13339400977E+00  0.17712705866E-01 0.  0.
         14    1    1    2    0    0 -0.95744035703E-02 -0.16920358471E-01 -0.13348408173E-01  0.23582784723E-01  0.00000000000E+00 0. -1.
     999901    1    3    3    0    0 -0.32250350531E-01 -0.41982769247E-01 -0.97382497098E-01  0.88695320551E+00  0.88000000000E+00 0.  1.
        -11    1    4    4    0    0  0.17904466018E-01  0.35393537920E-01  0.71599371813E-01  0.81853549678E-01  0.51100000000E-03 0. -1.
         11    1    4    4    0    0  0.23920288083E-01  0.23509589798E-01  0.39131533458E-01  0.51540460090E-01  0.51100000000E-03 0.  1.
</event>
<event>
 8    1  0.1086486E+005  0.1043930E+01  0.7957747E-01            NaN
         13   -1    0    0    0    0  0.00000000000E+00  0.00000000000E+00  0.74505805969E-08  0.10566000000E+00  0.10566000000E+00 0.  1.
     999900   -1    0    0    0    0 -0.00000000000E+00 -0.00000000000E+00 -0.74505805969E-08  0.93827000000E+00  0.93827000000E+00 0. -1.
     999902    2    1    2    0    0  0.76904003283E-02  0.12654075448E-01 -0.18458298192E-01  0.10202661741E+01  0.10199917105E+01 0.  0.
     999903    2    3    3    0    0 -0.10747131626E+00  0.48328778417E-01  0.50640135047E-01  0.12936242014E+00  0.16865877537E-01 0.  0.
         14    1    1    2    0    0 -0.76904003283E-02 -0.12654075448E-01  0.18458298192E-01  0.23663825870E-01  0.00000000000E+00 0.  1.
     999901    1    3    3    0    0  0.11516171659E+00 -0.35674702969E-01 -0.69098433239E-01  0.89090375399E+00  0.88000000000E+00 0. -1.
        -11    1    4    4    0    0 -0.55747579184E-01  0.25805883684E-01  0.35486371732E-01  0.70945612389E-01  0.51100000000E-03 0.  1.
         11    1    4    4    0    0 -0.51723737074E-01  0.22522894733E-01  0.15153763316E-01  0.58416807750E-01  0.51100000000E-03 0. -1.
</event>
<event>
 8    1  0.1086486E+005  0.1043930E+01  0.7957747E-01            NaN
         13   -1    0    0    0    0  0.00000000000E+00  0.00000000000E+00  0.74505805969E-08  0.10566000000E+00  0.10566000000E+00 0.  1.
     999900   -1    0    0    0    0 -0.00000000000E+00 -0.00000000000E+00 -0.74505805969E-08  0.93827000000E+00  0.93827000000E+00 0.  1.
     999902    2    1    2    0    0  0.20117325007E-01  0.12560668806E-01 -0.33341872937E-02  0.10199801781E+01  0.10196989603E+01 0.  0.
     999903    2    3    3    0    0  0.13123967635E+00 -0.33571255261E-02 -0.22560496731E-03  0.13284365168E+00  0.20304234868E-01 0.  0.
         14    1    1    2    0    0 -0.20117325007E-01 -0.12560668806E-01  0.33341872937E-02  0.23949821945E-01  0.00000000000E+00 0.  1.
     999901    1    3    3    0    0 -0.11112235134E+00  0.15917794332E-01 -0.31085823264E-02  0.88713652638E+00  0.88000000000E+00 0. -1.
        -11    1    4    4    0    0  0.71148095874E-01  0.25998955570E-02  0.89663730203E-02  0.71759793545E-01  0.51100000000E-03 0.  1.
         11    1    4    4    0    0  0.60091580477E-01 -0.59570210831E-02 -0.91919779876E-02  0.61083858135E-01  0.51100000000E-03 0. -1.
</event>
<event>
 8    1  0.1086486E+005  0.1043930E+01  0.7957747E-01            NaN
         13   -1    0    0    0    0  0.00000000000E+00  0.00000000000E+00  0.74505805969E-08  0.10566000000E+00  0.10566000000E+00 0. -1.
     999900   -1    0    0    0    0 -0.00000000000E+00 -0.00000000000E+00 -0.74505805969E-08  0.93827000000E+00  0.93827000000E+00 0. -1.
     999902    2    1    2    0    0  0.10518796422E-01 -0.14556931629E-01  0.15328349003E-01  0.10203184007E+01  0.10200451614E+01 0.  0.
     999903    2    3    3    0    0  0.12012488452E+00 -0.13407163011E-02  0.52879511232E-01  0.13262574408E+00  0.19014728045E-01 0.  0.
         14    1    1    2    0    0 -0.10518796422E-01  0.14556931629E-01 -0.15328349003E-01  0.23611599264E-01  0.00000000000E+00 0.  1.
     999901    1    3    3    0    0 -0.10960608810E+00 -0.13216215328E-01 -0.37551162229E-01  0.88769265666E+00  0.88000000000E+00 0. -1.
        -11    1    4    4    0    0  0.12935249179E-01  0.46630427905E-02  0.10049984009E-01  0.17039012265E-01  0.51100000000E-03 0. -1.
         11    1    4    4    0    0  0.10718963534E+00 -0.60037590916E-02  0.42829527224E-01  0.11558673182E+00  0.51100000000E-03 0.  1.
</event>
<event>
 8    1  0.1086486E+005  0.1043930E+01  0.7957747E-01            NaN
         13   -1    0    0    0    0  0.00000000000E+00  0.00000000000E+00  0.74505805969E-08  0.10566000000E+00  0.10566000000E+00 0. -1.
     999900   -1    0    0    0    0 -0.00000000000E+00 -0.00000000000E+00 -0.74505805969E-08  0.93827000000E+00  0.93827000000E+00 0. -1.
     999902    2    1    2    0    0 -0.63393728695E-02 -0.21737524521E-02 -0.19959812234E-01  0.10228751442E+01  0.10226584247E+01 0.  0.
     999903    2    3    3    0    0 -0.10872992351E+00  0.73757204026E-01 -0.12208567436E-01  0.13365671389E+00  0.21277843817E-01 0.  0.
         14    1    1    2    0    0  0.63393728695E-02  0.21737524521E-02  0.19959812234E-01  0.21054855795E-01  0.00000000000E+00 0. -1.
     999901    1    3    3    0    0  0.10239055064E+00 -0.75930956478E-01 -0.77512447984E-02  0.88921843031E+00  0.88000000000E+00 0. -1.
        -11    1    4    4    0    0 -0.76649004030E-01  0.42543540594E-01 -0.14397177558E-01  0.88840095159E-01  0.51100000000E-03 0.  1.
         11    1    4    4    0    0 -0.32080919480E-01  0.31213663431E-01  0.21886101223E-02  0.44816618734E-01  0.51100000000E-03 0. -1.
</event>
<event>
 7    1  0.1086486E+005  0.1043930E+01  0.7957747E-01            NaN
         13   -1    0    0    0    0  0.00000000000E+00  0.00000000000E+00  0.74505805969E-08  0.10566000000E+00  0.10566000000E+00 0.  1.
     999900   -1    0    0    0    0 -0.00000000000E+00 -0.00000000000E+00 -0.74505805969E-08  0.93827000000E+00  0.93827000000E+00 0. -1.
     999903    2    1    2    0    0  0.70644823331E-01  0.25186533197E-01 -0.27784208548E-01  0.82385398361E-01  0.19757001303E-01 0.  0.
         14    1    1    2    0    0  0.10960412954E-01 -0.56753624868E-01 -0.46368039529E-01  0.74101954614E-01  0.00000000000E+00 0. -1.
     999901    1    1    2    0    0 -0.81605236284E-01  0.31567091670E-01  0.74152248077E-01  0.88744264703E+00  0.88000000000E+00 0.  1.
        -11    1    3    3    0    0  0.23421461749E-01  0.15501900828E-01 -0.17484826410E-01  0.33088579228E-01  0.51100000000E-03 0. -1.
         11    1    3    3    0    0  0.47223361581E-01  0.96846323698E-02 -0.10299382138E-01  0.49296819133E-01  0.51100000000E-03 0.  1.
</event>
<event>
 8    1  0.1086486E+005  0.1043930E+01  0.7957747E-01            NaN
         13   -1    0    0    0    0  0.00000000000E+00  0.00000000000E+00  0.74505805969E-08  0.10566000000E+00  0.10566000000E+00 0. -1.
     999900   -1    0    0    0    0 -0.00000000000E+00 -0.00000000000E+00 -0.74505805969E-08  0.93827000000E+00  0.93827000000E+00 0. -1.
     999902    2    1    2    0    0  0.84223484372E-02  0.86623311933E-02  0.21036721872E-01  0.10196706595E+01  0.10193820374E+01 0.  0.
     999903    2    3    3    0    0 -0.29597970016E-01  0.44367951119E-01 -0.11542953273E+00  0.12762611209E+00  0.10949545406E-01 0.  0.
         14    1    1    2    0    0 -0.84223484372E-02 -0.86623311933E-02 -0.21036721872E-01  0.24259340510E-01  0.00000000000E+00 0.  1.
     999901    1    3    3    0    0  0.38020318453E-01 -0.35705619926E-01  0.13646625460E+00  0.89204454740E+00  0.88000000000E+00 0.  1.
        -11    1    4    4    0    0 -0.11923223196E-01  0.11477772199E-01 -0.44243182635E-01  0.47240055427E-01  0.51100000000E-03 0. -1.
         11    1    4    4    0    0 -0.17674746819E-01  0.32890178920E-01 -0.71186350093E-01  0.80386056659E-01  0.51100000000E-03 0.  1.
</event>
<event>
 8    1  0.1086486E+005  0.1043930E+01  0.7957747E-01            NaN
         13   -1    0    0    0    0  0.00000000000E+00  0.00000000000E+00  0.74505805969E-08  0.10566000000E+00  0.10566000000E+00 0.  1.
     999900   -1    0    0    0    0 -0.00000000000E+00 -0.00000000000E+00 -0.74505805969E-08  0.93827000000E+00  0.93827000000E+00 0.  1.
     999902    2    1    2    0    0 -0.15181477290E-02 -0.12719937677E-01  0.19672156448E-01  0.10204545804E+01  0.10201845202E+01 0.  0.
     999903    2    3    3    0    0 -0.93713618290E-01 -0.90971029419E-01  0.30691457701E-02  0.13202962682E+00  0.19090108823E-01 0.  0.
         14    1    1    2    0    0  0.15181477290E-02  0.12719937677E-01 -0.19672156448E-01  0.23475419620E-01  0.00000000000E+00 0. -1.
     999901    1    3    3    0    0  0.92195470561E-01  0.78251091741E-01  0.16603010678E-01  0.88842495356E+00  0.88000000000E+00 0.  1.
        -11    1    4    4    0    0 -0.93747438189E-02 -0.18696070899E-01  0.67079602368E-03  0.20931793450E-01  0.51100000000E-03 0.  1.
         11    1    4    4    0    0 -0.84338874471E-01 -0.72274958520E-01  0.23983497464E-02  0.11109783337E+00  0.51100000000E-03 0. -1.
</event>
<event>
 8    1  0.1086486E+005  0.1043930E+01  0.7957747E-01            NaN
         13   -1    0    0    0    0  0.00000000000E+00  0.00000000000E+00  0.74505805969E-08  0.10566000000E+00  0.10566000000E+00 0. -1.
     999900   -1    0    0    0    0 -0.00000000000E+00 -0.00000000000E+00 -0.74505805969E-08  0.93827000000E+00  0.93827000000E+00 0.  1.
     999902    2    1    2    0    0  0.20508089587E-01  0.11380752028E-01  0.62603913149E-03  0.10204673663E+01  0.10201976037E+01 0.  0.
     999903    2    3    3    0    0  0.11746127362E+00 -0.56323474885E-01 -0.12358096924E-01  0.13246265346E+00  0.20594838639E-01 0.  0.
         14    1    1    2    0    0 -0.20508089587E-01 -0.11380752028E-01 -0.62603913149E-03  0.23462633702E-01  0.00000000000E+00 0. -1.
     999901    1    3    3    0    0 -0.96953184032E-01  0.67704226913E-01  0.12984136056E-01  0.88800471284E+00  0.88000000000E+00 0.  1.
        -11    1    4    4    0    0  0.64031751305E-01 -0.19486270006E-01 -0.81379923899E-02  0.67426018235E-01  0.51100000000E-03 0. -1.
         11    1    4    4    0    0  0.53429522314E-01 -0.36837204878E-01 -0.42201045343E-02  0.65036635224E-01  0.51100000000E-03 0.  1.
</event>
<event>
 8    1  0.1086486E+005  0.1043930E+01  0.7957747E-01            NaN
         13   -1    0    0    0    0  0.00000000000E+00  0.00000000000E+00  0.74505805969E-08  0.10566000000E+00  0.10566000000E+00 0.  1.
     999900   -1    0    0    0    0 -0.00000000000E+00 -0.00000000000E+00 -0.74505805969E-08  0.93827000000E+00  0.93827000000E+00 0. -1.
     999902    2    1    2    0    0  0.39290236006E-02 -0.20689672415E-01 -0.15966832085E-01  0.10175019941E+01  0.10171587233E+01 0.  0.
     999903    2    3    3    0    0  0.13026800072E-01 -0.14014814301E-01  0.12339613817E+00  0.12646363308E+00  0.20008274152E-01 0.  0.
         14    1    1    2    0    0 -0.39290236006E-02  0.20689672415E-01  0.15966832085E-01  0.26428005939E-01  0.00000000000E+00 0.  1.
     999901    1    3    3    0    0 -0.90977764712E-02 -0.66748581147E-02 -0.13936297026E+00  0.89103836098E+00  0.88000000000E+00 0. -1.
        -11    1    4    4    0    0  0.10326001281E-01  0.20482143680E-02  0.64457735231E-01  0.65313721656E-01  0.51100000000E-03 0.  1.
         11    1    4    4    0    0  0.27007987912E-02 -0.16063028669E-01  0.58938402943E-01  0.61149911419E-01  0.51100000000E-03 0. -1.
</event>
<event>
 8    1  0.1086486E+005  0.1043930E+01  0.7957747E-01            NaN
         13   -1    0    0    0    0  0.00000000000E+00  0.00000000000E+00  0.74505805969E-08  0.10566000000E+00  0.10566000000E+00 0. -1.
     999900   -1    0    0    0    0 -0.00000000000E+00 -0.00000000000E+00 -0.74505805969E-08  0.93827000000E+00  0.93827000000E+00 0. -1.
     999902    2    1    2    0    0  0.20732097323E-01 -0.76777616880E-02  0.87629044140E-02  0.10201485707E+01  0.10198713399E+01 0.  0.
     999903    2    3    3    0    0 -0.28970596043E-01 -0.21111154119E-01  0.12459967200E+00  0.13106535164E+00  0.19185199383E-01 0.  0.
         14    1    1    2    0    0 -0.20732097323E-01  0.76777616880E-02 -0.87629044140E-02  0.23781429262E-01  0.00000000000E+00 0.  1.
     999901    1    3    3    0    0  0.49702693366E-01  0.13433392431E-01 -0.11583676758E+00  0.88908321910E+00  0.88000000000E+00 0. -1.
        -11    1    4    4    0    0 -0.19159078535E-01 -0.12633857524E-01  0.46086212032E-01  0.51486743019E-01  0.51100000000E-03 0.  1.
         11    1    4    4    0    0 -0.98115175086E-02 -0.84772965959E-02  0.78513459964E-01  0.79578608620E-01  0.51100000000E-03 0. -1.
</event>
<event>
 8    1  0.1086486E+005  0.1043930E+01  0.7957747E-01            NaN
         13   -1    0    0    0    0  0.00000000000E+00  0.00000000000E+00  0.74505805969E-08  0.10566000000E+00  0.10566000000E+00 0.  1.
     999900   -1    0    0    0    0 -0.00000000000E+00 -0.00000000000E+00 -0.74505805969E-08  0.93827000000E+00  0.93827000000E+00 0. -1.
     999902    2    1    2    0    0 -0.17800737156E-01 -0.11112919666E-01 -0.77293651107E-02  0.10215669431E+01  0.10213221397E+01 0.  0.
     999903    2    3    3    0    0  0.15698544519E-01  0.12405279246E+00 -0.30533224541E-01  0.13032511984E+00  0.20416156436E-01 0.  0.
         14    1    1    2    0    0  0.17800737156E-01  0.11112919666E-01  0.77293651107E-02  0.22363056854E-01  0.00000000000E+00 0. -1.
     999901    1    3    3    0    0 -0.33499281675E-01 -0.13516571212E+00  0.22803859431E-01  0.89124182331E+00  0.88000000000E+00 0.  1.
        -11    1    4    4    0    0  0.14903768296E-01  0.48829468234E-01 -0.72040434746E-02  0.51561600449E-01  0.51100000000E-03 0.  1.
         11    1    4    4    0    0  0.79477622224E-03  0.75223324224E-01 -0.23329181067E-01  0.78763519390E-01  0.51100000000E-03 0. -1.
</event>
<event>
 8    1  0.1086486E+005  0.1043930E+01  0.7957747E-01            NaN
         13   -1    0    0    0    0  0.00000000000E+00  0.00000000000E+00  0.74505805969E-08  0.10566000000E+00  0.10566000000E+00 0. -1.
     999900   -1    0    0    0    0 -0.00000000000E+00 -0.00000000000E+00 -0.74505805969E-08  0.93827000000E+00  0.93827000000E+00 0.  1.
     999902    2    1    2    0    0  0.36319085771E-02  0.16972241849E-01  0.14518970211E-01  0.10213015169E+01  0.10210508019E+01 0.  0.
     999903    2    3    3    0    0 -0.24564050960E-01  0.44889394997E-02 -0.12632039635E+00  0.12956917353E+00  0.14414750025E-01 0.  0.
         14    1    1    2    0    0 -0.36319085771E-02 -0.16972241849E-01 -0.14518970211E-01  0.22628483141E-01  0.00000000000E+00 0.  1.
     999901    1    3    3    0    0  0.28195959537E-01  0.12483302350E-01  0.14083936656E+00  0.89173234333E+00  0.88000000000E+00 0. -1.
        -11    1    4    4    0    0 -0.19578227033E-01  0.94324751210E-02 -0.98738165216E-01  0.10110274453E+00  0.51100000000E-03 0. -1.
         11    1    4    4    0    0 -0.49858239266E-02 -0.49435356213E-02 -0.27582231129E-01  0.28466428995E-01  0.51100000000E-03 0.  1.
</event>
<event>
 8    1  0.1086486E+005  0.1043930E+01  0.7957747E-01            NaN
         13   -1    0    0    0    0  0.00000000000E+00  0.00000000000E+00  0.74505805969E-08  0.10566000000E+00  0.10566000000E+00 0. -1.
     999900   -1    0    0    0    0 -0.00000000000E+00 -0.00000000000E+00 -0.74505805969E-08  0.93827000000E+00  0.93827000000E+00 0. -1.
     999902    2    1    2    0    0 -0.73115931992E-02 -0.22192494052E-01  0.65148252437E-02  0.10196728539E+01  0.10193842847E+01 0.  0.
     999903    2    3    3    0    0 -0.11353249232E+00  0.58980118915E-01 -0.21012225715E-02  0.12953460131E+00  0.20162255834E-01 0.  0.
         14    1    1    2    0    0  0.73115931992E-02  0.22192494052E-01 -0.65148252437E-02  0.24257146067E-01  0.00000000000E+00 0.  1.
     999901    1    3    3    0    0  0.10622089912E+00 -0.81172612968E-01  0.86160478152E-02  0.89013825262E+00  0.88000000000E+00 0.  1.
        -11    1    4    4    0    0 -0.10760409125E+00  0.52636757182E-01  0.22474360550E-02  0.11981060367E+00  0.51100000000E-03 0. -1.
         11    1    4    4    0    0 -0.59284010642E-02  0.63433617333E-02 -0.43486586265E-02  0.97239976402E-02  0.51100000000E-03 0.  1.
</event>
<event>
 8    1  0.1086486E+005  0.1043930E+01  0.7957747E-01            NaN
         13   -1    0    0    0    0  0.00000000000E+00  0.00000000000E+00  0.74505805969E-08  0.10566000000E+00  0.10566000000E+00 0. -1.
     999900   -1    0    0    0    0 -0.00000000000E+00 -0.00000000000E+00 -0.74505805969E-08  0.93827000000E+00  0.93827000000E+00 0. -1.
     999902    2    1    2    0    0 -0.75921756281E-02 -0.19923977840E-01  0.96612968410E-02  0.10205217391E+01  0.10202532397E+01 0.  0.
     999903    2    3    3    0    0  0.11083335202E+00  0.58574308711E-01 -0.27121370088E-01  0.12836729549E+00  0.52547383191E-02 0.  0.
         14    1    1    2    0    0  0.75921756281E-02  0.19923977840E-01 -0.96612968410E-02  0.23408260943E-01  0.00000000000E+00 0.  1.
     999901    1    3    3    0    0 -0.11842552765E+00 -0.78498286551E-01  0.36782666929E-01  0.89215444357E+00  0.88000000000E+00 0.  1.
        -11    1    4    4    0    0  0.92855718298E-01  0.49022477750E-01 -0.24614531072E-01  0.10784954338E+00  0.51100000000E-03 0.  1.
         11    1    4    4    0    0  0.17977633723E-01  0.95518309610E-02 -0.25068390156E-02  0.20517752114E-01  0.51100000000E-03 0. -1.
</event>
<event>
 8    1  0.1086486E+005  0.1043930E+01  0.7957747E-01            NaN
         13   -1    0    0    0    0  0.00000000000E+00  0.00000000000E+00  0.74505805969E-08  0.10566000000E+00  0.10566000000E+00 0. -1.
     999900   -1    0    0    0    0 -0.00000000000E+00 -0.00000000000E+00 -0.74505805969E-08  0.93827000000E+00  0.93827000000E+00 0.  1.
     999902    2    1    2    0    0  0.48371972627E-02 -0.13148687427E-01  0.44712017698E-02  0.10292236033E+01  0.10291185294E+01 0.  0.
     999903    2    3    3    0    0  0.73812108519E-01 -0.10701971926E+00 -0.47485428142E-01  0.14002801155E+00  0.21249246099E-01 0.  0.
         14    1    1    2    0    0 -0.48371972627E-02  0.13148687427E-01 -0.44712017698E-02  0.14706396693E-01  0.00000000000E+00 0.  1.
     999901    1    3    3    0    0 -0.68974911256E-01  0.93871031832E-01  0.51956629912E-01  0.88919559175E+00  0.88000000000E+00 0. -1.
        -11    1    4    4    0    0  0.73956827872E-02 -0.20925435276E-01 -0.14028183346E-01  0.26260636214E-01  0.51100000000E-03 0.  1.
         11    1    4    4    0    0  0.66416425732E-01 -0.86094283984E-01 -0.33457244797E-01  0.11376737534E+00  0.51100000000E-03 0. -1.
</event>
<event>
 8    1  0.1086486E+005  0.1043930E+01  0.7957747E-01            NaN
         13   -1    0    0    0    0  0.00000000000E+00  0.00000000000E+00  0.74505805969E-08  0.10566000000E+00  0.10566000000E+00 0.  1.
     999900   -1    0    0    0    0 -0.00000000000E+00 -0.00000000000E+00 -0.74505805969E-08  0.93827000000E+00  0.93827000000E+00 0.  1.
     999902    2    1    2    0    0  0.11052532932E-01  0.17655745677E-02 -0.19433239928E-01  0.10215039760E+01  0.10212577767E+01 0.  0.
     999903    2    3    3    0    0  0.52725032024E-01  0.10780592199E+00  0.49754829104E-01  0.13146569517E+00  0.20140510661E-01 0.  0.
         14    1    1    2    0    0 -0.11052532932E-01 -0.17655745677E-02  0.19433239928E-01  0.22426023987E-01  0.00000000000E+00 0.  1.
     999901    1    3    3    0    0 -0.41672499092E-01 -0.10604034743E+00 -0.69188069031E-01  0.89003828084E+00  0.88000000000E+00 0.  1.
        -11    1    4    4    0    0  0.15655251232E-01  0.27839673101E-01  0.22966192383E-01  0.39342615611E-01  0.51100000000E-03 0.  1.
         11    1    4    4    0    0  0.37069780792E-01  0.79966248892E-01  0.26788636720E-01  0.92123079563E-01  0.51100000000E-03 0. -1.
</event>
<event>
 8    1  0.1086486E+005  0.1043930E+01  0.7957747E-01            NaN
         13   -1    0    0    0    0  0.00000000000E+00  0.00000000000E+00  0.74505805969E-08  0.10566000000E+00  0.10566000000E+00 0. -1.
     999900   -1    0    0    0    0 -0.00000000000E+00 -0.00000000000E+00 -0.74505805969E-08  0.93827000000E+00  0.93827000000E+00 0.  1.
     999902    2    1    2    0    0  0.18773634099E-01  0.39940979288E-02 -0.14549027164E-01  0.10198452258E+01  0.10195607919E+01 0.  0.
     999903    2    3    3    0    0  0.12148151789E+00  0.42600256269E-01  0.23104149824E-01  0.13223207440E+00  0.19467376223E-01 0.  0.
         14    1    1    2    0    0 -0.18773634099E-01 -0.39940979288E-02  0.14549027164E-01  0.24084774173E-01  0.00000000000E+00 0. -1.
     999901    1    3    3    0    0 -0.10270788379E+00 -0.38606158340E-01 -0.37653176987E-01  0.88761315143E+00  0.88000000000E+00 0. -1.
        -11    1    4    4    0    0  0.10715742843E+00  0.43268945228E-01  0.23261306463E-01  0.11788242273E+00  0.51100000000E-03 0. -1.
         11    1    4    4    0    0  0.14324089462E-01 -0.66868895892E-03 -0.15715663936E-03  0.14349651670E-01  0.51100000000E-03 0.  1.
</event>
<event>
 8    1  0.1086486E+005  0.1043930E+01  0.7957747E-01            NaN
         13   -1    0    0    0    0  0.00000000000E+00  0.00000000000E+00  0.74505805969E-08  0.10566000000E+00  0.10566000000E+00 0.  1.
     999900   -1    0    0    0    0 -0.00000000000E+00 -0.00000000000E+00 -0.74505805969E-08  0.93827000000E+00  0.93827000000E+00 0.  1.
     999902    2    1    2    0    0  0.22810361881E-01  0.24923021215E-02 -0.10472766377E-01  0.10187069349E+01  0.10183946269E+01 0.  0.
     999903    2    3    3    0    0  0.27522821154E-01  0.97849588584E-01  0.77486608948E-01  0.12918342699E+00  0.18765275734E-01 0.  0.
         14    1    1    2    0    0 -0.22810361881E-01 -0.24923021215E-02  0.10472766377E-01  0.25223065131E-01  0.00000000000E+00 0.  1.
     999901    1    3    3    0    0 -0.47124592726E-02 -0.95357286462E-01 -0.87959375325E-01  0.88952350787E+00  0.88000000000E+00 0.  1.
        -11    1    4    4    0    0 -0.21232398478E-02  0.10891969521E-01  0.51207947855E-02  0.12232203715E-01  0.51100000000E-03 0. -1.
         11    1    4    4    0    0  0.29646061002E-01  0.86957619063E-01  0.72365814162E-01  0.11695122328E+00  0.51100000000E-03 0.  1.
</event>
<event>
 8    1  0.1166996E+005  0.1043930E+01  0.7957747E-01            NaN
         13   -1    0    0    0    0  0.00000000000E+00  0.00000000000E+00  0.74505805969E-08  0.10566000000E+00  0.10566000000E+00 0. -1.
     999900   -1    0    0    0    0 -0.00000000000E+00 -0.00000000000E+00 -0.74505805969E-08  0.93827000000E+00  0.93827000000E+00 0.  1.
     999902    2    1    2    0    0 -0.14020019870E-01 -0.12330968446E-01 -0.15683528294E-01  0.10195458494E+01  0.10192542138E+01 0.  0.
     999903    2    3    3    0    0  0.92184648567E-01  0.86043510503E-01  0.47858619489E-03  0.12757153160E+00  0.19307291313E-01 0.  0.
         14    1    1    2    0    0  0.14020019870E-01  0.12330968446E-01  0.15683528294E-01  0.24384150584E-01  0.00000000000E+00 0.  1.
     999901    1    3    3    0    0 -0.10620466844E+00 -0.98374478948E-01 -0.16162114489E-01  0.89197431782E+00  0.88000000000E+00 0. -1.
        -11    1    4    4    0    0  0.62087824072E-01  0.53902694017E-01  0.90164931365E-02  0.82716120495E-01  0.51100000000E-03 0.  1.
         11    1    4    4    0    0  0.30096824495E-01  0.32140816485E-01 -0.85379069416E-02  0.44855411100E-01  0.51100000000E-03 0. -1.
</event>
<event>
 8    1  0.1086486E+005  0.1043930E+01  0.7957747E-01            NaN
         13   -1    0    0    0    0  0.00000000000E+00  0.00000000000E+00  0.74505805969E-08  0.10566000000E+00  0.10566000000E+00 0. -1.
     999900   -1    0    0    0    0 -0.00000000000E+00 -0.00000000000E+00 -0.74505805969E-08  0.93827000000E+00  0.93827000000E+00 0. -1.
     999902    2    1    2    0    0 -0.27083361630E-02  0.15096890431E-01  0.17886565956E-01  0.10203677330E+01  0.10200956475E+01 0.  0.
     999903    2    3    3    0    0 -0.10574315973E+00 -0.38478349969E-01 -0.60467878440E-01  0.12928642344E+00  0.19910191274E-01 0.  0.
         14    1    1    2    0    0  0.27083361630E-02 -0.15096890431E-01 -0.17886565956E-01  0.23562267021E-01  0.00000000000E+00 0.  1.
     999901    1    3    3    0    0  0.10303482357E+00  0.53575240400E-01  0.78354444395E-01  0.89108130954E+00  0.88000000000E+00 0.  1.
        -11    1    4    4    0    0 -0.57346415779E-01 -0.30889547197E-01 -0.31278829967E-01  0.72259268290E-01  0.51100000000E-03 0.  1.
         11    1    4    4    0    0 -0.48396743954E-01 -0.75888027714E-02 -0.29189048473E-01  0.57027155151E-01  0.51100000000E-03 0. -1.
</event>
<event>
 8    1  0.1086486E+005  0.1043930E+01  0.7957747E-01            NaN
         13   -1    0    0    0    0  0.00000000000E+00  0.00000000000E+00  0.74505805969E-08  0.10566000000E+00  0.10566000000E+00 0. -1.
     999900   -1    0    0    0    0 -0.00000000000E+00 -0.00000000000E+00 -0.74505805969E-08  0.93827000000E+00  0.93827000000E+00 0.  1.
     999902    2    1    2    0    0  0.63031723404E-02 -0.13867230333E-02  0.23212607561E-01  0.10198368862E+01  0.10195522529E+01 0.  0.
     999903    2    3    3    0    0 -0.11959284047E+00 -0.19336120817E-01 -0.37945094941E-01  0.12859491486E+00  0.20505824493E-01 0.  0.
         14    1    1    2    0    0 -0.63031723404E-02  0.13867230333E-02 -0.23212607561E-01  0.24093113790E-01  0.00000000000E+00 0.  1.
     999901    1    3    3    0    0  0.12589601281E+00  0.17949397784E-01  0.61157702503E-01  0.89124197135E+00  0.88000000000E+00 0. -1.
        -11    1    4    4    0    0 -0.71189198505E-01 -0.20293782001E-01 -0.28147304044E-01  0.79197673057E-01  0.51100000000E-03 0. -1.
         11    1    4    4    0    0 -0.48403641962E-01  0.95766118367E-03 -0.97977908974E-02  0.49397241802E-01  0.51100000000E-03 0.  1.
</event>
<event>
 8    1  0.1086486E+005  0.1043930E+01  0.7957747E-01            NaN
         13   -1    0    0    0    0  0.00000000000E+00  0.00000000000E+00  0.74505805969E-08  0.10566000000E+00  0.10566000000E+00 0.  1.
     999900   -1    0    0    0    0 -0.00000000000E+00 -0.00000000000E+00 -0.74505805969E-08  0.93827000000E+00  0.93827000000E+00 0.  1.
     999902    2    1    2    0    0  0.22748165866E-01  0.61957031702E-02 -0.52084590194E-02  0.10197847348E+01  0.10194988531E+01 0.  0.
     999903    2    3    3    0    0 -0.99235012635E-01 -0.57834716016E-01 -0.52644334903E-01  0.12780381975E+00  0.19234038501E-01 0.  0.
         14    1    1    2    0    0 -0.22748165866E-01 -0.61957031702E-02  0.52084590194E-02  0.24145265238E-01  0.00000000000E+00 0.  1.
     999901    1    3    3    0    0  0.12198317850E+00  0.64030419186E-01  0.47435875884E-01  0.89198091501E+00  0.88000000000E+00 0. -1.
        -11    1    4    4    0    0 -0.30432480649E-01 -0.19879356377E-01 -0.26509496253E-01  0.44992657190E-01  0.51100000000E-03 0. -1.
         11    1    4    4    0    0 -0.68802531986E-01 -0.37955359638E-01 -0.26134838650E-01  0.82811162564E-01  0.51100000000E-03 0.  1.
</event>
<event>
 8    1  0.1086486E+005  0.1043930E+01  0.7957747E-01            NaN
         13   -1    0    0    0    0  0.00000000000E+00  0.00000000000E+00  0.74505805969E-08  0.10566000000E+00  0.10566000000E+00 0. -1.
     999900   -1    0    0    0    0 -0.00000000000E+00 -0.00000000000E+00 -0.74505805969E-08  0.93827000000E+00  0.93827000000E+00 0.  1.
     999902    2    1    2    0    0 -0.58251822779E-02 -0.10620814521E-01  0.19614034384E-01  0.10208769136E+01  0.10206165920E+01 0.  0.
     999903    2    3    3    0    0 -0.90857371127E-02  0.45206985549E-01 -0.11818854664E+00  0.12839894419E+00  0.19787221909E-01 0.  0.
         14    1    1    2    0    0  0.58251822779E-02  0.10620814521E-01 -0.19614034384E-01  0.23053086441E-01  0.00000000000E+00 0.  1.
     999901    1    3    3    0    0  0.32605548347E-02 -0.55827800070E-01  0.13780258102E+00  0.89247796937E+00  0.88000000000E+00 0. -1.
        -11    1    4    4    0    0  0.54669555957E-02  0.21149295039E-01 -0.57496439248E-01  0.61508389113E-01  0.51100000000E-03 0.  1.
         11    1    4    4    0    0 -0.14552692708E-01  0.24057690510E-01 -0.60692107389E-01  0.66890555074E-01  0.51100000000E-03 0. -1.
</event>
<event>
 8    1  0.1086486E+005  0.1043930E+01  0.7957747E-01            NaN
         13   -1    0    0    0    0  0.00000000000E+00  0.00000000000E+00  0.74505805969E-08  0.10566000000E+00  0.10566000000E+00 0. -1.
     999900   -1    0    0    0    0 -0.00000000000E+00 -0.00000000000E+00 -0.74505805969E-08  0.93827000000E+00  0.93827000000E+00 0.  1.
     999902    2    1    2    0    0 -0.15589031509E-01 -0.17205978915E-01  0.55557812219E-02  0.10200567866E+01  0.10197773863E+01 0.  0.
     999903    2    3    3    0    0 -0.61934511847E-02  0.61062337989E-01  0.11297547733E+00  0.13002690087E+00  0.19405373275E-01 0.  0.
         14    1    1    2    0    0  0.15589031509E-01  0.17205978915E-01 -0.55557812219E-02  0.23873213415E-01  0.00000000000E+00 0.  1.
     999901    1    3    3    0    0 -0.93955803241E-02 -0.78268316903E-01 -0.10741969611E+00  0.89002988572E+00  0.88000000000E+00 0.  1.
        -11    1    4    4    0    0 -0.93972005032E-04  0.32143891746E-01  0.40173901721E-01  0.51453300261E-01  0.51100000000E-03 0.  1.
         11    1    4    4    0    0 -0.60994791797E-02  0.28918446243E-01  0.72801575612E-01  0.78573600604E-01  0.51100000000E-03 0. -1.
</event>
<event>
 8    1  0.1086486E+005  0.1043930E+01  0.7957747E-01            NaN
         13   -1    0    0    0    0  0.00000000000E+00  0.00000000000E+00  0.74505805969E-08  0.10566000000E+00  0.10566000000E+00 0. -1.
     999900   -1    0    0    0    0 -0.00000000000E+00 -0.00000000000E+00 -0.74505805969E-08  0.93827000000E+00  0.93827000000E+00 0.  1.
     999902    2    1    2    0    0  0.14173745723E-01  0.16777147895E-01  0.58931374157E-02  0.10211902369E+01  0.10209370221E+01 0.  0.
     999903    2    3    3    0    0 -0.24296473088E-01 -0.11679723170E+00 -0.45849890929E-01  0.12877810471E+00  0.15801133438E-01 0.  0.
         14    1    1    2    0    0 -0.14173745723E-01 -0.16777147895E-01 -0.58931374157E-02  0.22739763145E-01  0.00000000000E+00 0.  1.
     999901    1    3    3    0    0  0.38470218811E-01  0.13357437959E+00  0.51743028345E-01  0.89241213215E+00  0.88000000000E+00 0. -1.
        -11    1    4    4    0    0 -0.19742394986E-01 -0.67484600538E-01 -0.32640858781E-01  0.77521740515E-01  0.51100000000E-03 0. -1.
         11    1    4    4    0    0 -0.45540781021E-02 -0.49312631158E-01 -0.13209032148E-01  0.51256364194E-01  0.51100000000E-03 0.  1.
</event>
<event>
 8    1  0.1086486E+005  0.1043930E+01  0.7957747E-01            NaN
         13   -1    0    0    0    0  0.00000000000E+00  0.00000000000E+00  0.74505805969E-08  0.10566000000E+00  0.10566000000E+00 0.  1.
     999900   -1    0    0    0    0 -0.00000000000E+00 -0.00000000000E+00 -0.74505805969E-08  0.93827000000E+00  0.93827000000E+00 0. -1.
     999902    2    1    2    0    0 -0.13612037269E-01  0.13246896868E-01 -0.13084050030E-01  0.10208657376E+01  0.10206051607E+01 0.  0.
     999903    2    3    3    0    0 -0.10430096020E+00  0.81081425498E-01  0.22064621593E-02  0.13347641842E+00  0.18926117934E-01 0.  0.
         14    1    1    2    0    0  0.13612037269E-01 -0.13246896868E-01  0.13084050030E-01  0.23064262408E-01  0.00000000000E+00 0.  1.
     999901    1    3    3    0    0  0.90688922930E-01 -0.67834528629E-01 -0.15290512189E-01  0.88738931917E+00  0.88000000000E+00 0.  1.
        -11    1    4    4    0    0 -0.57575030983E-01  0.47604261464E-01  0.10341880382E-01  0.75420590776E-01  0.51100000000E-03 0. -1.
         11    1    4    4    0    0 -0.46725929216E-01  0.33477164034E-01 -0.81354182225E-02  0.58055827645E-01  0.51100000000E-03 0.  1.
</event>
<event>
 8    1  0.1086486E+005  0.1043930E+01  0.7957747E-01            NaN
         13   -1    0    0    0    0  0.00000000000E+00  0.00000000000E+00  0.74505805969E-08  0.10566000000E+00  0.10566000000E+00 0. -1.
     999900   -1    0    0    0    0 -0.00000000000E+00 -0.00000000000E+00 -0.74505805969E-08  0.93827000000E+00  0.93827000000E+00 0.  1.
     999902    2    1    2    0    0  0.18380212378E-02 -0.93959041979E-02  0.21147612238E-01  0.10207161498E+01  0.10204521427E+01 0.  0.
     999903    2    3    3    0    0 -0.44237455954E-01 -0.95712974888E-01  0.79380129212E-01  0.13338046793E+00  0.19267024666E-01 0.  0.
         14    1    1    2    0    0 -0.18380212378E-02  0.93959041979E-02 -0.21147612238E-01  0.23213850201E-01  0.00000000000E+00 0.  1.
     999901    1    3    3    0    0  0.46075477192E-01  0.86317070690E-01 -0.58232516974E-01  0.88733568187E+00  0.88000000000E+00 0.  1.
        -11    1    4    4    0    0 -0.76460985342E-02 -0.35861310658E-01  0.32548970860E-01  0.49032571317E-01  0.51100000000E-03 0.  1.
         11    1    4    4    0    0 -0.36591357420E-01 -0.59851664229E-01  0.46831158352E-01  0.84347896609E-01  0.51100000000E-03 0. -1.
</event>
<event>
 8    1  0.1086486E+005  0.1043930E+01  0.7957747E-01            NaN
         13   -1    0    0    0    0  0.00000000000E+00  0.00000000000E+00  0.74505805969E-08  0.10566000000E+00  0.10566000000E+00 0.  1.
     999900   -1    0    0    0    0 -0.00000000000E+00 -0.00000000000E+00 -0.74505805969E-08  0.93827000000E+00  0.93827000000E+00 0. -1.
     999902    2    1    2    0    0  0.11716531919E-01  0.13939838427E-01 -0.20620409030E-01  0.10164200475E+01  0.10160476935E+01 0.  0.
     999903    2    3    3    0    0 -0.18492190172E-01 -0.12195250012E+00 -0.41600710786E-02  0.12532508218E+00  0.21787534290E-01 0.  0.
         14    1    1    2    0    0 -0.11716531919E-01 -0.13939838427E-01  0.20620409030E-01  0.27509952456E-01  0.00000000000E+00 0.  1.
     999901    1    3    3    0    0  0.30208722090E-01  0.13589233855E+00 -0.16460337951E-01  0.89109496536E+00  0.88000000000E+00 0.  1.
        -11    1    4    4    0    0 -0.21907844681E-01 -0.73988569747E-01 -0.29362142631E-02  0.77221399800E-01  0.51100000000E-03 0.  1.
         11    1    4    4    0    0  0.34156545095E-02 -0.47963930371E-01 -0.12238568155E-02  0.48103682384E-01  0.51100000000E-03 0. -1.
</event>
<event>
 8    1  0.1086486E+005  0.1043930E+01  0.7957747E-01            NaN
         13   -1    0    0    0    0  0.00000000000E+00  0.00000000000E+00  0.74505805969E-08  0.10566000000E+00  0.10566000000E+00 0.  1.
     999900   -1    0    0    0    0 -0.00000000000E+00 -0.00000000000E+00 -0.74505805969E-08  0.93827000000E+00  0.93827000000E+00 0. -1.
     999902    2    1    2    0    0 -0.15707623081E-02 -0.24111725624E-01  0.59835131807E-02  0.10190373297E+01  0.10187332498E+01 0.  0.
     999903    2    3    3    0    0  0.19673139337E-01 -0.98173620938E-01 -0.82575998941E-01  0.13124272792E+00  0.19513220395E-01 0.  0.
         14    1    1    2    0    0  0.15707623081E-02  0.24111725624E-01 -0.59835131807E-02  0.24892670343E-01  0.00000000000E+00 0.  1.
     999901    1    3    3    0    0 -0.21243901645E-01  0.74061895313E-01  0.88559512122E-01  0.88779460174E+00  0.88000000000E+00 0. -1.
        -11    1    4    4    0    0  0.16066643858E-01 -0.41898522861E-01 -0.44499503964E-01  0.63198815154E-01  0.51100000000E-03 0.  1.
         11    1    4    4    0    0  0.36064954783E-02 -0.56275098077E-01 -0.38076494977E-01  0.68043912761E-01  0.51100000000E-03 0. -1.
</event>
<event>
 8    1  0.1086486E+005  0.1043930E+01  0.7957747E-01            NaN
         13   -1    0    0    0    0  0.00000000000E+00  0.00000000000E+00  0.74505805969E-08  0.10566000000E+00  0.10566000000E+00 0.  1.
     999900   -1    0    0    0    0 -0.00000000000E+00 -0.00000000000E+00 -0.74505805969E-08  0.93827000000E+00  0.93827000000E+00 0.  1.
     999902    2    1    2    0    0 -0.19266264842E-01  0.10707387857E-01 -0.93284369242E-02  0.10199955718E+01  0.10197147198E+01 0.  0.
     999903    2    3    3    0    0 -0.69414679682E-01  0.61973990797E-01  0.90494979980E-01  0.13145303339E+00  0.20769816904E-01 0.  0.
         14    1    1    2    0    0  0.19266264842E-01 -0.10707387857E-01  0.93284369242E-02  0.23934428156E-01  0.00000000000E+00 0. -1.
     999901    1    3    3    0    0  0.50148414840E-01 -0.51266602939E-01 -0.99823416904E-01  0.88854253846E+00  0.88000000000E+00 0.  1.
        -11    1    4    4    0    0 -0.54244880714E-01  0.41729483904E-01  0.54678733102E-01  0.87600695689E-01  0.51100000000E-03 0. -1.
         11    1    4    4    0    0 -0.15169798967E-01  0.20244506892E-01  0.35816246878E-01  0.43852337697E-01  0.51100000000E-03 0.  1.
</event>
<event>
 8    1  0.1086486E+005  0.1043930E+01  0.7957747E-01            NaN
         13   -1    0    0    0    0  0.00000000000E+00  0.00000000000E+00  0.74505805969E-08  0.10566000000E+00  0.10566000000E+00 0.  1.
     999900   -1    0    0    0    0 -0.00000000000E+00 -0.00000000000E+00 -0.74505805969E-08  0.93827000000E+00  0.93827000000E+00 0. -1.
     999902    2    1    2    0    0 -0.89139267482E-02  0.91610108571E-02 -0.20371832267E-01  0.10198801817E+01  0.10195965826E+01 0.  0.
     999903    2    3    3    0    0 -0.85925857938E-01  0.70104304485E-01 -0.70729552357E-01  0.13298626327E+00  0.19616576485E-01 0.  0.
         14    1    1    2    0    0  0.89139267482E-02 -0.91610108571E-02  0.20371832267E-01  0.24049818292E-01  0.00000000000E+00 0.  1.
     999901    1    3    3    0    0  0.77011931189E-01 -0.60943293628E-01  0.50357720090E-01  0.88689391843E+00  0.88000000000E+00 0.  1.
        -11    1    4    4    0    0 -0.25347445608E-01  0.29103441637E-01 -0.16751581082E-01  0.42075882685E-01  0.51100000000E-03 0. -1.
         11    1    4    4    0    0 -0.60578412330E-01  0.41000862849E-01 -0.53977971275E-01  0.90910380588E-01  0.51100000000E-03 0.  1.
</event>
<event>
 8    1  0.1086486E+005  0.1043930E+01  0.7957747E-01            NaN
         13   -1    0    0    0    0  0.00000000000E+00  0.00000000000E+00  0.74505805969E-08  0.10566000000E+00  0.10566000000E+00 0. -1.
     999900   -1    0    0    0    0 -0.00000000000E+00 -0.00000000000E+00 -0.74505805969E-08  0.93827000000E+00  0.93827000000E+00 0.  1.
     999902    2    1    2    0    0  0.47119733350E-02 -0.20528184491E-01 -0.11615094572E-01  0.10198775682E+01  0.10195939068E+01 0.  0.
     999903    2    3    3    0    0 -0.69718243897E-01  0.82943656203E-01 -0.66266119350E-01  0.12901674098E+00  0.22667978363E-01 0.  0.
         14    1    1    2    0    0 -0.47119733350E-02  0.20528184491E-01  0.11615094572E-01  0.24052431750E-01  0.00000000000E+00 0.  1.
     999901    1    3    3    0    0  0.74430217232E-01 -0.10347184069E+00  0.54651024779E-01  0.89086082727E+00  0.88000000000E+00 0. -1.
        -11    1    4    4    0    0 -0.39210337368E-01  0.46270607125E-01 -0.23823620065E-01  0.65163223019E-01  0.51100000000E-03 0.  1.
         11    1    4    4    0    0 -0.30507906529E-01  0.36673049078E-01 -0.42442499286E-01  0.63853517962E-01  0.51100000000E-03 0. -1.
</event>
<event>
 8    1  0.1086486E+005  0.1043930E+01  0.7957747E-01            NaN
         13   -1    0    0    0    0  0.00000000000E+00  0.00000000000E+00  0.74505805969E-08  0.10566000000E+00  0.10566000000E+00 0.  1.
     999900   -1    0    0    0    0 -0.00000000000E+00 -0.00000000000E+00 -0.74505805969E-08  0.93827000000E+00  0.93827000000E+00 0.  1.
     999902    2    1    2    0    0  0.13574034711E-01  0.17356175118E-03 -0.19534682994E-01  0.10201415914E+01  0.10198641960E+01 0.  0.
     999903    2    3    3    0    0  0.12201526110E+00 -0.26828153369E-02 -0.48963665888E-01  0.13299237992E+00  0.19864820666E-01 0.  0.
         14    1    1    2    0    0 -0.13574034711E-01 -0.17356175118E-03  0.19534682994E-01  0.23788408558E-01  0.00000000000E+00 0.  1.
     999901    1    3    3    0    0 -0.10844122639E+00  0.28563770881E-02  0.29428982893E-01  0.88714921152E+00  0.88000000000E+00 0. -1.
        -11    1    4    4    0    0  0.50635967812E-01 -0.99505273158E-02 -0.25022882690E-01  0.57353465538E-01  0.51100000000E-03 0. -1.
         11    1    4    4    0    0  0.71379293288E-01  0.72677119788E-02 -0.23940783198E-01  0.75638914382E-01  0.51100000000E-03 0.  1.
</event>
<event>
 8    1  0.1086486E+005  0.1043930E+01  0.7957747E-01            NaN
         13   -1    0    0    0    0  0.00000000000E+00  0.00000000000E+00  0.74505805969E-08  0.10566000000E+00  0.10566000000E+00 0.  1.
     999900   -1    0    0    0    0 -0.00000000000E+00 -0.00000000000E+00 -0.74505805969E-08  0.93827000000E+00  0.93827000000E+00 0.  1.
     999902    2    1    2    0    0 -0.13962093802E-02 -0.21801745072E-01  0.83514908249E-02  0.10205416934E+01  0.10202736569E+01 0.  0.
     999903    2    3    3    0    0  0.89242422814E-01 -0.28302276221E-01 -0.88719282419E-01  0.13055273074E+00  0.20190977253E-01 0.  0.
         14    1    1    2    0    0  0.13962093802E-02  0.21801745072E-01 -0.83514908249E-02  0.23388306647E-01  0.00000000000E+00 0. -1.
     999901    1    3    3    0    0 -0.90638632194E-01  0.65005311494E-02  0.97070773243E-01  0.88998896261E+00  0.88000000000E+00 0. -1.
        -11    1    4    4    0    0  0.36170013643E-01 -0.90875128432E-02 -0.48782724128E-01  0.61407394270E-01  0.51100000000E-03 0. -1.
         11    1    4    4    0    0  0.53072409170E-01 -0.19214763378E-01 -0.39936558290E-01  0.69145336472E-01  0.51100000000E-03 0.  1.
</event>
<event>
 8    1  0.1086486E+005  0.1043930E+01  0.7957747E-01            NaN
         13   -1    0    0    0    0  0.00000000000E+00  0.00000000000E+00  0.74505805969E-08  0.10566000000E+00  0.10566000000E+00 0.  1.
     999900   -1    0    0    0    0 -0.00000000000E+00 -0.00000000000E+00 -0.74505805969E-08  0.93827000000E+00  0.93827000000E+00 0.  1.
     999902    2    1    2    0    0 -0.77427445102E-02  0.19795460335E-01 -0.92768723126E-02  0.10207379604E+01  0.10204744549E+01 0.  0.
     999903    2    3    3    0    0 -0.25346763006E-01  0.95661864686E-01 -0.87604050110E-01  0.13383280221E+00  0.21049907429E-01 0.  0.
         14    1    1    2    0    0  0.77427445102E-02 -0.19795460335E-01  0.92768723126E-02  0.23192039633E-01  0.00000000000E+00 0. -1.
     999901    1    3    3    0    0  0.17604018496E-01 -0.75866404351E-01  0.78327177797E-01  0.88690515815E+00  0.88000000000E+00 0. -1.
        -11    1    4    4    0    0 -0.26624465663E-01  0.62670965561E-01 -0.61198390992E-01  0.91553352081E-01  0.51100000000E-03 0. -1.
         11    1    4    4    0    0  0.12777026570E-02  0.32990899125E-01 -0.26405659118E-01  0.42279450134E-01  0.51100000000E-03 0.  1.
</event>
<event>
 8    1  0.1086486E+005  0.1043930E+01  0.7957747E-01            NaN
         13   -1    0    0    0    0  0.00000000000E+00  0.00000000000E+00  0.74505805969E-08  0.10566000000E+00  0.10566000000E+00 0.  1.
     999900   -1    0    0    0    0 -0.00000000000E+00 -0.00000000000E+00 -0.74505805969E-08  0.93827000000E+00  0.93827000000E+00 0. -1.
     999902    2    1    2    0    0  0.84456166777E-02  0.14408685301E-02  0.21996770079E-01  0.10203235933E+01  0.10200504755E+01 0.  0.
     999903    2    3    3    0    0  0.52844973006E-01  0.14238336180E-02  0.12105757841E+00  0.13365322226E+00  0.20337847912E-01 0.  0.
         14    1    1    2    0    0 -0.84456166777E-02 -0.14408685301E-02 -0.21996770079E-01  0.23606406696E-01  0.00000000000E+00 0. -1.
     999901    1    3    3    0    0 -0.44399356329E-01  0.17034912089E-04 -0.99060808328E-01  0.88667037104E+00  0.88000000000E+00 0. -1.
        -11    1    4    4    0    0  0.43414673612E-01 -0.84152690580E-03  0.75734952501E-01  0.87301696454E-01  0.51100000000E-03 0.  1.
         11    1    4    4    0    0  0.94302993940E-02  0.22653605238E-02  0.45322625905E-01  0.46351525810E-01  0.51100000000E-03 0. -1.
</event>
<event>
 8    1  0.1086486E+005  0.1043930E+01  0.7957747E-01            NaN
         13   -1    0    0    0    0  0.00000000000E+00  0.00000000000E+00  0.74505805969E-08  0.10566000000E+00  0.10566000000E+00 0.  1.
     999900   -1    0    0    0    0 -0.00000000000E+00 -0.00000000000E+00 -0.74505805969E-08  0.93827000000E+00  0.93827000000E+00 0.  1.
     999902    2    1    2    0    0 -0.16517902134E-02  0.89921091598E-03  0.23669181815E-01  0.10201862185E+01  0.10199098751E+01 0.  0.
     999903    2    3    3    0    0  0.51011940683E-01 -0.12694373632E-01 -0.11444138040E+00  0.12775539123E+00  0.21476620469E-01 0.  0.
         14    1    1    2    0    0  0.16517902134E-02 -0.89921091598E-03 -0.23669181815E-01  0.23743781480E-01  0.00000000000E+00 0. -1.
     999901    1    3    3    0    0 -0.52663730896E-01  0.13593584548E-01  0.13811056222E+00  0.89243082729E+00  0.88000000000E+00 0. -1.
        -11    1    4    4    0    0  0.12339744920E-01 -0.33598664952E-02 -0.53252260769E-01  0.54768808692E-01  0.51100000000E-03 0.  1.
         11    1    4    4    0    0  0.38672195763E-01 -0.93345071365E-02 -0.61189119634E-01  0.72986582542E-01  0.51100000000E-03 0. -1.
</event>
<event>
 8    1  0.1086486E+005  0.1043930E+01  0.7957747E-01            NaN
         13   -1    0    0    0    0  0.00000000000E+00  0.00000000000E+00  0.74505805969E-08  0.10566000000E+00  0.10566000000E+00 0. -1.
     999900   -1    0    0    0    0 -0.00000000000E+00 -0.00000000000E+00 -0.74505805969E-08  0.93827000000E+00  0.93827000000E+00 0.  1.
     999902    2    1    2    0    0 -0.28662294262E-02  0.22928228867E-01 -0.64771023560E-02  0.10199326709E+01  0.10196503231E+01 0.  0.
     999903    2    3    3    0    0 -0.34198021927E-01 -0.11144179489E+00  0.47834382068E-01  0.12752764969E+00  0.19656931957E-01 0.  0.
         14    1    1    2    0    0  0.28662294262E-02 -0.22928228867E-01  0.64771023560E-02  0.23997329122E-01  0.00000000000E+00 0.  1.
     999901    1    3    3    0    0  0.31331792500E-01  0.13437002376E+00 -0.54311484424E-01  0.89240502119E+00  0.88000000000E+00 0.  1.
        -11    1    4    4    0    0 -0.34984791079E-01 -0.89502507886E-01  0.36322045932E-01  0.10273357127E+00  0.51100000000E-03 0. -1.
         11    1    4    4    0    0  0.78676915199E-03 -0.21939287007E-01  0.11512336136E-01  0.24794078414E-01  0.51100000000E-03 0.  1.
</event>
<event>
 7    1  0.1086486E+005  0.1043930E+01  0.7957747E-01            NaN
         13   -1    0    0    0    0  0.00000000000E+00  0.00000000000E+00  0.74505805969E-08  0.10566000000E+00  0.10566000000E+00 0. -1.
     999900   -1    0    0    0    0 -0.00000000000E+00 -0.00000000000E+00 -0.74505805969E-08  0.93827000000E+00  0.93827000000E+00 0.  1.
     999902    2    1    2    0    0 -0.41580731524E-02  0.17193013445E-01 -0.17884085167E-01  0.10187758793E+01  0.10184652977E+01 0.  0.
         14    1    1    2    0    0  0.41580731524E-02 -0.17193013445E-01  0.17884085167E-01  0.25154120655E-01  0.00000000000E+00 0. -1.
     999901    1    3    3    0    0 -0.25416968135E-01 -0.71857829746E-01 -0.10133137259E+00  0.88908808171E+00  0.88000000000E+00 0. -1.
        -11    1    3    3    0    0 -0.91436145283E-02  0.13064294856E-01  0.22774780378E-01  0.27807071565E-01  0.51100000000E-03 0.  1.
         11    1    3    3    0    0  0.30402509511E-01  0.75986548336E-01  0.60672507047E-01  0.10188072607E+00  0.51100000000E-03 0. -1.
</event>
<event>
 8    1  0.1086486E+005  0.1043930E+01  0.7957747E-01            NaN
         13   -1    0    0    0    0  0.00000000000E+00  0.00000000000E+00  0.74505805969E-08  0.10566000000E+00  0.10566000000E+00 0.  1.
     999900   -1    0    0    0    0 -0.00000000000E+00 -0.00000000000E+00 -0.74505805969E-08  0.93827000000E+00  0.93827000000E+00 0. -1.
     999902    2    1    2    0    0 -0.19793368531E-01  0.20366763277E-02 -0.13525182367E-01  0.10198705726E+01  0.10195867441E+01 0.  0.
     999903    2    3    3    0    0  0.11386085005E-01 -0.11431499874E+00  0.54034838195E-01  0.12909886954E+00  0.23434856681E-01 0.  0.
         14    1    1    2    0    0  0.19793368531E-01 -0.20366763277E-02  0.13525182367E-01  0.24059427390E-01  0.00000000000E+00 0.  1.
     999901    1    3    3    0    0 -0.31179453536E-01  0.11635167507E+00 -0.67560020562E-01  0.89077170307E+00  0.88000000000E+00 0. -1.
        -11    1    4    4    0    0 -0.28855863478E-02 -0.60752931322E-01  0.19888102680E-01  0.63992523173E-01  0.51100000000E-03 0.  1.
         11    1    4    4    0    0  0.14271671353E-01 -0.53562067422E-01  0.34146735515E-01  0.65106346366E-01  0.51100000000E-03 0. -1.
</event>
<event>
 8    1  0.1086486E+005  0.1043930E+01  0.7957747E-01            NaN
         13   -1    0    0    0    0  0.00000000000E+00  0.00000000000E+00  0.74505805969E-08  0.10566000000E+00  0.10566000000E+00 0.  1.
     999900   -1    0    0    0    0 -0.00000000000E+00 -0.00000000000E+00 -0.74505805969E-08  0.93827000000E+00  0.93827000000E+00 0.  1.
     999902    2    1    2    0    0 -0.19964367756E-01  0.12029326347E-01  0.28327889788E-02  0.10204501072E+01  0.10201799429E+01 0.  0.
     999903    2    3    3    0    0  0.50603067765E-01  0.11353502856E+00 -0.35976399521E-01  0.13096187027E+00  0.20145395637E-01 0.  0.
         14    1    1    2    0    0  0.19964367756E-01 -0.12029326347E-01 -0.28327889788E-02  0.23479892795E-01  0.00000000000E+00 0.  1.
     999901    1    3    3    0    0 -0.70567435521E-01 -0.10150570221E+00  0.38809188500E-01  0.88948823694E+00  0.88000000000E+00 0. -1.
        -11    1    4    4    0    0  0.24412878557E-01  0.53236563185E-01 -0.27401530971E-01  0.64662394943E-01  0.51100000000E-03 0.  1.
         11    1    4    4    0    0  0.26190189208E-01  0.60298465370E-01 -0.85748685500E-02  0.66299475325E-01  0.51100000000E-03 0. -1.
</event>
<event>
 8    1  0.1086486E+005  0.1043930E+01  0.7957747E-01            NaN
         13   -1    0    0    0    0  0.00000000000E+00  0.00000000000E+00  0.74505805969E-08  0.10566000000E+00  0.10566000000E+00 0.  1.
     999900   -1    0    0    0    0 -0.00000000000E+00 -0.00000000000E+00 -0.74505805969E-08  0.93827000000E+00  0.93827000000E+00 0.  1.
     999902    2    1    2    0    0  0.14612543863E-01  0.17631647651E-01 -0.59785251739E-02  0.10202626343E+01  0.10199880875E+01 0.  0.
     999903    2    3    3    0    0  0.10021907677E+00 -0.41185218810E-01 -0.71988935410E-01  0.13169903131E+00  0.20546104990E-01 0.  0.
         14    1    1    2    0    0 -0.14612543863E-01 -0.17631647651E-01  0.59785251739E-02  0.23667365723E-01  0.00000000000E+00 0.  1.
     999901    1    3    3    0    0 -0.85606532904E-01  0.58816866460E-01  0.66010410236E-01  0.88856360297E+00  0.88000000000E+00 0. -1.
        -11    1    4    4    0    0  0.53771859916E-01 -0.28093013637E-01 -0.29780120580E-01  0.67585109579E-01  0.51100000000E-03 0.  1.
         11    1    4    4    0    0  0.46447216851E-01 -0.13092205173E-01 -0.42208814829E-01  0.64113921731E-01  0.51100000000E-03 0. -1.
</event>
<event>
 8    1  0.1086486E+005  0.1043930E+01  0.7957747E-01            NaN
         13   -1    0    0    0    0  0.00000000000E+00  0.00000000000E+00  0.74505805969E-08  0.10566000000E+00  0.10566000000E+00 0.  1.
     999900   -1    0    0    0    0 -0.00000000000E+00 -0.00000000000E+00 -0.74505805969E-08  0.93827000000E+00  0.93827000000E+00 0.  1.
     999902    2    1    2    0    0  0.22832415928E-02  0.17286722633E-01  0.15689259422E-01  0.10204737251E+01  0.10202041103E+01 0.  0.
     999903    2    3    3    0    0  0.87957480921E-01 -0.92335588356E-01 -0.68665365383E-02  0.12925776345E+00  0.19950958877E-01 0.  0.
         14    1    1    2    0    0 -0.22832415928E-02 -0.17286722633E-01 -0.15689259422E-01  0.23456274913E-01  0.00000000000E+00 0. -1.
     999901    1    3    3    0    0 -0.85674239328E-01  0.10962231099E+00  0.22555795960E-01  0.89121596164E+00  0.88000000000E+00 0.  1.
        -11    1    4    4    0    0  0.34213844303E-01 -0.23382019251E-01  0.11992509870E-02  0.41460888680E-01  0.51100000000E-03 0.  1.
         11    1    4    4    0    0  0.53743636618E-01 -0.68953569106E-01 -0.80657875253E-02  0.87796874766E-01  0.51100000000E-03 0. -1.
</event>
<event>
 8    1  0.1086486E+005  0.1043930E+01  0.7957747E-01            NaN
         13   -1    0    0    0    0  0.00000000000E+00  0.00000000000E+00  0.74505805969E-08  0.10566000000E+00  0.10566000000E+00 0. -1.
     999900   -1    0    0    0    0 -0.00000000000E+00 -0.00000000000E+00 -0.74505805969E-08  0.93827000000E+00  0.93827000000E+00 0.  1.
     999902    2    1    2    0    0 -0.19183999655E-01 -0.10051675969E-01  0.89127031232E-02  0.10205099592E+01  0.10202411865E+01 0.  0.
     999903    2    3    3    0    0  0.72324441558E-01 -0.10023858708E+00 -0.34536698092E-01  0.13011941334E+00  0.21440126561E-01 0.  0.
         14    1    1    2    0    0  0.19183999655E-01  0.10051675969E-01 -0.89127031232E-02  0.23420040767E-01  0.00000000000E+00 0.  1.
     999901    1    3    3    0    0 -0.91508441213E-01  0.90186911110E-01  0.43449401215E-01  0.89039054589E+00  0.88000000000E+00 0. -1.
        -11    1    4    4    0    0  0.42732505013E-01 -0.42607943818E-01 -0.12023749125E-01  0.61533206686E-01  0.51100000000E-03 0.  1.
         11    1    4    4    0    0  0.29591936545E-01 -0.57630643260E-01 -0.22512948966E-01  0.68586206654E-01  0.51100000000E-03 0. -1.
</event>
<event>
 8    1  0.1086486E+005  0.1043930E+01  0.7957747E-01            NaN
         13   -1    0    0    0    0  0.00000000000E+00  0.00000000000E+00  0.74505805969E-08  0.10566000000E+00  0.10566000000E+00 0. -1.
     999900   -1    0    0    0    0 -0.00000000000E+00 -0.00000000000E+00 -0.74505805969E-08  0.93827000000E+00  0.93827000000E+00 0.  1.
     999902    2    1    2    0    0 -0.11366057923E-01  0.11880872555E-01  0.11684488840E-01  0.10237589890E+01  0.10235602561E+01 0.  0.
     999903    2    3    3    0    0  0.80416287819E-02 -0.93444616420E-01 -0.89791578985E-01  0.13147679750E+00  0.20665345186E-01 0.  0.
         14    1    1    2    0    0  0.11366057923E-01 -0.11880872555E-01 -0.11684488840E-01  0.20171011002E-01  0.00000000000E+00 0.  1.
     999901    1    3    3    0    0 -0.19407686705E-01  0.10532548898E+00  0.10147606782E+00  0.89228219150E+00  0.88000000000E+00 0. -1.
        -11    1    4    4    0    0 -0.41352551196E-02 -0.61646644309E-01 -0.53786484205E-01  0.81918594309E-01  0.51100000000E-03 0.  1.
         11    1    4    4    0    0  0.12176883902E-01 -0.31797972111E-01 -0.36005094780E-01  0.49558203186E-01  0.51100000000E-03 0. -1.
</event>
<event>
 8    1  0.1086486E+005  0.1043930E+01  0.7957747E-01            NaN
         13   -1    0    0    0    0  0.00000000000E+00  0.00000000000E+00  0.74505805969E-08  0.10566000000E+00  0.10566000000E+00 0.  1.
     999900   -1    0    0    0    0 -0.00000000000E+00 -0.00000000000E+00 -0.74505805969E-08  0.93827000000E+00  0.93827000000E+00 0.  1.
     999902    2    1    2    0    0  0.70468086507E-02  0.12258003025E-01 -0.18848481592E-01  0.10203677122E+01  0.10200956262E+01 0.  0.
     999903    2    3    3    0    0 -0.15454148890E-01 -0.93390897335E-01  0.83750373731E-01  0.12784627916E+00  0.19231629469E-01 0.  0.
         14    1    1    2    0    0 -0.70468086507E-02 -0.12258003025E-01  0.18848481592E-01  0.23562287848E-01  0.00000000000E+00 0.  1.
     999901    1    3    3    0    0  0.22500957541E-01  0.10564890036E+00 -0.10259885532E+00  0.89252143299E+00  0.88000000000E+00 0.  1.
        -11    1    4    4    0    0 -0.55923824266E-02 -0.34208582374E-01  0.43374006528E-01  0.55525376294E-01  0.51100000000E-03 0.  1.
         11    1    4    4    0    0 -0.98617664633E-02 -0.59182314960E-01  0.40376367203E-01  0.72320902866E-01  0.51100000000E-03 0. -1.
</event>
<event>
 8    1  0.1086486E+005  0.1043930E+01  0.7957747E-01            NaN
         13   -1    0    0    0    0  0.00000000000E+00  0.00000000000E+00  0.74505805969E-08  0.10566000000E+00  0.10566000000E+00 0.  1.
     999900   -1    0    0    0    0 -0.00000000000E+00 -0.00000000000E+00 -0.74505805969E-08  0.93827000000E+00  0.93827000000E+00 0. -1.
     999902    2    1    2    0    0 -0.10668242950E-01 -0.14387995813E-01  0.13751815338E-01  0.10213481875E+01  0.10210985172E+01 0.  0.
     999903    2    3    3    0    0  0.63782576819E-01  0.10765179668E+00  0.27831012571E-01  0.12970091457E+00  0.19764502159E-01 0.  0.
         14    1    1    2    0    0  0.10668242950E-01  0.14387995813E-01 -0.13751815338E-01  0.22581812510E-01  0.00000000000E+00 0. -1.
     999901    1    3    3    0    0 -0.74450819770E-01 -0.12203979249E+00 -0.14079197233E-01  0.89164727292E+00  0.88000000000E+00 0. -1.
        -11    1    4    4    0    0  0.29274656838E-01  0.59331321639E-01  0.59941950081E-02  0.66433446058E-01  0.51100000000E-03 0. -1.
         11    1    4    4    0    0  0.34507919982E-01  0.48320475037E-01  0.21836817563E-01  0.63267468509E-01  0.51100000000E-03 0.  1.
</event>
<event>
 8    1  0.1086486E+005  0.1043930E+01  0.7957747E-01            NaN
         13   -1    0    0    0    0  0.00000000000E+00  0.00000000000E+00  0.74505805969E-08  0.10566000000E+00  0.10566000000E+00 0.  1.
     999900   -1    0    0    0    0 -0.00000000000E+00 -0.00000000000E+00 -0.74505805969E-08  0.93827000000E+00  0.93827000000E+00 0.  1.
     999902    2    1    2    0    0 -0.51263541814E-02 -0.11454072090E-01 -0.22748446844E-01  0.10179498709E+01  0.10176182843E+01 0.  0.
     999903    2    3    3    0    0  0.73189599209E-01  0.95383934068E-01 -0.38828016337E-01  0.12789015342E+00  0.19835931485E-01 0.  0.
         14    1    1    2    0    0  0.51263541814E-02  0.11454072090E-01  0.22748446844E-01  0.25980129108E-01  0.00000000000E+00 0.  1.
     999901    1    3    3    0    0 -0.78315953391E-01 -0.10683800616E+00  0.16079569492E-01  0.89005971747E+00  0.88000000000E+00 0. -1.
        -11    1    4    4    0    0  0.63732971641E-01  0.91447067401E-01 -0.33869862342E-01  0.11649843993E+00  0.51100000000E-03 0.  1.
         11    1    4    4    0    0  0.94566275682E-02  0.39368666674E-02 -0.49581539948E-02  0.11391713486E-01  0.51100000000E-03 0. -1.
</event>
<event>
 7    1  0.1086486E+005  0.1043930E+01  0.7957747E-01            NaN
         13   -1    0    0    0    0  0.00000000000E+00  0.00000000000E+00  0.74505805969E-08  0.10566000000E+00  0.10566000000E+00 0. -1.
     999900   -1    0    0    0    0 -0.00000000000E+00 -0.00000000000E+00 -0.74505805969E-08  0.93827000000E+00  0.93827000000E+00 0.  1.
     999902    2    1    2    0    0 -0.15120127263E-01 -0.82696118949E-02 -0.15445338620E-01  0.10207877612E+01  0.10205253991E+01 0.  0.
         14    1    1    2    0    0  0.15120127263E-01  0.82696118949E-02  0.15445338620E-01  0.23142238751E-01  0.00000000000E+00 0. -1.
     999901    1    3    3    0    0  0.70676933802E-01  0.43904431853E-01  0.65949535061E-01  0.88638150324E+00  0.88000000000E+00 0. -1.
        -11    1    3    3    0    0 -0.47406906089E-01 -0.46726939341E-01 -0.39883142450E-01  0.77599921248E-01  0.51100000000E-03 0.  1.
         11    1    3    3    0    0 -0.38390154976E-01 -0.54471044070E-02 -0.41511731231E-01  0.56806336762E-01  0.51100000000E-03 0. -1.
</event>
<event>
 8    1  0.1086486E+005  0.1043930E+01  0.7957747E-01            NaN
         13   -1    0    0    0    0  0.00000000000E+00  0.00000000000E+00  0.74505805969E-08  0.10566000000E+00  0.10566000000E+00 0.  1.
     999900   -1    0    0    0    0 -0.00000000000E+00 -0.00000000000E+00 -0.74505805969E-08  0.93827000000E+00  0.93827000000E+00 0.  1.
     999902    2    1    2    0    0  0.18555512177E-01  0.48227628713E-02 -0.34380649526E-03  0.10247549048E+01  0.10245754880E+01 0.  0.
     999903    2    3    3    0    0  0.99497486431E-01  0.26019030519E-01 -0.87597928837E-01  0.13649021066E+00  0.19479237997E-01 0.  0.
         14    1    1    2    0    0 -0.18555512177E-01 -0.48227628713E-02  0.34380649526E-03  0.19175095222E-01  0.00000000000E+00 0.  1.
     999901    1    3    3    0    0 -0.80941974254E-01 -0.21196267648E-01  0.87254122342E-01  0.88826469412E+00  0.88000000000E+00 0. -1.
        -11    1    4    4    0    0  0.35011653559E-01  0.20043524423E-02 -0.37682663916E-01  0.51478904363E-01  0.51100000000E-03 0.  1.
         11    1    4    4    0    0  0.64485832872E-01  0.24014678077E-01 -0.49915264922E-01  0.85011306293E-01  0.51100000000E-03 0. -1.
</event>
<event>
 8    1  0.1086486E+005  0.1043930E+01  0.7957747E-01            NaN
         13   -1    0    0    0    0  0.00000000000E+00  0.00000000000E+00  0.74505805969E-08  0.10566000000E+00  0.10566000000E+00 0. -1.
     999900   -1    0    0    0    0 -0.00000000000E+00 -0.00000000000E+00 -0.74505805969E-08  0.93827000000E+00  0.93827000000E+00 0. -1.
     999902    2    1    2    0    0  0.28161747751E-02 -0.23837835418E-01  0.11822127992E-01  0.10171730206E+01  0.10168210353E+01 0.  0.
     999903    2    3    3    0    0 -0.91217402736E-01  0.69499082690E-01 -0.46478386060E-01  0.12534734034E+00  0.20024442655E-01 0.  0.
         14    1    1    2    0    0 -0.28161747751E-02  0.23837835418E-01 -0.11822127992E-01  0.26756979426E-01  0.00000000000E+00 0.  1.
     999901    1    3    3    0    0  0.94033577511E-01 -0.93336918107E-01  0.58300514052E-01  0.89182568023E+00  0.88000000000E+00 0.  1.
        -11    1    4    4    0    0 -0.20303743139E-01  0.61272448230E-02 -0.65714658110E-02  0.22208791018E-01  0.51100000000E-03 0. -1.
         11    1    4    4    0    0 -0.70913659596E-01  0.63371837866E-01 -0.39906920249E-01  0.10313854932E+00  0.51100000000E-03 0.  1.
</event>
<event>
 8    1  0.1086486E+005  0.1043930E+01  0.7957747E-01            NaN
         13   -1    0    0    0    0  0.00000000000E+00  0.00000000000E+00  0.74505805969E-08  0.10566000000E+00  0.10566000000E+00 0. -1.
     999900   -1    0    0    0    0 -0.00000000000E+00 -0.00000000000E+00 -0.74505805969E-08  0.93827000000E+00  0.93827000000E+00 0.  1.
     999902    2    1    2    0    0  0.14110959500E-01 -0.15024302479E-01 -0.10834471974E-01  0.10206440681E+01  0.10203783999E+01 0.  0.
     999903    2    3    3    0    0 -0.74104741144E-01 -0.36945565995E-01 -0.10009811682E+00  0.13146998504E+00  0.20204862534E-01 0.  0.
         14    1    1    2    0    0 -0.14110959500E-01  0.15024302479E-01  0.10834471974E-01  0.23285931932E-01  0.00000000000E+00 0.  1.
     999901    1    3    3    0    0  0.88215700643E-01  0.21921263517E-01  0.89263644843E-01  0.88917408303E+00  0.88000000000E+00 0. -1.
        -11    1    4    4    0    0 -0.47208610143E-01 -0.20546266856E-01 -0.46922941279E-01  0.69662224287E-01  0.51100000000E-03 0.  1.
         11    1    4    4    0    0 -0.26896131001E-01 -0.16399299139E-01 -0.53175175538E-01  0.61807760755E-01  0.51100000000E-03 0. -1.
</event>
<event>
 8    1  0.1086486E+005  0.1043930E+01  0.7957747E-01            NaN
         13   -1    0    0    0    0  0.00000000000E+00  0.00000000000E+00  0.74505805969E-08  0.10566000000E+00  0.10566000000E+00 0.  1.
     999900   -1    0    0    0    0 -0.00000000000E+00 -0.00000000000E+00 -0.74505805969E-08  0.93827000000E+00  0.93827000000E+00 0. -1.
     999902    2    1    2    0    0 -0.19412838292E-01 -0.10296344886E-01 -0.10953058741E-01  0.10193771488E+01  0.10190814143E+01 0.  0.
     999903    2    3    3    0    0  0.79810083113E-01  0.82300552262E-01  0.48994083102E-01  0.12695738580E+00  0.23973472025E-01 0.  0.
         14    1    1    2    0    0  0.19412838292E-01  0.10296344886E-01  0.10953058741E-01  0.24552851247E-01  0.00000000000E+00 0. -1.
     999901    1    3    3    0    0 -0.99222921406E-01 -0.92596897148E-01 -0.59947141843E-01  0.89241976295E+00  0.88000000000E+00 0. -1.
        -11    1    4    4    0    0  0.20882518335E-01  0.31944615325E-01  0.70198320276E-02  0.38808210252E-01  0.51100000000E-03 0.  1.
         11    1    4    4    0    0  0.58927564778E-01  0.50355936937E-01  0.41974251074E-01  0.88149175548E-01  0.51100000000E-03 0. -1.
</event>
<event>
 7    1  0.1086486E+005  0.1043930E+01  0.7957747E-01            NaN
         13   -1    0    0    0    0  0.00000000000E+00  0.00000000000E+00  0.74505805969E-08  0.10566000000E+00  0.10566000000E+00 0. -1.
     999900   -1    0    0    0    0 -0.00000000000E+00 -0.00000000000E+00 -0.74505805969E-08  0.93827000000E+00  0.93827000000E+00 0.  1.
     999902    2    1    2    0    0 -0.45477902196E-02 -0.76663093743E-02  0.22201415989E-01  0.10200060044E+01  0.10197254000E+01 0.  0.
         14    1    1    2    0    0  0.45477902196E-02  0.76663093743E-02 -0.22201415989E-01  0.23923995637E-01  0.00000000000E+00 0.  1.
     999901    1    3    3    0    0  0.67537709600E-01 -0.10914851089E+00  0.44876366201E-02  0.88932270776E+00  0.88000000000E+00 0. -1.
        -11    1    3    3    0    0 -0.46657876378E-01  0.53511538628E-01 -0.63758744232E-02  0.71283624278E-01  0.51100000000E-03 0. -1.
         11    1    3    3    0    0 -0.25427623441E-01  0.47970662891E-01  0.24089653792E-01  0.59399672330E-01  0.51100000000E-03 0.  1.
</event>
<event>
 8    1  0.1086486E+005  0.1043930E+01  0.7957747E-01            NaN
         13   -1    0    0    0    0  0.00000000000E+00  0.00000000000E+00  0.74505805969E-08  0.10566000000E+00  0.10566000000E+00 0.  1.
     999900   -1    0    0    0    0 -0.00000000000E+00 -0.00000000000E+00 -0.74505805969E-08  0.93827000000E+00  0.93827000000E+00 0. -1.
     999902    2    1    2    0    0 -0.67530557586E-02 -0.15339619685E-01 -0.16691446215E-01  0.10202759925E+01  0.10200017592E+01 0.  0.
     999903    2    3    3    0    0  0.31342587112E-01 -0.53378772834E-01  0.11299599865E+00  0.12914351720E+00  0.88487947269E-02 0.  0.
         14    1    1    2    0    0  0.67530557586E-02  0.15339619685E-01  0.16691446215E-01  0.23654007502E-01  0.00000000000E+00 0.  1.
     999901    1    3    3    0    0 -0.38095642870E-01  0.38039153149E-01 -0.12968744486E+00  0.89113247530E+00  0.88000000000E+00 0. -1.
        -11    1    4    4    0    0  0.22268239892E-01 -0.35380238287E-01  0.67800642041E-01  0.79654403214E-01  0.51100000000E-03 0. -1.
         11    1    4    4    0    0  0.90743472201E-02 -0.17998534547E-01  0.45195356606E-01  0.49489113985E-01  0.51100000000E-03 0.  1.
</event>
<event>
 8    1  0.1086486E+005  0.1043930E+01  0.7957747E-01            NaN
         13   -1    0    0    0    0  0.00000000000E+00  0.00000000000E+00  0.74505805969E-08  0.10566000000E+00  0.10566000000E+00 0.  1.
     999900   -1    0    0    0    0 -0.00000000000E+00 -0.00000000000E+00 -0.74505805969E-08  0.93827000000E+00  0.93827000000E+00 0.  1.
     999902    2    1    2    0    0 -0.12456408256E-01 -0.15554908662E-02 -0.19678000555E-01  0.10205889340E+01  0.10203219917E+01 0.  0.
     999903    2    3    3    0    0  0.57949221594E-01  0.25328218011E-02  0.11133514740E+00  0.12809909538E+00  0.25482066674E-01 0.  0.
         14    1    1    2    0    0  0.12456408256E-01  0.15554908662E-02  0.19678000555E-01  0.23341066049E-01  0.00000000000E+00 0.  1.
     999901    1    3    3    0    0 -0.70405629850E-01 -0.40883126674E-02 -0.13101314795E+00  0.89248983857E+00  0.88000000000E+00 0.  1.
        -11    1    4    4    0    0  0.33909399284E-01 -0.76229753427E-02  0.80600823792E-01  0.87776483353E-01  0.51100000000E-03 0.  1.
         11    1    4    4    0    0  0.24039822310E-01  0.10155797144E-01  0.30734323604E-01  0.40322612028E-01  0.51100000000E-03 0. -1.
</event>
<event>
 8    1  0.1086486E+005  0.1043930E+01  0.7957747E-01            NaN
         13   -1    0    0    0    0  0.00000000000E+00  0.00000000000E+00  0.74505805969E-08  0.10566000000E+00  0.10566000000E+00 0.  1.
     999900   -1    0    0    0    0 -0.00000000000E+00 -0.00000000000E+00 -0.74505805969E-08  0.93827000000E+00  0.93827000000E+00 0.  1.
     999902    2    1    2    0    0 -0.19328051824E-01  0.82962039067E-02  0.11031678354E-01  0.10201792418E+01  0.10199027341E+01 0.  0.
     999903    2    3    3    0    0  0.45276712385E-01 -0.11874562129E+00 -0.10129869712E-02  0.12863088370E+00  0.19858873089E-01 0.  0.
         14    1    1    2    0    0  0.19328051824E-01 -0.82962039067E-02 -0.11031678354E-01  0.23750758175E-01  0.00000000000E+00 0. -1.
     999901    1    3    3    0    0 -0.64604764210E-01  0.12704182519E+00  0.12044665325E-01  0.89154835812E+00  0.88000000000E+00 0. -1.
        -11    1    4    4    0    0  0.90509043411E-02 -0.96594417789E-02 -0.33424169900E-02  0.13662231048E-01  0.51100000000E-03 0. -1.
         11    1    4    4    0    0  0.36225808044E-01 -0.10908617951E+00  0.23294300188E-02  0.11496865265E+00  0.51100000000E-03 0.  1.
</event>
<event>
 8    1  0.1086486E+005  0.1043930E+01  0.7957747E-01            NaN
         13   -1    0    0    0    0  0.00000000000E+00  0.00000000000E+00  0.74505805969E-08  0.10566000000E+00  0.10566000000E+00 0.  1.
     999900   -1    0    0    0    0 -0.00000000000E+00 -0.00000000000E+00 -0.74505805969E-08  0.93827000000E+00  0.93827000000E+00 0.  1.
     999902    2    1    2    0    0  0.16121958699E-01  0.18841315303E-02  0.16009400896E-01  0.10211315698E+01  0.10208770319E+01 0.  0.
     999903    2    3    3    0    0 -0.55529556552E-01 -0.11582832025E+00  0.11894515528E-02  0.13028377590E+00  0.21742034080E-01 0.  0.
         14    1    1    2    0    0 -0.16121958699E-01 -0.18841315303E-02 -0.16009400896E-01  0.22798430230E-01  0.00000000000E+00 0. -1.
     999901    1    3    3    0    0  0.71651515251E-01  0.11771245178E+00  0.14819949343E-01  0.89084779387E+00  0.88000000000E+00 0.  1.
        -11    1    4    4    0    0 -0.16211019383E-01 -0.58878051853E-01  0.77063910400E-03  0.61075994834E-01  0.51100000000E-03 0. -1.
         11    1    4    4    0    0 -0.39318537169E-01 -0.56950268395E-01  0.41881244878E-03  0.69207781068E-01  0.51100000000E-03 0.  1.
</event>
<event>
 8    1  0.1086486E+005  0.1043930E+01  0.7957747E-01            NaN
         13   -1    0    0    0    0  0.00000000000E+00  0.00000000000E+00  0.74505805969E-08  0.10566000000E+00  0.10566000000E+00 0.  1.
     999900   -1    0    0    0    0 -0.00000000000E+00 -0.00000000000E+00 -0.74505805969E-08  0.93827000000E+00  0.93827000000E+00 0. -1.
     999902    2    1    2    0    0  0.20794941067E-02  0.24216120306E-01 -0.43592067772E-03  0.10196208494E+01  0.10193310265E+01 0.  0.
     999903    2    3    3    0    0 -0.69140540682E-01  0.57425965966E-01  0.93927246190E-01  0.13109420683E+00  0.16888089160E-01 0.  0.
         14    1    1    2    0    0 -0.20794941067E-02 -0.24216120306E-01  0.43592067772E-03  0.24309150648E-01  0.00000000000E+00 0. -1.
     999901    1    3    3    0    0  0.71220034789E-01 -0.33209845661E-01 -0.94363166867E-01  0.88852664252E+00  0.88000000000E+00 0.  1.
        -11    1    4    4    0    0 -0.63240729878E-02  0.23695172280E-02  0.24121977321E-02  0.71894596423E-02  0.51100000000E-03 0.  1.
         11    1    4    4    0    0 -0.62816467694E-01  0.55056448738E-01  0.91515048458E-01  0.12390474719E+00  0.51100000000E-03 0. -1.
</event>
<event>
 8    1  0.1086486E+005  0.1043930E+01  0.7957747E-01            NaN
         13   -1    0    0    0    0  0.00000000000E+00  0.00000000000E+00  0.74505805969E-08  0.10566000000E+00  0.10566000000E+00 0. -1.
     999900   -1    0    0    0    0 -0.00000000000E+00 -0.00000000000E+00 -0.74505805969E-08  0.93827000000E+00  0.93827000000E+00 0.  1.
     999902    2    1    2    0    0 -0.15067443968E-01 -0.18132142450E-01  0.35084818997E-02  0.10200949019E+01  0.10198164035E+01 0.  0.
     999903    2    3    3    0    0  0.11267688008E+00 -0.15114875999E-01 -0.56967165828E-01  0.12881210714E+00  0.20561181411E-01 0.  0.
         14    1    1    2    0    0  0.15067443968E-01  0.18132142450E-01 -0.35084818997E-02  0.23835098128E-01  0.00000000000E+00 0.  1.
     999901    1    3    3    0    0 -0.12774432405E+00 -0.30172664506E-02  0.60475647728E-01  0.89128279474E+00  0.88000000000E+00 0.  1.
        -11    1    4    4    0    0  0.29718341061E-01 -0.13262997759E-01 -0.15699260937E-01  0.36136059828E-01  0.51100000000E-03 0. -1.
         11    1    4    4    0    0  0.82958539021E-01 -0.18518782399E-02 -0.41267904892E-01  0.92676047308E-01  0.51100000000E-03 0.  1.
</event>
<event>
 8    1  0.1086486E+005  0.1043930E+01  0.7957747E-01            NaN
         13   -1    0    0    0    0  0.00000000000E+00  0.00000000000E+00  0.74505805969E-08  0.10566000000E+00  0.10566000000E+00 0. -1.
     999900   -1    0    0    0    0 -0.00000000000E+00 -0.00000000000E+00 -0.74505805969E-08  0.93827000000E+00  0.93827000000E+00 0.  1.
     999902    2    1    2    0    0  0.10174886659E-01 -0.80911024936E-02  0.17266624087E-01  0.10223167965E+01  0.10220883043E+01 0.  0.
     999903    2    3    3    0    0  0.88950324121E-01 -0.35927249468E-01 -0.88591131127E-01  0.13204364462E+00  0.19601228384E-01 0.  0.
         14    1    1    2    0    0 -0.10174886659E-01  0.80911024936E-02 -0.17266624087E-01  0.21613203498E-01  0.00000000000E+00 0.  1.
     999901    1    3    3    0    0 -0.78775437462E-01  0.27836146974E-01  0.10585775521E+00  0.89027315188E+00  0.88000000000E+00 0. -1.
        -11    1    4    4    0    0  0.12408371424E-01 -0.33678991058E-02 -0.22018939171E-01  0.25503043525E-01  0.51100000000E-03 0.  1.
         11    1    4    4    0    0  0.76541952696E-01 -0.32559350362E-01 -0.66572191956E-01  0.10654060109E+00  0.51100000000E-03 0. -1.
</event>
<event>
 8    1  0.1086486E+005  0.1043930E+01  0.7957747E-01            NaN
         13   -1    0    0    0    0  0.00000000000E+00  0.00000000000E+00  0.74505805969E-08  0.10566000000E+00  0.10566000000E+00 0. -1.
     999900   -1    0    0    0    0 -0.00000000000E+00 -0.00000000000E+00 -0.74505805969E-08  0.93827000000E+00  0.93827000000E+00 0. -1.
     999902    2    1    2    0    0  0.58627599669E-02  0.10049069930E-03  0.23867634624E-01  0.10193526520E+01  0.10190563199E+01 0.  0.
     999903    2    3    3    0    0 -0.14634652370E-01 -0.10842842556E+00  0.69561289623E-01  0.13127237426E+00  0.20561291594E-01 0.  0.
         14    1    1    2    0    0 -0.58627599669E-02 -0.10049069930E-03 -0.23867634624E-01  0.24577348013E-01  0.00000000000E+00 0.  1.
     999901    1    3    3    0    0  0.20497412337E-01  0.10852891626E+00 -0.45693654999E-01  0.88808027772E+00  0.88000000000E+00 0.  1.
        -11    1    4    4    0    0 -0.45596100986E-02 -0.45334778116E-01  0.17348411634E-01  0.48757160072E-01  0.51100000000E-03 0. -1.
         11    1    4    4    0    0 -0.10075042271E-01 -0.63093647441E-01  0.52212877989E-01  0.82515214191E-01  0.51100000000E-03 0.  1.
</event>
<event>
 8    1  0.1086486E+005  0.1043930E+01  0.7957747E-01            NaN
         13   -1    0    0    0    0  0.00000000000E+00  0.00000000000E+00  0.74505805969E-08  0.10566000000E+00  0.10566000000E+00 0.  1.
     999900   -1    0    0    0    0 -0.00000000000E+00 -0.00000000000E+00 -0.74505805969E-08  0.93827000000E+00  0.93827000000E+00 0. -1.
     999902    2    1    2    0    0  0.13796053011E-01  0.15045922016E-01 -0.95912277718E-02  0.10213755659E+01  0.10211265074E+01 0.  0.
     999903    2    3    3    0    0  0.68109374997E-01 -0.10122367101E+00 -0.44422662213E-01  0.13138579963E+00  0.20093205122E-01 0.  0.
         14    1    1    2    0    0 -0.13796053011E-01 -0.15045922016E-01  0.95912277718E-02  0.22554434113E-01  0.00000000000E+00 0.  1.
     999901    1    3    3    0    0 -0.54313321986E-01  0.11626959303E+00  0.34831434441E-01  0.88998976625E+00  0.88000000000E+00 0.  1.
        -11    1    4    4    0    0  0.67699522520E-01 -0.92870601225E-01 -0.43773668739E-01  0.12298198696E+00  0.51100000000E-03 0.  1.
         11    1    4    4    0    0  0.40985247739E-03 -0.83530697859E-02 -0.64899347372E-03  0.84038126722E-02  0.51100000000E-03 0. -1.
</event>
<event>
 8    1  0.1086486E+005  0.1043930E+01  0.7957747E-01            NaN
         13   -1    0    0    0    0  0.00000000000E+00  0.00000000000E+00  0.74505805969E-08  0.10566000000E+00  0.10566000000E+00 0.  1.
     999900   -1    0    0    0    0 -0.00000000000E+00 -0.00000000000E+00 -0.74505805969E-08  0.93827000000E+00  0.93827000000E+00 0. -1.
     999902    2    1    2    0    0  0.12248161036E-01 -0.14191683212E-01  0.14469096439E-01  0.10202492890E+01  0.10199744289E+01 0.  0.
     999903    2    3    3    0    0  0.10329102552E+00 -0.44071991203E-01 -0.65307225266E-01  0.13146028284E+00  0.20134446400E-01 0.  0.
         14    1    1    2    0    0 -0.12248161036E-01  0.14191683212E-01 -0.14469096439E-01  0.23680710988E-01  0.00000000000E+00 0. -1.
     999901    1    3    3    0    0 -0.91042864485E-01  0.29880307991E-01  0.79776321705E-01  0.88878900617E+00  0.88000000000E+00 0. -1.
        -11    1    4    4    0    0  0.91644178528E-01 -0.41734164267E-01 -0.51068561834E-01  0.11290994223E+00  0.51100000000E-03 0. -1.
         11    1    4    4    0    0  0.11646846993E-01 -0.23378269361E-02 -0.14238663432E-01  0.18550340617E-01  0.51100000000E-03 0.  1.
</event>
<event>
 8    1  0.1427666E+005  0.1043930E+01  0.7957747E-01            NaN
         13   -1    0    0    0    0  0.00000000000E+00  0.00000000000E+00  0.74505805969E-08  0.10566000000E+00  0.10566000000E+00 0.  1.
     999900   -1    0    0    0    0 -0.00000000000E+00 -0.00000000000E+00 -0.74505805969E-08  0.93827000000E+00  0.93827000000E+00 0. -1.
     999902    2    1    2    0    0 -0.23077484570E-01 -0.84265878938E-02 -0.43454772457E-02  0.10189808347E+01  0.10186753558E+01 0.  0.
     999903    2    3    3    0    0 -0.81570328708E-01  0.85515717659E-01 -0.51888150967E-01  0.13077653644E+00  0.21058627219E-01 0.  0.
         14    1    1    2    0    0  0.23077484570E-01  0.84265878938E-02  0.43454772457E-02  0.24949165319E-01  0.00000000000E+00 0.  1.
     999901    1    3    3    0    0  0.58492844139E-01 -0.93942305553E-01  0.47542673722E-01  0.88820429824E+00  0.88000000000E+00 0.  1.
        -11    1    4    4    0    0 -0.44736443192E-01  0.31871936138E-01 -0.25366258628E-01  0.60505188707E-01  0.51100000000E-03 0. -1.
         11    1    4    4    0    0 -0.36833885516E-01  0.53643781521E-01 -0.26521892340E-01  0.70271347734E-01  0.51100000000E-03 0.  1.
</event>
<event>
 8    1  0.1086486E+005  0.1043930E+01  0.7957747E-01            NaN
         13   -1    0    0    0    0  0.00000000000E+00  0.00000000000E+00  0.74505805969E-08  0.10566000000E+00  0.10566000000E+00 0. -1.
     999900   -1    0    0    0    0 -0.00000000000E+00 -0.00000000000E+00 -0.74505805969E-08  0.93827000000E+00  0.93827000000E+00 0. -1.
     999902    2    1    2    0    0 -0.12314322652E-01  0.10474284818E-01 -0.17082834505E-01  0.10204102972E+01  0.10201392053E+01 0.  0.
     999903    2    3    3    0    0  0.97153693035E-01  0.38540265904E-01  0.72461215352E-01  0.12867654624E+00  0.19566135407E-01 0.  0.
         14    1    1    2    0    0  0.12314322652E-01 -0.10474284818E-01  0.17082834505E-01  0.23519702794E-01  0.00000000000E+00 0. -1.
     999901    1    3    3    0    0 -0.10946801569E+00 -0.28065981087E-01 -0.89544049856E-01  0.89173375097E+00  0.88000000000E+00 0. -1.
        -11    1    4    4    0    0  0.16249391725E-01 -0.72559433491E-03  0.88711797398E-02  0.18534512930E-01  0.51100000000E-03 0.  1.
         11    1    4    4    0    0  0.80904301310E-01  0.39265860239E-01  0.63590035612E-01  0.11014203331E+00  0.51100000000E-03 0. -1.
</event>
<event>
 8    1  0.1086486E+005  0.1043930E+01  0.7957747E-01            NaN
         13   -1    0    0    0    0  0.00000000000E+00  0.00000000000E+00  0.74505805969E-08  0.10566000000E+00  0.10566000000E+00 0. -1.
     999900   -1    0    0    0    0 -0.00000000000E+00 -0.00000000000E+00 -0.74505805969E-08  0.93827000000E+00  0.93827000000E+00 0.  1.
     999902    2    1    2    0    0 -0.21560914675E-01 -0.69119050525E-02 -0.72485737436E-02  0.10201562898E+01  0.10198792411E+01 0.  0.
     999903    2    3    3    0    0 -0.34535334824E-01  0.12458623810E-01 -0.12531016082E+00  0.13196594352E+00  0.19091023719E-01 0.  0.
         14    1    1    2    0    0  0.21560914675E-01  0.69119050525E-02  0.72485737436E-02  0.23773710152E-01  0.00000000000E+00 0. -1.
     999901    1    3    3    0    0  0.12974420149E-01 -0.19370528862E-01  0.11806158707E+00  0.88819034633E+00  0.88000000000E+00 0. -1.
        -11    1    4    4    0    0 -0.45733437232E-02 -0.44783210467E-02 -0.28620224521E-01  0.29331709886E-01  0.51100000000E-03 0. -1.
         11    1    4    4    0    0 -0.29961991101E-01  0.16936944857E-01 -0.96689936296E-01  0.10263423363E+00  0.51100000000E-03 0.  1.
</event>
<event>
 8    1  0.1086486E+005  0.1043930E+01  0.7957747E-01            NaN
         13   -1    0    0    0    0  0.00000000000E+00  0.00000000000E+00  0.74505805969E-08  0.10566000000E+00  0.10566000000E+00 0. -1.
     999900   -1    0    0    0    0 -0.00000000000E+00 -0.00000000000E+00 -0.74505805969E-08  0.93827000000E+00  0.93827000000E+00 0. -1.
     999902    2    1    2    0    0  0.66563523094E-02 -0.21418722095E-01 -0.37140431878E-02  0.10211953832E+01  0.10209422843E+01 0.  0.
     999903    2    3    3    0    0  0.43739532409E-01 -0.11743043000E+00 -0.44011899159E-01  0.13428088483E+00  0.19780196603E-01 0.  0.
         14    1    1    2    0    0 -0.66563523094E-02  0.21418722095E-01  0.37140431878E-02  0.22734616756E-01  0.00000000000E+00 0. -1.
     999901    1    3    3    0    0 -0.37083180099E-01  0.96011707905E-01  0.40297855971E-01  0.88691449841E+00  0.88000000000E+00 0.  1.
        -11    1    4    4    0    0  0.34376766116E-01 -0.89559170364E-01 -0.24567855853E-01  0.99027509850E-01  0.51100000000E-03 0.  1.
         11    1    4    4    0    0  0.93627662921E-02 -0.27871259637E-01 -0.19444043306E-01  0.35253374980E-01  0.51100000000E-03 0. -1.
</event>
<event>
 8    1  0.1086486E+005  0.1043930E+01  0.7957747E-01            NaN
         13   -1    0    0    0    0  0.00000000000E+00  0.00000000000E+00  0.74505805969E-08  0.10566000000E+00  0.10566000000E+00 0. -1.
     999900   -1    0    0    0    0 -0.00000000000E+00 -0.00000000000E+00 -0.74505805969E-08  0.93827000000E+00  0.93827000000E+00 0. -1.
     999902    2    1    2    0    0  0.12479253962E-01  0.44528906887E-02  0.19478889904E-01  0.10203718344E+01  0.10200998447E+01 0.  0.
     999903    2    3    3    0    0  0.32094410797E-01  0.92057152060E-01 -0.83368062873E-01  0.12984572209E+00  0.20127274756E-01 0.  0.
         14    1    1    2    0    0 -0.12479253962E-01 -0.44528906887E-02 -0.19478889904E-01  0.23558165608E-01  0.00000000000E+00 0.  1.
     999901    1    3    3    0    0 -0.19615156835E-01 -0.87604261371E-01  0.10284695278E+00  0.89052611230E+00  0.88000000000E+00 0.  1.
        -11    1    4    4    0    0 -0.20203211556E-02  0.16418810824E-01 -0.12916794045E-01  0.20994373910E-01  0.51100000000E-03 0.  1.
         11    1    4    4    0    0  0.34114731952E-01  0.75638341236E-01 -0.70451268828E-01  0.10885134818E+00  0.51100000000E-03 0. -1.
</event>
<event>
 8    1  0.1086486E+005  0.1043930E+01  0.7957747E-01            NaN
         13   -1    0    0    0    0  0.00000000000E+00  0.00000000000E+00  0.74505805969E-08  0.10566000000E+00  0.10566000000E+00 0.  1.
     999900   -1    0    0    0    0 -0.00000000000E+00 -0.00000000000E+00 -0.74505805969E-08  0.93827000000E+00  0.93827000000E+00 0. -1.
     999902    2    1    2    0    0  0.94253947834E-02 -0.29622528567E-02  0.21286233793E-01  0.10204626448E+01  0.10201927724E+01 0.  0.
     999903    2    3    3    0    0  0.31299115451E-01  0.21730195082E-01 -0.12101006983E+00  0.12842205459E+00  0.19923631651E-01 0.  0.
         14    1    1    2    0    0 -0.94253947834E-02  0.29622528567E-02 -0.21286233793E-01  0.23467355153E-01  0.00000000000E+00 0. -1.
     999901    1    3    3    0    0 -0.21873720668E-01 -0.24692447938E-01  0.14229630362E+00  0.89204059026E+00  0.88000000000E+00 0.  1.
        -11    1    4    4    0    0  0.18097283551E-01  0.90145549695E-02 -0.91265742743E-01  0.93479788150E-01  0.51100000000E-03 0.  1.
         11    1    4    4    0    0  0.13201831900E-01  0.12715640112E-01 -0.29744327088E-01  0.34942266439E-01  0.51100000000E-03 0. -1.
</event>
<event>
 8    1  0.1086486E+005  0.1043930E+01  0.7957747E-01            NaN
         13   -1    0    0    0    0  0.00000000000E+00  0.00000000000E+00  0.74505805969E-08  0.10566000000E+00  0.10566000000E+00 0.  1.
     999900   -1    0    0    0    0 -0.00000000000E+00 -0.00000000000E+00 -0.74505805969E-08  0.93827000000E+00  0.93827000000E+00 0.  1.
     999902    2    1    2    0    0 -0.21139613718E-01  0.50745764762E-02 -0.10686825415E-01  0.10197051608E+01  0.10194173690E+01 0.  0.
     999903    2    3    3    0    0  0.12024157641E+00 -0.36012879727E-01  0.25445259532E-02  0.12737568770E+00  0.21520385736E-01 0.  0.
         14    1    1    2    0    0  0.21139613718E-01 -0.50745764762E-02  0.10686825415E-01  0.24224839153E-01  0.00000000000E+00 0.  1.
     999901    1    3    3    0    0 -0.14138119013E+00  0.41087456203E-01 -0.13231351368E-01  0.89232947314E+00  0.88000000000E+00 0. -1.
        -11    1    4    4    0    0  0.80880026201E-02  0.13585623882E-02  0.40231501387E-02  0.91492259883E-02  0.51100000000E-03 0. -1.
         11    1    4    4    0    0  0.11215357379E+00 -0.37371442115E-01 -0.14786241855E-02  0.11822646172E+00  0.51100000000E-03 0.  1.
</event>
<event>
 8    1  0.1086486E+005  0.1043930E+01  0.7957747E-01            NaN
         13   -1    0    0    0    0  0.00000000000E+00  0.00000000000E+00  0.74505805969E-08  0.10566000000E+00  0.10566000000E+00 0. -1.
     999900   -1    0    0    0    0 -0.00000000000E+00 -0.00000000000E+00 -0.74505805969E-08  0.93827000000E+00  0.93827000000E+00 0. -1.
     999902    2    1    2    0    0 -0.12798745169E-01  0.92613225141E-02  0.17888500018E-01  0.10200641582E+01  0.10197849324E+01 0.  0.
     999903    2    3    3    0    0  0.64866696721E-01  0.25443144143E-01 -0.10556866624E+00  0.12791201639E+00  0.19018378400E-01 0.  0.
         14    1    1    2    0    0  0.12798745169E-01 -0.92613225141E-02 -0.17888500018E-01  0.23865841815E-01  0.00000000000E+00 0.  1.
     999901    1    3    3    0    0 -0.77665441890E-01 -0.16181821629E-01  0.12345716626E+00  0.89215214180E+00  0.88000000000E+00 0.  1.
        -11    1    4    4    0    0  0.19401191056E-01  0.17036568287E-01 -0.33774989315E-01  0.42516607315E-01  0.51100000000E-03 0. -1.
         11    1    4    4    0    0  0.45465505665E-01  0.84065758563E-02 -0.71793676925E-01  0.85395409071E-01  0.51100000000E-03 0.  1.
</event>
<event>
 8    1  0.1086486E+005  0.1043930E+01  0.7957747E-01            NaN
         13   -1    0    0    0    0  0.00000000000E+00  0.00000000000E+00  0.74505805969E-08  0.10566000000E+00  0.10566000000E+00 0. -1.
     999900   -1    0    0    0    0 -0.00000000000E+00 -0.00000000000E+00 -0.74505805969E-08  0.93827000000E+00  0.93827000000E+00 0. -1.
     999902    2    1    2    0    0 -0.91054672054E-02  0.16872001391E-01 -0.11329587682E-01  0.10216604351E+01  0.10214176967E+01 0.  0.
     999903    2    3    3    0    0  0.95540415772E-01 -0.86218462808E-01 -0.45086436074E-02  0.12945814306E+00  0.13322483366E-01 0.  0.
         14    1    1    2    0    0  0.91054672054E-02 -0.16872001391E-01  0.11329587682E-01  0.22269564904E-01  0.00000000000E+00 0. -1.
     999901    1    3    3    0    0 -0.10464588298E+00  0.10309046420E+00 -0.68209440751E-02  0.89220229203E+00  0.88000000000E+00 0.  1.
        -11    1    4    4    0    0  0.45534739338E-01 -0.42908333906E-01  0.43124588618E-02  0.62716792230E-01  0.51100000000E-03 0. -1.
         11    1    4    4    0    0  0.50005676434E-01 -0.43310128901E-01 -0.88211024692E-02  0.66741350832E-01  0.51100000000E-03 0.  1.
</event>
<event>
 7    1  0.1188459E+005  0.1043930E+01  0.7957747E-01            NaN
         13   -1    0    0    0    0  0.00000000000E+00  0.00000000000E+00  0.74505805969E-08  0.10566000000E+00  0.10566000000E+00 0.  1.
     999900   -1    0    0    0    0 -0.00000000000E+00 -0.00000000000E+00 -0.74505805969E-08  0.93827000000E+00  0.93827000000E+00 0.  1.
     999902    2    1    2    0    0  0.43696085951E-02 -0.16939510126E-02  0.23506625660E-01  0.10199607614E+01  0.10196790821E+01 0.  0.
         14    1    1    2    0    0 -0.43696085951E-02  0.16939510126E-02 -0.23506625660E-01  0.23969238603E-01  0.00000000000E+00 0. -1.
     999901    1    3    3    0    0  0.23362139395E-01  0.28554099752E-01 -0.99678869888E-01  0.88639551176E+00  0.88000000000E+00 0.  1.
        -11    1    3    3    0    0  0.13315964407E-02 -0.27677710118E-02  0.71685336884E-01  0.71752925729E-01  0.51100000000E-03 0.  1.
         11    1    3    3    0    0 -0.20324127241E-01 -0.27480279752E-01  0.51500158663E-01  0.61812323906E-01  0.51100000000E-03 0. -1.
</event>
<event>
 8    1  0.1086486E+005  0.1043930E+01  0.7957747E-01            NaN
         13   -1    0    0    0    0  0.00000000000E+00  0.00000000000E+00  0.74505805969E-08  0.10566000000E+00  0.10566000000E+00 0.  1.
     999900   -1    0    0    0    0 -0.00000000000E+00 -0.00000000000E+00 -0.74505805969E-08  0.93827000000E+00  0.93827000000E+00 0. -1.
     999902    2    1    2    0    0 -0.13299767585E-01 -0.18053204009E-01  0.17957827197E-02  0.10214349599E+01  0.10211872260E+01 0.  0.
     999903    2    3    3    0    0  0.11099227685E+00  0.33050581370E-01  0.54775991479E-01  0.12965751475E+00  0.19975871396E-01 0.  0.
         14    1    1    2    0    0  0.13299767585E-01  0.18053204009E-01 -0.17957827197E-02  0.22495040084E-01  0.00000000000E+00 0. -1.
     999901    1    3    3    0    0 -0.12429204444E+00 -0.51103785379E-01 -0.52980208760E-01  0.89177744517E+00  0.88000000000E+00 0. -1.
        -11    1    4    4    0    0  0.19492376572E-01  0.11676266982E-01  0.17006778337E-01  0.28386256982E-01  0.51100000000E-03 0. -1.
         11    1    4    4    0    0  0.91499900281E-01  0.21374314389E-01  0.37769213143E-01  0.10127125777E+00  0.51100000000E-03 0.  1.
</event>
<event>
 7    1  0.1086486E+005  0.1043930E+01  0.7957747E-01            NaN
         13   -1    0    0    0    0  0.00000000000E+00  0.00000000000E+00  0.74505805969E-08  0.10566000000E+00  0.10566000000E+00 0.  1.
     999900   -1    0    0    0    0 -0.00000000000E+00 -0.00000000000E+00 -0.74505805969E-08  0.93827000000E+00  0.93827000000E+00 0.  1.
     999903    2    1    2    0    0  0.34598363810E-01  0.48869213655E-01  0.94944475498E-01  0.11393242956E+00  0.19516614896E-01 0.  0.
         14    1    1    2    0    0  0.33236730948E-01  0.18670549460E-01  0.76473370303E-02  0.38881248243E-01  0.00000000000E+00 0. -1.
     999901    1    1    2    0    0 -0.67835094759E-01 -0.67539763115E-01 -0.10259181253E+00  0.89111632219E+00  0.88000000000E+00 0.  1.
        -11    1    3    3    0    0  0.30369156481E-01  0.43286656398E-01  0.68299767599E-01  0.86377888737E-01  0.51100000000E-03 0.  1.
         11    1    3    3    0    0  0.42292073292E-02  0.55825572570E-02  0.26644707898E-01  0.27554540826E-01  0.51100000000E-03 0. -1.
</event>
<event>
 8    1  0.1086486E+005  0.1043930E+01  0.7957747E-01            NaN
         13   -1    0    0    0    0  0.00000000000E+00  0.00000000000E+00  0.74505805969E-08  0.10566000000E+00  0.10566000000E+00 0. -1.
     999900   -1    0    0    0    0 -0.00000000000E+00 -0.00000000000E+00 -0.74505805969E-08  0.93827000000E+00  0.93827000000E+00 0.  1.
     999902    2    1    2    0    0  0.18823948448E-01  0.61734607140E-02  0.13232996620E-01  0.10201063804E+01  0.10198281534E+01 0.  0.
     999903    2    3    3    0    0  0.91749107849E-01  0.85838191665E-01  0.39669767029E-01  0.13310950831E+00  0.18930315546E-01 0.  0.
         14    1    1    2    0    0 -0.18823948448E-01 -0.61734607140E-02 -0.13232996620E-01  0.23823619622E-01  0.00000000000E+00 0.  1.
     999901    1    3    3    0    0 -0.72925159401E-01 -0.79664730951E-01 -0.26436770409E-01  0.88699687207E+00  0.88000000000E+00 0. -1.
        -11    1    4    4    0    0  0.80694702630E-01  0.67069105386E-01  0.36474031757E-01  0.11108787532E+00  0.51100000000E-03 0.  1.
         11    1    4    4    0    0  0.11054405219E-01  0.18769086279E-01  0.31957352720E-02  0.22021632987E-01  0.51100000000E-03 0. -1.
</event>
<event>
 8    1  0.1086486E+005  0.1043930E+01  0.7957747E-01            NaN
         13   -1    0    0    0    0  0.00000000000E+00  0.00000000000E+00  0.74505805969E-08  0.10566000000E+00  0.10566000000E+00 0. -1.
     999900   -1    0    0    0    0 -0.00000000000E+00 -0.00000000000E+00 -0.74505805969E-08  0.93827000000E+00  0.93827000000E+00 0.  1.
     999902    2    1    2    0    0 -0.64837646456E-02 -0.22197152012E-01  0.13248902664E-01  0.10172788052E+01  0.10169296344E+01 0.  0.
     999903    2    3    3    0    0 -0.81145178682E-02 -0.86090001053E-01 -0.93198011272E-01  0.12856293330E+00  0.19110856393E-01 0.  0.
         14    1    1    2    0    0  0.64837646456E-02  0.22197152012E-01 -0.13248902664E-01  0.26651194781E-01  0.00000000000E+00 0.  1.
     999901    1    3    3    0    0  0.16307532227E-02  0.63892849041E-01  0.10644691394E+00  0.88871587192E+00  0.88000000000E+00 0. -1.
        -11    1    4    4    0    0 -0.12766723937E-01 -0.57926651297E-01 -0.70171370753E-01  0.91884539314E-01  0.51100000000E-03 0.  1.
         11    1    4    4    0    0  0.46522060690E-02 -0.28163349757E-01 -0.23026640519E-01  0.36678393986E-01  0.51100000000E-03 0. -1.
</event>
<event>
 8    1  0.1086486E+005  0.1043930E+01  0.7957747E-01            NaN
         13   -1    0    0    0    0  0.00000000000E+00  0.00000000000E+00  0.74505805969E-08  0.10566000000E+00  0.10566000000E+00 0.  1.
     999900   -1    0    0    0    0 -0.00000000000E+00 -0.00000000000E+00 -0.74505805969E-08  0.93827000000E+00  0.93827000000E+00 0.  1.
     999902    2    1    2    0    0  0.22352392998E-02  0.17342472453E-01  0.15743776541E-01  0.10204007810E+01  0.10201294672E+01 0.  0.
     999903    2    3    3    0    0 -0.22944664969E-01  0.12749104968E+00  0.18827344899E-01  0.13317124757E+00  0.24488504752E-01 0.  0.
         14    1    1    2    0    0 -0.22352392998E-02 -0.17342472453E-01 -0.15743776541E-01  0.23529218969E-01  0.00000000000E+00 0.  1.
     999901    1    3    3    0    0  0.25179904269E-01 -0.11014857723E+00 -0.30835683575E-02  0.88722953346E+00  0.88000000000E+00 0.  1.
        -11    1    4    4    0    0 -0.15620847182E-01  0.44448307267E-01 -0.22897147804E-02  0.47171673707E-01  0.51100000000E-03 0. -1.
         11    1    4    4    0    0 -0.73238177873E-02  0.83042742415E-01  0.21117059679E-01  0.85999573867E-01  0.51100000000E-03 0.  1.
</event>
<event>
 8    1  0.1086486E+005  0.1043930E+01  0.7957747E-01            NaN
         13   -1    0    0    0    0  0.00000000000E+00  0.00000000000E+00  0.74505805969E-08  0.10566000000E+00  0.10566000000E+00 0. -1.
     999900   -1    0    0    0    0 -0.00000000000E+00 -0.00000000000E+00 -0.74505805969E-08  0.93827000000E+00  0.93827000000E+00 0. -1.
     999902    2    1    2    0    0  0.21512708264E-01 -0.76639385621E-02 -0.11456354967E-01  0.10183804278E+01  0.10180598779E+01 0.  0.
     999903    2    3    3    0    0 -0.47754613596E-01 -0.60275786564E-01  0.99021561080E-01  0.12721751431E+00  0.21572037970E-01 0.  0.
         14    1    1    2    0    0 -0.21512708264E-01  0.76639385621E-02  0.11456354967E-01  0.25549572213E-01  0.00000000000E+00 0. -1.
     999901    1    3    3    0    0  0.69267321860E-01  0.52611848002E-01 -0.11047791605E+00  0.89116291348E+00  0.88000000000E+00 0. -1.
        -11    1    4    4    0    0 -0.28035469770E-01 -0.18783604000E-01  0.46143149854E-01  0.57168721726E-01  0.51100000000E-03 0. -1.
         11    1    4    4    0    0 -0.19719143827E-01 -0.41492182564E-01  0.52878411226E-01  0.70048792581E-01  0.51100000000E-03 0.  1.
</event>
<event>
 8    1  0.1086486E+005  0.1043930E+01  0.7957747E-01            NaN
         13   -1    0    0    0    0  0.00000000000E+00  0.00000000000E+00  0.74505805969E-08  0.10566000000E+00  0.10566000000E+00 0.  1.
     999900   -1    0    0    0    0 -0.00000000000E+00 -0.00000000000E+00 -0.74505805969E-08  0.93827000000E+00  0.93827000000E+00 0.  1.
     999902    2    1    2    0    0 -0.17090706300E-01 -0.14182103608E-01 -0.10956259674E-01  0.10191658337E+01  0.10188649237E+01 0.  0.
     999903    2    3    3    0    0 -0.56760641064E-01 -0.56386414856E-01  0.10061509183E+00  0.13023216125E+00  0.20876325442E-01 0.  0.
         14    1    1    2    0    0  0.17090706300E-01  0.14182103608E-01  0.10956259674E-01  0.24764166262E-01  0.00000000000E+00 0.  1.
     999901    1    3    3    0    0  0.39669934763E-01  0.42204311248E-01 -0.11157135151E+00  0.88893367249E+00  0.88000000000E+00 0.  1.
        -11    1    4    4    0    0 -0.37690686339E-01 -0.38683351443E-01  0.51403285570E-01  0.74562379280E-01  0.51100000000E-03 0. -1.
         11    1    4    4    0    0 -0.19069954725E-01 -0.17703063413E-01  0.49211806264E-01  0.55669781966E-01  0.51100000000E-03 0.  1.
</event>
<event>
 8    1  0.1086486E+005  0.1043930E+01  0.7957747E-01            NaN
         13   -1    0    0    0    0  0.00000000000E+00  0.00000000000E+00  0.74505805969E-08  0.10566000000E+00  0.10566000000E+00 0. -1.
     999900   -1    0    0    0    0 -0.00000000000E+00 -0.00000000000E+00 -0.74505805969E-08  0.93827000000E+00  0.93827000000E+00 0.  1.
     999902    2    1    2    0    0  0.88168625486E-02 -0.19429502915E-01 -0.10287588090E-01  0.10202429335E+01  0.10199679242E+01 0.  0.
     999903    2    3    3    0    0 -0.12685997510E+00 -0.59342574636E-02  0.14414672417E-01  0.12940033937E+00  0.20198919621E-01 0.  0.
         14    1    1    2    0    0 -0.88168625486E-02  0.19429502915E-01  0.10287588090E-01  0.23687066459E-01  0.00000000000E+00 0. -1.
     999901    1    3    3    0    0  0.13567683765E+00 -0.13495245451E-01 -0.24702260508E-01  0.89084259418E+00  0.88000000000E+00 0. -1.
        -11    1    4    4    0    0 -0.11652939211E+00 -0.25462751361E-02  0.81516387326E-02  0.11684302751E+00  0.51100000000E-03 0. -1.
         11    1    4    4    0    0 -0.10330582983E-01 -0.33879823274E-02  0.62630336847E-02  0.12557311852E-01  0.51100000000E-03 0.  1.
</event>
<event>
 8    1  0.1086486E+005  0.1043930E+01  0.7957747E-01            NaN
         13   -1    0    0    0    0  0.00000000000E+00  0.00000000000E+00  0.74505805969E-08  0.10566000000E+00  0.10566000000E+00 0. -1.
     999900   -1    0    0    0    0 -0.00000000000E+00 -0.00000000000E+00 -0.74505805969E-08  0.93827000000E+00  0.93827000000E+00 0.  1.
     999902    2    1    2    0    0 -0.21891238666E-01 -0.71221188974E-02 -0.21002840117E-02  0.10208137265E+01  0.10205519595E+01 0.  0.
     999903    2    3    3    0    0 -0.65818241156E-01  0.98749524468E-01  0.53042030045E-01  0.13166859705E+00  0.20967905135E-01 0.  0.
         14    1    1    2    0    0  0.21891238666E-01  0.71221188974E-02  0.21002840117E-02  0.23116273507E-01  0.00000000000E+00 0. -1.
     999901    1    3    3    0    0  0.43927002490E-01 -0.10587164337E+00 -0.55142314056E-01  0.88914512945E+00  0.88000000000E+00 0.  1.
        -11    1    4    4    0    0 -0.11506110062E-01  0.13644930573E-01  0.16461436256E-01  0.24286101040E-01  0.51100000000E-03 0. -1.
         11    1    4    4    0    0 -0.54312131094E-01  0.85104593895E-01  0.36580593789E-01  0.10738249601E+00  0.51100000000E-03 0.  1.
</event>
<event>
 8    1  0.1086486E+005  0.1043930E+01  0.7957747E-01            NaN
         13   -1    0    0    0    0  0.00000000000E+00  0.00000000000E+00  0.74505805969E-08  0.10566000000E+00  0.10566000000E+00 0.  1.
     999900   -1    0    0    0    0 -0.00000000000E+00 -0.00000000000E+00 -0.74505805969E-08  0.93827000000E+00  0.93827000000E+00 0. -1.
     999902    2    1    2    0    0 -0.42679380157E-02  0.19389140329E-01  0.12877590976E-01  0.10202659681E+01  0.10199914996E+01 0.  0.
     999903    2    3    3    0    0  0.55252658683E-01 -0.12337676656E-01 -0.11356185133E+00  0.12867400708E+00  0.21345525608E-01 0.  0.
         14    1    1    2    0    0  0.42679380157E-02 -0.19389140329E-01 -0.12877590976E-01  0.23664031925E-01  0.00000000000E+00 0.  1.
     999901    1    3    3    0    0 -0.59520596698E-01  0.31726816985E-01  0.12643944230E+00  0.89159196100E+00  0.88000000000E+00 0.  1.
        -11    1    4    4    0    0  0.21786872622E-02 -0.66339672742E-02 -0.10734389041E-01  0.12815788273E-01  0.51100000000E-03 0.  1.
         11    1    4    4    0    0  0.53073971420E-01 -0.57037093822E-02 -0.10282746229E+00  0.11585821880E+00  0.51100000000E-03 0. -1.
</event>
<event>
 8    1  0.1086486E+005  0.1043930E+01  0.7957747E-01            NaN
         13   -1    0    0    0    0  0.00000000000E+00  0.00000000000E+00  0.74505805969E-08  0.10566000000E+00  0.10566000000E+00 0.  1.
     999900   -1    0    0    0    0 -0.00000000000E+00 -0.00000000000E+00 -0.74505805969E-08  0.93827000000E+00  0.93827000000E+00 0.  1.
     999902    2    1    2    0    0  0.54591707665E-02  0.37010678531E-01  0.90237597379E-03  0.10065079857E+01  0.10058120690E+01 0.  0.
     999903    2    3    3    0    0  0.53273540379E-01  0.75508225097E-02 -0.10354768848E+00  0.11855308088E+00  0.20919468713E-01 0.  0.
         14    1    1    2    0    0 -0.54591707665E-02 -0.37010678531E-01 -0.90237597379E-03  0.37422014285E-01  0.00000000000E+00 0.  1.
     999901    1    3    3    0    0 -0.47814369613E-01  0.29459856021E-01  0.10445006445E+00  0.88795490484E+00  0.88000000000E+00 0. -1.
        -11    1    4    4    0    0  0.26515120387E-01 -0.61716272369E-02 -0.42070693393E-01  0.50113321138E-01  0.51100000000E-03 0. -1.
         11    1    4    4    0    0  0.26758419993E-01  0.13722449747E-01 -0.61476995086E-01  0.68439759741E-01  0.51100000000E-03 0.  1.
</event>
<event>
 8    1  0.1086486E+005  0.1043930E+01  0.7957747E-01            NaN
         13   -1    0    0    0    0  0.00000000000E+00  0.00000000000E+00  0.74505805969E-08  0.10566000000E+00  0.10566000000E+00 0. -1.
     999900   -1    0    0    0    0 -0.00000000000E+00 -0.00000000000E+00 -0.74505805969E-08  0.93827000000E+00  0.93827000000E+00 0. -1.
     999902    2    1    2    0    0  0.20162077512E-02  0.22688144487E-01 -0.30410999095E-02  0.10209503289E+01  0.10206916816E+01 0.  0.
     999903    2    3    3    0    0 -0.17082007927E-02  0.68943463190E-01 -0.11205859110E+00  0.13300988097E+00  0.19452031504E-01 0.  0.
         14    1    1    2    0    0 -0.20162077512E-02 -0.22688144487E-01  0.30410999095E-02  0.22979671073E-01  0.00000000000E+00 0. -1.
     999901    1    3    3    0    0  0.37244085439E-02 -0.46255318703E-01  0.10901749119E+00  0.88794044795E+00  0.88000000000E+00 0.  1.
        -11    1    4    4    0    0  0.20857558247E-03  0.34160734549E-01 -0.73443235064E-01  0.81001044354E-01  0.51100000000E-03 0.  1.
         11    1    4    4    0    0 -0.19167763752E-02  0.34782728641E-01 -0.38615356039E-01  0.52008836619E-01  0.51100000000E-03 0. -1.
</event>
<event>
 8    1  0.1086486E+005  0.1043930E+01  0.7957747E-01            NaN
         13   -1    0    0    0    0  0.00000000000E+00  0.00000000000E+00  0.74505805969E-08  0.10566000000E+00  0.10566000000E+00 0.  1.
     999900   -1    0    0    0    0 -0.00000000000E+00 -0.00000000000E+00 -0.74505805969E-08  0.93827000000E+00  0.93827000000E+00 0.  1.
     999902    2    1    2    0    0  0.43623497915E-02  0.22247875275E-01 -0.10202592800E-01  0.10190685650E+01  0.10187652572E+01 0.  0.
     999903    2    3    3    0    0 -0.83237831776E-01 -0.93729629836E-01  0.15372084850E-02  0.12706946387E+00  0.20748626218E-01 0.  0.
         14    1    1    2    0    0 -0.43623497915E-02 -0.22247875275E-01  0.10202592800E-01  0.24861434991E-01  0.00000000000E+00 0.  1.
     999901    1    3    3    0    0  0.87600181567E-01  0.11597750511E+00 -0.11739801285E-01  0.89199910114E+00  0.88000000000E+00 0.  1.
        -11    1    4    4    0    0 -0.66975576528E-01 -0.80847077345E-01  0.81125498986E-02  0.10529982124E+00  0.51100000000E-03 0. -1.
         11    1    4    4    0    0 -0.16262255248E-01 -0.12882552491E-01 -0.65753414136E-02  0.21769642627E-01  0.51100000000E-03 0.  1.
</event>
<event>
 8    1  0.1086486E+005  0.1043930E+01  0.7957747E-01            NaN
         13   -1    0    0    0    0  0.00000000000E+00  0.00000000000E+00  0.74505805969E-08  0.10566000000E+00  0.10566000000E+00 0.  1.
     999900   -1    0    0    0    0 -0.00000000000E+00 -0.00000000000E+00 -0.74505805969E-08  0.93827000000E+00  0.93827000000E+00 0. -1.
     999902    2    1    2    0    0 -0.12975481750E-01  0.83738629131E-02 -0.17614361053E-01  0.10205045774E+01  0.10202356797E+01 0.  0.
     999903    2    3    3    0    0  0.77355523647E-01  0.10202544204E+00  0.13760683135E-01  0.13038396640E+00  0.20434148657E-01 0.  0.
         14    1    1    2    0    0  0.12975481750E-01 -0.83738629131E-02  0.17614361053E-01  0.23425422558E-01  0.00000000000E+00 0.  1.
     999901    1    3    3    0    0 -0.90331005397E-01 -0.93651579125E-01 -0.31375044188E-01  0.89012061104E+00  0.88000000000E+00 0.  1.
        -11    1    4    4    0    0  0.24570325207E-01  0.47062797254E-01  0.10409284658E-01  0.54103808501E-01  0.51100000000E-03 0.  1.
         11    1    4    4    0    0  0.52785198440E-01  0.54962644784E-01  0.33513984768E-02  0.76280157897E-01  0.51100000000E-03 0. -1.
</event>
<event>
 8    1  0.1086486E+005  0.1043930E+01  0.7957747E-01            NaN
         13   -1    0    0    0    0  0.00000000000E+00  0.00000000000E+00  0.74505805969E-08  0.10566000000E+00  0.10566000000E+00 0.  1.
     999900   -1    0    0    0    0 -0.00000000000E+00 -0.00000000000E+00 -0.74505805969E-08  0.93827000000E+00  0.93827000000E+00 0. -1.
     999902    2    1    2    0    0  0.15171192059E-01  0.13629520203E-01 -0.11012303473E-01  0.10207524307E+01  0.10204892577E+01 0.  0.
     999903    2    3    3    0    0 -0.36839999798E-02  0.13105695075E+00  0.10536322496E-02  0.13267005476E+00  0.20266649773E-01 0.  0.
         14    1    1    2    0    0 -0.15171192059E-01 -0.13629520203E-01  0.11012303473E-01  0.23177569269E-01  0.00000000000E+00 0. -1.
     999901    1    3    3    0    0  0.18855192038E-01 -0.11742743054E+00 -0.12065935723E-01  0.88808237597E+00  0.88000000000E+00 0. -1.
        -11    1    4    4    0    0  0.54606392548E-02  0.40659662357E-01  0.69778351040E-02  0.41617040113E-01  0.51100000000E-03 0.  1.
         11    1    4    4    0    0 -0.91446392346E-02  0.90397288391E-01 -0.59242028544E-02  0.91053014643E-01  0.51100000000E-03 0. -1.
</event>
<event>
 8    1  0.1086486E+005  0.1043930E+01  0.7957747E-01            NaN
         13   -1    0    0    0    0  0.00000000000E+00  0.00000000000E+00  0.74505805969E-08  0.10566000000E+00  0.10566000000E+00 0. -1.
     999900   -1    0    0    0    0 -0.00000000000E+00 -0.00000000000E+00 -0.74505805969E-08  0.93827000000E+00  0.93827000000E+00 0.  1.
     999902    2    1    2    0    0 -0.10114079976E-02  0.23408446884E-01  0.79437058903E-02  0.10191897333E+01  0.10188894109E+01 0.  0.
     999903    2    3    3    0    0  0.34502292111E-01  0.98692208194E-01 -0.76681773366E-01  0.13121994817E+00  0.20199512686E-01 0.  0.
         14    1    1    2    0    0  0.10114079976E-02 -0.23408446884E-01 -0.79437058903E-02  0.24740266671E-01  0.00000000000E+00 0.  1.
     999901    1    3    3    0    0 -0.35513700108E-01 -0.75283761309E-01  0.84625479256E-01  0.88796978516E+00  0.88000000000E+00 0. -1.
        -11    1    4    4    0    0  0.26499813896E-01  0.52281719086E-01 -0.50279240016E-01  0.77226170336E-01  0.51100000000E-03 0.  1.
         11    1    4    4    0    0  0.80024782147E-02  0.46410489107E-01 -0.26402533349E-01  0.53993777836E-01  0.51100000000E-03 0. -1.
</event>
<event>
 8    1  0.1086486E+005  0.1043930E+01  0.7957747E-01            NaN
         13   -1    0    0    0    0  0.00000000000E+00  0.00000000000E+00  0.74505805969E-08  0.10566000000E+00  0.10566000000E+00 0.  1.
     999900   -1    0    0    0    0 -0.00000000000E+00 -0.00000000000E+00 -0.74505805969E-08  0.93827000000E+00  0.93827000000E+00 0. -1.
     999902    2    1    2    0    0  0.17352973739E-01  0.16684659986E-01  0.62989125046E-02  0.10190466748E+01  0.10187428260E+01 0.  0.
     999903    2    3    3    0    0 -0.75762767369E-01  0.63485589914E-01  0.81577429418E-01  0.12970550097E+00  0.19955524175E-01 0.  0.
         14    1    1    2    0    0 -0.17352973739E-01 -0.16684659986E-01 -0.62989125046E-02  0.24883325243E-01  0.00000000000E+00 0. -1.
     999901    1    3    3    0    0  0.93115741108E-01 -0.46800929928E-01 -0.75278516913E-01  0.88934117379E+00  0.88000000000E+00 0. -1.
        -11    1    4    4    0    0 -0.25206696242E-01  0.96928452934E-02  0.21241721851E-01  0.34362780061E-01  0.51100000000E-03 0. -1.
         11    1    4    4    0    0 -0.50556071127E-01  0.53792744620E-01  0.60335707567E-01  0.95342720909E-01  0.51100000000E-03 0.  1.
</event>
<event>
 8    1  0.1086486E+005  0.1043930E+01  0.7957747E-01            NaN
         13   -1    0    0    0    0  0.00000000000E+00  0.00000000000E+00  0.74505805969E-08  0.10566000000E+00  0.10566000000E+00 0. -1.
     999900   -1    0    0    0    0 -0.00000000000E+00 -0.00000000000E+00 -0.74505805969E-08  0.93827000000E+00  0.93827000000E+00 0.  1.
     999902    2    1    2    0    0  0.14923539660E-01  0.81449826756E-02 -0.17233859945E-01  0.10197213506E+01  0.10194339479E+01 0.  0.
     999903    2    3    3    0    0  0.91932285877E-01 -0.30938864428E-01 -0.88039641119E-01  0.13266365642E+00  0.20974003135E-01 0.  0.
         14    1    1    2    0    0 -0.14923539660E-01 -0.81449826756E-02  0.17233859945E-01  0.24208649433E-01  0.00000000000E+00 0. -1.
     999901    1    3    3    0    0 -0.77008746217E-01  0.39083847103E-01  0.70805781175E-01  0.88705769415E+00  0.88000000000E+00 0. -1.
        -11    1    4    4    0    0  0.62592490567E-01 -0.29489453246E-01 -0.54527445750E-01  0.88096260926E-01  0.51100000000E-03 0. -1.
         11    1    4    4    0    0  0.29339795310E-01 -0.14494111821E-02 -0.33512195369E-01  0.44567395494E-01  0.51100000000E-03 0.  1.
</event>
<event>
 8    1  0.1086486E+005  0.1043930E+01  0.7957747E-01            NaN
         13   -1    0    0    0    0  0.00000000000E+00  0.00000000000E+00  0.74505805969E-08  0.10566000000E+00  0.10566000000E+00 0.  1.
     999900   -1    0    0    0    0 -0.00000000000E+00 -0.00000000000E+00 -0.74505805969E-08  0.93827000000E+00  0.93827000000E+00 0.  1.
     999902    2    1    2    0    0  0.22657532363E-02 -0.11429560666E-01  0.19295772579E-01  0.10213890299E+01  0.10211402720E+01 0.  0.
     999903    2    3    3    0    0  0.40454736336E-01  0.16281301861E-01  0.12500385770E+00  0.13380777185E+00  0.19413626283E-01 0.  0.
         14    1    1    2    0    0 -0.22657532363E-02  0.11429560666E-01 -0.19295772579E-01  0.22540970125E-01  0.00000000000E+00 0. -1.
     999901    1    3    3    0    0 -0.38188983099E-01 -0.27710862527E-01 -0.10570808512E+00  0.88758125802E+00  0.88000000000E+00 0.  1.
        -11    1    4    4    0    0  0.19287433161E-01  0.18113745524E-01  0.71099683525E-01  0.75865268557E-01  0.51100000000E-03 0.  1.
         11    1    4    4    0    0  0.21167303174E-01 -0.18324436630E-02  0.53904174178E-01  0.57942503296E-01  0.51100000000E-03 0. -1.
</event>
<event>
 8    1  0.1086486E+005  0.1043930E+01  0.7957747E-01            NaN
         13   -1    0    0    0    0  0.00000000000E+00  0.00000000000E+00  0.74505805969E-08  0.10566000000E+00  0.10566000000E+00 0. -1.
     999900   -1    0    0    0    0 -0.00000000000E+00 -0.00000000000E+00 -0.74505805969E-08  0.93827000000E+00  0.93827000000E+00 0.  1.
     999902    2    1    2    0    0  0.13934794149E-01 -0.14982991054E-01 -0.11959935186E-01  0.10202296085E+01  0.10199542860E+01 0.  0.
     999903    2    3    3    0    0  0.68455284985E-01 -0.35614388360E-01 -0.10667568582E+00  0.13322948903E+00  0.20393236618E-01 0.  0.
         14    1    1    2    0    0 -0.13934794149E-01  0.14982991054E-01  0.11959935186E-01  0.23700391527E-01  0.00000000000E+00 0. -1.
     999901    1    3    3    0    0 -0.54520490836E-01  0.20631397307E-01  0.94715750638E-01  0.88700011944E+00  0.88000000000E+00 0. -1.
        -11    1    4    4    0    0  0.43944797886E-01 -0.27245881609E-01 -0.55401810712E-01  0.75783277028E-01  0.51100000000E-03 0. -1.
         11    1    4    4    0    0  0.24510487100E-01 -0.83685067512E-02 -0.51273875112E-01  0.57446212000E-01  0.51100000000E-03 0.  1.
</event>
<event>
 8    1  0.1086486E+005  0.1043930E+01  0.7957747E-01            NaN
         13   -1    0    0    0    0  0.00000000000E+00  0.00000000000E+00  0.74505805969E-08  0.10566000000E+00  0.10566000000E+00 0. -1.
     999900   -1    0    0    0    0 -0.00000000000E+00 -0.00000000000E+00 -0.74505805969E-08  0.93827000000E+00  0.93827000000E+00 0.  1.
     999902    2    1    2    0    0  0.72449863765E-02  0.12550293959E-01 -0.20110683651E-01  0.10191421138E+01  0.10188406199E+01 0.  0.
     999903    2    3    3    0    0 -0.11588917491E+00 -0.46653501749E-01  0.18350673285E-01  0.12776879857E+00  0.19526100235E-01 0.  0.
         14    1    1    2    0    0 -0.72449863765E-02 -0.12550293959E-01  0.20110683651E-01  0.24787886214E-01  0.00000000000E+00 0. -1.
     999901    1    3    3    0    0  0.12313416129E+00  0.59203795708E-01 -0.38461356936E-01  0.89137331522E+00  0.88000000000E+00 0. -1.
        -11    1    4    4    0    0 -0.51193308853E-01 -0.30306963686E-01  0.12405023436E-01  0.60773453470E-01  0.51100000000E-03 0. -1.
         11    1    4    4    0    0 -0.64695866060E-01 -0.16346538062E-01  0.59456498494E-02  0.66995345100E-01  0.51100000000E-03 0.  1.
</event>
<event>
 8    1  0.1086486E+005  0.1043930E+01  0.7957747E-01            NaN
         13   -1    0    0    0    0  0.00000000000E+00  0.00000000000E+00  0.74505805969E-08  0.10566000000E+00  0.10566000000E+00 0.  1.
     999900   -1    0    0    0    0 -0.00000000000E+00 -0.00000000000E+00 -0.74505805969E-08  0.93827000000E+00  0.93827000000E+00 0. -1.
     999902    2    1    2    0    0  0.59048275257E-02  0.20351323220E-01 -0.14191834721E-01  0.10184260490E+01  0.10181066573E+01 0.  0.
     999903    2    3    3    0    0  0.56221725098E-02 -0.43269955753E-01 -0.12060593895E+00  0.12973504047E+00  0.19531777216E-01 0.  0.
         14    1    1    2    0    0 -0.59048275257E-02 -0.20351323220E-01  0.14191834721E-01  0.25503951021E-01  0.00000000000E+00 0.  1.
     999901    1    3    3    0    0  0.28265501592E-03  0.63621278973E-01  0.10641410423E+00  0.88869100851E+00  0.88000000000E+00 0.  1.
        -11    1    4    4    0    0 -0.54669638417E-02 -0.85377314690E-02 -0.15922719796E-01  0.18883185086E-01  0.51100000000E-03 0. -1.
         11    1    4    4    0    0  0.11089136351E-01 -0.34732224284E-01 -0.10468321915E+00  0.11085185538E+00  0.51100000000E-03 0.  1.
</event>
<event>
 8    1  0.1086486E+005  0.1043930E+01  0.7957747E-01            NaN
         13   -1    0    0    0    0  0.00000000000E+00  0.00000000000E+00  0.74505805969E-08  0.10566000000E+00  0.10566000000E+00 0.  1.
     999900   -1    0    0    0    0 -0.00000000000E+00 -0.00000000000E+00 -0.74505805969E-08  0.93827000000E+00  0.93827000000E+00 0. -1.
     999902    2    1    2    0    0  0.14466365704E-01 -0.17850993040E-01 -0.43165847322E-02  0.10205512363E+01  0.10202834211E+01 0.  0.
     999903    2    3    3    0    0  0.59236825126E-01 -0.84647972827E-02 -0.11728248011E+00  0.13215167064E+00  0.11323854016E-01 0.  0.
         14    1    1    2    0    0 -0.14466365704E-01  0.17850993040E-01  0.43165847322E-02  0.23378763717E-01  0.00000000000E+00 0.  1.
     999901    1    3    3    0    0 -0.44770459421E-01 -0.93861957568E-02  0.11296589538E+00  0.88839956564E+00  0.88000000000E+00 0.  1.
        -11    1    4    4    0    0  0.17785937931E-01 -0.22799533520E-03 -0.45428404024E-01  0.48789267090E-01  0.51100000000E-03 0. -1.
         11    1    4    4    0    0  0.41450887194E-01 -0.82368019475E-02 -0.71854076085E-01  0.83362403555E-01  0.51100000000E-03 0.  1.
</event>
<event>
 8    1  0.1086486E+005  0.1043930E+01  0.7957747E-01            NaN
         13   -1    0    0    0    0  0.00000000000E+00  0.00000000000E+00  0.74505805969E-08  0.10566000000E+00  0.10566000000E+00 0. -1.
     999900   -1    0    0    0    0 -0.00000000000E+00 -0.00000000000E+00 -0.74505805969E-08  0.93827000000E+00  0.93827000000E+00 0.  1.
     999902    2    1    2    0    0 -0.41589590980E-02  0.19055442367E-01 -0.12578416770E-01  0.10207217387E+01  0.10204578602E+01 0.  0.
     999903    2    3    3    0    0  0.66131855291E-01  0.84851148847E-01 -0.76005951709E-01  0.13320107653E+00  0.19811167251E-01 0.  0.
         14    1    1    2    0    0  0.41589590980E-02 -0.19055442367E-01  0.12578416770E-01  0.23208261310E-01  0.00000000000E+00 0. -1.
     999901    1    3    3    0    0 -0.70290814389E-01 -0.65795706479E-01  0.63427534939E-01  0.88752066216E+00  0.88000000000E+00 0. -1.
        -11    1    4    4    0    0  0.37668744639E-01  0.55678971816E-01 -0.36770933154E-01  0.76625353971E-01  0.51100000000E-03 0.  1.
         11    1    4    4    0    0  0.28463110652E-01  0.29172177031E-01 -0.39235018555E-01  0.56575722555E-01  0.51100000000E-03 0. -1.
</event>
<event>
 8    1  0.1086486E+005  0.1043930E+01  0.7957747E-01            NaN
         13   -1    0    0    0    0  0.00000000000E+00  0.00000000000E+00  0.74505805969E-08  0.10566000000E+00  0.10566000000E+00 0.  1.
     999900   -1    0    0    0    0 -0.00000000000E+00 -0.00000000000E+00 -0.74505805969E-08  0.93827000000E+00  0.93827000000E+00 0. -1.
     999902    2    1    2    0    0 -0.21160665560E-01 -0.45886495126E-02 -0.97398305422E-02  0.10201877640E+01  0.10199114570E+01 0.  0.
     999903    2    3    3    0    0  0.10213905400E+00  0.70663491838E-01 -0.24885626354E-01  0.12828244349E+00  0.20282393286E-01 0.  0.
         14    1    1    2    0    0  0.21160665560E-01  0.45886495126E-02  0.97398305422E-02  0.23742236000E-01  0.00000000000E+00 0.  1.
     999901    1    3    3    0    0 -0.12329971956E+00 -0.75252141350E-01  0.15145795812E-01  0.89190532051E+00  0.88000000000E+00 0.  1.
        -11    1    4    4    0    0  0.49020311378E-01  0.46184420419E-01 -0.12825900487E-01  0.68562062843E-01  0.51100000000E-03 0. -1.
         11    1    4    4    0    0  0.53118742626E-01  0.24479071419E-01 -0.12059725867E-01  0.59720380648E-01  0.51100000000E-03 0.  1.
</event>
<event>
 8    1  0.1086486E+005  0.1043930E+01  0.7957747E-01            NaN
         13   -1    0    0    0    0  0.00000000000E+00  0.00000000000E+00  0.74505805969E-08  0.10566000000E+00  0.10566000000E+00 0. -1.
     999900   -1    0    0    0    0 -0.00000000000E+00 -0.00000000000E+00 -0.74505805969E-08  0.93827000000E+00  0.93827000000E+00 0. -1.
     999902    2    1    2    0    0 -0.10920004121E-01  0.16003254092E-01 -0.13268130282E-01  0.10204482217E+01  0.10201780135E+01 0.  0.
     999903    2    3    3    0    0 -0.32118996532E-01  0.90410663155E-01  0.86600560884E-01  0.13142650357E+00  0.23823323571E-01 0.  0.
         14    1    1    2    0    0  0.10920004121E-01 -0.16003254092E-01  0.13268130282E-01  0.23481778312E-01  0.00000000000E+00 0.  1.
     999901    1    3    3    0    0  0.21198992411E-01 -0.74407409063E-01 -0.99868691167E-01  0.88902171811E+00  0.88000000000E+00 0.  1.
        -11    1    4    4    0    0 -0.21085598217E-01  0.56604515782E-01  0.69126174793E-01  0.91800668960E-01  0.51100000000E-03 0.  1.
         11    1    4    4    0    0 -0.11033398314E-01  0.33806147373E-01  0.17474386091E-01  0.39625834614E-01  0.51100000000E-03 0. -1.
</event>
<event>
 8    1  0.1086486E+005  0.1043930E+01  0.7957747E-01            NaN
         13   -1    0    0    0    0  0.00000000000E+00  0.00000000000E+00  0.74505805969E-08  0.10566000000E+00  0.10566000000E+00 0.  1.
     999900   -1    0    0    0    0 -0.00000000000E+00 -0.00000000000E+00 -0.74505805969E-08  0.93827000000E+00  0.93827000000E+00 0. -1.
     999902    2    1    2    0    0 -0.80104873815E-02 -0.22033102598E-01  0.37328401327E-02  0.10201905894E+01  0.10199143489E+01 0.  0.
     999903    2    3    3    0    0 -0.39542333150E-01 -0.11570943041E+00 -0.48910662788E-01  0.13309372320E+00  0.19220245186E-01 0.  0.
         14    1    1    2    0    0  0.80104873815E-02  0.22033102598E-01 -0.37328401327E-02  0.23739410558E-01  0.00000000000E+00 0. -1.
     999901    1    3    3    0    0  0.31531845769E-01  0.93676327812E-01  0.52643502921E-01  0.88709686624E+00  0.88000000000E+00 0.  1.
        -11    1    4    4    0    0 -0.17370816031E-01 -0.52791077184E-01 -0.32535919054E-01  0.64401011091E-01  0.51100000000E-03 0.  1.
         11    1    4    4    0    0 -0.22171517119E-01 -0.62918353226E-01 -0.16374743735E-01  0.68692712113E-01  0.51100000000E-03 0. -1.
</event>
<event>
 8    1  0.1086486E+005  0.1043930E+01  0.7957747E-01            NaN
         13   -1    0    0    0    0  0.00000000000E+00  0.00000000000E+00  0.74505805969E-08  0.10566000000E+00  0.10566000000E+00 0. -1.
     999900   -1    0    0    0    0 -0.00000000000E+00 -0.00000000000E+00 -0.74505805969E-08  0.93827000000E+00  0.93827000000E+00 0. -1.
     999902    2    1    2    0    0 -0.66656417121E-03  0.22031564417E-01  0.87748085306E-02  0.10202059320E+01  0.10199300526E+01 0.  0.
     999903    2    3    3    0    0 -0.85405052492E-01  0.34931896326E-01 -0.89981570525E-01  0.13054315746E+00  0.20750242263E-01 0.  0.
         14    1    1    2    0    0  0.66656417121E-03 -0.22031564417E-01 -0.87748085306E-02  0.23724068015E-01  0.00000000000E+00 0. -1.
     999901    1    3    3    0    0  0.84738488321E-01 -0.12900331909E-01  0.98756379056E-01  0.88966277452E+00  0.88000000000E+00 0.  1.
        -11    1    4    4    0    0 -0.38535867668E-01  0.26712171740E-01 -0.41684043054E-01  0.62740527432E-01  0.51100000000E-03 0. -1.
         11    1    4    4    0    0 -0.46869184824E-01  0.82197245860E-02 -0.48297527471E-01  0.67802630031E-01  0.51100000000E-03 0.  1.
</event>
<event>
 8    1  0.1086486E+005  0.1043930E+01  0.7957747E-01            NaN
         13   -1    0    0    0    0  0.00000000000E+00  0.00000000000E+00  0.74505805969E-08  0.10566000000E+00  0.10566000000E+00 0.  1.
     999900   -1    0    0    0    0 -0.00000000000E+00 -0.00000000000E+00 -0.74505805969E-08  0.93827000000E+00  0.93827000000E+00 0. -1.
     999902    2    1    2    0    0 -0.17221055159E-01 -0.19954080175E-02 -0.15038859926E-01  0.10209797560E+01  0.10207217781E+01 0.  0.
     999903    2    3    3    0    0  0.58706823359E-01  0.98096161828E-01  0.56671444473E-01  0.12916938774E+00  0.20093034531E-01 0.  0.
         14    1    1    2    0    0  0.17221055159E-01  0.19954080175E-02  0.15038859926E-01  0.22950244047E-01  0.00000000000E+00 0.  1.
     999901    1    3    3    0    0 -0.75927878519E-01 -0.10009156985E+00 -0.71710304399E-01  0.89181036821E+00  0.88000000000E+00 0. -1.
        -11    1    4    4    0    0  0.31897870116E-01  0.71552372516E-01  0.38559760250E-01  0.87317423017E-01  0.51100000000E-03 0. -1.
         11    1    4    4    0    0  0.26808953243E-01  0.26543789312E-01  0.18111684223E-01  0.41851964726E-01  0.51100000000E-03 0.  1.
</event>
<event>
 8    1  0.1086486E+005  0.1043930E+01  0.7957747E-01            NaN
         13   -1    0    0    0    0  0.00000000000E+00  0.00000000000E+00  0.74505805969E-08  0.10566000000E+00  0.10566000000E+00 0.  1.
     999900   -1    0    0    0    0 -0.00000000000E+00 -0.00000000000E+00 -0.74505805969E-08  0.93827000000E+00  0.93827000000E+00 0. -1.
     999902    2    1    2    0    0  0.37231575454E-02  0.16131988662E-01  0.18342327318E-01  0.10192208128E+01  0.10189212537E+01 0.  0.
     999903    2    3    3    0    0 -0.37108515816E-01  0.12162577245E+00 -0.29424951134E-01  0.13069513684E+00  0.67468935896E-02 0.  0.
         14    1    1    2    0    0 -0.37231575454E-02 -0.16131988662E-01 -0.18342327318E-01  0.24709187193E-01  0.00000000000E+00 0. -1.
     999901    1    3    3    0    0  0.40831673361E-01 -0.10549378379E+00  0.47767278451E-01  0.88852567597E+00  0.88000000000E+00 0.  1.
        -11    1    4    4    0    0 -0.26780868546E-01  0.76941516233E-01 -0.18334119403E-01  0.83508160653E-01  0.51100000000E-03 0.  1.
         11    1    4    4    0    0 -0.10327647270E-01  0.44684256218E-01 -0.11090831730E-01  0.47186976184E-01  0.51100000000E-03 0. -1.
</event>
<event>
 8    1  0.1086486E+005  0.1043930E+01  0.7957747E-01            NaN
         13   -1    0    0    0    0  0.00000000000E+00  0.00000000000E+00  0.74505805969E-08  0.10566000000E+00  0.10566000000E+00 0.  1.
     999900   -1    0    0    0    0 -0.00000000000E+00 -0.00000000000E+00 -0.74505805969E-08  0.93827000000E+00  0.93827000000E+00 0.  1.
     999902    2    1    2    0    0 -0.22601135730E-01  0.96017647627E-03  0.74507605606E-02  0.10201130500E+01  0.10198349806E+01 0.  0.
     999903    2    3    3    0    0 -0.72984603908E-01 -0.89649753853E-02 -0.10669979965E+00  0.13125572009E+00  0.20882854725E-01 0.  0.
         14    1    1    2    0    0  0.22601135730E-01 -0.96017647627E-03 -0.74507605606E-02  0.23816950016E-01  0.00000000000E+00 0. -1.
     999901    1    3    3    0    0  0.50383468179E-01  0.99251518616E-02  0.11415056021E+00  0.88885732989E+00  0.88000000000E+00 0. -1.
        -11    1    4    4    0    0 -0.66061712383E-01 -0.14739787692E-02 -0.89480009044E-01  0.11123513652E+00  0.51100000000E-03 0.  1.
         11    1    4    4    0    0 -0.69228915251E-02 -0.74909966161E-02 -0.17219790602E-01  0.20020583576E-01  0.51100000000E-03 0. -1.
</event>
<event>
 8    1  0.1086486E+005  0.1043930E+01  0.7957747E-01            NaN
         13   -1    0    0    0    0  0.00000000000E+00  0.00000000000E+00  0.74505805969E-08  0.10566000000E+00  0.10566000000E+00 0. -1.
     999900   -1    0    0    0    0 -0.00000000000E+00 -0.00000000000E+00 -0.74505805969E-08  0.93827000000E+00  0.93827000000E+00 0.  1.
     999902    2    1    2    0    0  0.22425682142E-01  0.48976549459E-02  0.43686345326E-02  0.10205637164E+01  0.10202961903E+01 0.  0.
     999903    2    3    3    0    0 -0.81330911470E-01 -0.97174459967E-01 -0.90179442051E-02  0.12850802984E+00  0.19375179621E-01 0.  0.
         14    1    1    2    0    0 -0.22425682142E-01 -0.48976549459E-02 -0.43686345326E-02  0.23366283640E-01  0.00000000000E+00 0.  1.
     999901    1    3    3    0    0  0.10375659361E+00  0.10207211491E+00  0.13386578738E-01  0.89205568652E+00  0.88000000000E+00 0.  1.
        -11    1    4    4    0    0 -0.56885473378E-01 -0.73450797476E-01  0.12932601029E-02  0.92913456367E-01  0.51100000000E-03 0. -1.
         11    1    4    4    0    0 -0.24445438092E-01 -0.23723662491E-01 -0.10311204308E-01  0.35594573474E-01  0.51100000000E-03 0.  1.
</event>
<event>
 8    1  0.1086486E+005  0.1043930E+01  0.7957747E-01            NaN
         13   -1    0    0    0    0  0.00000000000E+00  0.00000000000E+00  0.74505805969E-08  0.10566000000E+00  0.10566000000E+00 0. -1.
     999900   -1    0    0    0    0 -0.00000000000E+00 -0.00000000000E+00 -0.74505805969E-08  0.93827000000E+00  0.93827000000E+00 0. -1.
     999902    2    1    2    0    0 -0.86425928749E-03  0.11825068547E-01 -0.20133124771E-01  0.10205650283E+01  0.10202975326E+01 0.  0.
     999903    2    3    3    0    0  0.50981434940E-01  0.88392969233E-01 -0.83577875782E-01  0.13344843174E+00  0.20268174471E-01 0.  0.
         14    1    1    2    0    0  0.86425928749E-03 -0.11825068547E-01  0.20133124771E-01  0.23364971716E-01  0.00000000000E+00 0. -1.
     999901    1    3    3    0    0 -0.51845694228E-01 -0.76567900686E-01  0.63444751010E-01  0.88711659654E+00  0.88000000000E+00 0.  1.
        -11    1    4    4    0    0  0.23324796654E-01  0.39671465772E-01 -0.50760597763E-01  0.68518397103E-01  0.51100000000E-03 0. -1.
         11    1    4    4    0    0  0.27656638287E-01  0.48721503461E-01 -0.32817278019E-01  0.64930034641E-01  0.51100000000E-03 0.  1.
</event>
<event>
 8    1  0.1086486E+005  0.1043930E+01  0.7957747E-01            NaN
         13   -1    0    0    0    0  0.00000000000E+00  0.00000000000E+00  0.74505805969E-08  0.10566000000E+00  0.10566000000E+00 0.  1.
     999900   -1    0    0    0    0 -0.00000000000E+00 -0.00000000000E+00 -0.74505805969E-08  0.93827000000E+00  0.93827000000E+00 0.  1.
     999902    2    1    2    0    0  0.16345150137E-01 -0.12662673151E-02  0.18614186309E-01  0.10191256597E+01  0.10188237605E+01 0.  0.
     999903    2    3    3    0    0  0.97265611680E-01 -0.61758293421E-01 -0.57304363749E-01  0.13009752034E+00  0.19154338238E-01 0.  0.
         14    1    1    2    0    0 -0.16345150137E-01  0.12662673151E-02 -0.18614186309E-01  0.24804340303E-01  0.00000000000E+00 0. -1.
     999901    1    3    3    0    0 -0.80920461543E-01  0.60492026106E-01  0.75918550057E-01  0.88902813935E+00  0.88000000000E+00 0. -1.
        -11    1    4    4    0    0  0.84835955729E-01 -0.46188271518E-01 -0.50762151112E-01  0.10912173439E+00  0.51100000000E-03 0. -1.
         11    1    4    4    0    0  0.12429655951E-01 -0.15570021903E-01 -0.65422126368E-02  0.20975785952E-01  0.51100000000E-03 0.  1.
</event>
<event>
 8    1  0.1086486E+005  0.1043930E+01  0.7957747E-01            NaN
         13   -1    0    0    0    0  0.00000000000E+00  0.00000000000E+00  0.74505805969E-08  0.10566000000E+00  0.10566000000E+00 0. -1.
     999900   -1    0    0    0    0 -0.00000000000E+00 -0.00000000000E+00 -0.74505805969E-08  0.93827000000E+00  0.93827000000E+00 0.  1.
     999902    2    1    2    0    0 -0.38788370929E-02  0.54631828746E-02  0.22513308586E-01  0.10204408364E+01  0.10201704562E+01 0.  0.
     999903    2    3    3    0    0  0.12686372931E+00  0.20433513885E-01  0.57786272158E-02  0.13049826573E+00  0.22010691102E-01 0.  0.
         14    1    1    2    0    0  0.38788370929E-02 -0.54631828746E-02 -0.22513308586E-01  0.23489163625E-01  0.00000000000E+00 0.  1.
     999901    1    3    3    0    0 -0.13074256640E+00 -0.14970331010E-01  0.16734681370E-01  0.88994257064E+00  0.88000000000E+00 0. -1.
        -11    1    4    4    0    0  0.50845900097E-01 -0.81094858530E-03 -0.37497620528E-02  0.50992990016E-01  0.51100000000E-03 0. -1.
         11    1    4    4    0    0  0.76017829213E-01  0.21244462470E-01  0.95283892686E-02  0.79505275717E-01  0.51100000000E-03 0.  1.
</event>
<event>
 8    1  0.1086486E+005  0.1043930E+01  0.7957747E-01            NaN
         13   -1    0    0    0    0  0.00000000000E+00  0.00000000000E+00  0.74505805969E-08  0.10566000000E+00  0.10566000000E+00 0.  1.
     999900   -1    0    0    0    0 -0.00000000000E+00 -0.00000000000E+00 -0.74505805969E-08  0.93827000000E+00  0.93827000000E+00 0.  1.
     999902    2    1    2    0    0  0.13769176260E-02 -0.33325609331E-02  0.23225871793E-01  0.10204258943E+01  0.10201551660E+01 0.  0.
     999903    2    3    3    0    0 -0.20801055129E-01  0.10633752717E+00 -0.66607900110E-01  0.12880405894E+00  0.20335182938E-01 0.  0.
         14    1    1    2    0    0 -0.13769176260E-02  0.33325609331E-02 -0.23225871793E-01  0.23504105706E-01  0.00000000000E+00 0. -1.
     999901    1    3    3    0    0  0.22177972755E-01 -0.10967008810E+00  0.89833771902E-01  0.89162183535E+00  0.88000000000E+00 0. -1.
        -11    1    4    4    0    0 -0.17327522035E-01  0.82255970594E-01 -0.41180989755E-01  0.93607813544E-01  0.51100000000E-03 0. -1.
         11    1    4    4    0    0 -0.34735330944E-02  0.24081556572E-01 -0.25426910354E-01  0.35196245400E-01  0.51100000000E-03 0.  1.
</event>
<event>
 8    1  0.1086486E+005  0.1043930E+01  0.7957747E-01            NaN
         13   -1    0    0    0    0  0.00000000000E+00  0.00000000000E+00  0.74505805969E-08  0.10566000000E+00  0.10566000000E+00 0. -1.
     999900   -1    0    0    0    0 -0.00000000000E+00 -0.00000000000E+00 -0.74505805969E-08  0.93827000000E+00  0.93827000000E+00 0.  1.
     999902    2    1    2    0    0 -0.66976477309E-02  0.16109398053E-02 -0.23249195673E-01  0.10196817277E+01  0.10193933721E+01 0.  0.
     999903    2    3    3    0    0 -0.23920657998E-01 -0.13008545408E-01 -0.12894805287E+00  0.13306872874E+00  0.18392011825E-01 0.  0.
         14    1    1    2    0    0  0.66976477309E-02 -0.16109398053E-02  0.23249195673E-01  0.24248272343E-01  0.00000000000E+00 0. -1.
     999901    1    3    3    0    0  0.17223010267E-01  0.14619485214E-01  0.10569885719E+00  0.88661299891E+00  0.88000000000E+00 0. -1.
        -11    1    4    4    0    0 -0.18052403164E-01 -0.17187962073E-01 -0.11002076259E+00  0.11281021506E+00  0.51100000000E-03 0. -1.
         11    1    4    4    0    0 -0.58682548339E-02  0.41794166649E-02 -0.18927290271E-01  0.20258513679E-01  0.51100000000E-03 0.  1.
</event>
<event>
 8    1  0.1086486E+005  0.1043930E+01  0.7957747E-01            NaN
         13   -1    0    0    0    0  0.00000000000E+00  0.00000000000E+00  0.74505805969E-08  0.10566000000E+00  0.10566000000E+00 0. -1.
     999900   -1    0    0    0    0 -0.00000000000E+00 -0.00000000000E+00 -0.74505805969E-08  0.93827000000E+00  0.93827000000E+00 0. -1.
     999902    2    1    2    0    0 -0.65028631649E-02 -0.13663740975E-01 -0.19719809591E-01  0.10190732919E+01  0.10187701008E+01 0.  0.
     999903    2    3    3    0    0  0.12096354520E-01 -0.59694318152E-01  0.11080992879E+00  0.12806108238E+00  0.20274789480E-01 0.  0.
         14    1    1    2    0    0  0.65028631649E-02  0.13663740975E-01  0.19719809591E-01  0.24856708090E-01  0.00000000000E+00 0. -1.
     999901    1    3    3    0    0 -0.18599217685E-01  0.46030577178E-01 -0.13052973838E+00  0.89101220953E+00  0.88000000000E+00 0. -1.
        -11    1    4    4    0    0  0.14355228844E-01 -0.21439329468E-01  0.47367425546E-01  0.53941186186E-01  0.51100000000E-03 0. -1.
         11    1    4    4    0    0 -0.22588743240E-02 -0.38254988684E-01  0.63442503245E-01  0.74119896192E-01  0.51100000000E-03 0.  1.
</event>
<event>
 8    1  0.1086486E+005  0.1043930E+01  0.7957747E-01            NaN
         13   -1    0    0    0    0  0.00000000000E+00  0.00000000000E+00  0.74505805969E-08  0.10566000000E+00  0.10566000000E+00 0. -1.
     999900   -1    0    0    0    0 -0.00000000000E+00 -0.00000000000E+00 -0.74505805969E-08  0.93827000000E+00  0.93827000000E+00 0. -1.
     999902    2    1    2    0    0  0.22462276399E-01 -0.79302525768E-02  0.41115346233E-02  0.10197567196E+01  0.10194701662E+01 0.  0.
     999903    2    3    3    0    0  0.18242105097E-03  0.48993141501E-01  0.11885758397E+00  0.13020440493E+00  0.20632513309E-01 0.  0.
         14    1    1    2    0    0 -0.22462276399E-01  0.79302525768E-02 -0.41115346233E-02  0.24173280371E-01  0.00000000000E+00 0.  1.
     999901    1    3    3    0    0  0.22279855348E-01 -0.56923394078E-01 -0.11474604934E+00  0.88955231470E+00  0.88000000000E+00 0. -1.
        -11    1    4    4    0    0  0.51977427339E-02  0.17610632178E-01  0.66165867840E-01  0.68668290231E-01  0.51100000000E-03 0. -1.
         11    1    4    4    0    0 -0.50153216830E-02  0.31382509322E-01  0.52691716125E-01  0.61536114698E-01  0.51100000000E-03 0.  1.
</event>
<event>
 7    1  0.1086486E+005  0.1043930E+01  0.7957747E-01            NaN
         13   -1    0    0    0    0  0.00000000000E+00  0.00000000000E+00  0.74505805969E-08  0.10566000000E+00  0.10566000000E+00 0. -1.
     999900   -1    0    0    0    0 -0.00000000000E+00 -0.00000000000E+00 -0.74505805969E-08  0.93827000000E+00  0.93827000000E+00 0.  1.
     999902    2    1    2    0    0 -0.92580076866E-02 -0.14666565315E-01 -0.15456031410E-01  0.10206983890E+01  0.10204339731E+01 0.  0.
         14    1    1    2    0    0  0.92580076866E-02  0.14666565315E-01  0.15456031410E-01  0.23231611038E-01  0.00000000000E+00 0. -1.
     999901    1    3    3    0    0  0.10247878438E+00  0.33845915702E-01 -0.42987343044E-01  0.88763469903E+00  0.88000000000E+00 0.  1.
        -11    1    3    3    0    0 -0.57205012988E-01 -0.20549396997E-01  0.36835356797E-01  0.71075986516E-01  0.51100000000E-03 0. -1.
         11    1    3    3    0    0 -0.54531779080E-01 -0.27963084020E-01 -0.93040451628E-02  0.61987703417E-01  0.51100000000E-03 0.  1.
</event>
<event>
 8    1  0.1086486E+005  0.1043930E+01  0.7957747E-01            NaN
         13   -1    0    0    0    0  0.00000000000E+00  0.00000000000E+00  0.74505805969E-08  0.10566000000E+00  0.10566000000E+00 0.  1.
     999900   -1    0    0    0    0 -0.00000000000E+00 -0.00000000000E+00 -0.74505805969E-08  0.93827000000E+00  0.93827000000E+00 0.  1.
     999902    2    1    2    0    0  0.19479792262E-01 -0.15007545706E-02 -0.13465106472E-01  0.10202018803E+01  0.10199259056E+01 0.  0.
     999903    2    3    3    0    0 -0.65436182456E-01  0.56798573155E-01  0.92472298363E-01  0.12788340124E+00  0.17177498703E-01 0.  0.
         14    1    1    2    0    0 -0.19479792262E-01  0.15007545706E-02  0.13465106472E-01  0.23728119672E-01  0.00000000000E+00 0. -1.
     999901    1    3    3    0    0  0.84915974718E-01 -0.58299327726E-01 -0.10593740484E+00  0.89231847909E+00  0.88000000000E+00 0.  1.
        -11    1    4    4    0    0 -0.14917107264E-01  0.13331218381E-01  0.11764273627E-01  0.23214235452E-01  0.51100000000E-03 0. -1.
         11    1    4    4    0    0 -0.50519075192E-01  0.43467354775E-01  0.80708024736E-01  0.10466916579E+00  0.51100000000E-03 0.  1.
</event>
<event>
 8    1  0.1086486E+005  0.1043930E+01  0.7957747E-01            NaN
         13   -1    0    0    0    0  0.00000000000E+00  0.00000000000E+00  0.74505805969E-08  0.10566000000E+00  0.10566000000E+00 0. -1.
     999900   -1    0    0    0    0 -0.00000000000E+00 -0.00000000000E+00 -0.74505805969E-08  0.93827000000E+00  0.93827000000E+00 0.  1.
     999902    2    1    2    0    0  0.82358089670E-02  0.23154961090E-01  0.73195856134E-03  0.10193430820E+01  0.10190465163E+01 0.  0.
     999903    2    3    3    0    0  0.76088841949E-01  0.30641123382E-01 -0.10010269744E+00  0.13095819665E+00  0.20027703902E-01 0.  0.
         14    1    1    2    0    0 -0.82358089670E-02 -0.23154961090E-01 -0.73195856134E-03  0.24586917980E-01  0.00000000000E+00 0. -1.
     999901    1    3    3    0    0 -0.67853032982E-01 -0.74861622919E-02  0.10083465600E+00  0.88838488537E+00  0.88000000000E+00 0. -1.
        -11    1    4    4    0    0  0.48279683851E-01  0.17174517167E-01 -0.47090112586E-01  0.69596204905E-01  0.51100000000E-03 0.  1.
         11    1    4    4    0    0  0.27809158097E-01  0.13466606215E-01 -0.53012584850E-01  0.61361991742E-01  0.51100000000E-03 0. -1.
</event>
<event>
 8    1  0.1086486E+005  0.1043930E+01  0.7957747E-01            NaN
         13   -1    0    0    0    0  0.00000000000E+00  0.00000000000E+00  0.74505805969E-08  0.10566000000E+00  0.10566000000E+00 0.  1.
     999900   -1    0    0    0    0 -0.00000000000E+00 -0.00000000000E+00 -0.74505805969E-08  0.93827000000E+00  0.93827000000E+00 0.  1.
     999902    2    1    2    0    0  0.11145899663E-01  0.11537967594E-01 -0.18695880462E-01  0.10192948275E+01  0.10189970823E+01 0.  0.
     999903    2    3    3    0    0  0.93263671203E-01 -0.83428018999E-01  0.25274354781E-01  0.12929749688E+00  0.20511045047E-01 0.  0.
         14    1    1    2    0    0 -0.11145899663E-01 -0.11537967594E-01  0.18695880462E-01  0.24635172453E-01  0.00000000000E+00 0.  1.
     999901    1    3    3    0    0 -0.82117771539E-01  0.94965986593E-01 -0.43970235243E-01  0.88999733067E+00  0.88000000000E+00 0. -1.
        -11    1    4    4    0    0  0.72475035132E-01 -0.53357868685E-01  0.14322492477E-01  0.91132254333E-01  0.51100000000E-03 0. -1.
         11    1    4    4    0    0  0.20788636070E-01 -0.30070150314E-01  0.10951862304E-01  0.38165242545E-01  0.51100000000E-03 0.  1.
</event>
<event>
 8    1  0.1086486E+005  0.1043930E+01  0.7957747E-01            NaN
         13   -1    0    0    0    0  0.00000000000E+00  0.00000000000E+00  0.74505805969E-08  0.10566000000E+00  0.10566000000E+00 0. -1.
     999900   -1    0    0    0    0 -0.00000000000E+00 -0.00000000000E+00 -0.74505805969E-08  0.93827000000E+00  0.93827000000E+00 0.  1.
     999902    2    1    2    0    0 -0.13910630193E-01 -0.10987601007E-01 -0.16126830407E-01  0.10199652829E+01  0.10196837111E+01 0.  0.
     999903    2    3    3    0    0 -0.12168656085E+00 -0.47633460518E-01 -0.11685365109E-01  0.13262189000E+00  0.19376591493E-01 0.  0.
         14    1    1    2    0    0  0.13910630193E-01  0.10987601007E-01  0.16126830407E-01  0.23964717132E-01  0.00000000000E+00 0. -1.
     999901    1    3    3    0    0  0.10777593066E+00  0.36645859511E-01 -0.44414652977E-02  0.88734339287E+00  0.88000000000E+00 0. -1.
        -11    1    4    4    0    0 -0.67763245008E-01 -0.24531606314E-01  0.30514822691E-02  0.72133416302E-01  0.51100000000E-03 0.  1.
         11    1    4    4    0    0 -0.53923315840E-01 -0.23101854205E-01 -0.14736847378E-01  0.60488473700E-01  0.51100000000E-03 0. -1.
</event>
<event>
 8    1  0.1086486E+005  0.1043930E+01  0.7957747E-01            NaN
         13   -1    0    0    0    0  0.00000000000E+00  0.00000000000E+00  0.74505805969E-08  0.10566000000E+00  0.10566000000E+00 0. -1.
     999900   -1    0    0    0    0 -0.00000000000E+00 -0.00000000000E+00 -0.74505805969E-08  0.93827000000E+00  0.93827000000E+00 0. -1.
     999902    2    1    2    0    0  0.17094543976E-01  0.91778148619E-03 -0.60793644332E-02  0.10257634255E+01  0.10256025452E+01 0.  0.
     999903    2    3    3    0    0 -0.11869741129E+00 -0.53940646636E-01  0.18942975409E-01  0.13330893382E+00  0.20341256407E-01 0.  0.
         14    1    1    2    0    0 -0.17094543976E-01 -0.91778148619E-03  0.60793644332E-02  0.18166574485E-01  0.00000000000E+00 0. -1.
     999901    1    3    3    0    0  0.13579195527E+00  0.54858428122E-01 -0.25022339842E-01  0.89245449169E+00  0.88000000000E+00 0. -1.
        -11    1    4    4    0    0 -0.12472549693E-01 -0.13141723918E-01  0.37250731372E-02  0.18504234495E-01  0.51100000000E-03 0.  1.
         11    1    4    4    0    0 -0.10622486160E+00 -0.40798922718E-01  0.15217902272E-01  0.11480469933E+00  0.51100000000E-03 0. -1.
</event>
<event>
 8    1  0.1929385E+005  0.1043930E+01  0.7957747E-01            NaN
         13   -1    0    0    0    0  0.00000000000E+00  0.00000000000E+00  0.74505805969E-08  0.10566000000E+00  0.10566000000E+00 0.  1.
     999900   -1    0    0    0    0 -0.00000000000E+00 -0.00000000000E+00 -0.74505805969E-08  0.93827000000E+00  0.93827000000E+00 0.  1.
     999902    2    1    2    0    0  0.24785192869E-01 -0.81808196141E-02 -0.13555873202E-03  0.10178292343E+01  0.10174945210E+01 0.  0.
     999903    2    3    3    0    0  0.33517380925E-01  0.23000766581E-01 -0.12077611593E+00  0.12900828129E+00  0.20095182894E-01 0.  0.
         14    1    1    2    0    0 -0.24785192869E-01  0.81808196141E-02  0.13555873202E-03  0.26100765722E-01  0.00000000000E+00 0.  1.
     999901    1    3    3    0    0 -0.87321880556E-02 -0.31181586195E-01  0.12064055720E+00  0.88882095299E+00  0.88000000000E+00 0. -1.
        -11    1    4    4    0    0  0.18599540585E-01  0.22307161268E-01 -0.63737913636E-01  0.70045236166E-01  0.51100000000E-03 0. -1.
         11    1    4    4    0    0  0.14917840340E-01  0.69360531303E-03 -0.57038202293E-01  0.58963045126E-01  0.51100000000E-03 0.  1.
</event>
<event>
 8    1  0.1086486E+005  0.1043930E+01  0.7957747E-01            NaN
         13   -1    0    0    0    0  0.00000000000E+00  0.00000000000E+00  0.74505805969E-08  0.10566000000E+00  0.10566000000E+00 0. -1.
     999900   -1    0    0    0    0 -0.00000000000E+00 -0.00000000000E+00 -0.74505805969E-08  0.93827000000E+00  0.93827000000E+00 0. -1.
     999902    2    1    2    0    0  0.10755052550E-01  0.97583815870E-02  0.19126433285E-01  0.10199150543E+01  0.10196322868E+01 0.  0.
     999903    2    3    3    0    0 -0.11857769079E+00 -0.45379100215E-01 -0.40904746916E-02  0.12845214133E+00  0.19060145322E-01 0.  0.
         14    1    1    2    0    0 -0.10755052550E-01 -0.97583815870E-02 -0.19126433285E-01  0.24014945695E-01  0.00000000000E+00 0.  1.
     999901    1    3    3    0    0  0.12933274334E+00  0.55137481802E-01  0.23216907977E-01  0.89146291298E+00  0.88000000000E+00 0.  1.
        -11    1    4    4    0    0 -0.42397407629E-01 -0.20270836261E-01  0.68608113226E-02  0.47495040050E-01  0.51100000000E-03 0. -1.
         11    1    4    4    0    0 -0.76180283158E-01 -0.25108263954E-01 -0.10951286014E-01  0.80957101277E-01  0.51100000000E-03 0.  1.
</event>
<event>
 8    1  0.1086486E+005  0.1043930E+01  0.7957747E-01            NaN
         13   -1    0    0    0    0  0.00000000000E+00  0.00000000000E+00  0.74505805969E-08  0.10566000000E+00  0.10566000000E+00 0. -1.
     999900   -1    0    0    0    0 -0.00000000000E+00 -0.00000000000E+00 -0.74505805969E-08  0.93827000000E+00  0.93827000000E+00 0.  1.
     999902    2    1    2    0    0  0.12346508385E-01  0.16110789859E-01  0.13508961907E-01  0.10195479191E+01  0.10192563335E+01 0.  0.
     999903    2    3    3    0    0 -0.54473314353E-01 -0.11085852863E+00 -0.24256112581E-01  0.12712856842E+00  0.17786471374E-01 0.  0.
         14    1    1    2    0    0 -0.12346508385E-01 -0.16110789859E-01 -0.13508961907E-01  0.24382080940E-01  0.00000000000E+00 0.  1.
     999901    1    3    3    0    0  0.66819822738E-01  0.12696931849E+00  0.37765074487E-01  0.89241935064E+00  0.88000000000E+00 0.  1.
        -11    1    4    4    0    0 -0.46537763646E-01 -0.81732691393E-01 -0.23413423387E-01  0.96924949333E-01  0.51100000000E-03 0. -1.
         11    1    4    4    0    0 -0.79355507075E-02 -0.29125837236E-01 -0.84268919379E-03  0.30203619085E-01  0.51100000000E-03 0.  1.
</event>
<event>
 8    1  0.1086486E+005  0.1043930E+01  0.7957747E-01            NaN
         13   -1    0    0    0    0  0.00000000000E+00  0.00000000000E+00  0.74505805969E-08  0.10566000000E+00  0.10566000000E+00 0. -1.
     999900   -1    0    0    0    0 -0.00000000000E+00 -0.00000000000E+00 -0.74505805969E-08  0.93827000000E+00  0.93827000000E+00 0.  1.
     999902    2    1    2    0    0 -0.19166166453E-01 -0.40926570993E-02  0.90227841219E-02  0.10223544951E+01  0.10221268078E+01 0.  0.
     999903    2    3    3    0    0 -0.27538566730E-01 -0.50143267268E-01 -0.11734594070E+00  0.13209621212E+00  0.20164809694E-01 0.  0.
         14    1    1    2    0    0  0.19166166453E-01  0.40926570993E-02 -0.90227841219E-02  0.21575504906E-01  0.00000000000E+00 0.  1.
     999901    1    3    3    0    0  0.83724002776E-02  0.46050610168E-01  0.12636872482E+00  0.89025828297E+00  0.88000000000E+00 0. -1.
        -11    1    4    4    0    0 -0.22518179943E-01 -0.30426282806E-01 -0.57133070915E-01  0.68536676507E-01  0.51100000000E-03 0. -1.
         11    1    4    4    0    0 -0.50203867873E-02 -0.19716984461E-01 -0.60212869781E-01  0.63559535618E-01  0.51100000000E-03 0.  1.
</event>
<event>
 8    1  0.1086486E+005  0.1043930E+01  0.7957747E-01            NaN
         13   -1    0    0    0    0  0.00000000000E+00  0.00000000000E+00  0.74505805969E-08  0.10566000000E+00  0.10566000000E+00 0.  1.
     999900   -1    0    0    0    0 -0.00000000000E+00 -0.00000000000E+00 -0.74505805969E-08  0.93827000000E+00  0.93827000000E+00 0.  1.
     999902    2    1    2    0    0 -0.19215647550E-01 -0.14902940048E-01 -0.10524565647E-02  0.10195897782E+01  0.10192992050E+01 0.  0.
     999903    2    3    3    0    0  0.27685096952E-01 -0.12456872435E+00 -0.22319731295E-01  0.13128883760E+00  0.21325027378E-01 0.  0.
         14    1    1    2    0    0  0.19215647550E-01  0.14902940048E-01  0.10524565647E-02  0.24340221808E-01  0.00000000000E+00 0.  1.
     999901    1    3    3    0    0 -0.46900744502E-01  0.10966578431E+00  0.21267274730E-01  0.88830094059E+00  0.88000000000E+00 0.  1.
        -11    1    4    4    0    0  0.26996047157E-01 -0.78388743764E-01 -0.18467551433E-01  0.84940527947E-01  0.51100000000E-03 0.  1.
         11    1    4    4    0    0  0.68904979473E-03 -0.46179980591E-01 -0.38521798621E-02  0.46348309653E-01  0.51100000000E-03 0. -1.
</event>
<event>
 8    1  0.1086486E+005  0.1043930E+01  0.7957747E-01            NaN
         13   -1    0    0    0    0  0.00000000000E+00  0.00000000000E+00  0.74505805969E-08  0.10566000000E+00  0.10566000000E+00 0.  1.
     999900   -1    0    0    0    0 -0.00000000000E+00 -0.00000000000E+00 -0.74505805969E-08  0.93827000000E+00  0.93827000000E+00 0.  1.
     999902    2    1    2    0    0  0.11637346785E-01  0.20161947411E-01  0.32151635483E-02  0.10204295906E+01  0.10201589485E+01 0.  0.
     999903    2    3    3    0    0 -0.88805754498E-01  0.56768930238E-01  0.75306081315E-01  0.13103317272E+00  0.19736083620E-01 0.  0.
         14    1    1    2    0    0 -0.11637346785E-01 -0.20161947411E-01 -0.32151635483E-02  0.23500409363E-01  0.00000000000E+00 0.  1.
     999901    1    3    3    0    0  0.10044310128E+00 -0.36606982827E-01 -0.72090917767E-01  0.88939641792E+00  0.88000000000E+00 0.  1.
        -11    1    4    4    0    0 -0.64829718337E-01  0.32785663354E-01  0.57965495476E-01  0.92941120544E-01  0.51100000000E-03 0.  1.
         11    1    4    4    0    0 -0.23976036161E-01  0.23983266884E-01  0.17340585839E-01  0.38092052172E-01  0.51100000000E-03 0. -1.
</event>
<event>
 8    1  0.1086486E+005  0.1043930E+01  0.7957747E-01            NaN
         13   -1    0    0    0    0  0.00000000000E+00  0.00000000000E+00  0.74505805969E-08  0.10566000000E+00  0.10566000000E+00 0. -1.
     999900   -1    0    0    0    0 -0.00000000000E+00 -0.00000000000E+00 -0.74505805969E-08  0.93827000000E+00  0.93827000000E+00 0. -1.
     999902    2    1    2    0    0  0.10394493540E-01 -0.23172156232E-01 -0.16152772422E-01  0.10138317214E+01  0.10133848493E+01 0.  0.
     999903    2    3    3    0    0  0.52966437151E-01 -0.50333687598E-01  0.99402055831E-01  0.12484182406E+00  0.19125604790E-01 0.  0.
         14    1    1    2    0    0 -0.10394493540E-01  0.23172156232E-01  0.16152772422E-01  0.30098278644E-01  0.00000000000E+00 0. -1.
     999901    1    3    3    0    0 -0.42571943611E-01  0.27161531366E-01 -0.11555482825E+00  0.88898989730E+00  0.88000000000E+00 0. -1.
        -11    1    4    4    0    0  0.27356278258E-01 -0.38342359724E-01  0.58347998663E-01  0.74988349617E-01  0.51100000000E-03 0. -1.
         11    1    4    4    0    0  0.25610158892E-01 -0.11991327875E-01  0.41054057168E-01  0.49853474439E-01  0.51100000000E-03 0.  1.
</event>
<event>
 8    1  0.1086486E+005  0.1043930E+01  0.7957747E-01            NaN
         13   -1    0    0    0    0  0.00000000000E+00  0.00000000000E+00  0.74505805969E-08  0.10566000000E+00  0.10566000000E+00 0. -1.
     999900   -1    0    0    0    0 -0.00000000000E+00 -0.00000000000E+00 -0.74505805969E-08  0.93827000000E+00  0.93827000000E+00 0. -1.
     999902    2    1    2    0    0  0.23617924618E-01 -0.10120032601E-01 -0.13408496236E-01  0.10149470879E+01  0.10145331843E+01 0.  0.
     999903    2    3    3    0    0 -0.38184512352E-01 -0.60968654132E-01 -0.10145865750E+00  0.12693923070E+00  0.25386518844E-01 0.  0.
         14    1    1    2    0    0 -0.23617924618E-01  0.10120032601E-01  0.13408496236E-01  0.28982912110E-01  0.00000000000E+00 0. -1.
     999901    1    3    3    0    0  0.61802436970E-01  0.50848621532E-01  0.88050161266E-01  0.88800785719E+00  0.88000000000E+00 0.  1.
        -11    1    4    4    0    0 -0.16834476779E-01 -0.48576808030E-01 -0.72565218052E-01  0.88932996569E-01  0.51100000000E-03 0. -1.
         11    1    4    4    0    0 -0.21350035573E-01 -0.12391846103E-01 -0.28893439449E-01  0.38006234133E-01  0.51100000000E-03 0.  1.
</event>
<event>
 8    1  0.1211236E+005  0.1043930E+01  0.7957747E-01            NaN
         13   -1    0    0    0    0  0.00000000000E+00  0.00000000000E+00  0.74505805969E-08  0.10566000000E+00  0.10566000000E+00 0. -1.
     999900   -1    0    0    0    0 -0.00000000000E+00 -0.00000000000E+00 -0.74505805969E-08  0.93827000000E+00  0.93827000000E+00 0.  1.
     999902    2    1    2    0    0  0.22849602356E-01 -0.46955297130E-02 -0.54420778921E-03  0.10205965800E+01  0.10203298146E+01 0.  0.
     999903    2    3    3    0    0  0.38187881784E-01 -0.10444364920E+00 -0.68804566053E-01  0.13220228315E+00  0.19405802898E-01 0.  0.
         14    1    1    2    0    0 -0.22849602356E-01  0.46955297130E-02  0.54420778921E-03  0.23333420007E-01  0.00000000000E+00 0.  1.
     999901    1    3    3    0    0 -0.15338279428E-01  0.99748119487E-01  0.68260358264E-01  0.88839429685E+00  0.88000000000E+00 0. -1.
        -11    1    4    4    0    0  0.17637101633E-01 -0.64840494630E-01 -0.32331950678E-01  0.74571933416E-01  0.51100000000E-03 0.  1.
         11    1    4    4    0    0  0.20550780150E-01 -0.39603154571E-01 -0.36472615376E-01  0.57630349731E-01  0.51100000000E-03 0. -1.
</event>
<event>
 8    1  0.1086486E+005  0.1043930E+01  0.7957747E-01            NaN
         13   -1    0    0    0    0  0.00000000000E+00  0.00000000000E+00  0.74505805969E-08  0.10566000000E+00  0.10566000000E+00 0.  1.
     999900   -1    0    0    0    0 -0.00000000000E+00 -0.00000000000E+00 -0.74505805969E-08  0.93827000000E+00  0.93827000000E+00 0. -1.
     999902    2    1    2    0    0  0.23465822718E-01  0.67478409768E-04  0.65110712399E-03  0.10204550489E+01  0.10201849996E+01 0.  0.
     999903    2    3    3    0    0  0.93118895792E-02 -0.12729663370E+00 -0.21052942900E-01  0.13090852584E+00  0.20066676201E-01 0.  0.
         14    1    1    2    0    0 -0.23465822718E-01 -0.67478409768E-04 -0.65110712399E-03  0.23474951111E-01  0.00000000000E+00 0.  1.
     999901    1    3    3    0    0  0.14153933139E-01  0.12736411211E+00  0.21704050024E-01  0.88954652305E+00  0.88000000000E+00 0. -1.
        -11    1    4    4    0    0  0.56671981028E-02 -0.67554073004E-01 -0.10586838369E-02  0.67801562269E-01  0.51100000000E-03 0.  1.
         11    1    4    4    0    0  0.36446914765E-02 -0.59742560700E-01 -0.19994259063E-01  0.63106963573E-01  0.51100000000E-03 0. -1.
</event>
<event>
 8    1  0.1086486E+005  0.1043930E+01  0.7957747E-01            NaN
         13   -1    0    0    0    0  0.00000000000E+00  0.00000000000E+00  0.74505805969E-08  0.10566000000E+00  0.10566000000E+00 0. -1.
     999900   -1    0    0    0    0 -0.00000000000E+00 -0.00000000000E+00 -0.74505805969E-08  0.93827000000E+00  0.93827000000E+00 0.  1.
     999902    2    1    2    0    0 -0.18523392495E-01  0.14866150508E-01 -0.85942752614E-02  0.10186717327E+01  0.10183585414E+01 0.  0.
     999903    2    3    3    0    0  0.11490762487E+00 -0.43373057584E-01  0.19450917443E-01  0.12626925925E+00  0.21922665559E-01 0.  0.
         14    1    1    2    0    0  0.18523392495E-01 -0.14866150508E-01  0.85942752614E-02  0.25258267314E-01  0.00000000000E+00 0.  1.
     999901    1    3    3    0    0 -0.13343101737E+00  0.58239208091E-01 -0.28045192704E-01  0.89240247343E+00  0.88000000000E+00 0. -1.
        -11    1    4    4    0    0  0.11463623577E-01 -0.66113617456E-02  0.89521792564E-02  0.15985224555E-01  0.51100000000E-03 0. -1.
         11    1    4    4    0    0  0.10344400130E+00 -0.36761695838E-01  0.10498738186E-01  0.11028403470E+00  0.51100000000E-03 0.  1.
</event>
<event>
 8    1  0.1086486E+005  0.1043930E+01  0.7957747E-01            NaN
         13   -1    0    0    0    0  0.00000000000E+00  0.00000000000E+00  0.74505805969E-08  0.10566000000E+00  0.10566000000E+00 0. -1.
     999900   -1    0    0    0    0 -0.00000000000E+00 -0.00000000000E+00 -0.74505805969E-08  0.93827000000E+00  0.93827000000E+00 0.  1.
     999902    2    1    2    0    0  0.64642616383E-02  0.20539899102E-01  0.63887283193E-02  0.10214691455E+01  0.10212221724E+01 0.  0.
     999903    2    3    3    0    0 -0.24326653555E-01  0.12827828988E+00  0.16218056436E-01  0.13430948854E+00  0.26998289396E-01 0.  0.
         14    1    1    2    0    0 -0.64642616383E-02 -0.20539899102E-01 -0.63887283193E-02  0.22460854463E-01  0.00000000000E+00 0.  1.
     999901    1    3    3    0    0  0.30790915193E-01 -0.10773839078E+00 -0.98293281167E-02  0.88715965699E+00  0.88000000000E+00 0.  1.
        -11    1    4    4    0    0  0.43796808478E-02  0.59810503858E-02 -0.10553983218E-02  0.75053017704E-02  0.51100000000E-03 0.  1.
         11    1    4    4    0    0 -0.28706334402E-01  0.12229723950E+00  0.17273454758E-01  0.12680418677E+00  0.51100000000E-03 0. -1.
</event>
<event>
 8    1  0.1086486E+005  0.1043930E+01  0.7957747E-01            NaN
         13   -1    0    0    0    0  0.00000000000E+00  0.00000000000E+00  0.74505805969E-08  0.10566000000E+00  0.10566000000E+00 0.  1.
     999900   -1    0    0    0    0 -0.00000000000E+00 -0.00000000000E+00 -0.74505805969E-08  0.93827000000E+00  0.93827000000E+00 0. -1.
     999902    2    1    2    0    0 -0.15684566880E-01  0.99234638669E-02 -0.11560733874E-01  0.10220637854E+01  0.10218298538E+01 0.  0.
     999903    2    3    3    0    0 -0.65485457553E-01  0.46690214533E-02 -0.11560130509E+00  0.13452100990E+00  0.20544961778E-01 0.  0.
         14    1    1    2    0    0  0.15684566880E-01 -0.99234638669E-02  0.11560733874E-01  0.21866214602E-01  0.00000000000E+00 0.  1.
     999901    1    3    3    0    0  0.49800890673E-01  0.52544424136E-02  0.10404057121E+00  0.88754277550E+00  0.88000000000E+00 0.  1.
        -11    1    4    4    0    0 -0.43222958292E-01  0.66547717967E-02 -0.57325919150E-01  0.72104314978E-01  0.51100000000E-03 0.  1.
         11    1    4    4    0    0 -0.22262499262E-01 -0.19857503434E-02 -0.58275385939E-01  0.62416694923E-01  0.51100000000E-03 0. -1.
</event>
<event>
 8    1  0.1086486E+005  0.1043930E+01  0.7957747E-01            NaN
         13   -1    0    0    0    0  0.00000000000E+00  0.00000000000E+00  0.74505805969E-08  0.10566000000E+00  0.10566000000E+00 0. -1.
     999900   -1    0    0    0    0 -0.00000000000E+00 -0.00000000000E+00 -0.74505805969E-08  0.93827000000E+00  0.93827000000E+00 0.  1.
     999902    2    1    2    0    0 -0.64527080013E-02 -0.17557671424E-01  0.14410358156E-01  0.10203171288E+01  0.10200438596E+01 0.  0.
     999903    2    3    3    0    0 -0.36209122020E-01 -0.12631720679E+00  0.12100148473E-01  0.13311962099E+00  0.17529479490E-01 0.  0.
         14    1    1    2    0    0  0.64527080013E-02  0.17557671424E-01 -0.14410358156E-01  0.23612871248E-01  0.00000000000E+00 0.  1.
     999901    1    3    3    0    0  0.29756414019E-01  0.10875953537E+00  0.23102096824E-02  0.88719750776E+00  0.88000000000E+00 0.  1.
        -11    1    4    4    0    0 -0.49869668393E-02 -0.18227989498E-01  0.80218884050E-02  0.20536339839E-01  0.51100000000E-03 0.  1.
         11    1    4    4    0    0 -0.31222155181E-01 -0.10808921729E+00  0.40782600682E-02  0.11258328115E+00  0.51100000000E-03 0. -1.
</event>
<event>
 8    1  0.1086486E+005  0.1043930E+01  0.7957747E-01            NaN
         13   -1    0    0    0    0  0.00000000000E+00  0.00000000000E+00  0.74505805969E-08  0.10566000000E+00  0.10566000000E+00 0.  1.
     999900   -1    0    0    0    0 -0.00000000000E+00 -0.00000000000E+00 -0.74505805969E-08  0.93827000000E+00  0.93827000000E+00 0. -1.
     999902    2    1    2    0    0 -0.16608911739E-01  0.16129760217E-01 -0.31497776240E-03  0.10207756413E+01  0.10205130012E+01 0.  0.
     999903    2    3    3    0    0  0.23807218391E-01 -0.12449151783E+00  0.84942029039E-02  0.12865154175E+00  0.20350578648E-01 0.  0.
         14    1    1    2    0    0  0.16608911739E-01 -0.16129760217E-01  0.31497776240E-03  0.23154358657E-01  0.00000000000E+00 0.  1.
     999901    1    3    3    0    0 -0.40416130131E-01  0.14062127805E+00 -0.88091806663E-02  0.89212409960E+00  0.88000000000E+00 0. -1.
        -11    1    4    4    0    0 -0.10101428639E-02 -0.34482462477E-01 -0.27366140756E-02  0.34609403125E-01  0.51100000000E-03 0.  1.
         11    1    4    4    0    0  0.24817361255E-01 -0.90009055356E-01  0.11230816980E-01  0.94042138623E-01  0.51100000000E-03 0. -1.
</event>
<event>
 8    1  0.1086486E+005  0.1043930E+01  0.7957747E-01            NaN
         13   -1    0    0    0    0  0.00000000000E+00  0.00000000000E+00  0.74505805969E-08  0.10566000000E+00  0.10566000000E+00 0.  1.
     999900   -1    0    0    0    0 -0.00000000000E+00 -0.00000000000E+00 -0.74505805969E-08  0.93827000000E+00  0.93827000000E+00 0. -1.
     999902    2    1    2    0    0 -0.11691167889E-01 -0.71882112615E-02  0.18754895722E-01  0.10206899505E+01  0.10204253403E+01 0.  0.
     999903    2    3    3    0    0 -0.36709998368E-01 -0.11426643179E+00 -0.48972551445E-01  0.13126390281E+00  0.20675105141E-01 0.  0.
         14    1    1    2    0    0  0.11691167889E-01  0.71882112615E-02 -0.18754895722E-01  0.23240049512E-01  0.00000000000E+00 0. -1.
     999901    1    3    3    0    0  0.25018830479E-01  0.10707822052E+00  0.67727447167E-01  0.88942604768E+00  0.88000000000E+00 0.  1.
        -11    1    4    4    0    0 -0.34927956584E-01 -0.78043158072E-01 -0.35208166348E-01  0.92469307187E-01  0.51100000000E-03 0. -1.
         11    1    4    4    0    0 -0.17820417837E-02 -0.36223273714E-01 -0.13764385097E-01  0.38794595623E-01  0.51100000000E-03 0.  1.
</event>
<event>
 8    1  0.1086486E+005  0.1043930E+01  0.7957747E-01            NaN
         13   -1    0    0    0    0  0.00000000000E+00  0.00000000000E+00  0.74505805969E-08  0.10566000000E+00  0.10566000000E+00 0.  1.
     999900   -1    0    0    0    0 -0.00000000000E+00 -0.00000000000E+00 -0.74505805969E-08  0.93827000000E+00  0.93827000000E+00 0. -1.
     999902    2    1    2    0    0  0.20666792394E-01 -0.10189768186E-01 -0.51776372808E-02  0.10203131498E+01  0.10200397875E+01 0.  0.
     999903    2    3    3    0    0  0.58597414535E-01  0.11046063300E+00 -0.34035701743E-01  0.13080315030E+00  0.17771513768E-01 0.  0.
         14    1    1    2    0    0 -0.20666792394E-01  0.10189768186E-01  0.51776372808E-02  0.23616850157E-01  0.00000000000E+00 0. -1.
     999901    1    3    3    0    0 -0.37930622141E-01 -0.12065040119E+00  0.28858064462E-01  0.88950999954E+00  0.88000000000E+00 0. -1.
        -11    1    4    4    0    0  0.47861100771E-01  0.81024205813E-01 -0.32008441003E-01  0.99400243013E-01  0.51100000000E-03 0.  1.
         11    1    4    4    0    0  0.10736313764E-01  0.29436427189E-01 -0.20272607398E-02  0.31402907286E-01  0.51100000000E-03 0. -1.
</event>
<event>
 8    1  0.1086486E+005  0.1043930E+01  0.7957747E-01            NaN
         13   -1    0    0    0    0  0.00000000000E+00  0.00000000000E+00  0.74505805969E-08  0.10566000000E+00  0.10566000000E+00 0.  1.
     999900   -1    0    0    0    0 -0.00000000000E+00 -0.00000000000E+00 -0.74505805969E-08  0.93827000000E+00  0.93827000000E+00 0.  1.
     999902    2    1    2    0    0 -0.10111878969E-01 -0.18112829880E-01 -0.11570960397E-01  0.10201768565E+01  0.10199002925E+01 0.  0.
     999903    2    3    3    0    0  0.37121167506E-03 -0.20789763849E-01  0.12618864848E+00  0.12939362190E+00  0.19666781779E-01 0.  0.
         14    1    1    2    0    0  0.10111878969E-01  0.18112829880E-01  0.11570960397E-01  0.23753143519E-01  0.00000000000E+00 0.  1.
     999901    1    3    3    0    0 -0.10483090644E-01  0.26769339691E-02 -0.13775960888E+00  0.89078323458E+00  0.88000000000E+00 0.  1.
        -11    1    4    4    0    0 -0.96088609559E-02 -0.94736105920E-02  0.62010470484E-01  0.63463683136E-01  0.51100000000E-03 0. -1.
         11    1    4    4    0    0  0.99800726310E-02 -0.11316153257E-01  0.64178177995E-01  0.65929938769E-01  0.51100000000E-03 0.  1.
</event>
<event>
 8    1  0.1086486E+005  0.1043930E+01  0.7957747E-01            NaN
         13   -1    0    0    0    0  0.00000000000E+00  0.00000000000E+00  0.74505805969E-08  0.10566000000E+00  0.10566000000E+00 0.  1.
     999900   -1    0    0    0    0 -0.00000000000E+00 -0.00000000000E+00 -0.74505805969E-08  0.93827000000E+00  0.93827000000E+00 0. -1.
     999902    2    1    2    0    0  0.14587663726E-01 -0.11620882386E-01 -0.20040573930E-01  0.10165535604E+01  0.10161848610E+01 0.  0.
     999903    2    3    3    0    0  0.43828491605E-01  0.10308793593E+00  0.48176376651E-01  0.12601064099E+00  0.31775134358E-01 0.  0.
         14    1    1    2    0    0 -0.14587663726E-01  0.11620882386E-01  0.20040573930E-01  0.27376439575E-01  0.00000000000E+00 0.  1.
     999901    1    3    3    0    0 -0.29240827880E-01 -0.11470881832E+00 -0.68216950581E-01  0.89054291944E+00  0.88000000000E+00 0. -1.
        -11    1    4    4    0    0  0.22384446926E-02  0.16319999808E-01 -0.34142957200E-02  0.16830673327E-01  0.51100000000E-03 0. -1.
         11    1    4    4    0    0  0.41590046913E-01  0.86767936124E-01  0.51590672371E-01  0.10917996766E+00  0.51100000000E-03 0.  1.
</event>
<event>
 8    1  0.1086486E+005  0.1043930E+01  0.7957747E-01            NaN
         13   -1    0    0    0    0  0.00000000000E+00  0.00000000000E+00  0.74505805969E-08  0.10566000000E+00  0.10566000000E+00 0.  1.
     999900   -1    0    0    0    0 -0.00000000000E+00 -0.00000000000E+00 -0.74505805969E-08  0.93827000000E+00  0.93827000000E+00 0.  1.
     999902    2    1    2    0    0 -0.12485936576E-01 -0.80995410764E-02 -0.19305552964E-01  0.10195536682E+01  0.10192622218E+01 0.  0.
     999903    2    3    3    0    0  0.11749257013E+00 -0.44257402248E-01  0.18660150492E-01  0.12846265276E+00  0.19779541141E-01 0.  0.
         14    1    1    2    0    0  0.12485936576E-01  0.80995410764E-02  0.19305552964E-01  0.24376331821E-01  0.00000000000E+00 0.  1.
     999901    1    3    3    0    0 -0.12997850670E+00  0.36157861172E-01 -0.37965703456E-01  0.89109101542E+00  0.88000000000E+00 0.  1.
        -11    1    4    4    0    0  0.48606780673E-01 -0.28767125735E-01  0.75555183799E-02  0.56986960171E-01  0.51100000000E-03 0.  1.
         11    1    4    4    0    0  0.68885789454E-01 -0.15490276513E-01  0.11104632112E-01  0.71475692585E-01  0.51100000000E-03 0. -1.
</event>
<event>
 8    1  0.1086486E+005  0.1043930E+01  0.7957747E-01            NaN
         13   -1    0    0    0    0  0.00000000000E+00  0.00000000000E+00  0.74505805969E-08  0.10566000000E+00  0.10566000000E+00 0.  1.
     999900   -1    0    0    0    0 -0.00000000000E+00 -0.00000000000E+00 -0.74505805969E-08  0.93827000000E+00  0.93827000000E+00 0.  1.
     999902    2    1    2    0    0  0.12494165708E-01  0.91099993856E-02  0.22521509402E-01  0.10166112399E+01  0.10162441136E+01 0.  0.
     999903    2    3    3    0    0 -0.11910759904E+00  0.12033655356E-01  0.36381703011E-01  0.12671255064E+00  0.20025313139E-01 0.  0.
         14    1    1    2    0    0 -0.12494165708E-01 -0.91099993856E-02 -0.22521509402E-01  0.27318760061E-01  0.00000000000E+00 0. -1.
     999901    1    3    3    0    0  0.13160176474E+00 -0.29236559703E-02 -0.13860193609E-01  0.88989868930E+00  0.88000000000E+00 0.  1.
        -11    1    4    4    0    0 -0.80279972587E-01  0.13841720349E-01  0.16777059546E-01  0.83175706001E-01  0.51100000000E-03 0. -1.
         11    1    4    4    0    0 -0.38827626449E-01 -0.18080649932E-02  0.19604643465E-01  0.43536844639E-01  0.51100000000E-03 0.  1.
</event>
<event>
 8    1  0.1086486E+005  0.1043930E+01  0.7957747E-01            NaN
         13   -1    0    0    0    0  0.00000000000E+00  0.00000000000E+00  0.74505805969E-08  0.10566000000E+00  0.10566000000E+00 0. -1.
     999900   -1    0    0    0    0 -0.00000000000E+00 -0.00000000000E+00 -0.74505805969E-08  0.93827000000E+00  0.93827000000E+00 0. -1.
     999902    2    1    2    0    0  0.13132552441E-02  0.26310212686E-01 -0.42686286214E-02  0.10172434281E+01  0.10168933173E+01 0.  0.
     999903    2    3    3    0    0  0.52559552372E-01  0.11137614551E+00  0.38246951239E-01  0.13063755711E+00  0.20885155380E-01 0.  0.
         14    1    1    2    0    0 -0.13132552441E-02 -0.26310212686E-01  0.42686286214E-02  0.26686571927E-01  0.00000000000E+00 0.  1.
     999901    1    3    3    0    0 -0.51246297127E-01 -0.85065932820E-01 -0.42515579860E-01  0.88660587096E+00  0.88000000000E+00 0. -1.
        -11    1    4    4    0    0  0.16069874673E-01  0.58148819877E-01  0.16696746300E-01  0.62598471093E-01  0.51100000000E-03 0. -1.
         11    1    4    4    0    0  0.36489677699E-01  0.53227325629E-01  0.21550204939E-01  0.68039086017E-01  0.51100000000E-03 0.  1.
</event>
<event>
 8    1  0.1086486E+005  0.1043930E+01  0.7957747E-01            NaN
         13   -1    0    0    0    0  0.00000000000E+00  0.00000000000E+00  0.74505805969E-08  0.10566000000E+00  0.10566000000E+00 0. -1.
     999900   -1    0    0    0    0 -0.00000000000E+00 -0.00000000000E+00 -0.74505805969E-08  0.93827000000E+00  0.93827000000E+00 0. -1.
     999902    2    1    2    0    0  0.76956388568E-03  0.25064205896E-01 -0.13943067733E-03  0.10188535950E+01  0.10185449534E+01 0.  0.
     999903    2    3    3    0    0 -0.29873564067E-01 -0.93922256323E-01  0.77470657551E-01  0.12693425714E+00  0.19919407434E-01 0.  0.
         14    1    1    2    0    0 -0.76956388568E-03 -0.25064205896E-01  0.13943067733E-03  0.25076404980E-01  0.00000000000E+00 0. -1.
     999901    1    3    3    0    0  0.30643127952E-01  0.11898646222E+00 -0.77610088228E-01  0.89191933788E+00  0.88000000000E+00 0. -1.
        -11    1    4    4    0    0 -0.24224861849E-03 -0.23502842184E-01  0.24572298622E-01  0.34007370608E-01  0.51100000000E-03 0.  1.
         11    1    4    4    0    0 -0.29631315448E-01 -0.70419414140E-01  0.52898358929E-01  0.92926886536E-01  0.51100000000E-03 0. -1.
</event>
<event>
 8    1  0.1086486E+005  0.1043930E+01  0.7957747E-01            NaN
         13   -1    0    0    0    0  0.00000000000E+00  0.00000000000E+00  0.74505805969E-08  0.10566000000E+00  0.10566000000E+00 0.  1.
     999900   -1    0    0    0    0 -0.00000000000E+00 -0.00000000000E+00 -0.74505805969E-08  0.93827000000E+00  0.93827000000E+00 0. -1.
     999902    2    1    2    0    0 -0.22679277743E-01 -0.33000145908E-02 -0.37457936455E-02  0.10207077971E+01  0.10204435979E+01 0.  0.
     999903    2    3    3    0    0  0.68341428504E-01  0.43108680353E-01  0.98364028459E-01  0.12893150698E+00  0.20468078228E-01 0.  0.
         14    1    1    2    0    0  0.22679277743E-01  0.33000145908E-02  0.37457936455E-02  0.23222202852E-01  0.00000000000E+00 0. -1.
     999901    1    3    3    0    0 -0.91020706247E-01 -0.46408694943E-01 -0.10210982210E+00  0.89177629017E+00  0.88000000000E+00 0.  1.
        -11    1    4    4    0    0  0.90347065090E-02  0.12175577895E-01  0.28006786582E-01  0.31851402394E-01  0.51100000000E-03 0. -1.
         11    1    4    4    0    0  0.59306721995E-01  0.30933102458E-01  0.70357241876E-01  0.97080104588E-01  0.51100000000E-03 0.  1.
</event>
<event>
 8    1  0.1086486E+005  0.1043930E+01  0.7957747E-01            NaN
         13   -1    0    0    0    0  0.00000000000E+00  0.00000000000E+00  0.74505805969E-08  0.10566000000E+00  0.10566000000E+00 0.  1.
     999900   -1    0    0    0    0 -0.00000000000E+00 -0.00000000000E+00 -0.74505805969E-08  0.93827000000E+00  0.93827000000E+00 0. -1.
     999902    2    1    2    0    0  0.20156861597E-03  0.59891253244E-02  0.24123998900E-01  0.10190728567E+01  0.10187696548E+01 0.  0.
     999903    2    3    3    0    0  0.54418432505E-01  0.11106356631E+00  0.38687579208E-01  0.13104571499E+00  0.19487664631E-01 0.  0.
         14    1    1    2    0    0 -0.20156861597E-03 -0.59891253244E-02 -0.24123998900E-01  0.24857143339E-01  0.00000000000E+00 0. -1.
     999901    1    3    3    0    0 -0.54216863889E-01 -0.10507444099E+00 -0.14563580308E-01  0.88802714167E+00  0.88000000000E+00 0. -1.
        -11    1    4    4    0    0  0.23009963421E-01  0.68695870370E-01  0.23335014878E-01  0.76114158097E-01  0.51100000000E-03 0.  1.
         11    1    4    4    0    0  0.31408469083E-01  0.42367695944E-01  0.15352564330E-01  0.54931556889E-01  0.51100000000E-03 0. -1.
</event>
<event>
 7    1  0.1086486E+005  0.1043930E+01  0.7957747E-01            NaN
         13   -1    0    0    0    0  0.00000000000E+00  0.00000000000E+00  0.74505805969E-08  0.10566000000E+00  0.10566000000E+00 0.  1.
     999900   -1    0    0    0    0 -0.00000000000E+00 -0.00000000000E+00 -0.74505805969E-08  0.93827000000E+00  0.93827000000E+00 0.  1.
     999903    2    1    2    0    0  0.50416493828E-01  0.54263503202E-01  0.89897103847E-01  0.11776808435E+00  0.17363230731E-01 0.  0.
         14    1    1    2    0    0  0.27528239347E-02  0.25095178006E-01 -0.29654011180E-01  0.38944914660E-01  0.00000000000E+00 0.  1.
     999901    1    1    2    0    0 -0.53169317762E-01 -0.79358681208E-01 -0.60243092667E-01  0.88721700099E+00  0.88000000000E+00 0.  1.
        -11    1    3    3    0    0  0.24652213101E-01  0.33689878778E-01  0.61025832423E-01  0.73940198044E-01  0.51100000000E-03 0. -1.
         11    1    3    3    0    0  0.25764280726E-01  0.20573624423E-01  0.28871271425E-01  0.43827886305E-01  0.51100000000E-03 0.  1.
</event>
<event>
 8    1  0.1086486E+005  0.1043930E+01  0.7957747E-01            NaN
         13   -1    0    0    0    0  0.00000000000E+00  0.00000000000E+00  0.74505805969E-08  0.10566000000E+00  0.10566000000E+00 0. -1.
     999900   -1    0    0    0    0 -0.00000000000E+00 -0.00000000000E+00 -0.74505805969E-08  0.93827000000E+00  0.93827000000E+00 0.  1.
     999902    2    1    2    0    0  0.44345621737E-02 -0.22843242346E-01  0.62645616538E-02  0.10198317885E+01  0.10195470333E+01 0.  0.
     999903    2    3    3    0    0 -0.11959331580E+00  0.62850599050E-02  0.45789451789E-01  0.12977921176E+00  0.20097431357E-01 0.  0.
         14    1    1    2    0    0 -0.44345621737E-02  0.22843242346E-01 -0.62645616538E-02  0.24098211454E-01  0.00000000000E+00 0.  1.
     999901    1    3    3    0    0  0.12402787797E+00 -0.29128302251E-01 -0.39524890135E-01  0.89005257679E+00  0.88000000000E+00 0.  1.
        -11    1    4    4    0    0 -0.10447797837E+00  0.10855447048E-01  0.35298759855E-01  0.11081404362E+00  0.51100000000E-03 0. -1.
         11    1    4    4    0    0 -0.15115337431E-01 -0.45703871433E-02  0.10490691934E-01  0.18965168140E-01  0.51100000000E-03 0.  1.
</event>
<event>
 8    1  0.1086486E+005  0.1043930E+01  0.7957747E-01            NaN
         13   -1    0    0    0    0  0.00000000000E+00  0.00000000000E+00  0.74505805969E-08  0.10566000000E+00  0.10566000000E+00 0.  1.
     999900   -1    0    0    0    0 -0.00000000000E+00 -0.00000000000E+00 -0.74505805969E-08  0.93827000000E+00  0.93827000000E+00 0.  1.
     999902    2    1    2    0    0 -0.13237865149E-01 -0.10491195393E-01  0.16766858076E-01  0.10201301306E+01  0.10198524646E+01 0.  0.
     999903    2    3    3    0    0  0.18671401319E-02  0.56247857152E-01 -0.11316089833E+00  0.12796227407E+00  0.20041133392E-01 0.  0.
         14    1    1    2    0    0  0.13237865149E-01  0.10491195393E-01 -0.16766858076E-01  0.23799869416E-01  0.00000000000E+00 0. -1.
     999901    1    3    3    0    0 -0.15105005281E-01 -0.66739052545E-01  0.12992775640E+00  0.89216785652E+00  0.88000000000E+00 0. -1.
        -11    1    4    4    0    0 -0.25988397308E-02  0.29103648413E-01 -0.78140183440E-01  0.83426169203E-01  0.51100000000E-03 0.  1.
         11    1    4    4    0    0  0.44659798627E-02  0.27144208739E-01 -0.35020714888E-01  0.44536104864E-01  0.51100000000E-03 0. -1.
</event>
<event>
 8    1  0.1086486E+005  0.1043930E+01  0.7957747E-01            NaN
         13   -1    0    0    0    0  0.00000000000E+00  0.00000000000E+00  0.74505805969E-08  0.10566000000E+00  0.10566000000E+00 0.  1.
     999900   -1    0    0    0    0 -0.00000000000E+00 -0.00000000000E+00 -0.74505805969E-08  0.93827000000E+00  0.93827000000E+00 0. -1.
     999902    2    1    2    0    0  0.25482965264E-03  0.23711920261E-01 -0.65232778043E-03  0.10202077397E+01  0.10199319029E+01 0.  0.
     999903    2    3    3    0    0 -0.12780798999E+00  0.13786603020E-01  0.13676286442E-01  0.13076751865E+00  0.19701532779E-01 0.  0.
         14    1    1    2    0    0 -0.25482965264E-03 -0.23711920261E-01  0.65232778043E-03  0.23722260266E-01  0.00000000000E+00 0. -1.
     999901    1    3    3    0    0  0.12806281965E+00  0.99253172407E-02 -0.14328614223E-01  0.88944022108E+00  0.88000000000E+00 0. -1.
        -11    1    4    4    0    0 -0.60116243300E-01  0.85075448825E-03 -0.17244544110E-02  0.60149159227E-01  0.51100000000E-03 0. -1.
         11    1    4    4    0    0 -0.67691746693E-01  0.12935848532E-01  0.15400740853E-01  0.70618359422E-01  0.51100000000E-03 0.  1.
</event>
<event>
 8    1  0.1086486E+005  0.1043930E+01  0.7957747E-01            NaN
         13   -1    0    0    0    0  0.00000000000E+00  0.00000000000E+00  0.74505805969E-08  0.10566000000E+00  0.10566000000E+00 0. -1.
     999900   -1    0    0    0    0 -0.00000000000E+00 -0.00000000000E+00 -0.74505805969E-08  0.93827000000E+00  0.93827000000E+00 0.  1.
     999902    2    1    2    0    0  0.24251319736E-01  0.42721456325E-03  0.26559517830E-02  0.10195299365E+01  0.10192379154E+01 0.  0.
     999903    2    3    3    0    0  0.78743000731E-01 -0.97470373191E-01 -0.35212977928E-01  0.13161815208E+00  0.19556337311E-01 0.  0.
         14    1    1    2    0    0 -0.24251319736E-01 -0.42721456325E-03 -0.26559517830E-02  0.24400063547E-01  0.00000000000E+00 0. -1.
     999901    1    3    3    0    0 -0.54491680996E-01  0.97897587754E-01  0.37868929711E-01  0.88791178437E+00  0.88000000000E+00 0. -1.
        -11    1    4    4    0    0  0.42064517498E-01 -0.36645743903E-01 -0.15526310235E-01  0.57910807360E-01  0.51100000000E-03 0. -1.
         11    1    4    4    0    0  0.36678483234E-01 -0.60824629288E-01 -0.19686667693E-01  0.73707344724E-01  0.51100000000E-03 0.  1.
</event>
<event>
 8    1  0.1086486E+005  0.1043930E+01  0.7957747E-01            NaN
         13   -1    0    0    0    0  0.00000000000E+00  0.00000000000E+00  0.74505805969E-08  0.10566000000E+00  0.10566000000E+00 0.  1.
     999900   -1    0    0    0    0 -0.00000000000E+00 -0.00000000000E+00 -0.74505805969E-08  0.93827000000E+00  0.93827000000E+00 0.  1.
     999902    2    1    2    0    0  0.19518625813E-01  0.13028978252E-01  0.17834853181E-02  0.10203946681E+01  0.10201232116E+01 0.  0.
     999903    2    3    3    0    0  0.19107606490E-01  0.36804190118E-01 -0.12302764850E+00  0.13126967758E+00  0.19397858696E-01 0.  0.
         14    1    1    2    0    0 -0.19518625813E-01 -0.13028978252E-01 -0.17834853181E-02  0.23535331903E-01  0.00000000000E+00 0. -1.
     999901    1    3    3    0    0  0.41101932282E-03 -0.23775211867E-01  0.12481113381E+00  0.88912499052E+00  0.88000000000E+00 0. -1.
        -11    1    4    4    0    0  0.75924695960E-02  0.18148679198E-01 -0.86110369983E-01  0.88330499211E-01  0.51100000000E-03 0. -1.
         11    1    4    4    0    0  0.11515136894E-01  0.18655510920E-01 -0.36917278512E-01  0.42939178370E-01  0.51100000000E-03 0.  1.
</event>
<event>
 8    1  0.1086486E+005  0.1043930E+01  0.7957747E-01            NaN
         13   -1    0    0    0    0  0.00000000000E+00  0.00000000000E+00  0.74505805969E-08  0.10566000000E+00  0.10566000000E+00 0. -1.
     999900   -1    0    0    0    0 -0.00000000000E+00 -0.00000000000E+00 -0.74505805969E-08  0.93827000000E+00  0.93827000000E+00 0. -1.
     999902    2    1    2    0    0  0.13063845073E-01 -0.19507653447E-01 -0.43104315126E-02  0.10200596751E+01  0.10197803432E+01 0.  0.
     999903    2    3    3    0    0  0.11170411748E+00  0.21307365912E-01  0.60538129492E-01  0.13123961175E+00  0.25043100159E-01 0.  0.
         14    1    1    2    0    0 -0.13063845073E-01  0.19507653447E-01  0.43104315126E-02  0.23870324902E-01  0.00000000000E+00 0. -1.
     999901    1    3    3    0    0 -0.98640272408E-01 -0.40815019360E-01 -0.64848561005E-01  0.88882006335E+00  0.88000000000E+00 0.  1.
        -11    1    4    4    0    0  0.10656019186E-01  0.91130711493E-02  0.31014486498E-02  0.14369374217E-01  0.51100000000E-03 0.  1.
         11    1    4    4    0    0  0.10104809829E+00  0.12194294763E-01  0.57436680843E-01  0.11687023753E+00  0.51100000000E-03 0. -1.
</event>
<event>
 8    1  0.1086486E+005  0.1043930E+01  0.7957747E-01            NaN
         13   -1    0    0    0    0  0.00000000000E+00  0.00000000000E+00  0.74505805969E-08  0.10566000000E+00  0.10566000000E+00 0. -1.
     999900   -1    0    0    0    0 -0.00000000000E+00 -0.00000000000E+00 -0.74505805969E-08  0.93827000000E+00  0.93827000000E+00 0.  1.
     999902    2    1    2    0    0  0.15650766792E-01  0.50198532715E-02  0.17317181841E-01  0.10200546945E+01  0.10197752446E+01 0.  0.
     999903    2    3    3    0    0 -0.52035159425E-01  0.89049405389E-01 -0.74695645879E-01  0.12870251338E+00  0.18639823516E-01 0.  0.
         14    1    1    2    0    0 -0.15650766792E-01 -0.50198532715E-02 -0.17317181841E-01  0.23875305547E-01  0.00000000000E+00 0. -1.
     999901    1    3    3    0    0  0.67685926217E-01 -0.84029552117E-01  0.92012827721E-01  0.89135218107E+00  0.88000000000E+00 0. -1.
        -11    1    4    4    0    0 -0.27616821616E-01  0.64267098995E-01 -0.51962520625E-01  0.87139620840E-01  0.51100000000E-03 0. -1.
         11    1    4    4    0    0 -0.24418337809E-01  0.24782306394E-01 -0.22733125255E-01  0.41562892541E-01  0.51100000000E-03 0.  1.
</event>
<event>
 8    1  0.1086486E+005  0.1043930E+01  0.7957747E-01            NaN
         13   -1    0    0    0    0  0.00000000000E+00  0.00000000000E+00  0.74505805969E-08  0.10566000000E+00  0.10566000000E+00 0. -1.
     999900   -1    0    0    0    0 -0.00000000000E+00 -0.00000000000E+00 -0.74505805969E-08  0.93827000000E+00  0.93827000000E+00 0. -1.
     999902    2    1    2    0    0  0.14831681805E-01  0.79891237103E-02  0.13006984247E-01  0.10226465200E+01  0.10224250184E+01 0.  0.
     999903    2    3    3    0    0  0.49961756633E-01 -0.31959508853E-01 -0.11586230706E+00  0.13167103791E+00  0.19889713290E-01 0.  0.
         14    1    1    2    0    0 -0.14831681805E-01 -0.79891237103E-02 -0.13006984247E-01  0.21283480026E-01  0.00000000000E+00 0.  1.
     999901    1    3    3    0    0 -0.35130074828E-01  0.39948632563E-01  0.12886929131E+00  0.89097548207E+00  0.88000000000E+00 0.  1.
        -11    1    4    4    0    0  0.15477043572E-01 -0.21252765030E-01 -0.53320979099E-01  0.59452559510E-01  0.51100000000E-03 0.  1.
         11    1    4    4    0    0  0.34484713061E-01 -0.10706743822E-01 -0.62541327960E-01  0.72218478398E-01  0.51100000000E-03 0. -1.
</event>
<event>
 8    1  0.1086486E+005  0.1043930E+01  0.7957747E-01            NaN
         13   -1    0    0    0    0  0.00000000000E+00  0.00000000000E+00  0.74505805969E-08  0.10566000000E+00  0.10566000000E+00 0.  1.
     999900   -1    0    0    0    0 -0.00000000000E+00 -0.00000000000E+00 -0.74505805969E-08  0.93827000000E+00  0.93827000000E+00 0.  1.
     999902    2    1    2    0    0  0.35763005330E-02  0.21847129100E-01  0.73169614244E-02  0.10206142349E+01  0.10203478778E+01 0.  0.
     999903    2    3    3    0    0 -0.35676808587E-02  0.96837235374E-01  0.89781208008E-01  0.13355453883E+00  0.19646145423E-01 0.  0.
         14    1    1    2    0    0 -0.35763005330E-02 -0.21847129100E-01 -0.73169614244E-02  0.23315765051E-01  0.00000000000E+00 0. -1.
     999901    1    3    3    0    0  0.71439813917E-02 -0.74990106273E-01 -0.82464246584E-01  0.88705969612E+00  0.88000000000E+00 0. -1.
        -11    1    4    4    0    0  0.14221303925E-02  0.17934515656E-01  0.27690521260E-01  0.33025677818E-01  0.51100000000E-03 0. -1.
         11    1    4    4    0    0 -0.49898112512E-02  0.78902719718E-01  0.62090686747E-01  0.10052886101E+00  0.51100000000E-03 0.  1.
</event>
<event>
 8    1  0.1086486E+005  0.1043930E+01  0.7957747E-01            NaN
         13   -1    0    0    0    0  0.00000000000E+00  0.00000000000E+00  0.74505805969E-08  0.10566000000E+00  0.10566000000E+00 0. -1.
     999900   -1    0    0    0    0 -0.00000000000E+00 -0.00000000000E+00 -0.74505805969E-08  0.93827000000E+00  0.93827000000E+00 0.  1.
     999902    2    1    2    0    0 -0.19289822993E-01 -0.14237229491E-01  0.17968098941E-02  0.10198878599E+01  0.10196044440E+01 0.  0.
     999903    2    3    3    0    0  0.59748191446E-01 -0.11163419056E+00 -0.25243287541E-01  0.13058232038E+00  0.19557094555E-01 0.  0.
         14    1    1    2    0    0  0.19289822993E-01  0.14237229491E-01 -0.17968098941E-02  0.24042140098E-01  0.00000000000E+00 0. -1.
     999901    1    3    3    0    0 -0.79038014440E-01  0.97396961068E-01  0.27040097435E-01  0.88930553952E+00  0.88000000000E+00 0.  1.
        -11    1    4    4    0    0  0.42934737575E-01 -0.81993916478E-01 -0.27126722823E-01  0.96449542467E-01  0.51100000000E-03 0.  1.
         11    1    4    4    0    0  0.16813453871E-01 -0.29640274082E-01  0.18834352816E-02  0.34132777915E-01  0.51100000000E-03 0. -1.
</event>
<event>
 8    1  0.1086486E+005  0.1043930E+01  0.7957747E-01            NaN
         13   -1    0    0    0    0  0.00000000000E+00  0.00000000000E+00  0.74505805969E-08  0.10566000000E+00  0.10566000000E+00 0. -1.
     999900   -1    0    0    0    0 -0.00000000000E+00 -0.00000000000E+00 -0.74505805969E-08  0.93827000000E+00  0.93827000000E+00 0. -1.
     999902    2    1    2    0    0 -0.10472792079E-02  0.23598647589E-01 -0.47579432066E-02  0.10198337143E+01  0.10195490051E+01 0.  0.
     999903    2    3    3    0    0 -0.21734070714E-01  0.80901037578E-01 -0.10098866260E+00  0.13249394926E+00  0.18400785478E-01 0.  0.
         14    1    1    2    0    0  0.10472792079E-02 -0.23598647589E-01  0.47579432066E-02  0.24096285716E-01  0.00000000000E+00 0. -1.
     999901    1    3    3    0    0  0.20686791506E-01 -0.57302389989E-01  0.96230719389E-01  0.88733976503E+00  0.88000000000E+00 0.  1.
        -11    1    4    4    0    0 -0.24775985029E-01  0.69406006410E-01 -0.89676075458E-01  0.11607369551E+00  0.51100000000E-03 0. -1.
         11    1    4    4    0    0  0.30419143150E-02  0.11495031168E-01 -0.11312587138E-01  0.16420253744E-01  0.51100000000E-03 0.  1.
</event>
<event>
 8    1  0.1086486E+005  0.1043930E+01  0.7957747E-01            NaN
         13   -1    0    0    0    0  0.00000000000E+00  0.00000000000E+00  0.74505805969E-08  0.10566000000E+00  0.10566000000E+00 0.  1.
     999900   -1    0    0    0    0 -0.00000000000E+00 -0.00000000000E+00 -0.74505805969E-08  0.93827000000E+00  0.93827000000E+00 0.  1.
     999902    2    1    2    0    0  0.16988418019E-01  0.11316816778E-01  0.10373092924E-01  0.10210328878E+01  0.10207761166E+01 0.  0.
     999903    2    3    3    0    0  0.71367695970E-01  0.10213133137E+00 -0.42470333386E-01  0.13311576916E+00  0.19797017559E-01 0.  0.
         14    1    1    2    0    0 -0.16988418019E-01 -0.11316816778E-01 -0.10373092924E-01  0.22897112167E-01  0.00000000000E+00 0. -1.
     999901    1    3    3    0    0 -0.54379277951E-01 -0.90814514595E-01  0.52843426310E-01  0.88791711867E+00  0.88000000000E+00 0. -1.
        -11    1    4    4    0    0  0.23664790517E-01  0.35702303710E-01 -0.49023561912E-02  0.43115786177E-01  0.51100000000E-03 0.  1.
         11    1    4    4    0    0  0.47702905453E-01  0.66429027663E-01 -0.37567977195E-01  0.89999982981E-01  0.51100000000E-03 0. -1.
</event>
<event>
 8    1  0.1086486E+005  0.1043930E+01  0.7957747E-01            NaN
         13   -1    0    0    0    0  0.00000000000E+00  0.00000000000E+00  0.74505805969E-08  0.10566000000E+00  0.10566000000E+00 0. -1.
     999900   -1    0    0    0    0 -0.00000000000E+00 -0.00000000000E+00 -0.74505805969E-08  0.93827000000E+00  0.93827000000E+00 0. -1.
     999902    2    1    2    0    0  0.81969487678E-02 -0.17442258191E-01  0.48292275454E-02  0.10240618401E+01  0.10238690876E+01 0.  0.
     999903    2    3    3    0    0  0.11953412454E-01  0.12467786769E+00  0.36866443331E-01  0.13207606419E+00  0.19937335007E-01 0.  0.
         14    1    1    2    0    0 -0.81969487678E-02  0.17442258191E-01 -0.48292275454E-02  0.19868159920E-01  0.00000000000E+00 0.  1.
     999901    1    3    3    0    0 -0.37564636865E-02 -0.14212012588E+00 -0.32037215786E-01  0.89198577589E+00  0.88000000000E+00 0.  1.
        -11    1    4    4    0    0 -0.19376703264E-02  0.37293229587E-01  0.35000975396E-02  0.37510683053E-01  0.51100000000E-03 0.  1.
         11    1    4    4    0    0  0.13891082781E-01  0.87384638100E-01  0.33366345791E-01  0.94565381135E-01  0.51100000000E-03 0. -1.
</event>
<event>
 8    1  0.1086486E+005  0.1043930E+01  0.7957747E-01            NaN
         13   -1    0    0    0    0  0.00000000000E+00  0.00000000000E+00  0.74505805969E-08  0.10566000000E+00  0.10566000000E+00 0. -1.
     999900   -1    0    0    0    0 -0.00000000000E+00 -0.00000000000E+00 -0.74505805969E-08  0.93827000000E+00  0.93827000000E+00 0. -1.
     999902    2    1    2    0    0 -0.17986560483E-01  0.26274117678E-02 -0.16480849310E-01  0.10193935364E+01  0.10190982014E+01 0.  0.
     999903    2    3    3    0    0 -0.59868700567E-02 -0.84549305569E-01  0.93758859838E-01  0.12816036487E+00  0.21211497823E-01 0.  0.
         14    1    1    2    0    0  0.17986560483E-01 -0.26274117678E-02  0.16480849310E-01  0.24536463571E-01  0.00000000000E+00 0. -1.
     999901    1    3    3    0    0 -0.11999690427E-01  0.87176717336E-01 -0.11023970915E+00  0.89123317156E+00  0.88000000000E+00 0. -1.
        -11    1    4    4    0    0 -0.45085182282E-02 -0.15688910924E-01  0.30710908554E-01  0.34783468600E-01  0.51100000000E-03 0.  1.
         11    1    4    4    0    0 -0.14783518285E-02 -0.68860394644E-01  0.63047951284E-01  0.93376896269E-01  0.51100000000E-03 0. -1.
</event>
<event>
 8    1  0.1086486E+005  0.1043930E+01  0.7957747E-01            NaN
         13   -1    0    0    0    0  0.00000000000E+00  0.00000000000E+00  0.74505805969E-08  0.10566000000E+00  0.10566000000E+00 0.  1.
     999900   -1    0    0    0    0 -0.00000000000E+00 -0.00000000000E+00 -0.74505805969E-08  0.93827000000E+00  0.93827000000E+00 0.  1.
     999902    2    1    2    0    0  0.24275778186E-01  0.27172901550E-02 -0.58314144169E-02  0.10188162096E+01  0.10185066355E+01 0.  0.
     999903    2    3    3    0    0 -0.68838130281E-01 -0.62529646799E-01  0.84337650145E-01  0.12693178723E+00  0.18713483570E-01 0.  0.
         14    1    1    2    0    0 -0.24275778186E-01 -0.27172901550E-02  0.58314144169E-02  0.25113790364E-01  0.00000000000E+00 0.  1.
     999901    1    3    3    0    0  0.93113908467E-01  0.65246936954E-01 -0.90169064562E-01  0.89188442241E+00  0.88000000000E+00 0.  1.
        -11    1    4    4    0    0 -0.12296679438E-01 -0.12945956706E-01  0.26950105957E-01  0.32332266428E-01  0.51100000000E-03 0.  1.
         11    1    4    4    0    0 -0.56541450843E-01 -0.49583690092E-01  0.57387544188E-01  0.94599520800E-01  0.51100000000E-03 0. -1.
</event>
<event>
 8    1  0.1086486E+005  0.1043930E+01  0.7957747E-01            NaN
         13   -1    0    0    0    0  0.00000000000E+00  0.00000000000E+00  0.74505805969E-08  0.10566000000E+00  0.10566000000E+00 0. -1.
     999900   -1    0    0    0    0 -0.00000000000E+00 -0.00000000000E+00 -0.74505805969E-08  0.93827000000E+00  0.93827000000E+00 0. -1.
     999902    2    1    2    0    0 -0.39892591713E-02  0.29752624879E-02  0.22866218669E-01  0.10205284972E+01  0.10202601547E+01 0.  0.
     999903    2    3    3    0    0  0.10612256292E-01 -0.21965983628E-01 -0.12389980988E+00  0.12790565574E+00  0.20336407277E-01 0.  0.
         14    1    1    2    0    0  0.39892591713E-02 -0.29752624879E-02 -0.22866218669E-01  0.23401502768E-01  0.00000000000E+00 0.  1.
     999901    1    3    3    0    0 -0.14601515463E-01  0.24941246116E-01  0.14676602855E+00  0.89262284149E+00  0.88000000000E+00 0.  1.
        -11    1    4    4    0    0  0.11674438247E-02 -0.12280589059E-01 -0.23024016711E-01  0.26125509741E-01  0.51100000000E-03 0. -1.
         11    1    4    4    0    0  0.94448124674E-02 -0.96853945686E-02 -0.10087579317E+00  0.10178014600E+00  0.51100000000E-03 0.  1.
</event>
<event>
 8    1  0.1086486E+005  0.1043930E+01  0.7957747E-01            NaN
         13   -1    0    0    0    0  0.00000000000E+00  0.00000000000E+00  0.74505805969E-08  0.10566000000E+00  0.10566000000E+00 0.  1.
     999900   -1    0    0    0    0 -0.00000000000E+00 -0.00000000000E+00 -0.74505805969E-08  0.93827000000E+00  0.93827000000E+00 0. -1.
     999902    2    1    2    0    0 -0.21090993700E-01 -0.40918544147E-02  0.83986356528E-02  0.10208624824E+01  0.10206018311E+01 0.  0.
     999903    2    3    3    0    0  0.78410373306E-01  0.17707789770E-01  0.10054318529E+00  0.13020746245E+00  0.19578015952E-01 0.  0.
         14    1    1    2    0    0  0.21090993700E-01  0.40918544147E-02 -0.83986356528E-02  0.23067517609E-01  0.00000000000E+00 0. -1.
     999901    1    3    3    0    0 -0.99501367005E-01 -0.21799644184E-01 -0.92144549637E-01  0.89065501994E+00  0.88000000000E+00 0. -1.
        -11    1    4    4    0    0  0.44076168483E-01  0.19821616232E-01  0.59052352030E-01  0.76308888731E-01  0.51100000000E-03 0.  1.
         11    1    4    4    0    0  0.34334204823E-01 -0.21138264624E-02  0.41490833260E-01  0.53898573717E-01  0.51100000000E-03 0. -1.
</event>
<event>
 8    1  0.1086486E+005  0.1043930E+01  0.7957747E-01            NaN
         13   -1    0    0    0    0  0.00000000000E+00  0.00000000000E+00  0.74505805969E-08  0.10566000000E+00  0.10566000000E+00 0.  1.
     999900   -1    0    0    0    0 -0.00000000000E+00 -0.00000000000E+00 -0.74505805969E-08  0.93827000000E+00  0.93827000000E+00 0. -1.
     999902    2    1    2    0    0 -0.17570561510E-01 -0.16093490652E-01 -0.29317295891E-02  0.10199233319E+01  0.10196407617E+01 0.  0.
     999903    2    3    3    0    0  0.25970278250E-01 -0.93968174854E-01 -0.86037858558E-01  0.13151638698E+00  0.19737621497E-01 0.  0.
         14    1    1    2    0    0  0.17570561510E-01  0.16093490652E-01  0.29317295891E-02  0.24006668064E-01  0.00000000000E+00 0. -1.
     999901    1    3    3    0    0 -0.43540839760E-01  0.77874684202E-01  0.83106128969E-01  0.88840694495E+00  0.88000000000E+00 0.  1.
        -11    1    4    4    0    0  0.18755160446E-01 -0.64926400361E-01 -0.70996990006E-01  0.98020544877E-01  0.51100000000E-03 0.  1.
         11    1    4    4    0    0  0.72151178038E-02 -0.29041774494E-01 -0.15040868552E-01  0.33495842107E-01  0.51100000000E-03 0. -1.
</event>
<event>
 8    1  0.1086486E+005  0.1043930E+01  0.7957747E-01            NaN
         13   -1    0    0    0    0  0.00000000000E+00  0.00000000000E+00  0.74505805969E-08  0.10566000000E+00  0.10566000000E+00 0. -1.
     999900   -1    0    0    0    0 -0.00000000000E+00 -0.00000000000E+00 -0.74505805969E-08  0.93827000000E+00  0.93827000000E+00 0. -1.
     999902    2    1    2    0    0  0.55803575454E-02  0.20772108777E-01  0.10519577254E-01  0.10199866836E+01  0.10197056204E+01 0.  0.
     999903    2    3    3    0    0 -0.49362802290E-01  0.79052288426E-01  0.92205515812E-01  0.13258152097E+00  0.19749734200E-01 0.  0.
         14    1    1    2    0    0 -0.55803575454E-02 -0.20772108777E-01 -0.10519577254E-01  0.23943316374E-01  0.00000000000E+00 0. -1.
     999901    1    3    3    0    0  0.54943159835E-01 -0.58280179649E-01 -0.81685938558E-01  0.88740516266E+00  0.88000000000E+00 0. -1.
        -11    1    4    4    0    0 -0.32620535073E-01  0.67301663923E-01  0.71421236783E-01  0.10341599228E+00  0.51100000000E-03 0.  1.
         11    1    4    4    0    0 -0.16742267217E-01  0.11750624503E-01  0.20784279029E-01  0.29165528686E-01  0.51100000000E-03 0. -1.
</event>
<event>
 8    1  0.1086486E+005  0.1043930E+01  0.7957747E-01            NaN
         13   -1    0    0    0    0  0.00000000000E+00  0.00000000000E+00  0.74505805969E-08  0.10566000000E+00  0.10566000000E+00 0. -1.
     999900   -1    0    0    0    0 -0.00000000000E+00 -0.00000000000E+00 -0.74505805969E-08  0.93827000000E+00  0.93827000000E+00 0. -1.
     999902    2    1    2    0    0 -0.39877734372E-02 -0.17990076223E-01 -0.15926082021E-01  0.10195746050E+01  0.10192836650E+01 0.  0.
     999903    2    3    3    0    0 -0.16723652788E-01 -0.11044151524E+00 -0.69408438161E-01  0.13302520778E+00  0.20029122972E-01 0.  0.
         14    1    1    2    0    0  0.39877734372E-02  0.17990076223E-01  0.15926082021E-01  0.24355395050E-01  0.00000000000E+00 0. -1.
     999901    1    3    3    0    0  0.12735879351E-01  0.92451439016E-01  0.53482356140E-01  0.88654939717E+00  0.88000000000E+00 0.  1.
        -11    1    4    4    0    0  0.35726366425E-02 -0.32921887691E-01 -0.24196818785E-01  0.41016601298E-01  0.51100000000E-03 0.  1.
         11    1    4    4    0    0 -0.20296289430E-01 -0.77519627547E-01 -0.45211619376E-01  0.92008606485E-01  0.51100000000E-03 0. -1.
</event>
<event>
 8    1  0.1086486E+005  0.1043930E+01  0.7957747E-01            NaN
         13   -1    0    0    0    0  0.00000000000E+00  0.00000000000E+00  0.74505805969E-08  0.10566000000E+00  0.10566000000E+00 0.  1.
     999900   -1    0    0    0    0 -0.00000000000E+00 -0.00000000000E+00 -0.74505805969E-08  0.93827000000E+00  0.93827000000E+00 0.  1.
     999902    2    1    2    0    0  0.19034238682E-02  0.16858734823E-01  0.15720914516E-01  0.10208002115E+01  0.10205381349E+01 0.  0.
     999903    2    3    3    0    0  0.29777420510E-01  0.18143059201E-01 -0.12297893903E+00  0.12949989257E+00  0.20749394224E-01 0.  0.
         14    1    1    2    0    0 -0.19034238682E-02 -0.16858734823E-01 -0.15720914516E-01  0.23129788487E-01  0.00000000000E+00 0. -1.
     999901    1    3    3    0    0 -0.27873996642E-01 -0.12843243788E-02  0.13869985355E+00  0.89130031895E+00  0.88000000000E+00 0. -1.
        -11    1    4    4    0    0  0.72111588879E-02  0.13799702570E-01 -0.70614277765E-01  0.72312308418E-01  0.51100000000E-03 0. -1.
         11    1    4    4    0    0  0.22566261622E-01  0.43433566318E-02 -0.52364661265E-01  0.57187584149E-01  0.51100000000E-03 0.  1.
</event>
<event>
 8    1  0.1086486E+005  0.1043930E+01  0.7957747E-01            NaN
         13   -1    0    0    0    0  0.00000000000E+00  0.00000000000E+00  0.74505805969E-08  0.10566000000E+00  0.10566000000E+00 0.  1.
     999900   -1    0    0    0    0 -0.00000000000E+00 -0.00000000000E+00 -0.74505805969E-08  0.93827000000E+00  0.93827000000E+00 0.  1.
     999902    2    1    2    0    0 -0.19570948121E-01 -0.12551636987E-01 -0.33833341603E-02  0.10204350526E+01  0.10201645378E+01 0.  0.
     999903    2    3    3    0    0 -0.12442465214E+00  0.36949185886E-03  0.42135185136E-01  0.13294804405E+00  0.20449401103E-01 0.  0.
         14    1    1    2    0    0  0.19570948121E-01  0.12551636987E-01  0.33833341603E-02  0.23494947360E-01  0.00000000000E+00 0.  1.
     999901    1    3    3    0    0  0.10485370402E+00 -0.12921128846E-01 -0.45518519297E-01  0.88748700859E+00  0.88000000000E+00 0.  1.
        -11    1    4    4    0    0 -0.82308369940E-01  0.78226755169E-02  0.34045762818E-01  0.89416089722E-01  0.51100000000E-03 0.  1.
         11    1    4    4    0    0 -0.42116282202E-01 -0.74531836580E-02  0.80894223186E-02  0.43531954328E-01  0.51100000000E-03 0. -1.
</event>
<event>
 8    1  0.1086486E+005  0.1043930E+01  0.7957747E-01            NaN
         13   -1    0    0    0    0  0.00000000000E+00  0.00000000000E+00  0.74505805969E-08  0.10566000000E+00  0.10566000000E+00 0. -1.
     999900   -1    0    0    0    0 -0.00000000000E+00 -0.00000000000E+00 -0.74505805969E-08  0.93827000000E+00  0.93827000000E+00 0. -1.
     999902    2    1    2    0    0  0.21380843283E-01  0.54167867423E-03  0.90292480392E-02  0.10207144622E+01  0.10204504163E+01 0.  0.
     999903    2    3    3    0    0  0.60900348761E-01 -0.48087941969E-01 -0.10399439613E+00  0.13127588902E+00  0.19930428234E-01 0.  0.
         14    1    1    2    0    0 -0.21380843283E-01 -0.54167867423E-03 -0.90292480392E-02  0.23215537802E-01  0.00000000000E+00 0. -1.
     999901    1    3    3    0    0 -0.39519505478E-01  0.48629620643E-01  0.11302364417E+00  0.88943857318E+00  0.88000000000E+00 0.  1.
        -11    1    4    4    0    0  0.18227488483E-01 -0.20134642556E-01 -0.50580870589E-01  0.57413680929E-01  0.51100000000E-03 0. -1.
         11    1    4    4    0    0  0.42672860279E-01 -0.27953299412E-01 -0.53413525540E-01  0.73862208090E-01  0.51100000000E-03 0.  1.
</event>
<event>
 8    1  0.1086486E+005  0.1043930E+01  0.7957747E-01            NaN
         13   -1    0    0    0    0  0.00000000000E+00  0.00000000000E+00  0.74505805969E-08  0.10566000000E+00  0.10566000000E+00 0. -1.
     999900   -1    0    0    0    0 -0.00000000000E+00 -0.00000000000E+00 -0.74505805969E-08  0.93827000000E+00  0.93827000000E+00 0.  1.
     999902    2    1    2    0    0 -0.23773214178E-01 -0.50329402202E-03  0.86842177294E-03  0.10201356063E+01  0.10198580695E+01 0.  0.
     999903    2    3    3    0    0 -0.55400772863E-01  0.85483776421E-02 -0.11728889662E+00  0.13162933891E+00  0.20670684486E-01 0.  0.
         14    1    1    2    0    0  0.23773214178E-01  0.50329402202E-03 -0.86842177294E-03  0.23794393743E-01  0.00000000000E+00 0.  1.
     999901    1    3    3    0    0  0.31627558685E-01 -0.90516716642E-02  0.11815731839E+00  0.88850626735E+00  0.88000000000E+00 0. -1.
        -11    1    4    4    0    0 -0.18403541780E-01 -0.91460365885E-03 -0.60076038543E-01  0.62840419937E-01  0.51100000000E-03 0. -1.
         11    1    4    4    0    0 -0.36997231083E-01  0.94629813010E-02 -0.57212858076E-01  0.68788918971E-01  0.51100000000E-03 0.  1.
</event>
<event>
 8    1  0.1086486E+005  0.1043930E+01  0.7957747E-01            NaN
         13   -1    0    0    0    0  0.00000000000E+00  0.00000000000E+00  0.74505805969E-08  0.10566000000E+00  0.10566000000E+00 0. -1.
     999900   -1    0    0    0    0 -0.00000000000E+00 -0.00000000000E+00 -0.74505805969E-08  0.93827000000E+00  0.93827000000E+00 0. -1.
     999902    2    1    2    0    0  0.63133610762E-03  0.75595834194E-02 -0.22534658169E-01  0.10201527692E+01  0.10198756374E+01 0.  0.
     999903    2    3    3    0    0  0.87650646865E-01  0.73601046216E-01 -0.63490158417E-01  0.13245282649E+00  0.20322429207E-01 0.  0.
         14    1    1    2    0    0 -0.63133610762E-03 -0.75595834194E-02  0.22534658169E-01  0.23777230822E-01  0.00000000000E+00 0. -1.
     999901    1    3    3    0    0 -0.87019310757E-01 -0.66041462796E-01  0.40955500248E-01  0.88769994269E+00  0.88000000000E+00 0.  1.
        -11    1    4    4    0    0  0.48368233028E-01  0.30055936132E-01 -0.38268203269E-01  0.68611673682E-01  0.51100000000E-03 0.  1.
         11    1    4    4    0    0  0.39282413837E-01  0.43545110083E-01 -0.25221955148E-01  0.63841152805E-01  0.51100000000E-03 0. -1.
</event>
<event>
 8    1  0.1086486E+005  0.1043930E+01  0.7957747E-01            NaN
         13   -1    0    0    0    0  0.00000000000E+00  0.00000000000E+00  0.74505805969E-08  0.10566000000E+00  0.10566000000E+00 0.  1.
     999900   -1    0    0    0    0 -0.00000000000E+00 -0.00000000000E+00 -0.74505805969E-08  0.93827000000E+00  0.93827000000E+00 0.  1.
     999902    2    1    2    0    0  0.23079428449E-01 -0.25611105567E-02  0.44645154369E-02  0.10202836218E+01  0.10200095674E+01 0.  0.
     999903    2    3    3    0    0  0.84283227418E-01 -0.98504253252E-01 -0.20360582299E-01  0.13260841253E+00  0.19070590706E-01 0.  0.
         14    1    1    2    0    0 -0.23079428449E-01  0.25611105567E-02 -0.44645154369E-02  0.23646378219E-01  0.00000000000E+00 0. -1.
     999901    1    3    3    0    0 -0.61203798969E-01  0.95943142695E-01  0.24825097735E-01  0.88767520925E+00  0.88000000000E+00 0. -1.
        -11    1    4    4    0    0  0.34275673179E-01 -0.26555445560E-01 -0.84959153627E-02  0.44186594796E-01  0.51100000000E-03 0.  1.
         11    1    4    4    0    0  0.50007554239E-01 -0.71948807692E-01 -0.11864666936E-01  0.88421817736E-01  0.51100000000E-03 0. -1.
</event>
<event>
 8    1  0.1086486E+005  0.1043930E+01  0.7957747E-01            NaN
         13   -1    0    0    0    0  0.00000000000E+00  0.00000000000E+00  0.74505805969E-08  0.10566000000E+00  0.10566000000E+00 0.  1.
     999900   -1    0    0    0    0 -0.00000000000E+00 -0.00000000000E+00 -0.74505805969E-08  0.93827000000E+00  0.93827000000E+00 0. -1.
     999902    2    1    2    0    0 -0.91343647044E-02 -0.34782797143E-02 -0.23830830498E-01  0.10181726024E+01  0.10178467492E+01 0.  0.
     999903    2    3    3    0    0  0.72220448282E-01 -0.39366359935E-01  0.93168916859E-01  0.12598680294E+00  0.20657298991E-01 0.  0.
         14    1    1    2    0    0  0.91343647044E-02  0.34782797143E-02  0.23830830498E-01  0.25757397589E-01  0.00000000000E+00 0.  1.
     999901    1    3    3    0    0 -0.81354812987E-01  0.35888080221E-01 -0.11699974736E+00  0.89218579947E+00  0.88000000000E+00 0. -1.
        -11    1    4    4    0    0  0.13613583562E-01 -0.24222961985E-02  0.26200921966E-01  0.29630163839E-01  0.51100000000E-03 0.  1.
         11    1    4    4    0    0  0.58606864720E-01 -0.36944063737E-01  0.66967994893E-01  0.96356639100E-01  0.51100000000E-03 0. -1.
</event>
<event>
 7    1  0.1522455E+005  0.1043930E+01  0.7957747E-01            NaN
         13   -1    0    0    0    0  0.00000000000E+00  0.00000000000E+00  0.74505805969E-08  0.10566000000E+00  0.10566000000E+00 0. -1.
     999900   -1    0    0    0    0 -0.00000000000E+00 -0.00000000000E+00 -0.74505805969E-08  0.93827000000E+00  0.93827000000E+00 0.  1.
     999903    2    1    2    0    0  0.10103292628E+00 -0.39621382038E-01  0.15154817294E-01  0.11123921523E+00  0.19156941561E-01 0.  0.
         14    1    1    2    0    0 -0.44446882282E-01 -0.75279542842E-03  0.21097124407E-01  0.49205494650E-01  0.00000000000E+00 0.  1.
     999901    1    1    2    0    0 -0.56586044000E-01  0.40374177466E-01 -0.36251941701E-01  0.88348529012E+00  0.88000000000E+00 0. -1.
        -11    1    3    3    0    0  0.47381735982E-01 -0.13514801219E-01  0.15220094550E-01  0.51571224105E-01  0.51100000000E-03 0. -1.
         11    1    3    3    0    0  0.53651190300E-01 -0.26106580819E-01 -0.65277255402E-04  0.59667991124E-01  0.51100000000E-03 0.  1.
</event>
<event>
 8    1  0.1086486E+005  0.1043930E+01  0.7957747E-01            NaN
         13   -1    0    0    0    0  0.00000000000E+00  0.00000000000E+00  0.74505805969E-08  0.10566000000E+00  0.10566000000E+00 0. -1.
     999900   -1    0    0    0    0 -0.00000000000E+00 -0.00000000000E+00 -0.74505805969E-08  0.93827000000E+00  0.93827000000E+00 0.  1.
     999902    2    1    2    0    0 -0.90113929538E-03  0.18726048256E-01 -0.97611995846E-02  0.10227933505E+01  0.10225749263E+01 0.  0.
     999903    2    3    3    0    0 -0.39560670132E-01 -0.11254069005E+00 -0.50955490715E-01  0.13126517621E+00  0.20090567775E-01 0.  0.
         14    1    1    2    0    0  0.90113929538E-03 -0.18726048256E-01  0.97611995846E-02  0.21136649513E-01  0.00000000000E+00 0. -1.
     999901    1    3    3    0    0  0.38659530837E-01  0.13126673830E+00  0.41194291130E-01  0.89152817428E+00  0.88000000000E+00 0.  1.
        -11    1    4    4    0    0 -0.14831061298E-01 -0.22083971479E-01 -0.60286894149E-02  0.27281282825E-01  0.51100000000E-03 0. -1.
         11    1    4    4    0    0 -0.24729608834E-01 -0.90456718568E-01 -0.44926801300E-01  0.10398389338E+00  0.51100000000E-03 0.  1.
</event>
<event>
 8    1  0.1086486E+005  0.1043930E+01  0.7957747E-01            NaN
         13   -1    0    0    0    0  0.00000000000E+00  0.00000000000E+00  0.74505805969E-08  0.10566000000E+00  0.10566000000E+00 0.  1.
     999900   -1    0    0    0    0 -0.00000000000E+00 -0.00000000000E+00 -0.74505805969E-08  0.93827000000E+00  0.93827000000E+00 0. -1.
     999902    2    1    2    0    0  0.15391126741E-02 -0.18052319273E-01  0.17023855998E-01  0.10190690513E+01  0.10187657554E+01 0.  0.
     999903    2    3    3    0    0 -0.92204476720E-01  0.31160081205E-01 -0.79060853110E-01  0.12752993702E+00  0.23251884926E-01 0.  0.
         14    1    1    2    0    0 -0.15391126741E-02  0.18052319273E-01 -0.17023855998E-01  0.24860948735E-01  0.00000000000E+00 0. -1.
     999901    1    3    3    0    0  0.93743589395E-01 -0.49212400478E-01  0.96084709108E-01  0.89153911425E+00  0.88000000000E+00 0.  1.
        -11    1    4    4    0    0 -0.51991087626E-01  0.90899690699E-02 -0.52860604515E-01  0.74700772158E-01  0.51100000000E-03 0.  1.
         11    1    4    4    0    0 -0.40213389094E-01  0.22070112135E-01 -0.26200248594E-01  0.52829164857E-01  0.51100000000E-03 0. -1.
</event>
<event>
 8    1  0.1086486E+005  0.1043930E+01  0.7957747E-01            NaN
         13   -1    0    0    0    0  0.00000000000E+00  0.00000000000E+00  0.74505805969E-08  0.10566000000E+00  0.10566000000E+00 0. -1.
     999900   -1    0    0    0    0 -0.00000000000E+00 -0.00000000000E+00 -0.74505805969E-08  0.93827000000E+00  0.93827000000E+00 0. -1.
     999902    2    1    2    0    0  0.24885309075E-02  0.21067499982E-01 -0.10120905512E-01  0.10204254245E+01  0.10201546853E+01 0.  0.
     999903    2    3    3    0    0  0.37324268813E-01 -0.82614672459E-01  0.88554062758E-01  0.12818091154E+00  0.19241593111E-01 0.  0.
         14    1    1    2    0    0 -0.24885309075E-02 -0.21067499982E-01  0.10120905512E-01  0.23504575511E-01  0.00000000000E+00 0. -1.
     999901    1    3    3    0    0 -0.34835737906E-01  0.10368217244E+00 -0.98674968270E-01  0.89224451295E+00  0.88000000000E+00 0. -1.
        -11    1    4    4    0    0  0.31244138392E-01 -0.79342415956E-01  0.84984766214E-01  0.12039138990E+00  0.51100000000E-03 0.  1.
         11    1    4    4    0    0  0.60801304216E-02 -0.32722565035E-02  0.35692965432E-02  0.77895216401E-02  0.51100000000E-03 0. -1.
</event>
<event>
 8    1  0.1136669E+005  0.1043930E+01  0.7957747E-01            NaN
         13   -1    0    0    0    0  0.00000000000E+00  0.00000000000E+00  0.74505805969E-08  0.10566000000E+00  0.10566000000E+00 0. -1.
     999900   -1    0    0    0    0 -0.00000000000E+00 -0.00000000000E+00 -0.74505805969E-08  0.93827000000E+00  0.93827000000E+00 0.  1.
     999902    2    1    2    0    0 -0.23385808963E-01 -0.40796351072E-02  0.38164826803E-02  0.10198861853E+01  0.10196027295E+01 0.  0.
     999903    2    3    3    0    0  0.46496471091E-01 -0.95730708195E-01 -0.70591048085E-01  0.12925723179E+00  0.19951079792E-01 0.  0.
         14    1    1    2    0    0  0.23385808963E-01  0.40796351072E-02 -0.38164826803E-02  0.24043814662E-01  0.00000000000E+00 0. -1.
     999901    1    3    3    0    0 -0.69882280054E-01  0.91651073087E-01  0.74407530765E-01  0.89062895355E+00  0.88000000000E+00 0. -1.
        -11    1    4    4    0    0  0.14924955786E-01 -0.52222515042E-01 -0.31505803975E-01  0.62791895876E-01  0.51100000000E-03 0.  1.
         11    1    4    4    0    0  0.31571515305E-01 -0.43508193152E-01 -0.39085244110E-01  0.66465335914E-01  0.51100000000E-03 0. -1.
</event>
<event>
 8    1  0.1086486E+005  0.1043930E+01  0.7957747E-01            NaN
         13   -1    0    0    0    0  0.00000000000E+00  0.00000000000E+00  0.74505805969E-08  0.10566000000E+00  0.10566000000E+00 0.  1.
     999900   -1    0    0    0    0 -0.00000000000E+00 -0.00000000000E+00 -0.74505805969E-08  0.93827000000E+00  0.93827000000E+00 0. -1.
     999902    2    1    2    0    0  0.19685276767E-01 -0.11851922611E-01  0.88952802929E-02  0.10192905154E+01  0.10189926646E+01 0.  0.
     999903    2    3    3    0    0  0.26476927390E-01  0.68393107597E-01 -0.10367966212E+00  0.12847150511E+00  0.19411605737E-01 0.  0.
         14    1    1    2    0    0 -0.19685276767E-01  0.11851922611E-01 -0.88952802929E-02  0.24639484622E-01  0.00000000000E+00 0. -1.
     999901    1    3    3    0    0 -0.67916506231E-02 -0.80245030208E-01  0.11257494241E+00  0.89081901027E+00  0.88000000000E+00 0.  1.
        -11    1    4    4    0    0  0.27527365058E-01  0.50710499328E-01 -0.84879491405E-01  0.10263576254E+00  0.51100000000E-03 0.  1.
         11    1    4    4    0    0 -0.10504376682E-02  0.17682608269E-01 -0.18800170716E-01  0.25835742576E-01  0.51100000000E-03 0. -1.
</event>
<event>
 8    1  0.1086486E+005  0.1043930E+01  0.7957747E-01            NaN
         13   -1    0    0    0    0  0.00000000000E+00  0.00000000000E+00  0.74505805969E-08  0.10566000000E+00  0.10566000000E+00 0.  1.
     999900   -1    0    0    0    0 -0.00000000000E+00 -0.00000000000E+00 -0.74505805969E-08  0.93827000000E+00  0.93827000000E+00 0.  1.
     999902    2    1    2    0    0 -0.22350764362E-01 -0.64990479879E-02  0.67428311643E-02  0.10196965507E+01  0.10194085518E+01 0.  0.
     999903    2    3    3    0    0  0.38773630955E-01 -0.66206408741E-01 -0.10162494970E+00  0.12894140110E+00  0.20287225030E-01 0.  0.
         14    1    1    2    0    0  0.22350764362E-01  0.64990479879E-02 -0.67428311643E-02  0.24233449289E-01  0.00000000000E+00 0.  1.
     999901    1    3    3    0    0 -0.61124395317E-01  0.59707360753E-01  0.10836778087E+00  0.89075514961E+00  0.88000000000E+00 0.  1.
        -11    1    4    4    0    0  0.22706837361E-01 -0.55683405488E-01 -0.77941166830E-01  0.98444546408E-01  0.51100000000E-03 0.  1.
         11    1    4    4    0    0  0.16066793594E-01 -0.10523003253E-01 -0.23683782873E-01  0.30496854691E-01  0.51100000000E-03 0. -1.
</event>
<event>
 8    1  0.1086486E+005  0.1043930E+01  0.7957747E-01            NaN
         13   -1    0    0    0    0  0.00000000000E+00  0.00000000000E+00  0.74505805969E-08  0.10566000000E+00  0.10566000000E+00 0. -1.
     999900   -1    0    0    0    0 -0.00000000000E+00 -0.00000000000E+00 -0.74505805969E-08  0.93827000000E+00  0.93827000000E+00 0. -1.
     999902    2    1    2    0    0  0.29931421991E-02  0.14722620871E-01 -0.18098888488E-01  0.10204080054E+01  0.10201368601E+01 0.  0.
     999903    2    3    3    0    0 -0.78206115160E-01  0.70659824514E-01 -0.80247233016E-01  0.13272297856E+00  0.81708862417E-02 0.  0.
         14    1    1    2    0    0 -0.29931421991E-02 -0.14722620871E-01  0.18098888488E-01  0.23521994602E-01  0.00000000000E+00 0. -1.
     999901    1    3    3    0    0  0.81199257359E-01 -0.55937203643E-01  0.62148344527E-01  0.88768502684E+00  0.88000000000E+00 0.  1.
        -11    1    4    4    0    0 -0.26297256338E-01  0.20243945363E-01 -0.21880217297E-01  0.39753843144E-01  0.51100000000E-03 0. -1.
         11    1    4    4    0    0 -0.51908858822E-01  0.50415879152E-01 -0.58367015718E-01  0.92969135414E-01  0.51100000000E-03 0.  1.
</event>
<event>
 8    1  0.1086486E+005  0.1043930E+01  0.7957747E-01            NaN
         13   -1    0    0    0    0  0.00000000000E+00  0.00000000000E+00  0.74505805969E-08  0.10566000000E+00  0.10566000000E+00 0.  1.
     999900   -1    0    0    0    0 -0.00000000000E+00 -0.00000000000E+00 -0.74505805969E-08  0.93827000000E+00  0.93827000000E+00 0.  1.
     999902    2    1    2    0    0 -0.17611808310E-01  0.14905843019E-01 -0.39112303692E-02  0.10205279131E+01  0.10202595571E+01 0.  0.
     999903    2    3    3    0    0 -0.11804143816E+00  0.16612446334E-01 -0.55959079214E-01  0.13328611877E+00  0.20591658829E-01 0.  0.
         14    1    1    2    0    0  0.17611808310E-01 -0.14905843019E-01  0.39112303692E-02  0.23402086895E-01  0.00000000000E+00 0.  1.
     999901    1    3    3    0    0  0.10042962985E+00 -0.17066033155E-02  0.52047848845E-01  0.88724179434E+00  0.88000000000E+00 0. -1.
        -11    1    4    4    0    0 -0.45960051468E-01  0.11498714487E-01 -0.12655767350E-01  0.49040558052E-01  0.51100000000E-03 0.  1.
         11    1    4    4    0    0 -0.72081386694E-01  0.51137318475E-02 -0.43303311863E-01  0.84245560717E-01  0.51100000000E-03 0. -1.
</event>
<event>
 8    1  0.1086486E+005  0.1043930E+01  0.7957747E-01            NaN
         13   -1    0    0    0    0  0.00000000000E+00  0.00000000000E+00  0.74505805969E-08  0.10566000000E+00  0.10566000000E+00 0. -1.
     999900   -1    0    0    0    0 -0.00000000000E+00 -0.00000000000E+00 -0.74505805969E-08  0.93827000000E+00  0.93827000000E+00 0. -1.
     999902    2    1    2    0    0 -0.31271795697E-02 -0.22632820473E-01  0.66369117539E-02  0.10201377237E+01  0.10198602369E+01 0.  0.
     999903    2    3    3    0    0 -0.57279587135E-01  0.92629520504E-01 -0.64458935865E-01  0.12813295350E+00  0.20047947212E-01 0.  0.
         14    1    1    2    0    0  0.31271795697E-02  0.22632820473E-01 -0.66369117539E-02  0.23792276315E-01  0.00000000000E+00 0.  1.
     999901    1    3    3    0    0  0.54152407565E-01 -0.11526234098E+00  0.71095847618E-01  0.89200477019E+00  0.88000000000E+00 0.  1.
        -11    1    4    4    0    0 -0.44858183305E-01  0.55363759710E-01 -0.45170195300E-01  0.84368300700E-01  0.51100000000E-03 0. -1.
         11    1    4    4    0    0 -0.12421403831E-01  0.37265760794E-01 -0.19288740565E-01  0.43764652795E-01  0.51100000000E-03 0.  1.
</event>
<event>
 8    1  0.1086486E+005  0.1043930E+01  0.7957747E-01            NaN
         13   -1    0    0    0    0  0.00000000000E+00  0.00000000000E+00  0.74505805969E-08  0.10566000000E+00  0.10566000000E+00 0. -1.
     999900   -1    0    0    0    0 -0.00000000000E+00 -0.00000000000E+00 -0.74505805969E-08  0.93827000000E+00  0.93827000000E+00 0. -1.
     999902    2    1    2    0    0 -0.20069866594E-01 -0.10682405585E-01  0.55450929118E-02  0.10205278337E+01  0.10202594758E+01 0.  0.
     999903    2    3    3    0    0  0.10665968537E+00 -0.42811800525E-01  0.56103120196E-01  0.12943367955E+00  0.19909258121E-01 0.  0.
         14    1    1    2    0    0  0.20069866594E-01  0.10682405585E-01 -0.55450929118E-02  0.23402166344E-01  0.00000000000E+00 0.  1.
     999901    1    3    3    0    0 -0.12672955196E+00  0.32129394940E-01 -0.50558027284E-01  0.89109415411E+00  0.88000000000E+00 0. -1.
        -11    1    4    4    0    0  0.53593490573E-01 -0.30233976302E-01  0.36095523853E-01  0.71340756361E-01  0.51100000000E-03 0.  1.
         11    1    4    4    0    0  0.53066194795E-01 -0.12577824223E-01  0.20007596343E-01  0.58092923189E-01  0.51100000000E-03 0. -1.
</event>
<event>
 8    1  0.1086486E+005  0.1043930E+01  0.7957747E-01            NaN
         13   -1    0    0    0    0  0.00000000000E+00  0.00000000000E+00  0.74505805969E-08  0.10566000000E+00  0.10566000000E+00 0. -1.
     999900   -1    0    0    0    0 -0.00000000000E+00 -0.00000000000E+00 -0.74505805969E-08  0.93827000000E+00  0.93827000000E+00 0. -1.
     999902    2    1    2    0    0 -0.37390550219E-02 -0.20011511115E-01 -0.13067663442E-01  0.10197389906E+01  0.10194520116E+01 0.  0.
     999903    2    3    3    0    0 -0.11915964856E+00  0.29314668617E-01  0.36208710913E-01  0.12946760133E+00  0.19809528186E-01 0.  0.
         14    1    1    2    0    0  0.37390550219E-02  0.20011511115E-01  0.13067663442E-01  0.24191009433E-01  0.00000000000E+00 0. -1.
     999901    1    3    3    0    0  0.11542059354E+00 -0.49326179732E-01 -0.49276374355E-01  0.89027138923E+00  0.88000000000E+00 0. -1.
        -11    1    4    4    0    0 -0.84554510740E-01  0.17881642437E-01  0.34254030239E-01  0.92966758206E-01  0.51100000000E-03 0. -1.
         11    1    4    4    0    0 -0.34605137823E-01  0.11433026180E-01  0.19546806740E-02  0.36500843126E-01  0.51100000000E-03 0.  1.
</event>
<event>
 8    1  0.1086486E+005  0.1043930E+01  0.7957747E-01            NaN
         13   -1    0    0    0    0  0.00000000000E+00  0.00000000000E+00  0.74505805969E-08  0.10566000000E+00  0.10566000000E+00 0. -1.
     999900   -1    0    0    0    0 -0.00000000000E+00 -0.00000000000E+00 -0.74505805969E-08  0.93827000000E+00  0.93827000000E+00 0. -1.
     999902    2    1    2    0    0  0.11269508554E-01  0.27145857123E-02  0.20449117381E-01  0.10204238901E+01  0.10201531152E+01 0.  0.
     999903    2    3    3    0    0  0.50993092940E-01  0.60458103624E-02 -0.11646856222E+00  0.12894449544E+00  0.20613334710E-01 0.  0.
         14    1    1    2    0    0 -0.11269508554E-01 -0.27145857123E-02 -0.20449117381E-01  0.23506109850E-01  0.00000000000E+00 0.  1.
     999901    1    3    3    0    0 -0.39723584386E-01 -0.33312246501E-02  0.13691767960E+00  0.89147939471E+00  0.88000000000E+00 0.  1.
        -11    1    4    4    0    0  0.41149196683E-02  0.71047325562E-02 -0.21749745103E-01  0.23253436770E-01  0.51100000000E-03 0. -1.
         11    1    4    4    0    0  0.46878173272E-01 -0.10589221938E-02 -0.94718817113E-01  0.10569105867E+00  0.51100000000E-03 0.  1.
</event>
<event>
 8    1  0.1086486E+005  0.1043930E+01  0.7957747E-01            NaN
         13   -1    0    0    0    0  0.00000000000E+00  0.00000000000E+00  0.74505805969E-08  0.10566000000E+00  0.10566000000E+00 0.  1.
     999900   -1    0    0    0    0 -0.00000000000E+00 -0.00000000000E+00 -0.74505805969E-08  0.93827000000E+00  0.93827000000E+00 0. -1.
     999902    2    1    2    0    0  0.15529397575E-01 -0.10400886993E-01 -0.15793837399E-01  0.10194598970E+01  0.10191661767E+01 0.  0.
     999903    2    3    3    0    0 -0.71895564036E-01  0.10265505117E+00 -0.15951138426E-01  0.12793042820E+00  0.20117752908E-01 0.  0.
         14    1    1    2    0    0 -0.15529397575E-01  0.10400886993E-01  0.15793837399E-01  0.24470102964E-01  0.00000000000E+00 0.  1.
     999901    1    3    3    0    0  0.87424961611E-01 -0.11305593816E+00  0.15730102658E-03  0.89152946884E+00  0.88000000000E+00 0. -1.
        -11    1    4    4    0    0 -0.21571341694E-01  0.41331347516E-01  0.17153612171E-02  0.46656260621E-01  0.51100000000E-03 0.  1.
         11    1    4    4    0    0 -0.50324222342E-01  0.61323703655E-01 -0.17666499643E-01  0.81274167575E-01  0.51100000000E-03 0. -1.
</event>
<event>
 8    1  0.1086486E+005  0.1043930E+01  0.7957747E-01            NaN
         13   -1    0    0    0    0  0.00000000000E+00  0.00000000000E+00  0.74505805969E-08  0.10566000000E+00  0.10566000000E+00 0.  1.
     999900   -1    0    0    0    0 -0.00000000000E+00 -0.00000000000E+00 -0.74505805969E-08  0.93827000000E+00  0.93827000000E+00 0.  1.
     999902    2    1    2    0    0 -0.12147020098E-01 -0.15087094029E-01  0.13279126627E-01  0.10204458414E+01  0.10201755777E+01 0.  0.
     999903    2    3    3    0    0  0.36005669860E-01 -0.91504749653E-02 -0.12167026175E+00  0.12883759643E+00  0.20379749856E-01 0.  0.
         14    1    1    2    0    0  0.12147020098E-01  0.15087094029E-01 -0.13279126627E-01  0.23484158649E-01  0.00000000000E+00 0.  1.
     999901    1    3    3    0    0 -0.48152689958E-01 -0.59366190633E-02  0.13494938838E+00  0.89160824493E+00  0.88000000000E+00 0. -1.
        -11    1    4    4    0    0  0.10282490121E-01  0.54693041293E-02 -0.22419815482E-01  0.25269589193E-01  0.51100000000E-03 0.  1.
         11    1    4    4    0    0  0.25723179739E-01 -0.14619779095E-01 -0.99250446268E-01  0.10356800723E+00  0.51100000000E-03 0. -1.
</event>
<event>
 8    1  0.1086486E+005  0.1043930E+01  0.7957747E-01            NaN
         13   -1    0    0    0    0  0.00000000000E+00  0.00000000000E+00  0.74505805969E-08  0.10566000000E+00  0.10566000000E+00 0. -1.
     999900   -1    0    0    0    0 -0.00000000000E+00 -0.00000000000E+00 -0.74505805969E-08  0.93827000000E+00  0.93827000000E+00 0. -1.
     999902    2    1    2    0    0  0.31762104022E-01  0.51763752701E-02 -0.56045337159E-02  0.10112644691E+01  0.10107367558E+01 0.  0.
     999903    2    3    3    0    0  0.41654458377E-01 -0.94093864321E-01  0.63947194564E-01  0.12290087118E+00  0.20655053599E-01 0.  0.
         14    1    1    2    0    0 -0.31762104022E-01 -0.51763752701E-02  0.56045337159E-02  0.32665530931E-01  0.00000000000E+00 0. -1.
     999901    1    3    3    0    0 -0.98923543552E-02  0.99270239591E-01 -0.69551728280E-01  0.88836359789E+00  0.88000000000E+00 0. -1.
        -11    1    4    4    0    0  0.21896332981E-01 -0.59120027725E-01  0.27966662367E-01  0.68971170797E-01  0.51100000000E-03 0.  1.
         11    1    4    4    0    0  0.19758125396E-01 -0.34973836596E-01  0.35980532197E-01  0.53929700385E-01  0.51100000000E-03 0. -1.
</event>
<event>
 8    1  0.1086486E+005  0.1043930E+01  0.7957747E-01            NaN
         13   -1    0    0    0    0  0.00000000000E+00  0.00000000000E+00  0.74505805969E-08  0.10566000000E+00  0.10566000000E+00 0. -1.
     999900   -1    0    0    0    0 -0.00000000000E+00 -0.00000000000E+00 -0.74505805969E-08  0.93827000000E+00  0.93827000000E+00 0. -1.
     999902    2    1    2    0    0  0.22041730299E-01 -0.61799257255E-02  0.64928097788E-02  0.10201353381E+01  0.10198577950E+01 0.  0.
     999903    2    3    3    0    0  0.11979361131E+00 -0.27315976924E-01  0.48263454970E-01  0.13348605585E+00  0.19811464207E-01 0.  0.
         14    1    1    2    0    0 -0.22041730299E-01  0.61799257255E-02 -0.64928097788E-02  0.23794661909E-01  0.00000000000E+00 0. -1.
     999901    1    3    3    0    0 -0.97751881012E-01  0.21136051198E-01 -0.41770645191E-01  0.88664928224E+00  0.88000000000E+00 0. -1.
        -11    1    4    4    0    0  0.11215271046E+00 -0.26655522474E-01  0.49921101530E-01  0.12562294711E+00  0.51100000000E-03 0. -1.
         11    1    4    4    0    0  0.76409008489E-02 -0.66045444995E-03 -0.16576465601E-02  0.78631087352E-02  0.51100000000E-03 0.  1.
</event>
<event>
 8    1  0.1086486E+005  0.1043930E+01  0.7957747E-01            NaN
         13   -1    0    0    0    0  0.00000000000E+00  0.00000000000E+00  0.74505805969E-08  0.10566000000E+00  0.10566000000E+00 0. -1.
     999900   -1    0    0    0    0 -0.00000000000E+00 -0.00000000000E+00 -0.74505805969E-08  0.93827000000E+00  0.93827000000E+00 0.  1.
     999902    2    1    2    0    0  0.10293620738E-01 -0.16157062092E-01 -0.14064016708E-01  0.10201643557E+01  0.10198874971E+01 0.  0.
     999903    2    3    3    0    0  0.10338999026E+00  0.73128211930E-01 -0.24794190264E-01  0.13069601404E+00  0.20723676078E-01 0.  0.
         14    1    1    2    0    0 -0.10293620738E-01  0.16157062092E-01  0.14064016708E-01  0.23765644307E-01  0.00000000000E+00 0.  1.
     999901    1    3    3    0    0 -0.93096369520E-01 -0.89285274022E-01  0.10730173556E-01  0.88946834165E+00  0.88000000000E+00 0.  1.
        -11    1    4    4    0    0  0.57009680849E-01  0.45821280949E-01 -0.48807295290E-02  0.73306044362E-01  0.51100000000E-03 0.  1.
         11    1    4    4    0    0  0.46380309409E-01  0.27306930980E-01 -0.19913460735E-01  0.57389969680E-01  0.51100000000E-03 0. -1.
</event>
<event>
 8    1  0.1399895E+005  0.1043930E+01  0.7957747E-01            NaN
         13   -1    0    0    0    0  0.00000000000E+00  0.00000000000E+00  0.74505805969E-08  0.10566000000E+00  0.10566000000E+00 0. -1.
     999900   -1    0    0    0    0 -0.00000000000E+00 -0.00000000000E+00 -0.74505805969E-08  0.93827000000E+00  0.93827000000E+00 0.  1.
     999902    2    1    2    0    0 -0.15393504326E-02  0.18226926036E-01 -0.14321825973E-01  0.10206984453E+01  0.10204340308E+01 0.  0.
     999903    2    3    3    0    0 -0.90548408429E-01  0.68589470422E-01 -0.66616656277E-01  0.13323365869E+00  0.20245967297E-01 0.  0.
         14    1    1    2    0    0  0.15393504326E-02 -0.18226926036E-01  0.14321825973E-01  0.23231554655E-01  0.00000000000E+00 0. -1.
     999901    1    3    3    0    0  0.89009057996E-01 -0.50362544385E-01  0.52294830304E-01  0.88746478666E+00  0.88000000000E+00 0.  1.
        -11    1    4    4    0    0 -0.79867152032E-01  0.50914800507E-01 -0.54051792605E-01  0.10905473987E+00  0.51100000000E-03 0. -1.
         11    1    4    4    0    0 -0.10681256397E-01  0.17674669915E-01 -0.12564863672E-01  0.24178918812E-01  0.51100000000E-03 0.  1.
</event>
<event>
 8    1  0.1086486E+005  0.1043930E+01  0.7957747E-01            NaN
         13   -1    0    0    0    0  0.00000000000E+00  0.00000000000E+00  0.74505805969E-08  0.10566000000E+00  0.10566000000E+00 0. -1.
     999900   -1    0    0    0    0 -0.00000000000E+00 -0.00000000000E+00 -0.74505805969E-08  0.93827000000E+00  0.93827000000E+00 0.  1.
     999902    2    1    2    0    0 -0.12820645950E-01 -0.35817250542E-02  0.12056360462E-01  0.10259702243E+01  0.10258130178E+01 0.  0.
     999903    2    3    3    0    0 -0.68312050505E-01  0.11536256303E+00 -0.96370930182E-02  0.13597154698E+00  0.20501971445E-01 0.  0.
         14    1    1    2    0    0  0.12820645950E-01  0.35817250542E-02 -0.12056360462E-01  0.17959775737E-01  0.00000000000E+00 0.  1.
     999901    1    3    3    0    0  0.55491404555E-01 -0.11894428808E+00  0.21693453480E-01  0.88999867729E+00  0.88000000000E+00 0. -1.
        -11    1    4    4    0    0 -0.37984466746E-01  0.72533684763E-01 -0.14909320011E-01  0.83225621556E-01  0.51100000000E-03 0. -1.
         11    1    4    4    0    0 -0.30327583759E-01  0.42828878265E-01  0.52722269927E-02  0.52745925421E-01  0.51100000000E-03 0.  1.
</event>
<event>
 7    1  0.1086486E+005  0.1043930E+01  0.7957747E-01            NaN
         13   -1    0    0    0    0  0.00000000000E+00  0.00000000000E+00  0.74505805969E-08  0.10566000000E+00  0.10566000000E+00 0.  1.
     999900   -1    0    0    0    0 -0.00000000000E+00 -0.00000000000E+00 -0.74505805969E-08  0.93827000000E+00  0.93827000000E+00 0. -1.
     999902    2    1    2    0    0  0.22793950839E-01  0.66260123602E-02  0.21682792536E-03  0.10201915239E+01  0.10199153054E+01 0.  0.
         14    1    1    2    0    0 -0.22793950839E-01 -0.66260123602E-02 -0.21682792536E-03  0.23738476131E-01  0.00000000000E+00 0. -1.
     999901    1    3    3    0    0  0.96258585913E-01  0.95452166970E-01  0.16849481876E-01  0.89053957609E+00  0.88000000000E+00 0.  1.
        -11    1    3    3    0    0 -0.62998364980E-01 -0.83798872200E-01 -0.32700898490E-01  0.10982101281E+00  0.51100000000E-03 0. -1.
         11    1    3    3    0    0 -0.10466270094E-01 -0.50272824107E-02  0.16068244540E-01  0.19830934968E-01  0.51100000000E-03 0.  1.
</event>
<event>
 7    1  0.1086486E+005  0.1043930E+01  0.7957747E-01            NaN
         13   -1    0    0    0    0  0.00000000000E+00  0.00000000000E+00  0.74505805969E-08  0.10566000000E+00  0.10566000000E+00 0. -1.
     999900   -1    0    0    0    0 -0.00000000000E+00 -0.00000000000E+00 -0.74505805969E-08  0.93827000000E+00  0.93827000000E+00 0. -1.
     999903    2    1    2    0    0 -0.17369282641E-01  0.40864539365E-01 -0.10408812698E+00  0.11511783443E+00  0.21122856551E-01 0.  0.
         14    1    1    2    0    0  0.14652759209E-01 -0.21730267525E-01 -0.28444633816E-01  0.38678224779E-01  0.00000000000E+00 0.  1.
     999901    1    1    2    0    0  0.27165234315E-02 -0.19134271841E-01  0.13253276080E+00  0.89013394079E+00  0.88000000000E+00 0.  1.
        -11    1    3    3    0    0 -0.60728255454E-03  0.20829384647E-02 -0.27974173087E-01  0.28062838518E-01  0.51100000000E-03 0.  1.
         11    1    3    3    0    0 -0.16762000086E-01  0.38781600901E-01 -0.76113953895E-01  0.87054995915E-01  0.51100000000E-03 0. -1.
</event>
<event>
 8    1  0.1086486E+005  0.1043930E+01  0.7957747E-01            NaN
         13   -1    0    0    0    0  0.00000000000E+00  0.00000000000E+00  0.74505805969E-08  0.10566000000E+00  0.10566000000E+00 0.  1.
     999900   -1    0    0    0    0 -0.00000000000E+00 -0.00000000000E+00 -0.74505805969E-08  0.93827000000E+00  0.93827000000E+00 0. -1.
     999902    2    1    2    0    0 -0.87388103877E-02  0.32114363594E-03 -0.21569989571E-01  0.10206548117E+01  0.10203893915E+01 0.  0.
     999903    2    3    3    0    0 -0.10694738538E+00  0.58564519852E-01  0.43181427240E-01  0.13091891771E+00  0.20188638662E-01 0.  0.
         14    1    1    2    0    0  0.87388103877E-02 -0.32114363594E-03  0.21569989571E-01  0.23275188298E-01  0.00000000000E+00 0.  1.
     999901    1    3    3    0    0  0.98208574994E-01 -0.58243376216E-01 -0.64751416811E-01  0.88973589399E+00  0.88000000000E+00 0. -1.
        -11    1    4    4    0    0 -0.70217993547E-01  0.47453802807E-01  0.24401262644E-01  0.88193609509E-01  0.51100000000E-03 0.  1.
         11    1    4    4    0    0 -0.36729391834E-01  0.11110717044E-01  0.18780164596E-01  0.42725308203E-01  0.51100000000E-03 0. -1.
</event>
<event>
 8    1  0.1086486E+005  0.1043930E+01  0.7957747E-01            NaN
         13   -1    0    0    0    0  0.00000000000E+00  0.00000000000E+00  0.74505805969E-08  0.10566000000E+00  0.10566000000E+00 0.  1.
     999900   -1    0    0    0    0 -0.00000000000E+00 -0.00000000000E+00 -0.74505805969E-08  0.93827000000E+00  0.93827000000E+00 0. -1.
     999902    2    1    2    0    0 -0.20325530599E-01  0.86715448932E-02 -0.84577868008E-02  0.10202687016E+01  0.10199942972E+01 0.  0.
     999903    2    3    3    0    0 -0.53870102741E-01  0.99052324063E-01 -0.67601089206E-01  0.13303037184E+00  0.20342607927E-01 0.  0.
         14    1    1    2    0    0  0.20325530599E-01 -0.86715448932E-02  0.84577868008E-02  0.23661298411E-01  0.00000000000E+00 0.  1.
     999901    1    3    3    0    0  0.33544572142E-01 -0.90380779170E-01  0.59143302405E-01  0.88723832975E+00  0.88000000000E+00 0.  1.
        -11    1    4    4    0    0 -0.48649314106E-01  0.73334267311E-01 -0.56159478356E-01  0.10439740732E+00  0.51100000000E-03 0.  1.
         11    1    4    4    0    0 -0.52207886343E-02  0.25718056752E-01 -0.11441610850E-01  0.28632964515E-01  0.51100000000E-03 0. -1.
</event>
<event>
 8    1  0.1086486E+005  0.1043930E+01  0.7957747E-01            NaN
         13   -1    0    0    0    0  0.00000000000E+00  0.00000000000E+00  0.74505805969E-08  0.10566000000E+00  0.10566000000E+00 0. -1.
     999900   -1    0    0    0    0 -0.00000000000E+00 -0.00000000000E+00 -0.74505805969E-08  0.93827000000E+00  0.93827000000E+00 0.  1.
     999902    2    1    2    0    0  0.17816500800E-01 -0.59695228888E-02 -0.14109217675E-01  0.10204324910E+01  0.10201619165E+01 0.  0.
     999903    2    3    3    0    0  0.51151272963E-01  0.98290226882E-02 -0.12103876732E+00  0.13319254059E+00  0.19411523924E-01 0.  0.
         14    1    1    2    0    0 -0.17816500800E-01  0.59695228888E-02  0.14109217675E-01  0.23497508968E-01  0.00000000000E+00 0. -1.
     999901    1    3    3    0    0 -0.33334772163E-01 -0.15798545577E-01  0.10692954965E+00  0.88723995044E+00  0.88000000000E+00 0. -1.
        -11    1    4    4    0    0  0.51684035798E-01  0.10741922285E-01 -0.10915142247E+00  0.12124736120E+00  0.51100000000E-03 0. -1.
         11    1    4    4    0    0 -0.53276283466E-03 -0.91289959668E-03 -0.11887344853E-01  0.11945179386E-01  0.51100000000E-03 0.  1.
</event>
<event>
 8    1  0.1086486E+005  0.1043930E+01  0.7957747E-01            NaN
         13   -1    0    0    0    0  0.00000000000E+00  0.00000000000E+00  0.74505805969E-08  0.10566000000E+00  0.10566000000E+00 0.  1.
     999900   -1    0    0    0    0 -0.00000000000E+00 -0.00000000000E+00 -0.74505805969E-08  0.93827000000E+00  0.93827000000E+00 0. -1.
     999902    2    1    2    0    0 -0.57140268084E-02  0.21698382789E-01 -0.80385694277E-02  0.10200953925E+01  0.10198169057E+01 0.  0.
     999903    2    3    3    0    0  0.76530713503E-01  0.35924204479E-02  0.10203403794E+00  0.12924860312E+00  0.20600993135E-01 0.  0.
         14    1    1    2    0    0  0.57140268084E-02 -0.21698382789E-01  0.80385694277E-02  0.23834607538E-01  0.00000000000E+00 0.  1.
     999901    1    3    3    0    0 -0.82244740311E-01  0.18105962341E-01 -0.11007260736E+00  0.89084678934E+00  0.88000000000E+00 0. -1.
        -11    1    4    4    0    0  0.28444850115E-01  0.89681548017E-03  0.54999176513E-01  0.61928057569E-01  0.51100000000E-03 0. -1.
         11    1    4    4    0    0  0.48085863387E-01  0.26956049678E-02  0.47034861423E-01  0.67320545556E-01  0.51100000000E-03 0.  1.
</event>
<event>
 8    1  0.1086486E+005  0.1043930E+01  0.7957747E-01            NaN
         13   -1    0    0    0    0  0.00000000000E+00  0.00000000000E+00  0.74505805969E-08  0.10566000000E+00  0.10566000000E+00 0.  1.
     999900   -1    0    0    0    0 -0.00000000000E+00 -0.00000000000E+00 -0.74505805969E-08  0.93827000000E+00  0.93827000000E+00 0.  1.
     999902    2    1    2    0    0 -0.57015437404E-02 -0.22943174984E-01  0.24442364618E-02  0.10201629814E+01  0.10198860905E+01 0.  0.
     999903    2    3    3    0    0  0.10527031338E+00  0.70452340445E-01  0.15795050750E-02  0.12828954696E+00  0.20256896823E-01 0.  0.
         14    1    1    2    0    0  0.57015437404E-02  0.22943174984E-01 -0.24442364618E-02  0.23767018560E-01  0.00000000000E+00 0. -1.
     999901    1    3    3    0    0 -0.11097185712E+00 -0.93395515428E-01  0.86473138680E-03  0.89187343448E+00  0.88000000000E+00 0. -1.
        -11    1    4    4    0    0  0.14438649139E-01  0.19054958047E-01  0.15133341398E-03  0.23913386166E-01  0.51100000000E-03 0.  1.
         11    1    4    4    0    0  0.90831664242E-01  0.51397382398E-01  0.14281716611E-02  0.10437616079E+00  0.51100000000E-03 0. -1.
</event>
<event>
 8    1  0.1086486E+005  0.1043930E+01  0.7957747E-01            NaN
         13   -1    0    0    0    0  0.00000000000E+00  0.00000000000E+00  0.74505805969E-08  0.10566000000E+00  0.10566000000E+00 0.  1.
     999900   -1    0    0    0    0 -0.00000000000E+00 -0.00000000000E+00 -0.74505805969E-08  0.93827000000E+00  0.93827000000E+00 0.  1.
     999902    2    1    2    0    0 -0.20402942512E-01  0.48737528016E-02  0.11097545419E-01  0.10201983957E+01  0.10199223390E+01 0.  0.
     999903    2    3    3    0    0  0.72710007777E-01 -0.88801534446E-01  0.55950749703E-01  0.12921192502E+00  0.19818613084E-01 0.  0.
         14    1    1    2    0    0  0.20402942512E-01 -0.48737528016E-02 -0.11097545419E-01  0.23731604325E-01  0.00000000000E+00 0.  1.
     999901    1    3    3    0    0 -0.93112950289E-01  0.93675287248E-01 -0.44853204283E-01  0.89098647065E+00  0.88000000000E+00 0.  1.
        -11    1    4    4    0    0  0.51563730904E-01 -0.70112625888E-01  0.49972389148E-01  0.10035984980E+00  0.51100000000E-03 0.  1.
         11    1    4    4    0    0  0.21146276873E-01 -0.18688908558E-01  0.59783605542E-02  0.28852075222E-01  0.51100000000E-03 0. -1.
</event>
<event>
 8    1  0.1086486E+005  0.1043930E+01  0.7957747E-01            NaN
         13   -1    0    0    0    0  0.00000000000E+00  0.00000000000E+00  0.74505805969E-08  0.10566000000E+00  0.10566000000E+00 0. -1.
     999900   -1    0    0    0    0 -0.00000000000E+00 -0.00000000000E+00 -0.74505805969E-08  0.93827000000E+00  0.93827000000E+00 0. -1.
     999902    2    1    2    0    0  0.66125905559E-02 -0.29873060147E-02  0.21102416770E-01  0.10216149301E+01  0.10213711877E+01 0.  0.
     999903    2    3    3    0    0  0.44288525830E-01  0.12064635010E+00  0.23614816680E-01  0.13217068273E+00  0.19859871429E-01 0.  0.
         14    1    1    2    0    0 -0.66125905559E-02  0.29873060147E-02 -0.21102416770E-01  0.22315069900E-01  0.00000000000E+00 0.  1.
     999901    1    3    3    0    0 -0.37675935275E-01 -0.12363365612E+00 -0.25123999095E-02  0.88944424737E+00  0.88000000000E+00 0.  1.
        -11    1    4    4    0    0  0.32474124501E-01  0.75882849593E-01  0.23682761256E-01  0.85871473297E-01  0.51100000000E-03 0.  1.
         11    1    4    4    0    0  0.11814401330E-01  0.44763500511E-01 -0.67944576933E-04  0.46299209435E-01  0.51100000000E-03 0. -1.
</event>
<event>
 8    1  0.1086486E+005  0.1043930E+01  0.7957747E-01            NaN
         13   -1    0    0    0    0  0.00000000000E+00  0.00000000000E+00  0.74505805969E-08  0.10566000000E+00  0.10566000000E+00 0.  1.
     999900   -1    0    0    0    0 -0.00000000000E+00 -0.00000000000E+00 -0.74505805969E-08  0.93827000000E+00  0.93827000000E+00 0.  1.
     999902    2    1    2    0    0  0.21282762505E-01  0.14812424243E-03  0.96998422060E-02  0.10205405823E+01  0.10202725201E+01 0.  0.
     999903    2    3    3    0    0  0.51593228470E-01 -0.21120904581E-01 -0.11657004386E+00  0.13075679956E+00  0.20020281472E-01 0.  0.
         14    1    1    2    0    0 -0.21282762505E-01 -0.14812424243E-03 -0.96998422060E-02  0.23389417681E-01  0.00000000000E+00 0.  1.
     999901    1    3    3    0    0 -0.30310465965E-01  0.21269028824E-01  0.12626988607E+00  0.88978378276E+00  0.88000000000E+00 0. -1.
        -11    1    4    4    0    0  0.55427371726E-02 -0.60882015129E-02 -0.65164668104E-02  0.10512544588E-01  0.51100000000E-03 0.  1.
         11    1    4    4    0    0  0.46050491298E-01 -0.15032703068E-01 -0.11005357705E+00  0.12024425497E+00  0.51100000000E-03 0. -1.
</event>
<event>
 8    1  0.1086486E+005  0.1043930E+01  0.7957747E-01            NaN
         13   -1    0    0    0    0  0.00000000000E+00  0.00000000000E+00  0.74505805969E-08  0.10566000000E+00  0.10566000000E+00 0.  1.
     999900   -1    0    0    0    0 -0.00000000000E+00 -0.00000000000E+00 -0.74505805969E-08  0.93827000000E+00  0.93827000000E+00 0. -1.
     999902    2    1    2    0    0  0.10483401636E-01  0.24810629398E-01 -0.79718172466E-02  0.10158405196E+01  0.10154520876E+01 0.  0.
     999903    2    3    3    0    0 -0.10824176748E+00 -0.15596179148E-02 -0.60753626241E-01  0.12590963737E+00  0.21059939361E-01 0.  0.
         14    1    1    2    0    0 -0.10483401636E-01 -0.24810629398E-01  0.79718172466E-02  0.28089480436E-01  0.00000000000E+00 0. -1.
     999901    1    3    3    0    0  0.11872516911E+00  0.26370247312E-01  0.52781808994E-01  0.88993088220E+00  0.88000000000E+00 0. -1.
        -11    1    4    4    0    0 -0.48162015887E-01 -0.15286678419E-02 -0.39060308028E-01  0.62031325827E-01  0.51100000000E-03 0.  1.
         11    1    4    4    0    0 -0.60079751592E-01 -0.30950072951E-04 -0.21693318212E-01  0.63878311541E-01  0.51100000000E-03 0. -1.
</event>
<event>
 8    1  0.1086486E+005  0.1043930E+01  0.7957747E-01            NaN
         13   -1    0    0    0    0  0.00000000000E+00  0.00000000000E+00  0.74505805969E-08  0.10566000000E+00  0.10566000000E+00 0.  1.
     999900   -1    0    0    0    0 -0.00000000000E+00 -0.00000000000E+00 -0.74505805969E-08  0.93827000000E+00  0.93827000000E+00 0. -1.
     999902    2    1    2    0    0  0.44753708710E-02 -0.76535340503E-02 -0.21269413155E-01  0.10208867046E+01  0.10206266066E+01 0.  0.
     999903    2    3    3    0    0  0.11938476476E+00  0.43607639521E-01 -0.27055018554E-01  0.13191800437E+00  0.22716460281E-01 0.  0.
         14    1    1    2    0    0 -0.44753708710E-02  0.76535340503E-02  0.21269413155E-01  0.23043295421E-01  0.00000000000E+00 0.  1.
     999901    1    3    3    0    0 -0.11490939389E+00 -0.51261173572E-01  0.57856053994E-02  0.88896870021E+00  0.88000000000E+00 0.  1.
        -11    1    4    4    0    0  0.84022301979E-02 -0.24701344693E-02 -0.35943269491E-02  0.94804717083E-02  0.51100000000E-03 0.  1.
         11    1    4    4    0    0  0.11098253456E+00  0.46077773991E-01 -0.23460691605E-01  0.12243753266E+00  0.51100000000E-03 0. -1.
</event>
<event>
 8    1  0.1086486E+005  0.1043930E+01  0.7957747E-01            NaN
         13   -1    0    0    0    0  0.00000000000E+00  0.00000000000E+00  0.74505805969E-08  0.10566000000E+00  0.10566000000E+00 0.  1.
     999900   -1    0    0    0    0 -0.00000000000E+00 -0.00000000000E+00 -0.74505805969E-08  0.93827000000E+00  0.93827000000E+00 0. -1.
     999902    2    1    2    0    0 -0.13051983528E-01  0.15079894653E-01  0.12813651119E-01  0.10202245755E+01  0.10199491346E+01 0.  0.
     999903    2    3    3    0    0  0.53297016333E-01 -0.22760866713E-01  0.11413353781E+00  0.13112400049E+00  0.28432552634E-01 0.  0.
         14    1    1    2    0    0  0.13051983528E-01 -0.15079894653E-01 -0.12813651119E-01  0.23705424521E-01  0.00000000000E+00 0. -1.
     999901    1    3    3    0    0 -0.66348999860E-01  0.37840761366E-01 -0.10131988669E+00  0.88910057499E+00  0.88000000000E+00 0. -1.
        -11    1    4    4    0    0  0.45791206330E-01 -0.63815259225E-02  0.87493163689E-01  0.98958947365E-01  0.51100000000E-03 0. -1.
         11    1    4    4    0    0  0.75058100024E-02 -0.16379340791E-01  0.26640374117E-01  0.32165053127E-01  0.51100000000E-03 0.  1.
</event>
<event>
 8    1  0.1086486E+005  0.1043930E+01  0.7957747E-01            NaN
         13   -1    0    0    0    0  0.00000000000E+00  0.00000000000E+00  0.74505805969E-08  0.10566000000E+00  0.10566000000E+00 0.  1.
     999900   -1    0    0    0    0 -0.00000000000E+00 -0.00000000000E+00 -0.74505805969E-08  0.93827000000E+00  0.93827000000E+00 0. -1.
     999902    2    1    2    0    0  0.26985587328E-01 -0.46669169999E-02  0.20369394274E-01  0.10097991597E+01  0.10092221899E+01 0.  0.
     999903    2    3    3    0    0 -0.52159729786E-01  0.10088930305E+00 -0.28123092126E-01  0.11864394422E+00  0.19651674451E-01 0.  0.
         14    1    1    2    0    0 -0.26985587328E-01  0.46669169999E-02 -0.20369394274E-01  0.34130840317E-01  0.00000000000E+00 0.  1.
     999901    1    3    3    0    0  0.79145317114E-01 -0.10555622005E+00  0.48492486399E-01  0.89115521546E+00  0.88000000000E+00 0.  1.
        -11    1    4    4    0    0 -0.19580482451E-01  0.54755515962E-01 -0.80754662924E-02  0.58711464793E-01  0.51100000000E-03 0.  1.
         11    1    4    4    0    0 -0.32579247336E-01  0.46133787083E-01 -0.20047625833E-01  0.59932479426E-01  0.51100000000E-03 0. -1.
</event>
<event>
 8    1  0.1086486E+005  0.1043930E+01  0.7957747E-01            NaN
         13   -1    0    0    0    0  0.00000000000E+00  0.00000000000E+00  0.74505805969E-08  0.10566000000E+00  0.10566000000E+00 0.  1.
     999900   -1    0    0    0    0 -0.00000000000E+00 -0.00000000000E+00 -0.74505805969E-08  0.93827000000E+00  0.93827000000E+00 0. -1.
     999902    2    1    2    0    0  0.28110600722E-02 -0.17831475451E-01  0.15112685644E-01  0.10203873399E+01  0.10201157124E+01 0.  0.
     999903    2    3    3    0    0 -0.52826283579E-01  0.40686591079E-01  0.11177476977E+00  0.13141971588E+00  0.18207900279E-01 0.  0.
         14    1    1    2    0    0 -0.28110600722E-02  0.17831475451E-01 -0.15112685644E-01  0.23542660064E-01  0.00000000000E+00 0.  1.
     999901    1    3    3    0    0  0.55637343651E-01 -0.58518066531E-01 -0.96662084130E-01  0.88896762406E+00  0.88000000000E+00 0.  1.
        -11    1    4    4    0    0 -0.11700157888E-01  0.45357560710E-02  0.34462650546E-01  0.36679724391E-01  0.51100000000E-03 0.  1.
         11    1    4    4    0    0 -0.41126125691E-01  0.36150835008E-01  0.77312119228E-01  0.94739991485E-01  0.51100000000E-03 0. -1.
</event>
<event>
 8    1  0.1086486E+005  0.1043930E+01  0.7957747E-01            NaN
         13   -1    0    0    0    0  0.00000000000E+00  0.00000000000E+00  0.74505805969E-08  0.10566000000E+00  0.10566000000E+00 0. -1.
     999900   -1    0    0    0    0 -0.00000000000E+00 -0.00000000000E+00 -0.74505805969E-08  0.93827000000E+00  0.93827000000E+00 0.  1.
     999902    2    1    2    0    0 -0.60919776447E-03  0.17761820037E-01 -0.17599717131E-01  0.10189179346E+01  0.10186108943E+01 0.  0.
     999903    2    3    3    0    0 -0.45938505336E-01  0.12135134929E+00  0.67556192738E-02  0.13134894059E+00  0.19246027028E-01 0.  0.
         14    1    1    2    0    0  0.60919776447E-03 -0.17761820037E-01  0.17599717131E-01  0.25012065409E-01  0.00000000000E+00 0. -1.
     999901    1    3    3    0    0  0.45329307571E-01 -0.10358952925E+00 -0.24355336405E-01  0.88756899400E+00  0.88000000000E+00 0.  1.
        -11    1    4    4    0    0 -0.44812358018E-01  0.10731791997E+00  0.10498866785E-01  0.11677230280E+00  0.51100000000E-03 0. -1.
         11    1    4    4    0    0 -0.11261473175E-02  0.14033429323E-01 -0.37432475116E-02  0.14576637791E-01  0.51100000000E-03 0.  1.
</event>
<event>
 8    1  0.1086486E+005  0.1043930E+01  0.7957747E-01            NaN
         13   -1    0    0    0    0  0.00000000000E+00  0.00000000000E+00  0.74505805969E-08  0.10566000000E+00  0.10566000000E+00 0. -1.
     999900   -1    0    0    0    0 -0.00000000000E+00 -0.00000000000E+00 -0.74505805969E-08  0.93827000000E+00  0.93827000000E+00 0. -1.
     999902    2    1    2    0    0 -0.48403767719E-02 -0.25995218231E-01  0.51592218194E-02  0.10169893581E+01  0.10166324588E+01 0.  0.
     999903    2    3    3    0    0  0.10676161315E+00  0.60987916123E-01  0.16143501504E-01  0.12561865840E+00  0.20046614234E-01 0.  0.
         14    1    1    2    0    0  0.48403767719E-02  0.25995218231E-01 -0.51592218194E-02  0.26940641936E-01  0.00000000000E+00 0.  1.
     999901    1    3    3    0    0 -0.11160198992E+00 -0.86983134354E-01 -0.10984279684E-01  0.89137069966E+00  0.88000000000E+00 0.  1.
        -11    1    4    4    0    0  0.25177541325E-01  0.17956921178E-01  0.12345952403E-01  0.33302301228E-01  0.51100000000E-03 0.  1.
         11    1    4    4    0    0  0.81584071825E-01  0.43030994946E-01  0.37975491012E-02  0.92316357173E-01  0.51100000000E-03 0. -1.
</event>
<event>
 8    1  0.1086486E+005  0.1043930E+01  0.7957747E-01            NaN
         13   -1    0    0    0    0  0.00000000000E+00  0.00000000000E+00  0.74505805969E-08  0.10566000000E+00  0.10566000000E+00 0.  1.
     999900   -1    0    0    0    0 -0.00000000000E+00 -0.00000000000E+00 -0.74505805969E-08  0.93827000000E+00  0.93827000000E+00 0.  1.
     999902    2    1    2    0    0  0.12211117892E-01  0.14527062097E-01  0.18784308154E-01  0.10172279932E+01  0.10168774720E+01 0.  0.
     999903    2    3    3    0    0 -0.63578223639E-01 -0.98339664496E-01 -0.38816900562E-01  0.12492713504E+00  0.19676309754E-01 0.  0.
         14    1    1    2    0    0 -0.12211117892E-01 -0.14527062097E-01 -0.18784308154E-01  0.26702006782E-01  0.00000000000E+00 0. -1.
     999901    1    3    3    0    0  0.75789341532E-01  0.11286672659E+00  0.57601208716E-01  0.89230085818E+00  0.88000000000E+00 0. -1.
        -11    1    4    4    0    0 -0.19933294351E-01 -0.25824951535E-01 -0.21784978158E-02  0.32699714360E-01  0.51100000000E-03 0. -1.
         11    1    4    4    0    0 -0.43644929288E-01 -0.72514712961E-01 -0.36638402746E-01  0.92227420679E-01  0.51100000000E-03 0.  1.
</event>
<event>
 8    1  0.1086486E+005  0.1043930E+01  0.7957747E-01            NaN
         13   -1    0    0    0    0  0.00000000000E+00  0.00000000000E+00  0.74505805969E-08  0.10566000000E+00  0.10566000000E+00 0. -1.
     999900   -1    0    0    0    0 -0.00000000000E+00 -0.00000000000E+00 -0.74505805969E-08  0.93827000000E+00  0.93827000000E+00 0.  1.
     999902    2    1    2    0    0 -0.36415851182E-02 -0.20665776678E-01  0.10355714799E-01  0.10205296518E+01  0.10202613361E+01 0.  0.
     999903    2    3    3    0    0  0.12495825614E+00 -0.88096770619E-02  0.32163276970E-01  0.13083641474E+00  0.19786734123E-01 0.  0.
         14    1    1    2    0    0  0.36415851182E-02  0.20665776678E-01 -0.10355714799E-01  0.23400348221E-01  0.00000000000E+00 0.  1.
     999901    1    3    3    0    0 -0.12859984126E+00 -0.11856099616E-01 -0.21807562172E-01  0.88969323704E+00  0.88000000000E+00 0. -1.
        -11    1    4    4    0    0  0.57463881479E-01  0.16998978635E-02  0.22973288597E-01  0.61911391822E-01  0.51100000000E-03 0. -1.
         11    1    4    4    0    0  0.67494374665E-01 -0.10509574925E-01  0.91899883734E-02  0.68925022915E-01  0.51100000000E-03 0.  1.
</event>
<event>
 8    1  0.1086486E+005  0.1043930E+01  0.7957747E-01            NaN
         13   -1    0    0    0    0  0.00000000000E+00  0.00000000000E+00  0.74505805969E-08  0.10566000000E+00  0.10566000000E+00 0.  1.
     999900   -1    0    0    0    0 -0.00000000000E+00 -0.00000000000E+00 -0.74505805969E-08  0.93827000000E+00  0.93827000000E+00 0.  1.
     999902    2    1    2    0    0 -0.92238414980E-02 -0.13903835992E-01  0.16697646625E-01  0.10203247610E+01  0.10200516705E+01 0.  0.
     999903    2    3    3    0    0  0.10211539638E+00 -0.10630754282E-01  0.79071064173E-01  0.13111298519E+00  0.19945289731E-01 0.  0.
         14    1    1    2    0    0  0.92238414980E-02  0.13903835992E-01 -0.16697646625E-01  0.23605239039E-01  0.00000000000E+00 0. -1.
     999901    1    3    3    0    0 -0.11133923787E+00 -0.32730817093E-02 -0.62373417548E-01  0.88921177577E+00  0.88000000000E+00 0.  1.
        -11    1    4    4    0    0  0.37884038724E-01  0.52685109375E-02  0.32521663021E-01  0.50208338791E-01  0.51100000000E-03 0.  1.
         11    1    4    4    0    0  0.64231357651E-01 -0.15899265220E-01  0.46549401152E-01  0.80904646398E-01  0.51100000000E-03 0. -1.
</event>
<event>
 8    1  0.1086486E+005  0.1043930E+01  0.7957747E-01            NaN
         13   -1    0    0    0    0  0.00000000000E+00  0.00000000000E+00  0.74505805969E-08  0.10566000000E+00  0.10566000000E+00 0. -1.
     999900   -1    0    0    0    0 -0.00000000000E+00 -0.00000000000E+00 -0.74505805969E-08  0.93827000000E+00  0.93827000000E+00 0.  1.
     999902    2    1    2    0    0  0.42914456528E-02 -0.22249654406E-01 -0.82289642877E-03  0.10212553272E+01  0.10210035762E+01 0.  0.
     999903    2    3    3    0    0  0.10687326090E+00 -0.65588134396E-01 -0.40876989821E-01  0.13333326811E+00  0.19573829925E-01 0.  0.
         14    1    1    2    0    0 -0.42914456528E-02  0.22249654406E-01  0.82289642877E-03  0.22674672776E-01  0.00000000000E+00 0. -1.
     999901    1    3    3    0    0 -0.10258181525E+00  0.43338479990E-01  0.40054093392E-01  0.88792205912E+00  0.88000000000E+00 0.  1.
        -11    1    4    4    0    0  0.80839974290E-01 -0.43002490293E-01 -0.22585163632E-01  0.94311538806E-01  0.51100000000E-03 0.  1.
         11    1    4    4    0    0  0.26033286613E-01 -0.22585644102E-01 -0.18291826189E-01  0.39021729302E-01  0.51100000000E-03 0. -1.
</event>
<event>
 8    1  0.1086486E+005  0.1043930E+01  0.7957747E-01            NaN
         13   -1    0    0    0    0  0.00000000000E+00  0.00000000000E+00  0.74505805969E-08  0.10566000000E+00  0.10566000000E+00 0. -1.
     999900   -1    0    0    0    0 -0.00000000000E+00 -0.00000000000E+00 -0.74505805969E-08  0.93827000000E+00  0.93827000000E+00 0. -1.
     999902    2    1    2    0    0 -0.11658804521E-02 -0.22736175323E-01 -0.78639979736E-02  0.10198439997E+01  0.10195595364E+01 0.  0.
     999903    2    3    3    0    0  0.33857126426E-02 -0.45735173084E-01  0.11926855570E+00  0.13039902834E+00  0.25995174672E-01 0.  0.
         14    1    1    2    0    0  0.11658804521E-02  0.22736175323E-01  0.78639979736E-02  0.24086000284E-01  0.00000000000E+00 0. -1.
     999901    1    3    3    0    0 -0.45515930947E-02  0.22998997760E-01 -0.12713255368E+00  0.88944497137E+00  0.88000000000E+00 0. -1.
        -11    1    4    4    0    0  0.84049848815E-02 -0.34599454244E-01  0.59082056995E-01  0.68983451528E-01  0.51100000000E-03 0. -1.
         11    1    4    4    0    0 -0.50192722389E-02 -0.11135718839E-01  0.60186498707E-01  0.61415576815E-01  0.51100000000E-03 0.  1.
</event>
<event>
 8    1  0.1086486E+005  0.1043930E+01  0.7957747E-01            NaN
         13   -1    0    0    0    0  0.00000000000E+00  0.00000000000E+00  0.74505805969E-08  0.10566000000E+00  0.10566000000E+00 0. -1.
     999900   -1    0    0    0    0 -0.00000000000E+00 -0.00000000000E+00 -0.74505805969E-08  0.93827000000E+00  0.93827000000E+00 0. -1.
     999902    2    1    2    0    0  0.14265467156E-01 -0.26617991981E-02 -0.34932327425E-01  0.10061033397E+01  0.10053920002E+01 0.  0.
     999903    2    3    3    0    0 -0.43406624310E-01 -0.16370008237E-01 -0.10985010522E+00  0.12093292757E+00  0.20139889494E-01 0.  0.
         14    1    1    2    0    0 -0.14265467156E-01  0.26617991981E-02  0.34932327425E-01  0.37826660274E-01  0.00000000000E+00 0. -1.
     999901    1    3    3    0    0  0.57672091466E-01  0.13708209039E-01  0.74917777799E-01  0.88517041216E+00  0.88000000000E+00 0. -1.
        -11    1    4    4    0    0 -0.20837333119E-01 -0.30958829844E-02 -0.71148107698E-01  0.74203054472E-01  0.51100000000E-03 0.  1.
         11    1    4    4    0    0 -0.22569291191E-01 -0.13274125253E-01 -0.38701997526E-01  0.46729873096E-01  0.51100000000E-03 0. -1.
</event>
<event>
 8    1  0.1086486E+005  0.1043930E+01  0.7957747E-01            NaN
         13   -1    0    0    0    0  0.00000000000E+00  0.00000000000E+00  0.74505805969E-08  0.10566000000E+00  0.10566000000E+00 0.  1.
     999900   -1    0    0    0    0 -0.00000000000E+00 -0.00000000000E+00 -0.74505805969E-08  0.93827000000E+00  0.93827000000E+00 0.  1.
     999902    2    1    2    0    0 -0.19951758678E-01 -0.36142286671E-02 -0.12078605561E-01  0.10203285586E+01  0.10200555571E+01 0.  0.
     999903    2    3    3    0    0 -0.12242493051E+00  0.32065601799E-01 -0.37274208386E-01  0.13330622538E+00  0.19108026729E-01 0.  0.
         14    1    1    2    0    0  0.19951758678E-01  0.36142286671E-02  0.12078605561E-01  0.23601441386E-01  0.00000000000E+00 0.  1.
     999901    1    3    3    0    0  0.10247317183E+00 -0.35679830466E-01  0.25195602825E-01  0.88702233323E+00  0.88000000000E+00 0. -1.
        -11    1    4    4    0    0 -0.89835447613E-01  0.30549976601E-01 -0.32661432159E-01  0.10035307165E+00  0.51100000000E-03 0.  1.
         11    1    4    4    0    0 -0.32589482899E-01  0.15156251981E-02 -0.46127762273E-02  0.32953153732E-01  0.51100000000E-03 0. -1.
</event>
<event>
 8    1  0.1086486E+005  0.1043930E+01  0.7957747E-01            NaN
         13   -1    0    0    0    0  0.00000000000E+00  0.00000000000E+00  0.74505805969E-08  0.10566000000E+00  0.10566000000E+00 0.  1.
     999900   -1    0    0    0    0 -0.00000000000E+00 -0.00000000000E+00 -0.74505805969E-08  0.93827000000E+00  0.93827000000E+00 0. -1.
     999902    2    1    2    0    0  0.97156796513E-02 -0.19019651564E-01 -0.96062075802E-02  0.10205116140E+01  0.10202428797E+01 0.  0.
     999903    2    3    3    0    0 -0.96687951062E-01 -0.41170486427E-01  0.73648759132E-01  0.12992541294E+00  0.20320048546E-01 0.  0.
         14    1    1    2    0    0 -0.97156796513E-02  0.19019651564E-01  0.96062075802E-02  0.23418385956E-01  0.00000000000E+00 0.  1.
     999901    1    3    3    0    0  0.10640363071E+00  0.22150834863E-01 -0.83254966713E-01  0.89058620110E+00  0.88000000000E+00 0.  1.
        -11    1    4    4    0    0 -0.43940033076E-01 -0.24306075163E-01  0.24474820977E-01  0.55864029387E-01  0.51100000000E-03 0.  1.
         11    1    4    4    0    0 -0.52747917986E-01 -0.16864411264E-01  0.49173938156E-01  0.74061383554E-01  0.51100000000E-03 0. -1.
</event>
<event>
 8    1  0.1086486E+005  0.1043930E+01  0.7957747E-01            NaN
         13   -1    0    0    0    0  0.00000000000E+00  0.00000000000E+00  0.74505805969E-08  0.10566000000E+00  0.10566000000E+00 0.  1.
     999900   -1    0    0    0    0 -0.00000000000E+00 -0.00000000000E+00 -0.74505805969E-08  0.93827000000E+00  0.93827000000E+00 0. -1.
     999902    2    1    2    0    0  0.88881414798E-03  0.23494190165E-01 -0.26342464759E-02  0.10202718890E+01  0.10199975594E+01 0.  0.
     999903    2    3    3    0    0  0.91282878795E-01  0.85059867528E-01 -0.40570672040E-01  0.13269057331E+00  0.19825836464E-01 0.  0.
         14    1    1    2    0    0 -0.88881414798E-03 -0.23494190165E-01  0.26342464759E-02  0.23658111011E-01  0.00000000000E+00 0.  1.
     999901    1    3    3    0    0 -0.90394064647E-01 -0.61565677363E-01  0.37936425564E-01  0.88758131568E+00  0.88000000000E+00 0. -1.
        -11    1    4    4    0    0  0.53436623320E-01  0.62416799516E-01 -0.24406133939E-01  0.85716101571E-01  0.51100000000E-03 0.  1.
         11    1    4    4    0    0  0.37846255475E-01  0.22643068012E-01 -0.16164538101E-01  0.46974471743E-01  0.51100000000E-03 0. -1.
</event>
<event>
 8    1  0.1086486E+005  0.1043930E+01  0.7957747E-01            NaN
         13   -1    0    0    0    0  0.00000000000E+00  0.00000000000E+00  0.74505805969E-08  0.10566000000E+00  0.10566000000E+00 0. -1.
     999900   -1    0    0    0    0 -0.00000000000E+00 -0.00000000000E+00 -0.74505805969E-08  0.93827000000E+00  0.93827000000E+00 0.  1.
     999902    2    1    2    0    0 -0.12596847750E-01  0.10992052463E-01  0.17497407761E-01  0.10197294821E+01  0.10194422747E+01 0.  0.
     999903    2    3    3    0    0  0.24927632204E-01 -0.11250859892E+00 -0.51404993382E-01  0.12764874671E+00  0.19291384461E-01 0.  0.
         14    1    1    2    0    0  0.12596847750E-01 -0.10992052463E-01 -0.17497407761E-01  0.24200517947E-01  0.00000000000E+00 0.  1.
     999901    1    3    3    0    0 -0.37524479954E-01  0.12350065138E+00  0.68902401143E-01  0.89208073534E+00  0.88000000000E+00 0. -1.
        -11    1    4    4    0    0  0.12687125045E-01 -0.88195941307E-01 -0.34200492736E-01  0.95443292218E-01  0.51100000000E-03 0.  1.
         11    1    4    4    0    0  0.12240507158E-01 -0.24312657609E-01 -0.17204500646E-01  0.32205454492E-01  0.51100000000E-03 0. -1.
</event>
<event>
 8    1  0.1086486E+005  0.1043930E+01  0.7957747E-01            NaN
         13   -1    0    0    0    0  0.00000000000E+00  0.00000000000E+00  0.74505805969E-08  0.10566000000E+00  0.10566000000E+00 0.  1.
     999900   -1    0    0    0    0 -0.00000000000E+00 -0.00000000000E+00 -0.74505805969E-08  0.93827000000E+00  0.93827000000E+00 0. -1.
     999902    2    1    2    0    0 -0.67965014778E-02 -0.25040920935E-01  0.29969214712E-02  0.10178106261E+01  0.10174754292E+01 0.  0.
     999903    2    3    3    0    0  0.59005099338E-02  0.41591433170E-01  0.11870927154E+00  0.12764747665E+00  0.20912288637E-01 0.  0.
         14    1    1    2    0    0  0.67965014778E-02  0.25040920935E-01 -0.29969214712E-02  0.26119373880E-01  0.00000000000E+00 0.  1.
     999901    1    3    3    0    0 -0.12697011412E-01 -0.66632354105E-01 -0.11571235007E+00  0.89016314947E+00  0.88000000000E+00 0. -1.
        -11    1    4    4    0    0 -0.16933855423E-02  0.16179148875E-01  0.22000155363E-01  0.27366044104E-01  0.51100000000E-03 0.  1.
         11    1    4    4    0    0  0.75938954760E-02  0.25412284295E-01  0.96709116175E-01  0.10028143255E+00  0.51100000000E-03 0. -1.
</event>
<event>
 8    1  0.1086486E+005  0.1043930E+01  0.7957747E-01            NaN
         13   -1    0    0    0    0  0.00000000000E+00  0.00000000000E+00  0.74505805969E-08  0.10566000000E+00  0.10566000000E+00 0. -1.
     999900   -1    0    0    0    0 -0.00000000000E+00 -0.00000000000E+00 -0.74505805969E-08  0.93827000000E+00  0.93827000000E+00 0. -1.
     999902    2    1    2    0    0  0.18051042857E-02 -0.23921494421E-01  0.51351850895E-02  0.10193970340E+01  0.10191017841E+01 0.  0.
     999903    2    3    3    0    0  0.89006925418E-01 -0.75489070190E-01  0.58105316346E-01  0.13200241639E+00  0.20677950954E-01 0.  0.
         14    1    1    2    0    0 -0.18051042857E-02  0.23921494421E-01 -0.51351850895E-02  0.24532966040E-01  0.00000000000E+00 0.  1.
     999901    1    3    3    0    0 -0.87201821132E-01  0.51567575768E-01 -0.52970131257E-01  0.88739461757E+00  0.88000000000E+00 0. -1.
        -11    1    4    4    0    0  0.68407986055E-01 -0.48452704770E-01  0.34688106833E-01  0.90723993697E-01  0.51100000000E-03 0.  1.
         11    1    4    4    0    0  0.20598939363E-01 -0.27036365419E-01  0.23417209513E-01  0.41278422697E-01  0.51100000000E-03 0. -1.
</event>
<event>
 8    1  0.1086486E+005  0.1043930E+01  0.7957747E-01            NaN
         13   -1    0    0    0    0  0.00000000000E+00  0.00000000000E+00  0.74505805969E-08  0.10566000000E+00  0.10566000000E+00 0. -1.
     999900   -1    0    0    0    0 -0.00000000000E+00 -0.00000000000E+00 -0.74505805969E-08  0.93827000000E+00  0.93827000000E+00 0. -1.
     999902    2    1    2    0    0 -0.88287972310E-03 -0.22457934232E-01  0.56251603192E-02  0.10207614714E+01  0.10204985061E+01 0.  0.
     999903    2    3    3    0    0  0.39510905959E-01  0.15586344904E-01 -0.12144933874E+00  0.12990404548E+00  0.17918518736E-01 0.  0.
         14    1    1    2    0    0  0.88287972310E-03  0.22457934232E-01 -0.56251603192E-02  0.23168528551E-01  0.00000000000E+00 0.  1.
     999901    1    3    3    0    0 -0.40393785682E-01 -0.38044279137E-01  0.12707449906E+00  0.89085742597E+00  0.88000000000E+00 0.  1.
        -11    1    4    4    0    0  0.23703285465E-01  0.13762887542E-01 -0.96411026027E-01  0.10023277845E+00  0.51100000000E-03 0. -1.
         11    1    4    4    0    0  0.15807620495E-01  0.18234573624E-02 -0.25038312715E-01  0.29671267028E-01  0.51100000000E-03 0.  1.
</event>
<event>
 8    1  0.1086486E+005  0.1043930E+01  0.7957747E-01            NaN
         13   -1    0    0    0    0  0.00000000000E+00  0.00000000000E+00  0.74505805969E-08  0.10566000000E+00  0.10566000000E+00 0. -1.
     999900   -1    0    0    0    0 -0.00000000000E+00 -0.00000000000E+00 -0.74505805969E-08  0.93827000000E+00  0.93827000000E+00 0.  1.
     999902    2    1    2    0    0 -0.20005175186E-02 -0.21792696865E-02  0.23289091004E-01  0.10204537770E+01  0.10201836981E+01 0.  0.
     999903    2    3    3    0    0 -0.12844059188E+00  0.15735398722E-01  0.50816137883E-03  0.13094436249E+00  0.20039446690E-01 0.  0.
         14    1    1    2    0    0  0.20005175186E-02  0.21792696865E-02 -0.23289091004E-01  0.23476223004E-01  0.00000000000E+00 0.  1.
     999901    1    3    3    0    0  0.12644007436E+00 -0.17914668409E-01  0.22780929625E-01  0.88950941451E+00  0.88000000000E+00 0. -1.
        -11    1    4    4    0    0 -0.49436283291E-01  0.15048222414E-01 -0.38010120431E-02  0.51817988353E-01  0.51100000000E-03 0. -1.
         11    1    4    4    0    0 -0.79004308588E-01  0.68717630851E-03  0.43091734220E-02  0.79126374133E-01  0.51100000000E-03 0.  1.
</event>
<event>
 8    1  0.1086486E+005  0.1043930E+01  0.7957747E-01            NaN
         13   -1    0    0    0    0  0.00000000000E+00  0.00000000000E+00  0.74505805969E-08  0.10566000000E+00  0.10566000000E+00 0. -1.
     999900   -1    0    0    0    0 -0.00000000000E+00 -0.00000000000E+00 -0.74505805969E-08  0.93827000000E+00  0.93827000000E+00 0.  1.
     999902    2    1    2    0    0 -0.13267118808E-01 -0.17093958726E-01  0.10626372083E-01  0.10198231618E+01  0.10195382002E+01 0.  0.
     999903    2    3    3    0    0  0.28660737722E-01 -0.12222922110E+00 -0.33639976906E-01  0.13147025992E+00  0.19782841528E-01 0.  0.
         14    1    1    2    0    0  0.13267118808E-01  0.17093958726E-01 -0.10626372083E-01  0.24106838242E-01  0.00000000000E+00 0.  1.
     999901    1    3    3    0    0 -0.41927856530E-01  0.10513526238E+00  0.44266348989E-01  0.88835290184E+00  0.88000000000E+00 0.  1.
        -11    1    4    4    0    0  0.10178699944E-01 -0.81795222943E-01 -0.18273319478E-01  0.84428903550E-01  0.51100000000E-03 0. -1.
         11    1    4    4    0    0  0.18482037778E-01 -0.40433998161E-01 -0.15366657428E-01  0.47041356371E-01  0.51100000000E-03 0.  1.
</event>
<event>
 8    1  0.1086486E+005  0.1043930E+01  0.7957747E-01            NaN
         13   -1    0    0    0    0  0.00000000000E+00  0.00000000000E+00  0.74505805969E-08  0.10566000000E+00  0.10566000000E+00 0. -1.
     999900   -1    0    0    0    0 -0.00000000000E+00 -0.00000000000E+00 -0.74505805969E-08  0.93827000000E+00  0.93827000000E+00 0.  1.
     999902    2    1    2    0    0 -0.21641282817E-02 -0.22446493894E-01  0.22666812881E-02  0.10212657907E+01  0.10210142746E+01 0.  0.
     999903    2    3    3    0    0 -0.94043772991E-01 -0.90306926083E-01 -0.21138484778E-01  0.13357512995E+00  0.19897428644E-01 0.  0.
         14    1    1    2    0    0  0.21641282817E-02  0.22446493894E-01 -0.22666812881E-02  0.22664209305E-01  0.00000000000E+00 0. -1.
     999901    1    3    3    0    0  0.91879644709E-01  0.67860432189E-01  0.23405166066E-01  0.88769066074E+00  0.88000000000E+00 0. -1.
        -11    1    4    4    0    0 -0.33847873125E-01 -0.43559679433E-01 -0.31105282901E-02  0.55254508365E-01  0.51100000000E-03 0. -1.
         11    1    4    4    0    0 -0.60195899866E-01 -0.46747246650E-01 -0.18027956488E-01  0.78320621589E-01  0.51100000000E-03 0.  1.
</event>
<event>
 8    1  0.1086486E+005  0.1043930E+01  0.7957747E-01            NaN
         13   -1    0    0    0    0  0.00000000000E+00  0.00000000000E+00  0.74505805969E-08  0.10566000000E+00  0.10566000000E+00 0. -1.
     999900   -1    0    0    0    0 -0.00000000000E+00 -0.00000000000E+00 -0.74505805969E-08  0.93827000000E+00  0.93827000000E+00 0. -1.
     999902    2    1    2    0    0 -0.12913870824E-01  0.78476262310E-02 -0.18010806735E-01  0.10204195245E+01  0.10201486478E+01 0.  0.
     999903    2    3    3    0    0  0.63039848160E-01 -0.34089800176E-01  0.10397381230E+00  0.12777852031E+00  0.19510501672E-01 0.  0.
         14    1    1    2    0    0  0.12913870824E-01 -0.78476262310E-02  0.18010806735E-01  0.23510475460E-01  0.00000000000E+00 0. -1.
     999901    1    3    3    0    0 -0.75953718984E-01  0.41937426407E-01 -0.12198461903E+00  0.89264100424E+00  0.88000000000E+00 0. -1.
        -11    1    4    4    0    0  0.17240453251E-02 -0.58382339986E-02  0.46304427033E-02  0.76654699226E-02  0.51100000000E-03 0. -1.
         11    1    4    4    0    0  0.61315802835E-01 -0.28251566178E-01  0.99343369594E-01  0.12011305038E+00  0.51100000000E-03 0.  1.
</event>
<event>
 7    1  0.1086486E+005  0.1043930E+01  0.7957747E-01            NaN
         13   -1    0    0    0    0  0.00000000000E+00  0.00000000000E+00  0.74505805969E-08  0.10566000000E+00  0.10566000000E+00 0. -1.
     999900   -1    0    0    0    0 -0.00000000000E+00 -0.00000000000E+00 -0.74505805969E-08  0.93827000000E+00  0.93827000000E+00 0.  1.
     999903    2    1    2    0    0 -0.58175363047E-01 -0.21014449926E-01  0.93956559893E-01  0.11415108249E+00  0.19407589096E-01 0.  0.
         14    1    1    2    0    0 -0.36762385048E-01  0.24589109782E-02  0.10565151307E-01  0.38329383243E-01  0.00000000000E+00 0. -1.
     999901    1    1    2    0    0  0.94937748096E-01  0.18555538947E-01 -0.10452171120E+00  0.89144953427E+00  0.88000000000E+00 0.  1.
        -11    1    3    3    0    0 -0.43089312500E-01 -0.23886627583E-01  0.67730170274E-01  0.83754981436E-01  0.51100000000E-03 0. -1.
         11    1    3    3    0    0 -0.15086050548E-01  0.28721776574E-02  0.26226389619E-01  0.30396101050E-01  0.51100000000E-03 0.  1.
</event>
<event>
 8    1  0.1086486E+005  0.1043930E+01  0.7957747E-01            NaN
         13   -1    0    0    0    0  0.00000000000E+00  0.00000000000E+00  0.74505805969E-08  0.10566000000E+00  0.10566000000E+00 0. -1.
     999900   -1    0    0    0    0 -0.00000000000E+00 -0.00000000000E+00 -0.74505805969E-08  0.93827000000E+00  0.93827000000E+00 0. -1.
     999902    2    1    2    0    0  0.91191672267E-02  0.69494652490E-02  0.21085737279E-01  0.10199286960E+01  0.10196462535E+01 0.  0.
     999903    2    3    3    0    0 -0.47369704979E-01 -0.11211878595E+00 -0.35258814534E-01  0.12833296380E+00  0.20289270137E-01 0.  0.
         14    1    1    2    0    0 -0.91191672267E-02 -0.69494652490E-02 -0.21085737279E-01  0.24001304022E-01  0.00000000000E+00 0.  1.
     999901    1    3    3    0    0  0.56488872206E-01  0.11906825119E+00  0.56344551813E-01  0.89159573218E+00  0.88000000000E+00 0.  1.
        -11    1    4    4    0    0 -0.23618229789E-01 -0.33437938112E-01 -0.15702471933E-01  0.43849118912E-01  0.51100000000E-03 0.  1.
         11    1    4    4    0    0 -0.23751475191E-01 -0.78680847834E-01 -0.19556342601E-01  0.84483844885E-01  0.51100000000E-03 0. -1.
</event>
<event>
 8    1  0.1086486E+005  0.1043930E+01  0.7957747E-01            NaN
         13   -1    0    0    0    0  0.00000000000E+00  0.00000000000E+00  0.74505805969E-08  0.10566000000E+00  0.10566000000E+00 0. -1.
     999900   -1    0    0    0    0 -0.00000000000E+00 -0.00000000000E+00 -0.74505805969E-08  0.93827000000E+00  0.93827000000E+00 0.  1.
     999902    2    1    2    0    0  0.15419973398E-01 -0.15651546878E-01 -0.74176112298E-02  0.10207401864E+01  0.10204767320E+01 0.  0.
     999903    2    3    3    0    0 -0.46657518597E-02  0.95512184111E-01 -0.85946097616E-01  0.13005082717E+00  0.19548386050E-01 0.  0.
         14    1    1    2    0    0 -0.15419973398E-01  0.15651546878E-01  0.74176112298E-02  0.23189813618E-01  0.00000000000E+00 0. -1.
     999901    1    3    3    0    0  0.20085725258E-01 -0.11116373099E+00  0.78528486387E-01  0.89068935922E+00  0.88000000000E+00 0. -1.
        -11    1    4    4    0    0  0.37676704423E-02  0.32905973928E-01 -0.40003311746E-01  0.51937698566E-01  0.51100000000E-03 0. -1.
         11    1    4    4    0    0 -0.84334223021E-02  0.62606210183E-01 -0.45942785871E-01  0.78113128600E-01  0.51100000000E-03 0.  1.
</event>
<event>
 8    1  0.1086486E+005  0.1043930E+01  0.7957747E-01            NaN
         13   -1    0    0    0    0  0.00000000000E+00  0.00000000000E+00  0.74505805969E-08  0.10566000000E+00  0.10566000000E+00 0. -1.
     999900   -1    0    0    0    0 -0.00000000000E+00 -0.00000000000E+00 -0.74505805969E-08  0.93827000000E+00  0.93827000000E+00 0.  1.
     999902    2    1    2    0    0 -0.19918954217E-02  0.37318011256E-02 -0.25615001365E-01  0.10179680609E+01  0.10176369445E+01 0.  0.
     999903    2    3    3    0    0 -0.38569501151E-01 -0.12014589940E+00 -0.13281394809E-01  0.12845374186E+00  0.20033092334E-01 0.  0.
         14    1    1    2    0    0  0.19918954217E-02 -0.37318011256E-02  0.25615001365E-01  0.25961939102E-01  0.00000000000E+00 0. -1.
     999901    1    3    3    0    0  0.36577605729E-01  0.12387770052E+00 -0.12333606557E-01  0.88951431904E+00  0.88000000000E+00 0. -1.
        -11    1    4    4    0    0 -0.20332668865E-01 -0.34320632708E-01 -0.68182004388E-02  0.40473105031E-01  0.51100000000E-03 0.  1.
         11    1    4    4    0    0 -0.18236832286E-01 -0.85825266688E-01 -0.64631943698E-02  0.87980636826E-01  0.51100000000E-03 0. -1.
</event>
<event>
 8    1  0.1086486E+005  0.1043930E+01  0.7957747E-01            NaN
         13   -1    0    0    0    0  0.00000000000E+00  0.00000000000E+00  0.74505805969E-08  0.10566000000E+00  0.10566000000E+00 0. -1.
     999900   -1    0    0    0    0 -0.00000000000E+00 -0.00000000000E+00 -0.74505805969E-08  0.93827000000E+00  0.93827000000E+00 0. -1.
     999902    2    1    2    0    0  0.12576345807E-01 -0.74608027964E-03  0.20563739845E-01  0.10198138538E+01  0.10195286695E+01 0.  0.
     999903    2    3    3    0    0  0.43287313743E-01  0.52254276759E-01  0.11254757423E+00  0.13290166698E+00  0.19788775867E-01 0.  0.
         14    1    1    2    0    0 -0.12576345807E-01  0.74608027964E-03 -0.20563739845E-01  0.24116146170E-01  0.00000000000E+00 0.  1.
     999901    1    3    3    0    0 -0.30710967935E-01 -0.53000357039E-01 -0.91983834383E-01  0.88691218685E+00  0.88000000000E+00 0. -1.
        -11    1    4    4    0    0  0.99355957500E-02  0.48198181721E-02  0.30410865245E-01  0.32357820632E-01  0.51100000000E-03 0. -1.
         11    1    4    4    0    0  0.33351717993E-01  0.47434458587E-01  0.82136708984E-01  0.10054384635E+00  0.51100000000E-03 0.  1.
</event>
<event>
 8    1  0.1086486E+005  0.1043930E+01  0.7957747E-01            NaN
         13   -1    0    0    0    0  0.00000000000E+00  0.00000000000E+00  0.74505805969E-08  0.10566000000E+00  0.10566000000E+00 0. -1.
     999900   -1    0    0    0    0 -0.00000000000E+00 -0.00000000000E+00 -0.74505805969E-08  0.93827000000E+00  0.93827000000E+00 0.  1.
     999902    2    1    2    0    0 -0.51578562083E-02  0.14192479926E-01  0.25638319194E-01  0.10141751117E+01  0.10137385283E+01 0.  0.
     999903    2    3    3    0    0 -0.11298594497E+00  0.40526547835E-01  0.36961663914E-01  0.12713024361E+00  0.19690337730E-01 0.  0.
         14    1    1    2    0    0  0.51578562083E-02 -0.14192479926E-01 -0.25638319194E-01  0.29754888308E-01  0.00000000000E+00 0.  1.
     999901    1    3    3    0    0  0.10782808876E+00 -0.26334067910E-01 -0.11323344720E-01  0.88704486808E+00  0.88000000000E+00 0.  1.
        -11    1    4    4    0    0 -0.10158904325E-01  0.10218828642E-01  0.36708994318E-02  0.14878320454E-01  0.51100000000E-03 0.  1.
         11    1    4    4    0    0 -0.10282704065E+00  0.30307719193E-01  0.33290764482E-01  0.11225192315E+00  0.51100000000E-03 0. -1.
</event>
<event>
 8    1  0.1086486E+005  0.1043930E+01  0.7957747E-01            NaN
         13   -1    0    0    0    0  0.00000000000E+00  0.00000000000E+00  0.74505805969E-08  0.10566000000E+00  0.10566000000E+00 0.  1.
     999900   -1    0    0    0    0 -0.00000000000E+00 -0.00000000000E+00 -0.74505805969E-08  0.93827000000E+00  0.93827000000E+00 0.  1.
     999902    2    1    2    0    0  0.42792982744E-02  0.21798945730E-01 -0.72036550218E-02  0.10205762193E+01  0.10203089827E+01 0.  0.
     999903    2    3    3    0    0 -0.78621700562E-01 -0.99298818725E-01  0.56752927492E-02  0.12833011451E+00  0.19869125371E-01 0.  0.
         14    1    1    2    0    0 -0.42792982744E-02 -0.21798945730E-01  0.72036550218E-02  0.23353780729E-01  0.00000000000E+00 0.  1.
     999901    1    3    3    0    0  0.82900998837E-01  0.12109776446E+00 -0.12878947771E-01  0.89224610476E+00  0.88000000000E+00 0.  1.
        -11    1    4    4    0    0 -0.33801362689E-01 -0.28479441742E-01  0.52799217488E-02  0.44516844186E-01  0.51100000000E-03 0.  1.
         11    1    4    4    0    0 -0.44820337873E-01 -0.70819376983E-01  0.39537100037E-03  0.83813270325E-01  0.51100000000E-03 0. -1.
</event>
<event>
 8    1  0.1086486E+005  0.1043930E+01  0.7957747E-01            NaN
         13   -1    0    0    0    0  0.00000000000E+00  0.00000000000E+00  0.74505805969E-08  0.10566000000E+00  0.10566000000E+00 0. -1.
     999900   -1    0    0    0    0 -0.00000000000E+00 -0.00000000000E+00 -0.74505805969E-08  0.93827000000E+00  0.93827000000E+00 0. -1.
     999902    2    1    2    0    0  0.12961908666E-01 -0.11393524256E-01  0.16190214600E-01  0.10202668109E+01  0.10199923621E+01 0.  0.
     999903    2    3    3    0    0 -0.11158751131E+00 -0.18355883783E-01 -0.57562130327E-01  0.12841455805E+00  0.19702505453E-01 0.  0.
         14    1    1    2    0    0 -0.12961908666E-01  0.11393524256E-01 -0.16190214600E-01  0.23663189135E-01  0.00000000000E+00 0.  1.
     999901    1    3    3    0    0  0.12454941998E+00  0.69623595262E-02  0.73752344927E-01  0.89185225281E+00  0.88000000000E+00 0.  1.
        -11    1    4    4    0    0 -0.54527585199E-01 -0.54097523158E-02 -0.38135646340E-01  0.66761602816E-01  0.51100000000E-03 0.  1.
         11    1    4    4    0    0 -0.57059926114E-01 -0.12946131467E-01 -0.19426483986E-01  0.61652955235E-01  0.51100000000E-03 0. -1.
</event>
<event>
 8    1  0.1086486E+005  0.1043930E+01  0.7957747E-01            NaN
         13   -1    0    0    0    0  0.00000000000E+00  0.00000000000E+00  0.74505805969E-08  0.10566000000E+00  0.10566000000E+00 0. -1.
     999900   -1    0    0    0    0 -0.00000000000E+00 -0.00000000000E+00 -0.74505805969E-08  0.93827000000E+00  0.93827000000E+00 0. -1.
     999902    2    1    2    0    0 -0.10581765846E-01 -0.68770479535E-03 -0.19830516713E-01  0.10214423123E+01  0.10211947421E+01 0.  0.
     999903    2    3    3    0    0 -0.79355300397E-01 -0.61841009952E-01  0.81904148039E-01  0.13081361983E+00  0.16802959684E-01 0.  0.
         14    1    1    2    0    0  0.10581765846E-01  0.68770479535E-03  0.19830516713E-01  0.22487687729E-01  0.00000000000E+00 0. -1.
     999901    1    3    3    0    0  0.68773534551E-01  0.61153305156E-01 -0.10173466475E+00  0.89062869244E+00  0.88000000000E+00 0. -1.
        -11    1    4    4    0    0 -0.67473949647E-01 -0.51753908571E-01  0.60641285318E-01  0.10444533278E+00  0.51100000000E-03 0.  1.
         11    1    4    4    0    0 -0.11881350750E-01 -0.10087101381E-01  0.21262862721E-01  0.26368287051E-01  0.51100000000E-03 0. -1.
</event>
<event>
 8    1  0.1086486E+005  0.1043930E+01  0.7957747E-01            NaN
         13   -1    0    0    0    0  0.00000000000E+00  0.00000000000E+00  0.74505805969E-08  0.10566000000E+00  0.10566000000E+00 0. -1.
     999900   -1    0    0    0    0 -0.00000000000E+00 -0.00000000000E+00 -0.74505805969E-08  0.93827000000E+00  0.93827000000E+00 0.  1.
     999902    2    1    2    0    0  0.19806683380E-01  0.12349484834E-01 -0.38399072600E-02  0.10202749927E+01  0.10200007360E+01 0.  0.
     999903    2    3    3    0    0  0.10172672569E+00  0.84033385515E-01 -0.42657320237E-02  0.13356779398E+00  0.20303263753E-01 0.  0.
         14    1    1    2    0    0 -0.19806683380E-01 -0.12349484834E-01  0.38399072600E-02  0.23655007291E-01  0.00000000000E+00 0. -1.
     999901    1    3    3    0    0 -0.81920042308E-01 -0.71683900681E-01  0.42582476366E-03  0.88670719873E+00  0.88000000000E+00 0. -1.
        -11    1    4    4    0    0  0.54227128890E-01  0.31699575218E-01 -0.13068721488E-02  0.62828445886E-01  0.51100000000E-03 0.  1.
         11    1    4    4    0    0  0.47499596798E-01  0.52333810297E-01 -0.29588598749E-02  0.70739348095E-01  0.51100000000E-03 0. -1.
</event>
<event>
 8    1  0.1086486E+005  0.1043930E+01  0.7957747E-01            NaN
         13   -1    0    0    0    0  0.00000000000E+00  0.00000000000E+00  0.74505805969E-08  0.10566000000E+00  0.10566000000E+00 0.  1.
     999900   -1    0    0    0    0 -0.00000000000E+00 -0.00000000000E+00 -0.74505805969E-08  0.93827000000E+00  0.93827000000E+00 0.  1.
     999902    2    1    2    0    0  0.17674625997E-01 -0.12169210359E-01 -0.27639476381E-02  0.10222938846E+01  0.10220649025E+01 0.  0.
     999903    2    3    3    0    0  0.14480667994E-01 -0.37476971481E-01  0.12492218138E+00  0.13271284177E+00  0.19822558707E-01 0.  0.
         14    1    1    2    0    0 -0.17674625997E-01  0.12169210359E-01  0.27639476381E-02  0.21636115443E-01  0.00000000000E+00 0.  1.
     999901    1    3    3    0    0  0.31939580026E-02  0.25307761122E-01 -0.12768612902E+00  0.88958104279E+00  0.88000000000E+00 0.  1.
        -11    1    4    4    0    0 -0.91709634279E-03 -0.10415930286E-01  0.57524518138E-01  0.58469342201E-01  0.51100000000E-03 0.  1.
         11    1    4    4    0    0  0.15397764337E-01 -0.27061041195E-01  0.67397663241E-01  0.74243499571E-01  0.51100000000E-03 0. -1.
</event>
<event>
 8    1  0.1086486E+005  0.1043930E+01  0.7957747E-01            NaN
         13   -1    0    0    0    0  0.00000000000E+00  0.00000000000E+00  0.74505805969E-08  0.10566000000E+00  0.10566000000E+00 0.  1.
     999900   -1    0    0    0    0 -0.00000000000E+00 -0.00000000000E+00 -0.74505805969E-08  0.93827000000E+00  0.93827000000E+00 0.  1.
     999902    2    1    2    0    0  0.20315540240E-01 -0.11685738832E-01  0.54728320888E-02  0.10198628116E+01  0.10195787978E+01 0.  0.
     999903    2    3    3    0    0 -0.78590380158E-01  0.52528149434E-01 -0.82381194292E-01  0.12766096531E+00  0.23979294296E-01 0.  0.
         14    1    1    2    0    0 -0.20315540240E-01  0.11685738832E-01 -0.54728320888E-02  0.24067188418E-01  0.00000000000E+00 0.  1.
     999901    1    3    3    0    0  0.98905920398E-01 -0.64213888267E-01  0.87854026381E-01  0.89220184627E+00  0.88000000000E+00 0. -1.
        -11    1    4    4    0    0 -0.42727596694E-01  0.26393752333E-01 -0.59060288891E-01  0.77528423990E-01  0.51100000000E-03 0. -1.
         11    1    4    4    0    0 -0.35862783464E-01  0.26134397101E-01 -0.23320905401E-01  0.50132541322E-01  0.51100000000E-03 0.  1.
</event>
<event>
 8    1  0.1086486E+005  0.1043930E+01  0.7957747E-01            NaN
         13   -1    0    0    0    0  0.00000000000E+00  0.00000000000E+00  0.74505805969E-08  0.10566000000E+00  0.10566000000E+00 0.  1.
     999900   -1    0    0    0    0 -0.00000000000E+00 -0.00000000000E+00 -0.74505805969E-08  0.93827000000E+00  0.93827000000E+00 0. -1.
     999902    2    1    2    0    0  0.10571582803E-01 -0.17765866784E-01 -0.10260571392E-01  0.10208504915E+01  0.10205895661E+01 0.  0.
     999903    2    3    3    0    0  0.13050303568E+00  0.78980469071E-02  0.17806562475E-02  0.13226330897E+00  0.19924625423E-01 0.  0.
         14    1    1    2    0    0 -0.10571582803E-01  0.17765866784E-01  0.10260571392E-01  0.23079508462E-01  0.00000000000E+00 0. -1.
     999901    1    3    3    0    0 -0.11993145287E+00 -0.25663913691E-01 -0.12041227639E-01  0.88858718256E+00  0.88000000000E+00 0. -1.
        -11    1    4    4    0    0  0.90748663971E-01 -0.10212505923E-03  0.85329756147E-02  0.91150442873E-01  0.51100000000E-03 0.  1.
         11    1    4    4    0    0  0.39754371706E-01  0.80001719663E-02 -0.67523193672E-02  0.41112866101E-01  0.51100000000E-03 0. -1.
</event>
<event>
 8    1  0.1086486E+005  0.1043930E+01  0.7957747E-01            NaN
         13   -1    0    0    0    0  0.00000000000E+00  0.00000000000E+00  0.74505805969E-08  0.10566000000E+00  0.10566000000E+00 0.  1.
     999900   -1    0    0    0    0 -0.00000000000E+00 -0.00000000000E+00 -0.74505805969E-08  0.93827000000E+00  0.93827000000E+00 0. -1.
     999902    2    1    2    0    0  0.81415403787E-02  0.12690342972E-01  0.15326389184E-01  0.10224305188E+01  0.10222044503E+01 0.  0.
     999903    2    3    3    0    0 -0.67312658292E-02  0.12866520928E+00  0.34014909437E-01  0.13449998622E+00  0.18253389055E-01 0.  0.
         14    1    1    2    0    0 -0.81415403787E-02 -0.12690342972E-01 -0.15326389184E-01  0.21499481154E-01  0.00000000000E+00 0. -1.
     999901    1    3    3    0    0  0.14872806208E-01 -0.11597486630E+00 -0.18688520254E-01  0.88793053263E+00  0.88000000000E+00 0. -1.
        -11    1    4    4    0    0  0.97565609813E-03  0.37772407528E-01  0.20601071112E-02  0.37844574744E-01  0.51100000000E-03 0.  1.
         11    1    4    4    0    0 -0.77069219273E-02  0.90892801747E-01  0.31954802326E-01  0.96655411477E-01  0.51100000000E-03 0. -1.
</event>
<event>
 8    1  0.1086486E+005  0.1043930E+01  0.7957747E-01            NaN
         13   -1    0    0    0    0  0.00000000000E+00  0.00000000000E+00  0.74505805969E-08  0.10566000000E+00  0.10566000000E+00 0.  1.
     999900   -1    0    0    0    0 -0.00000000000E+00 -0.00000000000E+00 -0.74505805969E-08  0.93827000000E+00  0.93827000000E+00 0. -1.
     999902    2    1    2    0    0  0.13539059012E-01 -0.15594489476E-01  0.96823997388E-02  0.10211211621E+01  0.10208663892E+01 0.  0.
     999903    2    3    3    0    0 -0.54363508925E-01 -0.10665295122E+00 -0.51691081923E-01  0.13170050436E+00  0.18515177323E-01 0.  0.
         14    1    1    2    0    0 -0.13539059012E-01  0.15594489476E-01 -0.96823997388E-02  0.22808837885E-01  0.00000000000E+00 0. -1.
     999901    1    3    3    0    0  0.67902567936E-01  0.91058461748E-01  0.61373481662E-01  0.88942065775E+00  0.88000000000E+00 0.  1.
        -11    1    4    4    0    0 -0.17197435886E-01 -0.27998637715E-01 -0.22942742821E-01  0.40078748534E-01  0.51100000000E-03 0. -1.
         11    1    4    4    0    0 -0.37166073039E-01 -0.78654313509E-01 -0.28748339103E-01  0.91621755827E-01  0.51100000000E-03 0.  1.
</event>
<event>
 8    1  0.1086486E+005  0.1043930E+01  0.7957747E-01            NaN
         13   -1    0    0    0    0  0.00000000000E+00  0.00000000000E+00  0.74505805969E-08  0.10566000000E+00  0.10566000000E+00 0. -1.
     999900   -1    0    0    0    0 -0.00000000000E+00 -0.00000000000E+00 -0.74505805969E-08  0.93827000000E+00  0.93827000000E+00 0. -1.
     999902    2    1    2    0    0 -0.30237295029E-02  0.58440158209E-02  0.21864523592E-01  0.10210968475E+01  0.10208415250E+01 0.  0.
     999903    2    3    3    0    0  0.47287824996E-01 -0.11935441188E+00  0.16377677394E-01  0.13079577242E+00  0.18912740113E-01 0.  0.
         14    1    1    2    0    0  0.30237295029E-02 -0.58440158209E-02 -0.21864523592E-01  0.22833152496E-01  0.00000000000E+00 0.  1.
     999901    1    3    3    0    0 -0.50311554499E-01  0.12519842770E+00  0.54868461979E-02  0.89030107508E+00  0.88000000000E+00 0. -1.
        -11    1    4    4    0    0  0.30010999444E-01 -0.50608277421E-01  0.57944239604E-02  0.59124396836E-01  0.51100000000E-03 0.  1.
         11    1    4    4    0    0  0.17276825552E-01 -0.68746134457E-01  0.10583253434E-01  0.71671375584E-01  0.51100000000E-03 0. -1.
</event>
<event>
 8    1  0.1086486E+005  0.1043930E+01  0.7957747E-01            NaN
         13   -1    0    0    0    0  0.00000000000E+00  0.00000000000E+00  0.74505805969E-08  0.10566000000E+00  0.10566000000E+00 0. -1.
     999900   -1    0    0    0    0 -0.00000000000E+00 -0.00000000000E+00 -0.74505805969E-08  0.93827000000E+00  0.93827000000E+00 0. -1.
     999902    2    1    2    0    0  0.21314766219E-01  0.57038849174E-02  0.81659804319E-02  0.10204026372E+01  0.10201313667E+01 0.  0.
     999903    2    3    3    0    0  0.71431361427E-01 -0.61809350262E-01  0.90797862162E-01  0.13254130915E+00  0.20002791862E-01 0.  0.
         14    1    1    2    0    0 -0.21314766219E-01 -0.57038849174E-02 -0.81659804319E-02  0.23527362762E-01  0.00000000000E+00 0.  1.
     999901    1    3    3    0    0 -0.50116595208E-01  0.67513235179E-01 -0.82631881730E-01  0.88786132809E+00  0.88000000000E+00 0. -1.
        -11    1    4    4    0    0  0.35258503046E-01 -0.42833042097E-01  0.47807544561E-01  0.73236971335E-01  0.51100000000E-03 0. -1.
         11    1    4    4    0    0  0.36172858381E-01 -0.18976308165E-01  0.42990317600E-01  0.59304337813E-01  0.51100000000E-03 0.  1.
</event>
<event>
 8    1  0.1086486E+005  0.1043930E+01  0.7957747E-01            NaN
         13   -1    0    0    0    0  0.00000000000E+00  0.00000000000E+00  0.74505805969E-08  0.10566000000E+00  0.10566000000E+00 0. -1.
     999900   -1    0    0    0    0 -0.00000000000E+00 -0.00000000000E+00 -0.74505805969E-08  0.93827000000E+00  0.93827000000E+00 0. -1.
     999902    2    1    2    0    0 -0.56163842704E-02  0.20758971277E-01  0.11436106661E-01  0.10195730052E+01  0.10192820266E+01 0.  0.
     999903    2    3    3    0    0  0.49648788734E-01  0.10143376568E+00  0.66275788462E-01  0.13245967956E+00  0.19981880074E-01 0.  0.
         14    1    1    2    0    0  0.56163842704E-02 -0.20758971277E-01 -0.11436106661E-01  0.24356994813E-01  0.00000000000E+00 0. -1.
     999901    1    3    3    0    0 -0.55265173004E-01 -0.80674794403E-01 -0.54839681801E-01  0.88711332562E+00  0.88000000000E+00 0. -1.
        -11    1    4    4    0    0  0.41493864435E-01  0.86316226386E-01  0.63848144474E-01  0.11510464108E+00  0.51100000000E-03 0. -1.
         11    1    4    4    0    0  0.81549242990E-02  0.15117539293E-01  0.24276439874E-02  0.17355038488E-01  0.51100000000E-03 0.  1.
</event>
<event>
 8    1  0.1086486E+005  0.1043930E+01  0.7957747E-01            NaN
         13   -1    0    0    0    0  0.00000000000E+00  0.00000000000E+00  0.74505805969E-08  0.10566000000E+00  0.10566000000E+00 0.  1.
     999900   -1    0    0    0    0 -0.00000000000E+00 -0.00000000000E+00 -0.74505805969E-08  0.93827000000E+00  0.93827000000E+00 0. -1.
     999902    2    1    2    0    0 -0.40320034807E-02  0.15270299979E-01  0.17787735398E-01  0.10201425528E+01  0.10198651800E+01 0.  0.
     999903    2    3    3    0    0 -0.22722287918E-01 -0.20935736458E-01 -0.12190278628E+00  0.12819320130E+00  0.24871673156E-01 0.  0.
         14    1    1    2    0    0  0.40320034807E-02 -0.15270299979E-01 -0.17787735398E-01  0.23787447196E-01  0.00000000000E+00 0. -1.
     999901    1    3    3    0    0  0.18690284437E-01  0.36206036436E-01  0.13969052168E+00  0.89194935151E+00  0.88000000000E+00 0.  1.
        -11    1    4    4    0    0 -0.14357549075E-01  0.14465635763E-02 -0.30946425047E-01  0.34149291440E-01  0.51100000000E-03 0.  1.
         11    1    4    4    0    0 -0.83647388427E-02 -0.22382300034E-01 -0.90956361237E-01  0.94043909857E-01  0.51100000000E-03 0. -1.
</event>
<event>
 8    1  0.1086486E+005  0.1043930E+01  0.7957747E-01            NaN
         13   -1    0    0    0    0  0.00000000000E+00  0.00000000000E+00  0.74505805969E-08  0.10566000000E+00  0.10566000000E+00 0. -1.
     999900   -1    0    0    0    0 -0.00000000000E+00 -0.00000000000E+00 -0.74505805969E-08  0.93827000000E+00  0.93827000000E+00 0. -1.
     999902    2    1    2    0    0  0.59924394565E-02 -0.19969179504E-01  0.10475108611E-01  0.10205975042E+01  0.10203307602E+01 0.  0.
     999903    2    3    3    0    0  0.11559022715E+00 -0.31420888594E-01 -0.50381455154E-01  0.13163949726E+00  0.21030771830E-01 0.  0.
         14    1    1    2    0    0 -0.59924394565E-02  0.19969179504E-01 -0.10475108611E-01  0.23332495818E-01  0.00000000000E+00 0.  1.
     999901    1    3    3    0    0 -0.10959778769E+00  0.11451709091E-01  0.60856563765E-01  0.88895800692E+00  0.88000000000E+00 0.  1.
        -11    1    4    4    0    0  0.73336232374E-01 -0.97831846776E-02 -0.27438838779E-01  0.78911752456E-01  0.51100000000E-03 0.  1.
         11    1    4    4    0    0  0.42253994778E-01 -0.21637703917E-01 -0.22942616375E-01  0.52727744808E-01  0.51100000000E-03 0. -1.
</event>
<event>
 8    1  0.1086486E+005  0.1043930E+01  0.7957747E-01            NaN
         13   -1    0    0    0    0  0.00000000000E+00  0.00000000000E+00  0.74505805969E-08  0.10566000000E+00  0.10566000000E+00 0.  1.
     999900   -1    0    0    0    0 -0.00000000000E+00 -0.00000000000E+00 -0.74505805969E-08  0.93827000000E+00  0.93827000000E+00 0. -1.
     999902    2    1    2    0    0 -0.10199373827E-01  0.18333984483E-01 -0.11209267750E-01  0.10201432411E+01  0.10198658846E+01 0.  0.
     999903    2    3    3    0    0 -0.64872604536E-02  0.13111396107E+00 -0.35550447044E-02  0.13290500367E+00  0.20448626397E-01 0.  0.
         14    1    1    2    0    0  0.10199373827E-01 -0.18333984483E-01  0.11209267750E-01  0.23786758858E-01  0.00000000000E+00 0.  1.
     999901    1    3    3    0    0 -0.37121133730E-02 -0.11277997659E+00 -0.76542230460E-02  0.88723823747E+00  0.88000000000E+00 0.  1.
        -11    1    4    4    0    0 -0.50768369703E-02  0.86509487600E-01 -0.11989548177E-01  0.87485290792E-01  0.51100000000E-03 0. -1.
         11    1    4    4    0    0 -0.14104234833E-02  0.44604473470E-01  0.84345034729E-02  0.45419712876E-01  0.51100000000E-03 0.  1.
</event>
<event>
 8    1  0.1086486E+005  0.1043930E+01  0.7957747E-01            NaN
         13   -1    0    0    0    0  0.00000000000E+00  0.00000000000E+00  0.74505805969E-08  0.10566000000E+00  0.10566000000E+00 0.  1.
     999900   -1    0    0    0    0 -0.00000000000E+00 -0.00000000000E+00 -0.74505805969E-08  0.93827000000E+00  0.93827000000E+00 0.  1.
     999902    2    1    2    0    0  0.21838018483E-01  0.11277408339E-01  0.15203351281E-02  0.10193050044E+01  0.10190075081E+01 0.  0.
     999903    2    3    3    0    0 -0.77823508798E-01  0.12636849623E-01 -0.98795414473E-01  0.12801519870E+00  0.20277294874E-01 0.  0.
         14    1    1    2    0    0 -0.21838018483E-01 -0.11277408339E-01 -0.15203351281E-02  0.24624995614E-01  0.00000000000E+00 0. -1.
     999901    1    3    3    0    0  0.99661527281E-01 -0.13594412838E-02  0.10031574960E+00  0.89128980569E+00  0.88000000000E+00 0.  1.
        -11    1    4    4    0    0 -0.49977723497E-01  0.53765732939E-02 -0.47304851807E-01  0.69026737659E-01  0.51100000000E-03 0. -1.
         11    1    4    4    0    0 -0.27845785300E-01  0.72602763287E-02 -0.51490562666E-01  0.58988461041E-01  0.51100000000E-03 0.  1.
</event>
<event>
 8    1  0.1086486E+005  0.1043930E+01  0.7957747E-01            NaN
         13   -1    0    0    0    0  0.00000000000E+00  0.00000000000E+00  0.74505805969E-08  0.10566000000E+00  0.10566000000E+00 0. -1.
     999900   -1    0    0    0    0 -0.00000000000E+00 -0.00000000000E+00 -0.74505805969E-08  0.93827000000E+00  0.93827000000E+00 0. -1.
     999902    2    1    2    0    0 -0.22821828778E-01  0.58354620125E-02 -0.35130430466E-02  0.10201134100E+01  0.10198353492E+01 0.  0.
     999903    2    3    3    0    0 -0.56057453557E-01  0.11277768145E+00  0.35190404170E-01  0.13217241996E+00  0.19233837851E-01 0.  0.
         14    1    1    2    0    0  0.22821828778E-01 -0.58354620125E-02  0.35130430466E-02  0.23816589956E-01  0.00000000000E+00 0. -1.
     999901    1    3    3    0    0  0.33235624779E-01 -0.10694221944E+00 -0.38703447217E-01  0.88794099009E+00  0.88000000000E+00 0. -1.
        -11    1    4    4    0    0 -0.14445981571E-01  0.49639880484E-01  0.16615203849E-01  0.54305895057E-01  0.51100000000E-03 0. -1.
         11    1    4    4    0    0 -0.41611471986E-01  0.63137800968E-01  0.18575200321E-01  0.77866524899E-01  0.51100000000E-03 0.  1.
</event>
<event>
 8    1  0.1086486E+005  0.1043930E+01  0.7957747E-01            NaN
         13   -1    0    0    0    0  0.00000000000E+00  0.00000000000E+00  0.74505805969E-08  0.10566000000E+00  0.10566000000E+00 0. -1.
     999900   -1    0    0    0    0 -0.00000000000E+00 -0.00000000000E+00 -0.74505805969E-08  0.93827000000E+00  0.93827000000E+00 0. -1.
     999902    2    1    2    0    0  0.73297291797E-02  0.12283031096E-01 -0.18188663205E-01  0.10207907422E+01  0.10205284484E+01 0.  0.
     999903    2    3    3    0    0 -0.90954740601E-02  0.36027576684E-01 -0.12685158823E+00  0.13363730449E+00  0.19669514146E-01 0.  0.
         14    1    1    2    0    0 -0.73297291797E-02 -0.12283031096E-01  0.18188663205E-01  0.23139257808E-01  0.00000000000E+00 0. -1.
     999901    1    3    3    0    0  0.16425203240E-01 -0.23744545589E-01  0.10866292502E+00  0.88715343770E+00  0.88000000000E+00 0.  1.
        -11    1    4    4    0    0 -0.78056721021E-02  0.22851288110E-01 -0.10753171579E+00  0.11021089286E+00  0.51100000000E-03 0. -1.
         11    1    4    4    0    0 -0.12898019581E-02  0.13176288574E-01 -0.19319872440E-01  0.23426411628E-01  0.51100000000E-03 0.  1.
</event>
<event>
 8    1  0.1086486E+005  0.1043930E+01  0.7957747E-01            NaN
         13   -1    0    0    0    0  0.00000000000E+00  0.00000000000E+00  0.74505805969E-08  0.10566000000E+00  0.10566000000E+00 0. -1.
     999900   -1    0    0    0    0 -0.00000000000E+00 -0.00000000000E+00 -0.74505805969E-08  0.93827000000E+00  0.93827000000E+00 0.  1.
     999902    2    1    2    0    0 -0.92965505018E-02 -0.10690545677E-01 -0.19653316969E-01  0.10197026088E+01  0.10194147556E+01 0.  0.
     999903    2    3    3    0    0 -0.11483724619E+00  0.57547721464E-01  0.10507202758E-01  0.13026179764E+00  0.18931488507E-01 0.  0.
         14    1    1    2    0    0  0.92965505018E-02  0.10690545677E-01  0.19653316969E-01  0.24227391234E-01  0.00000000000E+00 0. -1.
     999901    1    3    3    0    0  0.10554069568E+00 -0.68238267141E-01 -0.30160519727E-01  0.88944081113E+00  0.88000000000E+00 0.  1.
        -11    1    4    4    0    0 -0.98295941134E-01  0.43861888578E-01  0.13855147132E-01  0.10852734004E+00  0.51100000000E-03 0.  1.
         11    1    4    4    0    0 -0.16541305052E-01  0.13685832886E-01 -0.33479443739E-02  0.21734457599E-01  0.51100000000E-03 0. -1.
</event>
<event>
 8    1  0.1086486E+005  0.1043930E+01  0.7957747E-01            NaN
         13   -1    0    0    0    0  0.00000000000E+00  0.00000000000E+00  0.74505805969E-08  0.10566000000E+00  0.10566000000E+00 0.  1.
     999900   -1    0    0    0    0 -0.00000000000E+00 -0.00000000000E+00 -0.74505805969E-08  0.93827000000E+00  0.93827000000E+00 0.  1.
     999902    2    1    2    0    0 -0.16742562945E-01  0.19985225384E-02 -0.16886845743E-01  0.10200663652E+01  0.10197871917E+01 0.  0.
     999903    2    3    3    0    0 -0.12897812230E+00  0.21391410750E-01 -0.53326773250E-02  0.13265078967E+00  0.21790962972E-01 0.  0.
         14    1    1    2    0    0  0.16742562945E-01 -0.19985225384E-02  0.16886845743E-01  0.23863634792E-01  0.00000000000E+00 0. -1.
     999901    1    3    3    0    0  0.11223555936E+00 -0.19392888212E-01 -0.11554168419E-01  0.88741557554E+00  0.88000000000E+00 0.  1.
        -11    1    4    4    0    0 -0.44302228005E-01 -0.25249884183E-02  0.14397640808E-02  0.44400416826E-01  0.51100000000E-03 0.  1.
         11    1    4    4    0    0 -0.84675894295E-01  0.23916399169E-01 -0.67724414057E-02  0.88250372846E-01  0.51100000000E-03 0. -1.
</event>
<event>
 8    1  0.1086486E+005  0.1043930E+01  0.7957747E-01            NaN
         13   -1    0    0    0    0  0.00000000000E+00  0.00000000000E+00  0.74505805969E-08  0.10566000000E+00  0.10566000000E+00 0. -1.
     999900   -1    0    0    0    0 -0.00000000000E+00 -0.00000000000E+00 -0.74505805969E-08  0.93827000000E+00  0.93827000000E+00 0. -1.
     999902    2    1    2    0    0  0.62909045802E-02 -0.89196255779E-02  0.21057998711E-01  0.10202113468E+01  0.10199355948E+01 0.  0.
     999903    2    3    3    0    0 -0.36698113255E-01 -0.12336536740E+00 -0.16108239948E-01  0.13098291000E+00  0.18201151857E-01 0.  0.
         14    1    1    2    0    0 -0.62909045802E-02  0.89196255779E-02 -0.21057998711E-01  0.23718653221E-01  0.00000000000E+00 0.  1.
     999901    1    3    3    0    0  0.42989017835E-01  0.11444574182E+00  0.37166238660E-01  0.88922843678E+00  0.88000000000E+00 0. -1.
        -11    1    4    4    0    0 -0.29613072279E-01 -0.68029762470E-01 -0.95198991591E-02  0.74805562845E-01  0.51100000000E-03 0.  1.
         11    1    4    4    0    0 -0.70850409756E-02 -0.55335604928E-01 -0.65883407893E-02  0.56177347158E-01  0.51100000000E-03 0. -1.
</event>
<event>
 8    1  0.1086486E+005  0.1043930E+01  0.7957747E-01            NaN
         13   -1    0    0    0    0  0.00000000000E+00  0.00000000000E+00  0.74505805969E-08  0.10566000000E+00  0.10566000000E+00 0. -1.
     999900   -1    0    0    0    0 -0.00000000000E+00 -0.00000000000E+00 -0.74505805969E-08  0.93827000000E+00  0.93827000000E+00 0.  1.
     999902    2    1    2    0    0 -0.13931559917E-01 -0.23046665967E-01 -0.18427217532E-01  0.10112987340E+01  0.10107721454E+01 0.  0.
     999903    2    3    3    0    0  0.10653613631E+00  0.35925263961E-01  0.35114785366E-01  0.11952695804E+00  0.20324187930E-01 0.  0.
         14    1    1    2    0    0  0.13931559917E-01  0.23046665967E-01  0.18427217532E-01  0.32631265987E-01  0.00000000000E+00 0. -1.
     999901    1    3    3    0    0 -0.12046769623E+00 -0.58971929928E-01 -0.53542002899E-01  0.89177177598E+00  0.88000000000E+00 0.  1.
        -11    1    4    4    0    0  0.44294055484E-01  0.22199730427E-01  0.77058304021E-02  0.50144115562E-01  0.51100000000E-03 0. -1.
         11    1    4    4    0    0  0.62242080828E-01  0.13725533534E-01  0.27408954964E-01  0.69382842475E-01  0.51100000000E-03 0.  1.
</event>
<event>
 8    1  0.1086486E+005  0.1043930E+01  0.7957747E-01            NaN
         13   -1    0    0    0    0  0.00000000000E+00  0.00000000000E+00  0.74505805969E-08  0.10566000000E+00  0.10566000000E+00 0. -1.
     999900   -1    0    0    0    0 -0.00000000000E+00 -0.00000000000E+00 -0.74505805969E-08  0.93827000000E+00  0.93827000000E+00 0.  1.
     999902    2    1    2    0    0  0.18861251864E-02  0.23124089455E-01  0.10425275924E-01  0.10184944469E+01  0.10181767877E+01 0.  0.
     999903    2    3    3    0    0  0.32019541123E-01  0.11650262372E+00 -0.47744560226E-01  0.13113245584E+00  0.17834393624E-01 0.  0.
         14    1    1    2    0    0 -0.18861251864E-02 -0.23124089455E-01 -0.10425275924E-01  0.25435553059E-01  0.00000000000E+00 0.  1.
     999901    1    3    3    0    0 -0.30133415936E-01 -0.93378534263E-01  0.58169836150E-01  0.88736199110E+00  0.88000000000E+00 0. -1.
        -11    1    4    4    0    0  0.34945988218E-02  0.24263727190E-01 -0.16883310673E-01  0.29769917339E-01  0.51100000000E-03 0. -1.
         11    1    4    4    0    0  0.28524942301E-01  0.92238896528E-01 -0.30861249553E-01  0.10136253850E+00  0.51100000000E-03 0.  1.
</event>
<event>
 8    1  0.1086486E+005  0.1043930E+01  0.7957747E-01            NaN
         13   -1    0    0    0    0  0.00000000000E+00  0.00000000000E+00  0.74505805969E-08  0.10566000000E+00  0.10566000000E+00 0.  1.
     999900   -1    0    0    0    0 -0.00000000000E+00 -0.00000000000E+00 -0.74505805969E-08  0.93827000000E+00  0.93827000000E+00 0. -1.
     999902    2    1    2    0    0  0.21214735661E-01 -0.25739360923E-02 -0.15505258550E-01  0.10175272880E+01  0.10171846827E+01 0.  0.
     999903    2    3    3    0    0 -0.15739987447E-02  0.11497686817E+00  0.49891597734E-01  0.12701380313E+00  0.20522596654E-01 0.  0.
         14    1    1    2    0    0 -0.21214735661E-01  0.25739360923E-02  0.15505258550E-01  0.26402711961E-01  0.00000000000E+00 0.  1.
     999901    1    3    3    0    0  0.22788734406E-01 -0.11755080427E+00 -0.65396856284E-01  0.89051348491E+00  0.88000000000E+00 0. -1.
        -11    1    4    4    0    0 -0.15786485179E-02  0.52191879572E-02 -0.16999698228E-02  0.57343763806E-02  0.51100000000E-03 0.  1.
         11    1    4    4    0    0  0.46497731743E-05  0.10975768022E+00  0.51591567557E-01  0.12127942675E+00  0.51100000000E-03 0. -1.
</event>
<event>
 8    1  0.1086486E+005  0.1043930E+01  0.7957747E-01            NaN
         13   -1    0    0    0    0  0.00000000000E+00  0.00000000000E+00  0.74505805969E-08  0.10566000000E+00  0.10566000000E+00 0.  1.
     999900   -1    0    0    0    0 -0.00000000000E+00 -0.00000000000E+00 -0.74505805969E-08  0.93827000000E+00  0.93827000000E+00 0.  1.
     999902    2    1    2    0    0 -0.14269734394E-01 -0.10758742937E-01 -0.15184959050E-01  0.10204787985E+01  0.10202093018E+01 0.  0.
     999903    2    3    3    0    0  0.60640989335E-01  0.11046213389E+00 -0.19081866766E-01  0.12900737251E+00  0.19989294916E-01 0.  0.
         14    1    1    2    0    0  0.14269734394E-01  0.10758742937E-01  0.15184959050E-01  0.23451201475E-01  0.00000000000E+00 0.  1.
     999901    1    3    3    0    0 -0.74910723729E-01 -0.12122087683E+00  0.38969077158E-02  0.89147142601E+00  0.88000000000E+00 0.  1.
        -11    1    4    4    0    0  0.39470455506E-01  0.83207682935E-01 -0.20925772981E-01  0.94443551675E-01  0.51100000000E-03 0. -1.
         11    1    4    4    0    0  0.21170533829E-01  0.27254450959E-01  0.18439062149E-02  0.34563820836E-01  0.51100000000E-03 0.  1.
</event>
<event>
 8    1  0.1086486E+005  0.1043930E+01  0.7957747E-01            NaN
         13   -1    0    0    0    0  0.00000000000E+00  0.00000000000E+00  0.74505805969E-08  0.10566000000E+00  0.10566000000E+00 0. -1.
     999900   -1    0    0    0    0 -0.00000000000E+00 -0.00000000000E+00 -0.74505805969E-08  0.93827000000E+00  0.93827000000E+00 0. -1.
     999902    2    1    2    0    0  0.16846826059E-02 -0.62184193886E-02 -0.22563457924E-01  0.10204647804E+01  0.10201949576E+01 0.  0.
     999903    2    3    3    0    0  0.90281145924E-02 -0.11410254971E+00  0.58622989728E-01  0.13013666629E+00  0.19949894370E-01 0.  0.
         14    1    1    2    0    0 -0.16846826059E-02  0.62184193886E-02  0.22563457924E-01  0.23465219553E-01  0.00000000000E+00 0. -1.
     999901    1    3    3    0    0 -0.73434319864E-02  0.10788413032E+00 -0.81186447652E-01  0.89032811415E+00  0.88000000000E+00 0.  1.
        -11    1    4    4    0    0  0.13665205093E-02 -0.65969481598E-01  0.43767484388E-01  0.79181397382E-01  0.51100000000E-03 0. -1.
         11    1    4    4    0    0  0.76615940831E-02 -0.48133068115E-01  0.14855505340E-01  0.50955268913E-01  0.51100000000E-03 0.  1.
</event>
<event>
 8    1  0.1086486E+005  0.1043930E+01  0.7957747E-01            NaN
         13   -1    0    0    0    0  0.00000000000E+00  0.00000000000E+00  0.74505805969E-08  0.10566000000E+00  0.10566000000E+00 0. -1.
     999900   -1    0    0    0    0 -0.00000000000E+00 -0.00000000000E+00 -0.74505805969E-08  0.93827000000E+00  0.93827000000E+00 0. -1.
     999902    2    1    2    0    0  0.13280855171E-01 -0.66777549247E-02 -0.17922943408E-01  0.10206446951E+01  0.10203790414E+01 0.  0.
     999903    2    3    3    0    0  0.38008996672E-01 -0.95536260094E-01 -0.82462135333E-01  0.13347356039E+00  0.21055325681E-01 0.  0.
         14    1    1    2    0    0 -0.13280855171E-01  0.66777549247E-02  0.17922943408E-01  0.23285304922E-01  0.00000000000E+00 0. -1.
     999901    1    3    3    0    0 -0.24728141500E-01  0.88858505169E-01  0.64539191925E-01  0.88717113468E+00  0.88000000000E+00 0. -1.
        -11    1    4    4    0    0  0.98852961606E-02 -0.17884474334E-01 -0.70161577148E-02  0.21611596250E-01  0.51100000000E-03 0. -1.
         11    1    4    4    0    0  0.28123700511E-01 -0.77651785760E-01 -0.75445977618E-01  0.11186196414E+00  0.51100000000E-03 0.  1.
</event>
<event>
 8    1  0.1086486E+005  0.1043930E+01  0.7957747E-01            NaN
         13   -1    0    0    0    0  0.00000000000E+00  0.00000000000E+00  0.74505805969E-08  0.10566000000E+00  0.10566000000E+00 0. -1.
     999900   -1    0    0    0    0 -0.00000000000E+00 -0.00000000000E+00 -0.74505805969E-08  0.93827000000E+00  0.93827000000E+00 0. -1.
     999902    2    1    2    0    0  0.22655823578E-01  0.63041625627E-03  0.60428767608E-02  0.10204736549E+01  0.10202040385E+01 0.  0.
     999903    2    3    3    0    0  0.10581200635E+00  0.72644968241E-01  0.29821512123E-01  0.13330598757E+00  0.20191375353E-01 0.  0.
         14    1    1    2    0    0 -0.22655823578E-01 -0.63041625627E-03 -0.60428767608E-02  0.23456345116E-01  0.00000000000E+00 0.  1.
     999901    1    3    3    0    0 -0.83156182768E-01 -0.72014551984E-01 -0.23778635362E-01  0.88716766732E+00  0.88000000000E+00 0. -1.
        -11    1    4    4    0    0  0.48059024913E-01  0.21944425877E-01  0.81708829210E-02  0.53462623872E-01  0.51100000000E-03 0. -1.
         11    1    4    4    0    0  0.57752981433E-01  0.50700542364E-01  0.21650629202E-01  0.79843363696E-01  0.51100000000E-03 0.  1.
</event>
<event>
 8    1  0.1086486E+005  0.1043930E+01  0.7957747E-01            NaN
         13   -1    0    0    0    0  0.00000000000E+00  0.00000000000E+00  0.74505805969E-08  0.10566000000E+00  0.10566000000E+00 0. -1.
     999900   -1    0    0    0    0 -0.00000000000E+00 -0.00000000000E+00 -0.74505805969E-08  0.93827000000E+00  0.93827000000E+00 0. -1.
     999902    2    1    2    0    0  0.12777124915E-01  0.29819966422E-02  0.21777098944E-01  0.10185058134E+01  0.10181884416E+01 0.  0.
     999903    2    3    3    0    0  0.10911078348E-01 -0.28712522141E-01 -0.12105901878E+00  0.12642387706E+00  0.19602298417E-01 0.  0.
         14    1    1    2    0    0 -0.12777124915E-01 -0.29819966422E-02 -0.21777098944E-01  0.25424186584E-01  0.00000000000E+00 0.  1.
     999901    1    3    3    0    0  0.18660465662E-02  0.31694518783E-01  0.14283611773E+00  0.89208193636E+00  0.88000000000E+00 0.  1.
        -11    1    4    4    0    0  0.14153624519E-01 -0.10969180942E-01 -0.50095592237E-01  0.53202232098E-01  0.51100000000E-03 0. -1.
         11    1    4    4    0    0 -0.32425461710E-02 -0.17743341199E-01 -0.70963426544E-01  0.73221644959E-01  0.51100000000E-03 0.  1.
</event>
<event>
 8    1  0.1086486E+005  0.1043930E+01  0.7957747E-01            NaN
         13   -1    0    0    0    0  0.00000000000E+00  0.00000000000E+00  0.74505805969E-08  0.10566000000E+00  0.10566000000E+00 0.  1.
     999900   -1    0    0    0    0 -0.00000000000E+00 -0.00000000000E+00 -0.74505805969E-08  0.93827000000E+00  0.93827000000E+00 0. -1.
     999902    2    1    2    0    0 -0.93153239119E-02  0.25303214904E-02  0.20662219810E-01  0.10211241868E+01  0.10208694823E+01 0.  0.
     999903    2    3    3    0    0  0.56114256865E-01  0.28395377391E-01  0.11552408745E+00  0.13323410069E+00  0.21222712475E-01 0.  0.
         14    1    1    2    0    0  0.93153239119E-02 -0.25303214904E-02 -0.20662219810E-01  0.22805813160E-01  0.00000000000E+00 0. -1.
     999901    1    3    3    0    0 -0.65429580776E-01 -0.25865055900E-01 -0.94861867637E-01  0.88789008615E+00  0.88000000000E+00 0. -1.
        -11    1    4    4    0    0  0.38206901854E-01  0.11943471286E-01  0.55180880049E-01  0.68173341561E-01  0.51100000000E-03 0.  1.
         11    1    4    4    0    0  0.17907355010E-01  0.16451906104E-01  0.60343207398E-01  0.65060759126E-01  0.51100000000E-03 0. -1.
</event>
<event>
 8    1  0.1086486E+005  0.1043930E+01  0.7957747E-01            NaN
         13   -1    0    0    0    0  0.00000000000E+00  0.00000000000E+00  0.74505805969E-08  0.10566000000E+00  0.10566000000E+00 0. -1.
     999900   -1    0    0    0    0 -0.00000000000E+00 -0.00000000000E+00 -0.74505805969E-08  0.93827000000E+00  0.93827000000E+00 0.  1.
     999902    2    1    2    0    0  0.17653233876E-01 -0.34944923568E-02  0.14920196589E-01  0.10205535073E+01  0.10202857447E+01 0.  0.
     999903    2    3    3    0    0  0.44200728761E-01  0.10363345191E+00  0.66002109641E-01  0.13218954602E+00  0.20596136060E-01 0.  0.
         14    1    1    2    0    0 -0.17653233876E-01  0.34944923568E-02 -0.14920196589E-01  0.23376492666E-01  0.00000000000E+00 0.  1.
     999901    1    3    3    0    0 -0.26547494885E-01 -0.10712794427E+00 -0.51081913053E-01  0.88836396132E+00  0.88000000000E+00 0. -1.
        -11    1    4    4    0    0  0.39248413679E-01  0.73094835143E-01  0.41771699135E-01  0.92889336690E-01  0.51100000000E-03 0. -1.
         11    1    4    4    0    0  0.49523150818E-02  0.30538616769E-01  0.24230410506E-01  0.39300209327E-01  0.51100000000E-03 0.  1.
</event>
<event>
 8    1  0.1086486E+005  0.1043930E+01  0.7957747E-01            NaN
         13   -1    0    0    0    0  0.00000000000E+00  0.00000000000E+00  0.74505805969E-08  0.10566000000E+00  0.10566000000E+00 0. -1.
     999900   -1    0    0    0    0 -0.00000000000E+00 -0.00000000000E+00 -0.74505805969E-08  0.93827000000E+00  0.93827000000E+00 0. -1.
     999902    2    1    2    0    0 -0.33842318523E-02  0.23801647454E-01  0.18786982686E-02  0.10198156691E+01  0.10195305282E+01 0.  0.
     999903    2    3    3    0    0 -0.45303795053E-01 -0.11510093007E+00  0.24141135627E-01  0.12765716754E+00  0.20319942049E-01 0.  0.
         14    1    1    2    0    0  0.33842318523E-02 -0.23801647454E-01 -0.18786982686E-02  0.24114330883E-01  0.00000000000E+00 0.  1.
     999901    1    3    3    0    0  0.41919563201E-01  0.13890257753E+00 -0.22262437358E-01  0.89215850158E+00  0.88000000000E+00 0.  1.
        -11    1    4    4    0    0 -0.36021630620E-01 -0.85834020331E-01  0.26705150175E-01  0.96842465301E-01  0.51100000000E-03 0. -1.
         11    1    4    4    0    0 -0.92821644334E-02 -0.29266909741E-01 -0.25640145487E-02  0.30814702237E-01  0.51100000000E-03 0.  1.
</event>
<event>
 8    1  0.1086486E+005  0.1043930E+01  0.7957747E-01            NaN
         13   -1    0    0    0    0  0.00000000000E+00  0.00000000000E+00  0.74505805969E-08  0.10566000000E+00  0.10566000000E+00 0. -1.
     999900   -1    0    0    0    0 -0.00000000000E+00 -0.00000000000E+00 -0.74505805969E-08  0.93827000000E+00  0.93827000000E+00 0.  1.
     999902    2    1    2    0    0  0.30113516864E-01  0.69183475882E-02 -0.68850321879E-02  0.10122741775E+01  0.10117790862E+01 0.  0.
     999903    2    3    3    0    0  0.71135362413E-01  0.27178877726E-01  0.96748172088E-01  0.12501259152E+00  0.21656593811E-01 0.  0.
         14    1    1    2    0    0 -0.30113516864E-01 -0.69183475882E-02  0.68850321879E-02  0.31655822521E-01  0.00000000000E+00 0.  1.
     999901    1    3    3    0    0 -0.41021845549E-01 -0.20260530138E-01 -0.10363320428E+00  0.88726158596E+00  0.88000000000E+00 0.  1.
        -11    1    4    4    0    0  0.35938958520E-01  0.25031559706E-01  0.56776265189E-01  0.71707692270E-01  0.51100000000E-03 0. -1.
         11    1    4    4    0    0  0.35196403893E-01  0.21473180192E-02  0.39971906900E-01  0.53304899248E-01  0.51100000000E-03 0.  1.
</event>
<event>
 8    1  0.1086486E+005  0.1043930E+01  0.7957747E-01            NaN
         13   -1    0    0    0    0  0.00000000000E+00  0.00000000000E+00  0.74505805969E-08  0.10566000000E+00  0.10566000000E+00 0.  1.
     999900   -1    0    0    0    0 -0.00000000000E+00 -0.00000000000E+00 -0.74505805969E-08  0.93827000000E+00  0.93827000000E+00 0.  1.
     999902    2    1    2    0    0  0.14518021001E-01  0.20511213083E-01 -0.24220040576E-02  0.10186842301E+01  0.10183713525E+01 0.  0.
     999903    2    3    3    0    0  0.88826419400E-01 -0.37257789607E-01  0.84425347501E-01  0.12941404715E+00  0.18495421864E-01 0.  0.
         14    1    1    2    0    0 -0.14518021001E-01 -0.20511213083E-01  0.24220040576E-02  0.25245769934E-01  0.00000000000E+00 0.  1.
     999901    1    3    3    0    0 -0.74308398399E-01  0.57769002690E-01 -0.86847351559E-01  0.88927018291E+00  0.88000000000E+00 0.  1.
        -11    1    4    4    0    0  0.39528835588E-01 -0.12140591976E-01  0.25504079926E-01  0.48586438749E-01  0.51100000000E-03 0.  1.
         11    1    4    4    0    0  0.49297583812E-01 -0.25117197632E-01  0.58921267575E-01  0.80827608404E-01  0.51100000000E-03 0. -1.
</event>
<event>
 8    1  0.1086486E+005  0.1043930E+01  0.7957747E-01            NaN
         13   -1    0    0    0    0  0.00000000000E+00  0.00000000000E+00  0.74505805969E-08  0.10566000000E+00  0.10566000000E+00 0. -1.
     999900   -1    0    0    0    0 -0.00000000000E+00 -0.00000000000E+00 -0.74505805969E-08  0.93827000000E+00  0.93827000000E+00 0. -1.
     999902    2    1    2    0    0  0.22280614045E-01  0.64958499713E-02  0.36841086146E-04  0.10207217431E+01  0.10204578648E+01 0.  0.
     999903    2    3    3    0    0 -0.12398326289E+00  0.11570444972E-02  0.27406247637E-01  0.12821364293E+00  0.17732670273E-01 0.  0.
         14    1    1    2    0    0 -0.22280614045E-01 -0.64958499713E-02 -0.36841086146E-04  0.23208256857E-01  0.00000000000E+00 0.  1.
     999901    1    3    3    0    0  0.14626387693E+00  0.53388054742E-02 -0.27369406551E-01  0.89250810022E+00  0.88000000000E+00 0. -1.
        -11    1    4    4    0    0 -0.10471237045E+00 -0.47335229481E-02  0.19832763869E-01  0.10668030001E+00  0.51100000000E-03 0. -1.
         11    1    4    4    0    0 -0.19270892433E-01  0.58905674453E-02  0.75734837676E-02  0.21533342921E-01  0.51100000000E-03 0.  1.
</event>
<event>
 8    1  0.1086486E+005  0.1043930E+01  0.7957747E-01            NaN
         13   -1    0    0    0    0  0.00000000000E+00  0.00000000000E+00  0.74505805969E-08  0.10566000000E+00  0.10566000000E+00 0. -1.
     999900   -1    0    0    0    0 -0.00000000000E+00 -0.00000000000E+00 -0.74505805969E-08  0.93827000000E+00  0.93827000000E+00 0. -1.
     999902    2    1    2    0    0 -0.24348829217E-01  0.52839274339E-02  0.11761232260E-02  0.10189866915E+01  0.10186813578E+01 0.  0.
     999903    2    3    3    0    0  0.10558166629E+00 -0.64351450885E-01  0.18264345287E-01  0.12656132940E+00  0.19889351470E-01 0.  0.
         14    1    1    2    0    0  0.24348829217E-01 -0.52839274339E-02 -0.11761232260E-02  0.24943308506E-01  0.00000000000E+00 0.  1.
     999901    1    3    3    0    0 -0.12993049551E+00  0.69635378319E-01 -0.17088222061E-01  0.89242536210E+00  0.88000000000E+00 0. -1.
        -11    1    4    4    0    0  0.49880479941E-01 -0.27562168780E-01  0.18129826928E-01  0.59805410896E-01  0.51100000000E-03 0. -1.
         11    1    4    4    0    0  0.55701186354E-01 -0.36789282105E-01  0.13451835965E-03  0.66755918503E-01  0.51100000000E-03 0.  1.
</event>
<event>
 8    1  0.1086486E+005  0.1043930E+01  0.7957747E-01            NaN
         13   -1    0    0    0    0  0.00000000000E+00  0.00000000000E+00  0.74505805969E-08  0.10566000000E+00  0.10566000000E+00 0. -1.
     999900   -1    0    0    0    0 -0.00000000000E+00 -0.00000000000E+00 -0.74505805969E-08  0.93827000000E+00  0.93827000000E+00 0.  1.
     999902    2    1    2    0    0 -0.26900202236E-02 -0.12362650168E-01 -0.20720963075E-01  0.10196518279E+01  0.10193627522E+01 0.  0.
     999903    2    3    3    0    0  0.40989408228E-01 -0.10961673878E+00  0.51646253021E-01  0.13026818508E+00  0.24627293491E-01 0.  0.
         14    1    1    2    0    0  0.26900202236E-02  0.12362650168E-01  0.20720963075E-01  0.24278172063E-01  0.00000000000E+00 0.  1.
     999901    1    3    3    0    0 -0.43679428452E-01  0.97254088611E-01 -0.72367216096E-01  0.88938364286E+00  0.88000000000E+00 0. -1.
        -11    1    4    4    0    0  0.34544720789E-02 -0.42407066128E-01  0.20368161704E-01  0.47174312577E-01  0.51100000000E-03 0.  1.
         11    1    4    4    0    0  0.37534936149E-01 -0.67209672651E-01  0.31278091317E-01  0.83093872500E-01  0.51100000000E-03 0. -1.
</event>
<event>
 8    1  0.1086486E+005  0.1043930E+01  0.7957747E-01            NaN
         13   -1    0    0    0    0  0.00000000000E+00  0.00000000000E+00  0.74505805969E-08  0.10566000000E+00  0.10566000000E+00 0. -1.
     999900   -1    0    0    0    0 -0.00000000000E+00 -0.00000000000E+00 -0.74505805969E-08  0.93827000000E+00  0.93827000000E+00 0. -1.
     999902    2    1    2    0    0 -0.68901057748E-02  0.14452193127E-01 -0.17523173188E-01  0.10201939295E+01  0.10199177676E+01 0.  0.
     999903    2    3    3    0    0 -0.80125282248E-01 -0.98483558545E-01  0.14382085574E-01  0.12938765393E+00  0.20377645705E-01 0.  0.
         14    1    1    2    0    0  0.68901057748E-02 -0.14452193127E-01  0.17523173188E-01  0.23736070491E-01  0.00000000000E+00 0. -1.
     999901    1    3    3    0    0  0.73235176473E-01  0.11293575167E+00 -0.31905258762E-01  0.89080627558E+00  0.88000000000E+00 0. -1.
        -11    1    4    4    0    0 -0.54288447191E-01 -0.55711518718E-01  0.16001097253E-02  0.77806364061E-01  0.51100000000E-03 0. -1.
         11    1    4    4    0    0 -0.25836835057E-01 -0.42772039826E-01  0.12781975849E-01  0.51581289866E-01  0.51100000000E-03 0.  1.
</event>
<event>
 8    1  0.1086486E+005  0.1043930E+01  0.7957747E-01            NaN
         13   -1    0    0    0    0  0.00000000000E+00  0.00000000000E+00  0.74505805969E-08  0.10566000000E+00  0.10566000000E+00 0.  1.
     999900   -1    0    0    0    0 -0.00000000000E+00 -0.00000000000E+00 -0.74505805969E-08  0.93827000000E+00  0.93827000000E+00 0. -1.
     999902    2    1    2    0    0  0.18600020585E-01  0.13058179604E-01 -0.68972783321E-02  0.10201802786E+01  0.10199037952E+01 0.  0.
     999903    2    3    3    0    0 -0.76430810105E-01  0.10330548479E+00  0.74946098260E-02  0.13035863276E+00  0.20579408111E-01 0.  0.
         14    1    1    2    0    0 -0.18600020585E-01 -0.13058179604E-01  0.68972783321E-02  0.23749721445E-01  0.00000000000E+00 0.  1.
     999901    1    3    3    0    0  0.95030830690E-01 -0.90247305187E-01 -0.14391888158E-01  0.88982164579E+00  0.88000000000E+00 0. -1.
        -11    1    4    4    0    0 -0.40987530342E-01  0.70212046500E-01  0.84265286051E-04  0.81301767133E-01  0.51100000000E-03 0.  1.
         11    1    4    4    0    0 -0.35443279763E-01  0.33093438291E-01  0.74103445399E-02  0.49056865630E-01  0.51100000000E-03 0. -1.
</event>
<event>
 8    1  0.1086486E+005  0.1043930E+01  0.7957747E-01            NaN
         13   -1    0    0    0    0  0.00000000000E+00  0.00000000000E+00  0.74505805969E-08  0.10566000000E+00  0.10566000000E+00 0.  1.
     999900   -1    0    0    0    0 -0.00000000000E+00 -0.00000000000E+00 -0.74505805969E-08  0.93827000000E+00  0.93827000000E+00 0.  1.
     999902    2    1    2    0    0  0.22902210171E-01 -0.18200268664E-02  0.11533275255E-01  0.10182231883E+01  0.10178986301E+01 0.  0.
     999903    2    3    3    0    0  0.11631015889E+00  0.48940144999E-01  0.32087608314E-01  0.13158678001E+00  0.19033528665E-01 0.  0.
         14    1    1    2    0    0 -0.22902210171E-01  0.18200268664E-02 -0.11533275255E-01  0.25706811678E-01  0.00000000000E+00 0. -1.
     999901    1    3    3    0    0 -0.93407948718E-01 -0.50760171866E-01 -0.20554333059E-01  0.88663640831E+00  0.88000000000E+00 0. -1.
        -11    1    4    4    0    0  0.89456255301E-01  0.32642642324E-01  0.31019453873E-01  0.10015204117E+00  0.51100000000E-03 0. -1.
         11    1    4    4    0    0  0.26853903588E-01  0.16297502675E-01  0.10681544406E-02  0.31434738846E-01  0.51100000000E-03 0.  1.
</event>
<event>
 8    1  0.1086486E+005  0.1043930E+01  0.7957747E-01            NaN
         13   -1    0    0    0    0  0.00000000000E+00  0.00000000000E+00  0.74505805969E-08  0.10566000000E+00  0.10566000000E+00 0.  1.
     999900   -1    0    0    0    0 -0.00000000000E+00 -0.00000000000E+00 -0.74505805969E-08  0.93827000000E+00  0.93827000000E+00 0. -1.
     999902    2    1    2    0    0 -0.23868889130E-01  0.17812596385E-02  0.71044410676E-02  0.10189626245E+01  0.10186566941E+01 0.  0.
     999903    2    3    3    0    0 -0.86001167442E-01 -0.29454697775E-01 -0.91499534597E-01  0.13072906908E+00  0.21310669817E-01 0.  0.
         14    1    1    2    0    0  0.23868889130E-01 -0.17812596385E-02 -0.71044410676E-02  0.24967375454E-01  0.00000000000E+00 0.  1.
     999901    1    3    3    0    0  0.62132278312E-01  0.31235957414E-01  0.98603975664E-01  0.88823355547E+00  0.88000000000E+00 0.  1.
        -11    1    4    4    0    0 -0.68700215983E-01 -0.31746451177E-01 -0.70640130506E-01  0.10352703027E+00  0.51100000000E-03 0. -1.
         11    1    4    4    0    0 -0.17300951458E-01  0.22917534020E-02 -0.20859404091E-01  0.27202038803E-01  0.51100000000E-03 0.  1.
</event>
<event>
 8    1  0.1086486E+005  0.1043930E+01  0.7957747E-01            NaN
         13   -1    0    0    0    0  0.00000000000E+00  0.00000000000E+00  0.74505805969E-08  0.10566000000E+00  0.10566000000E+00 0.  1.
     999900   -1    0    0    0    0 -0.00000000000E+00 -0.00000000000E+00 -0.74505805969E-08  0.93827000000E+00  0.93827000000E+00 0. -1.
     999902    2    1    2    0    0  0.22342228754E-01 -0.31784935129E-02 -0.56705442684E-02  0.10206612854E+01  0.10203960145E+01 0.  0.
     999903    2    3    3    0    0 -0.44550136943E-01 -0.69696647912E-01  0.97883156827E-01  0.12958181506E+00  0.19183247185E-01 0.  0.
         14    1    1    2    0    0 -0.22342228754E-01  0.31784935129E-02  0.56705442684E-02  0.23268714597E-01  0.00000000000E+00 0. -1.
     999901    1    3    3    0    0  0.66892365697E-01  0.66518154399E-01 -0.10355370110E+00  0.89107947034E+00  0.88000000000E+00 0. -1.
        -11    1    4    4    0    0 -0.32646159972E-01 -0.40643067171E-01  0.49421596221E-01  0.71835826466E-01  0.51100000000E-03 0.  1.
         11    1    4    4    0    0 -0.11903976971E-01 -0.29053580741E-01  0.48461560606E-01  0.57745988596E-01  0.51100000000E-03 0. -1.
</event>
<event>
 8    1  0.1086486E+005  0.1043930E+01  0.7957747E-01            NaN
         13   -1    0    0    0    0  0.00000000000E+00  0.00000000000E+00  0.74505805969E-08  0.10566000000E+00  0.10566000000E+00 0.  1.
     999900   -1    0    0    0    0 -0.00000000000E+00 -0.00000000000E+00 -0.74505805969E-08  0.93827000000E+00  0.93827000000E+00 0. -1.
     999902    2    1    2    0    0 -0.10842426751E-01 -0.16334020888E-01  0.84108026042E-02  0.10225969258E+01  0.10223743798E+01 0.  0.
     999903    2    3    3    0    0 -0.12527814916E+00  0.21545767819E-01 -0.34565187566E-01  0.13334029874E+00  0.20640937711E-01 0.  0.
         14    1    1    2    0    0  0.10842426751E-01  0.16334020888E-01 -0.84108026042E-02  0.21333074243E-01  0.00000000000E+00 0. -1.
     999901    1    3    3    0    0  0.11443572241E+00 -0.37879788706E-01  0.42975990171E-01  0.88925662701E+00  0.88000000000E+00 0.  1.
        -11    1    4    4    0    0 -0.14976560818E-01  0.30282525093E-02 -0.11524742949E-01  0.19145456595E-01  0.51100000000E-03 0.  1.
         11    1    4    4    0    0 -0.11030158834E+00  0.18517515310E-01 -0.23040444617E-01  0.11419484215E+00  0.51100000000E-03 0. -1.
</event>
<event>
 8    1  0.1086486E+005  0.1043930E+01  0.7957747E-01            NaN
         13   -1    0    0    0    0  0.00000000000E+00  0.00000000000E+00  0.74505805969E-08  0.10566000000E+00  0.10566000000E+00 0.  1.
     999900   -1    0    0    0    0 -0.00000000000E+00 -0.00000000000E+00 -0.74505805969E-08  0.93827000000E+00  0.93827000000E+00 0. -1.
     999902    2    1    2    0    0  0.99909177921E-02 -0.27496450104E-01  0.46391381531E-02  0.10143091491E+01  0.10138765482E+01 0.  0.
     999903    2    3    3    0    0 -0.10806073345E+00 -0.54436516002E-01 -0.26507319522E-01  0.12547167162E+00  0.20001150028E-01 0.  0.
         14    1    1    2    0    0 -0.99909177921E-02  0.27496450104E-01 -0.46391381531E-02  0.29620850924E-01  0.00000000000E+00 0.  1.
     999901    1    3    3    0    0  0.11805165124E+00  0.26940065898E-01  0.31146457675E-01  0.88883747746E+00  0.88000000000E+00 0.  1.
        -11    1    4    4    0    0 -0.67537281452E-01 -0.30517721680E-01 -0.67061161953E-02  0.74416724181E-01  0.51100000000E-03 0. -1.
         11    1    4    4    0    0 -0.40523451996E-01 -0.23918794322E-01 -0.19801203327E-01  0.51054947436E-01  0.51100000000E-03 0.  1.
</event>
<event>
 8    1  0.1086486E+005  0.1043930E+01  0.7957747E-01            NaN
         13   -1    0    0    0    0  0.00000000000E+00  0.00000000000E+00  0.74505805969E-08  0.10566000000E+00  0.10566000000E+00 0. -1.
     999900   -1    0    0    0    0 -0.00000000000E+00 -0.00000000000E+00 -0.74505805969E-08  0.93827000000E+00  0.93827000000E+00 0. -1.
     999902    2    1    2    0    0  0.22396148862E-01  0.85802908620E-02  0.18439782224E-02  0.10198757045E+01  0.10195919986E+01 0.  0.
     999903    2    3    3    0    0 -0.92538378772E-01 -0.13358543220E-02 -0.86173388978E-01  0.12799267828E+00  0.19777175543E-01 0.  0.
         14    1    1    2    0    0 -0.22396148862E-01 -0.85802908620E-02 -0.18439782224E-02  0.24054295475E-01  0.00000000000E+00 0. -1.
     999901    1    3    3    0    0  0.11493452763E+00  0.99161451839E-02  0.88017367200E-01  0.89188302625E+00  0.88000000000E+00 0.  1.
        -11    1    4    4    0    0 -0.71770649476E-01  0.17219527816E-02 -0.55146780011E-01  0.90528557451E-01  0.51100000000E-03 0. -1.
         11    1    4    4    0    0 -0.20767729296E-01 -0.30578071036E-02 -0.31026608967E-01  0.37464120827E-01  0.51100000000E-03 0.  1.
</event>
<event>
 8    1  0.1086486E+005  0.1043930E+01  0.7957747E-01            NaN
         13   -1    0    0    0    0  0.00000000000E+00  0.00000000000E+00  0.74505805969E-08  0.10566000000E+00  0.10566000000E+00 0. -1.
     999900   -1    0    0    0    0 -0.00000000000E+00 -0.00000000000E+00 -0.74505805969E-08  0.93827000000E+00  0.93827000000E+00 0. -1.
     999902    2    1    2    0    0 -0.17059383605E-01  0.44081063482E-02  0.13033349510E-01  0.10220137464E+01  0.10217787313E+01 0.  0.
     999903    2    3    3    0    0 -0.11608821393E+00 -0.56915353979E-01 -0.23400819400E-01  0.13359114166E+00  0.24148785690E-01 0.  0.
         14    1    1    2    0    0  0.17059383605E-01 -0.44081063482E-02 -0.13033349510E-01  0.21916253558E-01  0.00000000000E+00 0.  1.
     999901    1    3    3    0    0  0.99028830322E-01  0.61323460327E-01  0.36434168910E-01  0.88842260478E+00  0.88000000000E+00 0. -1.
        -11    1    4    4    0    0 -0.10904836871E+00 -0.56085441572E-01 -0.16583916526E-01  0.12374332662E+00  0.51100000000E-03 0. -1.
         11    1    4    4    0    0 -0.70398452141E-02 -0.82991240720E-03 -0.68169028731E-02  0.98478150380E-02  0.51100000000E-03 0.  1.
</event>
<event>
 8    1  0.1086486E+005  0.1043930E+01  0.7957747E-01            NaN
         13   -1    0    0    0    0  0.00000000000E+00  0.00000000000E+00  0.74505805969E-08  0.10566000000E+00  0.10566000000E+00 0. -1.
     999900   -1    0    0    0    0 -0.00000000000E+00 -0.00000000000E+00 -0.74505805969E-08  0.93827000000E+00  0.93827000000E+00 0.  1.
     999902    2    1    2    0    0  0.73620613328E-02 -0.16248930621E-01  0.15041934521E-01  0.10205957443E+01  0.10203289596E+01 0.  0.
     999903    2    3    3    0    0 -0.11469428909E+00 -0.60195420816E-01  0.37621329107E-02  0.13101366234E+00  0.19291382493E-01 0.  0.
         14    1    1    2    0    0 -0.73620613328E-02  0.16248930621E-01 -0.15041934521E-01  0.23334255667E-01  0.00000000000E+00 0.  1.
     999901    1    3    3    0    0  0.12205635042E+00  0.43946490195E-01  0.11279801610E-01  0.88958208199E+00  0.88000000000E+00 0.  1.
        -11    1    4    4    0    0 -0.66490549238E-02 -0.68406566818E-02 -0.37841347343E-02  0.10275471371E-01  0.51100000000E-03 0.  1.
         11    1    4    4    0    0 -0.10804523417E+00 -0.53354764134E-01  0.75462676449E-02  0.12073819097E+00  0.51100000000E-03 0. -1.
</event>
<event>
 8    1  0.1086486E+005  0.1043930E+01  0.7957747E-01            NaN
         13   -1    0    0    0    0  0.00000000000E+00  0.00000000000E+00  0.74505805969E-08  0.10566000000E+00  0.10566000000E+00 0. -1.
     999900   -1    0    0    0    0 -0.00000000000E+00 -0.00000000000E+00 -0.74505805969E-08  0.93827000000E+00  0.93827000000E+00 0.  1.
     999902    2    1    2    0    0  0.22559725294E-01  0.94684905679E-02 -0.16642460027E-02  0.10194072915E+01  0.10191122915E+01 0.  0.
     999903    2    3    3    0    0 -0.11301299333E+00  0.12683145917E-01  0.52024199182E-01  0.12740238947E+00  0.24332132878E-01 0.  0.
         14    1    1    2    0    0 -0.22559725294E-01 -0.94684905679E-02  0.16642460027E-02  0.24522708532E-01  0.00000000000E+00 0.  1.
     999901    1    3    3    0    0  0.13557271862E+00 -0.32146553488E-02 -0.53688445184E-01  0.89200490200E+00  0.88000000000E+00 0. -1.
        -11    1    4    4    0    0 -0.46663652154E-01 -0.36055826861E-02  0.12392607270E-01  0.48418328087E-01  0.51100000000E-03 0.  1.
         11    1    4    4    0    0 -0.66349341176E-01  0.16288728603E-01  0.39631591912E-01  0.78984061382E-01  0.51100000000E-03 0. -1.
</event>
<event>
 8    1  0.1086486E+005  0.1043930E+01  0.7957747E-01            NaN
         13   -1    0    0    0    0  0.00000000000E+00  0.00000000000E+00  0.74505805969E-08  0.10566000000E+00  0.10566000000E+00 0.  1.
     999900   -1    0    0    0    0 -0.00000000000E+00 -0.00000000000E+00 -0.74505805969E-08  0.93827000000E+00  0.93827000000E+00 0. -1.
     999902    2    1    2    0    0  0.66562303488E-02 -0.99322384880E-03  0.23121755424E-01  0.10198487320E+01  0.10195643818E+01 0.  0.
     999903    2    3    3    0    0 -0.43709004154E-01 -0.23237806652E-01 -0.11554605590E+00  0.12729047605E+00  0.20037503781E-01 0.  0.
         14    1    1    2    0    0 -0.66562303488E-02  0.99322384880E-03 -0.23121755424E-01  0.24081268031E-01  0.00000000000E+00 0. -1.
     999901    1    3    3    0    0  0.50365234502E-01  0.22244582803E-01  0.13866781132E+00  0.89255825592E+00  0.88000000000E+00 0.  1.
        -11    1    4    4    0    0 -0.22918310698E-01 -0.11661763162E-02 -0.54111745012E-01  0.58778831238E-01  0.51100000000E-03 0. -1.
         11    1    4    4    0    0 -0.20790693455E-01 -0.22071630335E-01 -0.61434310885E-01  0.68511644813E-01  0.51100000000E-03 0.  1.
</event>
<event>
 8    1  0.1086486E+005  0.1043930E+01  0.7957747E-01            NaN
         13   -1    0    0    0    0  0.00000000000E+00  0.00000000000E+00  0.74505805969E-08  0.10566000000E+00  0.10566000000E+00 0. -1.
     999900   -1    0    0    0    0 -0.00000000000E+00 -0.00000000000E+00 -0.74505805969E-08  0.93827000000E+00  0.93827000000E+00 0.  1.
     999902    2    1    2    0    0  0.47989736639E-02  0.78900356000E-02 -0.22511761824E-01  0.10195976711E+01  0.10193072886E+01 0.  0.
     999903    2    3    3    0    0  0.81833477656E-01  0.85498975329E-01 -0.55438084750E-01  0.13221860604E+00  0.20039603188E-01 0.  0.
         14    1    1    2    0    0 -0.47989736639E-02 -0.78900356000E-02  0.22511761824E-01  0.24332328915E-01  0.00000000000E+00 0. -1.
     999901    1    3    3    0    0 -0.77034503992E-01 -0.77608939729E-01  0.32926322925E-01  0.88737906504E+00  0.88000000000E+00 0.  1.
        -11    1    4    4    0    0  0.54885007300E-01  0.46142657825E-01 -0.26618306842E-01  0.76487281803E-01  0.51100000000E-03 0. -1.
         11    1    4    4    0    0  0.26948470356E-01  0.39356317504E-01 -0.28819777908E-01  0.55731324241E-01  0.51100000000E-03 0.  1.
</event>
<event>
 8    1  0.1086486E+005  0.1043930E+01  0.7957747E-01            NaN
         13   -1    0    0    0    0  0.00000000000E+00  0.00000000000E+00  0.74505805969E-08  0.10566000000E+00  0.10566000000E+00 0. -1.
     999900   -1    0    0    0    0 -0.00000000000E+00 -0.00000000000E+00 -0.74505805969E-08  0.93827000000E+00  0.93827000000E+00 0.  1.
     999902    2    1    2    0    0 -0.14627108892E-01  0.99938988043E-02 -0.15023775608E-01  0.10207019101E+01  0.10204375753E+01 0.  0.
     999903    2    3    3    0    0 -0.97703547247E-01 -0.84486145897E-01  0.12597981499E-01  0.13132508616E+00  0.20091717798E-01 0.  0.
         14    1    1    2    0    0  0.14627108892E-01 -0.99938988043E-02  0.15023775608E-01  0.23228089921E-01  0.00000000000E+00 0. -1.
     999901    1    3    3    0    0  0.83076438355E-01  0.94480044702E-01 -0.27621757107E-01  0.88937682392E+00  0.88000000000E+00 0.  1.
        -11    1    4    4    0    0 -0.84998135866E-01 -0.73951323269E-01  0.17686044486E-01  0.11404621258E+00  0.51100000000E-03 0. -1.
         11    1    4    4    0    0 -0.12705411381E-01 -0.10534822628E-01 -0.50880629866E-02  0.17278873578E-01  0.51100000000E-03 0.  1.
</event>
<event>
 8    1  0.1086486E+005  0.1043930E+01  0.7957747E-01            NaN
         13   -1    0    0    0    0  0.00000000000E+00  0.00000000000E+00  0.74505805969E-08  0.10566000000E+00  0.10566000000E+00 0.  1.
     999900   -1    0    0    0    0 -0.00000000000E+00 -0.00000000000E+00 -0.74505805969E-08  0.93827000000E+00  0.93827000000E+00 0.  1.
     999902    2    1    2    0    0  0.10939516849E-01 -0.56111769688E-02  0.18550663191E-01  0.10216749907E+01  0.10214325730E+01 0.  0.
     999903    2    3    3    0    0 -0.65004168524E-01  0.17186050253E-01  0.11303786086E+00  0.13307216181E+00  0.20242035749E-01 0.  0.
         14    1    1    2    0    0 -0.10939516849E-01  0.56111769688E-02 -0.18550663191E-01  0.22255009339E-01  0.00000000000E+00 0. -1.
     999901    1    3    3    0    0  0.75943685373E-01 -0.22797227221E-01 -0.94487197674E-01  0.88860282885E+00  0.88000000000E+00 0.  1.
        -11    1    4    4    0    0 -0.42132556969E-01  0.70541724976E-02  0.53317383178E-01  0.68322164605E-01  0.51100000000E-03 0. -1.
         11    1    4    4    0    0 -0.22871611555E-01  0.10131877755E-01  0.59720477687E-01  0.64749997206E-01  0.51100000000E-03 0.  1.
</event>
<event>
 8    1  0.1086486E+005  0.1043930E+01  0.7957747E-01            NaN
         13   -1    0    0    0    0  0.00000000000E+00  0.00000000000E+00  0.74505805969E-08  0.10566000000E+00  0.10566000000E+00 0. -1.
     999900   -1    0    0    0    0 -0.00000000000E+00 -0.00000000000E+00 -0.74505805969E-08  0.93827000000E+00  0.93827000000E+00 0. -1.
     999902    2    1    2    0    0 -0.12097340632E-01  0.10760406296E-01  0.17426544274E-01  0.10201431036E+01  0.10198657438E+01 0.  0.
     999903    2    3    3    0    0  0.96997769576E-01 -0.25959558880E-01  0.80836613330E-01  0.13038418359E+00  0.19570673883E-01 0.  0.
         14    1    1    2    0    0  0.12097340632E-01 -0.10760406296E-01 -0.17426544274E-01  0.23786896380E-01  0.00000000000E+00 0. -1.
     999901    1    3    3    0    0 -0.10909511021E+00  0.36719965176E-01 -0.63410069055E-01  0.88975892003E+00  0.88000000000E+00 0. -1.
        -11    1    4    4    0    0  0.16867258610E-01 -0.61267223067E-02  0.24781384578E-01  0.30600968642E-01  0.51100000000E-03 0.  1.
         11    1    4    4    0    0  0.80130510966E-01 -0.19832836573E-01  0.56055228752E-01  0.99783214949E-01  0.51100000000E-03 0. -1.
</event>
<event>
 8    1  0.1086486E+005  0.1043930E+01  0.7957747E-01            NaN
         13   -1    0    0    0    0  0.00000000000E+00  0.00000000000E+00  0.74505805969E-08  0.10566000000E+00  0.10566000000E+00 0.  1.
     999900   -1    0    0    0    0 -0.00000000000E+00 -0.00000000000E+00 -0.74505805969E-08  0.93827000000E+00  0.93827000000E+00 0. -1.
     999902    2    1    2    0    0  0.10587662769E-01 -0.10419742350E-01 -0.11938916037E-01  0.10248720004E+01  0.10246947886E+01 0.  0.
     999903    2    3    3    0    0 -0.68155775156E-01 -0.44431889999E-01  0.10352699685E+00  0.13319395745E+00  0.20084538516E-01 0.  0.
         14    1    1    2    0    0 -0.10587662769E-01  0.10419742350E-01  0.11938916037E-01  0.19057999624E-01  0.00000000000E+00 0.  1.
     999901    1    3    3    0    0  0.78743437925E-01  0.34012147650E-01 -0.11546591289E+00  0.89167804293E+00  0.88000000000E+00 0.  1.
        -11    1    4    4    0    0 -0.54851812389E-01 -0.41997038387E-01  0.77244971802E-01  0.10363165224E+00  0.51100000000E-03 0. -1.
         11    1    4    4    0    0 -0.13303962767E-01 -0.24348516126E-02  0.26282025048E-01  0.29562305210E-01  0.51100000000E-03 0.  1.
</event>
<event>
 8    1  0.1086486E+005  0.1043930E+01  0.7957747E-01            NaN
         13   -1    0    0    0    0  0.00000000000E+00  0.00000000000E+00  0.74505805969E-08  0.10566000000E+00  0.10566000000E+00 0.  1.
     999900   -1    0    0    0    0 -0.00000000000E+00 -0.00000000000E+00 -0.74505805969E-08  0.93827000000E+00  0.93827000000E+00 0. -1.
     999902    2    1    2    0    0 -0.83255880434E-02  0.19610871544E-01 -0.87457779272E-02  0.10208997953E+01  0.10206399961E+01 0.  0.
     999903    2    3    3    0    0 -0.47284415836E-01  0.31623894889E-01 -0.11860216556E+00  0.13313263609E+00  0.20541139410E-01 0.  0.
         14    1    1    2    0    0  0.83255880434E-02 -0.19610871544E-01  0.87457779272E-02  0.23030204744E-01  0.00000000000E+00 0.  1.
     999901    1    3    3    0    0  0.38958827792E-01 -0.12013023345E-01  0.10985638763E+00  0.88776715917E+00  0.88000000000E+00 0.  1.
        -11    1    4    4    0    0 -0.29692388076E-01  0.21091542558E-01 -0.95654471250E-01  0.10235492205E+00  0.51100000000E-03 0. -1.
         11    1    4    4    0    0 -0.17592027760E-01  0.10532352331E-01 -0.22947694307E-01  0.30777714037E-01  0.51100000000E-03 0.  1.
</event>
<event>
 8    1  0.1086486E+005  0.1043930E+01  0.7957747E-01            NaN
         13   -1    0    0    0    0  0.00000000000E+00  0.00000000000E+00  0.74505805969E-08  0.10566000000E+00  0.10566000000E+00 0.  1.
     999900   -1    0    0    0    0 -0.00000000000E+00 -0.00000000000E+00 -0.74505805969E-08  0.93827000000E+00  0.93827000000E+00 0.  1.
     999902    2    1    2    0    0  0.22789817775E-01 -0.74528902070E-02 -0.40386077362E-02  0.10196147431E+01  0.10193247729E+01 0.  0.
     999903    2    3    3    0    0  0.22685099150E-01 -0.12770286765E+00  0.25186556715E-02  0.13141258943E+00  0.20983062370E-01 0.  0.
         14    1    1    2    0    0 -0.22789817775E-01  0.74528902070E-02  0.40386077362E-02  0.24315256920E-01  0.00000000000E+00 0.  1.
     999901    1    3    3    0    0  0.10471862487E-03  0.12024997744E+00 -0.65572634077E-02  0.88820215365E+00  0.88000000000E+00 0.  1.
        -11    1    4    4    0    0  0.13648925725E-01 -0.75803895767E-01  0.11787183240E-01  0.77921258952E-01  0.51100000000E-03 0. -1.
         11    1    4    4    0    0  0.90361734252E-02 -0.51898971880E-01 -0.92685275686E-02  0.53491330481E-01  0.51100000000E-03 0.  1.
</event>
<event>
 8    1  0.1086486E+005  0.1043930E+01  0.7957747E-01            NaN
         13   -1    0    0    0    0  0.00000000000E+00  0.00000000000E+00  0.74505805969E-08  0.10566000000E+00  0.10566000000E+00 0. -1.
     999900   -1    0    0    0    0 -0.00000000000E+00 -0.00000000000E+00 -0.74505805969E-08  0.93827000000E+00  0.93827000000E+00 0. -1.
     999902    2    1    2    0    0  0.31347056028E-02  0.16216969595E-02 -0.23595938070E-01  0.10200715723E+01  0.10197925220E+01 0.  0.
     999903    2    3    3    0    0  0.26959016993E-01 -0.12017444701E+00  0.34581909301E-01  0.12946135426E+00  0.19890889468E-01 0.  0.
         14    1    1    2    0    0 -0.31347056028E-02 -0.16216969595E-02  0.23595938070E-01  0.23858427728E-01  0.00000000000E+00 0. -1.
     999901    1    3    3    0    0 -0.23824311390E-01  0.12179614397E+00 -0.58177847372E-01  0.89061021801E+00  0.88000000000E+00 0. -1.
        -11    1    4    4    0    0 -0.54814365350E-03 -0.31005553486E-01  0.40558341034E-02  0.31278678356E-01  0.51100000000E-03 0. -1.
         11    1    4    4    0    0  0.27507160646E-01 -0.89168893529E-01  0.30526075198E-01  0.98182675905E-01  0.51100000000E-03 0.  1.
</event>
<event>
 8    1  0.1086486E+005  0.1043930E+01  0.7957747E-01            NaN
         13   -1    0    0    0    0  0.00000000000E+00  0.00000000000E+00  0.74505805969E-08  0.10566000000E+00  0.10566000000E+00 0. -1.
     999900   -1    0    0    0    0 -0.00000000000E+00 -0.00000000000E+00 -0.74505805969E-08  0.93827000000E+00  0.93827000000E+00 0. -1.
     999902    2    1    2    0    0  0.20052283134E-01 -0.82812122510E-02  0.27627951393E-02  0.10220598017E+01  0.10218257840E+01 0.  0.
     999903    2    3    3    0    0 -0.29525365041E-01 -0.12729583048E+00 -0.95163791610E-02  0.13258062791E+00  0.20275250571E-01 0.  0.
         14    1    1    2    0    0 -0.20052283134E-01  0.82812122510E-02 -0.27627951393E-02  0.21870198267E-01  0.00000000000E+00 0.  1.
     999901    1    3    3    0    0  0.49577648175E-01  0.11901461823E+00  0.12279174300E-01  0.88947917383E+00  0.88000000000E+00 0.  1.
        -11    1    4    4    0    0 -0.72937634390E-02 -0.62491660386E-01 -0.11865323174E-01  0.64026975705E-01  0.51100000000E-03 0. -1.
         11    1    4    4    0    0 -0.22231601602E-01 -0.64804170093E-01  0.23489440131E-02  0.68553652202E-01  0.51100000000E-03 0.  1.
</event>
<event>
 8    1  0.1086486E+005  0.1043930E+01  0.7957747E-01            NaN
         13   -1    0    0    0    0  0.00000000000E+00  0.00000000000E+00  0.74505805969E-08  0.10566000000E+00  0.10566000000E+00 0. -1.
     999900   -1    0    0    0    0 -0.00000000000E+00 -0.00000000000E+00 -0.74505805969E-08  0.93827000000E+00  0.93827000000E+00 0.  1.
     999902    2    1    2    0    0  0.10706065190E-01 -0.61388654455E-02 -0.19884424579E-01  0.10205270976E+01  0.10202587226E+01 0.  0.
     999903    2    3    3    0    0 -0.21861706777E-01  0.90717090927E-02 -0.12930625293E+00  0.13302207908E+00  0.20360165663E-01 0.  0.
         14    1    1    2    0    0 -0.10706065190E-01  0.61388654455E-02  0.19884424579E-01  0.23402902419E-01  0.00000000000E+00 0. -1.
     999901    1    3    3    0    0  0.32567771967E-01 -0.15210574538E-01  0.10942182835E+00  0.88750501850E+00  0.88000000000E+00 0. -1.
        -11    1    4    4    0    0 -0.12087307797E-01  0.14797280586E-01 -0.94558761623E-01  0.96471151352E-01  0.51100000000E-03 0. -1.
         11    1    4    4    0    0 -0.97743989800E-02 -0.57255714934E-02 -0.34747491308E-01  0.36550927725E-01  0.51100000000E-03 0.  1.
</event>
<event>
 8    1  0.1086486E+005  0.1043930E+01  0.7957747E-01            NaN
         13   -1    0    0    0    0  0.00000000000E+00  0.00000000000E+00  0.74505805969E-08  0.10566000000E+00  0.10566000000E+00 0. -1.
     999900   -1    0    0    0    0 -0.00000000000E+00 -0.00000000000E+00 -0.74505805969E-08  0.93827000000E+00  0.93827000000E+00 0. -1.
     999902    2    1    2    0    0 -0.17621873973E-01 -0.92293863944E-02  0.52262120284E-02  0.10233624210E+01  0.10231557161E+01 0.  0.
     999903    2    3    3    0    0  0.12082845933E+00  0.45704276257E-01  0.52055301600E-02  0.13084564100E+00  0.20126767543E-01 0.  0.
         14    1    1    2    0    0  0.17621873973E-01  0.92293863944E-02 -0.52262120284E-02  0.20567579044E-01  0.00000000000E+00 0.  1.
     999901    1    3    3    0    0 -0.13845033330E+00 -0.54933662651E-01  0.20681868488E-04  0.89251677996E+00  0.88000000000E+00 0.  1.
        -11    1    4    4    0    0  0.45996093705E-01  0.10060085231E-01  0.86975601614E-02  0.47882717391E-01  0.51100000000E-03 0. -1.
         11    1    4    4    0    0  0.74832365622E-01  0.35644191026E-01 -0.34920300014E-02  0.82962923605E-01  0.51100000000E-03 0.  1.
</event>
<event>
 8    1  0.1086486E+005  0.1043930E+01  0.7957747E-01            NaN
         13   -1    0    0    0    0  0.00000000000E+00  0.00000000000E+00  0.74505805969E-08  0.10566000000E+00  0.10566000000E+00 0. -1.
     999900   -1    0    0    0    0 -0.00000000000E+00 -0.00000000000E+00 -0.74505805969E-08  0.93827000000E+00  0.93827000000E+00 0. -1.
     999902    2    1    2    0    0  0.17956446282E-01 -0.51650714038E-02 -0.15247989307E-01  0.10198133439E+01  0.10195281473E+01 0.  0.
     999903    2    3    3    0    0  0.23578268694E-01 -0.63025139407E-01 -0.11249711748E+00  0.13254969347E+00  0.19639675306E-01 0.  0.
         14    1    1    2    0    0 -0.17956446282E-01  0.51650714038E-02  0.15247989307E-01  0.24116656144E-01  0.00000000000E+00 0. -1.
     999901    1    3    3    0    0 -0.56218224117E-02  0.57860068004E-01  0.97249128177E-01  0.88726365038E+00  0.88000000000E+00 0.  1.
        -11    1    4    4    0    0  0.45503509536E-03 -0.19300719067E-01 -0.44070324507E-01  0.48116311544E-01  0.51100000000E-03 0.  1.
         11    1    4    4    0    0  0.23123233598E-01 -0.43724420340E-01 -0.68426792977E-01  0.84433381930E-01  0.51100000000E-03 0. -1.
</event>
<event>
 8    1  0.1086486E+005  0.1043930E+01  0.7957747E-01            NaN
         13   -1    0    0    0    0  0.00000000000E+00  0.00000000000E+00  0.74505805969E-08  0.10566000000E+00  0.10566000000E+00 0.  1.
     999900   -1    0    0    0    0 -0.00000000000E+00 -0.00000000000E+00 -0.74505805969E-08  0.93827000000E+00  0.93827000000E+00 0. -1.
     999902    2    1    2    0    0  0.13698684754E-01  0.14520158181E-01 -0.11750761015E-01  0.10207660335E+01  0.10205031729E+01 0.  0.
     999903    2    3    3    0    0 -0.79415226289E-01 -0.79914056776E-01  0.57545562065E-01  0.12813508977E+00  0.20348829959E-01 0.  0.
         14    1    1    2    0    0 -0.13698684754E-01 -0.14520158181E-01  0.11750761015E-01  0.23163966457E-01  0.00000000000E+00 0.  1.
     999901    1    3    3    0    0  0.93113911043E-01  0.94434214957E-01 -0.69296323080E-01  0.89263094377E+00  0.88000000000E+00 0. -1.
        -11    1    4    4    0    0 -0.52093757175E-01 -0.65080418117E-01  0.40602123266E-01  0.92725475969E-01  0.51100000000E-03 0. -1.
         11    1    4    4    0    0 -0.27321469114E-01 -0.14833638659E-01  0.16943438799E-01  0.35409613804E-01  0.51100000000E-03 0.  1.
</event>
<event>
 8    1  0.1086486E+005  0.1043930E+01  0.7957747E-01            NaN
         13   -1    0    0    0    0  0.00000000000E+00  0.00000000000E+00  0.74505805969E-08  0.10566000000E+00  0.10566000000E+00 0.  1.
     999900   -1    0    0    0    0 -0.00000000000E+00 -0.00000000000E+00 -0.74505805969E-08  0.93827000000E+00  0.93827000000E+00 0. -1.
     999902    2    1    2    0    0  0.12125074999E-02  0.11826931303E-02  0.22645153827E-01  0.10212215890E+01  0.10209690798E+01 0.  0.
     999903    2    3    3    0    0  0.24870188486E-01  0.86743839674E-01 -0.90495450813E-01  0.12954833491E+00  0.21220849753E-01 0.  0.
         14    1    1    2    0    0 -0.12125074999E-02 -0.11826931303E-02 -0.22645153827E-01  0.22708410982E-01  0.00000000000E+00 0. -1.
     999901    1    3    3    0    0 -0.23657680986E-01 -0.85561146544E-01  0.11314060464E+00  0.89167325410E+00  0.88000000000E+00 0.  1.
        -11    1    4    4    0    0  0.23790595682E-01  0.54363544893E-01 -0.49391348295E-01  0.77208509011E-01  0.51100000000E-03 0. -1.
         11    1    4    4    0    0  0.10795928042E-02  0.32380294781E-01 -0.41104102518E-01  0.52339825902E-01  0.51100000000E-03 0.  1.
</event>
<event>
 8    1  0.1086486E+005  0.1043930E+01  0.7957747E-01            NaN
         13   -1    0    0    0    0  0.00000000000E+00  0.00000000000E+00  0.74505805969E-08  0.10566000000E+00  0.10566000000E+00 0.  1.
     999900   -1    0    0    0    0 -0.00000000000E+00 -0.00000000000E+00 -0.74505805969E-08  0.93827000000E+00  0.93827000000E+00 0.  1.
     999902    2    1    2    0    0  0.88437837188E-02 -0.21984575883E-01 -0.39169908159E-02  0.10199117381E+01  0.10196288916E+01 0.  0.
     999903    2    3    3    0    0 -0.13468988717E-01 -0.50096533095E-01 -0.11934393412E+00  0.13164853320E+00  0.19932019392E-01 0.  0.
         14    1    1    2    0    0 -0.88437837188E-02  0.21984575883E-01  0.39169908159E-02  0.24018261891E-01  0.00000000000E+00 0.  1.
     999901    1    3    3    0    0  0.22312772436E-01  0.28111957212E-01  0.11542694331E+00  0.88826320491E+00  0.88000000000E+00 0. -1.
        -11    1    4    4    0    0 -0.13313364097E-01 -0.43950307407E-01 -0.11570458737E+00  0.12448569333E+00  0.51100000000E-03 0. -1.
         11    1    4    4    0    0 -0.15562461978E-03 -0.61462256877E-02 -0.36393467542E-02  0.71628398715E-02  0.51100000000E-03 0.  1.
</event>
<event>
 8    1  0.1086486E+005  0.1043930E+01  0.7957747E-01            NaN
         13   -1    0    0    0    0  0.00000000000E+00  0.00000000000E+00  0.74505805969E-08  0.10566000000E+00  0.10566000000E+00 0. -1.
     999900   -1    0    0    0    0 -0.00000000000E+00 -0.00000000000E+00 -0.74505805969E-08  0.93827000000E+00  0.93827000000E+00 0. -1.
     999902    2    1    2    0    0 -0.11743251670E-01  0.20416552775E-01 -0.78577088276E-03  0.10203639859E+01  0.10200918128E+01 0.  0.
     999903    2    3    3    0    0 -0.39037150184E-01 -0.18562396495E-01 -0.12248844586E+00  0.13071469738E+00  0.14644148392E-01 0.  0.
         14    1    1    2    0    0  0.11743251670E-01 -0.20416552775E-01  0.78577088276E-03  0.23566014149E-01  0.00000000000E+00 0. -1.
     999901    1    3    3    0    0  0.27293898514E-01  0.38978949270E-01  0.12170267498E+00  0.88964928847E+00  0.88000000000E+00 0.  1.
        -11    1    4    4    0    0 -0.58826029798E-02  0.23201425500E-02 -0.14150845235E-01  0.15507921238E-01  0.51100000000E-03 0.  1.
         11    1    4    4    0    0 -0.33154547205E-01 -0.20882539045E-01 -0.10833760063E+00  0.11520677614E+00  0.51100000000E-03 0. -1.
</event>
<event>
 8    1  0.1086486E+005  0.1043930E+01  0.7957747E-01            NaN
         13   -1    0    0    0    0  0.00000000000E+00  0.00000000000E+00  0.74505805969E-08  0.10566000000E+00  0.10566000000E+00 0.  1.
     999900   -1    0    0    0    0 -0.00000000000E+00 -0.00000000000E+00 -0.74505805969E-08  0.93827000000E+00  0.93827000000E+00 0.  1.
     999902    2    1    2    0    0  0.23368911917E-01 -0.49917456932E-02  0.12583322822E-01  0.10169232678E+01  0.10165645917E+01 0.  0.
     999903    2    3    3    0    0  0.23449020975E-01  0.11652609832E+00  0.45772520299E-01  0.12795301205E+00  0.12192682399E-01 0.  0.
         14    1    1    2    0    0 -0.23368911917E-01  0.49917456932E-02 -0.12583322822E-01  0.27006732169E-01  0.00000000000E+00 0. -1.
     999901    1    3    3    0    0 -0.80109058072E-04 -0.12151784401E+00 -0.33189197477E-01  0.88897025578E+00  0.88000000000E+00 0.  1.
        -11    1    4    4    0    0  0.16059752796E-01  0.78782609669E-01  0.24793558257E-01  0.84140340492E-01  0.51100000000E-03 0. -1.
         11    1    4    4    0    0  0.73892681789E-02  0.37743488652E-01  0.20978962042E-01  0.43812671559E-01  0.51100000000E-03 0.  1.
</event>
<event>
 8    1  0.1086486E+005  0.1043930E+01  0.7957747E-01            NaN
         13   -1    0    0    0    0  0.00000000000E+00  0.00000000000E+00  0.74505805969E-08  0.10566000000E+00  0.10566000000E+00 0.  1.
     999900   -1    0    0    0    0 -0.00000000000E+00 -0.00000000000E+00 -0.74505805969E-08  0.93827000000E+00  0.93827000000E+00 0.  1.
     999902    2    1    2    0    0 -0.22512765920E-01 -0.68739832652E-02  0.58398263046E-02  0.10196775806E+01  0.10193891252E+01 0.  0.
     999903    2    3    3    0    0 -0.91318384607E-01 -0.83426927299E-01  0.44616803676E-01  0.13283023163E+00  0.18817855866E-01 0.  0.
         14    1    1    2    0    0  0.22512765920E-01  0.68739832652E-02 -0.58398263046E-02  0.24252419397E-01  0.00000000000E+00 0. -1.
     999901    1    3    3    0    0  0.68805618687E-01  0.76552944034E-01 -0.38776977372E-01  0.88684734897E+00  0.88000000000E+00 0.  1.
        -11    1    4    4    0    0 -0.66920104536E-01 -0.64789819967E-01  0.25182704215E-01  0.96490677659E-01  0.51100000000E-03 0.  1.
         11    1    4    4    0    0 -0.24398280071E-01 -0.18637107332E-01  0.19434099461E-01  0.36339553973E-01  0.51100000000E-03 0. -1.
</event>
<event>
 8    1  0.1086486E+005  0.1043930E+01  0.7957747E-01            NaN
         13   -1    0    0    0    0  0.00000000000E+00  0.00000000000E+00  0.74505805969E-08  0.10566000000E+00  0.10566000000E+00 0.  1.
     999900   -1    0    0    0    0 -0.00000000000E+00 -0.00000000000E+00 -0.74505805969E-08  0.93827000000E+00  0.93827000000E+00 0. -1.
     999902    2    1    2    0    0 -0.17066885237E-01  0.13587123681E-01 -0.10071495334E-01  0.10199024425E+01  0.10196193744E+01 0.  0.
     999903    2    3    3    0    0  0.91875545015E-01  0.45749081770E-01  0.74943115582E-01  0.12853813497E+00  0.19274006152E-01 0.  0.
         14    1    1    2    0    0  0.17066885237E-01 -0.13587123681E-01  0.10071495334E-01  0.24027557510E-01  0.00000000000E+00 0. -1.
     999901    1    3    3    0    0 -0.10894243025E+00 -0.32161958088E-01 -0.85014610915E-01  0.89136430752E+00  0.88000000000E+00 0. -1.
        -11    1    4    4    0    0  0.39110116834E-01  0.93382939376E-02  0.31726176473E-01  0.51221249175E-01  0.51100000000E-03 0. -1.
         11    1    4    4    0    0  0.52765428181E-01  0.36410787832E-01  0.43216939109E-01  0.77316885792E-01  0.51100000000E-03 0.  1.
</event>
<event>
 7    1  0.1284044E+005  0.1043930E+01  0.7957747E-01            NaN
         13   -1    0    0    0    0  0.00000000000E+00  0.00000000000E+00  0.74505805969E-08  0.10566000000E+00  0.10566000000E+00 0.  1.
     999900   -1    0    0    0    0 -0.00000000000E+00 -0.00000000000E+00 -0.74505805969E-08  0.93827000000E+00  0.93827000000E+00 0.  1.
     999903    2    1    2    0    0  0.57485599367E-01  0.32741948516E-01 -0.21614307772E-02  0.69822690625E-01  0.22224018896E-01 0.  0.
         14    1    1    2    0    0 -0.13116644541E-01  0.84233159352E-01  0.13081837999E-02  0.85258330052E-01  0.00000000000E+00 0. -1.
     999901    1    1    2    0    0 -0.44368954825E-01 -0.11697510787E+00  0.85324697734E-03  0.88884897932E+00  0.88000000000E+00 0.  1.
        -11    1    3    3    0    0  0.31779849332E-01  0.24990065525E-01  0.78063204054E-02  0.41178416164E-01  0.51100000000E-03 0.  1.
         11    1    3    3    0    0  0.25705750034E-01  0.77518829917E-02 -0.99677511827E-02  0.28644274461E-01  0.51100000000E-03 0. -1.
</event>
<event>
 8    1  0.1086486E+005  0.1043930E+01  0.7957747E-01            NaN
         13   -1    0    0    0    0  0.00000000000E+00  0.00000000000E+00  0.74505805969E-08  0.10566000000E+00  0.10566000000E+00 0. -1.
     999900   -1    0    0    0    0 -0.00000000000E+00 -0.00000000000E+00 -0.74505805969E-08  0.93827000000E+00  0.93827000000E+00 0. -1.
     999902    2    1    2    0    0 -0.17172296358E-02  0.19984106045E-01  0.11143055366E-01  0.10209848250E+01  0.10207269624E+01 0.  0.
     999903    2    3    3    0    0 -0.68994507405E-01 -0.20731598246E-01 -0.10593177444E+00  0.12975504743E+00  0.20610441084E-01 0.  0.
         14    1    1    2    0    0  0.17172296358E-02 -0.19984106045E-01 -0.11143055366E-01  0.22945174982E-01  0.00000000000E+00 0. -1.
     999901    1    3    3    0    0  0.67277277769E-01  0.40715704291E-01  0.11707482980E+00  0.89122977758E+00  0.88000000000E+00 0.  1.
        -11    1    4    4    0    0 -0.17062082166E-01 -0.14734012588E-01 -0.28860036538E-01  0.36624699381E-01  0.51100000000E-03 0.  1.
         11    1    4    4    0    0 -0.51932425238E-01 -0.59975856579E-02 -0.77071737897E-01  0.93130348053E-01  0.51100000000E-03 0. -1.
</event>
<event>
 8    1  0.1086486E+005  0.1043930E+01  0.7957747E-01            NaN
         13   -1    0    0    0    0  0.00000000000E+00  0.00000000000E+00  0.74505805969E-08  0.10566000000E+00  0.10566000000E+00 0.  1.
     999900   -1    0    0    0    0 -0.00000000000E+00 -0.00000000000E+00 -0.74505805969E-08  0.93827000000E+00  0.93827000000E+00 0.  1.
     999902    2    1    2    0    0  0.18404396693E-01 -0.11212124589E-01 -0.99485908260E-02  0.10201937826E+01  0.10199176173E+01 0.  0.
     999903    2    3    3    0    0  0.88742530084E-01  0.40361863726E-01  0.84561622125E-01  0.13084598248E+00  0.21579770776E-01 0.  0.
         14    1    1    2    0    0 -0.18404396693E-01  0.11212124589E-01  0.99485908260E-02  0.23736217366E-01  0.00000000000E+00 0.  1.
     999901    1    3    3    0    0 -0.70338133391E-01 -0.51573988315E-01 -0.94510212951E-01  0.88934780015E+00  0.88000000000E+00 0.  1.
        -11    1    4    4    0    0  0.41582722910E-01  0.23926591893E-01  0.54255758914E-01  0.72426190985E-01  0.51100000000E-03 0.  1.
         11    1    4    4    0    0  0.47159807174E-01  0.16435271834E-01  0.30305863211E-01  0.58419791500E-01  0.51100000000E-03 0. -1.
</event>
<event>
 8    1  0.1086486E+005  0.1043930E+01  0.7957747E-01            NaN
         13   -1    0    0    0    0  0.00000000000E+00  0.00000000000E+00  0.74505805969E-08  0.10566000000E+00  0.10566000000E+00 0.  1.
     999900   -1    0    0    0    0 -0.00000000000E+00 -0.00000000000E+00 -0.74505805969E-08  0.93827000000E+00  0.93827000000E+00 0. -1.
     999902    2    1    2    0    0  0.55022254999E-02 -0.22553552574E-01  0.13332213230E-02  0.10206767271E+01  0.10204118123E+01 0.  0.
     999903    2    3    3    0    0  0.76078666960E-01 -0.15197805625E-01 -0.10430086290E+00  0.13152336532E+00  0.20019709323E-01 0.  0.
         14    1    1    2    0    0 -0.55022254999E-02  0.22553552574E-01 -0.13332213230E-02  0.23253272851E-01  0.00000000000E+00 0. -1.
     999901    1    3    3    0    0 -0.70576441460E-01 -0.73557469496E-02  0.10563408422E+00  0.88915336183E+00  0.88000000000E+00 0.  1.
        -11    1    4    4    0    0  0.25657282196E-01 -0.14781561896E-01 -0.41499185816E-01  0.50982685749E-01  0.51100000000E-03 0.  1.
         11    1    4    4    0    0  0.50421384763E-01 -0.41624372892E-03 -0.62801677084E-01  0.80540679571E-01  0.51100000000E-03 0. -1.
</event>
<event>
 7    1  0.1194674E+005  0.1043930E+01  0.7957747E-01            NaN
         13   -1    0    0    0    0  0.00000000000E+00  0.00000000000E+00  0.74505805969E-08  0.10566000000E+00  0.10566000000E+00 0. -1.
     999900   -1    0    0    0    0 -0.00000000000E+00 -0.00000000000E+00 -0.74505805969E-08  0.93827000000E+00  0.93827000000E+00 0.  1.
     999903    2    1    2    0    0  0.41154078904E-01  0.60024954500E-01  0.78418989389E-01  0.10909743080E+00  0.21355517704E-01 0.  0.
         14    1    1    2    0    0 -0.40900230240E-01 -0.21641263182E-01  0.15974244394E-01  0.48952523835E-01  0.00000000000E+00 0.  1.
     999901    1    1    2    0    0 -0.25384866355E-03 -0.38383691318E-01 -0.94393233783E-01  0.88588004537E+00  0.88000000000E+00 0.  1.
        -11    1    3    3    0    0  0.20154691457E-02  0.18335209079E-01  0.22720006338E-01  0.29269469022E-01  0.51100000000E-03 0. -1.
         11    1    3    3    0    0  0.39138609758E-01  0.41689745422E-01  0.55698983051E-01  0.79827961774E-01  0.51100000000E-03 0.  1.
</event>
<event>
 8    1  0.1086486E+005  0.1043930E+01  0.7957747E-01            NaN
         13   -1    0    0    0    0  0.00000000000E+00  0.00000000000E+00  0.74505805969E-08  0.10566000000E+00  0.10566000000E+00 0.  1.
     999900   -1    0    0    0    0 -0.00000000000E+00 -0.00000000000E+00 -0.74505805969E-08  0.93827000000E+00  0.93827000000E+00 0.  1.
     999902    2    1    2    0    0  0.50205764307E-03  0.11385695397E-01  0.20646218268E-01  0.10203471153E+01  0.10200745479E+01 0.  0.
     999903    2    3    3    0    0 -0.72290987428E-01 -0.89841580496E-01 -0.53455009188E-01  0.12847448948E+00  0.18728587517E-01 0.  0.
         14    1    1    2    0    0 -0.50205764307E-03 -0.11385695397E-01 -0.20646218268E-01  0.23582884690E-01  0.00000000000E+00 0.  1.
     999901    1    3    3    0    0  0.72793045071E-01  0.10122727589E+00  0.74101227456E-01  0.89187262583E+00  0.88000000000E+00 0. -1.
        -11    1    4    4    0    0 -0.37520451624E-01 -0.32075461702E-01 -0.24164521876E-01  0.54961848331E-01  0.51100000000E-03 0. -1.
         11    1    4    4    0    0 -0.34770535804E-01 -0.57766118794E-01 -0.29290487312E-01  0.73512641148E-01  0.51100000000E-03 0.  1.
</event>
<event>
 8    1  0.1086486E+005  0.1043930E+01  0.7957747E-01            NaN
         13   -1    0    0    0    0  0.00000000000E+00  0.00000000000E+00  0.74505805969E-08  0.10566000000E+00  0.10566000000E+00 0.  1.
     999900   -1    0    0    0    0 -0.00000000000E+00 -0.00000000000E+00 -0.74505805969E-08  0.93827000000E+00  0.93827000000E+00 0.  1.
     999902    2    1    2    0    0 -0.20854414021E-01 -0.10219938020E-01  0.30197686353E-02  0.10205105056E+01  0.10202417455E+01 0.  0.
     999903    2    3    3    0    0 -0.11629924382E+00 -0.59536436635E-01  0.21379115442E-01  0.13378681794E+00  0.19280681467E-01 0.  0.
         14    1    1    2    0    0  0.20854414021E-01  0.10219938020E-01 -0.30197686353E-02  0.23419494441E-01  0.00000000000E+00 0.  1.
     999901    1    3    3    0    0  0.95444829795E-01  0.49316498615E-01 -0.18359346807E-01  0.88672368762E+00  0.88000000000E+00 0.  1.
        -11    1    4    4    0    0 -0.51500699048E-01 -0.31518722367E-01  0.18409309063E-01  0.63126188252E-01  0.51100000000E-03 0. -1.
         11    1    4    4    0    0 -0.64798544767E-01 -0.28017714269E-01  0.29698063795E-02  0.70660629687E-01  0.51100000000E-03 0.  1.
</event>
<event>
 8    1  0.1086486E+005  0.1043930E+01  0.7957747E-01            NaN
         13   -1    0    0    0    0  0.00000000000E+00  0.00000000000E+00  0.74505805969E-08  0.10566000000E+00  0.10566000000E+00 0.  1.
     999900   -1    0    0    0    0 -0.00000000000E+00 -0.00000000000E+00 -0.74505805969E-08  0.93827000000E+00  0.93827000000E+00 0.  1.
     999902    2    1    2    0    0 -0.52981314369E-06 -0.17490761161E-02 -0.22383689996E-01  0.10214780770E+01  0.10212313024E+01 0.  0.
     999903    2    3    3    0    0  0.73358814397E-01 -0.75212137442E-01  0.74073162908E-01  0.13014068903E+00  0.20282608554E-01 0.  0.
         14    1    1    2    0    0  0.52981314367E-06  0.17490761161E-02  0.22383689996E-01  0.22451922977E-01  0.00000000000E+00 0.  1.
     999901    1    3    3    0    0 -0.73359344210E-01  0.73463061326E-01 -0.96456852903E-01  0.89133738799E+00  0.88000000000E+00 0.  1.
        -11    1    4    4    0    0  0.18559662344E-01 -0.10474383323E-01  0.85798111669E-02  0.22979296181E-01  0.51100000000E-03 0.  1.
         11    1    4    4    0    0  0.54799152053E-01 -0.64737754119E-01  0.65493351741E-01  0.10716139285E+00  0.51100000000E-03 0. -1.
</event>
<event>
 8    1  0.1086486E+005  0.1043930E+01  0.7957747E-01            NaN
         13   -1    0    0    0    0  0.00000000000E+00  0.00000000000E+00  0.74505805969E-08  0.10566000000E+00  0.10566000000E+00 0. -1.
     999900   -1    0    0    0    0 -0.00000000000E+00 -0.00000000000E+00 -0.74505805969E-08  0.93827000000E+00  0.93827000000E+00 0. -1.
     999902    2    1    2    0    0  0.15070514612E-01 -0.55730708516E-02 -0.16477920006E-01  0.10209147577E+01  0.10206552999E+01 0.  0.
     999903    2    3    3    0    0 -0.34341060854E-01  0.67819634320E-01  0.10182662447E+00  0.12860093501E+00  0.19766835226E-01 0.  0.
         14    1    1    2    0    0 -0.15070514612E-01  0.55730708516E-02  0.16477920006E-01  0.23015242278E-01  0.00000000000E+00 0. -1.
     999901    1    3    3    0    0  0.49411575467E-01 -0.73392705171E-01 -0.11830454447E+00  0.89231382271E+00  0.88000000000E+00 0. -1.
        -11    1    4    4    0    0 -0.94023665142E-02  0.37630280485E-01  0.42777163351E-01  0.57745903152E-01  0.51100000000E-03 0. -1.
         11    1    4    4    0    0 -0.24938694340E-01  0.30189353835E-01  0.59049461116E-01  0.70855031857E-01  0.51100000000E-03 0.  1.
</event>
<event>
 8    1  0.1086486E+005  0.1043930E+01  0.7957747E-01            NaN
         13   -1    0    0    0    0  0.00000000000E+00  0.00000000000E+00  0.74505805969E-08  0.10566000000E+00  0.10566000000E+00 0. -1.
     999900   -1    0    0    0    0 -0.00000000000E+00 -0.00000000000E+00 -0.74505805969E-08  0.93827000000E+00  0.93827000000E+00 0. -1.
     999902    2    1    2    0    0 -0.11924915988E-01 -0.17560119461E-01 -0.84575365852E-03  0.10226867254E+01  0.10224660687E+01 0.  0.
     999903    2    3    3    0    0 -0.11381002770E+00  0.58970600491E-01 -0.26216403716E-01  0.13314684603E+00  0.24708878107E-01 0.  0.
         14    1    1    2    0    0  0.11924915988E-01  0.17560119461E-01  0.84575365852E-03  0.21243274607E-01  0.00000000000E+00 0.  1.
     999901    1    3    3    0    0  0.10188511171E+00 -0.76530719951E-01  0.25370650057E-01  0.88953987936E+00  0.88000000000E+00 0. -1.
        -11    1    4    4    0    0 -0.84326758428E-01  0.30858570925E-01 -0.18416076052E-01  0.91666060048E-01  0.51100000000E-03 0. -1.
         11    1    4    4    0    0 -0.29483269274E-01  0.28112029566E-01 -0.78003276636E-02  0.41480785986E-01  0.51100000000E-03 0.  1.
</event>
<event>
 8    1  0.1086486E+005  0.1043930E+01  0.7957747E-01            NaN
         13   -1    0    0    0    0  0.00000000000E+00  0.00000000000E+00  0.74505805969E-08  0.10566000000E+00  0.10566000000E+00 0. -1.
     999900   -1    0    0    0    0 -0.00000000000E+00 -0.00000000000E+00 -0.74505805969E-08  0.93827000000E+00  0.93827000000E+00 0.  1.
     999902    2    1    2    0    0  0.43622574613E-02 -0.36205069111E-02 -0.23498872601E-01  0.10197569908E+01  0.10194704439E+01 0.  0.
     999903    2    3    3    0    0 -0.95439661336E-03 -0.98896038289E-01  0.79803342285E-01  0.12859087761E+00  0.19639325414E-01 0.  0.
         14    1    1    2    0    0 -0.43622574613E-02  0.36205069111E-02  0.23498872601E-01  0.24173009203E-01  0.00000000000E+00 0. -1.
     999901    1    3    3    0    0  0.53166540746E-02  0.95275531378E-01 -0.10330221489E+00  0.89116611319E+00  0.88000000000E+00 0. -1.
        -11    1    4    4    0    0 -0.19837858664E-02 -0.62614202990E-01  0.62074340565E-01  0.88192736095E-01  0.51100000000E-03 0.  1.
         11    1    4    4    0    0  0.10293892530E-02 -0.36281835300E-01  0.17729001720E-01  0.40398141516E-01  0.51100000000E-03 0. -1.
</event>
<event>
 8    1  0.1086486E+005  0.1043930E+01  0.7957747E-01            NaN
         13   -1    0    0    0    0  0.00000000000E+00  0.00000000000E+00  0.74505805969E-08  0.10566000000E+00  0.10566000000E+00 0. -1.
     999900   -1    0    0    0    0 -0.00000000000E+00 -0.00000000000E+00 -0.74505805969E-08  0.93827000000E+00  0.93827000000E+00 0.  1.
     999902    2    1    2    0    0  0.34624887234E-03  0.21235884106E-01  0.10151262083E-01  0.10203900173E+01  0.10201184523E+01 0.  0.
     999903    2    3    3    0    0  0.92524803448E-01  0.77996181144E-01 -0.48229699482E-01  0.13183672466E+00  0.20262638807E-01 0.  0.
         14    1    1    2    0    0 -0.34624887234E-03 -0.21235884106E-01 -0.10151262083E-01  0.23539982666E-01  0.00000000000E+00 0. -1.
     999901    1    3    3    0    0 -0.92178554576E-01 -0.56760297038E-01  0.58380961566E-01  0.88855329267E+00  0.88000000000E+00 0. -1.
        -11    1    4    4    0    0  0.27504813030E-01  0.35931074354E-01 -0.18218338737E-01  0.48782433635E-01  0.51100000000E-03 0. -1.
         11    1    4    4    0    0  0.65019990418E-01  0.42065106790E-01 -0.30011360745E-01  0.83054291027E-01  0.51100000000E-03 0.  1.
</event>
<event>
 8    1  0.1086486E+005  0.1043930E+01  0.7957747E-01            NaN
         13   -1    0    0    0    0  0.00000000000E+00  0.00000000000E+00  0.74505805969E-08  0.10566000000E+00  0.10566000000E+00 0.  1.
     999900   -1    0    0    0    0 -0.00000000000E+00 -0.00000000000E+00 -0.74505805969E-08  0.93827000000E+00  0.93827000000E+00 0.  1.
     999902    2    1    2    0    0  0.22719944153E-02  0.21047298841E-01  0.10607498671E-01  0.10202515335E+01  0.10199767261E+01 0.  0.
     999903    2    3    3    0    0 -0.45122070619E-01 -0.10397747288E+00  0.58117883820E-01  0.12888481457E+00  0.19654284082E-01 0.  0.
         14    1    1    2    0    0 -0.22719944153E-02 -0.21047298841E-01 -0.10607498671E-01  0.23678466487E-01  0.00000000000E+00 0. -1.
     999901    1    3    3    0    0  0.47394065034E-01  0.12502477172E+00 -0.47510385148E-01  0.89136671894E+00  0.88000000000E+00 0.  1.
        -11    1    4    4    0    0 -0.54391893899E-02 -0.34647277669E-01  0.19914692323E-01  0.40334535108E-01  0.51100000000E-03 0.  1.
         11    1    4    4    0    0 -0.39682881229E-01 -0.69330195213E-01  0.38203191497E-01  0.88550279460E-01  0.51100000000E-03 0. -1.
</event>
<event>
 8    1  0.1086486E+005  0.1043930E+01  0.7957747E-01            NaN
         13   -1    0    0    0    0  0.00000000000E+00  0.00000000000E+00  0.74505805969E-08  0.10566000000E+00  0.10566000000E+00 0.  1.
     999900   -1    0    0    0    0 -0.00000000000E+00 -0.00000000000E+00 -0.74505805969E-08  0.93827000000E+00  0.93827000000E+00 0.  1.
     999902    2    1    2    0    0  0.20231748661E-01  0.88314079414E-02  0.85869225475E-02  0.10202434498E+01  0.10199684526E+01 0.  0.
     999903    2    3    3    0    0 -0.14592200363E-01  0.12202876955E+00  0.42308772666E-01  0.13166958499E+00  0.21045057771E-01 0.  0.
         14    1    1    2    0    0 -0.20231748661E-01 -0.88314079414E-02 -0.85869225475E-02  0.23686550169E-01  0.00000000000E+00 0.  1.
     999901    1    3    3    0    0  0.34823949024E-01 -0.11319736161E+00 -0.33721850118E-01  0.88857386484E+00  0.88000000000E+00 0.  1.
        -11    1    4    4    0    0 -0.47896722137E-02  0.41456145555E-01  0.25085968430E-01  0.48694146437E-01  0.51100000000E-03 0. -1.
         11    1    4    4    0    0 -0.98025281496E-02  0.80572624000E-01  0.17222804236E-01  0.82975438553E-01  0.51100000000E-03 0.  1.
</event>
<event>
 8    1  0.1086486E+005  0.1043930E+01  0.7957747E-01            NaN
         13   -1    0    0    0    0  0.00000000000E+00  0.00000000000E+00  0.74505805969E-08  0.10566000000E+00  0.10566000000E+00 0.  1.
     999900   -1    0    0    0    0 -0.00000000000E+00 -0.00000000000E+00 -0.74505805969E-08  0.93827000000E+00  0.93827000000E+00 0. -1.
     999902    2    1    2    0    0 -0.43757985809E-02 -0.19153488909E-01  0.12909690766E-01  0.10204211960E+01  0.10201503582E+01 0.  0.
     999903    2    3    3    0    0  0.92552716646E-01 -0.49908034900E-01  0.77467162776E-01  0.13221590082E+00  0.20568563758E-01 0.  0.
         14    1    1    2    0    0  0.43757985809E-02  0.19153488909E-01 -0.12909690766E-01  0.23508804016E-01  0.00000000000E+00 0. -1.
     999901    1    3    3    0    0 -0.96928515227E-01  0.30754545991E-01 -0.64557472011E-01  0.88820529516E+00  0.88000000000E+00 0. -1.
        -11    1    4    4    0    0  0.43770336611E-01 -0.18961456765E-01  0.23582381881E-01  0.53214368979E-01  0.51100000000E-03 0.  1.
         11    1    4    4    0    0  0.48782380036E-01 -0.30946578136E-01  0.53884780895E-01  0.79001531842E-01  0.51100000000E-03 0. -1.
</event>
<event>
 8    1  0.1086486E+005  0.1043930E+01  0.7957747E-01            NaN
         13   -1    0    0    0    0  0.00000000000E+00  0.00000000000E+00  0.74505805969E-08  0.10566000000E+00  0.10566000000E+00 0. -1.
     999900   -1    0    0    0    0 -0.00000000000E+00 -0.00000000000E+00 -0.74505805969E-08  0.93827000000E+00  0.93827000000E+00 0. -1.
     999902    2    1    2    0    0 -0.50761949257E-02 -0.21814240760E-01  0.57482570619E-02  0.10208070392E+01  0.10205451191E+01 0.  0.
     999903    2    3    3    0    0  0.10689079812E-01 -0.12675366034E+00  0.37039545516E-01  0.13387977593E+00  0.19264465598E-01 0.  0.
         14    1    1    2    0    0  0.50761949257E-02  0.21814240760E-01 -0.57482570619E-02  0.23122960756E-01  0.00000000000E+00 0.  1.
     999901    1    3    3    0    0 -0.15765274738E-01  0.10493941958E+00 -0.31291288454E-01  0.88692726331E+00  0.88000000000E+00 0.  1.
        -11    1    4    4    0    0  0.31040363088E-03 -0.66319668965E-01  0.27602617393E-01  0.71837040933E-01  0.51100000000E-03 0. -1.
         11    1    4    4    0    0  0.10378676181E-01 -0.60433991377E-01  0.94369281230E-02  0.62042735001E-01  0.51100000000E-03 0.  1.
</event>
<event>
 8    1  0.1086486E+005  0.1043930E+01  0.7957747E-01            NaN
         13   -1    0    0    0    0  0.00000000000E+00  0.00000000000E+00  0.74505805969E-08  0.10566000000E+00  0.10566000000E+00 0. -1.
     999900   -1    0    0    0    0 -0.00000000000E+00 -0.00000000000E+00 -0.74505805969E-08  0.93827000000E+00  0.93827000000E+00 0.  1.
     999902    2    1    2    0    0  0.14536530984E-02 -0.64240150147E-02  0.21907914835E-01  0.10210534223E+01  0.10207971166E+01 0.  0.
     999903    2    3    3    0    0  0.84072157380E-01 -0.93559059649E-01 -0.32006709966E-01  0.13126405392E+00  0.19606047048E-01 0.  0.
         14    1    1    2    0    0 -0.14536530984E-02  0.64240150147E-02 -0.21907914835E-01  0.22876577730E-01  0.00000000000E+00 0.  1.
     999901    1    3    3    0    0 -0.82618504281E-01  0.87135044634E-01  0.53914624801E-01  0.88978936835E+00  0.88000000000E+00 0. -1.
        -11    1    4    4    0    0  0.27285576117E-01 -0.42945634876E-01 -0.17603808785E-01  0.53842227142E-01  0.51100000000E-03 0.  1.
         11    1    4    4    0    0  0.56786581263E-01 -0.50613424773E-01 -0.14402901181E-01  0.77421826782E-01  0.51100000000E-03 0. -1.
</event>
<event>
 8    1  0.1086486E+005  0.1043930E+01  0.7957747E-01            NaN
         13   -1    0    0    0    0  0.00000000000E+00  0.00000000000E+00  0.74505805969E-08  0.10566000000E+00  0.10566000000E+00 0. -1.
     999900   -1    0    0    0    0 -0.00000000000E+00 -0.00000000000E+00 -0.74505805969E-08  0.93827000000E+00  0.93827000000E+00 0. -1.
     999902    2    1    2    0    0  0.17780306863E-01  0.15564919573E-01  0.27802505765E-02  0.10201363911E+01  0.10198588728E+01 0.  0.
     999903    2    3    3    0    0  0.54170043067E-01 -0.88151737298E-01  0.77681264708E-01  0.13014115526E+00  0.14043470065E-01 0.  0.
         14    1    1    2    0    0 -0.17780306863E-01 -0.15564919573E-01 -0.27802505765E-02  0.23793608947E-01  0.00000000000E+00 0. -1.
     999901    1    3    3    0    0 -0.36389736204E-01  0.10371665687E+00 -0.74901014132E-01  0.88999523579E+00  0.88000000000E+00 0. -1.
        -11    1    4    4    0    0  0.20024054502E-01 -0.21040688885E-01  0.19610331584E-01  0.35049958249E-01  0.51100000000E-03 0.  1.
         11    1    4    4    0    0  0.34145988565E-01 -0.67111048414E-01  0.58070933124E-01  0.95091197012E-01  0.51100000000E-03 0. -1.
</event>
<event>
 8    1  0.1086486E+005  0.1043930E+01  0.7957747E-01            NaN
         13   -1    0    0    0    0  0.00000000000E+00  0.00000000000E+00  0.74505805969E-08  0.10566000000E+00  0.10566000000E+00 0.  1.
     999900   -1    0    0    0    0 -0.00000000000E+00 -0.00000000000E+00 -0.74505805969E-08  0.93827000000E+00  0.93827000000E+00 0. -1.
     999902    2    1    2    0    0  0.64966703617E-02  0.22537103712E-01 -0.12809549035E-02  0.10204402445E+01  0.10201698505E+01 0.  0.
     999903    2    3    3    0    0  0.12445510488E+00 -0.60763039192E-03 -0.37740954053E-01  0.13151999915E+00  0.19587961065E-01 0.  0.
         14    1    1    2    0    0 -0.64966703617E-02 -0.22537103712E-01  0.12809549035E-02  0.23489755533E-01  0.00000000000E+00 0. -1.
     999901    1    3    3    0    0 -0.11795843452E+00  0.23144734104E-01  0.36459999150E-01  0.88892024531E+00  0.88000000000E+00 0.  1.
        -11    1    4    4    0    0  0.75471398471E-01 -0.57021443663E-02 -0.14514390156E-01  0.77067341203E-01  0.51100000000E-03 0.  1.
         11    1    4    4    0    0  0.48983706411E-01  0.50945139743E-02 -0.23226563898E-01  0.54452657950E-01  0.51100000000E-03 0. -1.
</event>
<event>
 8    1  0.1086486E+005  0.1043930E+01  0.7957747E-01            NaN
         13   -1    0    0    0    0  0.00000000000E+00  0.00000000000E+00  0.74505805969E-08  0.10566000000E+00  0.10566000000E+00 0.  1.
     999900   -1    0    0    0    0 -0.00000000000E+00 -0.00000000000E+00 -0.74505805969E-08  0.93827000000E+00  0.93827000000E+00 0. -1.
     999902    2    1    2    0    0  0.20420369348E-01  0.58367106072E-02  0.13089566598E-01  0.10189821458E+01  0.10186766995E+01 0.  0.
     999903    2    3    3    0    0  0.20090365862E-01  0.29198675404E-01  0.12511449126E+00  0.13157272843E+00  0.20038999437E-01 0.  0.
         14    1    1    2    0    0 -0.20420369348E-01 -0.58367106072E-02 -0.13089566598E-01  0.24947854191E-01  0.00000000000E+00 0. -1.
     999901    1    3    3    0    0  0.33000348687E-03 -0.23361964797E-01 -0.11202492466E+00  0.88740941738E+00  0.88000000000E+00 0. -1.
        -11    1    4    4    0    0  0.21610514735E-01  0.18121015934E-01  0.72786739177E-01  0.78061232931E-01  0.51100000000E-03 0. -1.
         11    1    4    4    0    0 -0.15201488739E-02  0.11077659470E-01  0.52327752082E-01  0.53511495502E-01  0.51100000000E-03 0.  1.
</event>
<event>
 7    1  0.1086486E+005  0.1043930E+01  0.7957747E-01            NaN
         13   -1    0    0    0    0  0.00000000000E+00  0.00000000000E+00  0.74505805969E-08  0.10566000000E+00  0.10566000000E+00 0. -1.
     999900   -1    0    0    0    0 -0.00000000000E+00 -0.00000000000E+00 -0.74505805969E-08  0.93827000000E+00  0.93827000000E+00 0.  1.
     999903    2    1    2    0    0 -0.80427863941E-02  0.44094964825E-01  0.11051366381E+00  0.12101739399E+00  0.20564226761E-01 0.  0.
         14    1    1    2    0    0  0.13882903733E-01 -0.22611745943E-01 -0.28310942655E-01  0.38801231226E-01  0.00000000000E+00 0.  1.
     999901    1    1    2    0    0 -0.58401173389E-02 -0.21483218882E-01 -0.82202721156E-01  0.88411137479E+00  0.88000000000E+00 0.  1.
        -11    1    3    3    0    0 -0.70027058301E-02  0.42155667021E-02  0.30896380571E-01  0.31963359413E-01  0.51100000000E-03 0.  1.
         11    1    3    3    0    0 -0.10400805640E-02  0.39879398123E-01  0.79617283240E-01  0.89054034573E-01  0.51100000000E-03 0. -1.
</event>
<event>
 8    1  0.1086486E+005  0.1043930E+01  0.7957747E-01            NaN
         13   -1    0    0    0    0  0.00000000000E+00  0.00000000000E+00  0.74505805969E-08  0.10566000000E+00  0.10566000000E+00 0. -1.
     999900   -1    0    0    0    0 -0.00000000000E+00 -0.00000000000E+00 -0.74505805969E-08  0.93827000000E+00  0.93827000000E+00 0.  1.
     999902    2    1    2    0    0 -0.25622134484E-02 -0.23435501141E-01 -0.55893431921E-02  0.10197013308E+01  0.10194134469E+01 0.  0.
     999903    2    3    3    0    0 -0.89178760290E-01 -0.72942603493E-01  0.60496680496E-01  0.13160181959E+00  0.19639650644E-01 0.  0.
         14    1    1    2    0    0  0.25622134484E-02  0.23435501141E-01  0.55893431921E-02  0.24228669150E-01  0.00000000000E+00 0.  1.
     999901    1    3    3    0    0  0.86616546842E-01  0.49507102352E-01 -0.66086023688E-01  0.88809951126E+00  0.88000000000E+00 0.  1.
        -11    1    4    4    0    0 -0.72053498855E-02 -0.12261992579E-01  0.12240752192E-01  0.18771538674E-01  0.51100000000E-03 0.  1.
         11    1    4    4    0    0 -0.81973410405E-01 -0.60680610915E-01  0.48255928304E-01  0.11283028092E+00  0.51100000000E-03 0. -1.
</event>
<event>
 8    1  0.1324238E+005  0.1043930E+01  0.7957747E-01            NaN
         13   -1    0    0    0    0  0.00000000000E+00  0.00000000000E+00  0.74505805969E-08  0.10566000000E+00  0.10566000000E+00 0.  1.
     999900   -1    0    0    0    0 -0.00000000000E+00 -0.00000000000E+00 -0.74505805969E-08  0.93827000000E+00  0.93827000000E+00 0. -1.
     999902    2    1    2    0    0  0.19763538578E-01 -0.22110248979E-02  0.13537266724E-01  0.10198729079E+01  0.10195891352E+01 0.  0.
     999903    2    3    3    0    0  0.10528087048E+00  0.52826078809E-01 -0.54821655955E-01  0.13138248078E+00  0.19526546119E-01 0.  0.
         14    1    1    2    0    0 -0.19763538578E-01  0.22110248979E-02 -0.13537266724E-01  0.24057092064E-01  0.00000000000E+00 0. -1.
     999901    1    3    3    0    0 -0.85517331900E-01 -0.55037103707E-01  0.68358922678E-01  0.88849042716E+00  0.88000000000E+00 0. -1.
        -11    1    4    4    0    0  0.68498219819E-01  0.23963977404E-01 -0.35529739411E-01  0.80801620250E-01  0.51100000000E-03 0.  1.
         11    1    4    4    0    0  0.36782650658E-01  0.28862101406E-01 -0.19291916544E-01  0.50580860530E-01  0.51100000000E-03 0. -1.
</event>
<event>
 8    1  0.1086486E+005  0.1043930E+01  0.7957747E-01            NaN
         13   -1    0    0    0    0  0.00000000000E+00  0.00000000000E+00  0.74505805969E-08  0.10566000000E+00  0.10566000000E+00 0. -1.
     999900   -1    0    0    0    0 -0.00000000000E+00 -0.00000000000E+00 -0.74505805969E-08  0.93827000000E+00  0.93827000000E+00 0.  1.
     999902    2    1    2    0    0 -0.15179020673E-01 -0.18198213300E-02 -0.17864077670E-01  0.10204174568E+01  0.10201465318E+01 0.  0.
     999903    2    3    3    0    0  0.22784626054E-01  0.52748952333E-01  0.11296913892E+00  0.12826482403E+00  0.19703999083E-01 0.  0.
         14    1    1    2    0    0  0.15179020673E-01  0.18198213300E-02  0.17864077670E-01  0.23512543233E-01  0.00000000000E+00 0. -1.
     999901    1    3    3    0    0 -0.37963646727E-01 -0.54568773663E-01 -0.13083321659E+00  0.89215263273E+00  0.88000000000E+00 0.  1.
        -11    1    4    4    0    0  0.20691303130E-01  0.30599108514E-01  0.55835595130E-01  0.66950058040E-01  0.51100000000E-03 0. -1.
         11    1    4    4    0    0  0.20933229243E-02  0.22149843819E-01  0.57133543787E-01  0.61314765993E-01  0.51100000000E-03 0.  1.
</event>
<event>
 8    1  0.1086486E+005  0.1043930E+01  0.7957747E-01            NaN
         13   -1    0    0    0    0  0.00000000000E+00  0.00000000000E+00  0.74505805969E-08  0.10566000000E+00  0.10566000000E+00 0. -1.
     999900   -1    0    0    0    0 -0.00000000000E+00 -0.00000000000E+00 -0.74505805969E-08  0.93827000000E+00  0.93827000000E+00 0. -1.
     999902    2    1    2    0    0  0.58301107728E-02  0.51988850801E-02 -0.22203311874E-01  0.10203926753E+01  0.10201211722E+01 0.  0.
     999903    2    3    3    0    0  0.11174613107E+00 -0.61336420378E-01  0.16653006610E-01  0.13069892811E+00  0.23569745565E-01 0.  0.
         14    1    1    2    0    0 -0.58301107728E-02 -0.51988850801E-02  0.22203311874E-01  0.23537324739E-01  0.00000000000E+00 0. -1.
     999901    1    3    3    0    0 -0.10591602030E+00  0.66535305458E-01 -0.38856318484E-01  0.88969374715E+00  0.88000000000E+00 0.  1.
        -11    1    4    4    0    0  0.36342906228E-01 -0.94728739845E-02  0.10362828973E-01  0.38963977209E-01  0.51100000000E-03 0.  1.
         11    1    4    4    0    0  0.75403224845E-01 -0.51863546393E-01  0.62901776370E-02  0.91734950903E-01  0.51100000000E-03 0. -1.
</event>
<event>
 8    1  0.1086486E+005  0.1043930E+01  0.7957747E-01            NaN
         13   -1    0    0    0    0  0.00000000000E+00  0.00000000000E+00  0.74505805969E-08  0.10566000000E+00  0.10566000000E+00 0.  1.
     999900   -1    0    0    0    0 -0.00000000000E+00 -0.00000000000E+00 -0.74505805969E-08  0.93827000000E+00  0.93827000000E+00 0.  1.
     999902    2    1    2    0    0  0.15800102253E-01  0.15377701964E-01 -0.71129626333E-02  0.10207629720E+01  0.10205000411E+01 0.  0.
     999903    2    3    3    0    0 -0.38774248318E-01 -0.11293697651E+00  0.42656587545E-01  0.12839532099E+00  0.20188387610E-01 0.  0.
         14    1    1    2    0    0 -0.15800102253E-01 -0.15377701964E-01  0.71129626333E-02  0.23167027999E-01  0.00000000000E+00 0.  1.
     999901    1    3    3    0    0  0.54574350571E-01  0.12831467847E+00 -0.49769550178E-01  0.89236765101E+00  0.88000000000E+00 0.  1.
        -11    1    4    4    0    0 -0.39309603183E-01 -0.99865403057E-01  0.33547431090E-01  0.11244569749E+00  0.51100000000E-03 0. -1.
         11    1    4    4    0    0  0.53535486514E-03 -0.13071573453E-01  0.91091564546E-02  0.15949623497E-01  0.51100000000E-03 0.  1.
</event>
<event>
 8    1  0.1086486E+005  0.1043930E+01  0.7957747E-01            NaN
         13   -1    0    0    0    0  0.00000000000E+00  0.00000000000E+00  0.74505805969E-08  0.10566000000E+00  0.10566000000E+00 0.  1.
     999900   -1    0    0    0    0 -0.00000000000E+00 -0.00000000000E+00 -0.74505805969E-08  0.93827000000E+00  0.93827000000E+00 0.  1.
     999902    2    1    2    0    0  0.14899102658E-01 -0.16771322702E-01  0.82647353160E-02  0.10200225456E+01  0.10197423337E+01 0.  0.
     999903    2    3    3    0    0  0.12832054948E+00  0.14094483805E-01  0.20154462863E-01  0.13212700659E+00  0.19660254380E-01 0.  0.
         14    1    1    2    0    0 -0.14899102658E-01  0.16771322702E-01 -0.82647353160E-02  0.23907454382E-01  0.00000000000E+00 0. -1.
     999901    1    3    3    0    0 -0.11342144683E+00 -0.30865806507E-01 -0.11889727547E-01  0.88789553903E+00  0.88000000000E+00 0. -1.
        -11    1    4    4    0    0  0.10152911906E+00  0.36426116833E-02  0.18888171180E-01  0.10333660904E+00  0.51100000000E-03 0.  1.
         11    1    4    4    0    0  0.26791430423E-01  0.10451872122E-01  0.12662916831E-02  0.28790397542E-01  0.51100000000E-03 0. -1.
</event>
<event>
 8    1  0.1086486E+005  0.1043930E+01  0.7957747E-01            NaN
         13   -1    0    0    0    0  0.00000000000E+00  0.00000000000E+00  0.74505805969E-08  0.10566000000E+00  0.10566000000E+00 0. -1.
     999900   -1    0    0    0    0 -0.00000000000E+00 -0.00000000000E+00 -0.74505805969E-08  0.93827000000E+00  0.93827000000E+00 0. -1.
     999902    2    1    2    0    0 -0.21557694679E-01 -0.30817677586E-02 -0.88608183350E-02  0.10204194578E+01  0.10201485795E+01 0.  0.
     999903    2    3    3    0    0  0.90718265979E-01  0.88068556853E-01 -0.13183165337E-01  0.12860504006E+00  0.19482966746E-01 0.  0.
         14    1    1    2    0    0  0.21557694679E-01  0.30817677586E-02  0.88608183350E-02  0.23510542188E-01  0.00000000000E+00 0. -1.
     999901    1    3    3    0    0 -0.11227596066E+00 -0.91150324612E-01  0.43223470023E-02  0.89181441775E+00  0.88000000000E+00 0. -1.
        -11    1    4    4    0    0  0.16622895467E-01  0.72029301111E-02 -0.38578856224E-02  0.18529631900E-01  0.51100000000E-03 0. -1.
         11    1    4    4    0    0  0.74095370512E-01  0.80865626742E-01 -0.93252797149E-02  0.11007540816E+00  0.51100000000E-03 0.  1.
</event>
<event>
 8    1  0.1086486E+005  0.1043930E+01  0.7957747E-01            NaN
         13   -1    0    0    0    0  0.00000000000E+00  0.00000000000E+00  0.74505805969E-08  0.10566000000E+00  0.10566000000E+00 0. -1.
     999900   -1    0    0    0    0 -0.00000000000E+00 -0.00000000000E+00 -0.74505805969E-08  0.93827000000E+00  0.93827000000E+00 0.  1.
     999902    2    1    2    0    0  0.72783944431E-02 -0.22172323561E-01  0.15894576907E-02  0.10205395461E+01  0.10202714599E+01 0.  0.
     999903    2    3    3    0    0  0.11790144223E+00  0.37133154813E-01 -0.37014587952E-01  0.13079527340E+00  0.21393984118E-01 0.  0.
         14    1    1    2    0    0 -0.72783944431E-02  0.22172323561E-01 -0.15894576907E-02  0.23390453897E-01  0.00000000000E+00 0. -1.
     999901    1    3    3    0    0 -0.11062304779E+00 -0.59305478374E-01  0.38604045642E-01  0.88974427270E+00  0.88000000000E+00 0.  1.
        -11    1    4    4    0    0  0.23906713057E-01  0.14843654743E-01 -0.26788554065E-02  0.28271936662E-01  0.51100000000E-03 0. -1.
         11    1    4    4    0    0  0.93994729173E-01  0.22289500070E-01 -0.34335732545E-01  0.10252333674E+00  0.51100000000E-03 0.  1.
</event>
<event>
 8    1  0.1086486E+005  0.1043930E+01  0.7957747E-01            NaN
         13   -1    0    0    0    0  0.00000000000E+00  0.00000000000E+00  0.74505805969E-08  0.10566000000E+00  0.10566000000E+00 0. -1.
     999900   -1    0    0    0    0 -0.00000000000E+00 -0.00000000000E+00 -0.74505805969E-08  0.93827000000E+00  0.93827000000E+00 0. -1.
     999902    2    1    2    0    0  0.80907640450E-02  0.21910619220E-01 -0.18349675508E-02  0.10205013252E+01  0.10202323519E+01 0.  0.
     999903    2    3    3    0    0  0.73367968593E-01  0.98006877552E-01 -0.49488671976E-01  0.13352746452E+00  0.19805258505E-01 0.  0.
         14    1    1    2    0    0 -0.80907640450E-02 -0.21910619220E-01  0.18349675508E-02  0.23428674810E-01  0.00000000000E+00 0. -1.
     999901    1    3    3    0    0 -0.65277204548E-01 -0.76096258332E-01  0.47653704425E-01  0.88697386067E+00  0.88000000000E+00 0. -1.
        -11    1    4    4    0    0  0.48936930144E-01  0.73160318948E-01 -0.43444367756E-01  0.98157677291E-01  0.51100000000E-03 0. -1.
         11    1    4    4    0    0  0.24431038449E-01  0.24846558604E-01 -0.60443042198E-02  0.35369787230E-01  0.51100000000E-03 0.  1.
</event>
<event>
 8    1  0.1086486E+005  0.1043930E+01  0.7957747E-01            NaN
         13   -1    0    0    0    0  0.00000000000E+00  0.00000000000E+00  0.74505805969E-08  0.10566000000E+00  0.10566000000E+00 0. -1.
     999900   -1    0    0    0    0 -0.00000000000E+00 -0.00000000000E+00 -0.74505805969E-08  0.93827000000E+00  0.93827000000E+00 0.  1.
     999902    2    1    2    0    0 -0.16743100311E-01  0.15838080585E-01 -0.41017806254E-02  0.10205205829E+01  0.10202520568E+01 0.  0.
     999903    2    3    3    0    0 -0.84308890367E-01 -0.26712867436E-01 -0.96082419982E-01  0.13213094024E+00  0.20129273667E-01 0.  0.
         14    1    1    2    0    0  0.16743100311E-01 -0.15838080585E-01  0.41017806254E-02  0.23409417100E-01  0.00000000000E+00 0.  1.
     999901    1    3    3    0    0  0.67565790056E-01  0.42550948021E-01  0.91980639357E-01  0.88838964266E+00  0.88000000000E+00 0. -1.
        -11    1    4    4    0    0 -0.11219598142E-01 -0.11092097708E-01 -0.19987245135E-01  0.25468904631E-01  0.51100000000E-03 0. -1.
         11    1    4    4    0    0 -0.73089292225E-01 -0.15620769728E-01 -0.76095174848E-01  0.10666203561E+00  0.51100000000E-03 0.  1.
</event>
<event>
 8    1  0.1086486E+005  0.1043930E+01  0.7957747E-01            NaN
         13   -1    0    0    0    0  0.00000000000E+00  0.00000000000E+00  0.74505805969E-08  0.10566000000E+00  0.10566000000E+00 0.  1.
     999900   -1    0    0    0    0 -0.00000000000E+00 -0.00000000000E+00 -0.74505805969E-08  0.93827000000E+00  0.93827000000E+00 0.  1.
     999902    2    1    2    0    0 -0.23581086686E-02 -0.25573480882E-01 -0.24646042022E-02  0.10181300412E+01  0.10178030963E+01 0.  0.
     999903    2    3    3    0    0 -0.76826968145E-01 -0.41611901111E-01 -0.94113928713E-01  0.13009713603E+00  0.20830263490E-01 0.  0.
         14    1    1    2    0    0  0.23581086686E-02  0.25573480882E-01  0.24646042022E-02  0.25799958814E-01  0.00000000000E+00 0.  1.
     999901    1    3    3    0    0  0.74468859477E-01  0.16038420228E-01  0.91649324511E-01  0.88803290516E+00  0.88000000000E+00 0. -1.
        -11    1    4    4    0    0 -0.95428196222E-02 -0.39085542993E-02 -0.30645941696E-02  0.10770100347E-01  0.51100000000E-03 0. -1.
         11    1    4    4    0    0 -0.67284148523E-01 -0.37703346812E-01 -0.91049334544E-01  0.11932703568E+00  0.51100000000E-03 0.  1.
</event>
<event>
 8    1  0.1086486E+005  0.1043930E+01  0.7957747E-01            NaN
         13   -1    0    0    0    0  0.00000000000E+00  0.00000000000E+00  0.74505805969E-08  0.10566000000E+00  0.10566000000E+00 0. -1.
     999900   -1    0    0    0    0 -0.00000000000E+00 -0.00000000000E+00 -0.74505805969E-08  0.93827000000E+00  0.93827000000E+00 0. -1.
     999902    2    1    2    0    0  0.19926920918E-01  0.12317217614E-01  0.47652931164E-02  0.10200238492E+01  0.10197436682E+01 0.  0.
     999903    2    3    3    0    0  0.10658036680E+00 -0.58182686266E-01 -0.46297500541E-01  0.13149334044E+00  0.20060918595E-01 0.  0.
         14    1    1    2    0    0 -0.19926920918E-01 -0.12317217614E-01 -0.47652931164E-02  0.23906150788E-01  0.00000000000E+00 0.  1.
     999901    1    3    3    0    0 -0.86653445880E-01  0.70499903880E-01  0.51062793657E-01  0.88853050878E+00  0.88000000000E+00 0.  1.
        -11    1    4    4    0    0  0.15488204571E-01 -0.19783156533E-02 -0.96185513643E-02  0.18346004061E-01  0.51100000000E-03 0. -1.
         11    1    4    4    0    0  0.91092162226E-01 -0.56204370613E-01 -0.36678949177E-01  0.11314733637E+00  0.51100000000E-03 0.  1.
</event>
<event>
 8    1  0.1086486E+005  0.1043930E+01  0.7957747E-01            NaN
         13   -1    0    0    0    0  0.00000000000E+00  0.00000000000E+00  0.74505805969E-08  0.10566000000E+00  0.10566000000E+00 0. -1.
     999900   -1    0    0    0    0 -0.00000000000E+00 -0.00000000000E+00 -0.74505805969E-08  0.93827000000E+00  0.93827000000E+00 0.  1.
     999902    2    1    2    0    0  0.20674075742E-01 -0.34818947637E-02 -0.10317057364E-01  0.10205637279E+01  0.10202962021E+01 0.  0.
     999903    2    3    3    0    0  0.12172367625E+00 -0.43133962648E-01  0.24879865243E-01  0.13319563539E+00  0.21092119379E-01 0.  0.
         14    1    1    2    0    0 -0.20674075742E-01  0.34818947637E-02  0.10317057364E-01  0.23366272094E-01  0.00000000000E+00 0.  1.
     999901    1    3    3    0    0 -0.10104960051E+00  0.39652067884E-01 -0.35196922607E-01  0.88736809251E+00  0.88000000000E+00 0.  1.
        -11    1    4    4    0    0  0.41729253719E-01 -0.18519473366E-01  0.18476003634E-01  0.49253683527E-01  0.51100000000E-03 0. -1.
         11    1    4    4    0    0  0.79994422529E-01 -0.24614489282E-01  0.64038616084E-02  0.83941951865E-01  0.51100000000E-03 0.  1.
</event>
<event>
 8    1  0.1086486E+005  0.1043930E+01  0.7957747E-01            NaN
         13   -1    0    0    0    0  0.00000000000E+00  0.00000000000E+00  0.74505805969E-08  0.10566000000E+00  0.10566000000E+00 0. -1.
     999900   -1    0    0    0    0 -0.00000000000E+00 -0.00000000000E+00 -0.74505805969E-08  0.93827000000E+00  0.93827000000E+00 0.  1.
     999902    2    1    2    0    0 -0.21359608505E-01  0.17968292712E-02  0.10267981909E-01  0.10201625238E+01  0.10198856221E+01 0.  0.
     999903    2    3    3    0    0  0.11243292270E+00 -0.15633045628E-01  0.57076112966E-01  0.12864962820E+00  0.20186380116E-01 0.  0.
         14    1    1    2    0    0  0.21359608505E-01 -0.17968292712E-02 -0.10267981909E-01  0.23767476168E-01  0.00000000000E+00 0.  1.
     999901    1    3    3    0    0 -0.13379253120E+00  0.17429874899E-01 -0.46808131057E-01  0.89151289563E+00  0.88000000000E+00 0. -1.
        -11    1    4    4    0    0  0.66788219580E-01 -0.23437316099E-02  0.41276312882E-01  0.78550330863E-01  0.51100000000E-03 0.  1.
         11    1    4    4    0    0  0.45644703120E-01 -0.13289314018E-01  0.15799800084E-01  0.50099297337E-01  0.51100000000E-03 0. -1.
</event>
<event>
 8    1  0.1086486E+005  0.1043930E+01  0.7957747E-01            NaN
         13   -1    0    0    0    0  0.00000000000E+00  0.00000000000E+00  0.74505805969E-08  0.10566000000E+00  0.10566000000E+00 0. -1.
     999900   -1    0    0    0    0 -0.00000000000E+00 -0.00000000000E+00 -0.74505805969E-08  0.93827000000E+00  0.93827000000E+00 0.  1.
     999902    2    1    2    0    0 -0.50387930865E-02 -0.20612593243E-01  0.76236645257E-02  0.10213825235E+01  0.10211336203E+01 0.  0.
     999903    2    3    3    0    0 -0.11857108934E+00 -0.51566346065E-01 -0.23443240836E-01  0.13300598749E+00  0.20562487531E-01 0.  0.
         14    1    1    2    0    0  0.50387930865E-02  0.20612593243E-01 -0.76236645257E-02  0.22547476506E-01  0.00000000000E+00 0.  1.
     999901    1    3    3    0    0  0.11353229626E+00  0.30953752822E-01  0.31066905362E-01  0.88837653600E+00  0.88000000000E+00 0.  1.
        -11    1    4    4    0    0 -0.54793750291E-01 -0.23504762798E-01 -0.21229076575E-01  0.63291103311E-01  0.51100000000E-03 0.  1.
         11    1    4    4    0    0 -0.63777339053E-01 -0.28061583267E-01 -0.22141642613E-02  0.69714884183E-01  0.51100000000E-03 0. -1.
</event>
<event>
 8    1  0.1086486E+005  0.1043930E+01  0.7957747E-01            NaN
         13   -1    0    0    0    0  0.00000000000E+00  0.00000000000E+00  0.74505805969E-08  0.10566000000E+00  0.10566000000E+00 0. -1.
     999900   -1    0    0    0    0 -0.00000000000E+00 -0.00000000000E+00 -0.74505805969E-08  0.93827000000E+00  0.93827000000E+00 0. -1.
     999902    2    1    2    0    0  0.14426885865E-01  0.31935726815E-02 -0.18683587292E-01  0.10201096227E+01  0.10198314723E+01 0.  0.
     999903    2    3    3    0    0 -0.18875151643E-01 -0.12642253187E+00  0.39207092679E-02  0.12970504356E+00  0.21658680728E-01 0.  0.
         14    1    1    2    0    0 -0.14426885865E-01 -0.31935726815E-02  0.18683587292E-01  0.23820377334E-01  0.00000000000E+00 0. -1.
     999901    1    3    3    0    0  0.33302037508E-01  0.12961610455E+00 -0.22604296560E-01  0.89040457910E+00  0.88000000000E+00 0.  1.
        -11    1    4    4    0    0 -0.10129219470E-01 -0.94760577883E-01  0.11492089568E-01  0.95992173907E-01  0.51100000000E-03 0. -1.
         11    1    4    4    0    0 -0.87459321735E-02 -0.31661953987E-01 -0.75713803005E-02  0.33712869657E-01  0.51100000000E-03 0.  1.
</event>
<event>
 8    1  0.1086486E+005  0.1043930E+01  0.7957747E-01            NaN
         13   -1    0    0    0    0  0.00000000000E+00  0.00000000000E+00  0.74505805969E-08  0.10566000000E+00  0.10566000000E+00 0. -1.
     999900   -1    0    0    0    0 -0.00000000000E+00 -0.00000000000E+00 -0.74505805969E-08  0.93827000000E+00  0.93827000000E+00 0.  1.
     999902    2    1    2    0    0  0.17867631055E-01 -0.20728199750E-02  0.19721890930E-01  0.10172372706E+01  0.10168869961E+01 0.  0.
     999903    2    3    3    0    0  0.31566145664E-01  0.25405057463E-01  0.12277615086E+00  0.13069180443E+00  0.19092564754E-01 0.  0.
         14    1    1    2    0    0 -0.17867631055E-01  0.20728199750E-02 -0.19721890930E-01  0.26692729423E-01  0.00000000000E+00 0.  1.
     999901    1    3    3    0    0 -0.13698514609E-01 -0.27477877438E-01 -0.10305425993E+00  0.88654546614E+00  0.88000000000E+00 0.  1.
        -11    1    4    4    0    0  0.31671446881E-01  0.22173247157E-01  0.92734229934E-01  0.10047204566E+00  0.51100000000E-03 0. -1.
         11    1    4    4    0    0 -0.10530121663E-03  0.32318103059E-02  0.30041920927E-01  0.30219758771E-01  0.51100000000E-03 0.  1.
</event>
<event>
 8    1  0.1086486E+005  0.1043930E+01  0.7957747E-01            NaN
         13   -1    0    0    0    0  0.00000000000E+00  0.00000000000E+00  0.74505805969E-08  0.10566000000E+00  0.10566000000E+00 0. -1.
     999900   -1    0    0    0    0 -0.00000000000E+00 -0.00000000000E+00 -0.74505805969E-08  0.93827000000E+00  0.93827000000E+00 0. -1.
     999902    2    1    2    0    0 -0.14179541642E-01  0.99984080586E-02 -0.15871723256E-01  0.10204153415E+01  0.10201443672E+01 0.  0.
     999903    2    3    3    0    0  0.22290976164E-01 -0.43060762433E-01  0.11698446134E+00  0.12811710660E+00  0.19429666186E-01 0.  0.
         14    1    1    2    0    0  0.14179541642E-01 -0.99984080586E-02  0.15871723256E-01  0.23514658492E-01  0.00000000000E+00 0. -1.
     999901    1    3    3    0    0 -0.36470517806E-01  0.53059170492E-01 -0.13285618459E+00  0.89229823491E+00  0.88000000000E+00 0. -1.
        -11    1    4    4    0    0  0.13901752870E-01 -0.77227087105E-02  0.35192051989E-01  0.38621763384E-01  0.51100000000E-03 0. -1.
         11    1    4    4    0    0  0.83892232936E-02 -0.35338053723E-01  0.81792409349E-01  0.89495343212E-01  0.51100000000E-03 0.  1.
</event>
<event>
 8    1  0.1086486E+005  0.1043930E+01  0.7957747E-01            NaN
         13   -1    0    0    0    0  0.00000000000E+00  0.00000000000E+00  0.74505805969E-08  0.10566000000E+00  0.10566000000E+00 0. -1.
     999900   -1    0    0    0    0 -0.00000000000E+00 -0.00000000000E+00 -0.74505805969E-08  0.93827000000E+00  0.93827000000E+00 0.  1.
     999902    2    1    2    0    0  0.12405714168E-01  0.20103733598E-01 -0.60178680254E-02  0.10195522113E+01  0.10192607296E+01 0.  0.
     999903    2    3    3    0    0  0.15875829877E-02 -0.11816920589E+00 -0.44156180965E-01  0.12787347501E+00  0.20865657272E-01 0.  0.
         14    1    1    2    0    0 -0.12405714168E-01 -0.20103733598E-01  0.60178680254E-02  0.24377788746E-01  0.00000000000E+00 0.  1.
     999901    1    3    3    0    0  0.10818131180E-01  0.13827293949E+00  0.38138312939E-01  0.89167873624E+00  0.88000000000E+00 0.  1.
        -11    1    4    4    0    0  0.10221469313E-02 -0.93694790795E-01 -0.25557548876E-01  0.97124703510E-01  0.51100000000E-03 0. -1.
         11    1    4    4    0    0  0.56543605639E-03 -0.24474415095E-01 -0.18598632088E-01  0.30748771499E-01  0.51100000000E-03 0.  1.
</event>
<event>
 8    1  0.1086486E+005  0.1043930E+01  0.7957747E-01            NaN
         13   -1    0    0    0    0  0.00000000000E+00  0.00000000000E+00  0.74505805969E-08  0.10566000000E+00  0.10566000000E+00 0. -1.
     999900   -1    0    0    0    0 -0.00000000000E+00 -0.00000000000E+00 -0.74505805969E-08  0.93827000000E+00  0.93827000000E+00 0. -1.
     999902    2    1    2    0    0  0.99936134565E-02 -0.15178166815E-01 -0.15066927300E-01  0.10203236162E+01  0.10200504990E+01 0.  0.
     999903    2    3    3    0    0  0.25245335537E-01 -0.53344814427E-01 -0.11777047839E+00  0.13339784286E+00  0.21026238493E-01 0.  0.
         14    1    1    2    0    0 -0.99936134565E-02  0.15178166815E-01  0.15066927300E-01  0.23606383799E-01  0.00000000000E+00 0. -1.
     999901    1    3    3    0    0 -0.15251722080E-01  0.38166647611E-01  0.10270355109E+00  0.88692577334E+00  0.88000000000E+00 0.  1.
        -11    1    4    4    0    0  0.13996782212E-01 -0.48339804113E-01 -0.94747844389E-01  0.10728495566E+00  0.51100000000E-03 0.  1.
         11    1    4    4    0    0  0.11248553325E-01 -0.50050103135E-02 -0.23022634004E-01  0.26112887195E-01  0.51100000000E-03 0. -1.
</event>
<event>
 8    1  0.1086486E+005  0.1043930E+01  0.7957747E-01            NaN
         13   -1    0    0    0    0  0.00000000000E+00  0.00000000000E+00  0.74505805969E-08  0.10566000000E+00  0.10566000000E+00 0.  1.
     999900   -1    0    0    0    0 -0.00000000000E+00 -0.00000000000E+00 -0.74505805969E-08  0.93827000000E+00  0.93827000000E+00 0. -1.
     999902    2    1    2    0    0 -0.10528329159E-01  0.13609327247E-01 -0.17798263106E-01  0.10191744416E+01  0.10188737433E+01 0.  0.
     999903    2    3    3    0    0  0.70103303722E-02 -0.70289470141E-01  0.10329103906E+00  0.12675680848E+00  0.20211269142E-01 0.  0.
         14    1    1    2    0    0  0.10528329159E-01 -0.13609327247E-01  0.17798263106E-01  0.24755558418E-01  0.00000000000E+00 0.  1.
     999901    1    3    3    0    0 -0.17538659531E-01  0.83898797388E-01 -0.12108930217E+00  0.89241763311E+00  0.88000000000E+00 0. -1.
        -11    1    4    4    0    0 -0.43627649730E-02 -0.21909298645E-01  0.44321595049E-01  0.49635833769E-01  0.51100000000E-03 0.  1.
         11    1    4    4    0    0  0.11373095345E-01 -0.48380171495E-01  0.58969444010E-01  0.77120974706E-01  0.51100000000E-03 0. -1.
</event>
<event>
 7    1  0.1213011E+005  0.1043930E+01  0.7957747E-01            NaN
         13   -1    0    0    0    0  0.00000000000E+00  0.00000000000E+00  0.74505805969E-08  0.10566000000E+00  0.10566000000E+00 0. -1.
     999900   -1    0    0    0    0 -0.00000000000E+00 -0.00000000000E+00 -0.74505805969E-08  0.93827000000E+00  0.93827000000E+00 0.  1.
     999903    2    1    2    0    0 -0.18730650908E-01 -0.94313200121E-01 -0.57372188478E-01  0.11377436602E+00  0.20179726250E-01 0.  0.
         14    1    1    2    0    0  0.38895509605E-01 -0.14234182645E-01  0.24352872648E-03  0.41418980301E-01  0.00000000000E+00 0.  1.
     999901    1    1    2    0    0 -0.20164858696E-01  0.10854738277E+00  0.57128659751E-01  0.88873665368E+00  0.88000000000E+00 0. -1.
        -11    1    3    3    0    0 -0.20596616704E-01 -0.52903462485E-01 -0.31989833170E-01  0.65165999645E-01  0.51100000000E-03 0.  1.
         11    1    3    3    0    0  0.18659657952E-02 -0.41409737635E-01 -0.25382355308E-01  0.48608366372E-01  0.51100000000E-03 0. -1.
</event>
<event>
 8    1  0.1086486E+005  0.1043930E+01  0.7957747E-01            NaN
         13   -1    0    0    0    0  0.00000000000E+00  0.00000000000E+00  0.74505805969E-08  0.10566000000E+00  0.10566000000E+00 0.  1.
     999900   -1    0    0    0    0 -0.00000000000E+00 -0.00000000000E+00 -0.74505805969E-08  0.93827000000E+00  0.93827000000E+00 0.  1.
     999902    2    1    2    0    0  0.21347656703E-01 -0.56633577393E-02  0.10156658531E-01  0.10196204591E+01  0.10193306268E+01 0.  0.
     999903    2    3    3    0    0 -0.16196431474E-01  0.77086475795E-01 -0.99085890985E-01  0.12822210360E+00  0.20451037073E-01 0.  0.
         14    1    1    2    0    0 -0.21347656703E-01  0.56633577393E-02 -0.10156658531E-01  0.24309540927E-01  0.00000000000E+00 0. -1.
     999901    1    3    3    0    0  0.37544088177E-01 -0.82749833534E-01  0.10924254952E+00  0.89139835547E+00  0.88000000000E+00 0. -1.
        -11    1    4    4    0    0 -0.31390981046E-02  0.51672298135E-01 -0.53716954693E-01  0.74603302031E-01  0.51100000000E-03 0.  1.
         11    1    4    4    0    0 -0.13057333369E-01  0.25414177660E-01 -0.45368936292E-01  0.53618801573E-01  0.51100000000E-03 0. -1.
</event>
<event>
 8    1  0.1086486E+005  0.1043930E+01  0.7957747E-01            NaN
         13   -1    0    0    0    0  0.00000000000E+00  0.00000000000E+00  0.74505805969E-08  0.10566000000E+00  0.10566000000E+00 0.  1.
     999900   -1    0    0    0    0 -0.00000000000E+00 -0.00000000000E+00 -0.74505805969E-08  0.93827000000E+00  0.93827000000E+00 0. -1.
     999902    2    1    2    0    0 -0.91972099076E-02  0.13402729196E-01 -0.15089035785E-01  0.10217511628E+01  0.10215104198E+01 0.  0.
     999903    2    3    3    0    0 -0.44991841407E-02 -0.12841484660E+00  0.54757623672E-02  0.13014743511E+00  0.19943806215E-01 0.  0.
         14    1    1    2    0    0  0.91972099076E-02 -0.13402729196E-01  0.15089035785E-01  0.22178837231E-01  0.00000000000E+00 0.  1.
     999901    1    3    3    0    0 -0.46980257669E-02  0.14181757580E+00 -0.20564798152E-01  0.89160372766E+00  0.88000000000E+00 0. -1.
        -11    1    4    4    0    0 -0.39323798234E-02 -0.59583601011E-01 -0.72222209374E-02  0.60150567053E-01  0.51100000000E-03 0.  1.
         11    1    4    4    0    0 -0.56680431729E-03 -0.68831245592E-01  0.12697983305E-01  0.69996868058E-01  0.51100000000E-03 0. -1.
</event>
<event>
 8    1  0.1086486E+005  0.1043930E+01  0.7957747E-01            NaN
         13   -1    0    0    0    0  0.00000000000E+00  0.00000000000E+00  0.74505805969E-08  0.10566000000E+00  0.10566000000E+00 0.  1.
     999900   -1    0    0    0    0 -0.00000000000E+00 -0.00000000000E+00 -0.74505805969E-08  0.93827000000E+00  0.93827000000E+00 0. -1.
     999902    2    1    2    0    0  0.84201829221E-03  0.53254920156E-02  0.23390534960E-01  0.10199261048E+01  0.10196436006E+01 0.  0.
     999903    2    3    3    0    0 -0.84116566412E-01 -0.35382957949E-01  0.93474697205E-01  0.13212718114E+00  0.19812181131E-01 0.  0.
         14    1    1    2    0    0 -0.84201829221E-03 -0.53254920156E-02 -0.23390534960E-01  0.24003895220E-01  0.00000000000E+00 0. -1.
     999901    1    3    3    0    0  0.84958584705E-01  0.40708449964E-01 -0.70084162245E-01  0.88779892364E+00  0.88000000000E+00 0. -1.
        -11    1    4    4    0    0 -0.77477080046E-01 -0.37782188845E-01  0.87942528057E-01  0.12314357916E+00  0.51100000000E-03 0. -1.
         11    1    4    4    0    0 -0.66394863667E-02  0.23992308968E-02  0.55321691478E-02  0.89836019830E-02  0.51100000000E-03 0.  1.
</event>
<event>
 8    1  0.1086486E+005  0.1043930E+01  0.7957747E-01            NaN
         13   -1    0    0    0    0  0.00000000000E+00  0.00000000000E+00  0.74505805969E-08  0.10566000000E+00  0.10566000000E+00 0.  1.
     999900   -1    0    0    0    0 -0.00000000000E+00 -0.00000000000E+00 -0.74505805969E-08  0.93827000000E+00  0.93827000000E+00 0. -1.
     999902    2    1    2    0    0 -0.18570551716E-01  0.20741944444E-01  0.18472971107E-01  0.10105182609E+01  0.10099657476E+01 0.  0.
     999903    2    3    3    0    0 -0.43037982791E-01 -0.48286455330E-01 -0.98886577472E-01  0.11971141379E+00  0.19194208926E-01 0.  0.
         14    1    1    2    0    0  0.18570551716E-01 -0.20741944444E-01 -0.18472971107E-01  0.33411739133E-01  0.00000000000E+00 0. -1.
     999901    1    3    3    0    0  0.24467431074E-01  0.69028399774E-01  0.11735954858E+00  0.89080684708E+00  0.88000000000E+00 0.  1.
        -11    1    4    4    0    0 -0.43916501473E-02 -0.20436866398E-02 -0.13451083094E-02  0.50530865283E-02  0.51100000000E-03 0.  1.
         11    1    4    4    0    0 -0.38646332643E-01 -0.46242768690E-01 -0.97541469162E-01  0.11465832726E+00  0.51100000000E-03 0. -1.
</event>
<event>
 8    1  0.1086486E+005  0.1043930E+01  0.7957747E-01            NaN
         13   -1    0    0    0    0  0.00000000000E+00  0.00000000000E+00  0.74505805969E-08  0.10566000000E+00  0.10566000000E+00 0. -1.
     999900   -1    0    0    0    0 -0.00000000000E+00 -0.00000000000E+00 -0.74505805969E-08  0.93827000000E+00  0.93827000000E+00 0.  1.
     999902    2    1    2    0    0  0.20053935389E-01 -0.10820636324E-01 -0.11311870620E-01  0.10184897777E+01  0.10181720004E+01 0.  0.
     999903    2    3    3    0    0 -0.47672895414E-01  0.83738175148E-01 -0.81778585737E-01  0.12804390600E+00  0.20560103233E-01 0.  0.
         14    1    1    2    0    0 -0.20053935389E-01  0.10820636324E-01  0.11311870620E-01  0.25440222326E-01  0.00000000000E+00 0.  1.
     999901    1    3    3    0    0  0.67726830803E-01 -0.94558811472E-01  0.70466715117E-01  0.89044587167E+00  0.88000000000E+00 0. -1.
        -11    1    4    4    0    0 -0.43453187217E-01  0.58216013601E-01 -0.59663582888E-01  0.94006850617E-01  0.51100000000E-03 0.  1.
         11    1    4    4    0    0 -0.42197081969E-02  0.25522161547E-01 -0.22115002849E-01  0.34037055386E-01  0.51100000000E-03 0. -1.
</event>
<event>
 8    1  0.1086486E+005  0.1043930E+01  0.7957747E-01            NaN
         13   -1    0    0    0    0  0.00000000000E+00  0.00000000000E+00  0.74505805969E-08  0.10566000000E+00  0.10566000000E+00 0.  1.
     999900   -1    0    0    0    0 -0.00000000000E+00 -0.00000000000E+00 -0.74505805969E-08  0.93827000000E+00  0.93827000000E+00 0. -1.
     999902    2    1    2    0    0  0.17234780599E-01  0.17634374978E-01  0.23614928942E-02  0.10191593421E+01  0.10188582724E+01 0.  0.
     999903    2    3    3    0    0 -0.57823883720E-02  0.69460220223E-01 -0.10844995042E+00  0.13039903457E+00  0.19605057060E-01 0.  0.
         14    1    1    2    0    0 -0.17234780599E-01 -0.17634374978E-01 -0.23614928942E-02  0.24770657881E-01  0.00000000000E+00 0.  1.
     999901    1    3    3    0    0  0.23017168971E-01 -0.51825845245E-01  0.11081144331E+00  0.88876030755E+00  0.88000000000E+00 0.  1.
        -11    1    4    4    0    0 -0.11709107374E-01  0.60423065380E-01 -0.93678181598E-01  0.11208886142E+00  0.51100000000E-03 0. -1.
         11    1    4    4    0    0  0.59267190022E-02  0.90371548426E-02 -0.14771768823E-01  0.18310173154E-01  0.51100000000E-03 0.  1.
</event>
<event>
 8    1  0.1086486E+005  0.1043930E+01  0.7957747E-01            NaN
         13   -1    0    0    0    0  0.00000000000E+00  0.00000000000E+00  0.74505805969E-08  0.10566000000E+00  0.10566000000E+00 0.  1.
     999900   -1    0    0    0    0 -0.00000000000E+00 -0.00000000000E+00 -0.74505805969E-08  0.93827000000E+00  0.93827000000E+00 0. -1.
     999902    2    1    2    0    0  0.15313348322E-01 -0.12172002493E-01  0.14660161315E-01  0.10194846198E+01  0.10191914999E+01 0.  0.
     999903    2    3    3    0    0 -0.11364229191E+00 -0.11998459511E-01  0.56405459674E-01  0.12910702735E+00  0.20700606021E-01 0.  0.
         14    1    1    2    0    0 -0.15313348322E-01  0.12172002493E-01 -0.14660161315E-01  0.24445380163E-01  0.00000000000E+00 0.  1.
     999901    1    3    3    0    0  0.12895564023E+00 -0.17354298241E-03 -0.41745298359E-01  0.89037759249E+00  0.88000000000E+00 0.  1.
        -11    1    4    4    0    0 -0.46767367930E-01 -0.15205174381E-01  0.24035636013E-01  0.54738989309E-01  0.51100000000E-03 0.  1.
         11    1    4    4    0    0 -0.66874923979E-01  0.32067148704E-02  0.32369823661E-01  0.74368038043E-01  0.51100000000E-03 0. -1.
</event>
<event>
 8    1  0.1086486E+005  0.1043930E+01  0.7957747E-01            NaN
         13   -1    0    0    0    0  0.00000000000E+00  0.00000000000E+00  0.74505805969E-08  0.10566000000E+00  0.10566000000E+00 0. -1.
     999900   -1    0    0    0    0 -0.00000000000E+00 -0.00000000000E+00 -0.74505805969E-08  0.93827000000E+00  0.93827000000E+00 0. -1.
     999902    2    1    2    0    0  0.18351448386E-01  0.80370273426E-03  0.15991990346E-01  0.10195750138E+01  0.10192840838E+01 0.  0.
     999903    2    3    3    0    0 -0.25083480720E-02  0.22631258698E-02 -0.12578873899E+00  0.12798147626E+00  0.23346045929E-01 0.  0.
         14    1    1    2    0    0 -0.18351448386E-01 -0.80370273426E-03 -0.15991990346E-01  0.24354986167E-01  0.00000000000E+00 0. -1.
     999901    1    3    3    0    0  0.20859796458E-01 -0.14594231355E-02  0.14178072934E+00  0.89159353757E+00  0.88000000000E+00 0.  1.
        -11    1    4    4    0    0 -0.91265829195E-02  0.90772394524E-02 -0.51527427053E-01  0.53113347208E-01  0.51100000000E-03 0.  1.
         11    1    4    4    0    0  0.66182348475E-02 -0.68141135826E-02 -0.74261311939E-01  0.74868129056E-01  0.51100000000E-03 0. -1.
</event>
<event>
 8    1  0.1086486E+005  0.1043930E+01  0.7957747E-01            NaN
         13   -1    0    0    0    0  0.00000000000E+00  0.00000000000E+00  0.74505805969E-08  0.10566000000E+00  0.10566000000E+00 0.  1.
     999900   -1    0    0    0    0 -0.00000000000E+00 -0.00000000000E+00 -0.74505805969E-08  0.93827000000E+00  0.93827000000E+00 0.  1.
     999902    2    1    2    0    0 -0.12946267970E-01  0.12407318218E-01 -0.13309868325E-01  0.10215984082E+01  0.10213543007E+01 0.  0.
     999903    2    3    3    0    0  0.76687784380E-01  0.21951765253E-01  0.10033226111E+00  0.12972403729E+00  0.19971653945E-01 0.  0.
         14    1    1    2    0    0  0.12946267970E-01 -0.12407318218E-01  0.13309868325E-01  0.22331591849E-01  0.00000000000E+00 0. -1.
     999901    1    3    3    0    0 -0.89634052350E-01 -0.95444470354E-02 -0.11364212944E+00  0.89187437086E+00  0.88000000000E+00 0.  1.
        -11    1    4    4    0    0  0.38259718914E-01  0.17708285761E-01  0.64181782535E-01  0.76791612864E-01  0.51100000000E-03 0.  1.
         11    1    4    4    0    0  0.38428065467E-01  0.42434794916E-02  0.36150478575E-01  0.52932424429E-01  0.51100000000E-03 0. -1.
</event>
<event>
 8    1  0.1086486E+005  0.1043930E+01  0.7957747E-01            NaN
         13   -1    0    0    0    0  0.00000000000E+00  0.00000000000E+00  0.74505805969E-08  0.10566000000E+00  0.10566000000E+00 0.  1.
     999900   -1    0    0    0    0 -0.00000000000E+00 -0.00000000000E+00 -0.74505805969E-08  0.93827000000E+00  0.93827000000E+00 0. -1.
     999902    2    1    2    0    0 -0.13982282213E-01  0.20059070975E-01  0.13209423334E-02  0.10194429538E+01  0.10191488216E+01 0.  0.
     999903    2    3    3    0    0 -0.78673226256E-01  0.10404123260E+00  0.16272541894E-01  0.13295467295E+00  0.19952313858E-01 0.  0.
         14    1    1    2    0    0  0.13982282213E-01 -0.20059070975E-01 -0.13209423334E-02  0.24487046227E-01  0.00000000000E+00 0. -1.
     999901    1    3    3    0    0  0.64690944043E-01 -0.83982161625E-01 -0.14951599560E-01  0.88648828083E+00  0.88000000000E+00 0.  1.
        -11    1    4    4    0    0 -0.27641938679E-01  0.52779692578E-01  0.89588649362E-02  0.60251930297E-01  0.51100000000E-03 0.  1.
         11    1    4    4    0    0 -0.51031287577E-01  0.51261540022E-01  0.73136769573E-02  0.72702742650E-01  0.51100000000E-03 0. -1.
</event>
<event>
 8    1  0.1086486E+005  0.1043930E+01  0.7957747E-01            NaN
         13   -1    0    0    0    0  0.00000000000E+00  0.00000000000E+00  0.74505805969E-08  0.10566000000E+00  0.10566000000E+00 0.  1.
     999900   -1    0    0    0    0 -0.00000000000E+00 -0.00000000000E+00 -0.74505805969E-08  0.93827000000E+00  0.93827000000E+00 0. -1.
     999902    2    1    2    0    0 -0.27725124610E-02  0.15389215743E-01  0.17906539276E-01  0.10201569284E+01  0.10198798947E+01 0.  0.
     999903    2    3    3    0    0  0.13652036216E-01  0.10992737364E+00 -0.66390936530E-01  0.13093631820E+00  0.21590678621E-01 0.  0.
         14    1    1    2    0    0  0.27725124610E-02 -0.15389215743E-01 -0.17906539276E-01  0.23773071644E-01  0.00000000000E+00 0. -1.
     999901    1    3    3    0    0 -0.16424548677E-01 -0.94538157894E-01  0.84297475807E-01  0.88922061016E+00  0.88000000000E+00 0.  1.
        -11    1    4    4    0    0  0.16705387635E-01  0.48005888310E-01 -0.28526405251E-01  0.58289383304E-01  0.51100000000E-03 0. -1.
         11    1    4    4    0    0 -0.30533514191E-02  0.61921485326E-01 -0.37864531280E-01  0.72646934897E-01  0.51100000000E-03 0.  1.
</event>
<event>
 8    1  0.1086486E+005  0.1043930E+01  0.7957747E-01            NaN
         13   -1    0    0    0    0  0.00000000000E+00  0.00000000000E+00  0.74505805969E-08  0.10566000000E+00  0.10566000000E+00 0.  1.
     999900   -1    0    0    0    0 -0.00000000000E+00 -0.00000000000E+00 -0.74505805969E-08  0.93827000000E+00  0.93827000000E+00 0. -1.
     999902    2    1    2    0    0  0.20499359468E-01 -0.58229411949E-02  0.51773424970E-02  0.10219997638E+01  0.10217644455E+01 0.  0.
     999903    2    3    3    0    0 -0.12366418472E+00  0.43089273184E-02 -0.32346526774E-01  0.12942269546E+00  0.19812593679E-01 0.  0.
         14    1    1    2    0    0 -0.20499359468E-01  0.58229411949E-02 -0.51773424970E-02  0.21930236161E-01  0.00000000000E+00 0.  1.
     999901    1    3    3    0    0  0.14416354419E+00 -0.10131868513E-01  0.37523869271E-01  0.89257706838E+00  0.88000000000E+00 0. -1.
        -11    1    4    4    0    0 -0.64497081039E-01  0.62017824699E-02 -0.75325058199E-02  0.65232931356E-01  0.51100000000E-03 0. -1.
         11    1    4    4    0    0 -0.59167103681E-01 -0.18928551514E-02 -0.24814020954E-01  0.64189764102E-01  0.51100000000E-03 0.  1.
</event>
<event>
 8    1  0.1086486E+005  0.1043930E+01  0.7957747E-01            NaN
         13   -1    0    0    0    0  0.00000000000E+00  0.00000000000E+00  0.74505805969E-08  0.10566000000E+00  0.10566000000E+00 0.  1.
     999900   -1    0    0    0    0 -0.00000000000E+00 -0.00000000000E+00 -0.74505805969E-08  0.93827000000E+00  0.93827000000E+00 0. -1.
     999902    2    1    2    0    0  0.13927958834E-01 -0.16035106886E-02  0.20727043773E-01  0.10189066184E+01  0.10185992968E+01 0.  0.
     999903    2    3    3    0    0 -0.55036848331E-01  0.12788352215E-01  0.11662167494E+00  0.13089814397E+00  0.18469228511E-01 0.  0.
         14    1    1    2    0    0 -0.13927958834E-01  0.16035106886E-02 -0.20727043773E-01  0.25023381613E-01  0.00000000000E+00 0. -1.
     999901    1    3    3    0    0  0.68964807164E-01 -0.14391862903E-01 -0.95894631172E-01  0.88800847441E+00  0.88000000000E+00 0. -1.
        -11    1    4    4    0    0 -0.42342780810E-01  0.17305439325E-01  0.85160125282E-01  0.96669009387E-01  0.51100000000E-03 0. -1.
         11    1    4    4    0    0 -0.12694067521E-01 -0.45170871108E-02  0.31461549663E-01  0.34229134584E-01  0.51100000000E-03 0.  1.
</event>
<event>
 8    1  0.1086486E+005  0.1043930E+01  0.7957747E-01            NaN
         13   -1    0    0    0    0  0.00000000000E+00  0.00000000000E+00  0.74505805969E-08  0.10566000000E+00  0.10566000000E+00 0. -1.
     999900   -1    0    0    0    0 -0.00000000000E+00 -0.00000000000E+00 -0.74505805969E-08  0.93827000000E+00  0.93827000000E+00 0. -1.
     999902    2    1    2    0    0 -0.15210890306E-01 -0.33061984879E-02  0.18279290621E-01  0.10199209476E+01  0.10196383205E+01 0.  0.
     999903    2    3    3    0    0  0.16114058883E-01 -0.86983072684E-01  0.96015812945E-01  0.13198736976E+00  0.19388440223E-01 0.  0.
         14    1    1    2    0    0  0.15210890306E-01  0.33061984879E-02 -0.18279290621E-01  0.24009052417E-01  0.00000000000E+00 0.  1.
     999901    1    3    3    0    0 -0.31324949189E-01  0.83676874196E-01 -0.77736522324E-01  0.88793357782E+00  0.88000000000E+00 0. -1.
        -11    1    4    4    0    0 -0.89895570213E-03 -0.37752222975E-02  0.11591862899E-01  0.12234902175E-01  0.51100000000E-03 0.  1.
         11    1    4    4    0    0  0.17013014585E-01 -0.83207850386E-01  0.84423950046E-01  0.11975246759E+00  0.51100000000E-03 0. -1.
</event>
<event>
 8    1  0.1086486E+005  0.1043930E+01  0.7957747E-01            NaN
         13   -1    0    0    0    0  0.00000000000E+00  0.00000000000E+00  0.74505805969E-08  0.10566000000E+00  0.10566000000E+00 0. -1.
     999900   -1    0    0    0    0 -0.00000000000E+00 -0.00000000000E+00 -0.74505805969E-08  0.93827000000E+00  0.93827000000E+00 0.  1.
     999902    2    1    2    0    0  0.16906248992E-01 -0.13694607997E-01  0.82362280007E-02  0.10206663160E+01  0.10204011611E+01 0.  0.
     999903    2    3    3    0    0  0.56710434590E-01  0.10029987912E+00 -0.57543452164E-01  0.12998899920E+00  0.17599769382E-01 0.  0.
         14    1    1    2    0    0 -0.16906248992E-01  0.13694607997E-01 -0.82362280007E-02  0.23263684034E-01  0.00000000000E+00 0.  1.
     999901    1    3    3    0    0 -0.39804185598E-01 -0.11399448712E+00  0.65779680164E-01  0.89067731677E+00  0.88000000000E+00 0. -1.
        -11    1    4    4    0    0  0.23427995940E-01  0.29682347794E-01 -0.12354786003E-01  0.39784602832E-01  0.51100000000E-03 0. -1.
         11    1    4    4    0    0  0.33282438651E-01  0.70617531326E-01 -0.45188666161E-01  0.90204396365E-01  0.51100000000E-03 0.  1.
</event>
<event>
 8    1  0.1086486E+005  0.1043930E+01  0.7957747E-01            NaN
         13   -1    0    0    0    0  0.00000000000E+00  0.00000000000E+00  0.74505805969E-08  0.10566000000E+00  0.10566000000E+00 0.  1.
     999900   -1    0    0    0    0 -0.00000000000E+00 -0.00000000000E+00 -0.74505805969E-08  0.93827000000E+00  0.93827000000E+00 0.  1.
     999902    2    1    2    0    0  0.12536535905E-01  0.16718341275E-01  0.96781902285E-02  0.10209009958E+01  0.10206412241E+01 0.  0.
     999903    2    3    3    0    0 -0.90290042253E-01  0.74082423545E-01 -0.55872127814E-01  0.13064216418E+00  0.17469493053E-01 0.  0.
         14    1    1    2    0    0 -0.12536535905E-01 -0.16718341275E-01 -0.96781902285E-02  0.23029004181E-01  0.00000000000E+00 0. -1.
     999901    1    3    3    0    0  0.10282657816E+00 -0.57364082271E-01  0.65550318043E-01  0.89025883164E+00  0.88000000000E+00 0. -1.
        -11    1    4    4    0    0 -0.51095743723E-01  0.48405359728E-01 -0.25807099010E-01  0.74967468661E-01  0.51100000000E-03 0. -1.
         11    1    4    4    0    0 -0.39194298530E-01  0.25677063817E-01 -0.30065028804E-01  0.55674695522E-01  0.51100000000E-03 0.  1.
</event>
<event>
 8    1  0.1086486E+005  0.1043930E+01  0.7957747E-01            NaN
         13   -1    0    0    0    0  0.00000000000E+00  0.00000000000E+00  0.74505805969E-08  0.10566000000E+00  0.10566000000E+00 0.  1.
     999900   -1    0    0    0    0 -0.00000000000E+00 -0.00000000000E+00 -0.74505805969E-08  0.93827000000E+00  0.93827000000E+00 0.  1.
     999902    2    1    2    0    0  0.15890026026E-01 -0.65539576368E-02  0.16325843978E-01  0.10202238727E+01  0.10199484154E+01 0.  0.
     999903    2    3    3    0    0  0.10581003878E+00 -0.77442546329E-01  0.13421505117E-03  0.13265811769E+00  0.20125751841E-01 0.  0.
         14    1    1    2    0    0 -0.15890026026E-01  0.65539576368E-02 -0.16325843978E-01  0.23706127254E-01  0.00000000000E+00 0. -1.
     999901    1    3    3    0    0 -0.89920012753E-01  0.70888588692E-01  0.16191628926E-01  0.88756575506E+00  0.88000000000E+00 0.  1.
        -11    1    4    4    0    0  0.62801750920E-01 -0.46678744617E-01  0.99268398742E-02  0.78878187026E-01  0.51100000000E-03 0. -1.
         11    1    4    4    0    0  0.43008287859E-01 -0.30763801712E-01 -0.97926248230E-02  0.53779930665E-01  0.51100000000E-03 0.  1.
</event>
<event>
 8    1  0.1086486E+005  0.1043930E+01  0.7957747E-01            NaN
         13   -1    0    0    0    0  0.00000000000E+00  0.00000000000E+00  0.74505805969E-08  0.10566000000E+00  0.10566000000E+00 0.  1.
     999900   -1    0    0    0    0 -0.00000000000E+00 -0.00000000000E+00 -0.74505805969E-08  0.93827000000E+00  0.93827000000E+00 0. -1.
     999902    2    1    2    0    0  0.62231886710E-02  0.86269807122E-02 -0.20810980850E-01  0.10205580125E+01  0.10202903544E+01 0.  0.
     999903    2    3    3    0    0  0.38398691560E-01 -0.33531006045E-01 -0.12141712338E+00  0.13323949322E+00  0.20294255899E-01 0.  0.
         14    1    1    2    0    0 -0.62231886710E-02 -0.86269807122E-02  0.20810980850E-01  0.23371987450E-01  0.00000000000E+00 0.  1.
     999901    1    3    3    0    0 -0.32175502889E-01  0.42157986757E-01  0.10060614253E+00  0.88731851933E+00  0.88000000000E+00 0. -1.
        -11    1    4    4    0    0  0.25895656404E-01 -0.18322174607E-01 -0.95861909376E-01  0.10097551135E+00  0.51100000000E-03 0. -1.
         11    1    4    4    0    0  0.12503035155E-01 -0.15208831437E-01 -0.25555214007E-01  0.32263981864E-01  0.51100000000E-03 0.  1.
</event>
<event>
 8    1  0.1086486E+005  0.1043930E+01  0.7957747E-01            NaN
         13   -1    0    0    0    0  0.00000000000E+00  0.00000000000E+00  0.74505805969E-08  0.10566000000E+00  0.10566000000E+00 0.  1.
     999900   -1    0    0    0    0 -0.00000000000E+00 -0.00000000000E+00 -0.74505805969E-08  0.93827000000E+00  0.93827000000E+00 0.  1.
     999902    2    1    2    0    0  0.12171051605E-01 -0.11213237128E-01  0.17387528463E-01  0.10199258893E+01  0.10196433800E+01 0.  0.
     999903    2    3    3    0    0 -0.14092451299E-01  0.12557460342E+00 -0.11660353347E-01  0.12849756109E+00  0.20201018782E-01 0.  0.
         14    1    1    2    0    0 -0.12171051605E-01  0.11213237128E-01 -0.17387528463E-01  0.24004110692E-01  0.00000000000E+00 0. -1.
     999901    1    3    3    0    0  0.26263502905E-01 -0.13678784055E+00  0.29047881810E-01  0.89142832821E+00  0.88000000000E+00 0. -1.
        -11    1    4    4    0    0  0.40692546818E-02  0.30924112616E-01  0.14656403105E-02  0.31229293897E-01  0.51100000000E-03 0. -1.
         11    1    4    4    0    0 -0.18161705981E-01  0.94650490801E-01 -0.13125993658E-01  0.97268267197E-01  0.51100000000E-03 0.  1.
</event>
<event>
 8    1  0.1086486E+005  0.1043930E+01  0.7957747E-01            NaN
         13   -1    0    0    0    0  0.00000000000E+00  0.00000000000E+00  0.74505805969E-08  0.10566000000E+00  0.10566000000E+00 0. -1.
     999900   -1    0    0    0    0 -0.00000000000E+00 -0.00000000000E+00 -0.74505805969E-08  0.93827000000E+00  0.93827000000E+00 0.  1.
     999902    2    1    2    0    0 -0.16348155423E-01 -0.28026305497E-02 -0.17353716705E-01  0.10199244088E+01  0.10196418642E+01 0.  0.
     999903    2    3    3    0    0  0.12610861766E+00 -0.19468583801E-02 -0.15120419307E-01  0.12846512644E+00  0.19169974611E-01 0.  0.
         14    1    1    2    0    0  0.16348155423E-01  0.28026305497E-02  0.17353716705E-01  0.24005591166E-01  0.00000000000E+00 0. -1.
     999901    1    3    3    0    0 -0.14245677308E+00 -0.85577216958E-03 -0.22332973987E-02  0.89145928239E+00  0.88000000000E+00 0. -1.
        -11    1    4    4    0    0  0.47977680510E-01  0.60429085986E-02  0.61947030298E-03  0.48363410094E-01  0.51100000000E-03 0.  1.
         11    1    4    4    0    0  0.78130937150E-01 -0.79897669787E-02 -0.15739889610E-01  0.80101716350E-01  0.51100000000E-03 0. -1.
</event>
<event>
 8    1  0.1086486E+005  0.1043930E+01  0.7957747E-01            NaN
         13   -1    0    0    0    0  0.00000000000E+00  0.00000000000E+00  0.74505805969E-08  0.10566000000E+00  0.10566000000E+00 0. -1.
     999900   -1    0    0    0    0 -0.00000000000E+00 -0.00000000000E+00 -0.74505805969E-08  0.93827000000E+00  0.93827000000E+00 0. -1.
     999902    2    1    2    0    0  0.63233936674E-02  0.20664290530E-01  0.89781847021E-02  0.10205290169E+01  0.10202606864E+01 0.  0.
     999903    2    3    3    0    0 -0.11135477977E+00  0.18249081331E-01  0.63448680004E-01  0.13102296260E+00  0.20208062425E-01 0.  0.
         14    1    1    2    0    0 -0.63233936674E-02 -0.20664290530E-01 -0.89781847021E-02  0.23400983123E-01  0.00000000000E+00 0.  1.
     999901    1    3    3    0    0  0.11767817344E+00  0.24152091984E-02 -0.54470495302E-01  0.88950605428E+00  0.88000000000E+00 0. -1.
        -11    1    4    4    0    0 -0.52551777779E-01  0.17623075267E-01  0.25350839165E-01  0.60952344475E-01  0.51100000000E-03 0.  1.
         11    1    4    4    0    0 -0.58803001991E-01  0.62600606406E-03  0.38097840839E-01  0.70070618124E-01  0.51100000000E-03 0. -1.
</event>
<event>
 8    1  0.1086486E+005  0.1043930E+01  0.7957747E-01            NaN
         13   -1    0    0    0    0  0.00000000000E+00  0.00000000000E+00  0.74505805969E-08  0.10566000000E+00  0.10566000000E+00 0.  1.
     999900   -1    0    0    0    0 -0.00000000000E+00 -0.00000000000E+00 -0.74505805969E-08  0.93827000000E+00  0.93827000000E+00 0. -1.
     999902    2    1    2    0    0 -0.47652560596E-02  0.12427560746E-01 -0.19377221207E-01  0.10204219454E+01  0.10201511250E+01 0.  0.
     999903    2    3    3    0    0 -0.10768890059E+00 -0.66899220766E-01 -0.25608429520E-01  0.13085753351E+00  0.19887115536E-01 0.  0.
         14    1    1    2    0    0  0.47652560596E-02 -0.12427560746E-01  0.19377221207E-01  0.23508054643E-01  0.00000000000E+00 0.  1.
     999901    1    3    3    0    0  0.10292364453E+00  0.79326781512E-01  0.62312083130E-02  0.88956441185E+00  0.88000000000E+00 0. -1.
        -11    1    4    4    0    0 -0.57127952595E-01 -0.28261226743E-01 -0.20773016330E-01  0.67037894009E-01  0.51100000000E-03 0.  1.
         11    1    4    4    0    0 -0.50560947995E-01 -0.38637994023E-01 -0.48354131904E-02  0.63819639501E-01  0.51100000000E-03 0. -1.
</event>
<event>
 8    1  0.1086486E+005  0.1043930E+01  0.7957747E-01            NaN
         13   -1    0    0    0    0  0.00000000000E+00  0.00000000000E+00  0.74505805969E-08  0.10566000000E+00  0.10566000000E+00 0. -1.
     999900   -1    0    0    0    0 -0.00000000000E+00 -0.00000000000E+00 -0.74505805969E-08  0.93827000000E+00  0.93827000000E+00 0. -1.
     999902    2    1    2    0    0 -0.18485887422E-01  0.15630210471E-01 -0.64960035143E-02  0.10188654917E+01  0.10185571465E+01 0.  0.
     999903    2    3    3    0    0 -0.11786210769E+00 -0.43428684926E-01  0.29088925239E-01  0.13059195647E+00  0.20750094458E-01 0.  0.
         14    1    1    2    0    0  0.18485887422E-01 -0.15630210471E-01  0.64960035143E-02  0.25064508270E-01  0.00000000000E+00 0. -1.
     999901    1    3    3    0    0  0.99376220271E-01  0.59058895397E-01 -0.35584928754E-01  0.88827353526E+00  0.88000000000E+00 0.  1.
        -11    1    4    4    0    0 -0.54861487313E-01 -0.27978444761E-01  0.21726400735E-01  0.65306001036E-01  0.51100000000E-03 0. -1.
         11    1    4    4    0    0 -0.63000620380E-01 -0.15450240165E-01  0.73625245042E-02  0.65285955439E-01  0.51100000000E-03 0.  1.
</event>
<event>
 8    1  0.1086486E+005  0.1043930E+01  0.7957747E-01            NaN
         13   -1    0    0    0    0  0.00000000000E+00  0.00000000000E+00  0.74505805969E-08  0.10566000000E+00  0.10566000000E+00 0. -1.
     999900   -1    0    0    0    0 -0.00000000000E+00 -0.00000000000E+00 -0.74505805969E-08  0.93827000000E+00  0.93827000000E+00 0. -1.
     999902    2    1    2    0    0  0.32489007345E-02 -0.19804153969E-01  0.12593229739E-01  0.10202371887E+01  0.10199620444E+01 0.  0.
     999903    2    3    3    0    0  0.10446612253E+00 -0.62231081569E-01 -0.45581301911E-01  0.13151380865E+00  0.20792991886E-01 0.  0.
         14    1    1    2    0    0 -0.32489007345E-02  0.19804153969E-01 -0.12593229739E-01  0.23692811265E-01  0.00000000000E+00 0.  1.
     999901    1    3    3    0    0 -0.10121722180E+00  0.42426927600E-01  0.58174531650E-01  0.88872338008E+00  0.88000000000E+00 0.  1.
        -11    1    4    4    0    0  0.43704957295E-01 -0.19353624606E-01 -0.26837521743E-01  0.54819702406E-01  0.51100000000E-03 0.  1.
         11    1    4    4    0    0  0.60761165239E-01 -0.42877456963E-01 -0.18743780168E-01  0.76694106246E-01  0.51100000000E-03 0. -1.
</event>
<event>
 8    1  0.1086486E+005  0.1043930E+01  0.7957747E-01            NaN
         13   -1    0    0    0    0  0.00000000000E+00  0.00000000000E+00  0.74505805969E-08  0.10566000000E+00  0.10566000000E+00 0. -1.
     999900   -1    0    0    0    0 -0.00000000000E+00 -0.00000000000E+00 -0.74505805969E-08  0.93827000000E+00  0.93827000000E+00 0. -1.
     999902    2    1    2    0    0  0.85409713891E-02  0.14470854256E-01 -0.16743753020E-01  0.10202085523E+01  0.10199327346E+01 0.  0.
     999903    2    3    3    0    0  0.78360095070E-01 -0.83347715981E-01  0.56349983706E-01  0.12903748172E+00  0.19702912629E-01 0.  0.
         14    1    1    2    0    0 -0.85409713891E-02 -0.14470854256E-01  0.16743753020E-01  0.23721447687E-01  0.00000000000E+00 0. -1.
     999901    1    3    3    0    0 -0.69819123681E-01  0.97818570238E-01 -0.73093736725E-01  0.89117107059E+00  0.88000000000E+00 0. -1.
        -11    1    4    4    0    0  0.63251932638E-01 -0.67651593364E-01  0.36464280219E-01  0.99536173927E-01  0.51100000000E-03 0. -1.
         11    1    4    4    0    0  0.15108162432E-01 -0.15696122617E-01  0.19885703486E-01  0.29501307792E-01  0.51100000000E-03 0.  1.
</event>
<event>
 8    1  0.1086486E+005  0.1043930E+01  0.7957747E-01            NaN
         13   -1    0    0    0    0  0.00000000000E+00  0.00000000000E+00  0.74505805969E-08  0.10566000000E+00  0.10566000000E+00 0.  1.
     999900   -1    0    0    0    0 -0.00000000000E+00 -0.00000000000E+00 -0.74505805969E-08  0.93827000000E+00  0.93827000000E+00 0.  1.
     999902    2    1    2    0    0 -0.72485191451E-02 -0.22259592987E-01 -0.31567965724E-03  0.10205178202E+01  0.10202492299E+01 0.  0.
     999903    2    3    3    0    0 -0.25130140498E-01 -0.12358054768E+00  0.39629321687E-01  0.13362363745E+00  0.19522234081E-01 0.  0.
         14    1    1    2    0    0  0.72485191451E-02  0.22259592987E-01  0.31567965724E-03  0.23412179809E-01  0.00000000000E+00 0.  1.
     999901    1    3    3    0    0  0.17881621353E-01  0.10132095469E+00 -0.39945001345E-01  0.88689418274E+00  0.88000000000E+00 0. -1.
        -11    1    4    4    0    0 -0.49455492450E-02 -0.54425918499E-01  0.25056255580E-01  0.60122509316E-01  0.51100000000E-03 0. -1.
         11    1    4    4    0    0 -0.20184591253E-01 -0.69154629177E-01  0.14573066108E-01  0.73501128137E-01  0.51100000000E-03 0.  1.
</event>
<event>
 8    1  0.1086486E+005  0.1043930E+01  0.7957747E-01            NaN
         13   -1    0    0    0    0  0.00000000000E+00  0.00000000000E+00  0.74505805969E-08  0.10566000000E+00  0.10566000000E+00 0.  1.
     999900   -1    0    0    0    0 -0.00000000000E+00 -0.00000000000E+00 -0.74505805969E-08  0.93827000000E+00  0.93827000000E+00 0. -1.
     999902    2    1    2    0    0 -0.80421970286E-04 -0.24060872657E-01 -0.16133644480E-02  0.10198149631E+01  0.10195298053E+01 0.  0.
     999903    2    3    3    0    0 -0.53279353610E-01 -0.91041030045E-01  0.76844280018E-01  0.13219338280E+00  0.21044914139E-01 0.  0.
         14    1    1    2    0    0  0.80421970286E-04  0.24060872657E-01  0.16133644480E-02  0.24115036918E-01  0.00000000000E+00 0. -1.
     999901    1    3    3    0    0  0.53198931640E-01  0.66980157388E-01 -0.78457644466E-01  0.88762158028E+00  0.88000000000E+00 0. -1.
        -11    1    4    4    0    0 -0.23369387209E-01 -0.29770177732E-01  0.38399945790E-01  0.53918537614E-01  0.51100000000E-03 0. -1.
         11    1    4    4    0    0 -0.29909966400E-01 -0.61270852313E-01  0.38444334228E-01  0.78274845183E-01  0.51100000000E-03 0.  1.
</event>
<event>
 8    1  0.1086486E+005  0.1043930E+01  0.7957747E-01            NaN
         13   -1    0    0    0    0  0.00000000000E+00  0.00000000000E+00  0.74505805969E-08  0.10566000000E+00  0.10566000000E+00 0. -1.
     999900   -1    0    0    0    0 -0.00000000000E+00 -0.00000000000E+00 -0.74505805969E-08  0.93827000000E+00  0.93827000000E+00 0.  1.
     999902    2    1    2    0    0 -0.16254663254E-01  0.14514807815E-01 -0.51030067314E-02  0.10215484361E+01  0.10213032228E+01 0.  0.
     999903    2    3    3    0    0 -0.11862656805E+00  0.11413288028E-01 -0.56579295794E-01  0.13411425004E+00  0.24143105840E-01 0.  0.
         14    1    1    2    0    0  0.16254663254E-01 -0.14514807815E-01  0.51030067314E-02  0.22381563867E-01  0.00000000000E+00 0. -1.
     999901    1    3    3    0    0  0.10237190480E+00  0.31015197871E-02  0.51476289062E-01  0.88743418610E+00  0.88000000000E+00 0. -1.
        -11    1    4    4    0    0 -0.33226286890E-01  0.10994747588E-01 -0.81596423139E-02  0.35940388127E-01  0.51100000000E-03 0. -1.
         11    1    4    4    0    0 -0.85400281159E-01  0.41854044034E-03 -0.48419653480E-01  0.98173861910E-01  0.51100000000E-03 0.  1.
</event>
<event>
 8    1  0.1086486E+005  0.1043930E+01  0.7957747E-01            NaN
         13   -1    0    0    0    0  0.00000000000E+00  0.00000000000E+00  0.74505805969E-08  0.10566000000E+00  0.10566000000E+00 0. -1.
     999900   -1    0    0    0    0 -0.00000000000E+00 -0.00000000000E+00 -0.74505805969E-08  0.93827000000E+00  0.93827000000E+00 0. -1.
     999902    2    1    2    0    0  0.17134312637E-01 -0.82621252700E-02  0.92405414669E-02  0.10227820689E+01  0.10225634090E+01 0.  0.
     999903    2    3    3    0    0 -0.12879426085E+00 -0.82501307397E-02  0.11347855889E-02  0.13072778132E+00  0.20795162545E-01 0.  0.
         14    1    1    2    0    0 -0.17134312637E-01  0.82621252700E-02 -0.92405414669E-02  0.21147931108E-01  0.00000000000E+00 0.  1.
     999901    1    3    3    0    0  0.14592857348E+00 -0.11994530278E-04  0.81057558780E-02  0.89205428758E+00  0.88000000000E+00 0.  1.
        -11    1    4    4    0    0 -0.11957553082E+00 -0.86968966346E-02 -0.43646210470E-02  0.11997189096E+00  0.51100000000E-03 0.  1.
         11    1    4    4    0    0 -0.92187300267E-02  0.44676589489E-03  0.54994066359E-02  0.10755890359E-01  0.51100000000E-03 0. -1.
</event>
<event>
 8    1  0.1086486E+005  0.1043930E+01  0.7957747E-01            NaN
         13   -1    0    0    0    0  0.00000000000E+00  0.00000000000E+00  0.74505805969E-08  0.10566000000E+00  0.10566000000E+00 0. -1.
     999900   -1    0    0    0    0 -0.00000000000E+00 -0.00000000000E+00 -0.74505805969E-08  0.93827000000E+00  0.93827000000E+00 0.  1.
     999902    2    1    2    0    0 -0.22825474002E-01 -0.56674684001E-02  0.31871140374E-02  0.10201964761E+01  0.10199203742E+01 0.  0.
     999903    2    3    3    0    0 -0.14918758203E-01 -0.11785094658E+00  0.52979981137E-01  0.13164316956E+00  0.20288684866E-01 0.  0.
         14    1    1    2    0    0  0.22825474002E-01  0.56674684001E-02 -0.31871140374E-02  0.23733523914E-01  0.00000000000E+00 0.  1.
     999901    1    3    3    0    0 -0.79067157991E-02  0.11218347818E+00 -0.49792867100E-01  0.88855330653E+00  0.88000000000E+00 0.  1.
        -11    1    4    4    0    0 -0.74103660280E-02 -0.21328942891E-01  0.32982045217E-02  0.22824911908E-01  0.51100000000E-03 0.  1.
         11    1    4    4    0    0 -0.75083921750E-02 -0.96522003688E-01  0.49681776616E-01  0.10881825765E+00  0.51100000000E-03 0. -1.
</event>
<event>
 8    1  0.1086486E+005  0.1043930E+01  0.7957747E-01            NaN
         13   -1    0    0    0    0  0.00000000000E+00  0.00000000000E+00  0.74505805969E-08  0.10566000000E+00  0.10566000000E+00 0. -1.
     999900   -1    0    0    0    0 -0.00000000000E+00 -0.00000000000E+00 -0.74505805969E-08  0.93827000000E+00  0.93827000000E+00 0.  1.
     999902    2    1    2    0    0 -0.59083588622E-02  0.67253283411E-03  0.28695724058E-01  0.10146246151E+01  0.10142013133E+01 0.  0.
     999903    2    3    3    0    0 -0.97108597421E-01 -0.14090913004E-01  0.80297754230E-01  0.12828483129E+00  0.19509871417E-01 0.  0.
         14    1    1    2    0    0  0.59083588622E-02 -0.67253283411E-03 -0.28695724058E-01  0.29305384899E-01  0.00000000000E+00 0.  1.
     999901    1    3    3    0    0  0.91200238559E-01  0.14763445839E-01 -0.51602030172E-01  0.88633978381E+00  0.88000000000E+00 0.  1.
        -11    1    4    4    0    0 -0.43418827649E-01 -0.14245461421E-01  0.44266419597E-01  0.63623146656E-01  0.51100000000E-03 0.  1.
         11    1    4    4    0    0 -0.53689769772E-01  0.15454841691E-03  0.36031334633E-01  0.64661684635E-01  0.51100000000E-03 0. -1.
</event>
<event>
 8    1  0.1086486E+005  0.1043930E+01  0.7957747E-01            NaN
         13   -1    0    0    0    0  0.00000000000E+00  0.00000000000E+00  0.74505805969E-08  0.10566000000E+00  0.10566000000E+00 0.  1.
     999900   -1    0    0    0    0 -0.00000000000E+00 -0.00000000000E+00 -0.74505805969E-08  0.93827000000E+00  0.93827000000E+00 0. -1.
     999902    2    1    2    0    0 -0.42391283244E-02  0.99805208951E-02 -0.20549863771E-01  0.10206947271E+01  0.10204302269E+01 0.  0.
     999903    2    3    3    0    0 -0.19255514719E-01  0.63924394325E-01 -0.11439558476E+00  0.13393520349E+00  0.19879282799E-01 0.  0.
         14    1    1    2    0    0  0.42391283244E-02 -0.99805208951E-02  0.20549863771E-01  0.23235272912E-01  0.00000000000E+00 0.  1.
     999901    1    3    3    0    0  0.15016386395E-01 -0.53943873430E-01  0.93845720989E-01  0.88675952360E+00  0.88000000000E+00 0.  1.
        -11    1    4    4    0    0 -0.12047486266E-02  0.25147982979E-01 -0.57338118334E-01  0.62624223765E-01  0.51100000000E-03 0.  1.
         11    1    4    4    0    0 -0.18050766093E-01  0.38776411346E-01 -0.57057466427E-01  0.71310979726E-01  0.51100000000E-03 0. -1.
</event>
<event>
 8    1  0.1086486E+005  0.1043930E+01  0.7957747E-01            NaN
         13   -1    0    0    0    0  0.00000000000E+00  0.00000000000E+00  0.74505805969E-08  0.10566000000E+00  0.10566000000E+00 0. -1.
     999900   -1    0    0    0    0 -0.00000000000E+00 -0.00000000000E+00 -0.74505805969E-08  0.93827000000E+00  0.93827000000E+00 0. -1.
     999902    2    1    2    0    0  0.21897540570E-01  0.54093923294E-02  0.85992409104E-02  0.10197905975E+01  0.10195048563E+01 0.  0.
     999903    2    3    3    0    0  0.82170218328E-01 -0.99636811138E-01  0.15649520347E-01  0.13146790446E+00  0.18959522731E-01 0.  0.
         14    1    1    2    0    0 -0.21897540570E-01 -0.54093923294E-02 -0.85992409104E-02  0.24139402491E-01  0.00000000000E+00 0.  1.
     999901    1    3    3    0    0 -0.60272677758E-01  0.10504620347E+00 -0.70502794369E-02  0.88832269305E+00  0.88000000000E+00 0. -1.
        -11    1    4    4    0    0  0.15118275066E-01 -0.29747194861E-01  0.79605904002E-02  0.34308744710E-01  0.51100000000E-03 0.  1.
         11    1    4    4    0    0  0.67051943262E-01 -0.69889616277E-01  0.76889299472E-02  0.97159159750E-01  0.51100000000E-03 0. -1.
</event>
<event>
 8    1  0.1086486E+005  0.1043930E+01  0.7957747E-01            NaN
         13   -1    0    0    0    0  0.00000000000E+00  0.00000000000E+00  0.74505805969E-08  0.10566000000E+00  0.10566000000E+00 0.  1.
     999900   -1    0    0    0    0 -0.00000000000E+00 -0.00000000000E+00 -0.74505805969E-08  0.93827000000E+00  0.93827000000E+00 0.  1.
     999902    2    1    2    0    0 -0.96551342527E-02 -0.14701832356E-01  0.15297510038E-01  0.10206195022E+01  0.10203532668E+01 0.  0.
     999903    2    3    3    0    0  0.10343559449E+00 -0.26109680528E-01 -0.70077429473E-01  0.12921132850E+00  0.20101832435E-01 0.  0.
         14    1    1    2    0    0  0.96551342527E-02  0.14701832356E-01 -0.15297510038E-01  0.23310497752E-01  0.00000000000E+00 0. -1.
     999901    1    3    3    0    0 -0.11309072874E+00  0.11407848172E-01  0.85374939511E-01  0.89140817375E+00  0.88000000000E+00 0. -1.
        -11    1    4    4    0    0  0.24945457599E-01 -0.23970441397E-02 -0.78147129605E-02  0.26255523896E-01  0.51100000000E-03 0.  1.
         11    1    4    4    0    0  0.78490136888E-01 -0.23712636389E-01 -0.62262716513E-01  0.10295580460E+00  0.51100000000E-03 0. -1.
</event>
<event>
 8    1  0.1086486E+005  0.1043930E+01  0.7957747E-01            NaN
         13   -1    0    0    0    0  0.00000000000E+00  0.00000000000E+00  0.74505805969E-08  0.10566000000E+00  0.10566000000E+00 0.  1.
     999900   -1    0    0    0    0 -0.00000000000E+00 -0.00000000000E+00 -0.74505805969E-08  0.93827000000E+00  0.93827000000E+00 0.  1.
     999902    2    1    2    0    0  0.20093916304E-01  0.70000927202E-02 -0.92317092135E-02  0.10207353621E+01  0.10204717969E+01 0.  0.
     999903    2    3    3    0    0  0.10224116097E+00  0.55325214002E-01  0.60990702184E-01  0.13280818370E+00  0.20100089624E-01 0.  0.
         14    1    1    2    0    0 -0.20093916304E-01 -0.70000927202E-02  0.92317092135E-02  0.23194637861E-01  0.00000000000E+00 0. -1.
     999901    1    3    3    0    0 -0.82147244667E-01 -0.48325121282E-01 -0.70222411398E-01  0.88792717844E+00  0.88000000000E+00 0.  1.
        -11    1    4    4    0    0  0.59986527316E-01  0.36621570539E-01  0.26376001863E-01  0.75069817393E-01  0.51100000000E-03 0. -1.
         11    1    4    4    0    0  0.42254633655E-01  0.18703643464E-01  0.34614700321E-01  0.57738366304E-01  0.51100000000E-03 0.  1.
</event>
<event>
 8    1  0.1086486E+005  0.1043930E+01  0.7957747E-01            NaN
         13   -1    0    0    0    0  0.00000000000E+00  0.00000000000E+00  0.74505805969E-08  0.10566000000E+00  0.10566000000E+00 0.  1.
     999900   -1    0    0    0    0 -0.00000000000E+00 -0.00000000000E+00 -0.74505805969E-08  0.93827000000E+00  0.93827000000E+00 0.  1.
     999902    2    1    2    0    0 -0.84408836679E-02  0.17908819498E-01  0.11805386767E-01  0.10208791543E+01  0.10206188839E+01 0.  0.
     999903    2    3    3    0    0  0.33285105674E-01 -0.78590337017E-01  0.97009615790E-01  0.13053489160E+00  0.18551362143E-01 0.  0.
         14    1    1    2    0    0  0.84408836679E-02 -0.17908819498E-01 -0.11805386767E-01  0.23050845747E-01  0.00000000000E+00 0. -1.
     999901    1    3    3    0    0 -0.41725989342E-01  0.96499156515E-01 -0.85204229023E-01  0.89034426265E+00  0.88000000000E+00 0. -1.
        -11    1    4    4    0    0  0.16679151430E-01 -0.18517595351E-01  0.30378143812E-01  0.39296159768E-01  0.51100000000E-03 0. -1.
         11    1    4    4    0    0  0.16605954244E-01 -0.60072741666E-01  0.66631471978E-01  0.91238731833E-01  0.51100000000E-03 0.  1.
</event>
<event>
 8    1  0.1086486E+005  0.1043930E+01  0.7957747E-01            NaN
         13   -1    0    0    0    0  0.00000000000E+00  0.00000000000E+00  0.74505805969E-08  0.10566000000E+00  0.10566000000E+00 0. -1.
     999900   -1    0    0    0    0 -0.00000000000E+00 -0.00000000000E+00 -0.74505805969E-08  0.93827000000E+00  0.93827000000E+00 0. -1.
     999902    2    1    2    0    0  0.17503709998E-01  0.84970714331E-02  0.15805744656E-01  0.10188620593E+01  0.10185536286E+01 0.  0.
     999903    2    3    3    0    0  0.40744889150E-01  0.55018422253E-01 -0.10716540082E+00  0.12879111207E+00  0.20385157260E-01 0.  0.
         14    1    1    2    0    0 -0.17503709998E-01 -0.84970714331E-02 -0.15805744656E-01  0.25067940697E-01  0.00000000000E+00 0. -1.
     999901    1    3    3    0    0 -0.23241179152E-01 -0.46521350820E-01  0.12297114547E+00  0.89007094723E+00  0.88000000000E+00 0.  1.
        -11    1    4    4    0    0  0.26123999265E-01  0.48141393364E-01 -0.88696452166E-01  0.10424672101E+00  0.51100000000E-03 0.  1.
         11    1    4    4    0    0  0.14620889885E-01  0.68770288887E-02 -0.18468948652E-01  0.24544391063E-01  0.51100000000E-03 0. -1.
</event>
<event>
 8    1  0.1086486E+005  0.1043930E+01  0.7957747E-01            NaN
         13   -1    0    0    0    0  0.00000000000E+00  0.00000000000E+00  0.74505805969E-08  0.10566000000E+00  0.10566000000E+00 0.  1.
     999900   -1    0    0    0    0 -0.00000000000E+00 -0.00000000000E+00 -0.74505805969E-08  0.93827000000E+00  0.93827000000E+00 0.  1.
     999902    2    1    2    0    0  0.83224128492E-02  0.17347639066E-01 -0.13482794357E-01  0.10204355564E+01  0.10201650532E+01 0.  0.
     999903    2    3    3    0    0  0.10560918859E+00  0.13399281068E-01 -0.77137527946E-01  0.13278008755E+00  0.18641673309E-01 0.  0.
         14    1    1    2    0    0 -0.83224128492E-02 -0.17347639066E-01  0.13482794357E-01  0.23494443608E-01  0.00000000000E+00 0. -1.
     999901    1    3    3    0    0 -0.97286775738E-01  0.39483579977E-02  0.63654733589E-01  0.88765546885E+00  0.88000000000E+00 0. -1.
        -11    1    4    4    0    0  0.34039719302E-01  0.78069464607E-02 -0.15713299427E-01  0.38299083580E-01  0.51100000000E-03 0.  1.
         11    1    4    4    0    0  0.71569469285E-01  0.55923346073E-02 -0.61424228519E-01  0.94481003965E-01  0.51100000000E-03 0. -1.
</event>
<event>
 8    1  0.1086486E+005  0.1043930E+01  0.7957747E-01            NaN
         13   -1    0    0    0    0  0.00000000000E+00  0.00000000000E+00  0.74505805969E-08  0.10566000000E+00  0.10566000000E+00 0.  1.
     999900   -1    0    0    0    0 -0.00000000000E+00 -0.00000000000E+00 -0.74505805969E-08  0.93827000000E+00  0.93827000000E+00 0.  1.
     999902    2    1    2    0    0  0.88905503226E-03  0.65680638563E-02 -0.22864573885E-01  0.10201241473E+01  0.10198463401E+01 0.  0.
     999903    2    3    3    0    0  0.83381300249E-01 -0.49022672558E-01 -0.87837372545E-01  0.13213948247E+00  0.19742724094E-01 0.  0.
         14    1    1    2    0    0 -0.88905503226E-03 -0.65680638563E-02  0.22864573885E-01  0.23805852654E-01  0.00000000000E+00 0.  1.
     999901    1    3    3    0    0 -0.82492245217E-01  0.55590736414E-01  0.64972798660E-01  0.88798466488E+00  0.88000000000E+00 0. -1.
        -11    1    4    4    0    0  0.55221974528E-01 -0.35721122480E-01 -0.47274045197E-01  0.80997293363E-01  0.51100000000E-03 0.  1.
         11    1    4    4    0    0  0.28159325721E-01 -0.13301550078E-01 -0.40563327349E-01  0.51142189102E-01  0.51100000000E-03 0. -1.
</event>
<event>
 8    1  0.1086486E+005  0.1043930E+01  0.7957747E-01            NaN
         13   -1    0    0    0    0  0.00000000000E+00  0.00000000000E+00  0.74505805969E-08  0.10566000000E+00  0.10566000000E+00 0.  1.
     999900   -1    0    0    0    0 -0.00000000000E+00 -0.00000000000E+00 -0.74505805969E-08  0.93827000000E+00  0.93827000000E+00 0.  1.
     999902    2    1    2    0    0  0.21615771394E-01 -0.53321337411E-02  0.97678346962E-02  0.10196177846E+01  0.10193278878E+01 0.  0.
     999903    2    3    3    0    0 -0.10605259904E+00  0.55930742570E-01  0.39165346204E-01  0.12781255558E+00  0.20657281846E-01 0.  0.
         14    1    1    2    0    0 -0.21615771394E-01  0.53321337411E-02 -0.97678346962E-02  0.24312215404E-01  0.00000000000E+00 0. -1.
     999901    1    3    3    0    0  0.12766837043E+00 -0.61262876311E-01 -0.29397511508E-01  0.89180522902E+00  0.88000000000E+00 0. -1.
        -11    1    4    4    0    0 -0.70281079797E-01  0.40616207490E-01  0.16688866931E-01  0.82872708950E-01  0.51100000000E-03 0. -1.
         11    1    4    4    0    0 -0.35771519239E-01  0.15314535080E-01  0.22476479273E-01  0.44939846628E-01  0.51100000000E-03 0.  1.
</event>
<event>
 8    1  0.1086486E+005  0.1043930E+01  0.7957747E-01            NaN
         13   -1    0    0    0    0  0.00000000000E+00  0.00000000000E+00  0.74505805969E-08  0.10566000000E+00  0.10566000000E+00 0.  1.
     999900   -1    0    0    0    0 -0.00000000000E+00 -0.00000000000E+00 -0.74505805969E-08  0.93827000000E+00  0.93827000000E+00 0. -1.
     999902    2    1    2    0    0 -0.15582662846E-01  0.76927448291E-02  0.15591681385E-01  0.10205826611E+01  0.10203155737E+01 0.  0.
     999903    2    3    3    0    0  0.75855352367E-01 -0.77589710937E-01  0.68882508975E-01  0.13014798064E+00  0.20481677106E-01 0.  0.
         14    1    1    2    0    0  0.15582662846E-01 -0.76927448291E-02 -0.15591681385E-01  0.23347338880E-01  0.00000000000E+00 0.  1.
     999901    1    3    3    0    0 -0.91438015213E-01  0.85282455767E-01 -0.53290827590E-01  0.89043468048E+00  0.88000000000E+00 0. -1.
        -11    1    4    4    0    0  0.15715147942E-01 -0.28317469510E-01  0.24601603767E-01  0.40673639906E-01  0.51100000000E-03 0. -1.
         11    1    4    4    0    0  0.60140204425E-01 -0.49272241427E-01  0.44280905208E-01  0.89474340738E-01  0.51100000000E-03 0.  1.
</event>
<event>
 8    1  0.1086486E+005  0.1043930E+01  0.7957747E-01            NaN
         13   -1    0    0    0    0  0.00000000000E+00  0.00000000000E+00  0.74505805969E-08  0.10566000000E+00  0.10566000000E+00 0. -1.
     999900   -1    0    0    0    0 -0.00000000000E+00 -0.00000000000E+00 -0.74505805969E-08  0.93827000000E+00  0.93827000000E+00 0.  1.
     999902    2    1    2    0    0 -0.16019196999E-01  0.71189169487E-02  0.16445735630E-01  0.10198934472E+01  0.10196101646E+01 0.  0.
     999903    2    3    3    0    0 -0.35894604019E-01 -0.22166200974E-01  0.12413401439E+00  0.13262267942E+00  0.19993961755E-01 0.  0.
         14    1    1    2    0    0  0.16019196999E-01 -0.71189169487E-02 -0.16445735630E-01  0.24036552819E-01  0.00000000000E+00 0.  1.
     999901    1    3    3    0    0  0.19875407020E-01  0.29285117923E-01 -0.10768827875E+00  0.88727076776E+00  0.88000000000E+00 0.  1.
        -11    1    4    4    0    0 -0.26052529841E-01 -0.24139206779E-01  0.83051631469E-01  0.90328678866E-01  0.51100000000E-03 0. -1.
         11    1    4    4    0    0 -0.98420741783E-02  0.19730058050E-02  0.41082382916E-01  0.42294000557E-01  0.51100000000E-03 0.  1.
</event>
<event>
 8    1  0.1086486E+005  0.1043930E+01  0.7957747E-01            NaN
         13   -1    0    0    0    0  0.00000000000E+00  0.00000000000E+00  0.74505805969E-08  0.10566000000E+00  0.10566000000E+00 0. -1.
     999900   -1    0    0    0    0 -0.00000000000E+00 -0.00000000000E+00 -0.74505805969E-08  0.93827000000E+00  0.93827000000E+00 0.  1.
     999902    2    1    2    0    0 -0.18033911606E-01  0.41398968309E-02 -0.50948842257E-02  0.10247383727E+01  0.10245586435E+01 0.  0.
     999903    2    3    3    0    0  0.57517977588E-01 -0.79599537504E-01  0.87083831014E-01  0.13276455224E+00  0.19960676107E-01 0.  0.
         14    1    1    2    0    0  0.18033911606E-01 -0.41398968309E-02  0.50948842257E-02  0.19191627311E-01  0.00000000000E+00 0. -1.
     999901    1    3    3    0    0 -0.75551889194E-01  0.83739434335E-01 -0.92178715240E-01  0.89197382045E+00  0.88000000000E+00 0.  1.
        -11    1    4    4    0    0  0.39768865723E-01 -0.38108802801E-01  0.47636629849E-01  0.72824124823E-01  0.51100000000E-03 0. -1.
         11    1    4    4    0    0  0.17749111865E-01 -0.41490734702E-01  0.39447201166E-01  0.59940427417E-01  0.51100000000E-03 0.  1.
</event>
<event>
 8    1  0.1086486E+005  0.1043930E+01  0.7957747E-01            NaN
         13   -1    0    0    0    0  0.00000000000E+00  0.00000000000E+00  0.74505805969E-08  0.10566000000E+00  0.10566000000E+00 0.  1.
     999900   -1    0    0    0    0 -0.00000000000E+00 -0.00000000000E+00 -0.74505805969E-08  0.93827000000E+00  0.93827000000E+00 0. -1.
     999902    2    1    2    0    0 -0.26966766563E-01 -0.24007585018E-02 -0.87626426605E-02  0.10154738223E+01  0.10150750365E+01 0.  0.
     999903    2    3    3    0    0  0.92497795198E-01 -0.74654373630E-01 -0.28862326605E-01  0.12424076432E+00  0.21762720519E-01 0.  0.
         14    1    1    2    0    0  0.26966766563E-01  0.24007585018E-02  0.87626426605E-02  0.28456177653E-01  0.00000000000E+00 0.  1.
     999901    1    3    3    0    0 -0.11946456176E+00  0.72253615129E-01  0.20099683944E-01  0.89123305802E+00  0.88000000000E+00 0.  1.
        -11    1    4    4    0    0  0.44305133620E-01 -0.26037071925E-01 -0.45451782106E-02  0.51592574519E-01  0.51100000000E-03 0.  1.
         11    1    4    4    0    0  0.48192661578E-01 -0.48617301706E-01 -0.24317148394E-01  0.72648189806E-01  0.51100000000E-03 0. -1.
</event>
<event>
 7    1  0.1086486E+005  0.1043930E+01  0.7957747E-01            NaN
         13   -1    0    0    0    0  0.00000000000E+00  0.00000000000E+00  0.74505805969E-08  0.10566000000E+00  0.10566000000E+00 0. -1.
     999900   -1    0    0    0    0 -0.00000000000E+00 -0.00000000000E+00 -0.74505805969E-08  0.93827000000E+00  0.93827000000E+00 0.  1.
     999903    2    1    2    0    0 -0.85975101668E-02 -0.10388794636E+00 -0.24422416507E-01  0.10853696962E+00  0.17810018683E-01 0.  0.
         14    1    1    2    0    0  0.45366419899E-02 -0.37713825498E-01  0.22327108372E-01  0.44061474357E-01  0.00000000000E+00 0. -1.
     999901    1    1    2    0    0  0.40608681769E-02  0.14160177186E+00  0.20953081352E-02  0.89133155602E+00  0.88000000000E+00 0.  1.
        -11    1    3    3    0    0 -0.23921990208E-02 -0.22527530920E-01 -0.13052412925E-01  0.26150312994E-01  0.51100000000E-03 0. -1.
         11    1    3    3    0    0 -0.62053111460E-02 -0.81360415444E-01 -0.11370003583E-01  0.82386656627E-01  0.51100000000E-03 0.  1.
</event>
<event>
 8    1  0.1086486E+005  0.1043930E+01  0.7957747E-01            NaN
         13   -1    0    0    0    0  0.00000000000E+00  0.00000000000E+00  0.74505805969E-08  0.10566000000E+00  0.10566000000E+00 0. -1.
     999900   -1    0    0    0    0 -0.00000000000E+00 -0.00000000000E+00 -0.74505805969E-08  0.93827000000E+00  0.93827000000E+00 0.  1.
     999902    2    1    2    0    0 -0.12052755094E-01 -0.19710738461E-01  0.11090903066E-01  0.10183020807E+01  0.10179795368E+01 0.  0.
     999903    2    3    3    0    0  0.97768798625E-01 -0.61190532990E-01  0.56755580883E-01  0.12933267190E+00  0.14238144067E-01 0.  0.
         14    1    1    2    0    0  0.12052755094E-01  0.19710738461E-01 -0.11090903066E-01  0.25627919285E-01  0.00000000000E+00 0. -1.
     999901    1    3    3    0    0 -0.10982155372E+00  0.41479794528E-01 -0.45664677817E-01  0.88896940882E+00  0.88000000000E+00 0.  1.
        -11    1    4    4    0    0  0.75275123768E-01 -0.48656460376E-01  0.50294823731E-01  0.10277950092E+00  0.51100000000E-03 0. -1.
         11    1    4    4    0    0  0.22493674857E-01 -0.12534072614E-01  0.64607571522E-02  0.26553170975E-01  0.51100000000E-03 0.  1.
</event>
<event>
 8    1  0.1086486E+005  0.1043930E+01  0.7957747E-01            NaN
         13   -1    0    0    0    0  0.00000000000E+00  0.00000000000E+00  0.74505805969E-08  0.10566000000E+00  0.10566000000E+00 0. -1.
     999900   -1    0    0    0    0 -0.00000000000E+00 -0.00000000000E+00 -0.74505805969E-08  0.93827000000E+00  0.93827000000E+00 0. -1.
     999902    2    1    2    0    0  0.57894118654E-02 -0.24510609006E-01 -0.10891778042E-01  0.10164906474E+01  0.10161202282E+01 0.  0.
     999903    2    3    3    0    0  0.20232382899E-01 -0.12633067328E+00  0.13093435385E-01  0.13017737580E+00  0.20147525715E-01 0.  0.
         14    1    1    2    0    0 -0.57894118654E-02  0.24510609006E-01  0.10891778042E-01  0.27439352625E-01  0.00000000000E+00 0. -1.
     999901    1    3    3    0    0 -0.14442971034E-01  0.10182006427E+00 -0.23985213427E-01  0.88631327157E+00  0.88000000000E+00 0. -1.
        -11    1    4    4    0    0  0.25151508759E-02 -0.54549004774E-01  0.13440214849E-01  0.56238958044E-01  0.51100000000E-03 0.  1.
         11    1    4    4    0    0  0.17717232023E-01 -0.71781668503E-01 -0.34677946405E-03  0.73938417759E-01  0.51100000000E-03 0. -1.
</event>
<event>
 8    1  0.1086486E+005  0.1043930E+01  0.7957747E-01            NaN
         13   -1    0    0    0    0  0.00000000000E+00  0.00000000000E+00  0.74505805969E-08  0.10566000000E+00  0.10566000000E+00 0. -1.
     999900   -1    0    0    0    0 -0.00000000000E+00 -0.00000000000E+00 -0.74505805969E-08  0.93827000000E+00  0.93827000000E+00 0.  1.
     999902    2    1    2    0    0  0.18630666562E-01 -0.95039842850E-02  0.11180555773E-01  0.10202143452E+01  0.10199386638E+01 0.  0.
     999903    2    3    3    0    0 -0.38474458303E-01 -0.91549116827E-01 -0.81060379951E-01  0.12976457726E+00  0.20162727467E-01 0.  0.
         14    1    1    2    0    0 -0.18630666562E-01  0.95039842850E-02 -0.11180555773E-01  0.23715654772E-01  0.00000000000E+00 0.  1.
     999901    1    3    3    0    0  0.57105124865E-01  0.82045132542E-01  0.92240935724E-01  0.89044976797E+00  0.88000000000E+00 0. -1.
        -11    1    4    4    0    0 -0.18531389446E-01 -0.42916750074E-01 -0.25391426633E-01  0.53200051684E-01  0.51100000000E-03 0. -1.
         11    1    4    4    0    0 -0.19943068857E-01 -0.48632366753E-01 -0.55668953318E-01  0.76564525572E-01  0.51100000000E-03 0.  1.
</event>
<event>
 8    1  0.1086486E+005  0.1043930E+01  0.7957747E-01            NaN
         13   -1    0    0    0    0  0.00000000000E+00  0.00000000000E+00  0.74505805969E-08  0.10566000000E+00  0.10566000000E+00 0. -1.
     999900   -1    0    0    0    0 -0.00000000000E+00 -0.00000000000E+00 -0.74505805969E-08  0.93827000000E+00  0.93827000000E+00 0.  1.
     999902    2    1    2    0    0 -0.75681923681E-02 -0.12340030793E-01 -0.18949884374E-01  0.10200835744E+01  0.10198048082E+01 0.  0.
     999903    2    3    3    0    0 -0.69403252149E-01  0.10055469490E+00 -0.42241593698E-01  0.13041436766E+00  0.17190025579E-01 0.  0.
         14    1    1    2    0    0  0.75681923681E-02  0.12340030793E-01  0.18949884374E-01  0.23846425591E-01  0.00000000000E+00 0. -1.
     999901    1    3    3    0    0  0.61835059781E-01 -0.11289472569E+00  0.23291709325E-01  0.88966920675E+00  0.88000000000E+00 0. -1.
        -11    1    4    4    0    0 -0.64363432618E-02  0.20482466319E-01 -0.86533315433E-02  0.23153816292E-01  0.51100000000E-03 0.  1.
         11    1    4    4    0    0 -0.62966908887E-01  0.80072228583E-01 -0.33588262155E-01  0.10726055137E+00  0.51100000000E-03 0. -1.
</event>
<event>
 8    1  0.1086486E+005  0.1043930E+01  0.7957747E-01            NaN
         13   -1    0    0    0    0  0.00000000000E+00  0.00000000000E+00  0.74505805969E-08  0.10566000000E+00  0.10566000000E+00 0.  1.
     999900   -1    0    0    0    0 -0.00000000000E+00 -0.00000000000E+00 -0.74505805969E-08  0.93827000000E+00  0.93827000000E+00 0. -1.
     999902    2    1    2    0    0  0.62647624573E-02 -0.13050363013E-01  0.18926722661E-01  0.10201018642E+01  0.10198235305E+01 0.  0.
     999903    2    3    3    0    0 -0.48402704772E-01 -0.96810691404E-01 -0.69104126975E-01  0.13007166527E+00  0.20691204437E-01 0.  0.
         14    1    1    2    0    0 -0.62647624573E-02  0.13050363013E-01 -0.18926722661E-01  0.23828135766E-01  0.00000000000E+00 0. -1.
     999901    1    3    3    0    0  0.54667467229E-01  0.83760328391E-01  0.88030849636E-01  0.89003019897E+00  0.88000000000E+00 0.  1.
        -11    1    4    4    0    0 -0.17872751226E-01 -0.32919571481E-01 -0.12750814509E-01  0.39572437561E-01  0.51100000000E-03 0. -1.
         11    1    4    4    0    0 -0.30529953546E-01 -0.63891119923E-01 -0.56353312466E-01  0.90499227706E-01  0.51100000000E-03 0.  1.
</event>
<event>
 8    1  0.1086486E+005  0.1043930E+01  0.7957747E-01            NaN
         13   -1    0    0    0    0  0.00000000000E+00  0.00000000000E+00  0.74505805969E-08  0.10566000000E+00  0.10566000000E+00 0.  1.
     999900   -1    0    0    0    0 -0.00000000000E+00 -0.00000000000E+00 -0.74505805969E-08  0.93827000000E+00  0.93827000000E+00 0.  1.
     999902    2    1    2    0    0 -0.14765808442E-01  0.69947266216E-02  0.16514889352E-01  0.10206986232E+01  0.10204342127E+01 0.  0.
     999903    2    3    3    0    0  0.62439088665E-01  0.12697454390E-01  0.11376478427E+00  0.13196319611E+00  0.20297631496E-01 0.  0.
         14    1    1    2    0    0  0.14765808442E-01 -0.69947266216E-02 -0.16514889352E-01  0.23231376837E-01  0.00000000000E+00 0. -1.
     999901    1    3    3    0    0 -0.77204897107E-01 -0.57027277683E-02 -0.97249894923E-01  0.88873542706E+00  0.88000000000E+00 0.  1.
        -11    1    4    4    0    0  0.30986471244E-01  0.61802461763E-02  0.76457732582E-01  0.82730906169E-01  0.51100000000E-03 0.  1.
         11    1    4    4    0    0  0.31452617421E-01  0.65172082136E-02  0.37307051693E-01  0.49232289938E-01  0.51100000000E-03 0. -1.
</event>
<event>
 8    1  0.1086486E+005  0.1043930E+01  0.7957747E-01            NaN
         13   -1    0    0    0    0  0.00000000000E+00  0.00000000000E+00  0.74505805969E-08  0.10566000000E+00  0.10566000000E+00 0.  1.
     999900   -1    0    0    0    0 -0.00000000000E+00 -0.00000000000E+00 -0.74505805969E-08  0.93827000000E+00  0.93827000000E+00 0. -1.
     999902    2    1    2    0    0  0.23772790260E-01 -0.78874579918E-02  0.11438273778E-01  0.10163947198E+01  0.10160216704E+01 0.  0.
     999903    2    3    3    0    0  0.82940783872E-01 -0.53548947344E-01 -0.80618146181E-01  0.12844190147E+00  0.15854752213E-01 0.  0.
         14    1    1    2    0    0 -0.23772790260E-01  0.78874579918E-02 -0.11438273778E-01  0.27535280230E-01  0.00000000000E+00 0. -1.
     999901    1    3    3    0    0 -0.59167993612E-01  0.45661489352E-01  0.92056419959E-01  0.88795281830E+00  0.88000000000E+00 0.  1.
        -11    1    4    4    0    0  0.61120241568E-01 -0.30762400930E-01 -0.54347207360E-01  0.87383575740E-01  0.51100000000E-03 0. -1.
         11    1    4    4    0    0  0.21820542304E-01 -0.22786546414E-01 -0.26270938821E-01  0.41058325727E-01  0.51100000000E-03 0.  1.
</event>
<event>
 8    1  0.1086486E+005  0.1043930E+01  0.7957747E-01            NaN
         13   -1    0    0    0    0  0.00000000000E+00  0.00000000000E+00  0.74505805969E-08  0.10566000000E+00  0.10566000000E+00 0.  1.
     999900   -1    0    0    0    0 -0.00000000000E+00 -0.00000000000E+00 -0.74505805969E-08  0.93827000000E+00  0.93827000000E+00 0.  1.
     999902    2    1    2    0    0 -0.46587696662E-02  0.22583839247E-01 -0.18816977119E-02  0.10207939952E+01  0.10205317761E+01 0.  0.
     999903    2    3    3    0    0 -0.76175638047E-01  0.91704726383E-01  0.56026887179E-01  0.13329990303E+00  0.20429571423E-01 0.  0.
         14    1    1    2    0    0  0.46587696662E-02 -0.22583839247E-01  0.18816977119E-02  0.23136004759E-01  0.00000000000E+00 0.  1.
     999901    1    3    3    0    0  0.71516868381E-01 -0.69120887137E-01 -0.57908584891E-01  0.88749409221E+00  0.88000000000E+00 0. -1.
        -11    1    4    4    0    0 -0.78382977158E-02  0.19330209476E-02  0.28985380393E-02  0.85929113128E-02  0.51100000000E-03 0. -1.
         11    1    4    4    0    0 -0.68337340332E-01  0.89771705436E-01  0.53128349140E-01  0.12470699172E+00  0.51100000000E-03 0.  1.
</event>
<event>
 8    1  0.1086486E+005  0.1043930E+01  0.7957747E-01            NaN
         13   -1    0    0    0    0  0.00000000000E+00  0.00000000000E+00  0.74505805969E-08  0.10566000000E+00  0.10566000000E+00 0.  1.
     999900   -1    0    0    0    0 -0.00000000000E+00 -0.00000000000E+00 -0.74505805969E-08  0.93827000000E+00  0.93827000000E+00 0.  1.
     999902    2    1    2    0    0 -0.16421832467E-02  0.23641204253E-01 -0.51301890021E-02  0.10196828941E+01  0.10193945666E+01 0.  0.
     999903    2    3    3    0    0 -0.67632128844E-01  0.90297010854E-01 -0.67132822875E-01  0.13252902016E+00  0.18151315552E-01 0.  0.
         14    1    1    2    0    0  0.16421832467E-02 -0.23641204253E-01  0.51301890021E-02  0.24247105880E-01  0.00000000000E+00 0.  1.
     999901    1    3    3    0    0  0.65989945598E-01 -0.66655806601E-01  0.62002633873E-01  0.88715387396E+00  0.88000000000E+00 0. -1.
        -11    1    4    4    0    0 -0.20392291908E-01  0.15485994678E-01 -0.18212124413E-01  0.31426170576E-01  0.51100000000E-03 0.  1.
         11    1    4    4    0    0 -0.47239836936E-01  0.74811016176E-01 -0.48920698462E-01  0.10110284958E+00  0.51100000000E-03 0. -1.
</event>
<event>
 8    1  0.1086486E+005  0.1043930E+01  0.7957747E-01            NaN
         13   -1    0    0    0    0  0.00000000000E+00  0.00000000000E+00  0.74505805969E-08  0.10566000000E+00  0.10566000000E+00 0.  1.
     999900   -1    0    0    0    0 -0.00000000000E+00 -0.00000000000E+00 -0.74505805969E-08  0.93827000000E+00  0.93827000000E+00 0. -1.
     999902    2    1    2    0    0  0.88590196509E-02  0.21939792186E-01 -0.19391395568E-02  0.10201898026E+01  0.10199135436E+01 0.  0.
     999903    2    3    3    0    0  0.12994619607E+00 -0.28711526038E-02 -0.31723195476E-02  0.13155083879E+00  0.20032528174E-01 0.  0.
         14    1    1    2    0    0 -0.88590196509E-02 -0.21939792186E-01  0.19391395568E-02  0.23740197399E-01  0.00000000000E+00 0. -1.
     999901    1    3    3    0    0 -0.12108717642E+00  0.24810944789E-01  0.12331799908E-02  0.88863896381E+00  0.88000000000E+00 0. -1.
        -11    1    4    4    0    0  0.56968277194E-01  0.47072285382E-02  0.65444360261E-02  0.57538103643E-01  0.51100000000E-03 0.  1.
         11    1    4    4    0    0  0.72977918873E-01 -0.75783811420E-02 -0.97167555737E-02  0.74012735145E-01  0.51100000000E-03 0. -1.
</event>
<event>
 8    1  0.1086486E+005  0.1043930E+01  0.7957747E-01            NaN
         13   -1    0    0    0    0  0.00000000000E+00  0.00000000000E+00  0.74505805969E-08  0.10566000000E+00  0.10566000000E+00 0.  1.
     999900   -1    0    0    0    0 -0.00000000000E+00 -0.00000000000E+00 -0.74505805969E-08  0.93827000000E+00  0.93827000000E+00 0.  1.
     999902    2    1    2    0    0  0.11651750579E-01  0.13170142551E-01  0.14852633063E-01  0.10209122535E+01  0.10206527385E+01 0.  0.
     999903    2    3    3    0    0  0.62161021968E-01  0.43442363033E-01 -0.10540540374E+00  0.13078328010E+00  0.15579976169E-01 0.  0.
         14    1    1    2    0    0 -0.11651750579E-01 -0.13170142551E-01 -0.14852633063E-01  0.23017746529E-01  0.00000000000E+00 0. -1.
     999901    1    3    3    0    0 -0.50509271389E-01 -0.30272220483E-01  0.12025803680E+00  0.89012897338E+00  0.88000000000E+00 0. -1.
        -11    1    4    4    0    0  0.39787799435E-01  0.18411067331E-01 -0.59798157711E-01  0.74149289753E-01  0.51100000000E-03 0.  1.
         11    1    4    4    0    0  0.22373222533E-01  0.25031295703E-01 -0.45607246026E-01  0.56633990342E-01  0.51100000000E-03 0. -1.
</event>
<event>
 8    1  0.1086486E+005  0.1043930E+01  0.7957747E-01            NaN
         13   -1    0    0    0    0  0.00000000000E+00  0.00000000000E+00  0.74505805969E-08  0.10566000000E+00  0.10566000000E+00 0. -1.
     999900   -1    0    0    0    0 -0.00000000000E+00 -0.00000000000E+00 -0.74505805969E-08  0.93827000000E+00  0.93827000000E+00 0. -1.
     999902    2    1    2    0    0 -0.14338229832E-02 -0.19658267604E-01  0.10005980649E-01  0.10218251819E+01  0.10215860607E+01 0.  0.
     999903    2    3    3    0    0 -0.95286311997E-01  0.19394662219E-01 -0.85436441926E-01  0.13084668777E+00  0.19126837517E-01 0.  0.
         14    1    1    2    0    0  0.14338229832E-02  0.19658267604E-01 -0.10005980649E-01  0.22104818079E-01  0.00000000000E+00 0.  1.
     999901    1    3    3    0    0  0.93852489014E-01 -0.39052929823E-01  0.95442422575E-01  0.89097849416E+00  0.88000000000E+00 0.  1.
        -11    1    4    4    0    0 -0.48520590410E-01  0.17536994261E-01 -0.52536903408E-01  0.73635461580E-01  0.51100000000E-03 0.  1.
         11    1    4    4    0    0 -0.46765721588E-01  0.18576679582E-02 -0.32899538518E-01  0.57211226185E-01  0.51100000000E-03 0. -1.
</event>
<event>
 8    1  0.1086486E+005  0.1043930E+01  0.7957747E-01            NaN
         13   -1    0    0    0    0  0.00000000000E+00  0.00000000000E+00  0.74505805969E-08  0.10566000000E+00  0.10566000000E+00 0. -1.
     999900   -1    0    0    0    0 -0.00000000000E+00 -0.00000000000E+00 -0.74505805969E-08  0.93827000000E+00  0.93827000000E+00 0.  1.
     999902    2    1    2    0    0 -0.13941493053E-01  0.12283633486E-01 -0.13617482618E-01  0.10208933181E+01  0.10206333711E+01 0.  0.
     999903    2    3    3    0    0  0.92960467178E-01  0.11356144742E-01 -0.89695589661E-01  0.13116483833E+00  0.19705469508E-01 0.  0.
         14    1    1    2    0    0  0.13941493053E-01 -0.12283633486E-01  0.13617482618E-01  0.23036681901E-01  0.00000000000E+00 0. -1.
     999901    1    3    3    0    0 -0.10690196023E+00  0.92748874391E-03  0.76078107043E-01  0.88972847977E+00  0.88000000000E+00 0. -1.
        -11    1    4    4    0    0  0.28439574612E-01 -0.51845033618E-02 -0.30912476628E-01  0.42326478846E-01  0.51100000000E-03 0.  1.
         11    1    4    4    0    0  0.64520892567E-01  0.16540648104E-01 -0.58783113033E-01  0.88838359486E-01  0.51100000000E-03 0. -1.
</event>
<event>
 8    1  0.1086486E+005  0.1043930E+01  0.7957747E-01            NaN
         13   -1    0    0    0    0  0.00000000000E+00  0.00000000000E+00  0.74505805969E-08  0.10566000000E+00  0.10566000000E+00 0. -1.
     999900   -1    0    0    0    0 -0.00000000000E+00 -0.00000000000E+00 -0.74505805969E-08  0.93827000000E+00  0.93827000000E+00 0.  1.
     999902    2    1    2    0    0  0.96952889529E-02 -0.26811490318E-01  0.71071365188E-02  0.10145469091E+01  0.10141213264E+01 0.  0.
     999903    2    3    3    0    0 -0.79155996246E-01  0.82489471479E-01  0.39898791305E-01  0.12274169284E+00  0.20085441687E-01 0.  0.
         14    1    1    2    0    0 -0.96952889529E-02  0.26811490318E-01 -0.71071365188E-02  0.29383090894E-01  0.00000000000E+00 0.  1.
     999901    1    3    3    0    0  0.88851285199E-01 -0.10930096180E+00 -0.32791654786E-01  0.89180521626E+00  0.88000000000E+00 0.  1.
        -11    1    4    4    0    0 -0.55298256434E-01  0.43549850554E-01  0.23203899661E-01  0.74115914137E-01  0.51100000000E-03 0. -1.
         11    1    4    4    0    0 -0.23857739812E-01  0.38939620925E-01  0.16694891643E-01  0.48625778705E-01  0.51100000000E-03 0.  1.
</event>
<event>
 8    1  0.1086486E+005  0.1043930E+01  0.7957747E-01            NaN
         13   -1    0    0    0    0  0.00000000000E+00  0.00000000000E+00  0.74505805969E-08  0.10566000000E+00  0.10566000000E+00 0.  1.
     999900   -1    0    0    0    0 -0.00000000000E+00 -0.00000000000E+00 -0.74505805969E-08  0.93827000000E+00  0.93827000000E+00 0.  1.
     999902    2    1    2    0    0 -0.85913082396E-02  0.89748141979E-02  0.19189843433E-01  0.10210693798E+01  0.10208134356E+01 0.  0.
     999903    2    3    3    0    0 -0.39849695857E-01  0.69846015803E-01 -0.10047381441E+00  0.13033834235E+00  0.20655070120E-01 0.  0.
         14    1    1    2    0    0  0.85913082396E-02 -0.89748141979E-02 -0.19189843433E-01  0.22860620248E-01  0.00000000000E+00 0. -1.
     999901    1    3    3    0    0  0.31258387618E-01 -0.60871201605E-01  0.11966365784E+00  0.89073103740E+00  0.88000000000E+00 0. -1.
        -11    1    4    4    0    0 -0.15842358020E-01  0.15122089181E-01 -0.17262624247E-01  0.27891167163E-01  0.51100000000E-03 0. -1.
         11    1    4    4    0    0 -0.24007337838E-01  0.54723926622E-01 -0.83211190161E-01  0.10244717519E+00  0.51100000000E-03 0.  1.
</event>
<event>
 8    1  0.1086486E+005  0.1043930E+01  0.7957747E-01            NaN
         13   -1    0    0    0    0  0.00000000000E+00  0.00000000000E+00  0.74505805969E-08  0.10566000000E+00  0.10566000000E+00 0. -1.
     999900   -1    0    0    0    0 -0.00000000000E+00 -0.00000000000E+00 -0.74505805969E-08  0.93827000000E+00  0.93827000000E+00 0.  1.
     999902    2    1    2    0    0 -0.16901046539E-01 -0.16561299791E-01  0.28428709375E-02  0.10200971668E+01  0.10198187220E+01 0.  0.
     999903    2    3    3    0    0 -0.71887012233E-01 -0.11048646076E+00 -0.25888378397E-03  0.13338694737E+00  0.20420826864E-01 0.  0.
         14    1    1    2    0    0  0.16901046539E-01  0.16561299791E-01 -0.28428709375E-02  0.23832833236E-01  0.00000000000E+00 0.  1.
     999901    1    3    3    0    0  0.54985965694E-01  0.93925160970E-01  0.31017547215E-02  0.88671021939E+00  0.88000000000E+00 0. -1.
        -11    1    4    4    0    0 -0.18954968784E-01 -0.45935368918E-01 -0.37290011805E-02  0.49834882663E-01  0.51100000000E-03 0.  1.
         11    1    4    4    0    0 -0.52932043449E-01 -0.64551091843E-01  0.34701173965E-02  0.83552064712E-01  0.51100000000E-03 0. -1.
</event>
<event>
 8    1  0.1086486E+005  0.1043930E+01  0.7957747E-01            NaN
         13   -1    0    0    0    0  0.00000000000E+00  0.00000000000E+00  0.74505805969E-08  0.10566000000E+00  0.10566000000E+00 0. -1.
     999900   -1    0    0    0    0 -0.00000000000E+00 -0.00000000000E+00 -0.74505805969E-08  0.93827000000E+00  0.93827000000E+00 0.  1.
     999902    2    1    2    0    0  0.18323992023E-01  0.13795807552E-01 -0.49728909741E-02  0.10204603891E+01  0.10201904642E+01 0.  0.
     999903    2    3    3    0    0 -0.10672789135E+00 -0.51287509581E-01 -0.44702941675E-01  0.12835485242E+00  0.21339252883E-01 0.  0.
         14    1    1    2    0    0 -0.18323992023E-01 -0.13795807552E-01  0.49728909741E-02  0.23469610869E-01  0.00000000000E+00 0. -1.
     999901    1    3    3    0    0  0.12505188338E+00  0.65083317133E-01  0.39730050701E-01  0.89210553671E+00  0.88000000000E+00 0.  1.
        -11    1    4    4    0    0 -0.68607819185E-02 -0.62547916609E-02 -0.94822952004E-02  0.13280353554E-01  0.51100000000E-03 0. -1.
         11    1    4    4    0    0 -0.99867109433E-01 -0.45032717920E-01 -0.35220646475E-01  0.11507449886E+00  0.51100000000E-03 0.  1.
</event>
<event>
 8    1  0.1086486E+005  0.1043930E+01  0.7957747E-01            NaN
         13   -1    0    0    0    0  0.00000000000E+00  0.00000000000E+00  0.74505805969E-08  0.10566000000E+00  0.10566000000E+00 0.  1.
     999900   -1    0    0    0    0 -0.00000000000E+00 -0.00000000000E+00 -0.74505805969E-08  0.93827000000E+00  0.93827000000E+00 0. -1.
     999902    2    1    2    0    0 -0.20310915634E-01  0.11905905203E-01  0.64352032411E-03  0.10203779727E+01  0.10201061264E+01 0.  0.
     999903    2    3    3    0    0  0.23036394173E-01 -0.12427731704E+00  0.14863606861E-01  0.12873506762E+00  0.19397521464E-01 0.  0.
         14    1    1    2    0    0  0.20310915634E-01 -0.11905905203E-01 -0.64352032411E-03  0.23552027322E-01  0.00000000000E+00 0. -1.
     999901    1    3    3    0    0 -0.43347309807E-01  0.13618322224E+00 -0.14220086537E-01  0.89164290506E+00  0.88000000000E+00 0. -1.
        -11    1    4    4    0    0  0.12253341388E-01 -0.24069098612E-01  0.49186314393E-02  0.27457602580E-01  0.51100000000E-03 0. -1.
         11    1    4    4    0    0  0.10783052785E-01 -0.10020821842E+00  0.99449754216E-02  0.10127746504E+00  0.51100000000E-03 0.  1.
</event>
<event>
 8    1  0.1086486E+005  0.1043930E+01  0.7957747E-01            NaN
         13   -1    0    0    0    0  0.00000000000E+00  0.00000000000E+00  0.74505805969E-08  0.10566000000E+00  0.10566000000E+00 0.  1.
     999900   -1    0    0    0    0 -0.00000000000E+00 -0.00000000000E+00 -0.74505805969E-08  0.93827000000E+00  0.93827000000E+00 0. -1.
     999902    2    1    2    0    0  0.12866616543E-01  0.18011781811E-01 -0.72169082166E-02  0.10206478637E+01  0.10203822832E+01 0.  0.
     999903    2    3    3    0    0  0.49022443755E-01 -0.11596297002E+00 -0.23850378183E-01  0.12961859917E+00  0.19532800697E-01 0.  0.
         14    1    1    2    0    0 -0.12866616543E-01 -0.18011781811E-01  0.72169082166E-02  0.23282136274E-01  0.00000000000E+00 0.  1.
     999901    1    3    3    0    0 -0.36155827212E-01  0.13397475184E+00  0.16633469966E-01  0.89102926456E+00  0.88000000000E+00 0.  1.
        -11    1    4    4    0    0  0.40615300742E-01 -0.75164555579E-01 -0.20250106664E-01  0.87804561446E-01  0.51100000000E-03 0. -1.
         11    1    4    4    0    0  0.84071430125E-02 -0.40798414445E-01 -0.36002715187E-02  0.41814037725E-01  0.51100000000E-03 0.  1.
</event>
<event>
 8    1  0.1086486E+005  0.1043930E+01  0.7957747E-01            NaN
         13   -1    0    0    0    0  0.00000000000E+00  0.00000000000E+00  0.74505805969E-08  0.10566000000E+00  0.10566000000E+00 0.  1.
     999900   -1    0    0    0    0 -0.00000000000E+00 -0.00000000000E+00 -0.74505805969E-08  0.93827000000E+00  0.93827000000E+00 0.  1.
     999902    2    1    2    0    0 -0.20248804498E-01  0.63452228858E-02  0.10794765063E-01  0.10201223775E+01  0.10198445284E+01 0.  0.
     999903    2    3    3    0    0 -0.25523773100E-01 -0.61621461148E-01 -0.10926266905E+00  0.12935805236E+00  0.18614709102E-01 0.  0.
         14    1    1    2    0    0  0.20248804498E-01 -0.63452228858E-02 -0.10794765063E-01  0.23807622515E-01  0.00000000000E+00 0. -1.
     999901    1    3    3    0    0  0.52749686015E-02  0.67966684033E-01  0.12005743411E+00  0.89076432513E+00  0.88000000000E+00 0. -1.
        -11    1    4    4    0    0 -0.25252703564E-02 -0.28056493866E-01 -0.51475793040E-01  0.58681873083E-01  0.51100000000E-03 0.  1.
         11    1    4    4    0    0 -0.22998502743E-01 -0.33564967281E-01 -0.57786876009E-01  0.70676179275E-01  0.51100000000E-03 0. -1.
</event>
<event>
 8    1  0.1086486E+005  0.1043930E+01  0.7957747E-01            NaN
         13   -1    0    0    0    0  0.00000000000E+00  0.00000000000E+00  0.74505805969E-08  0.10566000000E+00  0.10566000000E+00 0.  1.
     999900   -1    0    0    0    0 -0.00000000000E+00 -0.00000000000E+00 -0.74505805969E-08  0.93827000000E+00  0.93827000000E+00 0.  1.
     999902    2    1    2    0    0 -0.82822547990E-02  0.79530579836E-02  0.25572107459E-01  0.10158982402E+01  0.10155114253E+01 0.  0.
     999903    2    3    3    0    0 -0.39246641695E-01 -0.74458476289E-01  0.95453340858E-01  0.12874896248E+00  0.19508753999E-01 0.  0.
         14    1    1    2    0    0  0.82822547990E-02 -0.79530579836E-02 -0.25572107459E-01  0.28031759769E-01  0.00000000000E+00 0. -1.
     999901    1    3    3    0    0  0.30964386896E-01  0.82411534273E-01 -0.69881233399E-01  0.88714927775E+00  0.88000000000E+00 0. -1.
        -11    1    4    4    0    0 -0.16541319602E-01 -0.39277420975E-01  0.61568388354E-01  0.74881630713E-01  0.51100000000E-03 0. -1.
         11    1    4    4    0    0 -0.22705322093E-01 -0.35181055314E-01  0.33884952503E-01  0.53867331765E-01  0.51100000000E-03 0.  1.
</event>
<event>
 8    1  0.1086486E+005  0.1043930E+01  0.7957747E-01            NaN
         13   -1    0    0    0    0  0.00000000000E+00  0.00000000000E+00  0.74505805969E-08  0.10566000000E+00  0.10566000000E+00 0.  1.
     999900   -1    0    0    0    0 -0.00000000000E+00 -0.00000000000E+00 -0.74505805969E-08  0.93827000000E+00  0.93827000000E+00 0. -1.
     999902    2    1    2    0    0 -0.71850140323E-02 -0.68489980943E-02 -0.20361874509E-01  0.10212774254E+01  0.10210261704E+01 0.  0.
     999903    2    3    3    0    0 -0.10825599170E+00 -0.53538611237E-01  0.47984184749E-01  0.13163342566E+00  0.20955527491E-01 0.  0.
         14    1    1    2    0    0  0.71850140323E-02  0.68489980943E-02  0.20361874509E-01  0.22652574579E-01  0.00000000000E+00 0.  1.
     999901    1    3    3    0    0  0.10107097767E+00  0.46689613143E-01 -0.68346059258E-01  0.88964399976E+00  0.88000000000E+00 0. -1.
        -11    1    4    4    0    0 -0.91182294854E-01 -0.52199679206E-01  0.44731703494E-01  0.11419371183E+00  0.51100000000E-03 0. -1.
         11    1    4    4    0    0 -0.17073696844E-01 -0.13389320312E-02  0.32524812557E-02  0.17439713823E-01  0.51100000000E-03 0.  1.
</event>
<event>
 8    1  0.1086486E+005  0.1043930E+01  0.7957747E-01            NaN
         13   -1    0    0    0    0  0.00000000000E+00  0.00000000000E+00  0.74505805969E-08  0.10566000000E+00  0.10566000000E+00 0. -1.
     999900   -1    0    0    0    0 -0.00000000000E+00 -0.00000000000E+00 -0.74505805969E-08  0.93827000000E+00  0.93827000000E+00 0. -1.
     999902    2    1    2    0    0  0.33475190731E-02 -0.21224568825E-01  0.30307700433E-01  0.10067783525E+01  0.10060926429E+01 0.  0.
     999903    2    3    3    0    0 -0.12054679140E-01  0.10879977234E+00 -0.24378343970E-01  0.11541191806E+00  0.27256218131E-01 0.  0.
         14    1    1    2    0    0 -0.33475190731E-02  0.21224568825E-01 -0.30307700433E-01  0.37151647491E-01  0.00000000000E+00 0.  1.
     999901    1    3    3    0    0  0.15402198213E-01 -0.13002434116E+00  0.54686044403E-01  0.89136643445E+00  0.88000000000E+00 0. -1.
        -11    1    4    4    0    0 -0.16677744624E-01  0.88147101858E-01 -0.11037082164E-01  0.90388810344E-01  0.51100000000E-03 0.  1.
         11    1    4    4    0    0  0.46230654848E-02  0.20652670478E-01 -0.13341261806E-01  0.25023107720E-01  0.51100000000E-03 0. -1.
</event>
<event>
 8    1  0.1086486E+005  0.1043930E+01  0.7957747E-01            NaN
         13   -1    0    0    0    0  0.00000000000E+00  0.00000000000E+00  0.74505805969E-08  0.10566000000E+00  0.10566000000E+00 0.  1.
     999900   -1    0    0    0    0 -0.00000000000E+00 -0.00000000000E+00 -0.74505805969E-08  0.93827000000E+00  0.93827000000E+00 0.  1.
     999902    2    1    2    0    0 -0.23087848651E-01  0.30761651071E-02  0.38907509728E-02  0.10203153967E+01  0.10200420870E+01 0.  0.
     999903    2    3    3    0    0 -0.36348251994E-01  0.88487691107E-01  0.88686992410E-01  0.13202413271E+00  0.20340159663E-01 0.  0.
         14    1    1    2    0    0  0.23087848651E-01 -0.30761651071E-02 -0.38907509728E-02  0.23614603326E-01  0.00000000000E+00 0. -1.
     999901    1    3    3    0    0  0.13260403343E-01 -0.85411526000E-01 -0.84796241437E-01  0.88829126396E+00  0.88000000000E+00 0.  1.
        -11    1    4    4    0    0 -0.24410627285E-01  0.69436123496E-01  0.77588201994E-01  0.10694598721E+00  0.51100000000E-03 0. -1.
         11    1    4    4    0    0 -0.11937624709E-01  0.19051567611E-01  0.11098790416E-01  0.25078145502E-01  0.51100000000E-03 0.  1.
</event>
<event>
 7    1  0.1086486E+005  0.1043930E+01  0.7957747E-01            NaN
         13   -1    0    0    0    0  0.00000000000E+00  0.00000000000E+00  0.74505805969E-08  0.10566000000E+00  0.10566000000E+00 0.  1.
     999900   -1    0    0    0    0 -0.00000000000E+00 -0.00000000000E+00 -0.74505805969E-08  0.93827000000E+00  0.93827000000E+00 0.  1.
     999902    2    1    2    0    0  0.29586626093E-02  0.21102090740E-01  0.95456864950E-02  0.10205810804E+01  0.10203139564E+01 0.  0.
         14    1    1    2    0    0 -0.29586626093E-02 -0.21102090740E-01 -0.95456864950E-02  0.23348919647E-01  0.00000000000E+00 0. -1.
     999901    1    3    3    0    0 -0.16423602696E-01  0.11699631345E+00  0.91869415518E-01  0.89263534637E+00  0.88000000000E+00 0. -1.
        -11    1    3    3    0    0  0.14255909209E-01 -0.59577813230E-01 -0.51849631943E-01  0.80258284496E-01  0.51100000000E-03 0. -1.
         11    1    3    3    0    0  0.51263560963E-02 -0.36316409481E-01 -0.30474097080E-01  0.47687449484E-01  0.51100000000E-03 0.  1.
</event>
<event>
 8    1  0.1086486E+005  0.1043930E+01  0.7957747E-01            NaN
         13   -1    0    0    0    0  0.00000000000E+00  0.00000000000E+00  0.74505805969E-08  0.10566000000E+00  0.10566000000E+00 0. -1.
     999900   -1    0    0    0    0 -0.00000000000E+00 -0.00000000000E+00 -0.74505805969E-08  0.93827000000E+00  0.93827000000E+00 0.  1.
     999902    2    1    2    0    0 -0.17140572452E-01  0.15381404365E-01 -0.77478808543E-02  0.10196315128E+01  0.10193419472E+01 0.  0.
     999903    2    3    3    0    0  0.10160754643E+00  0.64839489982E-01 -0.42930143871E-01  0.12958375584E+00  0.20510962275E-01 0.  0.
         14    1    1    2    0    0  0.17140572452E-01 -0.15381404365E-01  0.77478808543E-02  0.24298487236E-01  0.00000000000E+00 0. -1.
     999901    1    3    3    0    0 -0.11874811888E+00 -0.49458085617E-01  0.35182263016E-01  0.89004775692E+00  0.88000000000E+00 0.  1.
        -11    1    4    4    0    0  0.78836196286E-01  0.50258866198E-01 -0.42073936666E-01  0.10252598082E+00  0.51100000000E-03 0.  1.
         11    1    4    4    0    0  0.22771350141E-01  0.14580623784E-01 -0.85620720490E-03  0.27057775018E-01  0.51100000000E-03 0. -1.
</event>
<event>
 8    1  0.1086486E+005  0.1043930E+01  0.7957747E-01            NaN
         13   -1    0    0    0    0  0.00000000000E+00  0.00000000000E+00  0.74505805969E-08  0.10566000000E+00  0.10566000000E+00 0. -1.
     999900   -1    0    0    0    0 -0.00000000000E+00 -0.00000000000E+00 -0.74505805969E-08  0.93827000000E+00  0.93827000000E+00 0. -1.
     999902    2    1    2    0    0  0.77632848140E-02  0.14466251342E-01 -0.16346729068E-01  0.10207619925E+01  0.10204990391E+01 0.  0.
     999903    2    3    3    0    0  0.10355650014E+00 -0.74517662646E-01  0.18102940146E-01  0.13043550367E+00  0.20220618386E-01 0.  0.
         14    1    1    2    0    0 -0.77632848140E-02 -0.14466251342E-01  0.16346729068E-01  0.23168007471E-01  0.00000000000E+00 0. -1.
     999901    1    3    3    0    0 -0.95793215329E-01  0.88983913988E-01 -0.34449669214E-01  0.89032648886E+00  0.88000000000E+00 0. -1.
        -11    1    4    4    0    0  0.64428639024E-02 -0.10365613282E-01  0.53925732523E-02  0.13352804996E-01  0.51100000000E-03 0. -1.
         11    1    4    4    0    0  0.97113636241E-01 -0.64152049364E-01  0.12710366894E-01  0.11708269868E+00  0.51100000000E-03 0.  1.
</event>
<event>
 8    1  0.1086486E+005  0.1043930E+01  0.7957747E-01            NaN
         13   -1    0    0    0    0  0.00000000000E+00  0.00000000000E+00  0.74505805969E-08  0.10566000000E+00  0.10566000000E+00 0. -1.
     999900   -1    0    0    0    0 -0.00000000000E+00 -0.00000000000E+00 -0.74505805969E-08  0.93827000000E+00  0.93827000000E+00 0.  1.
     999902    2    1    2    0    0  0.18017508082E-01  0.16774298988E-02  0.14372894670E-01  0.10208210305E+01  0.10205594309E+01 0.  0.
     999903    2    3    3    0    0 -0.13066539864E-01 -0.60326472341E-01  0.11534156015E+00  0.13233615540E+00  0.19979109090E-01 0.  0.
         14    1    1    2    0    0 -0.18017508082E-01 -0.16774298988E-02 -0.14372894670E-01  0.23108969465E-01  0.00000000000E+00 0. -1.
     999901    1    3    3    0    0  0.31084047946E-01  0.62003902240E-01 -0.10096866548E+00  0.88848487513E+00  0.88000000000E+00 0.  1.
        -11    1    4    4    0    0  0.31563275250E-02 -0.25189401850E-01  0.56003427986E-01  0.61490758950E-01  0.51100000000E-03 0.  1.
         11    1    4    4    0    0 -0.16222867389E-01 -0.35137070491E-01  0.59338132163E-01  0.70845396453E-01  0.51100000000E-03 0. -1.
</event>
<event>
 8    1  0.1086486E+005  0.1043930E+01  0.7957747E-01            NaN
         13   -1    0    0    0    0  0.00000000000E+00  0.00000000000E+00  0.74505805969E-08  0.10566000000E+00  0.10566000000E+00 0. -1.
     999900   -1    0    0    0    0 -0.00000000000E+00 -0.00000000000E+00 -0.74505805969E-08  0.93827000000E+00  0.93827000000E+00 0. -1.
     999902    2    1    2    0    0  0.70292467264E-03  0.36767229610E-02  0.24312370892E-01  0.10193311428E+01  0.10190342855E+01 0.  0.
     999903    2    3    3    0    0 -0.74816240642E-01  0.10317472702E+00  0.19397239743E-01  0.13049642500E+00  0.20262523718E-01 0.  0.
         14    1    1    2    0    0 -0.70292467264E-03 -0.36767229610E-02 -0.24312370892E-01  0.24598857153E-01  0.00000000000E+00 0.  1.
     999901    1    3    3    0    0  0.75519165315E-01 -0.99498004061E-01  0.49151311485E-02  0.88883471785E+00  0.88000000000E+00 0. -1.
        -11    1    4    4    0    0 -0.54172974690E-01  0.86009700037E-01  0.20177327942E-01  0.10363283925E+00  0.51100000000E-03 0.  1.
         11    1    4    4    0    0 -0.20643265952E-01  0.17165026985E-01 -0.78008819890E-03  0.26863585746E-01  0.51100000000E-03 0. -1.
</event>
<event>
 8    1  0.1086486E+005  0.1043930E+01  0.7957747E-01            NaN
         13   -1    0    0    0    0  0.00000000000E+00  0.00000000000E+00  0.74505805969E-08  0.10566000000E+00  0.10566000000E+00 0.  1.
     999900   -1    0    0    0    0 -0.00000000000E+00 -0.00000000000E+00 -0.74505805969E-08  0.93827000000E+00  0.93827000000E+00 0.  1.
     999902    2    1    2    0    0 -0.91009257516E-02  0.20738059117E-01 -0.67877410645E-02  0.10202875091E+01  0.10200135460E+01 0.  0.
     999903    2    3    3    0    0 -0.19231891623E-01 -0.11731879436E+00  0.43308338070E-01  0.12805886781E+00  0.19745792277E-01 0.  0.
         14    1    1    2    0    0  0.91009257516E-02 -0.20738059117E-01  0.67877410645E-02  0.23642490863E-01  0.00000000000E+00 0.  1.
     999901    1    3    3    0    0  0.10130965872E-01  0.13805685348E+00 -0.50096079134E-01  0.89222864133E+00  0.88000000000E+00 0.  1.
        -11    1    4    4    0    0 -0.17162309984E-01 -0.63958818508E-01  0.16228933589E-01  0.68182950621E-01  0.51100000000E-03 0. -1.
         11    1    4    4    0    0 -0.20695816396E-02 -0.53359975851E-01  0.27079404481E-01  0.59875917187E-01  0.51100000000E-03 0.  1.
</event>
<event>
 8    1  0.1086486E+005  0.1043930E+01  0.7957747E-01            NaN
         13   -1    0    0    0    0  0.00000000000E+00  0.00000000000E+00  0.74505805969E-08  0.10566000000E+00  0.10566000000E+00 0. -1.
     999900   -1    0    0    0    0 -0.00000000000E+00 -0.00000000000E+00 -0.74505805969E-08  0.93827000000E+00  0.93827000000E+00 0.  1.
     999902    2    1    2    0    0 -0.17247353986E-02  0.20801984443E-01  0.14690619526E-01  0.10184052753E+01  0.10180853565E+01 0.  0.
     999903    2    3    3    0    0 -0.46524868093E-01 -0.11577746133E+00  0.10414714437E-01  0.12673309324E+00  0.19591496688E-01 0.  0.
         14    1    1    2    0    0  0.17247353986E-02 -0.20801984443E-01 -0.14690619526E-01  0.25524724700E-01  0.00000000000E+00 0.  1.
     999901    1    3    3    0    0  0.44800132695E-01  0.13657944577E+00  0.42759050898E-02  0.89167218206E+00  0.88000000000E+00 0. -1.
        -11    1    4    4    0    0 -0.37040763952E-01 -0.10273686640E+00  0.37441184490E-02  0.10927562151E+00  0.51100000000E-03 0. -1.
         11    1    4    4    0    0 -0.94841041412E-02 -0.13040594928E-01  0.66705959876E-02  0.17457471732E-01  0.51100000000E-03 0.  1.
</event>
<event>
 8    1  0.1086486E+005  0.1043930E+01  0.7957747E-01            NaN
         13   -1    0    0    0    0  0.00000000000E+00  0.00000000000E+00  0.74505805969E-08  0.10566000000E+00  0.10566000000E+00 0.  1.
     999900   -1    0    0    0    0 -0.00000000000E+00 -0.00000000000E+00 -0.74505805969E-08  0.93827000000E+00  0.93827000000E+00 0.  1.
     999902    2    1    2    0    0 -0.22407021899E-02  0.26251760478E-01 -0.38652972802E-02  0.10173007642E+01  0.10169521762E+01 0.  0.
     999903    2    3    3    0    0  0.90441281333E-01  0.91180774018E-01 -0.24758093647E-02  0.13005352837E+00  0.20352682622E-01 0.  0.
         14    1    1    2    0    0  0.22407021899E-02 -0.26251760478E-01  0.38652972802E-02  0.26629235768E-01  0.00000000000E+00 0.  1.
     999901    1    3    3    0    0 -0.92681983522E-01 -0.64929013540E-01 -0.13894879155E-02  0.88724723586E+00  0.88000000000E+00 0.  1.
        -11    1    4    4    0    0  0.17821874640E-01  0.21648165433E-01 -0.85760589954E-02  0.29326987421E-01  0.51100000000E-03 0. -1.
         11    1    4    4    0    0  0.72619406693E-01  0.69532608585E-01  0.61002496307E-02  0.10072654095E+00  0.51100000000E-03 0.  1.
</event>
<event>
 8    1  0.1086486E+005  0.1043930E+01  0.7957747E-01            NaN
         13   -1    0    0    0    0  0.00000000000E+00  0.00000000000E+00  0.74505805969E-08  0.10566000000E+00  0.10566000000E+00 0.  1.
     999900   -1    0    0    0    0 -0.00000000000E+00 -0.00000000000E+00 -0.74505805969E-08  0.93827000000E+00  0.93827000000E+00 0. -1.
     999902    2    1    2    0    0  0.84542069407E-02  0.22009734242E-01  0.43043965063E-02  0.10199627339E+01  0.10196811014E+01 0.  0.
     999903    2    3    3    0    0 -0.36847950666E-02 -0.11167043199E+00 -0.57574639795E-01  0.12763613596E+00  0.22187405397E-01 0.  0.
         14    1    1    2    0    0 -0.84542069407E-02 -0.22009734242E-01 -0.43043965063E-02  0.23967266128E-01  0.00000000000E+00 0.  1.
     999901    1    3    3    0    0  0.12139002007E-01  0.13368016623E+00  0.61879036301E-01  0.89232659792E+00  0.88000000000E+00 0.  1.
        -11    1    4    4    0    0 -0.83445436696E-02 -0.54366362550E-01 -0.18151206567E-01  0.57922881548E-01  0.51100000000E-03 0. -1.
         11    1    4    4    0    0  0.46597486030E-02 -0.57304069442E-01 -0.39423433228E-01  0.69713254408E-01  0.51100000000E-03 0.  1.
</event>
<event>
 8    1  0.1086486E+005  0.1043930E+01  0.7957747E-01            NaN
         13   -1    0    0    0    0  0.00000000000E+00  0.00000000000E+00  0.74505805969E-08  0.10566000000E+00  0.10566000000E+00 0.  1.
     999900   -1    0    0    0    0 -0.00000000000E+00 -0.00000000000E+00 -0.74505805969E-08  0.93827000000E+00  0.93827000000E+00 0. -1.
     999902    2    1    2    0    0  0.16638370916E-01 -0.24782394554E-03 -0.17750165398E-01  0.10195996655E+01  0.10193093313E+01 0.  0.
     999903    2    3    3    0    0  0.36853095535E-01  0.87749418183E-01 -0.89401841109E-01  0.13208284184E+00  0.19876540761E-01 0.  0.
         14    1    1    2    0    0 -0.16638370916E-01  0.24782394554E-03  0.17750165398E-01  0.24330334464E-01  0.00000000000E+00 0.  1.
     999901    1    3    3    0    0 -0.20214724618E-01 -0.87997242129E-01  0.71651675710E-01  0.88751682370E+00  0.88000000000E+00 0. -1.
        -11    1    4    4    0    0  0.73432133675E-02  0.67520974545E-02 -0.15988298644E-01  0.18852066654E-01  0.51100000000E-03 0. -1.
         11    1    4    4    0    0  0.29509882167E-01  0.80997320729E-01 -0.73413542465E-01  0.11323077518E+00  0.51100000000E-03 0.  1.
</event>
<event>
 8    1  0.1086486E+005  0.1043930E+01  0.7957747E-01            NaN
         13   -1    0    0    0    0  0.00000000000E+00  0.00000000000E+00  0.74505805969E-08  0.10566000000E+00  0.10566000000E+00 0.  1.
     999900   -1    0    0    0    0 -0.00000000000E+00 -0.00000000000E+00 -0.74505805969E-08  0.93827000000E+00  0.93827000000E+00 0. -1.
     999902    2    1    2    0    0 -0.17112499905E-01 -0.10366815231E-01 -0.14071432617E-01  0.10194695477E+01  0.10191760618E+01 0.  0.
     999903    2    3    3    0    0  0.11528946502E+00 -0.63360687953E-02  0.46457766663E-01  0.12749964282E+00  0.27677216686E-01 0.  0.
         14    1    1    2    0    0  0.17112499905E-01  0.10366815231E-01  0.14071432617E-01  0.24460452304E-01  0.00000000000E+00 0.  1.
     999901    1    3    3    0    0 -0.13240196493E+00 -0.40307464360E-02 -0.60529199280E-01  0.89196990487E+00  0.88000000000E+00 0.  1.
        -11    1    4    4    0    0  0.64812084869E-01 -0.17064648584E-01  0.28886432044E-01  0.72982844926E-01  0.51100000000E-03 0.  1.
         11    1    4    4    0    0  0.50477380155E-01  0.10728579789E-01  0.17571334619E-01  0.54516797896E-01  0.51100000000E-03 0. -1.
</event>
<event>
 8    1  0.1086486E+005  0.1043930E+01  0.7957747E-01            NaN
         13   -1    0    0    0    0  0.00000000000E+00  0.00000000000E+00  0.74505805969E-08  0.10566000000E+00  0.10566000000E+00 0.  1.
     999900   -1    0    0    0    0 -0.00000000000E+00 -0.00000000000E+00 -0.74505805969E-08  0.93827000000E+00  0.93827000000E+00 0. -1.
     999902    2    1    2    0    0  0.18333744246E-01  0.14136189832E-01  0.66893775096E-02  0.10198321617E+01  0.10195474154E+01 0.  0.
     999903    2    3    3    0    0 -0.28999320944E-01  0.11498254032E+00  0.53394375393E-01  0.13158007903E+00  0.20010314370E-01 0.  0.
         14    1    1    2    0    0 -0.18333744246E-01 -0.14136189832E-01 -0.66893775096E-02  0.24097838337E-01  0.00000000000E+00 0. -1.
     999901    1    3    3    0    0  0.47333065191E-01 -0.10084635049E+00 -0.46704997883E-01  0.88825208263E+00  0.88000000000E+00 0.  1.
        -11    1    4    4    0    0 -0.27141886901E-01  0.97710984491E-01  0.37790960337E-01  0.10822447190E+00  0.51100000000E-03 0. -1.
         11    1    4    4    0    0 -0.18574340432E-02  0.17271555830E-01  0.15603415056E-01  0.23355607130E-01  0.51100000000E-03 0.  1.
</event>
<event>
 8    1  0.1086486E+005  0.1043930E+01  0.7957747E-01            NaN
         13   -1    0    0    0    0  0.00000000000E+00  0.00000000000E+00  0.74505805969E-08  0.10566000000E+00  0.10566000000E+00 0. -1.
     999900   -1    0    0    0    0 -0.00000000000E+00 -0.00000000000E+00 -0.74505805969E-08  0.93827000000E+00  0.93827000000E+00 0. -1.
     999902    2    1    2    0    0  0.65241886421E-02  0.58889206360E-02  0.22498624061E-01  0.10197756524E+01  0.10194895530E+01 0.  0.
     999903    2    3    3    0    0  0.11555261747E+00  0.23630795646E-01  0.56549907550E-01  0.13221637982E+00  0.19299148733E-01 0.  0.
         14    1    1    2    0    0 -0.65241886421E-02 -0.58889206360E-02 -0.22498624061E-01  0.24154347607E-01  0.00000000000E+00 0.  1.
     999901    1    3    3    0    0 -0.10902842883E+00 -0.17741875010E-01 -0.34051283489E-01  0.88755927257E+00  0.88000000000E+00 0. -1.
        -11    1    4    4    0    0  0.10903025646E+00  0.26455538883E-01  0.51310673706E-01  0.12337154745E+00  0.51100000000E-03 0.  1.
         11    1    4    4    0    0  0.65223610072E-02 -0.28247432372E-02  0.52392338439E-02  0.88448323747E-02  0.51100000000E-03 0. -1.
</event>
<event>
 8    1  0.1086486E+005  0.1043930E+01  0.7957747E-01            NaN
         13   -1    0    0    0    0  0.00000000000E+00  0.00000000000E+00  0.74505805969E-08  0.10566000000E+00  0.10566000000E+00 0.  1.
     999900   -1    0    0    0    0 -0.00000000000E+00 -0.00000000000E+00 -0.74505805969E-08  0.93827000000E+00  0.93827000000E+00 0.  1.
     999902    2    1    2    0    0  0.31515202635E-02  0.17930195772E-01 -0.19629223595E-01  0.10171581786E+01  0.10168057976E+01 0.  0.
     999903    2    3    3    0    0  0.11051503718E+00  0.47745501503E-01  0.38930652426E-01  0.12820084765E+00  0.20655635625E-01 0.  0.
         14    1    1    2    0    0 -0.31515202635E-02 -0.17930195772E-01  0.19629223595E-01  0.26771821368E-01  0.00000000000E+00 0.  1.
     999901    1    3    3    0    0 -0.10736351692E+00 -0.29815305731E-01 -0.58559876022E-01  0.88895733098E+00  0.88000000000E+00 0.  1.
        -11    1    4    4    0    0  0.73971179221E-01  0.21477205979E-01  0.21926941814E-01  0.80087811996E-01  0.51100000000E-03 0.  1.
         11    1    4    4    0    0  0.36543857964E-01  0.26268295524E-01  0.17003710612E-01  0.48113035658E-01  0.51100000000E-03 0. -1.
</event>
<event>
 8    1  0.1086486E+005  0.1043930E+01  0.7957747E-01            NaN
         13   -1    0    0    0    0  0.00000000000E+00  0.00000000000E+00  0.74505805969E-08  0.10566000000E+00  0.10566000000E+00 0. -1.
     999900   -1    0    0    0    0 -0.00000000000E+00 -0.00000000000E+00 -0.74505805969E-08  0.93827000000E+00  0.93827000000E+00 0.  1.
     999902    2    1    2    0    0  0.13420660376E-01  0.18259118803E-02 -0.21598305132E-01  0.10184361799E+01  0.10181170452E+01 0.  0.
     999903    2    3    3    0    0 -0.25615355342E-01 -0.26290408021E-01  0.11887457335E+00  0.12599740465E+00  0.19921089483E-01 0.  0.
         14    1    1    2    0    0 -0.13420660376E-01 -0.18259118803E-02  0.21598305132E-01  0.25493820109E-01  0.00000000000E+00 0. -1.
     999901    1    3    3    0    0  0.39036015719E-01  0.28116319901E-01 -0.14047287848E+00  0.89243877524E+00  0.88000000000E+00 0.  1.
        -11    1    4    4    0    0 -0.18817314050E-01 -0.58063796143E-02  0.66247385999E-01  0.69114272224E-01  0.51100000000E-03 0.  1.
         11    1    4    4    0    0 -0.67980412923E-02 -0.20484028407E-01  0.52627187349E-01  0.56883132425E-01  0.51100000000E-03 0. -1.
</event>
<event>
 8    1  0.1086486E+005  0.1043930E+01  0.7957747E-01            NaN
         13   -1    0    0    0    0  0.00000000000E+00  0.00000000000E+00  0.74505805969E-08  0.10566000000E+00  0.10566000000E+00 0. -1.
     999900   -1    0    0    0    0 -0.00000000000E+00 -0.00000000000E+00 -0.74505805969E-08  0.93827000000E+00  0.93827000000E+00 0.  1.
     999902    2    1    2    0    0 -0.44580540126E-02 -0.15843078615E-02  0.21177896583E-01  0.10222300557E+01  0.10219997061E+01 0.  0.
     999903    2    3    3    0    0 -0.10088020181E+00  0.56970396756E-01 -0.58682795142E-01  0.13144185752E+00  0.20269440973E-01 0.  0.
         14    1    1    2    0    0  0.44580540126E-02  0.15843078615E-02 -0.21177896583E-01  0.21699944255E-01  0.00000000000E+00 0.  1.
     999901    1    3    3    0    0  0.96422147801E-01 -0.58554704617E-01  0.79860691726E-01  0.89078819823E+00  0.88000000000E+00 0. -1.
        -11    1    4    4    0    0 -0.41431428149E-01  0.26295309387E-01 -0.14137803017E-01  0.51070002246E-01  0.51100000000E-03 0.  1.
         11    1    4    4    0    0 -0.59448773664E-01  0.30675087368E-01 -0.44544992126E-01  0.80371855271E-01  0.51100000000E-03 0. -1.
</event>
<event>
 8    1  0.1086486E+005  0.1043930E+01  0.7957747E-01            NaN
         13   -1    0    0    0    0  0.00000000000E+00  0.00000000000E+00  0.74505805969E-08  0.10566000000E+00  0.10566000000E+00 0.  1.
     999900   -1    0    0    0    0 -0.00000000000E+00 -0.00000000000E+00 -0.74505805969E-08  0.93827000000E+00  0.93827000000E+00 0.  1.
     999902    2    1    2    0    0 -0.10903133077E-01 -0.13496993673E-01  0.16791052162E-01  0.10197848849E+01  0.10194990068E+01 0.  0.
     999903    2    3    3    0    0 -0.53625724586E-01  0.98105970965E-01 -0.59777187013E-01  0.12841339291E+00  0.20400674354E-01 0.  0.
         14    1    1    2    0    0  0.10903133077E-01  0.13496993673E-01 -0.16791052162E-01  0.24145115071E-01  0.00000000000E+00 0. -1.
     999901    1    3    3    0    0  0.42722591509E-01 -0.11160296464E+00  0.76568239174E-01  0.89137149202E+00  0.88000000000E+00 0.  1.
        -11    1    4    4    0    0 -0.14407860326E-01  0.47050089501E-01 -0.23823640061E-01  0.54672884578E-01  0.51100000000E-03 0. -1.
         11    1    4    4    0    0 -0.39217864260E-01  0.51055881463E-01 -0.35953546951E-01  0.73740508328E-01  0.51100000000E-03 0.  1.
</event>
<event>
 8    1  0.1086486E+005  0.1043930E+01  0.7957747E-01            NaN
         13   -1    0    0    0    0  0.00000000000E+00  0.00000000000E+00  0.74505805969E-08  0.10566000000E+00  0.10566000000E+00 0. -1.
     999900   -1    0    0    0    0 -0.00000000000E+00 -0.00000000000E+00 -0.74505805969E-08  0.93827000000E+00  0.93827000000E+00 0. -1.
     999902    2    1    2    0    0  0.70204109874E-02 -0.53481301353E-02  0.22834932396E-01  0.10194489297E+01  0.10191549428E+01 0.  0.
     999903    2    3    3    0    0  0.31150608390E-01 -0.10500420238E+00 -0.65225225485E-01  0.12912977872E+00  0.20589482585E-01 0.  0.
         14    1    1    2    0    0 -0.70204109874E-02  0.53481301353E-02 -0.22834932396E-01  0.24481070318E-01  0.00000000000E+00 0.  1.
     999901    1    3    3    0    0 -0.24130197402E-01  0.99656072243E-01  0.88060157880E-01  0.89031915096E+00  0.88000000000E+00 0.  1.
        -11    1    4    4    0    0  0.29946007403E-01 -0.83581196862E-01 -0.59624206781E-01  0.10694805741E+00  0.51100000000E-03 0. -1.
         11    1    4    4    0    0  0.12046009863E-02 -0.21423005516E-01 -0.56010187036E-02  0.22181721313E-01  0.51100000000E-03 0.  1.
</event>
<event>
 8    1  0.1086486E+005  0.1043930E+01  0.7957747E-01            NaN
         13   -1    0    0    0    0  0.00000000000E+00  0.00000000000E+00  0.74505805969E-08  0.10566000000E+00  0.10566000000E+00 0.  1.
     999900   -1    0    0    0    0 -0.00000000000E+00 -0.00000000000E+00 -0.74505805969E-08  0.93827000000E+00  0.93827000000E+00 0.  1.
     999902    2    1    2    0    0 -0.24614688748E-01  0.10432095643E-01 -0.25380828123E-02  0.10170757008E+01  0.10167211160E+01 0.  0.
     999903    2    3    3    0    0  0.94928673689E-01 -0.39825506845E-01  0.67617496839E-01  0.12480990661E+00  0.20195614012E-01 0.  0.
         14    1    1    2    0    0  0.24614688748E-01 -0.10432095643E-01  0.25380828123E-02  0.26854299209E-01  0.00000000000E+00 0. -1.
     999901    1    3    3    0    0 -0.11954336244E+00  0.50257602487E-01 -0.70155579651E-01  0.89226579418E+00  0.88000000000E+00 0. -1.
        -11    1    4    4    0    0  0.37317833828E-01 -0.26488511988E-01  0.28963750675E-01  0.54161074243E-01  0.51100000000E-03 0. -1.
         11    1    4    4    0    0  0.57610839861E-01 -0.13336994857E-01  0.38653746163E-01  0.70648832366E-01  0.51100000000E-03 0.  1.
</event>
<event>
 8    1  0.1086486E+005  0.1043930E+01  0.7957747E-01            NaN
         13   -1    0    0    0    0  0.00000000000E+00  0.00000000000E+00  0.74505805969E-08  0.10566000000E+00  0.10566000000E+00 0.  1.
     999900   -1    0    0    0    0 -0.00000000000E+00 -0.00000000000E+00 -0.74505805969E-08  0.93827000000E+00  0.93827000000E+00 0.  1.
     999902    2    1    2    0    0  0.89436933379E-02  0.22065409245E-01 -0.73666148645E-02  0.10190073406E+01  0.10187025186E+01 0.  0.
     999903    2    3    3    0    0 -0.10059090394E+00  0.79010739255E-01 -0.15440432448E-01  0.13035342310E+00  0.19808611375E-01 0.  0.
         14    1    1    2    0    0 -0.89436933379E-02 -0.22065409245E-01  0.73666148645E-02  0.24922659373E-01  0.00000000000E+00 0. -1.
     999901    1    3    3    0    0  0.10953459728E+00 -0.56945330010E-01  0.80738175835E-02  0.88865391753E+00  0.88000000000E+00 0. -1.
        -11    1    4    4    0    0 -0.71784930799E-01  0.58385657651E-01 -0.22931259411E-02  0.92560687426E-01  0.51100000000E-03 0. -1.
         11    1    4    4    0    0 -0.28805973146E-01  0.20625081604E-01 -0.13147306507E-01  0.37792735670E-01  0.51100000000E-03 0.  1.
</event>
<event>
 8    1  0.1086486E+005  0.1043930E+01  0.7957747E-01            NaN
         13   -1    0    0    0    0  0.00000000000E+00  0.00000000000E+00  0.74505805969E-08  0.10566000000E+00  0.10566000000E+00 0.  1.
     999900   -1    0    0    0    0 -0.00000000000E+00 -0.00000000000E+00 -0.74505805969E-08  0.93827000000E+00  0.93827000000E+00 0. -1.
     999902    2    1    2    0    0  0.41609384689E-02  0.22004700797E-01 -0.11492980456E-01  0.10187584115E+01  0.10184473930E+01 0.  0.
     999903    2    3    3    0    0  0.88113718650E-01 -0.84480535942E-01 -0.34551838675E-01  0.12807390741E+00  0.17553000780E-01 0.  0.
         14    1    1    2    0    0 -0.41609384689E-02 -0.22004700797E-01  0.11492980456E-01  0.25171588465E-01  0.00000000000E+00 0.  1.
     999901    1    3    3    0    0 -0.83952780181E-01  0.10648523674E+00  0.23058858219E-01  0.89068450412E+00  0.88000000000E+00 0.  1.
        -11    1    4    4    0    0  0.39331506121E-01 -0.26262407132E-01 -0.15403645812E-01  0.49741479948E-01  0.51100000000E-03 0. -1.
         11    1    4    4    0    0  0.48782212529E-01 -0.58218128810E-01 -0.19148192863E-01  0.78332427463E-01  0.51100000000E-03 0.  1.
</event>
<event>
 8    1  0.1086486E+005  0.1043930E+01  0.7957747E-01            NaN
         13   -1    0    0    0    0  0.00000000000E+00  0.00000000000E+00  0.74505805969E-08  0.10566000000E+00  0.10566000000E+00 0. -1.
     999900   -1    0    0    0    0 -0.00000000000E+00 -0.00000000000E+00 -0.74505805969E-08  0.93827000000E+00  0.93827000000E+00 0.  1.
     999902    2    1    2    0    0  0.17733327156E-01 -0.31720369016E-02 -0.14945786477E-01  0.10205225387E+01  0.10202540580E+01 0.  0.
     999903    2    3    3    0    0 -0.42505378533E-01  0.87550316249E-01  0.81708280367E-01  0.12855771001E+00  0.19469890659E-01 0.  0.
         14    1    1    2    0    0 -0.17733327156E-01  0.31720369016E-02  0.14945786477E-01  0.23407461279E-01  0.00000000000E+00 0.  1.
     999901    1    3    3    0    0  0.60238705689E-01 -0.90722353151E-01 -0.96654066844E-01  0.89196482871E+00  0.88000000000E+00 0.  1.
        -11    1    4    4    0    0 -0.20231661603E-01  0.35848494973E-01  0.22737908938E-01  0.47028803375E-01  0.51100000000E-03 0.  1.
         11    1    4    4    0    0 -0.22273716930E-01  0.51701821277E-01  0.58970371429E-01  0.81528906632E-01  0.51100000000E-03 0. -1.
</event>
<event>
 8    1  0.1086486E+005  0.1043930E+01  0.7957747E-01            NaN
         13   -1    0    0    0    0  0.00000000000E+00  0.00000000000E+00  0.74505805969E-08  0.10566000000E+00  0.10566000000E+00 0.  1.
     999900   -1    0    0    0    0 -0.00000000000E+00 -0.00000000000E+00 -0.74505805969E-08  0.93827000000E+00  0.93827000000E+00 0.  1.
     999902    2    1    2    0    0 -0.12600391089E-01 -0.17887626100E-01  0.11539536449E-01  0.10191934294E+01  0.10188931979E+01 0.  0.
     999903    2    3    3    0    0  0.87075496063E-01  0.52418587207E-01 -0.73236598983E-01  0.12674441728E+00  0.19253508306E-01 0.  0.
         14    1    1    2    0    0  0.12600391089E-01  0.17887626100E-01 -0.11539536449E-01  0.24736570590E-01  0.00000000000E+00 0. -1.
     999901    1    3    3    0    0 -0.99675887152E-01 -0.70306213307E-01  0.84776135433E-01  0.89244901213E+00  0.88000000000E+00 0. -1.
        -11    1    4    4    0    0  0.55435969920E-01  0.26058431971E-01 -0.35025177156E-01  0.70563537281E-01  0.51100000000E-03 0. -1.
         11    1    4    4    0    0  0.31639526143E-01  0.26360155236E-01 -0.38211421827E-01  0.56180880001E-01  0.51100000000E-03 0.  1.
</event>
<event>
 8    1  0.1086486E+005  0.1043930E+01  0.7957747E-01            NaN
         13   -1    0    0    0    0  0.00000000000E+00  0.00000000000E+00  0.74505805969E-08  0.10566000000E+00  0.10566000000E+00 0. -1.
     999900   -1    0    0    0    0 -0.00000000000E+00 -0.00000000000E+00 -0.74505805969E-08  0.93827000000E+00  0.93827000000E+00 0.  1.
     999902    2    1    2    0    0 -0.10711109356E-01 -0.13465070164E-01  0.15749087501E-01  0.10206046975E+01  0.10203381199E+01 0.  0.
     999903    2    3    3    0    0 -0.12156798702E+00  0.27500323119E-01  0.39500713129E-01  0.13238650897E+00  0.20756641845E-01 0.  0.
         14    1    1    2    0    0  0.10711109356E-01  0.13465070164E-01 -0.15749087501E-01  0.23325302468E-01  0.00000000000E+00 0.  1.
     999901    1    3    3    0    0  0.11085687766E+00 -0.40965393283E-01 -0.23751625629E-01  0.88821818856E+00  0.88000000000E+00 0.  1.
        -11    1    4    4    0    0 -0.27172220132E-02 -0.23010710388E-02  0.25354349875E-02  0.44008834307E-02  0.51100000000E-03 0.  1.
         11    1    4    4    0    0 -0.11885076500E+00  0.29801394158E-01  0.36965278142E-01  0.12798562554E+00  0.51100000000E-03 0. -1.
</event>
<event>
 8    1  0.1086486E+005  0.1043930E+01  0.7957747E-01            NaN
         13   -1    0    0    0    0  0.00000000000E+00  0.00000000000E+00  0.74505805969E-08  0.10566000000E+00  0.10566000000E+00 0. -1.
     999900   -1    0    0    0    0 -0.00000000000E+00 -0.00000000000E+00 -0.74505805969E-08  0.93827000000E+00  0.93827000000E+00 0.  1.
     999902    2    1    2    0    0  0.20045164609E-01 -0.13105156114E-01 -0.24636884445E-02  0.10198546287E+01  0.10195704195E+01 0.  0.
     999903    2    3    3    0    0 -0.12265036533E+00 -0.47809266067E-02  0.29067114981E-01  0.12776410719E+00  0.20317493397E-01 0.  0.
         14    1    1    2    0    0 -0.20045164609E-01  0.13105156114E-01  0.24636884445E-02  0.24075371269E-01  0.00000000000E+00 0. -1.
     999901    1    3    3    0    0  0.14269552994E+00 -0.83242295077E-02 -0.31530803426E-01  0.89209052154E+00  0.88000000000E+00 0.  1.
        -11    1    4    4    0    0 -0.33495335310E-01 -0.65391120010E-02  0.53077781360E-03  0.34135616581E-01  0.51100000000E-03 0.  1.
         11    1    4    4    0    0 -0.89155030019E-01  0.17581853943E-02  0.28536337168E-01  0.93628490608E-01  0.51100000000E-03 0. -1.
</event>
<event>
 8    1  0.1086486E+005  0.1043930E+01  0.7957747E-01            NaN
         13   -1    0    0    0    0  0.00000000000E+00  0.00000000000E+00  0.74505805969E-08  0.10566000000E+00  0.10566000000E+00 0. -1.
     999900   -1    0    0    0    0 -0.00000000000E+00 -0.00000000000E+00 -0.74505805969E-08  0.93827000000E+00  0.93827000000E+00 0.  1.
     999902    2    1    2    0    0  0.47445342066E-02 -0.21662089763E-01 -0.59501892465E-02  0.10209700024E+01  0.10207118028E+01 0.  0.
     999903    2    3    3    0    0  0.94188687354E-01 -0.70698628723E-01 -0.58752947459E-01  0.13350565384E+00  0.22406379536E-01 0.  0.
         14    1    1    2    0    0 -0.47445342066E-02  0.21662089763E-01  0.59501892465E-02  0.22959997600E-01  0.00000000000E+00 0.  1.
     999901    1    3    3    0    0 -0.89444153147E-01  0.49036538960E-01  0.52802758213E-01  0.88746434856E+00  0.88000000000E+00 0.  1.
        -11    1    4    4    0    0  0.41889081588E-02 -0.96167494270E-02 -0.15684736082E-02  0.10618382719E-01  0.51100000000E-03 0. -1.
         11    1    4    4    0    0  0.89999779195E-01 -0.61081879296E-01 -0.57184473851E-01  0.12288727112E+00  0.51100000000E-03 0.  1.
</event>
<event>
 8    1  0.1086486E+005  0.1043930E+01  0.7957747E-01            NaN
         13   -1    0    0    0    0  0.00000000000E+00  0.00000000000E+00  0.74505805969E-08  0.10566000000E+00  0.10566000000E+00 0.  1.
     999900   -1    0    0    0    0 -0.00000000000E+00 -0.00000000000E+00 -0.74505805969E-08  0.93827000000E+00  0.93827000000E+00 0. -1.
     999902    2    1    2    0    0 -0.18928180988E-01 -0.10360626170E-01 -0.88897981150E-02  0.10205923240E+01  0.10203254602E+01 0.  0.
     999903    2    3    3    0    0 -0.26586540179E-01  0.39074534138E-01 -0.12188823896E+00  0.13195790358E+00  0.17957788945E-01 0.  0.
         14    1    1    2    0    0  0.18928180988E-01  0.10360626170E-01  0.88897981150E-02  0.23337675992E-01  0.00000000000E+00 0.  1.
     999901    1    3    3    0    0  0.76583591911E-02 -0.49435160308E-01  0.11299844084E+00  0.88863442043E+00  0.88000000000E+00 0.  1.
        -11    1    4    4    0    0 -0.10286009650E-01  0.47389641875E-02 -0.41746477429E-01  0.43258401205E-01  0.51100000000E-03 0.  1.
         11    1    4    4    0    0 -0.16300530530E-01  0.34335569951E-01 -0.80141761528E-01  0.88699502373E-01  0.51100000000E-03 0. -1.
</event>
<event>
 8    1  0.1086486E+005  0.1043930E+01  0.7957747E-01            NaN
         13   -1    0    0    0    0  0.00000000000E+00  0.00000000000E+00  0.74505805969E-08  0.10566000000E+00  0.10566000000E+00 0. -1.
     999900   -1    0    0    0    0 -0.00000000000E+00 -0.00000000000E+00 -0.74505805969E-08  0.93827000000E+00  0.93827000000E+00 0.  1.
     999902    2    1    2    0    0  0.12147927106E-02  0.15839952390E-01  0.17989813182E-01  0.10199297252E+01  0.10196473072E+01 0.  0.
     999903    2    3    3    0    0  0.98768927911E-01  0.92590199567E-02 -0.80180989603E-01  0.12908876043E+00  0.19846571585E-01 0.  0.
         14    1    1    2    0    0 -0.12147927106E-02 -0.15839952390E-01 -0.17989813182E-01  0.24000274818E-01  0.00000000000E+00 0.  1.
     999901    1    3    3    0    0 -0.97554135200E-01  0.65809324328E-02  0.98170802785E-01  0.89084096476E+00  0.88000000000E+00 0. -1.
        -11    1    4    4    0    0  0.69545758621E-01  0.13200199288E-01 -0.48529710546E-01  0.85826870676E-01  0.51100000000E-03 0.  1.
         11    1    4    4    0    0  0.29223169290E-01 -0.39411793312E-02 -0.31651279057E-01  0.43261889751E-01  0.51100000000E-03 0. -1.
</event>
<event>
 8    1  0.1086486E+005  0.1043930E+01  0.7957747E-01            NaN
         13   -1    0    0    0    0  0.00000000000E+00  0.00000000000E+00  0.74505805969E-08  0.10566000000E+00  0.10566000000E+00 0. -1.
     999900   -1    0    0    0    0 -0.00000000000E+00 -0.00000000000E+00 -0.74505805969E-08  0.93827000000E+00  0.93827000000E+00 0.  1.
     999902    2    1    2    0    0 -0.11000435674E-01  0.13845492713E-01  0.16650459346E-01  0.10196412156E+01  0.10193518840E+01 0.  0.
     999903    2    3    3    0    0 -0.93987898592E-01  0.87454500846E-01 -0.22342068662E-01  0.13182050036E+00  0.19886213410E-01 0.  0.
         14    1    1    2    0    0  0.11000435674E-01 -0.13845492713E-01 -0.16650459346E-01  0.24288784447E-01  0.00000000000E+00 0.  1.
     999901    1    3    3    0    0  0.82987462918E-01 -0.73609008133E-01  0.38992528008E-01  0.88782071519E+00  0.88000000000E+00 0. -1.
        -11    1    4    4    0    0 -0.46472372654E-01  0.51366297732E-01 -0.39570214796E-02  0.69383694790E-01  0.51100000000E-03 0.  1.
         11    1    4    4    0    0 -0.47515525938E-01  0.36088203114E-01 -0.18385047182E-01  0.62436805572E-01  0.51100000000E-03 0. -1.
</event>
<event>
 8    1  0.1086486E+005  0.1043930E+01  0.7957747E-01            NaN
         13   -1    0    0    0    0  0.00000000000E+00  0.00000000000E+00  0.74505805969E-08  0.10566000000E+00  0.10566000000E+00 0. -1.
     999900   -1    0    0    0    0 -0.00000000000E+00 -0.00000000000E+00 -0.74505805969E-08  0.93827000000E+00  0.93827000000E+00 0.  1.
     999902    2    1    2    0    0  0.20279371062E-01 -0.41654664422E-02 -0.14546847689E-01  0.10186275341E+01  0.10183132320E+01 0.  0.
     999903    2    3    3    0    0 -0.75564637667E-01  0.11438281056E-01  0.98243582155E-01  0.12613034534E+00  0.20401319577E-01 0.  0.
         14    1    1    2    0    0 -0.20279371062E-01  0.41654664422E-02  0.14546847689E-01  0.25302465868E-01  0.00000000000E+00 0. -1.
     999901    1    3    3    0    0  0.95844008728E-01 -0.15603747499E-01 -0.11279042984E+00  0.89249718880E+00  0.88000000000E+00 0.  1.
        -11    1    4    4    0    0 -0.40702573069E-01  0.60135918830E-02  0.68837863533E-01  0.80198349849E-01  0.51100000000E-03 0. -1.
         11    1    4    4    0    0 -0.34862064597E-01  0.54246891734E-02  0.29405718622E-01  0.45931995486E-01  0.51100000000E-03 0.  1.
</event>
<event>
 8    1  0.1086486E+005  0.1043930E+01  0.7957747E-01            NaN
         13   -1    0    0    0    0  0.00000000000E+00  0.00000000000E+00  0.74505805969E-08  0.10566000000E+00  0.10566000000E+00 0. -1.
     999900   -1    0    0    0    0 -0.00000000000E+00 -0.00000000000E+00 -0.74505805969E-08  0.93827000000E+00  0.93827000000E+00 0.  1.
     999902    2    1    2    0    0 -0.12996688052E-01 -0.34579545319E-02 -0.18766960599E-01  0.10208416878E+01  0.10205805610E+01 0.  0.
     999903    2    3    3    0    0  0.12257027243E+00  0.13108795254E-01  0.31681735600E-01  0.12887872393E+00  0.20265263761E-01 0.  0.
         14    1    1    2    0    0  0.12996688052E-01  0.34579545319E-02  0.18766960599E-01  0.23088312194E-01  0.00000000000E+00 0. -1.
     999901    1    3    3    0    0 -0.13556696048E+00 -0.16566749786E-01 -0.50448696199E-01  0.89196296387E+00  0.88000000000E+00 0.  1.
        -11    1    4    4    0    0  0.43277269548E-01  0.14408786789E-01  0.11991649274E-01  0.47165622752E-01  0.51100000000E-03 0. -1.
         11    1    4    4    0    0  0.79293002882E-01 -0.12999915355E-02  0.19690086327E-01  0.81713101181E-01  0.51100000000E-03 0.  1.
</event>
<event>
 8    1  0.1086486E+005  0.1043930E+01  0.7957747E-01            NaN
         13   -1    0    0    0    0  0.00000000000E+00  0.00000000000E+00  0.74505805969E-08  0.10566000000E+00  0.10566000000E+00 0. -1.
     999900   -1    0    0    0    0 -0.00000000000E+00 -0.00000000000E+00 -0.74505805969E-08  0.93827000000E+00  0.93827000000E+00 0.  1.
     999902    2    1    2    0    0  0.23129146571E-01 -0.51394001644E-02 -0.23401042110E-02  0.10201214523E+01  0.10198435814E+01 0.  0.
     999903    2    3    3    0    0 -0.66854182366E-01 -0.10636549064E+00 -0.24175835522E-01  0.12949216914E+00  0.20016282092E-01 0.  0.
         14    1    1    2    0    0 -0.23129146571E-01  0.51394001644E-02  0.23401042110E-02  0.23808547685E-01  0.00000000000E+00 0.  1.
     999901    1    3    3    0    0  0.89983328937E-01  0.10122609047E+00  0.21835731311E-01  0.89062928317E+00  0.88000000000E+00 0. -1.
        -11    1    4    4    0    0 -0.18910728959E-01 -0.38959274856E-01 -0.16768129955E-01  0.46442136797E-01  0.51100000000E-03 0.  1.
         11    1    4    4    0    0 -0.47943453407E-01 -0.67406215779E-01 -0.74077055672E-02  0.83050032348E-01  0.51100000000E-03 0. -1.
</event>
<event>
 8    1  0.1086486E+005  0.1043930E+01  0.7957747E-01            NaN
         13   -1    0    0    0    0  0.00000000000E+00  0.00000000000E+00  0.74505805969E-08  0.10566000000E+00  0.10566000000E+00 0.  1.
     999900   -1    0    0    0    0 -0.00000000000E+00 -0.00000000000E+00 -0.74505805969E-08  0.93827000000E+00  0.93827000000E+00 0. -1.
     999902    2    1    2    0    0 -0.13918438951E-01  0.14435455452E-01 -0.86024119222E-02  0.10221101281E+01  0.10218771977E+01 0.  0.
     999903    2    3    3    0    0 -0.45829025379E-01 -0.76076655374E-01 -0.96357668538E-01  0.13255309636E+00  0.19939057358E-01 0.  0.
         14    1    1    2    0    0  0.13918438951E-01 -0.14435455452E-01  0.86024119222E-02  0.21819871856E-01  0.00000000000E+00 0. -1.
     999901    1    3    3    0    0  0.31910586428E-01  0.90512110826E-01  0.87755256616E-01  0.88955703178E+00  0.88000000000E+00 0.  1.
        -11    1    4    4    0    0 -0.10287558843E-01 -0.34139932819E-01 -0.43995702870E-01  0.56632604318E-01  0.51100000000E-03 0. -1.
         11    1    4    4    0    0 -0.35541466536E-01 -0.41936722555E-01 -0.52361965668E-01  0.75920492042E-01  0.51100000000E-03 0.  1.
</event>
<event>
 8    1  0.1086486E+005  0.1043930E+01  0.7957747E-01            NaN
         13   -1    0    0    0    0  0.00000000000E+00  0.00000000000E+00  0.74505805969E-08  0.10566000000E+00  0.10566000000E+00 0. -1.
     999900   -1    0    0    0    0 -0.00000000000E+00 -0.00000000000E+00 -0.74505805969E-08  0.93827000000E+00  0.93827000000E+00 0. -1.
     999902    2    1    2    0    0 -0.19722284497E-01  0.11474139157E-01 -0.54363614626E-02  0.10204741180E+01  0.10202045124E+01 0.  0.
     999903    2    3    3    0    0  0.11388875188E+00 -0.25701318312E-01 -0.44799461825E-01  0.12874356600E+00  0.30605692886E-01 0.  0.
         14    1    1    2    0    0  0.19722284497E-01 -0.11474139157E-01  0.54363614626E-02  0.23455882016E-01  0.00000000000E+00 0. -1.
     999901    1    3    3    0    0 -0.13361103638E+00  0.37175457469E-01  0.39363100362E-01  0.89173055199E+00  0.88000000000E+00 0. -1.
        -11    1    4    4    0    0  0.46025828288E-01 -0.25967303770E-02 -0.31485881340E-01  0.55827786298E-01  0.51100000000E-03 0. -1.
         11    1    4    4    0    0  0.67862923595E-01 -0.23104587935E-01 -0.13313580485E-01  0.72915779697E-01  0.51100000000E-03 0.  1.
</event>
<event>
 8    1  0.1086486E+005  0.1043930E+01  0.7957747E-01            NaN
         13   -1    0    0    0    0  0.00000000000E+00  0.00000000000E+00  0.74505805969E-08  0.10566000000E+00  0.10566000000E+00 0. -1.
     999900   -1    0    0    0    0 -0.00000000000E+00 -0.00000000000E+00 -0.74505805969E-08  0.93827000000E+00  0.93827000000E+00 0. -1.
     999902    2    1    2    0    0 -0.22240453758E-01  0.35914775611E-02 -0.74976930897E-02  0.10201865399E+01  0.10199102041E+01 0.  0.
     999903    2    3    3    0    0 -0.91833147993E-01  0.48446795486E-01 -0.81094077573E-01  0.13324146246E+00  0.19915291568E-01 0.  0.
         14    1    1    2    0    0  0.22240453758E-01 -0.35914775611E-02  0.74976930897E-02  0.23743460070E-01  0.00000000000E+00 0.  1.
     999901    1    3    3    0    0  0.69592694236E-01 -0.44855317925E-01  0.73596384483E-01  0.88694507747E+00  0.88000000000E+00 0.  1.
        -11    1    4    4    0    0 -0.30144423853E-01  0.57751042944E-02 -0.22578787085E-01  0.38106441270E-01  0.51100000000E-03 0.  1.
         11    1    4    4    0    0 -0.61688724141E-01  0.42671691191E-01 -0.58515290488E-01  0.95135021192E-01  0.51100000000E-03 0. -1.
</event>
<event>
 8    1  0.1086486E+005  0.1043930E+01  0.7957747E-01            NaN
         13   -1    0    0    0    0  0.00000000000E+00  0.00000000000E+00  0.74505805969E-08  0.10566000000E+00  0.10566000000E+00 0.  1.
     999900   -1    0    0    0    0 -0.00000000000E+00 -0.00000000000E+00 -0.74505805969E-08  0.93827000000E+00  0.93827000000E+00 0.  1.
     999902    2    1    2    0    0 -0.66405977165E-02  0.23327026749E-01  0.15146911221E-02  0.10196289300E+01  0.10193393021E+01 0.  0.
     999903    2    3    3    0    0 -0.66500115074E-01  0.23994230251E-01  0.10860866038E+00  0.13111740770E+00  0.19948561388E-01 0.  0.
         14    1    1    2    0    0  0.66405977165E-02 -0.23327026749E-01 -0.15146911221E-02  0.24301070021E-01  0.00000000000E+00 0. -1.
     999901    1    3    3    0    0  0.59859517358E-01 -0.66720350178E-03 -0.10709396926E+00  0.88851152228E+00  0.88000000000E+00 0.  1.
        -11    1    4    4    0    0 -0.48105516946E-01  0.75774853262E-02  0.75209345978E-01  0.89600590890E-01  0.51100000000E-03 0. -1.
         11    1    4    4    0    0 -0.18394598128E-01  0.16416744924E-01  0.33399314401E-01  0.41516816806E-01  0.51100000000E-03 0.  1.
</event>
<event>
 8    1  0.1086486E+005  0.1043930E+01  0.7957747E-01            NaN
         13   -1    0    0    0    0  0.00000000000E+00  0.00000000000E+00  0.74505805969E-08  0.10566000000E+00  0.10566000000E+00 0. -1.
     999900   -1    0    0    0    0 -0.00000000000E+00 -0.00000000000E+00 -0.74505805969E-08  0.93827000000E+00  0.93827000000E+00 0. -1.
     999902    2    1    2    0    0 -0.83667729485E-02 -0.76024853606E-02  0.21182154175E-01  0.10199199119E+01  0.10196372602E+01 0.  0.
     999903    2    3    3    0    0  0.38590304043E-01 -0.12170977788E+00  0.23347585270E-01  0.13130856249E+00  0.19858178342E-01 0.  0.
         14    1    1    2    0    0  0.83667729485E-02  0.76024853606E-02 -0.21182154175E-01  0.24010088061E-01  0.00000000000E+00 0.  1.
     999901    1    3    3    0    0 -0.46957076991E-01  0.11410729252E+00 -0.21654310954E-02  0.88861134945E+00  0.88000000000E+00 0.  1.
        -11    1    4    4    0    0  0.85161039358E-02 -0.52665505069E-01  0.15675629607E-01  0.55607247144E-01  0.51100000000E-03 0.  1.
         11    1    4    4    0    0  0.30074200107E-01 -0.69044272808E-01  0.76719556633E-02  0.75701315341E-01  0.51100000000E-03 0. -1.
</event>
<event>
 8    1  0.1086486E+005  0.1043930E+01  0.7957747E-01            NaN
         13   -1    0    0    0    0  0.00000000000E+00  0.00000000000E+00  0.74505805969E-08  0.10566000000E+00  0.10566000000E+00 0.  1.
     999900   -1    0    0    0    0 -0.00000000000E+00 -0.00000000000E+00 -0.74505805969E-08  0.93827000000E+00  0.93827000000E+00 0.  1.
     999902    2    1    2    0    0  0.19171024026E-01  0.12870876711E-01  0.12924482255E-02  0.10208030017E+01  0.10205409890E+01 0.  0.
     999903    2    3    3    0    0 -0.79469785544E-01 -0.95246410892E-01 -0.25857633180E-01  0.12830287051E+00  0.20141593427E-01 0.  0.
         14    1    1    2    0    0 -0.19171024026E-01 -0.12870876711E-01 -0.12924482255E-02  0.23126998334E-01  0.00000000000E+00 0.  1.
     999901    1    3    3    0    0  0.98640809570E-01  0.10811728760E+00  0.27150081405E-01  0.89250013115E+00  0.88000000000E+00 0. -1.
        -11    1    4    4    0    0 -0.37334952633E-01 -0.57218131438E-01 -0.20276766667E-01  0.71268658194E-01  0.51100000000E-03 0. -1.
         11    1    4    4    0    0 -0.42134832911E-01 -0.38028279453E-01 -0.55808665128E-02  0.57034212317E-01  0.51100000000E-03 0.  1.
</event>
<event>
 8    1  0.1086486E+005  0.1043930E+01  0.7957747E-01            NaN
         13   -1    0    0    0    0  0.00000000000E+00  0.00000000000E+00  0.74505805969E-08  0.10566000000E+00  0.10566000000E+00 0.  1.
     999900   -1    0    0    0    0 -0.00000000000E+00 -0.00000000000E+00 -0.74505805969E-08  0.93827000000E+00  0.93827000000E+00 0. -1.
     999902    2    1    2    0    0 -0.10008567668E-01  0.11185634359E-01 -0.17907078391E-01  0.10205643564E+01  0.10202968452E+01 0.  0.
     999903    2    3    3    0    0 -0.52517943443E-01 -0.11571028109E+00 -0.20979479776E-01  0.13044129750E+00  0.20683084602E-01 0.  0.
         14    1    1    2    0    0  0.10008567668E-01 -0.11185634359E-01  0.17907078391E-01  0.23365643567E-01  0.00000000000E+00 0. -1.
     999901    1    3    3    0    0  0.42509375774E-01  0.12689591545E+00  0.30724013850E-02  0.89012305893E+00  0.88000000000E+00 0.  1.
        -11    1    4    4    0    0 -0.31495141852E-01 -0.59988405455E-01 -0.14772115433E-02  0.67771646168E-01  0.51100000000E-03 0.  1.
         11    1    4    4    0    0 -0.21022801590E-01 -0.55721875638E-01 -0.19502268233E-01  0.62669651336E-01  0.51100000000E-03 0. -1.
</event>
<event>
 8    1  0.1086486E+005  0.1043930E+01  0.7957747E-01            NaN
         13   -1    0    0    0    0  0.00000000000E+00  0.00000000000E+00  0.74505805969E-08  0.10566000000E+00  0.10566000000E+00 0.  1.
     999900   -1    0    0    0    0 -0.00000000000E+00 -0.00000000000E+00 -0.74505805969E-08  0.93827000000E+00  0.93827000000E+00 0. -1.
     999902    2    1    2    0    0 -0.19155087473E-01 -0.15750695768E-01  0.49138990672E-02  0.10186486196E+01  0.10183348476E+01 0.  0.
     999903    2    3    3    0    0  0.84529305256E-01 -0.78579790344E-01  0.54412478780E-01  0.12895875347E+00  0.18699073546E-01 0.  0.
         14    1    1    2    0    0  0.19155087473E-01  0.15750695768E-01 -0.49138990672E-02  0.25281380447E-01  0.00000000000E+00 0. -1.
     999901    1    3    3    0    0 -0.10368439273E+00  0.62829094575E-01 -0.49498579713E-01  0.88968986608E+00  0.88000000000E+00 0. -1.
        -11    1    4    4    0    0  0.20287204007E-01 -0.21020632803E-01  0.52855837500E-02  0.29692358721E-01  0.51100000000E-03 0. -1.
         11    1    4    4    0    0  0.64242101249E-01 -0.57559157541E-01  0.49126895030E-01  0.99266394747E-01  0.51100000000E-03 0.  1.
</event>
<event>
 8    1  0.1086486E+005  0.1043930E+01  0.7957747E-01            NaN
         13   -1    0    0    0    0  0.00000000000E+00  0.00000000000E+00  0.74505805969E-08  0.10566000000E+00  0.10566000000E+00 0. -1.
     999900   -1    0    0    0    0 -0.00000000000E+00 -0.00000000000E+00 -0.74505805969E-08  0.93827000000E+00  0.93827000000E+00 0. -1.
     999902    2    1    2    0    0  0.54992752486E-02 -0.15805654880E-01 -0.18895112233E-01  0.10186894370E+01  0.10183766901E+01 0.  0.
     999903    2    3    3    0    0  0.30393538660E-01 -0.12590341731E+00  0.54617552883E-02  0.13114535435E+00  0.19845289448E-01 0.  0.
         14    1    1    2    0    0 -0.54992752486E-02  0.15805654880E-01  0.18895112233E-01  0.25240563004E-01  0.00000000000E+00 0. -1.
     999901    1    3    3    0    0 -0.24894263412E-01  0.11009776243E+00 -0.24356867521E-01  0.88754408265E+00  0.88000000000E+00 0.  1.
        -11    1    4    4    0    0  0.10063973203E-01 -0.45885860492E-01  0.11490979307E-01  0.48364237574E-01  0.51100000000E-03 0. -1.
         11    1    4    4    0    0  0.20329565458E-01 -0.80017556822E-01 -0.60292240186E-02  0.82781116776E-01  0.51100000000E-03 0.  1.
</event>
<event>
 8    1  0.1086486E+005  0.1043930E+01  0.7957747E-01            NaN
         13   -1    0    0    0    0  0.00000000000E+00  0.00000000000E+00  0.74505805969E-08  0.10566000000E+00  0.10566000000E+00 0. -1.
     999900   -1    0    0    0    0 -0.00000000000E+00 -0.00000000000E+00 -0.74505805969E-08  0.93827000000E+00  0.93827000000E+00 0.  1.
     999902    2    1    2    0    0  0.16873966421E-01  0.86996446885E-02 -0.13596331451E-01  0.10205788803E+01  0.10203117054E+01 0.  0.
     999903    2    3    3    0    0 -0.80477376820E-01 -0.84003077545E-01 -0.53282795804E-01  0.12948623970E+00  0.19862143068E-01 0.  0.
         14    1    1    2    0    0 -0.16873966421E-01 -0.86996446885E-02  0.13596331451E-01  0.23351119661E-01  0.00000000000E+00 0. -1.
     999901    1    3    3    0    0  0.97351343241E-01  0.92702722233E-01  0.39686464353E-01  0.89109264063E+00  0.88000000000E+00 0.  1.
        -11    1    4    4    0    0 -0.26270300731E-01 -0.36161523619E-01 -0.28700134125E-01  0.53120083874E-01  0.51100000000E-03 0. -1.
         11    1    4    4    0    0 -0.54207076089E-01 -0.47841553926E-01 -0.24582661679E-01  0.76366155831E-01  0.51100000000E-03 0.  1.
</event>
<event>
 8    1  0.1086486E+005  0.1043930E+01  0.7957747E-01            NaN
         13   -1    0    0    0    0  0.00000000000E+00  0.00000000000E+00  0.74505805969E-08  0.10566000000E+00  0.10566000000E+00 0.  1.
     999900   -1    0    0    0    0 -0.00000000000E+00 -0.00000000000E+00 -0.74505805969E-08  0.93827000000E+00  0.93827000000E+00 0.  1.
     999902    2    1    2    0    0 -0.20691895798E-02  0.88086942127E-02  0.22181570546E-01  0.10199738586E+01  0.10196924907E+01 0.  0.
     999903    2    3    3    0    0 -0.72287834345E-01  0.19494816853E-01 -0.10228448699E+00  0.12838165878E+00  0.20350802304E-01 0.  0.
         14    1    1    2    0    0  0.20691895798E-02 -0.88086942127E-02 -0.22181570546E-01  0.23956141408E-01  0.00000000000E+00 0. -1.
     999901    1    3    3    0    0  0.70218644765E-01 -0.10686122640E-01  0.12446605753E+00  0.89159219981E+00  0.88000000000E+00 0.  1.
        -11    1    4    4    0    0 -0.31318769585E-01  0.31961084058E-02 -0.57356023678E-01  0.65429771591E-01  0.51100000000E-03 0. -1.
         11    1    4    4    0    0 -0.40969064760E-01  0.16298708447E-01 -0.44928463309E-01  0.62951887189E-01  0.51100000000E-03 0.  1.
</event>
<event>
 8    1  0.1086486E+005  0.1043930E+01  0.7957747E-01            NaN
         13   -1    0    0    0    0  0.00000000000E+00  0.00000000000E+00  0.74505805969E-08  0.10566000000E+00  0.10566000000E+00 0.  1.
     999900   -1    0    0    0    0 -0.00000000000E+00 -0.00000000000E+00 -0.74505805969E-08  0.93827000000E+00  0.93827000000E+00 0. -1.
     999902    2    1    2    0    0  0.19090866257E-01 -0.11324345256E-01  0.78509071918E-02  0.10203856012E+01  0.10201139331E+01 0.  0.
     999903    2    3    3    0    0  0.10028890064E+00  0.51898747830E-01 -0.64070089612E-01  0.13147452014E+00  0.20717853334E-01 0.  0.
         14    1    1    2    0    0 -0.19090866257E-01  0.11324345256E-01 -0.78509071918E-02  0.23544398774E-01  0.00000000000E+00 0. -1.
     999901    1    3    3    0    0 -0.81198034382E-01 -0.63223093086E-01  0.71920996803E-01  0.88891108108E+00  0.88000000000E+00 0.  1.
        -11    1    4    4    0    0  0.45487622207E-01  0.12497022368E-01 -0.29486219651E-01  0.55632702725E-01  0.51100000000E-03 0.  1.
         11    1    4    4    0    0  0.54801278432E-01  0.39401725462E-01 -0.34583869961E-01  0.75841817420E-01  0.51100000000E-03 0. -1.
</event>
<event>
 8    1  0.1086486E+005  0.1043930E+01  0.7957747E-01            NaN
         13   -1    0    0    0    0  0.00000000000E+00  0.00000000000E+00  0.74505805969E-08  0.10566000000E+00  0.10566000000E+00 0.  1.
     999900   -1    0    0    0    0 -0.00000000000E+00 -0.00000000000E+00 -0.74505805969E-08  0.93827000000E+00  0.93827000000E+00 0.  1.
     999902    2    1    2    0    0 -0.19711601654E-01 -0.95582711266E-02  0.75473860609E-02  0.10207595269E+01  0.10204965169E+01 0.  0.
     999903    2    3    3    0    0 -0.11968080954E-01  0.11054948404E+00  0.65571505481E-01  0.13067378194E+00  0.20287719796E-01 0.  0.
         14    1    1    2    0    0  0.19711601654E-01  0.95582711266E-02 -0.75473860609E-02  0.23170473086E-01  0.00000000000E+00 0.  1.
     999901    1    3    3    0    0 -0.77435206996E-02 -0.12010775516E+00 -0.58024119420E-01  0.89008574497E+00  0.88000000000E+00 0.  1.
        -11    1    4    4    0    0 -0.81274488109E-02  0.31807808461E-01  0.28834085602E-01  0.43697342217E-01  0.51100000000E-03 0.  1.
         11    1    4    4    0    0 -0.38406321432E-02  0.78741675574E-01  0.36737419879E-01  0.86976439728E-01  0.51100000000E-03 0. -1.
</event>
<event>
 8    1  0.1086486E+005  0.1043930E+01  0.7957747E-01            NaN
         13   -1    0    0    0    0  0.00000000000E+00  0.00000000000E+00  0.74505805969E-08  0.10566000000E+00  0.10566000000E+00 0. -1.
     999900   -1    0    0    0    0 -0.00000000000E+00 -0.00000000000E+00 -0.74505805969E-08  0.93827000000E+00  0.93827000000E+00 0. -1.
     999902    2    1    2    0    0 -0.12844471363E-01  0.20042696152E-01 -0.37803640612E-02  0.10198264470E+01  0.10195415640E+01 0.  0.
     999903    2    3    3    0    0 -0.71634213850E-01 -0.65154855957E-01 -0.84654073672E-01  0.13007624971E+00  0.19413982120E-01 0.  0.
         14    1    1    2    0    0  0.12844471363E-01 -0.20042696152E-01  0.37803640612E-02  0.24103552976E-01  0.00000000000E+00 0. -1.
     999901    1    3    3    0    0  0.58789742487E-01  0.85197552109E-01  0.80873709611E-01  0.88975019731E+00  0.88000000000E+00 0. -1.
        -11    1    4    4    0    0 -0.35049599590E-01 -0.20735917613E-01 -0.28810502782E-01  0.49887462375E-01  0.51100000000E-03 0.  1.
         11    1    4    4    0    0 -0.36584614260E-01 -0.44418938344E-01 -0.55843570890E-01  0.80188787339E-01  0.51100000000E-03 0. -1.
</event>
<event>
 8    1  0.1086486E+005  0.1043930E+01  0.7957747E-01            NaN
         13   -1    0    0    0    0  0.00000000000E+00  0.00000000000E+00  0.74505805969E-08  0.10566000000E+00  0.10566000000E+00 0. -1.
     999900   -1    0    0    0    0 -0.00000000000E+00 -0.00000000000E+00 -0.74505805969E-08  0.93827000000E+00  0.93827000000E+00 0. -1.
     999902    2    1    2    0    0  0.74859496710E-03 -0.91999551889E-02 -0.21638688046E-01  0.10204048562E+01  0.10201336374E+01 0.  0.
     999903    2    3    3    0    0 -0.31699982832E-01  0.43660824590E-01 -0.12013958314E+00  0.13273960479E+00  0.16586944533E-01 0.  0.
         14    1    1    2    0    0 -0.74859496710E-03  0.91999551889E-02  0.21638688046E-01  0.23525143788E-01  0.00000000000E+00 0. -1.
     999901    1    3    3    0    0  0.32448577799E-01 -0.52860779779E-01  0.98500895092E-01  0.88766525142E+00  0.88000000000E+00 0.  1.
        -11    1    4    4    0    0 -0.32421215526E-01  0.34898196716E-01 -0.10088367265E+00  0.11156520909E+00  0.51100000000E-03 0.  1.
         11    1    4    4    0    0  0.72123269403E-03  0.87626278736E-02 -0.19255910488E-01  0.21174395707E-01  0.51100000000E-03 0. -1.
</event>
<event>
 8    1  0.1086486E+005  0.1043930E+01  0.7957747E-01            NaN
         13   -1    0    0    0    0  0.00000000000E+00  0.00000000000E+00  0.74505805969E-08  0.10566000000E+00  0.10566000000E+00 0.  1.
     999900   -1    0    0    0    0 -0.00000000000E+00 -0.00000000000E+00 -0.74505805969E-08  0.93827000000E+00  0.93827000000E+00 0.  1.
     999902    2    1    2    0    0 -0.19754957600E-01  0.96199732898E-02  0.86550596128E-02  0.10203140670E+01  0.10200407261E+01 0.  0.
     999903    2    3    3    0    0 -0.10238089704E+00  0.36985755270E-01 -0.72525963335E-01  0.13230151617E+00  0.19846451851E-01 0.  0.
         14    1    1    2    0    0  0.19754957600E-01 -0.96199732898E-02 -0.86550596128E-02  0.23615933028E-01  0.00000000000E+00 0. -1.
     999901    1    3    3    0    0  0.82625939444E-01 -0.27365781981E-01  0.81181022948E-01  0.88801255080E+00  0.88000000000E+00 0.  1.
        -11    1    4    4    0    0 -0.58468800438E-01  0.30703834416E-01 -0.47681791333E-01  0.81456371257E-01  0.51100000000E-03 0.  1.
         11    1    4    4    0    0 -0.43912096606E-01  0.62819208539E-02 -0.24844172002E-01  0.50845144915E-01  0.51100000000E-03 0. -1.
</event>
<event>
 8    1  0.1086486E+005  0.1043930E+01  0.7957747E-01            NaN
         13   -1    0    0    0    0  0.00000000000E+00  0.00000000000E+00  0.74505805969E-08  0.10566000000E+00  0.10566000000E+00 0. -1.
     999900   -1    0    0    0    0 -0.00000000000E+00 -0.00000000000E+00 -0.74505805969E-08  0.93827000000E+00  0.93827000000E+00 0. -1.
     999902    2    1    2    0    0 -0.24226168477E-02 -0.22723797554E-01  0.11114810963E-01  0.10185178165E+01  0.10182007481E+01 0.  0.
     999903    2    3    3    0    0  0.43174748882E-01 -0.12157744520E+00 -0.14301408653E-01  0.13144558289E+00  0.20694850796E-01 0.  0.
         14    1    1    2    0    0  0.24226168477E-02  0.22723797554E-01 -0.11114810963E-01  0.25412183504E-01  0.00000000000E+00 0.  1.
     999901    1    3    3    0    0 -0.45597365729E-01  0.98853647647E-01  0.25416219616E-01  0.88707223361E+00  0.88000000000E+00 0.  1.
        -11    1    4    4    0    0  0.39242146226E-01 -0.11114046041E+00 -0.18897911904E-01  0.11937143786E+00  0.51100000000E-03 0. -1.
         11    1    4    4    0    0  0.39326026562E-02 -0.10436984790E-01  0.45965032509E-02  0.12074145033E-01  0.51100000000E-03 0.  1.
</event>
<event>
 8    1  0.1086486E+005  0.1043930E+01  0.7957747E-01            NaN
         13   -1    0    0    0    0  0.00000000000E+00  0.00000000000E+00  0.74505805969E-08  0.10566000000E+00  0.10566000000E+00 0. -1.
     999900   -1    0    0    0    0 -0.00000000000E+00 -0.00000000000E+00 -0.74505805969E-08  0.93827000000E+00  0.93827000000E+00 0. -1.
     999902    2    1    2    0    0  0.72043989014E-02  0.19906967390E-01  0.12415180244E-01  0.10193876404E+01  0.10190921617E+01 0.  0.
     999903    2    3    3    0    0  0.40156750879E-01 -0.99298459830E-01  0.69007294667E-01  0.12893918103E+00  0.19762513044E-01 0.  0.
         14    1    1    2    0    0 -0.72043989014E-02 -0.19906967390E-01 -0.12415180244E-01  0.24542359599E-01  0.00000000000E+00 0. -1.
     999901    1    3    3    0    0 -0.32952351977E-01  0.11920542722E+00 -0.56592114423E-01  0.89044845937E+00  0.88000000000E+00 0. -1.
        -11    1    4    4    0    0  0.34932556743E-01 -0.88915904344E-01  0.53310662180E-01  0.10940113980E+00  0.51100000000E-03 0. -1.
         11    1    4    4    0    0  0.52241941356E-02 -0.10382555486E-01  0.15696632487E-01  0.19538041233E-01  0.51100000000E-03 0.  1.
</event>
<event>
 8    1  0.1086486E+005  0.1043930E+01  0.7957747E-01            NaN
         13   -1    0    0    0    0  0.00000000000E+00  0.00000000000E+00  0.74505805969E-08  0.10566000000E+00  0.10566000000E+00 0.  1.
     999900   -1    0    0    0    0 -0.00000000000E+00 -0.00000000000E+00 -0.74505805969E-08  0.93827000000E+00  0.93827000000E+00 0.  1.
     999902    2    1    2    0    0  0.14558790604E-01 -0.17341108845E-01 -0.59599693968E-02  0.10205164639E+01  0.10202478421E+01 0.  0.
     999903    2    3    3    0    0 -0.20069321149E-01  0.12475270650E+00 -0.11158816918E-01  0.12843082531E+00  0.20098314909E-01 0.  0.
         14    1    1    2    0    0 -0.14558790604E-01  0.17341108845E-01  0.59599693968E-02  0.23413536149E-01  0.00000000000E+00 0. -1.
     999901    1    3    3    0    0  0.34628111753E-01 -0.14209381535E+00  0.51988475208E-02  0.89208563855E+00  0.88000000000E+00 0. -1.
        -11    1    4    4    0    0 -0.11064055320E-01  0.67552760986E-01 -0.16071667838E-01  0.70316061217E-01  0.51100000000E-03 0. -1.
         11    1    4    4    0    0 -0.90052658299E-02  0.57199945517E-01  0.49128509203E-02  0.58114764088E-01  0.51100000000E-03 0.  1.
</event>
<event>
 8    1  0.1086486E+005  0.1043930E+01  0.7957747E-01            NaN
         13   -1    0    0    0    0  0.00000000000E+00  0.00000000000E+00  0.74505805969E-08  0.10566000000E+00  0.10566000000E+00 0. -1.
     999900   -1    0    0    0    0 -0.00000000000E+00 -0.00000000000E+00 -0.74505805969E-08  0.93827000000E+00  0.93827000000E+00 0.  1.
     999902    2    1    2    0    0  0.20377075701E-01 -0.69874232459E-02  0.11146236571E-01  0.10196753533E+01  0.10193868442E+01 0.  0.
     999903    2    3    3    0    0 -0.11198531859E+00 -0.57716546046E-01 -0.11846676206E-01  0.12803533547E+00  0.19513895675E-01 0.  0.
         14    1    1    2    0    0 -0.20377075701E-01  0.69874232459E-02 -0.11146236571E-01  0.24254646718E-01  0.00000000000E+00 0. -1.
     999901    1    3    3    0    0  0.13236239429E+00  0.50729122800E-01  0.22992912777E-01  0.89164001781E+00  0.88000000000E+00 0. -1.
        -11    1    4    4    0    0 -0.62669029166E-01 -0.38261402533E-01  0.11951542430E-02  0.73437263396E-01  0.51100000000E-03 0.  1.
         11    1    4    4    0    0 -0.49316289426E-01 -0.19455143512E-01 -0.13041830449E-01  0.54598072075E-01  0.51100000000E-03 0. -1.
</event>
<event>
 8    1  0.1086486E+005  0.1043930E+01  0.7957747E-01            NaN
         13   -1    0    0    0    0  0.00000000000E+00  0.00000000000E+00  0.74505805969E-08  0.10566000000E+00  0.10566000000E+00 0. -1.
     999900   -1    0    0    0    0 -0.00000000000E+00 -0.00000000000E+00 -0.74505805969E-08  0.93827000000E+00  0.93827000000E+00 0.  1.
     999902    2    1    2    0    0  0.18650555847E-01 -0.48101373439E-02 -0.13219749980E-01  0.10205688689E+01  0.10203014622E+01 0.  0.
     999903    2    3    3    0    0 -0.34544637083E-01  0.11820975859E+00  0.30992779760E-01  0.12932346439E+00  0.24436183591E-01 0.  0.
         14    1    1    2    0    0 -0.18650555847E-01  0.48101373439E-02  0.13219749980E-01  0.23361131055E-01  0.00000000000E+00 0. -1.
     999901    1    3    3    0    0  0.53195192929E-01 -0.12301989593E+00 -0.44212529740E-01  0.89124540455E+00  0.88000000000E+00 0. -1.
        -11    1    4    4    0    0 -0.14070589588E-01  0.16091978769E-01  0.43845888068E-02  0.21827024810E-01  0.51100000000E-03 0. -1.
         11    1    4    4    0    0 -0.20474047495E-01  0.10211777982E+00  0.26608190953E-01  0.10749643958E+00  0.51100000000E-03 0.  1.
</event>
<event>
 8    1  0.1086486E+005  0.1043930E+01  0.7957747E-01            NaN
         13   -1    0    0    0    0  0.00000000000E+00  0.00000000000E+00  0.74505805969E-08  0.10566000000E+00  0.10566000000E+00 0.  1.
     999900   -1    0    0    0    0 -0.00000000000E+00 -0.00000000000E+00 -0.74505805969E-08  0.93827000000E+00  0.93827000000E+00 0.  1.
     999902    2    1    2    0    0 -0.18034370553E-01 -0.12911102302E-01  0.39003549019E-02  0.10214100566E+01  0.10211617677E+01 0.  0.
     999903    2    3    3    0    0 -0.20591494056E-01 -0.34791456965E-01 -0.12388199339E+00  0.13190816374E+00  0.20458745553E-01 0.  0.
         14    1    1    2    0    0  0.18034370553E-01  0.12911102302E-01 -0.39003549019E-02  0.22519943434E-01  0.00000000000E+00 0. -1.
     999901    1    3    3    0    0  0.25571235021E-02  0.21880354663E-01  0.12778234830E+00  0.88950189282E+00  0.88000000000E+00 0. -1.
        -11    1    4    4    0    0 -0.15638999239E-01 -0.36606492590E-01 -0.10489541010E+00  0.11219590803E+00  0.51100000000E-03 0. -1.
         11    1    4    4    0    0 -0.49524948163E-02  0.18150356257E-02 -0.18986583293E-01  0.19712255715E-01  0.51100000000E-03 0.  1.
</event>
<event>
 8    1  0.1086486E+005  0.1043930E+01  0.7957747E-01            NaN
         13   -1    0    0    0    0  0.00000000000E+00  0.00000000000E+00  0.74505805969E-08  0.10566000000E+00  0.10566000000E+00 0.  1.
     999900   -1    0    0    0    0 -0.00000000000E+00 -0.00000000000E+00 -0.74505805969E-08  0.93827000000E+00  0.93827000000E+00 0.  1.
     999902    2    1    2    0    0 -0.18173772137E-01 -0.14504574045E-01 -0.14379757206E-03  0.10206772724E+01  0.10204123701E+01 0.  0.
     999903    2    3    3    0    0  0.26814195724E-02 -0.88830829252E-01 -0.95754478367E-01  0.13213873442E+00  0.19839827899E-01 0.  0.
         14    1    1    2    0    0  0.18173772137E-01  0.14504574045E-01  0.14379757206E-03  0.23252727574E-01  0.00000000000E+00 0.  1.
     999901    1    3    3    0    0 -0.20855191709E-01  0.74326255207E-01  0.95610680795E-01  0.88853853800E+00  0.88000000000E+00 0. -1.
        -11    1    4    4    0    0  0.94241495592E-02 -0.70157848510E-01 -0.69347189551E-01  0.99097084326E-01  0.51100000000E-03 0.  1.
         11    1    4    4    0    0 -0.67427299869E-02 -0.18672980742E-01 -0.26407288816E-01  0.33041650096E-01  0.51100000000E-03 0. -1.
</event>
<event>
 8    1  0.1086486E+005  0.1043930E+01  0.7957747E-01            NaN
         13   -1    0    0    0    0  0.00000000000E+00  0.00000000000E+00  0.74505805969E-08  0.10566000000E+00  0.10566000000E+00 0. -1.
     999900   -1    0    0    0    0 -0.00000000000E+00 -0.00000000000E+00 -0.74505805969E-08  0.93827000000E+00  0.93827000000E+00 0. -1.
     999902    2    1    2    0    0  0.18253317675E-01 -0.21194057861E-02  0.13885793335E-01  0.10208976153E+01  0.10206377664E+01 0.  0.
     999903    2    3    3    0    0 -0.62201984318E-01 -0.37970588671E-01 -0.10411557583E+00  0.12866295670E+00  0.20081106523E-01 0.  0.
         14    1    1    2    0    0 -0.18253317675E-01  0.21194057861E-02 -0.13885793335E-01  0.23032384670E-01  0.00000000000E+00 0.  1.
     999901    1    3    3    0    0  0.80455301993E-01  0.35851182885E-01  0.11800136917E+00  0.89223465863E+00  0.88000000000E+00 0.  1.
        -11    1    4    4    0    0 -0.13384407566E-01 -0.14527757116E-01 -0.40885548032E-01  0.45410210874E-01  0.51100000000E-03 0. -1.
         11    1    4    4    0    0 -0.48817576752E-01 -0.23442831555E-01 -0.63230027800E-01  0.83252745828E-01  0.51100000000E-03 0.  1.
</event>
<event>
 8    1  0.1086486E+005  0.1043930E+01  0.7957747E-01            NaN
         13   -1    0    0    0    0  0.00000000000E+00  0.00000000000E+00  0.74505805969E-08  0.10566000000E+00  0.10566000000E+00 0.  1.
     999900   -1    0    0    0    0 -0.00000000000E+00 -0.00000000000E+00 -0.74505805969E-08  0.93827000000E+00  0.93827000000E+00 0.  1.
     999902    2    1    2    0    0 -0.19662960868E-01 -0.11933522711E-01  0.51952300613E-04  0.10209290502E+01  0.10206699181E+01 0.  0.
     999903    2    3    3    0    0 -0.10131616731E+00 -0.85582853549E-01 -0.10008036050E-02  0.13408488214E+00  0.19706938637E-01 0.  0.
         14    1    1    2    0    0  0.19662960868E-01  0.11933522711E-01 -0.51952300613E-04  0.23000949837E-01  0.00000000000E+00 0.  1.
     999901    1    3    3    0    0  0.81653206447E-01  0.73649330838E-01  0.10527559056E-02  0.88684416802E+00  0.88000000000E+00 0.  1.
        -11    1    4    4    0    0 -0.39433745028E-01 -0.43584589681E-01  0.53746894272E-02  0.59023597925E-01  0.51100000000E-03 0.  1.
         11    1    4    4    0    0 -0.61882422286E-01 -0.41998263868E-01 -0.63754930322E-02  0.75061284217E-01  0.51100000000E-03 0. -1.
</event>
<event>
 8    1  0.1086486E+005  0.1043930E+01  0.7957747E-01            NaN
         13   -1    0    0    0    0  0.00000000000E+00  0.00000000000E+00  0.74505805969E-08  0.10566000000E+00  0.10566000000E+00 0.  1.
     999900   -1    0    0    0    0 -0.00000000000E+00 -0.00000000000E+00 -0.74505805969E-08  0.93827000000E+00  0.93827000000E+00 0.  1.
     999902    2    1    2    0    0 -0.14548463560E-01 -0.40349212751E-02 -0.17230491030E-01  0.10210208708E+01  0.10207638269E+01 0.  0.
     999903    2    3    3    0    0 -0.72629259663E-01 -0.13397923010E-01 -0.11056340335E+00  0.13413188266E+00  0.17679991112E-01 0.  0.
         14    1    1    2    0    0  0.14548463560E-01  0.40349212751E-02  0.17230491030E-01  0.22909129246E-01  0.00000000000E+00 0.  1.
     999901    1    3    3    0    0  0.58080796102E-01  0.93630017349E-02  0.93332912321E-01  0.88688898809E+00  0.88000000000E+00 0. -1.
        -11    1    4    4    0    0 -0.91363427697E-02 -0.18160898580E-02 -0.26861076842E-01  0.28435005042E-01  0.51100000000E-03 0. -1.
         11    1    4    4    0    0 -0.63492916893E-01 -0.11581833152E-01 -0.83702326509E-01  0.10569687762E+00  0.51100000000E-03 0.  1.
</event>
<event>
 8    1  0.1086486E+005  0.1043930E+01  0.7957747E-01            NaN
         13   -1    0    0    0    0  0.00000000000E+00  0.00000000000E+00  0.74505805969E-08  0.10566000000E+00  0.10566000000E+00 0. -1.
     999900   -1    0    0    0    0 -0.00000000000E+00 -0.00000000000E+00 -0.74505805969E-08  0.93827000000E+00  0.93827000000E+00 0.  1.
     999902    2    1    2    0    0 -0.20856939263E-01  0.86564705496E-02  0.10401506444E-01  0.10190676241E+01  0.10187642931E+01 0.  0.
     999903    2    3    3    0    0 -0.10422712810E+00 -0.14037313852E-01 -0.75025560165E-01  0.13071894261E+00  0.19956624638E-01 0.  0.
         14    1    1    2    0    0  0.20856939263E-01 -0.86564705496E-02 -0.10401506444E-01  0.24862375874E-01  0.00000000000E+00 0.  1.
     999901    1    3    3    0    0  0.83370188839E-01  0.22693784401E-01  0.85427066609E-01  0.88834868151E+00  0.88000000000E+00 0. -1.
        -11    1    4    4    0    0 -0.32413377564E-01  0.24639599508E-02 -0.15622729576E-01  0.36069778820E-01  0.51100000000E-03 0. -1.
         11    1    4    4    0    0 -0.71813750538E-01 -0.16501273803E-01 -0.59402830590E-01  0.94649163792E-01  0.51100000000E-03 0.  1.
</event>
<event>
 8    1  0.1086486E+005  0.1043930E+01  0.7957747E-01            NaN
         13   -1    0    0    0    0  0.00000000000E+00  0.00000000000E+00  0.74505805969E-08  0.10566000000E+00  0.10566000000E+00 0.  1.
     999900   -1    0    0    0    0 -0.00000000000E+00 -0.00000000000E+00 -0.74505805969E-08  0.93827000000E+00  0.93827000000E+00 0. -1.
     999902    2    1    2    0    0 -0.50352639099E-02  0.19328076982E-01  0.14152340335E-01  0.10194510870E+01  0.10191571526E+01 0.  0.
     999903    2    3    3    0    0 -0.97938781677E-01 -0.36192020527E-01  0.75903619016E-01  0.13067284403E+00  0.20301859041E-01 0.  0.
         14    1    1    2    0    0  0.50352639099E-02 -0.19328076982E-01 -0.14152340335E-01  0.24478912955E-01  0.00000000000E+00 0. -1.
     999901    1    3    3    0    0  0.92903517767E-01  0.55520097510E-01 -0.61751278681E-01  0.88877824302E+00  0.88000000000E+00 0. -1.
        -11    1    4    4    0    0 -0.52252340271E-01 -0.10396199135E-01  0.31195190783E-01  0.61739687958E-01  0.51100000000E-03 0.  1.
         11    1    4    4    0    0 -0.45686441407E-01 -0.25795821393E-01  0.44708428233E-01  0.68933156071E-01  0.51100000000E-03 0. -1.
</event>
<event>
 8    1  0.1086486E+005  0.1043930E+01  0.7957747E-01            NaN
         13   -1    0    0    0    0  0.00000000000E+00  0.00000000000E+00  0.74505805969E-08  0.10566000000E+00  0.10566000000E+00 0.  1.
     999900   -1    0    0    0    0 -0.00000000000E+00 -0.00000000000E+00 -0.74505805969E-08  0.93827000000E+00  0.93827000000E+00 0. -1.
     999902    2    1    2    0    0 -0.20698787766E-01  0.97001285041E-02  0.92310969661E-02  0.10192775060E+01  0.10189793368E+01 0.  0.
     999903    2    3    3    0    0  0.11160048398E+00  0.55436071126E-01 -0.20113401259E-01  0.12773055082E+00  0.19563197539E-01 0.  0.
         14    1    1    2    0    0  0.20698787766E-01 -0.97001285041E-02 -0.92310969661E-02  0.24652493975E-01  0.00000000000E+00 0. -1.
     999901    1    3    3    0    0 -0.13229927174E+00 -0.45735942622E-01  0.29344498226E-01  0.89154695520E+00  0.88000000000E+00 0. -1.
        -11    1    4    4    0    0  0.60650310882E-01  0.30893940008E-01 -0.20789189967E-01  0.71171253183E-01  0.51100000000E-03 0.  1.
         11    1    4    4    0    0  0.50950173095E-01  0.24542131119E-01  0.67578870734E-03  0.56559297641E-01  0.51100000000E-03 0. -1.
</event>
<event>
 8    1  0.1086486E+005  0.1043930E+01  0.7957747E-01            NaN
         13   -1    0    0    0    0  0.00000000000E+00  0.00000000000E+00  0.74505805969E-08  0.10566000000E+00  0.10566000000E+00 0.  1.
     999900   -1    0    0    0    0 -0.00000000000E+00 -0.00000000000E+00 -0.74505805969E-08  0.93827000000E+00  0.93827000000E+00 0. -1.
     999902    2    1    2    0    0 -0.29070071132E-02 -0.15640612593E-01 -0.93431510723E-02  0.10254807744E+01  0.10253148028E+01 0.  0.
     999903    2    3    3    0    0 -0.65735007289E-01 -0.73562302450E-01 -0.93324033449E-01  0.13736193757E+00  0.20650015694E-01 0.  0.
         14    1    1    2    0    0  0.29070071132E-02  0.15640612593E-01  0.93431510723E-02  0.18449225583E-01  0.00000000000E+00 0.  1.
     999901    1    3    3    0    0  0.62828000176E-01  0.57921689857E-01  0.83980882376E-01  0.88811883685E+00  0.88000000000E+00 0.  1.
        -11    1    4    4    0    0 -0.10142141071E-01 -0.53223523901E-02 -0.18849054043E-01  0.22062149029E-01  0.51100000000E-03 0.  1.
         11    1    4    4    0    0 -0.55592866218E-01 -0.68239950060E-01 -0.74474979405E-01  0.11529978854E+00  0.51100000000E-03 0. -1.
</event>
<event>
 8    1  0.1086486E+005  0.1043930E+01  0.7957747E-01            NaN
         13   -1    0    0    0    0  0.00000000000E+00  0.00000000000E+00  0.74505805969E-08  0.10566000000E+00  0.10566000000E+00 0. -1.
     999900   -1    0    0    0    0 -0.00000000000E+00 -0.00000000000E+00 -0.74505805969E-08  0.93827000000E+00  0.93827000000E+00 0.  1.
     999902    2    1    2    0    0 -0.18638523326E-01 -0.14548204539E-01 -0.38164550060E-04  0.10202858408E+01  0.10200118385E+01 0.  0.
     999903    2    3    3    0    0  0.54263551802E-02 -0.12975149217E+00 -0.15838695611E-01  0.13231029349E+00  0.19754858536E-01 0.  0.
         14    1    1    2    0    0  0.18638523326E-01  0.14548204539E-01  0.38164550060E-04  0.23644159186E-01  0.00000000000E+00 0.  1.
     999901    1    3    3    0    0 -0.24064878507E-01  0.11520328763E+00  0.15800531061E-01  0.88797554732E+00  0.88000000000E+00 0. -1.
        -11    1    4    4    0    0 -0.71441467503E-02 -0.60323490654E-01 -0.92014920488E-02  0.61440141067E-01  0.51100000000E-03 0.  1.
         11    1    4    4    0    0  0.12570501930E-01 -0.69428001512E-01 -0.66372035624E-02  0.70870152426E-01  0.51100000000E-03 0. -1.
</event>
<event>
 8    1  0.1086486E+005  0.1043930E+01  0.7957747E-01            NaN
         13   -1    0    0    0    0  0.00000000000E+00  0.00000000000E+00  0.74505805969E-08  0.10566000000E+00  0.10566000000E+00 0.  1.
     999900   -1    0    0    0    0 -0.00000000000E+00 -0.00000000000E+00 -0.74505805969E-08  0.93827000000E+00  0.93827000000E+00 0. -1.
     999902    2    1    2    0    0 -0.12438999357E-01  0.12163577994E-01 -0.40176044221E-02  0.10260743992E+01  0.10259190271E+01 0.  0.
     999903    2    3    3    0    0 -0.22212741372E-03 -0.19762754816E-01  0.13199919967E+00  0.13496884222E+00  0.20054521641E-01 0.  0.
         14    1    1    2    0    0  0.12438999357E-01 -0.12163577994E-01  0.40176044221E-02  0.17855600800E-01  0.00000000000E+00 0.  1.
     999901    1    3    3    0    0 -0.12216871944E-01  0.31926332810E-01 -0.13601680409E+00  0.89110555698E+00  0.88000000000E+00 0. -1.
        -11    1    4    4    0    0 -0.27646868745E-02 -0.23389963801E-01  0.11547504698E+00  0.11785364439E+00  0.51100000000E-03 0. -1.
         11    1    4    4    0    0  0.25425594608E-02  0.36272089844E-02  0.16524152687E-01  0.17115197827E-01  0.51100000000E-03 0.  1.
</event>
<event>
 8    1  0.1086486E+005  0.1043930E+01  0.7957747E-01            NaN
         13   -1    0    0    0    0  0.00000000000E+00  0.00000000000E+00  0.74505805969E-08  0.10566000000E+00  0.10566000000E+00 0.  1.
     999900   -1    0    0    0    0 -0.00000000000E+00 -0.00000000000E+00 -0.74505805969E-08  0.93827000000E+00  0.93827000000E+00 0. -1.
     999902    2    1    2    0    0  0.66071850311E-02  0.20979973009E-01  0.76487214432E-05  0.10219342227E+01  0.10216974803E+01 0.  0.
     999903    2    3    3    0    0  0.78217367703E-01  0.10775895381E+00 -0.53870985668E-02  0.13475458299E+00  0.19995701304E-01 0.  0.
         14    1    1    2    0    0 -0.66071850311E-02 -0.20979973009E-01 -0.76487214432E-05  0.21995777322E-01  0.00000000000E+00 0.  1.
     999901    1    3    3    0    0 -0.71610182672E-01 -0.86778980800E-01  0.53947472882E-02  0.88717963968E+00  0.88000000000E+00 0.  1.
        -11    1    4    4    0    0  0.26677440317E-01  0.51531516837E-01 -0.70730854886E-02  0.58459154191E-01  0.51100000000E-03 0.  1.
         11    1    4    4    0    0  0.51539927386E-01  0.56227436971E-01  0.16859869218E-02  0.76295428803E-01  0.51100000000E-03 0. -1.
</event>
<event>
 8    1  0.1086486E+005  0.1043930E+01  0.7957747E-01            NaN
         13   -1    0    0    0    0  0.00000000000E+00  0.00000000000E+00  0.74505805969E-08  0.10566000000E+00  0.10566000000E+00 0.  1.
     999900   -1    0    0    0    0 -0.00000000000E+00 -0.00000000000E+00 -0.74505805969E-08  0.93827000000E+00  0.93827000000E+00 0.  1.
     999902    2    1    2    0    0 -0.77027334272E-02  0.38517141330E-02 -0.22229129813E-01  0.10200909141E+01  0.10198123215E+01 0.  0.
     999903    2    3    3    0    0 -0.11718570265E+00 -0.45856361059E-01  0.27411393681E-01  0.13052832785E+00  0.21235939201E-01 0.  0.
         14    1    1    2    0    0  0.77027334272E-02 -0.38517141330E-02  0.22229129813E-01  0.23839085894E-01  0.00000000000E+00 0.  1.
     999901    1    3    3    0    0  0.10948296922E+00  0.49708075192E-01 -0.49640523495E-01  0.88956258625E+00  0.88000000000E+00 0.  1.
        -11    1    4    4    0    0 -0.23357754907E-01 -0.43101479772E-03  0.46482029544E-02  0.23825142177E-01  0.51100000000E-03 0. -1.
         11    1    4    4    0    0 -0.93827947741E-01 -0.45425346261E-01  0.22763190727E-01  0.10670318568E+00  0.51100000000E-03 0.  1.
</event>
<event>
 8    1  0.1086486E+005  0.1043930E+01  0.7957747E-01            NaN
         13   -1    0    0    0    0  0.00000000000E+00  0.00000000000E+00  0.74505805969E-08  0.10566000000E+00  0.10566000000E+00 0.  1.
     999900   -1    0    0    0    0 -0.00000000000E+00 -0.00000000000E+00 -0.74505805969E-08  0.93827000000E+00  0.93827000000E+00 0. -1.
     999902    2    1    2    0    0  0.98292327421E-02 -0.20890804636E-01 -0.39207893038E-02  0.10205117993E+01  0.10202430693E+01 0.  0.
     999903    2    3    3    0    0 -0.51998873232E-01  0.19113580578E-01  0.11533102820E+00  0.12942029924E+00  0.19471928773E-01 0.  0.
         14    1    1    2    0    0 -0.98292327421E-02  0.20890804636E-01  0.39207893038E-02  0.23418200687E-01  0.00000000000E+00 0.  1.
     999901    1    3    3    0    0  0.61828105974E-01 -0.40004385214E-01 -0.11925181750E+00  0.89109150007E+00  0.88000000000E+00 0. -1.
        -11    1    4    4    0    0 -0.43013391276E-01  0.20628119110E-01  0.82056139631E-01  0.94916501722E-01  0.51100000000E-03 0. -1.
         11    1    4    4    0    0 -0.89854819563E-02 -0.15145385326E-02  0.33274888568E-01  0.34503797518E-01  0.51100000000E-03 0.  1.
</event>
<event>
 8    1  0.1086486E+005  0.1043930E+01  0.7957747E-01            NaN
         13   -1    0    0    0    0  0.00000000000E+00  0.00000000000E+00  0.74505805969E-08  0.10566000000E+00  0.10566000000E+00 0.  1.
     999900   -1    0    0    0    0 -0.00000000000E+00 -0.00000000000E+00 -0.74505805969E-08  0.93827000000E+00  0.93827000000E+00 0. -1.
     999902    2    1    2    0    0  0.19982299839E-01  0.99880650927E-03  0.11134808840E-01  0.10210329720E+01  0.10207762028E+01 0.  0.
     999903    2    3    3    0    0  0.98956671167E-01  0.56640153896E-01 -0.64893502916E-01  0.13248741044E+00  0.18472070847E-01 0.  0.
         14    1    1    2    0    0 -0.19982299839E-01 -0.99880650927E-03 -0.11134808840E-01  0.22897027956E-01  0.00000000000E+00 0.  1.
     999901    1    3    3    0    0 -0.78974371328E-01 -0.55641347386E-01  0.76028311756E-01  0.88854556161E+00  0.88000000000E+00 0. -1.
        -11    1    4    4    0    0  0.60698161502E-01  0.44781112694E-01 -0.41280823009E-01  0.85988268579E-01  0.51100000000E-03 0. -1.
         11    1    4    4    0    0  0.38258509665E-01  0.11859041201E-01 -0.23612679908E-01  0.46499141857E-01  0.51100000000E-03 0.  1.
</event>
<event>
 8    1  0.1086486E+005  0.1043930E+01  0.7957747E-01            NaN
         13   -1    0    0    0    0  0.00000000000E+00  0.00000000000E+00  0.74505805969E-08  0.10566000000E+00  0.10566000000E+00 0. -1.
     999900   -1    0    0    0    0 -0.00000000000E+00 -0.00000000000E+00 -0.74505805969E-08  0.93827000000E+00  0.93827000000E+00 0. -1.
     999902    2    1    2    0    0  0.16731556653E-01  0.16617850206E-02  0.18042306012E-01  0.10192676537E+01  0.10189692432E+01 0.  0.
     999903    2    3    3    0    0  0.97941319760E-01  0.42710036649E-03  0.87966330750E-01  0.13276558418E+00  0.17202920291E-01 0.  0.
         14    1    1    2    0    0 -0.16731556653E-01 -0.16617850206E-02 -0.18042306012E-01  0.24662346273E-01  0.00000000000E+00 0.  1.
     999901    1    3    3    0    0 -0.81209763108E-01  0.12346846541E-02 -0.69924024739E-01  0.88650206954E+00  0.88000000000E+00 0.  1.
        -11    1    4    4    0    0  0.70737856966E-01  0.78729240909E-02  0.64993498197E-01  0.96385908051E-01  0.51100000000E-03 0. -1.
         11    1    4    4    0    0  0.27203462794E-01 -0.74458237244E-02  0.22972832554E-01  0.36379676132E-01  0.51100000000E-03 0.  1.
</event>
<event>
 8    1  0.1086486E+005  0.1043930E+01  0.7957747E-01            NaN
         13   -1    0    0    0    0  0.00000000000E+00  0.00000000000E+00  0.74505805969E-08  0.10566000000E+00  0.10566000000E+00 0. -1.
     999900   -1    0    0    0    0 -0.00000000000E+00 -0.00000000000E+00 -0.74505805969E-08  0.93827000000E+00  0.93827000000E+00 0.  1.
     999902    2    1    2    0    0  0.15585276492E-01 -0.78778035919E-02 -0.16509343250E-01  0.10198983740E+01  0.10196152089E+01 0.  0.
     999903    2    3    3    0    0 -0.34894314221E-01  0.10718845479E+00 -0.61234264407E-01  0.12984851504E+00  0.20100341144E-01 0.  0.
         14    1    1    2    0    0 -0.15585276492E-01  0.78778035919E-02  0.16509343250E-01  0.24031625982E-01  0.00000000000E+00 0. -1.
     999901    1    3    3    0    0  0.50479590713E-01 -0.11506625839E+00  0.44724921157E-01  0.89004985898E+00  0.88000000000E+00 0.  1.
        -11    1    4    4    0    0 -0.23307673440E-01  0.42691267872E-01 -0.30982246519E-01  0.57671073460E-01  0.51100000000E-03 0. -1.
         11    1    4    4    0    0 -0.11586640781E-01  0.64497186923E-01 -0.30252017888E-01  0.72177441579E-01  0.51100000000E-03 0.  1.
</event>
<event>
 8    1  0.1086486E+005  0.1043930E+01  0.7957747E-01            NaN
         13   -1    0    0    0    0  0.00000000000E+00  0.00000000000E+00  0.74505805969E-08  0.10566000000E+00  0.10566000000E+00 0. -1.
     999900   -1    0    0    0    0 -0.00000000000E+00 -0.00000000000E+00 -0.74505805969E-08  0.93827000000E+00  0.93827000000E+00 0.  1.
     999902    2    1    2    0    0 -0.25574508309E-02  0.87085537906E-02 -0.22100210101E-01  0.10200386051E+01  0.10197587740E+01 0.  0.
     999903    2    3    3    0    0  0.37995386134E-01  0.70223097316E-01 -0.10475873928E+00  0.13309948425E+00  0.19134954570E-01 0.  0.
         14    1    1    2    0    0  0.25574508309E-02 -0.87085537906E-02  0.22100210101E-01  0.23891394903E-01  0.00000000000E+00 0. -1.
     999901    1    3    3    0    0 -0.40552836965E-01 -0.61514543526E-01  0.82658529180E-01  0.88693912085E+00  0.88000000000E+00 0. -1.
        -11    1    4    4    0    0  0.11549786801E-01  0.41396994141E-01 -0.55066036149E-01  0.69854406856E-01  0.51100000000E-03 0.  1.
         11    1    4    4    0    0  0.26445599334E-01  0.28826103175E-01 -0.49692703132E-01  0.63245077389E-01  0.51100000000E-03 0. -1.
</event>
<event>
 8    1  0.1086486E+005  0.1043930E+01  0.7957747E-01            NaN
         13   -1    0    0    0    0  0.00000000000E+00  0.00000000000E+00  0.74505805969E-08  0.10566000000E+00  0.10566000000E+00 0. -1.
     999900   -1    0    0    0    0 -0.00000000000E+00 -0.00000000000E+00 -0.74505805969E-08  0.93827000000E+00  0.93827000000E+00 0.  1.
     999902    2    1    2    0    0  0.10369071877E-01 -0.13825474773E-02  0.23609784533E-01  0.10181065414E+01  0.10177789930E+01 0.  0.
     999903    2    3    3    0    0  0.99588390487E-01 -0.78175868994E-01 -0.17270064172E-01  0.12932734323E+00  0.19949751323E-01 0.  0.
         14    1    1    2    0    0 -0.10369071877E-01  0.13825474773E-02 -0.23609784533E-01  0.25823458614E-01  0.00000000000E+00 0.  1.
     999901    1    3    3    0    0 -0.89219318610E-01  0.76793321517E-01  0.40879848705E-01  0.88877919815E+00  0.88000000000E+00 0. -1.
        -11    1    4    4    0    0  0.44127577649E-01 -0.25979040724E-01  0.99668719938E-04  0.51209615513E-01  0.51100000000E-03 0. -1.
         11    1    4    4    0    0  0.55460812838E-01 -0.52196828270E-01 -0.17369732892E-01  0.78117727718E-01  0.51100000000E-03 0.  1.
</event>
<event>
 8    1  0.1086486E+005  0.1043930E+01  0.7957747E-01            NaN
         13   -1    0    0    0    0  0.00000000000E+00  0.00000000000E+00  0.74505805969E-08  0.10566000000E+00  0.10566000000E+00 0. -1.
     999900   -1    0    0    0    0 -0.00000000000E+00 -0.00000000000E+00 -0.74505805969E-08  0.93827000000E+00  0.93827000000E+00 0. -1.
     999902    2    1    2    0    0 -0.18985064188E-02 -0.19810819577E-01 -0.13186316504E-01  0.10200563358E+01  0.10197769248E+01 0.  0.
     999903    2    3    3    0    0  0.70113236376E-01 -0.14669100381E-01  0.10560056261E+00  0.12914531274E+00  0.19899360749E-01 0.  0.
         14    1    1    2    0    0  0.18985064188E-02  0.19810819577E-01  0.13186316504E-01  0.23873664190E-01  0.00000000000E+00 0.  1.
     999901    1    3    3    0    0 -0.72011742794E-01 -0.51417191961E-02 -0.11878687911E+00  0.89091102307E+00  0.88000000000E+00 0. -1.
        -11    1    4    4    0    0  0.43749888688E-01 -0.10184167381E-02  0.72441068806E-01  0.84634859861E-01  0.51100000000E-03 0.  1.
         11    1    4    4    0    0  0.26363347688E-01 -0.13650683643E-01  0.33159493804E-01  0.44510452880E-01  0.51100000000E-03 0. -1.
</event>
<event>
 8    1  0.1086486E+005  0.1043930E+01  0.7957747E-01            NaN
         13   -1    0    0    0    0  0.00000000000E+00  0.00000000000E+00  0.74505805969E-08  0.10566000000E+00  0.10566000000E+00 0.  1.
     999900   -1    0    0    0    0 -0.00000000000E+00 -0.00000000000E+00 -0.74505805969E-08  0.93827000000E+00  0.93827000000E+00 0. -1.
     999902    2    1    2    0    0 -0.48793831343E-02 -0.17734151435E-01 -0.26466870330E-02  0.10253473883E+01  0.10251789859E+01 0.  0.
     999903    2    3    3    0    0 -0.41024936227E-02  0.10589001331E+00  0.78076681922E-01  0.13304710250E+00  0.19391695435E-01 0.  0.
         14    1    1    2    0    0  0.48793831343E-02  0.17734151435E-01  0.26466870330E-02  0.18582611742E-01  0.00000000000E+00 0.  1.
     999901    1    3    3    0    0 -0.77688951167E-03 -0.12362416474E+00 -0.80723368955E-01  0.89230028576E+00  0.88000000000E+00 0. -1.
        -11    1    4    4    0    0 -0.88350343577E-02  0.22142446948E-01  0.17055920550E-01  0.29317423757E-01  0.51100000000E-03 0. -1.
         11    1    4    4    0    0  0.47325407350E-02  0.83747566360E-01  0.61020761372E-01  0.10372967875E+00  0.51100000000E-03 0.  1.
</event>
<event>
 8    1  0.1086486E+005  0.1043930E+01  0.7957747E-01            NaN
         13   -1    0    0    0    0  0.00000000000E+00  0.00000000000E+00  0.74505805969E-08  0.10566000000E+00  0.10566000000E+00 0.  1.
     999900   -1    0    0    0    0 -0.00000000000E+00 -0.00000000000E+00 -0.74505805969E-08  0.93827000000E+00  0.93827000000E+00 0. -1.
     999902    2    1    2    0    0 -0.10770661059E-01 -0.10047569730E-01  0.24584743859E-01  0.10152704392E+01  0.10148658503E+01 0.  0.
     999903    2    3    3    0    0  0.18439426829E-01  0.12153347440E+00  0.94004741268E-02  0.12487874869E+00  0.19898117977E-01 0.  0.
         14    1    1    2    0    0  0.10770661059E-01  0.10047569730E-01 -0.24584743859E-01  0.28659560844E-01  0.00000000000E+00 0. -1.
     999901    1    3    3    0    0 -0.29210087889E-01 -0.13158104413E+00  0.15184269733E-01  0.89039169047E+00  0.88000000000E+00 0.  1.
        -11    1    4    4    0    0 -0.15970265344E-02  0.55254798492E-01  0.38939359675E-02  0.55417209497E-01  0.51100000000E-03 0.  1.
         11    1    4    4    0    0  0.20036453364E-01  0.66278675906E-01  0.55065381593E-02  0.69461539190E-01  0.51100000000E-03 0. -1.
</event>
<event>
 8    1  0.1086486E+005  0.1043930E+01  0.7957747E-01            NaN
         13   -1    0    0    0    0  0.00000000000E+00  0.00000000000E+00  0.74505805969E-08  0.10566000000E+00  0.10566000000E+00 0.  1.
     999900   -1    0    0    0    0 -0.00000000000E+00 -0.00000000000E+00 -0.74505805969E-08  0.93827000000E+00  0.93827000000E+00 0. -1.
     999902    2    1    2    0    0  0.18683100426E-01 -0.84787022714E-02 -0.10675564581E-01  0.10208017854E+01  0.10205397448E+01 0.  0.
     999903    2    3    3    0    0 -0.78631278139E-01  0.28454929575E-01 -0.98258046568E-01  0.13034972455E+00  0.18543086462E-01 0.  0.
         14    1    1    2    0    0 -0.18683100426E-01  0.84787022714E-02  0.10675564581E-01  0.23128214649E-01  0.00000000000E+00 0.  1.
     999901    1    3    3    0    0  0.97314378565E-01 -0.36933631847E-01  0.87582481988E-01  0.89045206080E+00  0.88000000000E+00 0.  1.
        -11    1    4    4    0    0 -0.30726983535E-01  0.16210626554E-01 -0.29030774578E-01  0.45276692945E-01  0.51100000000E-03 0.  1.
         11    1    4    4    0    0 -0.47904294604E-01  0.12244303021E-01 -0.69227271990E-01  0.85073031604E-01  0.51100000000E-03 0. -1.
</event>
<event>
 8    1  0.1086486E+005  0.1043930E+01  0.7957747E-01            NaN
         13   -1    0    0    0    0  0.00000000000E+00  0.00000000000E+00  0.74505805969E-08  0.10566000000E+00  0.10566000000E+00 0. -1.
     999900   -1    0    0    0    0 -0.00000000000E+00 -0.00000000000E+00 -0.74505805969E-08  0.93827000000E+00  0.93827000000E+00 0.  1.
     999902    2    1    2    0    0  0.51263137915E-03 -0.21364801294E-01  0.10205746214E-01  0.10202472050E+01  0.10199722959E+01 0.  0.
     999903    2    3    3    0    0  0.24643192918E-01 -0.39047274796E-01  0.12260386629E+00  0.13259395550E+00  0.20432140887E-01 0.  0.
         14    1    1    2    0    0 -0.51263137915E-03  0.21364801294E-01 -0.10205746214E-01  0.23682795043E-01  0.00000000000E+00 0.  1.
     999901    1    3    3    0    0 -0.24130561539E-01  0.17682473503E-01 -0.11239812007E+00  0.88765324945E+00  0.88000000000E+00 0.  1.
        -11    1    4    4    0    0  0.26942617474E-01 -0.31075323422E-01  0.90112325765E-01  0.99055907133E-01  0.51100000000E-03 0. -1.
         11    1    4    4    0    0 -0.22994245555E-02 -0.79719513750E-02  0.32491540523E-01  0.33538048371E-01  0.51100000000E-03 0.  1.
</event>
<event>
 8    1  0.1086486E+005  0.1043930E+01  0.7957747E-01            NaN
         13   -1    0    0    0    0  0.00000000000E+00  0.00000000000E+00  0.74505805969E-08  0.10566000000E+00  0.10566000000E+00 0.  1.
     999900   -1    0    0    0    0 -0.00000000000E+00 -0.00000000000E+00 -0.74505805969E-08  0.93827000000E+00  0.93827000000E+00 0.  1.
     999902    2    1    2    0    0  0.18519730434E-01 -0.66334044401E-02  0.14631063909E-01  0.10194136687E+01  0.10191188240E+01 0.  0.
     999903    2    3    3    0    0 -0.27096601503E-01 -0.11552363610E+00  0.50780502575E-01  0.13079411331E+00  0.21177920685E-01 0.  0.
         14    1    1    2    0    0 -0.18519730434E-01  0.66334044401E-02 -0.14631063909E-01  0.24516331310E-01  0.00000000000E+00 0.  1.
     999901    1    3    3    0    0  0.45616331937E-01  0.10889023166E+00 -0.36149438666E-01  0.88861955538E+00  0.88000000000E+00 0.  1.
        -11    1    4    4    0    0  0.28291404645E-02 -0.19767051605E-01  0.54626636134E-02  0.20708505008E-01  0.51100000000E-03 0.  1.
         11    1    4    4    0    0 -0.29925741967E-01 -0.95756584491E-01  0.45317838962E-01  0.11008560830E+00  0.51100000000E-03 0. -1.
</event>
<event>
 8    1  0.1086486E+005  0.1043930E+01  0.7957747E-01            NaN
         13   -1    0    0    0    0  0.00000000000E+00  0.00000000000E+00  0.74505805969E-08  0.10566000000E+00  0.10566000000E+00 0. -1.
     999900   -1    0    0    0    0 -0.00000000000E+00 -0.00000000000E+00 -0.74505805969E-08  0.93827000000E+00  0.93827000000E+00 0.  1.
     999902    2    1    2    0    0  0.93022768514E-02  0.31804734745E-02 -0.21235889292E-01  0.10205289154E+01  0.10202605826E+01 0.  0.
     999903    2    3    3    0    0 -0.70930316450E-01 -0.87277878642E-01  0.58459298585E-01  0.12869299694E+00  0.22267913652E-01 0.  0.
         14    1    1    2    0    0 -0.93022768514E-02 -0.31804734745E-02  0.21235889292E-01  0.23401084594E-01  0.00000000000E+00 0. -1.
     999901    1    3    3    0    0  0.80232593301E-01  0.90458352117E-01 -0.79695187877E-01  0.89183591847E+00  0.88000000000E+00 0.  1.
        -11    1    4    4    0    0 -0.41365191196E-01 -0.35196425830E-01  0.22164620999E-01  0.58663438178E-01  0.51100000000E-03 0. -1.
         11    1    4    4    0    0 -0.29565125255E-01 -0.52081452812E-01  0.36294677586E-01  0.70029558762E-01  0.51100000000E-03 0.  1.
</event>
<event>
 8    1  0.1086486E+005  0.1043930E+01  0.7957747E-01            NaN
         13   -1    0    0    0    0  0.00000000000E+00  0.00000000000E+00  0.74505805969E-08  0.10566000000E+00  0.10566000000E+00 0.  1.
     999900   -1    0    0    0    0 -0.00000000000E+00 -0.00000000000E+00 -0.74505805969E-08  0.93827000000E+00  0.93827000000E+00 0. -1.
     999902    2    1    2    0    0 -0.23710512890E-01  0.12819993065E-02 -0.16547592891E-02  0.10201272655E+01  0.10198495318E+01 0.  0.
     999903    2    3    3    0    0  0.34694005642E-01 -0.17902577290E-01  0.12171988095E+00  0.12939698213E+00  0.20091621752E-01 0.  0.
         14    1    1    2    0    0  0.23710512890E-01 -0.12819993065E-02  0.16547592891E-02  0.23802734550E-01  0.00000000000E+00 0. -1.
     999901    1    3    3    0    0 -0.58404518532E-01  0.19184576596E-01 -0.12337464024E+00  0.89073028332E+00  0.88000000000E+00 0. -1.
        -11    1    4    4    0    0  0.11989859027E-01  0.18318568715E-02  0.53119629774E-01  0.54489160458E-01  0.51100000000E-03 0. -1.
         11    1    4    4    0    0  0.22704146614E-01 -0.19734434161E-01  0.68600251180E-01  0.74907821675E-01  0.51100000000E-03 0.  1.
</event>
<event>
 8    1  0.1086486E+005  0.1043930E+01  0.7957747E-01            NaN
         13   -1    0    0    0    0  0.00000000000E+00  0.00000000000E+00  0.74505805969E-08  0.10566000000E+00  0.10566000000E+00 0. -1.
     999900   -1    0    0    0    0 -0.00000000000E+00 -0.00000000000E+00 -0.74505805969E-08  0.93827000000E+00  0.93827000000E+00 0. -1.
     999902    2    1    2    0    0 -0.14204707435E-01 -0.18971186762E-01  0.46850008158E-02  0.10197715879E+01  0.10194853911E+01 0.  0.
     999903    2    3    3    0    0 -0.92891206694E-01  0.83675019240E-01 -0.28295055679E-01  0.12970670666E+00  0.19822574251E-01 0.  0.
         14    1    1    2    0    0  0.14204707435E-01  0.18971186762E-01 -0.46850008158E-02  0.24158412057E-01  0.00000000000E+00 0. -1.
     999901    1    3    3    0    0  0.78686499260E-01 -0.10264620600E+00  0.32980056494E-01  0.89006488129E+00  0.88000000000E+00 0. -1.
        -11    1    4    4    0    0 -0.28838194263E-01  0.20970108327E-01 -0.16512522325E-01  0.39297727748E-01  0.51100000000E-03 0. -1.
         11    1    4    4    0    0 -0.64053012432E-01  0.62704910913E-01 -0.11782533353E-01  0.90408978909E-01  0.51100000000E-03 0.  1.
</event>
<event>
 8    1  0.1086486E+005  0.1043930E+01  0.7957747E-01            NaN
         13   -1    0    0    0    0  0.00000000000E+00  0.00000000000E+00  0.74505805969E-08  0.10566000000E+00  0.10566000000E+00 0. -1.
     999900   -1    0    0    0    0 -0.00000000000E+00 -0.00000000000E+00 -0.74505805969E-08  0.93827000000E+00  0.93827000000E+00 0. -1.
     999902    2    1    2    0    0 -0.96154716773E-02 -0.66377262005E-02 -0.20361875069E-01  0.10204539982E+01  0.10201839245E+01 0.  0.
     999903    2    3    3    0    0  0.11069029652E+00 -0.47782099284E-01 -0.47401783702E-01  0.13090495853E+00  0.18807134645E-01 0.  0.
         14    1    1    2    0    0  0.96154716773E-02  0.66377262005E-02  0.20361875069E-01  0.23476001810E-01  0.00000000000E+00 0. -1.
     999901    1    3    3    0    0 -0.12030576820E+00  0.41144373083E-01  0.27039908633E-01  0.88954903966E+00  0.88000000000E+00 0.  1.
        -11    1    4    4    0    0  0.57500323061E-01 -0.23645418633E-01 -0.14421368705E-01  0.63824994875E-01  0.51100000000E-03 0.  1.
         11    1    4    4    0    0  0.53189973462E-01 -0.24136680651E-01 -0.32980414997E-01  0.67079963656E-01  0.51100000000E-03 0. -1.
</event>
<event>
 8    1  0.1281698E+005  0.1043930E+01  0.7957747E-01            NaN
         13   -1    0    0    0    0  0.00000000000E+00  0.00000000000E+00  0.74505805969E-08  0.10566000000E+00  0.10566000000E+00 0. -1.
     999900   -1    0    0    0    0 -0.00000000000E+00 -0.00000000000E+00 -0.74505805969E-08  0.93827000000E+00  0.93827000000E+00 0. -1.
     999902    2    1    2    0    0 -0.18294566548E-01 -0.15612465464E-01 -0.29853584313E-02  0.10196946414E+01  0.10194065965E+01 0.  0.
     999903    2    3    3    0    0  0.10947503459E+00  0.60134129550E-01  0.12378806742E-01  0.12711485490E+00  0.20101113020E-01 0.  0.
         14    1    1    2    0    0  0.18294566548E-01  0.15612465464E-01  0.29853584313E-02  0.24235358632E-01  0.00000000000E+00 0. -1.
     999901    1    3    3    0    0 -0.12776960114E+00 -0.75746595015E-01 -0.15364165173E-01  0.89257978646E+00  0.88000000000E+00 0. -1.
        -11    1    4    4    0    0  0.60547741831E-01  0.21911860299E-01  0.49494258643E-02  0.64582633889E-01  0.51100000000E-03 0.  1.
         11    1    4    4    0    0  0.48927292763E-01  0.38222269251E-01  0.74293808772E-02  0.62532221015E-01  0.51100000000E-03 0. -1.
</event>
<event>
 8    1  0.1086486E+005  0.1043930E+01  0.7957747E-01            NaN
         13   -1    0    0    0    0  0.00000000000E+00  0.00000000000E+00  0.74505805969E-08  0.10566000000E+00  0.10566000000E+00 0. -1.
     999900   -1    0    0    0    0 -0.00000000000E+00 -0.00000000000E+00 -0.74505805969E-08  0.93827000000E+00  0.93827000000E+00 0. -1.
     999902    2    1    2    0    0 -0.22078820932E-02 -0.19465925914E-01 -0.26081321897E-01  0.10113104910E+01  0.10107842880E+01 0.  0.
     999903    2    3    3    0    0 -0.84063001676E-01 -0.11034754071E-01 -0.90017470717E-01  0.12516198405E+00  0.19339678602E-01 0.  0.
         14    1    1    2    0    0  0.22078820932E-02  0.19465925914E-01  0.26081321897E-01  0.32619508992E-01  0.00000000000E+00 0. -1.
     999901    1    3    3    0    0  0.81855119583E-01 -0.84311718429E-02  0.63936148820E-01  0.88614850696E+00  0.88000000000E+00 0.  1.
        -11    1    4    4    0    0 -0.55016736857E-01 -0.53618444502E-02 -0.70988714637E-01  0.89973604113E-01  0.51100000000E-03 0.  1.
         11    1    4    4    0    0 -0.29046264819E-01 -0.56729096210E-02 -0.19028756080E-01  0.35188379935E-01  0.51100000000E-03 0. -1.
</event>
<event>
 8    1  0.1086486E+005  0.1043930E+01  0.7957747E-01            NaN
         13   -1    0    0    0    0  0.00000000000E+00  0.00000000000E+00  0.74505805969E-08  0.10566000000E+00  0.10566000000E+00 0. -1.
     999900   -1    0    0    0    0 -0.00000000000E+00 -0.00000000000E+00 -0.74505805969E-08  0.93827000000E+00  0.93827000000E+00 0. -1.
     999902    2    1    2    0    0  0.16654904200E-01  0.93061719786E-02 -0.12654955882E-01  0.10210359270E+01  0.10207792247E+01 0.  0.
     999903    2    3    3    0    0 -0.45017270674E-02  0.13026008053E+00 -0.12950163103E-01  0.13251044160E+00  0.20083731779E-01 0.  0.
         14    1    1    2    0    0 -0.16654904200E-01 -0.93061719786E-02  0.12654955882E-01  0.22894073015E-01  0.00000000000E+00 0. -1.
     999901    1    3    3    0    0  0.21156631268E-01 -0.12095390855E+00  0.29520722031E-03  0.88852548539E+00  0.88000000000E+00 0. -1.
        -11    1    4    4    0    0  0.28049191534E-02  0.91768154796E-01 -0.16052626843E-01  0.93205202407E-01  0.51100000000E-03 0.  1.
         11    1    4    4    0    0 -0.73066462208E-02  0.38491925730E-01  0.31024637408E-02  0.39305239189E-01  0.51100000000E-03 0. -1.
</event>
<event>
 8    1  0.1086486E+005  0.1043930E+01  0.7957747E-01            NaN
         13   -1    0    0    0    0  0.00000000000E+00  0.00000000000E+00  0.74505805969E-08  0.10566000000E+00  0.10566000000E+00 0. -1.
     999900   -1    0    0    0    0 -0.00000000000E+00 -0.00000000000E+00 -0.74505805969E-08  0.93827000000E+00  0.93827000000E+00 0.  1.
     999902    2    1    2    0    0  0.46114867839E-02  0.74958564989E-02 -0.21300815061E-01  0.10208826922E+01  0.10206225026E+01 0.  0.
     999903    2    3    3    0    0 -0.28514677308E-01  0.10218959911E+00  0.72548111729E-01  0.13022458231E+00  0.20962164323E-01 0.  0.
         14    1    1    2    0    0 -0.46114867839E-02 -0.74958564989E-02  0.21300815061E-01  0.23047307809E-01  0.00000000000E+00 0. -1.
     999901    1    3    3    0    0  0.33126164092E-01 -0.94693742615E-01 -0.93848926789E-01  0.89065810988E+00  0.88000000000E+00 0.  1.
        -11    1    4    4    0    0 -0.88659086921E-02  0.60294804198E-01  0.49561239829E-01  0.78553455459E-01  0.51100000000E-03 0.  1.
         11    1    4    4    0    0 -0.19648768616E-01  0.41894794917E-01  0.22986871899E-01  0.51671126850E-01  0.51100000000E-03 0. -1.
</event>
<event>
 8    1  0.1086486E+005  0.1043930E+01  0.7957747E-01            NaN
         13   -1    0    0    0    0  0.00000000000E+00  0.00000000000E+00  0.74505805969E-08  0.10566000000E+00  0.10566000000E+00 0. -1.
     999900   -1    0    0    0    0 -0.00000000000E+00 -0.00000000000E+00 -0.74505805969E-08  0.93827000000E+00  0.93827000000E+00 0.  1.
     999902    2    1    2    0    0 -0.31999844392E-02 -0.20856188019E-01  0.10975333395E-01  0.10201460049E+01  0.10198687136E+01 0.  0.
     999903    2    3    3    0    0 -0.11622615755E+00  0.46967527524E-01 -0.26244115263E-01  0.12955055267E+00  0.19496763086E-01 0.  0.
         14    1    1    2    0    0  0.31999844392E-02  0.20856188019E-01 -0.10975333395E-01  0.23783995085E-01  0.00000000000E+00 0. -1.
     999901    1    3    3    0    0  0.11302617311E+00 -0.67823715542E-01  0.37219448658E-01  0.89059545224E+00  0.88000000000E+00 0. -1.
        -11    1    4    4    0    0 -0.42335572132E-01  0.21875664209E-01 -0.14801910344E-02  0.47679109039E-01  0.51100000000E-03 0. -1.
         11    1    4    4    0    0 -0.73890585419E-01  0.25091863315E-01 -0.24763924228E-01  0.81871443632E-01  0.51100000000E-03 0.  1.
</event>
<event>
 8    1  0.1086486E+005  0.1043930E+01  0.7957747E-01            NaN
         13   -1    0    0    0    0  0.00000000000E+00  0.00000000000E+00  0.74505805969E-08  0.10566000000E+00  0.10566000000E+00 0. -1.
     999900   -1    0    0    0    0 -0.00000000000E+00 -0.00000000000E+00 -0.74505805969E-08  0.93827000000E+00  0.93827000000E+00 0.  1.
     999902    2    1    2    0    0 -0.34850813095E-02 -0.20111705372E-01 -0.20948720955E-01  0.10146814890E+01  0.10142598527E+01 0.  0.
     999903    2    3    3    0    0  0.74603901528E-01  0.70293199593E-01 -0.69130377886E-01  0.12530394931E+00  0.20376322875E-01 0.  0.
         14    1    1    2    0    0  0.34850813095E-02  0.20111705372E-01  0.20948720955E-01  0.29248510976E-01  0.00000000000E+00 0. -1.
     999901    1    3    3    0    0 -0.78088982837E-01 -0.90404904965E-01  0.48181656931E-01  0.88937753971E+00  0.88000000000E+00 0.  1.
        -11    1    4    4    0    0  0.27048213218E-01  0.24871202411E-01 -0.13444901788E-01  0.39130666398E-01  0.51100000000E-03 0. -1.
         11    1    4    4    0    0  0.47555688309E-01  0.45421997182E-01 -0.55685476098E-01  0.86173282912E-01  0.51100000000E-03 0.  1.
</event>
<event>
 8    1  0.1086486E+005  0.1043930E+01  0.7957747E-01            NaN
         13   -1    0    0    0    0  0.00000000000E+00  0.00000000000E+00  0.74505805969E-08  0.10566000000E+00  0.10566000000E+00 0.  1.
     999900   -1    0    0    0    0 -0.00000000000E+00 -0.00000000000E+00 -0.74505805969E-08  0.93827000000E+00  0.93827000000E+00 0. -1.
     999902    2    1    2    0    0  0.23791025784E-01  0.74315216937E-04 -0.93928765726E-03  0.10201203236E+01  0.10198424260E+01 0.  0.
     999903    2    3    3    0    0  0.31957743250E-02  0.93371895380E-01 -0.88957718899E-01  0.13058345132E+00  0.20249399657E-01 0.  0.
         14    1    1    2    0    0 -0.23791025784E-01 -0.74315216937E-04  0.93928765726E-03  0.23809676435E-01  0.00000000000E+00 0.  1.
     999901    1    3    3    0    0  0.20595251459E-01 -0.93297580163E-01  0.88018431241E-01  0.88953687225E+00  0.88000000000E+00 0.  1.
        -11    1    4    4    0    0 -0.46015649003E-02  0.78798675302E-01 -0.76005214481E-01  0.10957855346E+00  0.51100000000E-03 0.  1.
         11    1    4    4    0    0  0.77973392253E-02  0.14573220078E-01 -0.12952504417E-01  0.21004897860E-01  0.51100000000E-03 0. -1.
</event>
<event>
 8    1  0.1099547E+005  0.1043930E+01  0.7957747E-01            NaN
         13   -1    0    0    0    0  0.00000000000E+00  0.00000000000E+00  0.74505805969E-08  0.10566000000E+00  0.10566000000E+00 0.  1.
     999900   -1    0    0    0    0 -0.00000000000E+00 -0.00000000000E+00 -0.74505805969E-08  0.93827000000E+00  0.93827000000E+00 0. -1.
     999902    2    1    2    0    0 -0.43364469220E-02  0.98072256536E-02  0.20913183313E-01  0.10204279217E+01  0.10201572407E+01 0.  0.
     999903    2    3    3    0    0 -0.98342610913E-01  0.85641105082E-01  0.39813517056E-02  0.13201663012E+00  0.20171055128E-01 0.  0.
         14    1    1    2    0    0  0.43364469220E-02 -0.98072256536E-02 -0.20913183313E-01  0.23502078274E-01  0.00000000000E+00 0. -1.
     999901    1    3    3    0    0  0.94006163991E-01 -0.75833879429E-01  0.16931831607E-01  0.88841129161E+00  0.88000000000E+00 0.  1.
        -11    1    4    4    0    0 -0.36013160545E-01  0.44519734813E-01  0.28166760473E-02  0.57333666420E-01  0.51100000000E-03 0. -1.
         11    1    4    4    0    0 -0.62329450368E-01  0.41121370269E-01  0.11646756582E-02  0.74682963696E-01  0.51100000000E-03 0.  1.
</event>
<event>
 8    1  0.1086486E+005  0.1043930E+01  0.7957747E-01            NaN
         13   -1    0    0    0    0  0.00000000000E+00  0.00000000000E+00  0.74505805969E-08  0.10566000000E+00  0.10566000000E+00 0. -1.
     999900   -1    0    0    0    0 -0.00000000000E+00 -0.00000000000E+00 -0.74505805969E-08  0.93827000000E+00  0.93827000000E+00 0. -1.
     999902    2    1    2    0    0  0.13149738855E-01  0.22769581602E-02  0.19595803459E-01  0.10202214428E+01  0.10199459283E+01 0.  0.
     999903    2    3    3    0    0 -0.38647274847E-01  0.99567676054E-01  0.74558576569E-01  0.13164431007E+00  0.19076400752E-01 0.  0.
         14    1    1    2    0    0 -0.13149738855E-01 -0.22769581602E-02 -0.19595803459E-01  0.23708557182E-01  0.00000000000E+00 0.  1.
     999901    1    3    3    0    0  0.51797013702E-01 -0.97290717894E-01 -0.54962773109E-01  0.88857713275E+00  0.88000000000E+00 0. -1.
        -11    1    4    4    0    0 -0.31826080237E-01  0.62569747213E-01  0.55368760825E-01  0.89408240369E-01  0.51100000000E-03 0. -1.
         11    1    4    4    0    0 -0.68211946097E-02  0.36997928841E-01  0.19189815744E-01  0.42236069700E-01  0.51100000000E-03 0.  1.
</event>
<event>
 8    1  0.1086486E+005  0.1043930E+01  0.7957747E-01            NaN
         13   -1    0    0    0    0  0.00000000000E+00  0.00000000000E+00  0.74505805969E-08  0.10566000000E+00  0.10566000000E+00 0.  1.
     999900   -1    0    0    0    0 -0.00000000000E+00 -0.00000000000E+00 -0.74505805969E-08  0.93827000000E+00  0.93827000000E+00 0. -1.
     999902    2    1    2    0    0  0.13716902634E-01  0.62141186979E-02 -0.17007696003E-01  0.10212136972E+01  0.10209610105E+01 0.  0.
     999903    2    3    3    0    0  0.97412014970E-01 -0.84868352642E-01 -0.21798402705E-01  0.13254962160E+00  0.20062250240E-01 0.  0.
         14    1    1    2    0    0 -0.13716902634E-01 -0.62141186979E-02  0.17007696003E-01  0.22716302789E-01  0.00000000000E+00 0.  1.
     999901    1    3    3    0    0 -0.83695112336E-01  0.91082471340E-01  0.47907067017E-02  0.88866407561E+00  0.88000000000E+00 0.  1.
        -11    1    4    4    0    0  0.71787972273E-01 -0.70154158573E-01 -0.10551835644E-01  0.10092928854E+00  0.51100000000E-03 0. -1.
         11    1    4    4    0    0  0.25624042697E-01 -0.14714194069E-01 -0.11246567061E-01  0.31620333061E-01  0.51100000000E-03 0.  1.
</event>
<event>
 8    1  0.1086486E+005  0.1043930E+01  0.7957747E-01            NaN
         13   -1    0    0    0    0  0.00000000000E+00  0.00000000000E+00  0.74505805969E-08  0.10566000000E+00  0.10566000000E+00 0.  1.
     999900   -1    0    0    0    0 -0.00000000000E+00 -0.00000000000E+00 -0.74505805969E-08  0.93827000000E+00  0.93827000000E+00 0.  1.
     999902    2    1    2    0    0 -0.24152458078E-02 -0.23951789802E-01 -0.54967178656E-03  0.10198504696E+01  0.10195661609E+01 0.  0.
     999903    2    3    3    0    0  0.31984433801E-01 -0.31887476593E-01 -0.12123846853E+00  0.13091172097E+00  0.19982423994E-01 0.  0.
         14    1    1    2    0    0  0.24152458078E-02  0.23951789802E-01  0.54967178656E-03  0.24079530438E-01  0.00000000000E+00 0. -1.
     999901    1    3    3    0    0 -0.34399679608E-01  0.79356867909E-02  0.12068879674E+00  0.88893874859E+00  0.88000000000E+00 0. -1.
        -11    1    4    4    0    0  0.18682887664E-01 -0.95641191997E-02 -0.74845326582E-01  0.77734205468E-01  0.51100000000E-03 0. -1.
         11    1    4    4    0    0  0.13301546136E-01 -0.22323357393E-01 -0.46393141946E-01  0.53177515507E-01  0.51100000000E-03 0.  1.
</event>
<event>
 8    1  0.1086486E+005  0.1043930E+01  0.7957747E-01            NaN
         13   -1    0    0    0    0  0.00000000000E+00  0.00000000000E+00  0.74505805969E-08  0.10566000000E+00  0.10566000000E+00 0.  1.
     999900   -1    0    0    0    0 -0.00000000000E+00 -0.00000000000E+00 -0.74505805969E-08  0.93827000000E+00  0.93827000000E+00 0. -1.
     999902    2    1    2    0    0  0.15328917556E-02 -0.23020102885E-01 -0.10215231208E-01  0.10186985545E+01  0.10183860364E+01 0.  0.
     999903    2    3    3    0    0 -0.27210459636E-01 -0.12128029248E+00 -0.40167366237E-01  0.13225714328E+00  0.20717533180E-01 0.  0.
         14    1    1    2    0    0 -0.15328917556E-02  0.23020102885E-01  0.10215231208E-01  0.25231445511E-01  0.00000000000E+00 0.  1.
     999901    1    3    3    0    0  0.28743351392E-01  0.98260189596E-01  0.29952135029E-01  0.88644141121E+00  0.88000000000E+00 0.  1.
        -11    1    4    4    0    0  0.20596381543E-02 -0.26824885523E-01 -0.54731640259E-02  0.27459665659E-01  0.51100000000E-03 0.  1.
         11    1    4    4    0    0 -0.29270097790E-01 -0.94455406957E-01 -0.34694202211E-01  0.10479747762E+00  0.51100000000E-03 0. -1.
</event>
<event>
 8    1  0.1086486E+005  0.1043930E+01  0.7957747E-01            NaN
         13   -1    0    0    0    0  0.00000000000E+00  0.00000000000E+00  0.74505805969E-08  0.10566000000E+00  0.10566000000E+00 0.  1.
     999900   -1    0    0    0    0 -0.00000000000E+00 -0.00000000000E+00 -0.74505805969E-08  0.93827000000E+00  0.93827000000E+00 0. -1.
     999902    2    1    2    0    0 -0.23256104493E-02 -0.22930276456E-01 -0.48015258692E-03  0.10208770915E+01  0.10206167740E+01 0.  0.
     999903    2    3    3    0    0 -0.74468133328E-01  0.62858569614E-01  0.83412246769E-01  0.12980907820E+00  0.19902040509E-01 0.  0.
         14    1    1    2    0    0  0.23256104493E-02  0.22930276456E-01  0.48015258692E-03  0.23052908467E-01  0.00000000000E+00 0.  1.
     999901    1    3    3    0    0  0.72142522879E-01 -0.85788846070E-01 -0.83892399356E-01  0.89106801333E+00  0.88000000000E+00 0.  1.
        -11    1    4    4    0    0 -0.55138755980E-02  0.10357565503E-01  0.16807258083E-01  0.20504317412E-01  0.51100000000E-03 0. -1.
         11    1    4    4    0    0 -0.68954257730E-01  0.52501004112E-01  0.66604988686E-01  0.10930476079E+00  0.51100000000E-03 0.  1.
</event>
<event>
 8    1  0.1086486E+005  0.1043930E+01  0.7957747E-01            NaN
         13   -1    0    0    0    0  0.00000000000E+00  0.00000000000E+00  0.74505805969E-08  0.10566000000E+00  0.10566000000E+00 0. -1.
     999900   -1    0    0    0    0 -0.00000000000E+00 -0.00000000000E+00 -0.74505805969E-08  0.93827000000E+00  0.93827000000E+00 0.  1.
     999902    2    1    2    0    0 -0.22894596985E-01 -0.48063778667E-02  0.28221063019E-02  0.10203667209E+01  0.10200946118E+01 0.  0.
     999903    2    3    3    0    0 -0.32406663999E-01  0.88614528472E-02 -0.12503653775E+00  0.13097078999E+00  0.19760942293E-01 0.  0.
         14    1    1    2    0    0  0.22894596985E-01  0.48063778667E-02 -0.28221063019E-02  0.23563279129E-01  0.00000000000E+00 0. -1.
     999901    1    3    3    0    0  0.95120670134E-02 -0.13667830714E-01  0.12785864405E+00  0.88939593088E+00  0.88000000000E+00 0. -1.
        -11    1    4    4    0    0 -0.14367701113E-01 -0.44241697978E-02 -0.33348471803E-01  0.36583955586E-01  0.51100000000E-03 0.  1.
         11    1    4    4    0    0 -0.18038962886E-01  0.13285622645E-01 -0.91688065943E-01  0.94386834402E-01  0.51100000000E-03 0. -1.
</event>
<event>
 8    1  0.1086486E+005  0.1043930E+01  0.7957747E-01            NaN
         13   -1    0    0    0    0  0.00000000000E+00  0.00000000000E+00  0.74505805969E-08  0.10566000000E+00  0.10566000000E+00 0. -1.
     999900   -1    0    0    0    0 -0.00000000000E+00 -0.00000000000E+00 -0.74505805969E-08  0.93827000000E+00  0.93827000000E+00 0.  1.
     999902    2    1    2    0    0  0.14106472210E-01  0.19608863652E-01 -0.33354588504E-02  0.10195450584E+01  0.10192534036E+01 0.  0.
     999903    2    3    3    0    0  0.49850589522E-01 -0.28880059938E-01  0.11434575731E+00  0.12966996250E+00  0.20498971248E-01 0.  0.
         14    1    1    2    0    0 -0.14106472210E-01 -0.19608863652E-01  0.33354588504E-02  0.24384941617E-01  0.00000000000E+00 0.  1.
     999901    1    3    3    0    0 -0.35744117312E-01  0.48488923591E-01 -0.11768121616E+00  0.88987509588E+00  0.88000000000E+00 0. -1.
        -11    1    4    4    0    0  0.27632384917E-01 -0.27117354953E-01  0.68312078426E-01  0.78521976642E-01  0.51100000000E-03 0.  1.
         11    1    4    4    0    0  0.22218204606E-01 -0.17627049849E-02  0.46033678885E-01  0.51147985859E-01  0.51100000000E-03 0. -1.
</event>
<event>
 8    1  0.1086486E+005  0.1043930E+01  0.7957747E-01            NaN
         13   -1    0    0    0    0  0.00000000000E+00  0.00000000000E+00  0.74505805969E-08  0.10566000000E+00  0.10566000000E+00 0.  1.
     999900   -1    0    0    0    0 -0.00000000000E+00 -0.00000000000E+00 -0.74505805969E-08  0.93827000000E+00  0.93827000000E+00 0. -1.
     999902    2    1    2    0    0  0.16396066292E-01  0.91668643262E-02  0.14537643662E-01  0.10201769902E+01  0.10199004294E+01 0.  0.
     999903    2    3    3    0    0 -0.98458571948E-01  0.55253540522E-01  0.61684429401E-01  0.13026778750E+00  0.20437306528E-01 0.  0.
         14    1    1    2    0    0 -0.16396066292E-01 -0.91668643262E-02 -0.14537643662E-01  0.23753009802E-01  0.00000000000E+00 0. -1.
     999901    1    3    3    0    0  0.11485463824E+00 -0.46086676196E-01 -0.47146785740E-01  0.88990920270E+00  0.88000000000E+00 0.  1.
        -11    1    4    4    0    0 -0.57538837546E-01  0.20706902768E-01  0.31424452389E-01  0.68755006926E-01  0.51100000000E-03 0. -1.
         11    1    4    4    0    0 -0.40919734402E-01  0.34546637754E-01  0.30259977012E-01  0.61512780570E-01  0.51100000000E-03 0.  1.
</event>
<event>
 8    1  0.1170428E+005  0.1043930E+01  0.7957747E-01            NaN
         13   -1    0    0    0    0  0.00000000000E+00  0.00000000000E+00  0.74505805969E-08  0.10566000000E+00  0.10566000000E+00 0. -1.
     999900   -1    0    0    0    0 -0.00000000000E+00 -0.00000000000E+00 -0.74505805969E-08  0.93827000000E+00  0.93827000000E+00 0. -1.
     999902    2    1    2    0    0  0.10595889921E-01 -0.70662309902E-02  0.20034228036E-01  0.10201902697E+01  0.10199140216E+01 0.  0.
     999903    2    3    3    0    0  0.87955940773E-01 -0.18513604177E-01  0.96513655313E-01  0.13341818924E+00  0.20162502343E-01 0.  0.
         14    1    1    2    0    0 -0.10595889921E-01  0.70662309902E-02 -0.20034228036E-01  0.23739730340E-01  0.00000000000E+00 0.  1.
     999901    1    3    3    0    0 -0.77360050852E-01  0.11447373187E-01 -0.76479427277E-01  0.88677208042E+00  0.88000000000E+00 0. -1.
        -11    1    4    4    0    0  0.58341302145E-01 -0.19925780660E-01  0.56585349015E-01  0.83683374186E-01  0.51100000000E-03 0.  1.
         11    1    4    4    0    0  0.29614638627E-01  0.14121764830E-02  0.39928306297E-01  0.49734815052E-01  0.51100000000E-03 0. -1.
</event>
<event>
 8    1  0.1086486E+005  0.1043930E+01  0.7957747E-01            NaN
         13   -1    0    0    0    0  0.00000000000E+00  0.00000000000E+00  0.74505805969E-08  0.10566000000E+00  0.10566000000E+00 0. -1.
     999900   -1    0    0    0    0 -0.00000000000E+00 -0.00000000000E+00 -0.74505805969E-08  0.93827000000E+00  0.93827000000E+00 0. -1.
     999902    2    1    2    0    0  0.50469614068E-02 -0.94333147082E-02  0.21241649507E-01  0.10201462467E+01  0.10198689611E+01 0.  0.
     999903    2    3    3    0    0 -0.18780344903E-01  0.31521602689E-01  0.12583570548E+00  0.13268640971E+00  0.20609360900E-01 0.  0.
         14    1    1    2    0    0 -0.50469614068E-02  0.94333147082E-02 -0.21241649507E-01  0.23783753270E-01  0.00000000000E+00 0. -1.
     999901    1    3    3    0    0  0.23827306310E-01 -0.40954917397E-01 -0.10459405597E+00  0.88745983702E+00  0.88000000000E+00 0. -1.
        -11    1    4    4    0    0 -0.12397646261E-01  0.29854858532E-02  0.41985185408E-01  0.43882019932E-01  0.51100000000E-03 0. -1.
         11    1    4    4    0    0 -0.63826986416E-02  0.28536116836E-01  0.83850520071E-01  0.88804389774E-01  0.51100000000E-03 0.  1.
</event>
<event>
 8    1  0.1086486E+005  0.1043930E+01  0.7957747E-01            NaN
         13   -1    0    0    0    0  0.00000000000E+00  0.00000000000E+00  0.74505805969E-08  0.10566000000E+00  0.10566000000E+00 0.  1.
     999900   -1    0    0    0    0 -0.00000000000E+00 -0.00000000000E+00 -0.74505805969E-08  0.93827000000E+00  0.93827000000E+00 0.  1.
     999902    2    1    2    0    0  0.12238464365E-02  0.21014322875E-01  0.11392813344E-01  0.10199947590E+01  0.10197138876E+01 0.  0.
     999903    2    3    3    0    0 -0.10012975615E+00 -0.61829193288E-01 -0.47095991611E-01  0.12839140479E+00  0.20432894769E-01 0.  0.
         14    1    1    2    0    0 -0.12238464365E-02 -0.21014322875E-01 -0.11392813344E-01  0.23935241003E-01  0.00000000000E+00 0. -1.
     999901    1    3    3    0    0  0.10135360259E+00  0.82843516163E-01  0.58488804955E-01  0.89160335421E+00  0.88000000000E+00 0. -1.
        -11    1    4    4    0    0 -0.61189485973E-01 -0.44612834537E-01 -0.21541575688E-01  0.78732196738E-01  0.51100000000E-03 0. -1.
         11    1    4    4    0    0 -0.38940270178E-01 -0.17216358751E-01 -0.25554415923E-01  0.49659208052E-01  0.51100000000E-03 0.  1.
</event>
<event>
 8    1  0.1086486E+005  0.1043930E+01  0.7957747E-01            NaN
         13   -1    0    0    0    0  0.00000000000E+00  0.00000000000E+00  0.74505805969E-08  0.10566000000E+00  0.10566000000E+00 0.  1.
     999900   -1    0    0    0    0 -0.00000000000E+00 -0.00000000000E+00 -0.74505805969E-08  0.93827000000E+00  0.93827000000E+00 0. -1.
     999902    2    1    2    0    0 -0.22797650971E-01 -0.36833259061E-02 -0.10854233584E-01  0.10184130612E+01  0.10180933400E+01 0.  0.
     999903    2    3    3    0    0  0.14368527594E-01 -0.12627218418E+00  0.96654373575E-02  0.12890172911E+00  0.19264371428E-01 0.  0.
         14    1    1    2    0    0  0.22797650971E-01  0.36833259061E-02  0.10854233584E-01  0.25516938810E-01  0.00000000000E+00 0.  1.
     999901    1    3    3    0    0 -0.37166178565E-01  0.12258885827E+00 -0.20519670942E-01  0.88951133208E+00  0.88000000000E+00 0. -1.
        -11    1    4    4    0    0  0.65422626567E-02 -0.85108142528E-01 -0.20669305519E-02  0.85385774273E-01  0.51100000000E-03 0. -1.
         11    1    4    4    0    0  0.78262649372E-02 -0.41164041649E-01  0.11732367909E-01  0.43515954839E-01  0.51100000000E-03 0.  1.
</event>
<event>
 8    1  0.1086486E+005  0.1043930E+01  0.7957747E-01            NaN
         13   -1    0    0    0    0  0.00000000000E+00  0.00000000000E+00  0.74505805969E-08  0.10566000000E+00  0.10566000000E+00 0.  1.
     999900   -1    0    0    0    0 -0.00000000000E+00 -0.00000000000E+00 -0.74505805969E-08  0.93827000000E+00  0.93827000000E+00 0.  1.
     999902    2    1    2    0    0 -0.21145566901E-01 -0.71273707604E-03  0.10651188648E-01  0.10202426444E+01  0.10199676283E+01 0.  0.
     999903    2    3    3    0    0 -0.10937138201E+00 -0.67992013074E-01  0.27849612641E-01  0.13310901233E+00  0.18904898707E-01 0.  0.
         14    1    1    2    0    0  0.21145566901E-01  0.71273707604E-03 -0.10651188648E-01  0.23687355558E-01  0.00000000000E+00 0. -1.
     999901    1    3    3    0    0  0.88225815111E-01  0.67279275998E-01 -0.17198423993E-01  0.88713363211E+00  0.88000000000E+00 0.  1.
        -11    1    4    4    0    0 -0.39753239086E-01 -0.14620636591E-01  0.11255898706E-01  0.43829663572E-01  0.51100000000E-03 0.  1.
         11    1    4    4    0    0 -0.69618142926E-01 -0.53371376483E-01  0.16593713936E-01  0.89279348762E-01  0.51100000000E-03 0. -1.
</event>
<event>
 8    1  0.1086486E+005  0.1043930E+01  0.7957747E-01            NaN
         13   -1    0    0    0    0  0.00000000000E+00  0.00000000000E+00  0.74505805969E-08  0.10566000000E+00  0.10566000000E+00 0.  1.
     999900   -1    0    0    0    0 -0.00000000000E+00 -0.00000000000E+00 -0.74505805969E-08  0.93827000000E+00  0.93827000000E+00 0.  1.
     999902    2    1    2    0    0  0.94008630022E-02 -0.49680545767E-02 -0.21403661187E-01  0.10200307426E+01  0.10197507251E+01 0.  0.
     999903    2    3    3    0    0 -0.32570429963E-01  0.97844179525E-01 -0.78626918992E-01  0.13120767465E+00  0.19973610619E-01 0.  0.
         14    1    1    2    0    0 -0.94008630022E-02  0.49680545767E-02  0.21403661187E-01  0.23899257388E-01  0.00000000000E+00 0.  1.
     999901    1    3    3    0    0  0.41971292965E-01 -0.10281223410E+00  0.57223257805E-01  0.88882306797E+00  0.88000000000E+00 0. -1.
        -11    1    4    4    0    0 -0.12083373456E-01  0.65966243423E-01 -0.47816509262E-01  0.82366454727E-01  0.51100000000E-03 0. -1.
         11    1    4    4    0    0 -0.20487056507E-01  0.31877936102E-01 -0.30810409730E-01  0.48841219919E-01  0.51100000000E-03 0.  1.
</event>
<event>
 8    1  0.1086486E+005  0.1043930E+01  0.7957747E-01            NaN
         13   -1    0    0    0    0  0.00000000000E+00  0.00000000000E+00  0.74505805969E-08  0.10566000000E+00  0.10566000000E+00 0.  1.
     999900   -1    0    0    0    0 -0.00000000000E+00 -0.00000000000E+00 -0.74505805969E-08  0.93827000000E+00  0.93827000000E+00 0.  1.
     999902    2    1    2    0    0 -0.11449368269E-01  0.18000278045E-01 -0.11180320339E-01  0.10198447845E+01  0.10195603400E+01 0.  0.
     999903    2    3    3    0    0 -0.21555596063E-01 -0.34969489954E-01 -0.12296078742E+00  0.13113628054E+00  0.19744869758E-01 0.  0.
         14    1    1    2    0    0  0.11449368269E-01 -0.18000278045E-01  0.11180320339E-01  0.24085215514E-01  0.00000000000E+00 0.  1.
     999901    1    3    3    0    0  0.10106227794E-01  0.52969767999E-01  0.11178046708E+00  0.88870850394E+00  0.88000000000E+00 0. -1.
        -11    1    4    4    0    0 -0.13418818568E-01 -0.48799096572E-02 -0.43100169456E-01  0.45406650814E-01  0.51100000000E-03 0.  1.
         11    1    4    4    0    0 -0.81367774959E-02 -0.30089580296E-01 -0.79860617965E-01  0.85729629727E-01  0.51100000000E-03 0. -1.
</event>
<event>
 8    1  0.1086486E+005  0.1043930E+01  0.7957747E-01            NaN
         13   -1    0    0    0    0  0.00000000000E+00  0.00000000000E+00  0.74505805969E-08  0.10566000000E+00  0.10566000000E+00 0. -1.
     999900   -1    0    0    0    0 -0.00000000000E+00 -0.00000000000E+00 -0.74505805969E-08  0.93827000000E+00  0.93827000000E+00 0.  1.
     999902    2    1    2    0    0 -0.21234658179E-01 -0.93575206522E-02  0.54888249495E-02  0.10200846420E+01  0.10198059010E+01 0.  0.
     999903    2    3    3    0    0  0.92860091348E-01  0.24087636009E-02 -0.85714048798E-01  0.12796692467E+00  0.19995923132E-01 0.  0.
         14    1    1    2    0    0  0.21234658179E-01  0.93575206522E-02 -0.54888249495E-02  0.23845358040E-01  0.00000000000E+00 0. -1.
     999901    1    3    3    0    0 -0.11409474953E+00 -0.11766284253E-01  0.91202873748E-01  0.89211771729E+00  0.88000000000E+00 0. -1.
        -11    1    4    4    0    0  0.82509823695E-01 -0.23171168457E-03 -0.82777038737E-01  0.11687696077E+00  0.51100000000E-03 0. -1.
         11    1    4    4    0    0  0.10350267653E-01  0.26404752854E-02 -0.29370100610E-02  0.11089963901E-01  0.51100000000E-03 0.  1.
</event>
<event>
 8    1  0.1086486E+005  0.1043930E+01  0.7957747E-01            NaN
         13   -1    0    0    0    0  0.00000000000E+00  0.00000000000E+00  0.74505805969E-08  0.10566000000E+00  0.10566000000E+00 0. -1.
     999900   -1    0    0    0    0 -0.00000000000E+00 -0.00000000000E+00 -0.74505805969E-08  0.93827000000E+00  0.93827000000E+00 0.  1.
     999902    2    1    2    0    0 -0.21481790350E-01  0.10766170891E-01  0.35867926109E-03  0.10198986371E+01  0.10196154783E+01 0.  0.
     999903    2    3    3    0    0 -0.29190726797E-01  0.12703784506E+00  0.61678016792E-02  0.13219808183E+00  0.21156050008E-01 0.  0.
         14    1    1    2    0    0  0.21481790350E-01 -0.10766170891E-01 -0.35867926109E-03  0.24031362906E-01  0.00000000000E+00 0. -1.
     999901    1    3    3    0    0  0.77089364464E-02 -0.11627167417E+00 -0.58091224181E-02  0.88770055527E+00  0.88000000000E+00 0. -1.
        -11    1    4    4    0    0 -0.28200544459E-01  0.81145685732E-01  0.78173670346E-02  0.86262769311E-01  0.51100000000E-03 0.  1.
         11    1    4    4    0    0 -0.99018233740E-03  0.45892159332E-01 -0.16495653554E-02  0.45935312517E-01  0.51100000000E-03 0. -1.
</event>
<event>
 8    1  0.1086486E+005  0.1043930E+01  0.7957747E-01            NaN
         13   -1    0    0    0    0  0.00000000000E+00  0.00000000000E+00  0.74505805969E-08  0.10566000000E+00  0.10566000000E+00 0.  1.
     999900   -1    0    0    0    0 -0.00000000000E+00 -0.00000000000E+00 -0.74505805969E-08  0.93827000000E+00  0.93827000000E+00 0.  1.
     999902    2    1    2    0    0 -0.56226293803E-02  0.14597387661E-01  0.18886491363E-01  0.10194065980E+01  0.10191115812E+01 0.  0.
     999903    2    3    3    0    0  0.49198406184E-01 -0.26961083085E-01  0.11705992733E+00  0.13127908695E+00  0.19590531156E-01 0.  0.
         14    1    1    2    0    0  0.56226293803E-02 -0.14597387661E-01 -0.18886491363E-01  0.24523401959E-01  0.00000000000E+00 0.  1.
     999901    1    3    3    0    0 -0.54821035564E-01  0.41558470745E-01 -0.98173435968E-01  0.88812751109E+00  0.88000000000E+00 0.  1.
        -11    1    4    4    0    0  0.30521117861E-01 -0.71798706272E-02  0.73624481696E-01  0.80024462533E-01  0.51100000000E-03 0. -1.
         11    1    4    4    0    0  0.18677288323E-01 -0.19781212457E-01  0.43435445635E-01  0.51254624414E-01  0.51100000000E-03 0.  1.
</event>
<event>
 8    1  0.1086486E+005  0.1043930E+01  0.7957747E-01            NaN
         13   -1    0    0    0    0  0.00000000000E+00  0.00000000000E+00  0.74505805969E-08  0.10566000000E+00  0.10566000000E+00 0.  1.
     999900   -1    0    0    0    0 -0.00000000000E+00 -0.00000000000E+00 -0.74505805969E-08  0.93827000000E+00  0.93827000000E+00 0.  1.
     999902    2    1    2    0    0  0.47465099943E-02 -0.60484774765E-02  0.20667396894E-01  0.10218788156E+01  0.10216408660E+01 0.  0.
     999903    2    3    3    0    0 -0.50273238400E-02  0.12964288283E+00  0.92812011711E-02  0.13135238789E+00  0.18296394591E-01 0.  0.
         14    1    1    2    0    0 -0.47465099943E-02  0.60484774765E-02 -0.20667396894E-01  0.22051184351E-01  0.00000000000E+00 0. -1.
     999901    1    3    3    0    0  0.97738338343E-02 -0.13569136031E+00  0.11386195723E-01  0.89052642776E+00  0.88000000000E+00 0. -1.
        -11    1    4    4    0    0 -0.85578610443E-02  0.27726644570E-01  0.10211605394E-02  0.29039760581E-01  0.51100000000E-03 0.  1.
         11    1    4    4    0    0  0.35305372043E-02  0.10191623826E+00  0.82600406317E-02  0.10231262731E+00  0.51100000000E-03 0. -1.
</event>
<event>
 8    1  0.1086486E+005  0.1043930E+01  0.7957747E-01            NaN
         13   -1    0    0    0    0  0.00000000000E+00  0.00000000000E+00  0.74505805969E-08  0.10566000000E+00  0.10566000000E+00 0.  1.
     999900   -1    0    0    0    0 -0.00000000000E+00 -0.00000000000E+00 -0.74505805969E-08  0.93827000000E+00  0.93827000000E+00 0. -1.
     999902    2    1    2    0    0  0.94197829431E-02 -0.13895527927E-01 -0.17478763869E-01  0.10196952070E+01  0.10194071757E+01 0.  0.
     999903    2    3    3    0    0 -0.97764275010E-01 -0.75709054853E-01  0.33256797479E-01  0.12959216148E+00  0.19959941993E-01 0.  0.
         14    1    1    2    0    0 -0.94197829431E-02  0.13895527927E-01  0.17478763869E-01  0.24234793036E-01  0.00000000000E+00 0.  1.
     999901    1    3    3    0    0  0.10718405795E+00  0.61813526926E-01 -0.50735561348E-01  0.89010304548E+00  0.88000000000E+00 0. -1.
        -11    1    4    4    0    0 -0.17613468295E-01 -0.50399973896E-02  0.63827212202E-02  0.19407114423E-01  0.51100000000E-03 0.  1.
         11    1    4    4    0    0 -0.80150806715E-01 -0.70669057463E-01  0.26874076259E-01  0.11018504706E+00  0.51100000000E-03 0. -1.
</event>
<event>
 8    1  0.1086486E+005  0.1043930E+01  0.7957747E-01            NaN
         13   -1    0    0    0    0  0.00000000000E+00  0.00000000000E+00  0.74505805969E-08  0.10566000000E+00  0.10566000000E+00 0.  1.
     999900   -1    0    0    0    0 -0.00000000000E+00 -0.00000000000E+00 -0.74505805969E-08  0.93827000000E+00  0.93827000000E+00 0.  1.
     999902    2    1    2    0    0  0.99041667088E-02 -0.14378358469E-01  0.15886492259E-01  0.10203246966E+01  0.10200516047E+01 0.  0.
     999903    2    3    3    0    0 -0.99980146927E-01 -0.74298896945E-01 -0.32304384487E-01  0.13016325403E+00  0.19558721189E-01 0.  0.
         14    1    1    2    0    0 -0.99041667088E-02  0.14378358469E-01 -0.15886492259E-01  0.23605303361E-01  0.00000000000E+00 0. -1.
     999901    1    3    3    0    0  0.10988431364E+00  0.59920538476E-01  0.48190876746E-01  0.89016144261E+00  0.88000000000E+00 0. -1.
        -11    1    4    4    0    0 -0.25540385612E-01 -0.30025625831E-01 -0.83034684671E-02  0.40287196643E-01  0.51100000000E-03 0.  1.
         11    1    4    4    0    0 -0.74439761316E-01 -0.44273271114E-01 -0.24000916020E-01  0.89876057383E-01  0.51100000000E-03 0. -1.
</event>
<event>
 8    1  0.1086486E+005  0.1043930E+01  0.7957747E-01            NaN
         13   -1    0    0    0    0  0.00000000000E+00  0.00000000000E+00  0.74505805969E-08  0.10566000000E+00  0.10566000000E+00 0.  1.
     999900   -1    0    0    0    0 -0.00000000000E+00 -0.00000000000E+00 -0.74505805969E-08  0.93827000000E+00  0.93827000000E+00 0.  1.
     999902    2    1    2    0    0 -0.70297909079E-02  0.19721932761E-01  0.11039808296E-01  0.10202604001E+01  0.10199858009E+01 0.  0.
     999903    2    3    3    0    0 -0.12565214814E+00  0.17148809281E-01  0.31263012609E-01  0.13206736782E+00  0.19541486487E-01 0.  0.
         14    1    1    2    0    0  0.70297909079E-02 -0.19721932761E-01 -0.11039808296E-01  0.23669599897E-01  0.00000000000E+00 0. -1.
     999901    1    3    3    0    0  0.11862235723E+00  0.25731234808E-02 -0.20223204313E-01  0.88819303228E+00  0.88000000000E+00 0. -1.
        -11    1    4    4    0    0 -0.92680823457E-01  0.45281876535E-02  0.19222418686E-01  0.94762872589E-01  0.51100000000E-03 0.  1.
         11    1    4    4    0    0 -0.32971324683E-01  0.12620621627E-01  0.12040593923E-01  0.37304495234E-01  0.51100000000E-03 0. -1.
</event>
<event>
 8    1  0.1086486E+005  0.1043930E+01  0.7957747E-01            NaN
         13   -1    0    0    0    0  0.00000000000E+00  0.00000000000E+00  0.74505805969E-08  0.10566000000E+00  0.10566000000E+00 0. -1.
     999900   -1    0    0    0    0 -0.00000000000E+00 -0.00000000000E+00 -0.74505805969E-08  0.93827000000E+00  0.93827000000E+00 0.  1.
     999902    2    1    2    0    0  0.19945002650E-02 -0.15502010601E-01  0.18513038976E-01  0.10197014430E+01  0.10194135617E+01 0.  0.
     999903    2    3    3    0    0 -0.26753235888E-01 -0.89543590549E-01  0.93169448438E-01  0.13297591194E+00  0.16378546791E-01 0.  0.
         14    1    1    2    0    0 -0.19945002650E-02  0.15502010601E-01 -0.18513038976E-01  0.24228557037E-01  0.00000000000E+00 0. -1.
     999901    1    3    3    0    0  0.28747736153E-01  0.74041579948E-01 -0.74656409462E-01  0.88672553102E+00  0.88000000000E+00 0.  1.
        -11    1    4    4    0    0 -0.21415576505E-01 -0.58439417609E-01  0.52036356428E-01  0.81128515078E-01  0.51100000000E-03 0. -1.
         11    1    4    4    0    0 -0.53376593836E-02 -0.31104172940E-01  0.41133092010E-01  0.51847396861E-01  0.51100000000E-03 0.  1.
</event>
<event>
 8    1  0.1086486E+005  0.1043930E+01  0.7957747E-01            NaN
         13   -1    0    0    0    0  0.00000000000E+00  0.00000000000E+00  0.74505805969E-08  0.10566000000E+00  0.10566000000E+00 0.  1.
     999900   -1    0    0    0    0 -0.00000000000E+00 -0.00000000000E+00 -0.74505805969E-08  0.93827000000E+00  0.93827000000E+00 0. -1.
     999902    2    1    2    0    0  0.88154452098E-02  0.16011591525E-02 -0.21023300113E-01  0.10210771023E+01  0.10208213330E+01 0.  0.
     999903    2    3    3    0    0 -0.12683127147E+00 -0.57044665653E-02 -0.23388891986E-01  0.13065079995E+00  0.20096738481E-01 0.  0.
         14    1    1    2    0    0 -0.88154452098E-02 -0.16011591525E-02  0.21023300113E-01  0.22852897684E-01  0.00000000000E+00 0.  1.
     999901    1    3    3    0    0  0.13564671668E+00  0.73056257178E-02  0.23655918722E-02  0.89042630236E+00  0.88000000000E+00 0. -1.
        -11    1    4    4    0    0 -0.10931415784E+00 -0.79569630792E-02 -0.13581953484E-01  0.11044287640E+00  0.51100000000E-03 0.  1.
         11    1    4    4    0    0 -0.17517113634E-01  0.22524965140E-02 -0.98069385021E-02  0.20207923555E-01  0.51100000000E-03 0. -1.
</event>
<event>
 8    1  0.1086486E+005  0.1043930E+01  0.7957747E-01            NaN
         13   -1    0    0    0    0  0.00000000000E+00  0.00000000000E+00  0.74505805969E-08  0.10566000000E+00  0.10566000000E+00 0.  1.
     999900   -1    0    0    0    0 -0.00000000000E+00 -0.00000000000E+00 -0.74505805969E-08  0.93827000000E+00  0.93827000000E+00 0.  1.
     999902    2    1    2    0    0  0.78778571319E-02  0.16034041412E-01 -0.15651996545E-01  0.10201784503E+01  0.10199019239E+01 0.  0.
     999903    2    3    3    0    0  0.12754157234E-02 -0.11874923505E+00 -0.48917591203E-01  0.12927064159E+00  0.14661532560E-01 0.  0.
         14    1    1    2    0    0 -0.78778571319E-02 -0.16034041412E-01  0.15651996545E-01  0.23751549693E-01  0.00000000000E+00 0.  1.
     999901    1    3    3    0    0  0.66024414086E-02  0.13478327646E+00  0.33265594658E-01  0.89090780872E+00  0.88000000000E+00 0.  1.
        -11    1    4    4    0    0 -0.52330726308E-02 -0.69378387493E-01 -0.32848222069E-01  0.76941617571E-01  0.51100000000E-03 0. -1.
         11    1    4    4    0    0  0.65084883541E-02 -0.49370847559E-01 -0.16069369134E-01  0.52329024018E-01  0.51100000000E-03 0.  1.
</event>
<event>
 7    1  0.1086486E+005  0.1043930E+01  0.7957747E-01            NaN
         13   -1    0    0    0    0  0.00000000000E+00  0.00000000000E+00  0.74505805969E-08  0.10566000000E+00  0.10566000000E+00 0. -1.
     999900   -1    0    0    0    0 -0.00000000000E+00 -0.00000000000E+00 -0.74505805969E-08  0.93827000000E+00  0.93827000000E+00 0.  1.
     999903    2    1    2    0    0  0.85000936002E-02 -0.11615819594E+00 -0.15439423883E-01  0.11925770271E+00  0.20470607432E-01 0.  0.
         14    1    1    2    0    0  0.27480039616E-01  0.16789886698E-01  0.20793468211E-01  0.38333030050E-01  0.00000000000E+00 0. -1.
     999901    1    1    2    0    0 -0.35980133216E-01  0.99368309246E-01 -0.53540443273E-02  0.88633926724E+00  0.88000000000E+00 0. -1.
        -11    1    3    3    0    0 -0.95183584113E-03 -0.55555081829E-01  0.16283853320E-02  0.55589440259E-01  0.51100000000E-03 0.  1.
         11    1    3    3    0    0  0.94519294413E-02 -0.60603114114E-01 -0.17067809215E-01  0.63668262446E-01  0.51100000000E-03 0. -1.
</event>
<event>
 8    1  0.1086486E+005  0.1043930E+01  0.7957747E-01            NaN
         13   -1    0    0    0    0  0.00000000000E+00  0.00000000000E+00  0.74505805969E-08  0.10566000000E+00  0.10566000000E+00 0.  1.
     999900   -1    0    0    0    0 -0.00000000000E+00 -0.00000000000E+00 -0.74505805969E-08  0.93827000000E+00  0.93827000000E+00 0.  1.
     999902    2    1    2    0    0 -0.86220275277E-02 -0.33593071203E-02  0.22038424063E-01  0.10200277734E+01  0.10197476855E+01 0.  0.
     999903    2    3    3    0    0  0.42650571433E-01  0.11014255123E-01 -0.11783721175E+00  0.12739085267E+00  0.20060802817E-01 0.  0.
         14    1    1    2    0    0  0.86220275277E-02  0.33593071203E-02 -0.22038424063E-01  0.23902226637E-01  0.00000000000E+00 0. -1.
     999901    1    3    3    0    0 -0.51272598960E-01 -0.14373562243E-01  0.13987563582E+00  0.89263692070E+00  0.88000000000E+00 0. -1.
        -11    1    4    4    0    0  0.26105039829E-01 -0.35268793394E-02 -0.62239037678E-01  0.67586026030E-01  0.51100000000E-03 0. -1.
         11    1    4    4    0    0  0.16545531603E-01  0.14541134462E-01 -0.55598174076E-01  0.59804826637E-01  0.51100000000E-03 0.  1.
</event>
<event>
 8    1  0.1086486E+005  0.1043930E+01  0.7957747E-01            NaN
         13   -1    0    0    0    0  0.00000000000E+00  0.00000000000E+00  0.74505805969E-08  0.10566000000E+00  0.10566000000E+00 0. -1.
     999900   -1    0    0    0    0 -0.00000000000E+00 -0.00000000000E+00 -0.74505805969E-08  0.93827000000E+00  0.93827000000E+00 0.  1.
     999902    2    1    2    0    0 -0.97221193181E-02  0.81499701625E-02 -0.20719341385E-01  0.10196352943E+01  0.10193458200E+01 0.  0.
     999903    2    3    3    0    0 -0.34643828470E-01  0.29665051729E-01 -0.12189064846E+00  0.13322702285E+00  0.28493846504E-01 0.  0.
         14    1    1    2    0    0  0.97221193181E-02 -0.81499701625E-02  0.20719341385E-01  0.24294705701E-01  0.00000000000E+00 0. -1.
     999901    1    3    3    0    0  0.24921709152E-01 -0.21515081566E-01  0.10117130708E+00  0.88640827145E+00  0.88000000000E+00 0. -1.
        -11    1    4    4    0    0 -0.23747737343E-02  0.80763394057E-02 -0.44533431235E-02  0.95373054088E-02  0.51100000000E-03 0.  1.
         11    1    4    4    0    0 -0.32269054736E-01  0.21588712323E-01 -0.11743730534E+00  0.12368971744E+00  0.51100000000E-03 0. -1.
</event>
<event>
 8    1  0.1086486E+005  0.1043930E+01  0.7957747E-01            NaN
         13   -1    0    0    0    0  0.00000000000E+00  0.00000000000E+00  0.74505805969E-08  0.10566000000E+00  0.10566000000E+00 0. -1.
     999900   -1    0    0    0    0 -0.00000000000E+00 -0.00000000000E+00 -0.74505805969E-08  0.93827000000E+00  0.93827000000E+00 0. -1.
     999902    2    1    2    0    0 -0.14086985297E-01 -0.31255664797E-02 -0.18086891578E-01  0.10207924122E+01  0.10205301568E+01 0.  0.
     999903    2    3    3    0    0 -0.38920837756E-01 -0.12028509699E+00  0.29642597347E-01  0.13139869743E+00  0.20089747123E-01 0.  0.
         14    1    1    2    0    0  0.14086985297E-01  0.31255664797E-02  0.18086891578E-01  0.23137587764E-01  0.00000000000E+00 0. -1.
     999901    1    3    3    0    0  0.24833852459E-01  0.11715953051E+00 -0.47729488926E-01  0.88939371480E+00  0.88000000000E+00 0.  1.
        -11    1    4    4    0    0 -0.33591346648E-01 -0.72551963443E-01  0.19807192463E-01  0.82369605823E-01  0.51100000000E-03 0.  1.
         11    1    4    4    0    0 -0.53294911077E-02 -0.47733133549E-01  0.98354048839E-02  0.49029091610E-01  0.51100000000E-03 0. -1.
</event>
<event>
 8    1  0.1086486E+005  0.1043930E+01  0.7957747E-01            NaN
         13   -1    0    0    0    0  0.00000000000E+00  0.00000000000E+00  0.74505805969E-08  0.10566000000E+00  0.10566000000E+00 0.  1.
     999900   -1    0    0    0    0 -0.00000000000E+00 -0.00000000000E+00 -0.74505805969E-08  0.93827000000E+00  0.93827000000E+00 0. -1.
     999902    2    1    2    0    0 -0.17835570536E-01 -0.11805766794E-01 -0.10615984092E-01  0.10200514987E+01  0.10197719731E+01 0.  0.
     999903    2    3    3    0    0 -0.82199841575E-01  0.55725278401E-01 -0.84701118508E-01  0.13202457986E+00  0.19851690167E-01 0.  0.
         14    1    1    2    0    0  0.17835570536E-01  0.11805766794E-01  0.10615984092E-01  0.23878501297E-01  0.00000000000E+00 0.  1.
     999901    1    3    3    0    0  0.64364271040E-01 -0.67531045195E-01  0.74085134415E-01  0.88802691884E+00  0.88000000000E+00 0.  1.
        -11    1    4    4    0    0 -0.51650149521E-01  0.27966254740E-01 -0.39357370937E-01  0.70704406636E-01  0.51100000000E-03 0. -1.
         11    1    4    4    0    0 -0.30549692054E-01  0.27759023662E-01 -0.45343747571E-01  0.61320173223E-01  0.51100000000E-03 0.  1.
</event>
<event>
 8    1  0.1086486E+005  0.1043930E+01  0.7957747E-01            NaN
         13   -1    0    0    0    0  0.00000000000E+00  0.00000000000E+00  0.74505805969E-08  0.10566000000E+00  0.10566000000E+00 0. -1.
     999900   -1    0    0    0    0 -0.00000000000E+00 -0.00000000000E+00 -0.74505805969E-08  0.93827000000E+00  0.93827000000E+00 0.  1.
     999902    2    1    2    0    0  0.63140015924E-02 -0.20303539927E-01 -0.10435793778E-01  0.10202444318E+01  0.10199694576E+01 0.  0.
     999903    2    3    3    0    0 -0.20686070513E-01  0.12065276037E+00 -0.32812276752E-01  0.12833726763E+00  0.20218967777E-01 0.  0.
         14    1    1    2    0    0 -0.63140015924E-02  0.20303539927E-01  0.10435793778E-01  0.23685568210E-01  0.00000000000E+00 0.  1.
     999901    1    3    3    0    0  0.27000072106E-01 -0.14095630030E+00  0.22376482975E-01  0.89190716416E+00  0.88000000000E+00 0.  1.
        -11    1    4    4    0    0 -0.43536415115E-02  0.51105610751E-01 -0.23042782510E-01  0.56231384399E-01  0.51100000000E-03 0. -1.
         11    1    4    4    0    0 -0.16332429002E-01  0.69547149624E-01 -0.97694942425E-02  0.72105883232E-01  0.51100000000E-03 0.  1.
</event>
<event>
 8    1  0.1086486E+005  0.1043930E+01  0.7957747E-01            NaN
         13   -1    0    0    0    0  0.00000000000E+00  0.00000000000E+00  0.74505805969E-08  0.10566000000E+00  0.10566000000E+00 0.  1.
     999900   -1    0    0    0    0 -0.00000000000E+00 -0.00000000000E+00 -0.74505805969E-08  0.93827000000E+00  0.93827000000E+00 0.  1.
     999902    2    1    2    0    0  0.22294331740E-01  0.87027792747E-02  0.28827552907E-02  0.10198242772E+01  0.10195393423E+01 0.  0.
     999903    2    3    3    0    0 -0.11367607503E+00  0.34400018250E-01 -0.42509430351E-01  0.12785524737E+00  0.20839897365E-01 0.  0.
         14    1    1    2    0    0 -0.22294331740E-01 -0.87027792747E-02 -0.28827552907E-02  0.24105722825E-01  0.00000000000E+00 0. -1.
     999901    1    3    3    0    0  0.13597040677E+00 -0.25697238976E-01  0.45392185642E-01  0.89196902980E+00  0.88000000000E+00 0. -1.
        -11    1    4    4    0    0 -0.37811649111E-01  0.20470461893E-01 -0.20534569768E-01  0.47651760672E-01  0.51100000000E-03 0.  1.
         11    1    4    4    0    0 -0.75864425919E-01  0.13929556357E-01 -0.21974860583E-01  0.80203486701E-01  0.51100000000E-03 0. -1.
</event>
<event>
 8    1  0.1086486E+005  0.1043930E+01  0.7957747E-01            NaN
         13   -1    0    0    0    0  0.00000000000E+00  0.00000000000E+00  0.74505805969E-08  0.10566000000E+00  0.10566000000E+00 0.  1.
     999900   -1    0    0    0    0 -0.00000000000E+00 -0.00000000000E+00 -0.74505805969E-08  0.93827000000E+00  0.93827000000E+00 0. -1.
     999902    2    1    2    0    0 -0.64324349863E-02 -0.11531297078E-01  0.20154536101E-01  0.10198353459E+01  0.10195506757E+01 0.  0.
     999903    2    3    3    0    0 -0.64838281130E-01  0.84001753158E-01  0.74396650678E-01  0.13108340436E+00  0.19690099855E-01 0.  0.
         14    1    1    2    0    0  0.64324349863E-02  0.11531297078E-01 -0.20154536101E-01  0.24094654129E-01  0.00000000000E+00 0. -1.
     999901    1    3    3    0    0  0.58405846144E-01 -0.95533050236E-01 -0.54242114577E-01  0.88875194151E+00  0.88000000000E+00 0.  1.
        -11    1    4    4    0    0 -0.47565906902E-01  0.70194654155E-01  0.51304161495E-01  0.99106927503E-01  0.51100000000E-03 0. -1.
         11    1    4    4    0    0 -0.17272374228E-01  0.13807099002E-01  0.23092489183E-01  0.31976476854E-01  0.51100000000E-03 0.  1.
</event>
<event>
 8    1  0.1086486E+005  0.1043930E+01  0.7957747E-01            NaN
         13   -1    0    0    0    0  0.00000000000E+00  0.00000000000E+00  0.74505805969E-08  0.10566000000E+00  0.10566000000E+00 0.  1.
     999900   -1    0    0    0    0 -0.00000000000E+00 -0.00000000000E+00 -0.74505805969E-08  0.93827000000E+00  0.93827000000E+00 0.  1.
     999902    2    1    2    0    0 -0.49388947284E-02  0.23452139281E-01 -0.81999857450E-02  0.10185994792E+01  0.10182844709E+01 0.  0.
     999903    2    3    3    0    0 -0.43269936340E-02 -0.12458442314E+00 -0.23472599951E-02  0.12621533958E+00  0.19616344024E-01 0.  0.
         14    1    1    2    0    0  0.49388947284E-02 -0.23452139281E-01  0.81999857450E-02  0.25330520804E-01  0.00000000000E+00 0.  1.
     999901    1    3    3    0    0 -0.61190109443E-03  0.14803656242E+00 -0.58527257499E-02  0.89238413961E+00  0.88000000000E+00 0. -1.
        -11    1    4    4    0    0 -0.20748978285E-02 -0.61824012353E-01 -0.10960981093E-01  0.62824501048E-01  0.51100000000E-03 0.  1.
         11    1    4    4    0    0 -0.22520958055E-02 -0.62760410788E-01  0.86137210978E-02  0.63390838533E-01  0.51100000000E-03 0. -1.
</event>
<event>
 8    1  0.1086486E+005  0.1043930E+01  0.7957747E-01            NaN
         13   -1    0    0    0    0  0.00000000000E+00  0.00000000000E+00  0.74505805969E-08  0.10566000000E+00  0.10566000000E+00 0. -1.
     999900   -1    0    0    0    0 -0.00000000000E+00 -0.00000000000E+00 -0.74505805969E-08  0.93827000000E+00  0.93827000000E+00 0.  1.
     999902    2    1    2    0    0 -0.20992238397E-01 -0.77876892626E-02 -0.92391708617E-02  0.10197084300E+01  0.10194207167E+01 0.  0.
     999903    2    3    3    0    0  0.60541431871E-01  0.99562241846E-02 -0.11217502877E+00  0.12978799717E+00  0.22300129092E-01 0.  0.
         14    1    1    2    0    0  0.20992238397E-01  0.77876892626E-02  0.92391708617E-02  0.24221570040E-01  0.00000000000E+00 0.  1.
     999901    1    3    3    0    0 -0.81533670269E-01 -0.17743913447E-01  0.10293585791E+00  0.88992043279E+00  0.88000000000E+00 0. -1.
        -11    1    4    4    0    0  0.40419395277E-01 -0.41104698384E-02 -0.73249789427E-01  0.83764051054E-01  0.51100000000E-03 0.  1.
         11    1    4    4    0    0  0.20122036594E-01  0.14066694023E-01 -0.38925239342E-01  0.46023946118E-01  0.51100000000E-03 0. -1.
</event>
<event>
 8    1  0.1086486E+005  0.1043930E+01  0.7957747E-01            NaN
         13   -1    0    0    0    0  0.00000000000E+00  0.00000000000E+00  0.74505805969E-08  0.10566000000E+00  0.10566000000E+00 0. -1.
     999900   -1    0    0    0    0 -0.00000000000E+00 -0.00000000000E+00 -0.74505805969E-08  0.93827000000E+00  0.93827000000E+00 0.  1.
     999902    2    1    2    0    0  0.56850756684E-02  0.14997601163E-01 -0.18159057142E-01  0.10197019278E+01  0.10194140582E+01 0.  0.
     999903    2    3    3    0    0  0.57690083133E-01  0.90396685002E-01  0.71580712542E-01  0.13040851790E+00  0.19567237425E-01 0.  0.
         14    1    1    2    0    0 -0.56850756684E-02 -0.14997601163E-01  0.18159057142E-01  0.24228072195E-01  0.00000000000E+00 0. -1.
     999901    1    3    3    0    0 -0.52005007465E-01 -0.75399083839E-01 -0.89739769684E-01  0.88929340991E+00  0.88000000000E+00 0.  1.
        -11    1    4    4    0    0  0.44885121273E-01  0.55774141159E-01  0.41238090087E-01  0.82621245020E-01  0.51100000000E-03 0. -1.
         11    1    4    4    0    0  0.12804961860E-01  0.34622543843E-01  0.30342622455E-01  0.47787272875E-01  0.51100000000E-03 0.  1.
</event>
<event>
 8    1  0.1086486E+005  0.1043930E+01  0.7957747E-01            NaN
         13   -1    0    0    0    0  0.00000000000E+00  0.00000000000E+00  0.74505805969E-08  0.10566000000E+00  0.10566000000E+00 0. -1.
     999900   -1    0    0    0    0 -0.00000000000E+00 -0.00000000000E+00 -0.74505805969E-08  0.93827000000E+00  0.93827000000E+00 0.  1.
     999902    2    1    2    0    0 -0.14336531034E-01  0.15764987865E-01  0.10716636565E-01  0.10200780134E+01  0.10197991156E+01 0.  0.
     999903    2    3    3    0    0  0.77903264346E-01  0.15000224828E-01  0.10166238963E+00  0.13059507670E+00  0.20637520528E-01 0.  0.
         14    1    1    2    0    0  0.14336531034E-01 -0.15764987865E-01 -0.10716636565E-01  0.23851986579E-01  0.00000000000E+00 0. -1.
     999901    1    3    3    0    0 -0.92239795380E-01  0.76476303693E-03 -0.90945753062E-01  0.88948293672E+00  0.88000000000E+00 0.  1.
        -11    1    4    4    0    0  0.37004256953E-01  0.15568853372E-01  0.60117591666E-01  0.72291701991E-01  0.51100000000E-03 0. -1.
         11    1    4    4    0    0  0.40899007393E-01 -0.56862854405E-03  0.41544797961E-01  0.58303374711E-01  0.51100000000E-03 0.  1.
</event>
<event>
 8    1  0.1086486E+005  0.1043930E+01  0.7957747E-01            NaN
         13   -1    0    0    0    0  0.00000000000E+00  0.00000000000E+00  0.74505805969E-08  0.10566000000E+00  0.10566000000E+00 0.  1.
     999900   -1    0    0    0    0 -0.00000000000E+00 -0.00000000000E+00 -0.74505805969E-08  0.93827000000E+00  0.93827000000E+00 0.  1.
     999902    2    1    2    0    0 -0.12312173279E-01  0.42865970326E-02 -0.18116534503E-01  0.10216102028E+01  0.10213663560E+01 0.  0.
     999903    2    3    3    0    0 -0.55368438199E-01 -0.93068262976E-01  0.70548498568E-01  0.13077166590E+00  0.19919147347E-01 0.  0.
         14    1    1    2    0    0  0.12312173279E-01 -0.42865970326E-02  0.18116534503E-01  0.22319797207E-01  0.00000000000E+00 0.  1.
     999901    1    3    3    0    0  0.43056264921E-01  0.97354860009E-01 -0.88665033072E-01  0.89083853689E+00  0.88000000000E+00 0.  1.
        -11    1    4    4    0    0 -0.87494896981E-02 -0.25138444562E-01  0.25527675009E-01  0.36883848461E-01  0.51100000000E-03 0. -1.
         11    1    4    4    0    0 -0.46618948501E-01 -0.67929818414E-01  0.45020823559E-01  0.93887817443E-01  0.51100000000E-03 0.  1.
</event>
<event>
 8    1  0.1086486E+005  0.1043930E+01  0.7957747E-01            NaN
         13   -1    0    0    0    0  0.00000000000E+00  0.00000000000E+00  0.74505805969E-08  0.10566000000E+00  0.10566000000E+00 0. -1.
     999900   -1    0    0    0    0 -0.00000000000E+00 -0.00000000000E+00 -0.74505805969E-08  0.93827000000E+00  0.93827000000E+00 0. -1.
     999902    2    1    2    0    0 -0.17068385577E-01 -0.13200311965E-01  0.46322992459E-02  0.10218611029E+01  0.10216227667E+01 0.  0.
     999903    2    3    3    0    0 -0.11844602813E+00 -0.15779371230E-01 -0.56708620046E-01  0.13391584203E+00  0.20955548691E-01 0.  0.
         14    1    1    2    0    0  0.17068385577E-01  0.13200311965E-01 -0.46322992459E-02  0.22068897083E-01  0.00000000000E+00 0. -1.
     999901    1    3    3    0    0  0.10137764256E+00  0.25790592648E-02  0.61340919292E-01  0.88794526089E+00  0.88000000000E+00 0.  1.
        -11    1    4    4    0    0 -0.88483566897E-01 -0.56486916874E-02 -0.49212005742E-01  0.10140676486E+00  0.51100000000E-03 0.  1.
         11    1    4    4    0    0 -0.29962461238E-01 -0.10130679542E-01 -0.74966143035E-02  0.32509077170E-01  0.51100000000E-03 0. -1.
</event>
<event>
 8    1  0.1086486E+005  0.1043930E+01  0.7957747E-01            NaN
         13   -1    0    0    0    0  0.00000000000E+00  0.00000000000E+00  0.74505805969E-08  0.10566000000E+00  0.10566000000E+00 0. -1.
     999900   -1    0    0    0    0 -0.00000000000E+00 -0.00000000000E+00 -0.74505805969E-08  0.93827000000E+00  0.93827000000E+00 0.  1.
     999902    2    1    2    0    0 -0.12611998038E-01 -0.10891548020E-01 -0.16959359658E-01  0.10201537894E+01  0.10198766816E+01 0.  0.
     999903    2    3    3    0    0  0.12276487818E+00  0.30060061842E-01 -0.76668132217E-02  0.12881194450E+00  0.23641370291E-01 0.  0.
         14    1    1    2    0    0  0.12611998038E-01  0.10891548020E-01  0.16959359658E-01  0.23776210648E-01  0.00000000000E+00 0. -1.
     999901    1    3    3    0    0 -0.13537687622E+00 -0.40951609862E-01 -0.92925464361E-02  0.89134184485E+00  0.88000000000E+00 0. -1.
        -11    1    4    4    0    0  0.48420707090E-01  0.77825239983E-03 -0.67839505594E-02  0.48902491328E-01  0.51100000000E-03 0. -1.
         11    1    4    4    0    0  0.74344171087E-01  0.29281809442E-01 -0.88286266230E-03  0.79909453172E-01  0.51100000000E-03 0.  1.
</event>
<event>
 8    1  0.1086486E+005  0.1043930E+01  0.7957747E-01            NaN
         13   -1    0    0    0    0  0.00000000000E+00  0.00000000000E+00  0.74505805969E-08  0.10566000000E+00  0.10566000000E+00 0. -1.
     999900   -1    0    0    0    0 -0.00000000000E+00 -0.00000000000E+00 -0.74505805969E-08  0.93827000000E+00  0.93827000000E+00 0.  1.
     999902    2    1    2    0    0 -0.94349958269E-02 -0.19596310441E-01 -0.84593598356E-02  0.10205934343E+01  0.10203265962E+01 0.  0.
     999903    2    3    3    0    0  0.12782318829E+00 -0.17626952938E-02 -0.90657957307E-02  0.12977458926E+00  0.20429899804E-01 0.  0.
         14    1    1    2    0    0  0.94349958269E-02  0.19596310441E-01  0.84593598356E-02  0.23336565685E-01  0.00000000000E+00 0.  1.
     999901    1    3    3    0    0 -0.13725818412E+00 -0.17833615147E-01  0.60643589513E-03  0.89081884505E+00  0.88000000000E+00 0.  1.
        -11    1    4    4    0    0  0.54281371754E-01  0.85440576891E-03  0.61186685448E-02  0.54634206817E-01  0.51100000000E-03 0. -1.
         11    1    4    4    0    0  0.73541816538E-01 -0.26171010628E-02 -0.15184464275E-01  0.75140382445E-01  0.51100000000E-03 0.  1.
</event>
<event>
 8    1  0.1086486E+005  0.1043930E+01  0.7957747E-01            NaN
         13   -1    0    0    0    0  0.00000000000E+00  0.00000000000E+00  0.74505805969E-08  0.10566000000E+00  0.10566000000E+00 0. -1.
     999900   -1    0    0    0    0 -0.00000000000E+00 -0.00000000000E+00 -0.74505805969E-08  0.93827000000E+00  0.93827000000E+00 0.  1.
     999902    2    1    2    0    0 -0.22319405961E-01 -0.15621312814E-01  0.28671505836E-02  0.10165365364E+01  0.10161673720E+01 0.  0.
     999903    2    3    3    0    0 -0.10263336977E+00 -0.56989048179E-01  0.53553784694E-01  0.13046049157E+00  0.19250241628E-01 0.  0.
         14    1    1    2    0    0  0.22319405961E-01  0.15621312814E-01 -0.28671505836E-02  0.27393463617E-01  0.00000000000E+00 0. -1.
     999901    1    3    3    0    0  0.80313963812E-01  0.41367735365E-01 -0.50686634110E-01  0.88607604481E+00  0.88000000000E+00 0.  1.
        -11    1    4    4    0    0 -0.67489026020E-01 -0.32705101297E-01  0.24913619000E-01  0.79027475075E-01  0.51100000000E-03 0. -1.
         11    1    4    4    0    0 -0.35144343752E-01 -0.24283946882E-01  0.28640165694E-01  0.51433016496E-01  0.51100000000E-03 0.  1.
</event>
<event>
 8    1  0.1086486E+005  0.1043930E+01  0.7957747E-01            NaN
         13   -1    0    0    0    0  0.00000000000E+00  0.00000000000E+00  0.74505805969E-08  0.10566000000E+00  0.10566000000E+00 0. -1.
     999900   -1    0    0    0    0 -0.00000000000E+00 -0.00000000000E+00 -0.74505805969E-08  0.93827000000E+00  0.93827000000E+00 0. -1.
     999902    2    1    2    0    0  0.89253104661E-02 -0.21412980547E-01 -0.33069164909E-02  0.10204968483E+01  0.10202277710E+01 0.  0.
     999903    2    3    3    0    0 -0.12399787188E+00  0.12133666121E-02  0.31721490996E-01  0.12953808755E+00  0.19922817186E-01 0.  0.
         14    1    1    2    0    0 -0.89253104661E-02  0.21412980547E-01  0.33069164909E-02  0.23433151720E-01  0.00000000000E+00 0.  1.
     999901    1    3    3    0    0  0.13292318235E+00 -0.22626347160E-01 -0.35028407487E-01  0.89095876073E+00  0.88000000000E+00 0. -1.
        -11    1    4    4    0    0 -0.81500829575E-01 -0.45907072074E-02  0.12694026484E-01  0.82612706307E-01  0.51100000000E-03 0.  1.
         11    1    4    4    0    0 -0.42497042309E-01  0.58040738195E-02  0.19027464513E-01  0.46925381242E-01  0.51100000000E-03 0. -1.
</event>
<event>
 8    1  0.1086486E+005  0.1043930E+01  0.7957747E-01            NaN
         13   -1    0    0    0    0  0.00000000000E+00  0.00000000000E+00  0.74505805969E-08  0.10566000000E+00  0.10566000000E+00 0.  1.
     999900   -1    0    0    0    0 -0.00000000000E+00 -0.00000000000E+00 -0.74505805969E-08  0.93827000000E+00  0.93827000000E+00 0.  1.
     999902    2    1    2    0    0 -0.99248131989E-02  0.11231325543E-01  0.19176813115E-01  0.10195908391E+01  0.10193002916E+01 0.  0.
     999903    2    3    3    0    0  0.57351388005E-01 -0.46056764735E-01 -0.10155464854E+00  0.12696320211E+00  0.19897255275E-01 0.  0.
         14    1    1    2    0    0  0.99248131989E-02 -0.11231325543E-01 -0.19176813115E-01  0.24339160868E-01  0.00000000000E+00 0.  1.
     999901    1    3    3    0    0 -0.67276201204E-01  0.57288090278E-01  0.12073146165E+00  0.89262763702E+00  0.88000000000E+00 0. -1.
        -11    1    4    4    0    0  0.47045440383E-02  0.17722761156E-02 -0.73870374596E-02  0.89500357914E-02  0.51100000000E-03 0. -1.
         11    1    4    4    0    0  0.52646843967E-01 -0.47829040850E-01 -0.94167611078E-01  0.11801316632E+00  0.51100000000E-03 0.  1.
</event>
<event>
 8    1  0.1086486E+005  0.1043930E+01  0.7957747E-01            NaN
         13   -1    0    0    0    0  0.00000000000E+00  0.00000000000E+00  0.74505805969E-08  0.10566000000E+00  0.10566000000E+00 0. -1.
     999900   -1    0    0    0    0 -0.00000000000E+00 -0.00000000000E+00 -0.74505805969E-08  0.93827000000E+00  0.93827000000E+00 0.  1.
     999902    2    1    2    0    0  0.49929179558E-02 -0.15229229141E-01 -0.19792560783E-01  0.10184622928E+01  0.10181438197E+01 0.  0.
     999903    2    3    3    0    0 -0.90752925769E-01 -0.69356388486E-01  0.55230993369E-01  0.12844793914E+00  0.20050144154E-01 0.  0.
         14    1    1    2    0    0 -0.49929179558E-02  0.15229229141E-01  0.19792560783E-01  0.25467707245E-01  0.00000000000E+00 0. -1.
     999901    1    3    3    0    0  0.95745843724E-01  0.54127159344E-01 -0.75023554152E-01  0.89001435362E+00  0.88000000000E+00 0.  1.
        -11    1    4    4    0    0 -0.75837398400E-01 -0.47487742194E-01  0.43375970937E-01  0.99439090052E-01  0.51100000000E-03 0. -1.
         11    1    4    4    0    0 -0.14915527368E-01 -0.21868646292E-01  0.11855022432E-01  0.29008849084E-01  0.51100000000E-03 0.  1.
</event>
<event>
 8    1  0.1086486E+005  0.1043930E+01  0.7957747E-01            NaN
         13   -1    0    0    0    0  0.00000000000E+00  0.00000000000E+00  0.74505805969E-08  0.10566000000E+00  0.10566000000E+00 0.  1.
     999900   -1    0    0    0    0 -0.00000000000E+00 -0.00000000000E+00 -0.74505805969E-08  0.93827000000E+00  0.93827000000E+00 0.  1.
     999902    2    1    2    0    0  0.11359894923E-01  0.12285623855E-01  0.17169594002E-01  0.10199554567E+01  0.10196736512E+01 0.  0.
     999903    2    3    3    0    0  0.12234843716E+00 -0.42453270694E-01  0.47307637645E-02  0.13120941451E+00  0.20545317273E-01 0.  0.
         14    1    1    2    0    0 -0.11359894923E-01 -0.12285623855E-01 -0.17169594002E-01  0.23974543256E-01  0.00000000000E+00 0. -1.
     999901    1    3    3    0    0 -0.11098854224E+00  0.54738894549E-01  0.12438830237E-01  0.88874604223E+00  0.88000000000E+00 0.  1.
        -11    1    4    4    0    0  0.39886346206E-01 -0.77582074740E-02  0.90781861548E-02  0.41638743758E-01  0.51100000000E-03 0. -1.
         11    1    4    4    0    0  0.82462090957E-01 -0.34695063220E-01 -0.43474223903E-02  0.89570670754E-01  0.51100000000E-03 0.  1.
</event>
<event>
 8    1  0.1086486E+005  0.1043930E+01  0.7957747E-01            NaN
         13   -1    0    0    0    0  0.00000000000E+00  0.00000000000E+00  0.74505805969E-08  0.10566000000E+00  0.10566000000E+00 0.  1.
     999900   -1    0    0    0    0 -0.00000000000E+00 -0.00000000000E+00 -0.74505805969E-08  0.93827000000E+00  0.93827000000E+00 0. -1.
     999902    2    1    2    0    0 -0.15137887125E-01  0.66178793334E-02 -0.16767615459E-01  0.10203905675E+01  0.10201190153E+01 0.  0.
     999903    2    3    3    0    0  0.11282955805E+00 -0.57464849615E-01  0.84877113580E-02  0.12847123557E+00  0.20002475142E-01 0.  0.
         14    1    1    2    0    0  0.15137887125E-01 -0.66178793334E-02  0.16767615459E-01  0.23539432484E-01  0.00000000000E+00 0. -1.
     999901    1    3    3    0    0 -0.12796744518E+00  0.64082728948E-01 -0.25255326817E-01  0.89191933195E+00  0.88000000000E+00 0. -1.
        -11    1    4    4    0    0  0.24070167312E-01 -0.66118160634E-02 -0.44488247388E-02  0.25360248986E-01  0.51100000000E-03 0. -1.
         11    1    4    4    0    0  0.88759390742E-01 -0.50853033551E-01  0.12936536097E-01  0.10311098658E+00  0.51100000000E-03 0.  1.
</event>
<event>
 8    1  0.1086486E+005  0.1043930E+01  0.7957747E-01            NaN
         13   -1    0    0    0    0  0.00000000000E+00  0.00000000000E+00  0.74505805969E-08  0.10566000000E+00  0.10566000000E+00 0.  1.
     999900   -1    0    0    0    0 -0.00000000000E+00 -0.00000000000E+00 -0.74505805969E-08  0.93827000000E+00  0.93827000000E+00 0. -1.
     999902    2    1    2    0    0  0.14535293882E-02 -0.23265845774E-01 -0.12776279104E-02  0.10205838084E+01  0.10203167476E+01 0.  0.
     999903    2    3    3    0    0 -0.41544971119E-01  0.61923605942E-01 -0.10167627943E+00  0.12974936650E+00  0.30599259950E-01 0.  0.
         14    1    1    2    0    0 -0.14535293882E-02  0.23265845774E-01  0.12776279104E-02  0.23346191560E-01  0.00000000000E+00 0.  1.
     999901    1    3    3    0    0  0.42998500508E-01 -0.85189451716E-01  0.10039865152E+00  0.89083444195E+00  0.88000000000E+00 0.  1.
        -11    1    4    4    0    0 -0.33561512294E-01  0.63446748235E-01 -0.85469460629E-01  0.11161162480E+00  0.51100000000E-03 0.  1.
         11    1    4    4    0    0 -0.79834588256E-02 -0.15231422931E-02 -0.16206818798E-01  0.18137741696E-01  0.51100000000E-03 0. -1.
</event>
<event>
 8    1  0.1086486E+005  0.1043930E+01  0.7957747E-01            NaN
         13   -1    0    0    0    0  0.00000000000E+00  0.00000000000E+00  0.74505805969E-08  0.10566000000E+00  0.10566000000E+00 0.  1.
     999900   -1    0    0    0    0 -0.00000000000E+00 -0.00000000000E+00 -0.74505805969E-08  0.93827000000E+00  0.93827000000E+00 0. -1.
     999902    2    1    2    0    0  0.15654099480E-01 -0.12951108466E-01  0.12280014954E-01  0.10201901430E+01  0.10199138920E+01 0.  0.
     999903    2    3    3    0    0  0.38811099839E-01  0.95135998552E-01  0.78522456764E-01  0.13080432661E+00  0.19668145657E-01 0.  0.
         14    1    1    2    0    0 -0.15654099480E-01  0.12951108466E-01 -0.12280014954E-01  0.23739856956E-01  0.00000000000E+00 0. -1.
     999901    1    3    3    0    0 -0.23157000359E-01 -0.10808710702E+00 -0.66242441809E-01  0.88938581643E+00  0.88000000000E+00 0.  1.
        -11    1    4    4    0    0  0.17116601267E-01  0.26081771788E-01  0.15545979756E-01  0.34859366978E-01  0.51100000000E-03 0.  1.
         11    1    4    4    0    0  0.21694498572E-01  0.69054226764E-01  0.62976477008E-01  0.95944959636E-01  0.51100000000E-03 0. -1.
</event>
<event>
 8    1  0.1086486E+005  0.1043930E+01  0.7957747E-01            NaN
         13   -1    0    0    0    0  0.00000000000E+00  0.00000000000E+00  0.74505805969E-08  0.10566000000E+00  0.10566000000E+00 0. -1.
     999900   -1    0    0    0    0 -0.00000000000E+00 -0.00000000000E+00 -0.74505805969E-08  0.93827000000E+00  0.93827000000E+00 0.  1.
     999902    2    1    2    0    0 -0.86013898713E-02 -0.19326755790E-01  0.13419476886E-01  0.10188782584E+01  0.10185702311E+01 0.  0.
     999903    2    3    3    0    0 -0.34760720931E-01  0.10964221976E-01 -0.12095889983E+00  0.12777815064E+00  0.19174943278E-01 0.  0.
         14    1    1    2    0    0  0.86013898713E-02  0.19326755790E-01 -0.13419476886E-01  0.25051741596E-01  0.00000000000E+00 0.  1.
     999901    1    3    3    0    0  0.26159331060E-01 -0.30290977766E-01  0.13437837671E+00  0.89110010777E+00  0.88000000000E+00 0. -1.
        -11    1    4    4    0    0 -0.56518484250E-02 -0.35742503807E-02 -0.92470331210E-02  0.11423108112E-01  0.51100000000E-03 0.  1.
         11    1    4    4    0    0 -0.29108872506E-01  0.14538472357E-01 -0.11171186671E+00  0.11635504252E+00  0.51100000000E-03 0. -1.
</event>
<event>
 8    1  0.1086486E+005  0.1043930E+01  0.7957747E-01            NaN
         13   -1    0    0    0    0  0.00000000000E+00  0.00000000000E+00  0.74505805969E-08  0.10566000000E+00  0.10566000000E+00 0.  1.
     999900   -1    0    0    0    0 -0.00000000000E+00 -0.00000000000E+00 -0.74505805969E-08  0.93827000000E+00  0.93827000000E+00 0.  1.
     999902    2    1    2    0    0  0.12931150216E-01  0.17349968514E-01  0.15344356096E-02  0.10222369010E+01  0.10220066982E+01 0.  0.
     999903    2    3    3    0    0  0.11041458023E+00  0.72319848575E-01 -0.17788611922E-01  0.13493870587E+00  0.21690541793E-01 0.  0.
         14    1    1    2    0    0 -0.12931150216E-01 -0.17349968514E-01 -0.15344356096E-02  0.21693099041E-01  0.00000000000E+00 0. -1.
     999901    1    3    3    0    0 -0.97483430012E-01 -0.54969880061E-01  0.19323047531E-01  0.88729819509E+00  0.88000000000E+00 0. -1.
        -11    1    4    4    0    0  0.37073813389E-01  0.36911698292E-01 -0.71115803973E-02  0.52799401576E-01  0.51100000000E-03 0. -1.
         11    1    4    4    0    0  0.73340766839E-01  0.35408150283E-01 -0.10677031524E-01  0.82139304296E-01  0.51100000000E-03 0.  1.
</event>
<event>
 8    1  0.1086486E+005  0.1043930E+01  0.7957747E-01            NaN
         13   -1    0    0    0    0  0.00000000000E+00  0.00000000000E+00  0.74505805969E-08  0.10566000000E+00  0.10566000000E+00 0. -1.
     999900   -1    0    0    0    0 -0.00000000000E+00 -0.00000000000E+00 -0.74505805969E-08  0.93827000000E+00  0.93827000000E+00 0.  1.
     999902    2    1    2    0    0 -0.18892941176E-01  0.11087142403E-01  0.93304907303E-02  0.10201197919E+01  0.10198418818E+01 0.  0.
     999903    2    3    3    0    0  0.65273350525E-01 -0.63575970528E-01 -0.86875670955E-01  0.12775542089E+00  0.21715226103E-01 0.  0.
         14    1    1    2    0    0  0.18892941176E-01 -0.11087142403E-01 -0.93304907303E-02  0.23810208109E-01  0.00000000000E+00 0.  1.
     999901    1    3    3    0    0 -0.84166291701E-01  0.74663112931E-01  0.96206161685E-01  0.89236437100E+00  0.88000000000E+00 0. -1.
        -11    1    4    4    0    0  0.43245019954E-01 -0.48117662557E-01 -0.48391014107E-01  0.80792280374E-01  0.51100000000E-03 0. -1.
         11    1    4    4    0    0  0.22028330571E-01 -0.15458307971E-01 -0.38484656849E-01  0.46963140513E-01  0.51100000000E-03 0.  1.
</event>
<event>
 8    1  0.1086486E+005  0.1043930E+01  0.7957747E-01            NaN
         13   -1    0    0    0    0  0.00000000000E+00  0.00000000000E+00  0.74505805969E-08  0.10566000000E+00  0.10566000000E+00 0.  1.
     999900   -1    0    0    0    0 -0.00000000000E+00 -0.00000000000E+00 -0.74505805969E-08  0.93827000000E+00  0.93827000000E+00 0.  1.
     999902    2    1    2    0    0 -0.15388338428E-01  0.66757520396E-02 -0.11587696742E-01  0.10235427162E+01  0.10233396555E+01 0.  0.
     999903    2    3    3    0    0 -0.11495977834E+00  0.11735829153E-01  0.65976446086E-01  0.13452287825E+00  0.19749253465E-01 0.  0.
         14    1    1    2    0    0  0.15388338428E-01 -0.66757520396E-02  0.11587696742E-01  0.20387283798E-01  0.00000000000E+00 0.  1.
     999901    1    3    3    0    0  0.99571439908E-01 -0.50600771139E-02 -0.77564142828E-01  0.88901983796E+00  0.88000000000E+00 0.  1.
        -11    1    4    4    0    0 -0.98988054482E-01  0.92146621403E-02  0.48194509800E-01  0.11048310651E+00  0.51100000000E-03 0.  1.
         11    1    4    4    0    0 -0.15971723855E-01  0.25211670132E-02  0.17781936287E-01  0.24039771735E-01  0.51100000000E-03 0. -1.
</event>
<event>
 8    1  0.1086486E+005  0.1043930E+01  0.7957747E-01            NaN
         13   -1    0    0    0    0  0.00000000000E+00  0.00000000000E+00  0.74505805969E-08  0.10566000000E+00  0.10566000000E+00 0. -1.
     999900   -1    0    0    0    0 -0.00000000000E+00 -0.00000000000E+00 -0.74505805969E-08  0.93827000000E+00  0.93827000000E+00 0. -1.
     999902    2    1    2    0    0  0.21672556670E-01 -0.35243337909E-02 -0.87808947603E-02  0.10202820666E+01  0.10200079758E+01 0.  0.
     999903    2    3    3    0    0 -0.87405851629E-01  0.18144057202E-01 -0.91625531397E-01  0.12942245244E+00  0.19645444276E-01 0.  0.
         14    1    1    2    0    0 -0.21672556670E-01  0.35243337909E-02  0.87808947603E-02  0.23647933399E-01  0.00000000000E+00 0. -1.
     999901    1    3    3    0    0  0.10907840830E+00 -0.21668390993E-01  0.82844636637E-01  0.89085961416E+00  0.88000000000E+00 0.  1.
        -11    1    4    4    0    0 -0.64766537477E-01  0.52104947769E-02 -0.60120794556E-01  0.88524712322E-01  0.51100000000E-03 0. -1.
         11    1    4    4    0    0 -0.22639314152E-01  0.12933562425E-01 -0.31504736841E-01  0.40897740117E-01  0.51100000000E-03 0.  1.
</event>
<event>
 8    1  0.1086486E+005  0.1043930E+01  0.7957747E-01            NaN
         13   -1    0    0    0    0  0.00000000000E+00  0.00000000000E+00  0.74505805969E-08  0.10566000000E+00  0.10566000000E+00 0. -1.
     999900   -1    0    0    0    0 -0.00000000000E+00 -0.00000000000E+00 -0.74505805969E-08  0.93827000000E+00  0.93827000000E+00 0.  1.
     999902    2    1    2    0    0  0.43637536338E-03  0.15409836063E-01  0.17710918703E-01  0.10204495802E+01  0.10201794037E+01 0.  0.
     999903    2    3    3    0    0  0.11005078675E+00  0.28120227602E-01 -0.60623800360E-01  0.13010515169E+00  0.18713162768E-01 0.  0.
         14    1    1    2    0    0 -0.43637536338E-03 -0.15409836063E-01 -0.17710918703E-01  0.23480419763E-01  0.00000000000E+00 0.  1.
     999901    1    3    3    0    0 -0.10961441139E+00 -0.12710391539E-01  0.78334719062E-01  0.89034442855E+00  0.88000000000E+00 0. -1.
        -11    1    4    4    0    0  0.60201046770E-01  0.20705689167E-01 -0.25053554549E-01  0.68416615764E-01  0.51100000000E-03 0. -1.
         11    1    4    4    0    0  0.49849739982E-01  0.74145384354E-02 -0.35570245811E-01  0.61688535924E-01  0.51100000000E-03 0.  1.
</event>
<event>
 8    1  0.1086486E+005  0.1043930E+01  0.7957747E-01            NaN
         13   -1    0    0    0    0  0.00000000000E+00  0.00000000000E+00  0.74505805969E-08  0.10566000000E+00  0.10566000000E+00 0.  1.
     999900   -1    0    0    0    0 -0.00000000000E+00 -0.00000000000E+00 -0.74505805969E-08  0.93827000000E+00  0.93827000000E+00 0.  1.
     999902    2    1    2    0    0  0.21213092696E-01  0.11214365377E-01 -0.29310011891E-02  0.10197567077E+01  0.10194701540E+01 0.  0.
     999903    2    3    3    0    0  0.12222157067E+00  0.54492213191E-02  0.46927714359E-01  0.13255783427E+00  0.20039029423E-01 0.  0.
         14    1    1    2    0    0 -0.21213092696E-01 -0.11214365377E-01  0.29310011891E-02  0.24173292298E-01  0.00000000000E+00 0.  1.
     999901    1    3    3    0    0 -0.10100847797E+00  0.57651440577E-02 -0.49858715548E-01  0.88719887344E+00  0.88000000000E+00 0.  1.
        -11    1    4    4    0    0  0.72586499816E-01  0.82721404207E-02  0.36863284942E-01  0.81831480252E-01  0.51100000000E-03 0.  1.
         11    1    4    4    0    0  0.49635070856E-01 -0.28229191016E-02  0.10064429417E-01  0.50726354014E-01  0.51100000000E-03 0. -1.
</event>
<event>
 8    1  0.1086486E+005  0.1043930E+01  0.7957747E-01            NaN
         13   -1    0    0    0    0  0.00000000000E+00  0.00000000000E+00  0.74505805969E-08  0.10566000000E+00  0.10566000000E+00 0. -1.
     999900   -1    0    0    0    0 -0.00000000000E+00 -0.00000000000E+00 -0.74505805969E-08  0.93827000000E+00  0.93827000000E+00 0. -1.
     999902    2    1    2    0    0 -0.12874175218E-01  0.70961340579E-02 -0.19725653556E-01  0.10193291684E+01  0.10190322628E+01 0.  0.
     999903    2    3    3    0    0 -0.53889362221E-01 -0.74758028861E-01 -0.91668437339E-01  0.13165912066E+00  0.20933117535E-01 0.  0.
         14    1    1    2    0    0  0.12874175218E-01 -0.70961340579E-02  0.19725653556E-01  0.24600831578E-01  0.00000000000E+00 0.  1.
     999901    1    3    3    0    0  0.41015187003E-01  0.81854162919E-01  0.71942783783E-01  0.88767004776E+00  0.88000000000E+00 0.  1.
        -11    1    4    4    0    0 -0.26009663083E-01 -0.43094195816E-01 -0.63039899198E-01  0.80671570573E-01  0.51100000000E-03 0. -1.
         11    1    4    4    0    0 -0.27879699138E-01 -0.31663833044E-01 -0.28628538140E-01  0.50987550089E-01  0.51100000000E-03 0.  1.
</event>
<event>
 8    1  0.1086486E+005  0.1043930E+01  0.7957747E-01            NaN
         13   -1    0    0    0    0  0.00000000000E+00  0.00000000000E+00  0.74505805969E-08  0.10566000000E+00  0.10566000000E+00 0.  1.
     999900   -1    0    0    0    0 -0.00000000000E+00 -0.00000000000E+00 -0.74505805969E-08  0.93827000000E+00  0.93827000000E+00 0. -1.
     999902    2    1    2    0    0 -0.66643039953E-02 -0.15426909715E-01 -0.18221775228E-01  0.10191421888E+01  0.10188406968E+01 0.  0.
     999903    2    3    3    0    0 -0.11117759001E+00  0.61957413601E-01 -0.14152959085E-01  0.12957604978E+00  0.19760283499E-01 0.  0.
         14    1    1    2    0    0  0.66643039953E-02  0.15426909715E-01  0.18221775228E-01  0.24787811189E-01  0.00000000000E+00 0.  1.
     999901    1    3    3    0    0  0.10451328602E+00 -0.77384323316E-01 -0.40688161434E-02  0.88956613903E+00  0.88000000000E+00 0. -1.
        -11    1    4    4    0    0 -0.21117925534E-01  0.95702358949E-02 -0.10136244791E-01  0.25309302112E-01  0.51100000000E-03 0. -1.
         11    1    4    4    0    0 -0.90059664479E-01  0.52387177706E-01 -0.40167142940E-02  0.10426674767E+00  0.51100000000E-03 0.  1.
</event>
<event>
 8    1  0.1086486E+005  0.1043930E+01  0.7957747E-01            NaN
         13   -1    0    0    0    0  0.00000000000E+00  0.00000000000E+00  0.74505805969E-08  0.10566000000E+00  0.10566000000E+00 0. -1.
     999900   -1    0    0    0    0 -0.00000000000E+00 -0.00000000000E+00 -0.74505805969E-08  0.93827000000E+00  0.93827000000E+00 0.  1.
     999902    2    1    2    0    0  0.36669124827E-02  0.21171909459E-01  0.88156323153E-02  0.10207047687E+01  0.10204404997E+01 0.  0.
     999903    2    3    3    0    0  0.11583579664E+00  0.42357244746E-01  0.44598567411E-01  0.13261068838E+00  0.19608531060E-01 0.  0.
         14    1    1    2    0    0 -0.36669124827E-02 -0.21171909459E-01 -0.88156323153E-02  0.23225231331E-01  0.00000000000E+00 0.  1.
     999901    1    3    3    0    0 -0.11216888416E+00 -0.21185335287E-01 -0.35782935095E-01  0.88809408029E+00  0.88000000000E+00 0. -1.
        -11    1    4    4    0    0  0.58745991428E-01  0.11078966933E-01  0.21865507134E-01  0.63656865618E-01  0.51100000000E-03 0. -1.
         11    1    4    4    0    0  0.57089805215E-01  0.31278277813E-01  0.22733060276E-01  0.68953822759E-01  0.51100000000E-03 0.  1.
</event>
<event>
 8    1  0.1086486E+005  0.1043930E+01  0.7957747E-01            NaN
         13   -1    0    0    0    0  0.00000000000E+00  0.00000000000E+00  0.74505805969E-08  0.10566000000E+00  0.10566000000E+00 0. -1.
     999900   -1    0    0    0    0 -0.00000000000E+00 -0.00000000000E+00 -0.74505805969E-08  0.93827000000E+00  0.93827000000E+00 0. -1.
     999902    2    1    2    0    0  0.16930703105E-01 -0.15216956848E-02  0.16383005976E-01  0.10203213755E+01  0.10200482058E+01 0.  0.
     999903    2    3    3    0    0  0.16460287843E-02  0.61762054893E-02  0.13089427135E+00  0.13273717734E+00  0.21094858396E-01 0.  0.
         14    1    1    2    0    0 -0.16930703105E-01  0.15216956848E-02 -0.16383005976E-01  0.23608624487E-01  0.00000000000E+00 0.  1.
     999901    1    3    3    0    0  0.15284674320E-01 -0.76979011740E-02 -0.11451126537E+00  0.88758419817E+00  0.88000000000E+00 0. -1.
        -11    1    4    4    0    0 -0.18578732449E-02 -0.58503311534E-02  0.15737040956E-01  0.16899516166E-01  0.51100000000E-03 0. -1.
         11    1    4    4    0    0  0.35039020292E-02  0.12026536643E-01  0.11515723039E+00  0.11583766117E+00  0.51100000000E-03 0.  1.
</event>
<event>
 8    1  0.1086486E+005  0.1043930E+01  0.7957747E-01            NaN
         13   -1    0    0    0    0  0.00000000000E+00  0.00000000000E+00  0.74505805969E-08  0.10566000000E+00  0.10566000000E+00 0.  1.
     999900   -1    0    0    0    0 -0.00000000000E+00 -0.00000000000E+00 -0.74505805969E-08  0.93827000000E+00  0.93827000000E+00 0. -1.
     999902    2    1    2    0    0 -0.60244521048E-02  0.27508620508E-02  0.17753523725E-01  0.10249814151E+01  0.10248062512E+01 0.  0.
     999903    2    3    3    0    0  0.81820300075E-02  0.63795914258E-01  0.11920869703E+00  0.13693779301E+00  0.20109237075E-01 0.  0.
         14    1    1    2    0    0  0.60244521048E-02 -0.27508620508E-02 -0.17753523725E-01  0.18948584904E-01  0.00000000000E+00 0. -1.
     999901    1    3    3    0    0 -0.14206482112E-01 -0.61045052207E-01 -0.10145517331E+00  0.88804362208E+00  0.88000000000E+00 0. -1.
        -11    1    4    4    0    0 -0.20627127573E-02  0.32812894850E-01  0.43795995575E-01  0.54765784955E-01  0.51100000000E-03 0.  1.
         11    1    4    4    0    0  0.10244742765E-01  0.30983019408E-01  0.75412701458E-01  0.82172008057E-01  0.51100000000E-03 0. -1.
</event>
<event>
 8    1  0.1086486E+005  0.1043930E+01  0.7957747E-01            NaN
         13   -1    0    0    0    0  0.00000000000E+00  0.00000000000E+00  0.74505805969E-08  0.10566000000E+00  0.10566000000E+00 0. -1.
     999900   -1    0    0    0    0 -0.00000000000E+00 -0.00000000000E+00 -0.74505805969E-08  0.93827000000E+00  0.93827000000E+00 0. -1.
     999902    2    1    2    0    0 -0.12063959775E-01  0.18733474071E-01  0.64027131817E-02  0.10207464517E+01  0.10204831413E+01 0.  0.
     999903    2    3    3    0    0  0.54992291284E-01 -0.88693301315E-01  0.73133259745E-01  0.12918040325E+00  0.21176616947E-01 0.  0.
         14    1    1    2    0    0  0.12063959775E-01 -0.18733474071E-01 -0.64027131817E-02  0.23183548312E-01  0.00000000000E+00 0. -1.
     999901    1    3    3    0    0 -0.67056251058E-01  0.10742677539E+00 -0.66730546563E-01  0.89156604843E+00  0.88000000000E+00 0. -1.
        -11    1    4    4    0    0  0.41460181419E-01 -0.61327935408E-01  0.40078648907E-01  0.84182073650E-01  0.51100000000E-03 0.  1.
         11    1    4    4    0    0  0.13532109864E-01 -0.27365365906E-01  0.33054610837E-01  0.44998329604E-01  0.51100000000E-03 0. -1.
</event>
<event>
 8    1  0.1086486E+005  0.1043930E+01  0.7957747E-01            NaN
         13   -1    0    0    0    0  0.00000000000E+00  0.00000000000E+00  0.74505805969E-08  0.10566000000E+00  0.10566000000E+00 0. -1.
     999900   -1    0    0    0    0 -0.00000000000E+00 -0.00000000000E+00 -0.74505805969E-08  0.93827000000E+00  0.93827000000E+00 0.  1.
     999902    2    1    2    0    0  0.10354575456E-01  0.96528147074E-02 -0.21599446170E-01  0.10181050094E+01  0.10177774217E+01 0.  0.
     999903    2    3    3    0    0 -0.60364474605E-01 -0.79957712146E-01  0.73228271501E-01  0.12567936734E+00  0.19895177869E-01 0.  0.
         14    1    1    2    0    0 -0.10354575456E-01 -0.96528147074E-02  0.21599446170E-01  0.25824990600E-01  0.00000000000E+00 0. -1.
     999901    1    3    3    0    0  0.70719050061E-01  0.89610526853E-01 -0.94827717671E-01  0.89242564206E+00  0.88000000000E+00 0.  1.
        -11    1    4    4    0    0 -0.31897954570E-01 -0.29414689777E-01  0.38875930812E-01  0.58260643645E-01  0.51100000000E-03 0.  1.
         11    1    4    4    0    0 -0.28466520035E-01 -0.50543022369E-01  0.34352340689E-01  0.67418723697E-01  0.51100000000E-03 0. -1.
</event>
<event>
 8    1  0.1086486E+005  0.1043930E+01  0.7957747E-01            NaN
         13   -1    0    0    0    0  0.00000000000E+00  0.00000000000E+00  0.74505805969E-08  0.10566000000E+00  0.10566000000E+00 0.  1.
     999900   -1    0    0    0    0 -0.00000000000E+00 -0.00000000000E+00 -0.74505805969E-08  0.93827000000E+00  0.93827000000E+00 0. -1.
     999902    2    1    2    0    0 -0.42356270245E-02 -0.16345153831E-01  0.16902436625E-01  0.10200386427E+01  0.10197588125E+01 0.  0.
     999903    2    3    3    0    0 -0.16927602333E-01  0.12556022585E+00 -0.88573517632E-03  0.12840270686E+00  0.20846020375E-01 0.  0.
         14    1    1    2    0    0  0.42356270245E-02  0.16345153831E-01 -0.16902436625E-01  0.23891357306E-01  0.00000000000E+00 0. -1.
     999901    1    3    3    0    0  0.12691975308E-01 -0.14190537968E+00  0.17788171801E-01  0.89163593584E+00  0.88000000000E+00 0. -1.
        -11    1    4    4    0    0 -0.62483489766E-02  0.31374474382E-01  0.86230296757E-02  0.33136343634E-01  0.51100000000E-03 0. -1.
         11    1    4    4    0    0 -0.10679253356E-01  0.94185751468E-01 -0.95087648520E-02  0.95266363223E-01  0.51100000000E-03 0.  1.
</event>
<event>
 8    1  0.1086486E+005  0.1043930E+01  0.7957747E-01            NaN
         13   -1    0    0    0    0  0.00000000000E+00  0.00000000000E+00  0.74505805969E-08  0.10566000000E+00  0.10566000000E+00 0.  1.
     999900   -1    0    0    0    0 -0.00000000000E+00 -0.00000000000E+00 -0.74505805969E-08  0.93827000000E+00  0.93827000000E+00 0.  1.
     999902    2    1    2    0    0  0.12054535354E-01  0.12248058300E-01 -0.16137784534E-01  0.10203555468E+01  0.10200831765E+01 0.  0.
     999903    2    3    3    0    0 -0.99064712803E-01 -0.31382493224E-01 -0.76045026915E-01  0.13027690418E+00  0.19762273143E-01 0.  0.
         14    1    1    2    0    0 -0.12054535354E-01 -0.12248058300E-01  0.16137784534E-01  0.23574453215E-01  0.00000000000E+00 0.  1.
     999901    1    3    3    0    0  0.11111924816E+00  0.43630551524E-01  0.59907242381E-01  0.89007864261E+00  0.88000000000E+00 0. -1.
        -11    1    4    4    0    0 -0.62298822110E-01 -0.26457685273E-01 -0.57447551803E-01  0.88778571038E-01  0.51100000000E-03 0.  1.
         11    1    4    4    0    0 -0.36765890694E-01 -0.49248079501E-02 -0.18597475112E-01  0.41498333140E-01  0.51100000000E-03 0. -1.
</event>
<event>
 8    1  0.1086486E+005  0.1043930E+01  0.7957747E-01            NaN
         13   -1    0    0    0    0  0.00000000000E+00  0.00000000000E+00  0.74505805969E-08  0.10566000000E+00  0.10566000000E+00 0.  1.
     999900   -1    0    0    0    0 -0.00000000000E+00 -0.00000000000E+00 -0.74505805969E-08  0.93827000000E+00  0.93827000000E+00 0.  1.
     999902    2    1    2    0    0 -0.17020101885E-01 -0.13164455578E-01 -0.62361666161E-03  0.10224038379E+01  0.10221772019E+01 0.  0.
     999903    2    3    3    0    0  0.50473491918E-02 -0.46204557601E-01  0.12310345816E+00  0.13286069119E+00  0.18362052634E-01 0.  0.
         14    1    1    2    0    0  0.17020101885E-01  0.13164455578E-01  0.62361666161E-03  0.21526162142E-01  0.00000000000E+00 0.  1.
     999901    1    3    3    0    0 -0.22067451077E-01  0.33040102023E-01 -0.12372707482E+00  0.88954314667E+00  0.88000000000E+00 0.  1.
        -11    1    4    4    0    0  0.11341390884E-01 -0.35613689114E-01  0.86327608872E-01  0.94072733425E-01  0.51100000000E-03 0. -1.
         11    1    4    4    0    0 -0.62940416927E-02 -0.10590868487E-01  0.36775849283E-01  0.38787957766E-01  0.51100000000E-03 0.  1.
</event>
<event>
 8    1  0.1086486E+005  0.1043930E+01  0.7957747E-01            NaN
         13   -1    0    0    0    0  0.00000000000E+00  0.00000000000E+00  0.74505805969E-08  0.10566000000E+00  0.10566000000E+00 0. -1.
     999900   -1    0    0    0    0 -0.00000000000E+00 -0.00000000000E+00 -0.74505805969E-08  0.93827000000E+00  0.93827000000E+00 0. -1.
     999902    2    1    2    0    0 -0.85658763843E-02 -0.21738220998E-01  0.35086907257E-02  0.10203029942E+01  0.10200293940E+01 0.  0.
     999903    2    3    3    0    0  0.12027319810E+00  0.29156226240E-01  0.30934693293E-01  0.12904436876E+00  0.19487589663E-01 0.  0.
         14    1    1    2    0    0  0.85658763843E-02  0.21738220998E-01 -0.35086907257E-02  0.23627005756E-01  0.00000000000E+00 0.  1.
     999901    1    3    3    0    0 -0.12883907448E+00 -0.50894447238E-01 -0.27426002567E-01  0.89125862548E+00  0.88000000000E+00 0. -1.
        -11    1    4    4    0    0  0.84484643736E-01  0.15572062172E-01  0.29147952920E-01  0.90719393891E-01  0.51100000000E-03 0. -1.
         11    1    4    4    0    0  0.35788554365E-01  0.13584164069E-01  0.17867403733E-02  0.38324974874E-01  0.51100000000E-03 0.  1.
</event>
<event>
 8    1  0.1086486E+005  0.1043930E+01  0.7957747E-01            NaN
         13   -1    0    0    0    0  0.00000000000E+00  0.00000000000E+00  0.74505805969E-08  0.10566000000E+00  0.10566000000E+00 0.  1.
     999900   -1    0    0    0    0 -0.00000000000E+00 -0.00000000000E+00 -0.74505805969E-08  0.93827000000E+00  0.93827000000E+00 0.  1.
     999902    2    1    2    0    0 -0.10775435481E-01  0.94613925514E-02  0.19639800145E-01  0.10196123170E+01  0.10193222882E+01 0.  0.
     999903    2    3    3    0    0 -0.39428045542E-01  0.12126058371E+00  0.28334117743E-01  0.13203380079E+00  0.19271802823E-01 0.  0.
         14    1    1    2    0    0  0.10775435481E-01 -0.94613925514E-02 -0.19639800145E-01  0.24317683042E-01  0.00000000000E+00 0.  1.
     999901    1    3    3    0    0  0.28652610061E-01 -0.11179919116E+00 -0.86943175988E-02  0.88757851617E+00  0.88000000000E+00 0. -1.
        -11    1    4    4    0    0 -0.24161097073E-01  0.48232840153E-01  0.17040199406E-01  0.56575568913E-01  0.51100000000E-03 0.  1.
         11    1    4    4    0    0 -0.15266948468E-01  0.73027743562E-01  0.11293918337E-01  0.75458231875E-01  0.51100000000E-03 0. -1.
</event>
<event>
 8    1  0.1086486E+005  0.1043930E+01  0.7957747E-01            NaN
         13   -1    0    0    0    0  0.00000000000E+00  0.00000000000E+00  0.74505805969E-08  0.10566000000E+00  0.10566000000E+00 0. -1.
     999900   -1    0    0    0    0 -0.00000000000E+00 -0.00000000000E+00 -0.74505805969E-08  0.93827000000E+00  0.93827000000E+00 0. -1.
     999902    2    1    2    0    0  0.18456250958E-01 -0.17842248541E-01 -0.11870087371E-02  0.10182319841E+01  0.10179076507E+01 0.  0.
     999903    2    3    3    0    0 -0.16705752338E-01  0.10688062134E+00 -0.62870418814E-01  0.12660593925E+00  0.19334552291E-01 0.  0.
         14    1    1    2    0    0 -0.18456250958E-01  0.17842248541E-01  0.11870087371E-02  0.25698015918E-01  0.00000000000E+00 0. -1.
     999901    1    3    3    0    0  0.35162003295E-01 -0.12472286988E+00  0.61683410076E-01  0.89162604483E+00  0.88000000000E+00 0.  1.
        -11    1    4    4    0    0 -0.98573007904E-02  0.74335182004E-01 -0.33104355882E-01  0.81969782004E-01  0.51100000000E-03 0. -1.
         11    1    4    4    0    0 -0.68484515473E-02  0.32545439334E-01 -0.29766062932E-01  0.44636157244E-01  0.51100000000E-03 0.  1.
</event>
<event>
 8    1  0.1086486E+005  0.1043930E+01  0.7957747E-01            NaN
         13   -1    0    0    0    0  0.00000000000E+00  0.00000000000E+00  0.74505805969E-08  0.10566000000E+00  0.10566000000E+00 0.  1.
     999900   -1    0    0    0    0 -0.00000000000E+00 -0.00000000000E+00 -0.74505805969E-08  0.93827000000E+00  0.93827000000E+00 0.  1.
     999902    2    1    2    0    0 -0.14286072507E-01  0.73872437852E-02  0.17697750831E-01  0.10200161207E+01  0.10197357564E+01 0.  0.
     999903    2    3    3    0    0  0.10472452720E+00  0.62329637221E-01  0.41025048606E-01  0.13000131619E+00  0.19106996745E-01 0.  0.
         14    1    1    2    0    0  0.14286072507E-01 -0.73872437852E-02 -0.17697750831E-01  0.23913879295E-01  0.00000000000E+00 0. -1.
     999901    1    3    3    0    0 -0.11901059970E+00 -0.54942393436E-01 -0.23327297775E-01  0.89001480452E+00  0.88000000000E+00 0. -1.
        -11    1    4    4    0    0  0.46205945743E-01  0.19693412756E-01  0.99352595072E-02  0.51203422059E-01  0.51100000000E-03 0. -1.
         11    1    4    4    0    0  0.58518581454E-01  0.42636224464E-01  0.31089789099E-01  0.78797894129E-01  0.51100000000E-03 0.  1.
</event>
<event>
 8    1  0.1086486E+005  0.1043930E+01  0.7957747E-01            NaN
         13   -1    0    0    0    0  0.00000000000E+00  0.00000000000E+00  0.74505805969E-08  0.10566000000E+00  0.10566000000E+00 0.  1.
     999900   -1    0    0    0    0 -0.00000000000E+00 -0.00000000000E+00 -0.74505805969E-08  0.93827000000E+00  0.93827000000E+00 0.  1.
     999902    2    1    2    0    0  0.66667846907E-02  0.65475678679E-02  0.22007369920E-01  0.10200209851E+01  0.10197407362E+01 0.  0.
     999903    2    3    3    0    0  0.43127149972E-01 -0.11866819639E+00  0.25762008065E-01  0.13040171644E+00  0.19970846054E-01 0.  0.
         14    1    1    2    0    0 -0.66667846907E-02 -0.65475678679E-02 -0.22007369920E-01  0.23909014908E-01  0.00000000000E+00 0. -1.
     999901    1    3    3    0    0 -0.36460365282E-01  0.12521576425E+00 -0.37546381450E-02  0.88961926865E+00  0.88000000000E+00 0. -1.
        -11    1    4    4    0    0  0.25909394595E-01 -0.86814553479E-01  0.10882085387E-01  0.91250996310E-01  0.51100000000E-03 0. -1.
         11    1    4    4    0    0  0.17217755377E-01 -0.31853642906E-01  0.14879922677E-01  0.39150720128E-01  0.51100000000E-03 0.  1.
</event>
<event>
 8    1  0.1086486E+005  0.1043930E+01  0.7957747E-01            NaN
         13   -1    0    0    0    0  0.00000000000E+00  0.00000000000E+00  0.74505805969E-08  0.10566000000E+00  0.10566000000E+00 0.  1.
     999900   -1    0    0    0    0 -0.00000000000E+00 -0.00000000000E+00 -0.74505805969E-08  0.93827000000E+00  0.93827000000E+00 0.  1.
     999902    2    1    2    0    0 -0.74629559228E-02  0.11475503512E-01  0.19918124563E-01  0.10197615375E+01  0.10194750997E+01 0.  0.
     999903    2    3    3    0    0  0.77674533158E-01 -0.70376379576E-01 -0.69525177316E-01  0.12737808460E+00  0.20131027110E-01 0.  0.
         14    1    1    2    0    0  0.74629559228E-02 -0.11475503512E-01 -0.19918124563E-01  0.24168462468E-01  0.00000000000E+00 0.  1.
     999901    1    3    3    0    0 -0.85137489081E-01  0.81851883088E-01  0.89443301879E-01  0.89238345293E+00  0.88000000000E+00 0.  1.
        -11    1    4    4    0    0  0.29892979243E-01 -0.25088000792E-01 -0.37660313397E-01  0.54236134799E-01  0.51100000000E-03 0.  1.
         11    1    4    4    0    0  0.47781553915E-01 -0.45288378784E-01 -0.31864863919E-01  0.73141949803E-01  0.51100000000E-03 0. -1.
</event>
<event>
 8    1  0.1086486E+005  0.1043930E+01  0.7957747E-01            NaN
         13   -1    0    0    0    0  0.00000000000E+00  0.00000000000E+00  0.74505805969E-08  0.10566000000E+00  0.10566000000E+00 0. -1.
     999900   -1    0    0    0    0 -0.00000000000E+00 -0.00000000000E+00 -0.74505805969E-08  0.93827000000E+00  0.93827000000E+00 0.  1.
     999902    2    1    2    0    0 -0.50873317827E-02 -0.19845010307E-01  0.14587484428E-01  0.10187804457E+01  0.10184699782E+01 0.  0.
     999903    2    3    3    0    0  0.23624485636E-01 -0.11365586368E+00 -0.55754610139E-01  0.13053900616E+00  0.21356121070E-01 0.  0.
         14    1    1    2    0    0  0.50873317827E-02  0.19845010307E-01 -0.14587484428E-01  0.25149554284E-01  0.00000000000E+00 0.  1.
     999901    1    3    3    0    0 -0.28711817419E-01  0.93810853376E-01  0.70342094567E-01  0.88824143955E+00  0.88000000000E+00 0. -1.
        -11    1    4    4    0    0  0.27174265938E-01 -0.98901498236E-01 -0.45439601585E-01  0.11218273306E+00  0.51100000000E-03 0.  1.
         11    1    4    4    0    0 -0.35497803014E-02 -0.14754365447E-01 -0.10315008554E-01  0.18356273108E-01  0.51100000000E-03 0. -1.
</event>
<event>
 8    1  0.1086486E+005  0.1043930E+01  0.7957747E-01            NaN
         13   -1    0    0    0    0  0.00000000000E+00  0.00000000000E+00  0.74505805969E-08  0.10566000000E+00  0.10566000000E+00 0.  1.
     999900   -1    0    0    0    0 -0.00000000000E+00 -0.00000000000E+00 -0.74505805969E-08  0.93827000000E+00  0.93827000000E+00 0.  1.
     999902    2    1    2    0    0  0.22492362053E-01  0.66931530139E-02  0.23123763139E-02  0.10203492508E+01  0.10200767333E+01 0.  0.
     999903    2    3    3    0    0  0.12627548377E+00 -0.13624334420E-01  0.35597514168E-01  0.13339286121E+00  0.19883463460E-01 0.  0.
         14    1    1    2    0    0 -0.22492362053E-01 -0.66931530139E-02 -0.23123763139E-02  0.23580749187E-01  0.00000000000E+00 0. -1.
     999901    1    3    3    0    0 -0.10378312171E+00  0.20317487434E-01 -0.33285137854E-01  0.88695638960E+00  0.88000000000E+00 0.  1.
        -11    1    4    4    0    0  0.92985283253E-01 -0.57556237892E-02  0.33895992263E-01  0.99139243084E-01  0.51100000000E-03 0. -1.
         11    1    4    4    0    0  0.33290200514E-01 -0.78687106308E-02  0.17015219057E-02  0.34253618130E-01  0.51100000000E-03 0.  1.
</event>
<event>
 8    1  0.1086486E+005  0.1043930E+01  0.7957747E-01            NaN
         13   -1    0    0    0    0  0.00000000000E+00  0.00000000000E+00  0.74505805969E-08  0.10566000000E+00  0.10566000000E+00 0. -1.
     999900   -1    0    0    0    0 -0.00000000000E+00 -0.00000000000E+00 -0.74505805969E-08  0.93827000000E+00  0.93827000000E+00 0.  1.
     999902    2    1    2    0    0 -0.15367308710E-02  0.19445791781E-01 -0.16087411909E-01  0.10186455150E+01  0.10183316651E+01 0.  0.
     999903    2    3    3    0    0 -0.16051006999E-01  0.76902566453E-01 -0.10451399441E+00  0.13223071049E+00  0.19752119259E-01 0.  0.
         14    1    1    2    0    0  0.15367308710E-02 -0.19445791781E-01  0.16087411909E-01  0.25284484999E-01  0.00000000000E+00 0. -1.
     999901    1    3    3    0    0  0.14514276128E-01 -0.57456774671E-01  0.88426582504E-01  0.88641480451E+00  0.88000000000E+00 0. -1.
        -11    1    4    4    0    0 -0.95738930882E-03  0.34224434245E-01 -0.32760120847E-01  0.47388976910E-01  0.51100000000E-03 0. -1.
         11    1    4    4    0    0 -0.15093617690E-01  0.42678132208E-01 -0.71753873566E-01  0.84841733577E-01  0.51100000000E-03 0.  1.
</event>
<event>
 8    1  0.1086486E+005  0.1043930E+01  0.7957747E-01            NaN
         13   -1    0    0    0    0  0.00000000000E+00  0.00000000000E+00  0.74505805969E-08  0.10566000000E+00  0.10566000000E+00 0.  1.
     999900   -1    0    0    0    0 -0.00000000000E+00 -0.00000000000E+00 -0.74505805969E-08  0.93827000000E+00  0.93827000000E+00 0.  1.
     999902    2    1    2    0    0 -0.72872643739E-02  0.61897143654E-02 -0.23332847492E-01  0.10187141606E+01  0.10184020338E+01 0.  0.
     999903    2    3    3    0    0  0.11672549176E+00 -0.29472120802E-01 -0.42399221160E-01  0.12909938058E+00  0.19378074747E-01 0.  0.
         14    1    1    2    0    0  0.72872643739E-02 -0.61897143654E-02  0.23332847492E-01  0.25215839428E-01  0.00000000000E+00 0.  1.
     999901    1    3    3    0    0 -0.12401275613E+00  0.35661835167E-01  0.19066373668E-01  0.88961477999E+00  0.88000000000E+00 0. -1.
        -11    1    4    4    0    0  0.56807633850E-01 -0.10403703491E-01 -0.10916156506E-01  0.58777273702E-01  0.51100000000E-03 0. -1.
         11    1    4    4    0    0  0.59917857909E-01 -0.19068417310E-01 -0.31483064654E-01  0.70322106881E-01  0.51100000000E-03 0.  1.
</event>
<event>
 8    1  0.1086486E+005  0.1043930E+01  0.7957747E-01            NaN
         13   -1    0    0    0    0  0.00000000000E+00  0.00000000000E+00  0.74505805969E-08  0.10566000000E+00  0.10566000000E+00 0.  1.
     999900   -1    0    0    0    0 -0.00000000000E+00 -0.00000000000E+00 -0.74505805969E-08  0.93827000000E+00  0.93827000000E+00 0. -1.
     999902    2    1    2    0    0  0.14209206592E-02 -0.25332154137E-01 -0.69481917095E-02  0.10176238331E+01  0.10172837614E+01 0.  0.
     999903    2    3    3    0    0 -0.83733947484E-01 -0.63674696840E-01 -0.73985070404E-01  0.13014682199E+00  0.19964059025E-01 0.  0.
         14    1    1    2    0    0 -0.14209206592E-02  0.25332154137E-01  0.69481917095E-02  0.26306166896E-01  0.00000000000E+00 0.  1.
     999901    1    3    3    0    0  0.85154868143E-01  0.38342542703E-01  0.67036878694E-01  0.88747701111E+00  0.88000000000E+00 0.  1.
        -11    1    4    4    0    0 -0.57155152564E-01 -0.52364734021E-01 -0.60137414848E-01  0.98109870142E-01  0.51100000000E-03 0. -1.
         11    1    4    4    0    0 -0.26578794920E-01 -0.11309962819E-01 -0.13847655556E-01  0.32036951849E-01  0.51100000000E-03 0.  1.
</event>
<event>
 8    1  0.1086486E+005  0.1043930E+01  0.7957747E-01            NaN
         13   -1    0    0    0    0  0.00000000000E+00  0.00000000000E+00  0.74505805969E-08  0.10566000000E+00  0.10566000000E+00 0. -1.
     999900   -1    0    0    0    0 -0.00000000000E+00 -0.00000000000E+00 -0.74505805969E-08  0.93827000000E+00  0.93827000000E+00 0. -1.
     999902    2    1    2    0    0 -0.14358857428E-01  0.10640356108E-01  0.15225502831E-01  0.10204521402E+01  0.10201820232E+01 0.  0.
     999903    2    3    3    0    0 -0.10936791415E+00  0.33339069669E-01  0.66200630939E-01  0.13358100178E+00  0.19711070184E-01 0.  0.
         14    1    1    2    0    0  0.14358857428E-01 -0.10640356108E-01 -0.15225502831E-01  0.23477859809E-01  0.00000000000E+00 0.  1.
     999901    1    3    3    0    0  0.95009056726E-01 -0.22698713560E-01 -0.50975128108E-01  0.88687113841E+00  0.88000000000E+00 0. -1.
        -11    1    4    4    0    0 -0.56328923799E-01  0.70354804269E-02  0.30467854340E-01  0.64428230693E-01  0.51100000000E-03 0.  1.
         11    1    4    4    0    0 -0.53038990355E-01  0.26303589242E-01  0.35732776599E-01  0.69152771089E-01  0.51100000000E-03 0. -1.
</event>
<event>
 8    1  0.1086486E+005  0.1043930E+01  0.7957747E-01            NaN
         13   -1    0    0    0    0  0.00000000000E+00  0.00000000000E+00  0.74505805969E-08  0.10566000000E+00  0.10566000000E+00 0.  1.
     999900   -1    0    0    0    0 -0.00000000000E+00 -0.00000000000E+00 -0.74505805969E-08  0.93827000000E+00  0.93827000000E+00 0.  1.
     999902    2    1    2    0    0 -0.28579766740E-02  0.22138692824E-01 -0.10413889029E-01  0.10192979308E+01  0.10190002614E+01 0.  0.
     999903    2    3    3    0    0  0.38414978294E-02 -0.76626101616E-01  0.99255349630E-01  0.12698256639E+00  0.19662939285E-01 0.  0.
         14    1    1    2    0    0  0.28579766740E-02 -0.22138692824E-01  0.10413889029E-01  0.24632069246E-01  0.00000000000E+00 0.  1.
     999901    1    3    3    0    0 -0.66994745033E-02  0.98764794441E-01 -0.10966923866E+00  0.89231536437E+00  0.88000000000E+00 0.  1.
        -11    1    4    4    0    0  0.10797290012E-01 -0.61284383459E-01  0.75168095898E-01  0.97585146870E-01  0.51100000000E-03 0.  1.
         11    1    4    4    0    0 -0.69557921825E-02 -0.15341718157E-01  0.24087253731E-01  0.29397419516E-01  0.51100000000E-03 0. -1.
</event>
<event>
 8    1  0.1086486E+005  0.1043930E+01  0.7957747E-01            NaN
         13   -1    0    0    0    0  0.00000000000E+00  0.00000000000E+00  0.74505805969E-08  0.10566000000E+00  0.10566000000E+00 0.  1.
     999900   -1    0    0    0    0 -0.00000000000E+00 -0.00000000000E+00 -0.74505805969E-08  0.93827000000E+00  0.93827000000E+00 0. -1.
     999902    2    1    2    0    0  0.25924115499E-02  0.36825136836E-02 -0.23919934075E-01  0.10195898120E+01  0.10192992397E+01 0.  0.
     999903    2    3    3    0    0 -0.55270757723E-01 -0.41420095896E-01 -0.11095748821E+00  0.13225789691E+00  0.20251076546E-01 0.  0.
         14    1    1    2    0    0 -0.25924115499E-02 -0.36825136836E-02  0.23919934075E-01  0.24340187978E-01  0.00000000000E+00 0.  1.
     999901    1    3    3    0    0  0.57863169273E-01  0.45102609579E-01  0.87037554135E-01  0.88733191511E+00  0.88000000000E+00 0.  1.
        -11    1    4    4    0    0 -0.32330764333E-01 -0.11696120254E-01 -0.50813073085E-01  0.61353949087E-01  0.51100000000E-03 0. -1.
         11    1    4    4    0    0 -0.22939993391E-01 -0.29723975642E-01 -0.60144415126E-01  0.70903947821E-01  0.51100000000E-03 0.  1.
</event>
<event>
 8    1  0.1086486E+005  0.1043930E+01  0.7957747E-01            NaN
         13   -1    0    0    0    0  0.00000000000E+00  0.00000000000E+00  0.74505805969E-08  0.10566000000E+00  0.10566000000E+00 0. -1.
     999900   -1    0    0    0    0 -0.00000000000E+00 -0.00000000000E+00 -0.74505805969E-08  0.93827000000E+00  0.93827000000E+00 0. -1.
     999902    2    1    2    0    0 -0.67034075895E-02  0.23638757514E-01 -0.43634104115E-02  0.10189747224E+01  0.10186690920E+01 0.  0.
     999903    2    3    3    0    0 -0.51095211745E-01  0.11821718655E+00 -0.26062984493E-01  0.13252868171E+00  0.17278554807E-01 0.  0.
         14    1    1    2    0    0  0.67034075895E-02 -0.23638757514E-01  0.43634104115E-02  0.24955277609E-01  0.00000000000E+00 0.  1.
     999901    1    3    3    0    0  0.44391804155E-01 -0.94578429040E-01  0.21699574081E-01  0.88644604068E+00  0.88000000000E+00 0.  1.
        -11    1    4    4    0    0 -0.49613021819E-01  0.10087844068E+00 -0.20679114134E-01  0.11430572431E+00  0.51100000000E-03 0. -1.
         11    1    4    4    0    0 -0.14821899256E-02  0.17338745871E-01 -0.53838703585E-02  0.18222957399E-01  0.51100000000E-03 0.  1.
</event>
<event>
 8    1  0.1086486E+005  0.1043930E+01  0.7957747E-01            NaN
         13   -1    0    0    0    0  0.00000000000E+00  0.00000000000E+00  0.74505805969E-08  0.10566000000E+00  0.10566000000E+00 0. -1.
     999900   -1    0    0    0    0 -0.00000000000E+00 -0.00000000000E+00 -0.74505805969E-08  0.93827000000E+00  0.93827000000E+00 0. -1.
     999902    2    1    2    0    0  0.20862523408E-01 -0.11658556212E-01 -0.35026504020E-02  0.10197755930E+01  0.10194894922E+01 0.  0.
     999903    2    3    3    0    0 -0.84914736982E-01  0.32118307490E-01  0.87626769171E-01  0.12769386263E+00  0.19625841271E-01 0.  0.
         14    1    1    2    0    0 -0.20862523408E-01  0.11658556212E-01  0.35026504020E-02  0.24154406964E-01  0.00000000000E+00 0.  1.
     999901    1    3    3    0    0  0.10577726039E+00 -0.43776863702E-01 -0.91129419573E-01  0.89208173041E+00  0.88000000000E+00 0. -1.
        -11    1    4    4    0    0 -0.60456247239E-01  0.18141092251E-01  0.70902811314E-01  0.94929062102E-01  0.51100000000E-03 0. -1.
         11    1    4    4    0    0 -0.24458489743E-01  0.13977215238E-01  0.16723957857E-01  0.32764800529E-01  0.51100000000E-03 0.  1.
</event>
<event>
 8    1  0.1086486E+005  0.1043930E+01  0.7957747E-01            NaN
         13   -1    0    0    0    0  0.00000000000E+00  0.00000000000E+00  0.74505805969E-08  0.10566000000E+00  0.10566000000E+00 0. -1.
     999900   -1    0    0    0    0 -0.00000000000E+00 -0.00000000000E+00 -0.74505805969E-08  0.93827000000E+00  0.93827000000E+00 0.  1.
     999902    2    1    2    0    0  0.22544017178E-01 -0.87493189254E-02 -0.15372944331E-02  0.10196988926E+01  0.10194109500E+01 0.  0.
     999903    2    3    3    0    0  0.11979686644E+00  0.35333709907E-01  0.39015847040E-01  0.13231735830E+00  0.19643999605E-01 0.  0.
         14    1    1    2    0    0 -0.22544017178E-01  0.87493189254E-02  0.15372944331E-02  0.24231107411E-01  0.00000000000E+00 0.  1.
     999901    1    3    3    0    0 -0.97252849266E-01 -0.44083028833E-01 -0.40553141473E-01  0.88738153429E+00  0.88000000000E+00 0. -1.
        -11    1    4    4    0    0  0.90181832579E-01  0.29747680230E-01  0.37621151483E-01  0.10214352435E+00  0.51100000000E-03 0. -1.
         11    1    4    4    0    0  0.29615033865E-01  0.55860296774E-02  0.13946955565E-02  0.30173833948E-01  0.51100000000E-03 0.  1.
</event>
<event>
 8    1  0.1086486E+005  0.1043930E+01  0.7957747E-01            NaN
         13   -1    0    0    0    0  0.00000000000E+00  0.00000000000E+00  0.74505805969E-08  0.10566000000E+00  0.10566000000E+00 0. -1.
     999900   -1    0    0    0    0 -0.00000000000E+00 -0.00000000000E+00 -0.74505805969E-08  0.93827000000E+00  0.93827000000E+00 0. -1.
     999902    2    1    2    0    0  0.10963432730E-01  0.82807581165E-02 -0.18550623722E-01  0.10208455149E+01  0.10205844756E+01 0.  0.
     999903    2    3    3    0    0  0.35312627204E-01  0.11125448676E+00 -0.61439022836E-01  0.13346967183E+00  0.20368046251E-01 0.  0.
         14    1    1    2    0    0 -0.10963432730E-01 -0.82807581165E-02  0.18550623722E-01  0.23084485108E-01  0.00000000000E+00 0. -1.
     999901    1    3    3    0    0 -0.24349194474E-01 -0.10297372864E+00  0.42888399114E-01  0.88737584306E+00  0.88000000000E+00 0. -1.
        -11    1    4    4    0    0  0.12762770008E-01  0.52174039951E-01 -0.38949327840E-01  0.66350056543E-01  0.51100000000E-03 0. -1.
         11    1    4    4    0    0  0.22549857197E-01  0.59080446811E-01 -0.22489694996E-01  0.67119615292E-01  0.51100000000E-03 0.  1.
</event>
<event>
 7    1  0.1086486E+005  0.1043930E+01  0.7957747E-01            NaN
         13   -1    0    0    0    0  0.00000000000E+00  0.00000000000E+00  0.74505805969E-08  0.10566000000E+00  0.10566000000E+00 0.  1.
     999900   -1    0    0    0    0 -0.00000000000E+00 -0.00000000000E+00 -0.74505805969E-08  0.93827000000E+00  0.93827000000E+00 0.  1.
     999903    2    1    2    0    0  0.64734251750E-01  0.76582568172E-01  0.52544385272E-01  0.11509245192E+00  0.20735162587E-01 0.  0.
         14    1    1    2    0    0  0.35705967986E-01 -0.12170601812E-01 -0.13016793154E-01  0.39905846718E-01  0.00000000000E+00 0.  1.
     999901    1    1    2    0    0 -0.10044021974E+00 -0.64411966359E-01 -0.39527592118E-01  0.88893170136E+00  0.88000000000E+00 0.  1.
        -11    1    3    3    0    0  0.19852251667E-01  0.39125526963E-01  0.20579614094E-01  0.48463392305E-01  0.51100000000E-03 0.  1.
         11    1    3    3    0    0  0.44882000083E-01  0.37457041209E-01  0.31964771178E-01  0.66629059613E-01  0.51100000000E-03 0. -1.
</event>
<event>
 8    1  0.1086486E+005  0.1043930E+01  0.7957747E-01            NaN
         13   -1    0    0    0    0  0.00000000000E+00  0.00000000000E+00  0.74505805969E-08  0.10566000000E+00  0.10566000000E+00 0.  1.
     999900   -1    0    0    0    0 -0.00000000000E+00 -0.00000000000E+00 -0.74505805969E-08  0.93827000000E+00  0.93827000000E+00 0.  1.
     999902    2    1    2    0    0  0.81207462515E-02 -0.16362943469E-01  0.10390161948E-01  0.10229145794E+01  0.10226986794E+01 0.  0.
     999903    2    3    3    0    0 -0.74529434347E-01  0.67450064735E-01 -0.81208400598E-01  0.13036431785E+00  0.17201837784E-01 0.  0.
         14    1    1    2    0    0 -0.81207462515E-02  0.16362943469E-01 -0.10390161948E-01  0.21015420623E-01  0.00000000000E+00 0.  1.
     999901    1    3    3    0    0  0.82650180598E-01 -0.83813008204E-01  0.91598562546E-01  0.89255026153E+00  0.88000000000E+00 0. -1.
        -11    1    4    4    0    0 -0.62106251213E-01  0.57489762907E-01 -0.59572905762E-01  0.10349614244E+00  0.51100000000E-03 0. -1.
         11    1    4    4    0    0 -0.12423183134E-01  0.99603018282E-02 -0.21635494836E-01  0.26868175403E-01  0.51100000000E-03 0.  1.
</event>
<event>
 8    1  0.1086486E+005  0.1043930E+01  0.7957747E-01            NaN
         13   -1    0    0    0    0  0.00000000000E+00  0.00000000000E+00  0.74505805969E-08  0.10566000000E+00  0.10566000000E+00 0. -1.
     999900   -1    0    0    0    0 -0.00000000000E+00 -0.00000000000E+00 -0.74505805969E-08  0.93827000000E+00  0.93827000000E+00 0. -1.
     999902    2    1    2    0    0  0.18349809207E-01  0.15521671840E-01  0.22269443788E-03  0.10198948718E+01  0.10196116232E+01 0.  0.
     999903    2    3    3    0    0 -0.11667262893E+00  0.38632036747E-01 -0.32644153613E-01  0.12869041857E+00  0.19764778281E-01 0.  0.
         14    1    1    2    0    0 -0.18349809207E-01 -0.15521671840E-01 -0.22269443788E-03  0.24035128197E-01  0.00000000000E+00 0. -1.
     999901    1    3    3    0    0  0.13502243814E+00 -0.23110364907E-01  0.32866848051E-01  0.89120445324E+00  0.88000000000E+00 0.  1.
        -11    1    4    4    0    0 -0.47724256193E-01  0.69370187348E-02 -0.78951495133E-02  0.48870454929E-01  0.51100000000E-03 0.  1.
         11    1    4    4    0    0 -0.68948372739E-01  0.31695018013E-01 -0.24749004099E-01  0.79819963638E-01  0.51100000000E-03 0. -1.
</event>
<event>
 8    1  0.1086486E+005  0.1043930E+01  0.7957747E-01            NaN
         13   -1    0    0    0    0  0.00000000000E+00  0.00000000000E+00  0.74505805969E-08  0.10566000000E+00  0.10566000000E+00 0. -1.
     999900   -1    0    0    0    0 -0.00000000000E+00 -0.00000000000E+00 -0.74505805969E-08  0.93827000000E+00  0.93827000000E+00 0. -1.
     999902    2    1    2    0    0  0.78895953172E-02  0.24077331930E-01  0.16994432411E-01  0.10134214051E+01  0.10129620773E+01 0.  0.
     999903    2    3    3    0    0 -0.10521110201E+00 -0.45236005538E-01 -0.37111467580E-01  0.12183654945E+00  0.18740639608E-01 0.  0.
         14    1    1    2    0    0 -0.78895953172E-02 -0.24077331930E-01 -0.16994432411E-01  0.30508594856E-01  0.00000000000E+00 0.  1.
     999901    1    3    3    0    0  0.11310069733E+00  0.69313337467E-01  0.54105899991E-01  0.89158485569E+00  0.88000000000E+00 0. -1.
        -11    1    4    4    0    0 -0.58827672237E-01 -0.15125489178E-01 -0.19741239478E-01  0.63870596528E-01  0.51100000000E-03 0. -1.
         11    1    4    4    0    0 -0.46383429774E-01 -0.30110516359E-01 -0.17370228101E-01  0.57965952924E-01  0.51100000000E-03 0.  1.
</event>
<event>
 8    1  0.1086486E+005  0.1043930E+01  0.7957747E-01            NaN
         13   -1    0    0    0    0  0.00000000000E+00  0.00000000000E+00  0.74505805969E-08  0.10566000000E+00  0.10566000000E+00 0.  1.
     999900   -1    0    0    0    0 -0.00000000000E+00 -0.00000000000E+00 -0.74505805969E-08  0.93827000000E+00  0.93827000000E+00 0. -1.
     999902    2    1    2    0    0 -0.17883064387E-01 -0.99406205750E-02  0.11654343918E-01  0.10203833726E+01  0.10201116524E+01 0.  0.
     999903    2    3    3    0    0 -0.42365028618E-01  0.24208873493E-01  0.12099946914E+00  0.13262106719E+00  0.23803586398E-01 0.  0.
         14    1    1    2    0    0  0.17883064387E-01  0.99406205750E-02 -0.11654343918E-01  0.23546627390E-01  0.00000000000E+00 0.  1.
     999901    1    3    3    0    0  0.24481964231E-01 -0.34149494068E-01 -0.10934512522E+00  0.88776230542E+00  0.88000000000E+00 0. -1.
        -11    1    4    4    0    0 -0.20527623428E-01  0.77859113409E-02  0.27404797693E-01  0.35118197514E-01  0.51100000000E-03 0.  1.
         11    1    4    4    0    0 -0.21837405189E-01  0.16422962152E-01  0.93594671443E-01  0.97502869675E-01  0.51100000000E-03 0. -1.
</event>
<event>
 8    1  0.1086486E+005  0.1043930E+01  0.7957747E-01            NaN
         13   -1    0    0    0    0  0.00000000000E+00  0.00000000000E+00  0.74505805969E-08  0.10566000000E+00  0.10566000000E+00 0.  1.
     999900   -1    0    0    0    0 -0.00000000000E+00 -0.00000000000E+00 -0.74505805969E-08  0.93827000000E+00  0.93827000000E+00 0.  1.
     999902    2    1    2    0    0 -0.80427700843E-03  0.69582871976E-03  0.23186435848E-01  0.10207191869E+01  0.10204552497E+01 0.  0.
     999903    2    3    3    0    0 -0.54627624655E-01 -0.70384169315E-01 -0.91065604155E-01  0.12886558480E+00  0.19372300319E-01 0.  0.
         14    1    1    2    0    0  0.80427700843E-03 -0.69582871976E-03 -0.23186435848E-01  0.23210813136E-01  0.00000000000E+00 0. -1.
     999901    1    3    3    0    0  0.53823347646E-01  0.71079998034E-01  0.11425204000E+00  0.89185360207E+00  0.88000000000E+00 0.  1.
        -11    1    4    4    0    0 -0.15288759881E-01 -0.12172520066E-01 -0.29833263581E-01  0.35667929017E-01  0.51100000000E-03 0. -1.
         11    1    4    4    0    0 -0.39338864773E-01 -0.58211649248E-01 -0.61232340574E-01  0.93197655781E-01  0.51100000000E-03 0.  1.
</event>
<event>
 8    1  0.1086486E+005  0.1043930E+01  0.7957747E-01            NaN
         13   -1    0    0    0    0  0.00000000000E+00  0.00000000000E+00  0.74505805969E-08  0.10566000000E+00  0.10566000000E+00 0.  1.
     999900   -1    0    0    0    0 -0.00000000000E+00 -0.00000000000E+00 -0.74505805969E-08  0.93827000000E+00  0.93827000000E+00 0.  1.
     999902    2    1    2    0    0 -0.81331270957E-02  0.20122054388E-01  0.87802454460E-02  0.10205176627E+01  0.10202490687E+01 0.  0.
     999903    2    3    3    0    0 -0.61746116308E-01 -0.10281758891E+00 -0.43132351021E-01  0.12884315581E+00  0.18871132075E-01 0.  0.
         14    1    1    2    0    0  0.81331270957E-02 -0.20122054388E-01 -0.87802454460E-02  0.23412337330E-01  0.00000000000E+00 0. -1.
     999901    1    3    3    0    0  0.53612989213E-01  0.12293964330E+00  0.51912596467E-01  0.89167450686E+00  0.88000000000E+00 0. -1.
        -11    1    4    4    0    0 -0.28070290355E-01 -0.31434659103E-01 -0.19594568929E-01  0.46478890327E-01  0.51100000000E-03 0.  1.
         11    1    4    4    0    0 -0.33675825953E-01 -0.71382929812E-01 -0.23537782092E-01  0.82364265485E-01  0.51100000000E-03 0. -1.
</event>
<event>
 8    1  0.1086486E+005  0.1043930E+01  0.7957747E-01            NaN
         13   -1    0    0    0    0  0.00000000000E+00  0.00000000000E+00  0.74505805969E-08  0.10566000000E+00  0.10566000000E+00 0.  1.
     999900   -1    0    0    0    0 -0.00000000000E+00 -0.00000000000E+00 -0.74505805969E-08  0.93827000000E+00  0.93827000000E+00 0. -1.
     999902    2    1    2    0    0  0.58928668801E-02  0.21391311147E-01 -0.95266453133E-02  0.10197831359E+01  0.10194972159E+01 0.  0.
     999903    2    3    3    0    0 -0.11139230201E+00 -0.16491683489E-01  0.59523811906E-01  0.12851499573E+00  0.17111381357E-01 0.  0.
         14    1    1    2    0    0 -0.58928668801E-02 -0.21391311147E-01  0.95266453133E-02  0.24146864053E-01  0.00000000000E+00 0. -1.
     999901    1    3    3    0    0  0.11728516889E+00  0.37882994636E-01 -0.69050457219E-01  0.89126814022E+00  0.88000000000E+00 0.  1.
        -11    1    4    4    0    0 -0.79668252274E-01 -0.10205283736E-01  0.50715616402E-01  0.94992173913E-01  0.51100000000E-03 0. -1.
         11    1    4    4    0    0 -0.31724049737E-01 -0.62863997535E-02  0.88081955041E-02  0.33522821817E-01  0.51100000000E-03 0.  1.
</event>
<event>
 8    1  0.1086486E+005  0.1043930E+01  0.7957747E-01            NaN
         13   -1    0    0    0    0  0.00000000000E+00  0.00000000000E+00  0.74505805969E-08  0.10566000000E+00  0.10566000000E+00 0.  1.
     999900   -1    0    0    0    0 -0.00000000000E+00 -0.00000000000E+00 -0.74505805969E-08  0.93827000000E+00  0.93827000000E+00 0.  1.
     999902    2    1    2    0    0 -0.14972775219E-03 -0.19059549725E-01 -0.14636025176E-01  0.10198987269E+01  0.10196155702E+01 0.  0.
     999903    2    3    3    0    0  0.20969922291E-01 -0.70632623084E-01  0.10520800228E+00  0.13002884178E+00  0.20250206613E-01 0.  0.
         14    1    1    2    0    0  0.14972775219E-03  0.19059549725E-01  0.14636025176E-01  0.24031273106E-01  0.00000000000E+00 0.  1.
     999901    1    3    3    0    0 -0.21119650043E-01  0.51573073358E-01 -0.11984402745E+00  0.88986988511E+00  0.88000000000E+00 0.  1.
        -11    1    4    4    0    0  0.26029354987E-02 -0.42771253888E-01  0.63586416324E-01  0.76678868629E-01  0.51100000000E-03 0. -1.
         11    1    4    4    0    0  0.18366986792E-01 -0.27861369196E-01  0.41621585952E-01  0.53349973153E-01  0.51100000000E-03 0.  1.
</event>
<event>
 8    1  0.1086486E+005  0.1043930E+01  0.7957747E-01            NaN
         13   -1    0    0    0    0  0.00000000000E+00  0.00000000000E+00  0.74505805969E-08  0.10566000000E+00  0.10566000000E+00 0.  1.
     999900   -1    0    0    0    0 -0.00000000000E+00 -0.00000000000E+00 -0.74505805969E-08  0.93827000000E+00  0.93827000000E+00 0. -1.
     999902    2    1    2    0    0 -0.19116963567E-01 -0.15510978367E-01 -0.67535392871E-02  0.10184023867E+01  0.10180823946E+01 0.  0.
     999903    2    3    3    0    0  0.88293230568E-02  0.75339992538E-01  0.99670964529E-01  0.12690865773E+00  0.20431221578E-01 0.  0.
         14    1    1    2    0    0  0.19116963567E-01  0.15510978367E-01  0.67535392871E-02  0.25527613262E-01  0.00000000000E+00 0. -1.
     999901    1    3    3    0    0 -0.27946286624E-01 -0.90850970906E-01 -0.10642450382E+00  0.89149372901E+00  0.88000000000E+00 0. -1.
        -11    1    4    4    0    0 -0.38218197832E-02  0.12617020066E-01  0.27203393509E-01  0.30233776496E-01  0.51100000000E-03 0. -1.
         11    1    4    4    0    0  0.12651142840E-01  0.62722972472E-01  0.72467571019E-01  0.96674881233E-01  0.51100000000E-03 0.  1.
</event>
<event>
 8    1  0.1086486E+005  0.1043930E+01  0.7957747E-01            NaN
         13   -1    0    0    0    0  0.00000000000E+00  0.00000000000E+00  0.74505805969E-08  0.10566000000E+00  0.10566000000E+00 0. -1.
     999900   -1    0    0    0    0 -0.00000000000E+00 -0.00000000000E+00 -0.74505805969E-08  0.93827000000E+00  0.93827000000E+00 0. -1.
     999902    2    1    2    0    0 -0.18731150385E-01  0.13167509622E-01  0.90236249358E-03  0.10210159527E+01  0.10207587972E+01 0.  0.
     999903    2    3    3    0    0 -0.98670576948E-01 -0.28085306589E-01  0.81602614160E-01  0.13275662270E+00  0.20992070667E-01 0.  0.
         14    1    1    2    0    0  0.18731150385E-01 -0.13167509622E-01 -0.90236249358E-03  0.22914047274E-01  0.00000000000E+00 0.  1.
     999901    1    3    3    0    0  0.79939426563E-01  0.41252816211E-01 -0.80700251666E-01  0.88825933003E+00  0.88000000000E+00 0. -1.
        -11    1    4    4    0    0 -0.49825751406E-01 -0.24395986022E-01  0.38760551243E-01  0.67678734406E-01  0.51100000000E-03 0.  1.
         11    1    4    4    0    0 -0.48844825542E-01 -0.36893205665E-02  0.42842062917E-01  0.65077888291E-01  0.51100000000E-03 0. -1.
</event>
<event>
 8    1  0.1086486E+005  0.1043930E+01  0.7957747E-01            NaN
         13   -1    0    0    0    0  0.00000000000E+00  0.00000000000E+00  0.74505805969E-08  0.10566000000E+00  0.10566000000E+00 0. -1.
     999900   -1    0    0    0    0 -0.00000000000E+00 -0.00000000000E+00 -0.74505805969E-08  0.93827000000E+00  0.93827000000E+00 0. -1.
     999902    2    1    2    0    0  0.56577161349E-02  0.91906401012E-02 -0.22166208530E-01  0.10192760263E+01  0.10189778209E+01 0.  0.
     999903    2    3    3    0    0  0.56691486560E-01 -0.10733376741E+00 -0.41658299313E-01  0.12991539932E+00  0.20202346512E-01 0.  0.
         14    1    1    2    0    0 -0.56577161349E-02 -0.91906401012E-02  0.22166208530E-01  0.24653973674E-01  0.00000000000E+00 0. -1.
     999901    1    3    3    0    0 -0.51033770425E-01  0.11652440751E+00  0.19492090783E-01  0.88936062701E+00  0.88000000000E+00 0.  1.
        -11    1    4    4    0    0  0.24080372392E-01 -0.45306736435E-01 -0.28220080851E-01  0.58559361209E-01  0.51100000000E-03 0. -1.
         11    1    4    4    0    0  0.32611114168E-01 -0.62027030970E-01 -0.13438218462E-01  0.71356038110E-01  0.51100000000E-03 0.  1.
</event>
<event>
 8    1  0.1086486E+005  0.1043930E+01  0.7957747E-01            NaN
         13   -1    0    0    0    0  0.00000000000E+00  0.00000000000E+00  0.74505805969E-08  0.10566000000E+00  0.10566000000E+00 0.  1.
     999900   -1    0    0    0    0 -0.00000000000E+00 -0.00000000000E+00 -0.74505805969E-08  0.93827000000E+00  0.93827000000E+00 0. -1.
     999902    2    1    2    0    0  0.21778282019E-01 -0.13532271769E-01 -0.25537960651E-02  0.10181630091E+01  0.10178369099E+01 0.  0.
     999903    2    3    3    0    0  0.60409305230E-02  0.36530188497E-01  0.12088134213E+00  0.12800001979E+00  0.20018957933E-01 0.  0.
         14    1    1    2    0    0 -0.21778282019E-01  0.13532271769E-01  0.25537960651E-02  0.25766990924E-01  0.00000000000E+00 0.  1.
     999901    1    3    3    0    0  0.15737351496E-01 -0.50062460266E-01 -0.12343513820E+00  0.89016298929E+00  0.88000000000E+00 0. -1.
        -11    1    4    4    0    0  0.96840374885E-02  0.19519382157E-01  0.43127226090E-01  0.48321895794E-01  0.51100000000E-03 0.  1.
         11    1    4    4    0    0 -0.36431069655E-02  0.17010806340E-01  0.77754116040E-01  0.79678123992E-01  0.51100000000E-03 0. -1.
</event>
<event>
 8    1  0.1086486E+005  0.1043930E+01  0.7957747E-01            NaN
         13   -1    0    0    0    0  0.00000000000E+00  0.00000000000E+00  0.74505805969E-08  0.10566000000E+00  0.10566000000E+00 0.  1.
     999900   -1    0    0    0    0 -0.00000000000E+00 -0.00000000000E+00 -0.74505805969E-08  0.93827000000E+00  0.93827000000E+00 0.  1.
     999902    2    1    2    0    0  0.13803578354E-01  0.15889148305E-01 -0.12417402775E-01  0.10194924121E+01  0.10191994813E+01 0.  0.
     999903    2    3    3    0    0  0.12255298692E+00  0.10117023353E-01 -0.43841719339E-01  0.13222287081E+00  0.20957157394E-01 0.  0.
         14    1    1    2    0    0 -0.13803578354E-01 -0.15889148305E-01  0.12417402775E-01  0.24437587870E-01  0.00000000000E+00 0.  1.
     999901    1    3    3    0    0 -0.10874940856E+00  0.57721249525E-02  0.31424316564E-01  0.88726954132E+00  0.88000000000E+00 0. -1.
        -11    1    4    4    0    0  0.27988162960E-01  0.40507508087E-03 -0.19421439138E-01  0.34072786368E-01  0.51100000000E-03 0.  1.
         11    1    4    4    0    0  0.94564823956E-01  0.97119482718E-02 -0.24420280201E-01  0.98150084438E-01  0.51100000000E-03 0. -1.
</event>
<event>
 8    1  0.1086486E+005  0.1043930E+01  0.7957747E-01            NaN
         13   -1    0    0    0    0  0.00000000000E+00  0.00000000000E+00  0.74505805969E-08  0.10566000000E+00  0.10566000000E+00 0. -1.
     999900   -1    0    0    0    0 -0.00000000000E+00 -0.00000000000E+00 -0.74505805969E-08  0.93827000000E+00  0.93827000000E+00 0.  1.
     999902    2    1    2    0    0  0.24399187027E-02  0.22512667041E-01  0.39810550140E-02  0.10209382150E+01  0.10206792917E+01 0.  0.
     999903    2    3    3    0    0  0.75971447213E-01  0.38479891561E-01  0.99772191173E-01  0.13254765911E+00  0.19027058586E-01 0.  0.
         14    1    1    2    0    0 -0.24399187027E-02 -0.22512667041E-01 -0.39810550140E-02  0.22991785046E-01  0.00000000000E+00 0. -1.
     999901    1    3    3    0    0 -0.73531528510E-01 -0.15967224521E-01 -0.95791136159E-01  0.88839055584E+00  0.88000000000E+00 0.  1.
        -11    1    4    4    0    0  0.38524811403E-01  0.13810751780E-01  0.59854689156E-01  0.72510295086E-01  0.51100000000E-03 0. -1.
         11    1    4    4    0    0  0.37446635809E-01  0.24669139781E-01  0.39917502017E-01  0.60037364026E-01  0.51100000000E-03 0.  1.
</event>
<event>
 8    1  0.1086486E+005  0.1043930E+01  0.7957747E-01            NaN
         13   -1    0    0    0    0  0.00000000000E+00  0.00000000000E+00  0.74505805969E-08  0.10566000000E+00  0.10566000000E+00 0. -1.
     999900   -1    0    0    0    0 -0.00000000000E+00 -0.00000000000E+00 -0.74505805969E-08  0.93827000000E+00  0.93827000000E+00 0. -1.
     999902    2    1    2    0    0  0.23109912523E-02 -0.18289018918E-01  0.17385846814E-01  0.10185903756E+01  0.10182751381E+01 0.  0.
     999903    2    3    3    0    0 -0.33501853500E-02 -0.12834499444E+00 -0.16562428345E-01  0.13106750153E+00  0.20511328249E-01 0.  0.
         14    1    1    2    0    0 -0.23109912523E-02  0.18289018918E-01 -0.17385846814E-01  0.25339624366E-01  0.00000000000E+00 0.  1.
     999901    1    3    3    0    0  0.56611766023E-02  0.11005597552E+00  0.33948275159E-01  0.88752287410E+00  0.88000000000E+00 0.  1.
        -11    1    4    4    0    0  0.39384303269E-02 -0.81190947557E-01 -0.18286927710E-01  0.83319589802E-01  0.51100000000E-03 0.  1.
         11    1    4    4    0    0 -0.72886156769E-02 -0.47154046879E-01  0.17244993654E-02  0.47747911730E-01  0.51100000000E-03 0. -1.
</event>
<event>
 8    1  0.1086486E+005  0.1043930E+01  0.7957747E-01            NaN
         13   -1    0    0    0    0  0.00000000000E+00  0.00000000000E+00  0.74505805969E-08  0.10566000000E+00  0.10566000000E+00 0. -1.
     999900   -1    0    0    0    0 -0.00000000000E+00 -0.00000000000E+00 -0.74505805969E-08  0.93827000000E+00  0.93827000000E+00 0.  1.
     999902    2    1    2    0    0  0.13008515163E-01 -0.17055378307E-02 -0.30867933486E-01  0.10103895819E+01  0.10098327325E+01 0.  0.
     999903    2    3    3    0    0  0.12007334500E+00 -0.14700007545E-01  0.92198232931E-02  0.12289943423E+00  0.19635870014E-01 0.  0.
         14    1    1    2    0    0 -0.13008515163E-01  0.17055378307E-02  0.30867933486E-01  0.33540418062E-01  0.00000000000E+00 0. -1.
     999901    1    3    3    0    0 -0.10706482984E+00  0.12994469714E-01 -0.40087756780E-01  0.88749014771E+00  0.88000000000E+00 0.  1.
        -11    1    4    4    0    0  0.69110837326E-01  0.12199691188E-02  0.37254056551E-02  0.69223810419E-01  0.51100000000E-03 0.  1.
         11    1    4    4    0    0  0.50962507676E-01 -0.15919976664E-01  0.54944176380E-02  0.53675623814E-01  0.51100000000E-03 0. -1.
</event>
<event>
 8    1  0.1086486E+005  0.1043930E+01  0.7957747E-01            NaN
         13   -1    0    0    0    0  0.00000000000E+00  0.00000000000E+00  0.74505805969E-08  0.10566000000E+00  0.10566000000E+00 0.  1.
     999900   -1    0    0    0    0 -0.00000000000E+00 -0.00000000000E+00 -0.74505805969E-08  0.93827000000E+00  0.93827000000E+00 0. -1.
     999902    2    1    2    0    0 -0.55996295882E-02  0.42066576761E-02 -0.22485514105E-01  0.10203789880E+01  0.10201071655E+01 0.  0.
     999903    2    3    3    0    0 -0.93860279276E-01 -0.12786767033E-02  0.86676856917E-01  0.12923564691E+00  0.19431620283E-01 0.  0.
         14    1    1    2    0    0  0.55996295882E-02 -0.42066576761E-02  0.22485514105E-01  0.23551011972E-01  0.00000000000E+00 0.  1.
     999901    1    3    3    0    0  0.88260649688E-01  0.54853343794E-02 -0.10916237102E+00  0.89114334112E+00  0.88000000000E+00 0. -1.
        -11    1    4    4    0    0 -0.11499128462E-01 -0.46983795871E-02  0.18356003344E-01  0.22169995622E-01  0.51100000000E-03 0. -1.
         11    1    4    4    0    0 -0.82361150814E-01  0.34197028838E-02  0.68320853573E-01  0.10706565129E+00  0.51100000000E-03 0.  1.
</event>
<event>
 8    1  0.1086486E+005  0.1043930E+01  0.7957747E-01            NaN
         13   -1    0    0    0    0  0.00000000000E+00  0.00000000000E+00  0.74505805969E-08  0.10566000000E+00  0.10566000000E+00 0. -1.
     999900   -1    0    0    0    0 -0.00000000000E+00 -0.00000000000E+00 -0.74505805969E-08  0.93827000000E+00  0.93827000000E+00 0.  1.
     999902    2    1    2    0    0  0.18114269075E-01 -0.19603345140E-01 -0.54334078564E-02  0.10166914280E+01  0.10163264829E+01 0.  0.
     999903    2    3    3    0    0 -0.12298189331E+00 -0.11620048180E-01 -0.73688857223E-02  0.12541391444E+00  0.20366095718E-01 0.  0.
         14    1    1    2    0    0 -0.18114269075E-01  0.19603345140E-01  0.54334078564E-02  0.27238572021E-01  0.00000000000E+00 0.  1.
     999901    1    3    3    0    0  0.14109616239E+00 -0.79832969600E-02  0.19354778659E-02  0.89127751354E+00  0.88000000000E+00 0. -1.
        -11    1    4    4    0    0 -0.11652219149E+00 -0.64499289023E-02 -0.50717984846E-02  0.11681184423E+00  0.51100000000E-03 0. -1.
         11    1    4    4    0    0 -0.64597018234E-02 -0.51701192772E-02 -0.22970872377E-02  0.86020702023E-02  0.51100000000E-03 0.  1.
</event>
<event>
 8    1  0.1086486E+005  0.1043930E+01  0.7957747E-01            NaN
         13   -1    0    0    0    0  0.00000000000E+00  0.00000000000E+00  0.74505805969E-08  0.10566000000E+00  0.10566000000E+00 0. -1.
     999900   -1    0    0    0    0 -0.00000000000E+00 -0.00000000000E+00 -0.74505805969E-08  0.93827000000E+00  0.93827000000E+00 0. -1.
     999902    2    1    2    0    0 -0.38394565048E-02 -0.75263097245E-02  0.22355391860E-01  0.10200312488E+01  0.10197512433E+01 0.  0.
     999903    2    3    3    0    0 -0.53215524616E-01  0.11585503399E+00  0.15107029755E-01  0.13002366970E+00  0.20582793158E-01 0.  0.
         14    1    1    2    0    0  0.38394565048E-02  0.75263097245E-02 -0.22355391860E-01  0.23898751213E-01  0.00000000000E+00 0.  1.
     999901    1    3    3    0    0  0.49376068111E-01 -0.12338134371E+00  0.72483621050E-02  0.89000757909E+00  0.88000000000E+00 0.  1.
        -11    1    4    4    0    0 -0.33470594258E-01  0.71861338210E-01 -0.68890084545E-03  0.79278422756E-01  0.51100000000E-03 0. -1.
         11    1    4    4    0    0 -0.19744930358E-01  0.43993695777E-01  0.15795930600E-01  0.50745246945E-01  0.51100000000E-03 0.  1.
</event>
<event>
 8    1  0.1086486E+005  0.1043930E+01  0.7957747E-01            NaN
         13   -1    0    0    0    0  0.00000000000E+00  0.00000000000E+00  0.74505805969E-08  0.10566000000E+00  0.10566000000E+00 0.  1.
     999900   -1    0    0    0    0 -0.00000000000E+00 -0.00000000000E+00 -0.74505805969E-08  0.93827000000E+00  0.93827000000E+00 0.  1.
     999902    2    1    2    0    0 -0.12199709415E-01  0.10124078641E-01  0.10802846213E-01  0.10247458564E+01  0.10245662687E+01 0.  0.
     999903    2    3    3    0    0 -0.46811511635E-01 -0.84683870339E-01  0.92325423452E-01  0.13523337499E+00  0.20035128599E-01 0.  0.
         14    1    1    2    0    0  0.12199709415E-01 -0.10124078641E-01 -0.10802846213E-01  0.19184143568E-01  0.00000000000E+00 0. -1.
     999901    1    3    3    0    0  0.34611802221E-01  0.94807948981E-01 -0.81522577239E-01  0.88951248144E+00  0.88000000000E+00 0.  1.
        -11    1    4    4    0    0 -0.31952840268E-01 -0.49414528938E-01  0.43426978363E-01  0.73136469987E-01  0.51100000000E-03 0.  1.
         11    1    4    4    0    0 -0.14858671367E-01 -0.35269341401E-01  0.48898445089E-01  0.62096905002E-01  0.51100000000E-03 0. -1.
</event>
<event>
 8    1  0.1086486E+005  0.1043930E+01  0.7957747E-01            NaN
         13   -1    0    0    0    0  0.00000000000E+00  0.00000000000E+00  0.74505805969E-08  0.10566000000E+00  0.10566000000E+00 0.  1.
     999900   -1    0    0    0    0 -0.00000000000E+00 -0.00000000000E+00 -0.74505805969E-08  0.93827000000E+00  0.93827000000E+00 0.  1.
     999902    2    1    2    0    0  0.18737177954E-01  0.13295233499E-02 -0.10450051572E-01  0.10224345808E+01  0.10222085985E+01 0.  0.
     999903    2    3    3    0    0 -0.65802162285E-01  0.77675689522E-01 -0.83180032232E-01  0.13211706032E+00  0.13136306969E-01 0.  0.
         14    1    1    2    0    0 -0.18737177954E-01 -0.13295233499E-02  0.10450051572E-01  0.21495419230E-01  0.00000000000E+00 0.  1.
     999901    1    3    3    0    0  0.84539340239E-01 -0.76346166172E-01  0.72729980661E-01  0.89031752045E+00  0.88000000000E+00 0. -1.
        -11    1    4    4    0    0 -0.49184666220E-01  0.59163842935E-01 -0.55316514479E-01  0.94761118594E-01  0.51100000000E-03 0. -1.
         11    1    4    4    0    0 -0.16617496065E-01  0.18511846587E-01 -0.27863517753E-01  0.37355941725E-01  0.51100000000E-03 0.  1.
</event>
<event>
 8    1  0.1086486E+005  0.1043930E+01  0.7957747E-01            NaN
         13   -1    0    0    0    0  0.00000000000E+00  0.00000000000E+00  0.74505805969E-08  0.10566000000E+00  0.10566000000E+00 0.  1.
     999900   -1    0    0    0    0 -0.00000000000E+00 -0.00000000000E+00 -0.74505805969E-08  0.93827000000E+00  0.93827000000E+00 0. -1.
     999902    2    1    2    0    0  0.74660899532E-02  0.20187367589E-01 -0.10087090435E-01  0.10201598148E+01  0.10198828492E+01 0.  0.
     999903    2    3    3    0    0 -0.47303501016E-01  0.10913980665E+00 -0.55653994167E-01  0.13281062358E+00  0.19803435637E-01 0.  0.
         14    1    1    2    0    0 -0.74660899532E-02 -0.20187367589E-01  0.10087090435E-01  0.23770185165E-01  0.00000000000E+00 0. -1.
     999901    1    3    3    0    0  0.54769590969E-01 -0.88952439066E-01  0.45566903733E-01  0.88734919126E+00  0.88000000000E+00 0.  1.
        -11    1    4    4    0    0 -0.19948579759E-01  0.24407929597E-01 -0.13476358142E-01  0.34286531049E-01  0.51100000000E-03 0.  1.
         11    1    4    4    0    0 -0.27354921257E-01  0.84731877058E-01 -0.42177636026E-01  0.98524092528E-01  0.51100000000E-03 0. -1.
</event>
<event>
 8    1  0.1086486E+005  0.1043930E+01  0.7957747E-01            NaN
         13   -1    0    0    0    0  0.00000000000E+00  0.00000000000E+00  0.74505805969E-08  0.10566000000E+00  0.10566000000E+00 0. -1.
     999900   -1    0    0    0    0 -0.00000000000E+00 -0.00000000000E+00 -0.74505805969E-08  0.93827000000E+00  0.93827000000E+00 0.  1.
     999902    2    1    2    0    0  0.14945960476E-01 -0.17801049871E-01 -0.45076135582E-02  0.10202534781E+01  0.10199787164E+01 0.  0.
     999903    2    3    3    0    0 -0.84535343026E-02  0.12402042355E+00  0.23709885539E-01  0.12814524812E+00  0.20162297546E-01 0.  0.
         14    1    1    2    0    0 -0.14945960476E-01  0.17801049871E-01  0.45076135582E-02  0.23676521937E-01  0.00000000000E+00 0.  1.
     999901    1    3    3    0    0  0.23399494778E-01 -0.14182147342E+00 -0.28217499097E-01  0.89210822994E+00  0.88000000000E+00 0. -1.
        -11    1    4    4    0    0  0.47391187846E-03  0.46553318792E-01  0.18131556586E-01  0.49964492875E-01  0.51100000000E-03 0.  1.
         11    1    4    4    0    0 -0.89274461811E-02  0.77467104762E-01  0.55783289528E-02  0.78180755243E-01  0.51100000000E-03 0. -1.
</event>
<event>
 8    1  0.1086486E+005  0.1043930E+01  0.7957747E-01            NaN
         13   -1    0    0    0    0  0.00000000000E+00  0.00000000000E+00  0.74505805969E-08  0.10566000000E+00  0.10566000000E+00 0. -1.
     999900   -1    0    0    0    0 -0.00000000000E+00 -0.00000000000E+00 -0.74505805969E-08  0.93827000000E+00  0.93827000000E+00 0.  1.
     999902    2    1    2    0    0 -0.84599390591E-02 -0.14231833020E-01 -0.17352686706E-01  0.10199460183E+01  0.10196639883E+01 0.  0.
     999903    2    3    3    0    0 -0.88671100589E-01  0.48203440708E-01 -0.82203044263E-01  0.13172444536E+00  0.20195376805E-01 0.  0.
         14    1    1    2    0    0  0.84599390591E-02  0.14231833020E-01  0.17352686706E-01  0.23983981653E-01  0.00000000000E+00 0. -1.
     999901    1    3    3    0    0  0.80211161530E-01 -0.62435273728E-01  0.64850357556E-01  0.88822157298E+00  0.88000000000E+00 0. -1.
        -11    1    4    4    0    0 -0.66742679829E-01  0.26407701892E-01 -0.61386210824E-01  0.94448292893E-01  0.51100000000E-03 0.  1.
         11    1    4    4    0    0 -0.21928420760E-01  0.21795738816E-01 -0.20816833439E-01  0.37276152470E-01  0.51100000000E-03 0. -1.
</event>
<event>
 8    1  0.1086486E+005  0.1043930E+01  0.7957747E-01            NaN
         13   -1    0    0    0    0  0.00000000000E+00  0.00000000000E+00  0.74505805969E-08  0.10566000000E+00  0.10566000000E+00 0.  1.
     999900   -1    0    0    0    0 -0.00000000000E+00 -0.00000000000E+00 -0.74505805969E-08  0.93827000000E+00  0.93827000000E+00 0. -1.
     999902    2    1    2    0    0  0.12694456068E-01  0.16098892894E-01  0.13293104991E-01  0.10194957984E+01  0.10192029497E+01 0.  0.
     999903    2    3    3    0    0 -0.87165306493E-01  0.75573414888E-01 -0.54854249730E-01  0.12924119836E+00  0.19625670600E-01 0.  0.
         14    1    1    2    0    0 -0.12694456068E-01 -0.16098892894E-01 -0.13293104991E-01  0.24434201595E-01  0.00000000000E+00 0. -1.
     999901    1    3    3    0    0  0.99859762561E-01 -0.59474521993E-01  0.68147354721E-01  0.89025460004E+00  0.88000000000E+00 0.  1.
        -11    1    4    4    0    0 -0.59460147952E-01  0.62743320308E-01 -0.38986198054E-01  0.94828361778E-01  0.51100000000E-03 0.  1.
         11    1    4    4    0    0 -0.27705158540E-01  0.12830094579E-01 -0.15868051675E-01  0.34412836582E-01  0.51100000000E-03 0. -1.
</event>
<event>
 8    1  0.1086486E+005  0.1043930E+01  0.7957747E-01            NaN
         13   -1    0    0    0    0  0.00000000000E+00  0.00000000000E+00  0.74505805969E-08  0.10566000000E+00  0.10566000000E+00 0. -1.
     999900   -1    0    0    0    0 -0.00000000000E+00 -0.00000000000E+00 -0.74505805969E-08  0.93827000000E+00  0.93827000000E+00 0.  1.
     999902    2    1    2    0    0 -0.11279111107E-01  0.19636092879E-01 -0.25372583007E-02  0.10211433335E+01  0.10208890612E+01 0.  0.
     999903    2    3    3    0    0  0.12083073375E+00 -0.35548013202E-01  0.21151508948E-01  0.12925799648E+00  0.19912706077E-01 0.  0.
         14    1    1    2    0    0  0.11279111107E-01 -0.19636092879E-01  0.25372583007E-02  0.22786666510E-01  0.00000000000E+00 0.  1.
     999901    1    3    3    0    0 -0.13210984486E+00  0.55184106081E-01 -0.23688767249E-01  0.89188533701E+00  0.88000000000E+00 0. -1.
        -11    1    4    4    0    0  0.42232326308E-01 -0.65899695741E-02 -0.46498119388E-03  0.42748969729E-01  0.51100000000E-03 0.  1.
         11    1    4    4    0    0  0.78598407441E-01 -0.28958043628E-01  0.21616490142E-01  0.86509026755E-01  0.51100000000E-03 0. -1.
</event>
<event>
 7    1  0.1086486E+005  0.1043930E+01  0.7957747E-01            NaN
         13   -1    0    0    0    0  0.00000000000E+00  0.00000000000E+00  0.74505805969E-08  0.10566000000E+00  0.10566000000E+00 0.  1.
     999900   -1    0    0    0    0 -0.00000000000E+00 -0.00000000000E+00 -0.74505805969E-08  0.93827000000E+00  0.93827000000E+00 0.  1.
     999903    2    1    2    0    0 -0.65253681789E-01 -0.16286507450E-01  0.91162923694E-01  0.11535954790E+00  0.21768172234E-01 0.  0.
         14    1    1    2    0    0  0.26977998705E-01  0.33586472777E-01 -0.37501976427E-02  0.43242658915E-01  0.00000000000E+00 0. -1.
     999901    1    1    2    0    0  0.38275683084E-01 -0.17299965327E-01 -0.87412726052E-01  0.88532779319E+00  0.88000000000E+00 0.  1.
        -11    1    3    3    0    0 -0.14157345999E-01  0.36967988578E-02  0.11439291028E-01  0.18579969531E-01  0.51100000000E-03 0. -1.
         11    1    3    3    0    0 -0.51096335790E-01 -0.19983306307E-01  0.79723632666E-01  0.96779578365E-01  0.51100000000E-03 0.  1.
</event>
<event>
 8    1  0.1086486E+005  0.1043930E+01  0.7957747E-01            NaN
         13   -1    0    0    0    0  0.00000000000E+00  0.00000000000E+00  0.74505805969E-08  0.10566000000E+00  0.10566000000E+00 0. -1.
     999900   -1    0    0    0    0 -0.00000000000E+00 -0.00000000000E+00 -0.74505805969E-08  0.93827000000E+00  0.93827000000E+00 0. -1.
     999902    2    1    2    0    0  0.19187731275E-01  0.51698049891E-02  0.12333379537E-01  0.10205417943E+01  0.10202737602E+01 0.  0.
     999903    2    3    3    0    0  0.11046167221E+00  0.63447374789E-01 -0.31266731443E-01  0.13283228263E+00  0.20963215801E-01 0.  0.
         14    1    1    2    0    0 -0.19187731275E-01 -0.51698049891E-02 -0.12333379537E-01  0.23388205701E-01  0.00000000000E+00 0.  1.
     999901    1    3    3    0    0 -0.91273940940E-01 -0.58277569799E-01  0.43600110980E-01  0.88770951167E+00  0.88000000000E+00 0.  1.
        -11    1    4    4    0    0  0.52797245015E-01  0.22351629655E-01 -0.22021717462E-01  0.61419553811E-01  0.51100000000E-03 0.  1.
         11    1    4    4    0    0  0.57664427200E-01  0.41095745133E-01 -0.92450139802E-02  0.71412728815E-01  0.51100000000E-03 0. -1.
</event>
<event>
 8    1  0.1086486E+005  0.1043930E+01  0.7957747E-01            NaN
         13   -1    0    0    0    0  0.00000000000E+00  0.00000000000E+00  0.74505805969E-08  0.10566000000E+00  0.10566000000E+00 0.  1.
     999900   -1    0    0    0    0 -0.00000000000E+00 -0.00000000000E+00 -0.74505805969E-08  0.93827000000E+00  0.93827000000E+00 0.  1.
     999902    2    1    2    0    0  0.49435053510E-02  0.20847457984E-01 -0.84595948298E-02  0.10208948205E+01  0.10206349078E+01 0.  0.
     999903    2    3    3    0    0  0.90898545808E-01  0.74424591265E-01 -0.60263505503E-01  0.13357164187E+00  0.20202178120E-01 0.  0.
         14    1    1    2    0    0 -0.49435053510E-02 -0.20847457984E-01  0.84595948298E-02  0.23035179492E-01  0.00000000000E+00 0.  1.
     999901    1    3    3    0    0 -0.85955040457E-01 -0.53577133281E-01  0.51803910673E-01  0.88732317864E+00  0.88000000000E+00 0.  1.
        -11    1    4    4    0    0  0.74676827536E-02  0.21246122044E-02 -0.88576301141E-02  0.11789783500E-01  0.51100000000E-03 0.  1.
         11    1    4    4    0    0  0.83430863055E-01  0.72299979060E-01 -0.51405875389E-01  0.12178185837E+00  0.51100000000E-03 0. -1.
</event>
<event>
 8    1  0.1086486E+005  0.1043930E+01  0.7957747E-01            NaN
         13   -1    0    0    0    0  0.00000000000E+00  0.00000000000E+00  0.74505805969E-08  0.10566000000E+00  0.10566000000E+00 0. -1.
     999900   -1    0    0    0    0 -0.00000000000E+00 -0.00000000000E+00 -0.74505805969E-08  0.93827000000E+00  0.93827000000E+00 0.  1.
     999902    2    1    2    0    0 -0.21590976836E-01 -0.11802317043E-01  0.17934807457E-02  0.10192585278E+01  0.10189598937E+01 0.  0.
     999903    2    3    3    0    0 -0.41043940143E-01 -0.39860135051E-02  0.12258609363E+00  0.13075958703E+00  0.19241255755E-01 0.  0.
         14    1    1    2    0    0  0.21590976836E-01  0.11802317043E-01 -0.17934807457E-02  0.24671472220E-01  0.00000000000E+00 0.  1.
     999901    1    3    3    0    0  0.19452963308E-01 -0.78163035379E-02 -0.12079261289E+00  0.88849894075E+00  0.88000000000E+00 0.  1.
        -11    1    4    4    0    0 -0.21438332202E-01 -0.81075885022E-02  0.86451068127E-01  0.89439272024E-01  0.51100000000E-03 0.  1.
         11    1    4    4    0    0 -0.19605607941E-01  0.41215749970E-02  0.36135025504E-01  0.41320315008E-01  0.51100000000E-03 0. -1.
</event>
<event>
 8    1  0.1086486E+005  0.1043930E+01  0.7957747E-01            NaN
         13   -1    0    0    0    0  0.00000000000E+00  0.00000000000E+00  0.74505805969E-08  0.10566000000E+00  0.10566000000E+00 0.  1.
     999900   -1    0    0    0    0 -0.00000000000E+00 -0.00000000000E+00 -0.74505805969E-08  0.93827000000E+00  0.93827000000E+00 0. -1.
     999902    2    1    2    0    0 -0.30735764954E-02 -0.10997592724E-01  0.22551449364E-01  0.10186523065E+01  0.10183386273E+01 0.  0.
     999903    2    3    3    0    0 -0.11170319270E+00 -0.63929950319E-01  0.34770692660E-02  0.13018955551E+00  0.19302552838E-01 0.  0.
         14    1    1    2    0    0  0.30735764954E-02  0.10997592724E-01 -0.22551449364E-01  0.25277693459E-01  0.00000000000E+00 0. -1.
     999901    1    3    3    0    0  0.10862961620E+00  0.52932357595E-01  0.19074380098E-01  0.88846275103E+00  0.88000000000E+00 0.  1.
        -11    1    4    4    0    0 -0.44263315095E-01 -0.16786384906E-01  0.68482669606E-02  0.47834962766E-01  0.51100000000E-03 0.  1.
         11    1    4    4    0    0 -0.67439877602E-01 -0.47143565413E-01 -0.33711976946E-02  0.82354592742E-01  0.51100000000E-03 0. -1.
</event>
<event>
 8    1  0.1086486E+005  0.1043930E+01  0.7957747E-01            NaN
         13   -1    0    0    0    0  0.00000000000E+00  0.00000000000E+00  0.74505805969E-08  0.10566000000E+00  0.10566000000E+00 0.  1.
     999900   -1    0    0    0    0 -0.00000000000E+00 -0.00000000000E+00 -0.74505805969E-08  0.93827000000E+00  0.93827000000E+00 0. -1.
     999902    2    1    2    0    0 -0.99169721338E-02  0.17589530938E-01  0.11360054798E-01  0.10207612974E+01  0.10204983280E+01 0.  0.
     999903    2    3    3    0    0  0.74339050362E-01 -0.98840072614E-01  0.29160828836E-01  0.12892510310E+00  0.21809949768E-01 0.  0.
         14    1    1    2    0    0  0.99169721338E-02 -0.17589530938E-01 -0.11360054798E-01  0.23168702595E-01  0.00000000000E+00 0. -1.
     999901    1    3    3    0    0 -0.84256022496E-01  0.11642960355E+00 -0.17800774038E-01  0.89183619430E+00  0.88000000000E+00 0. -1.
        -11    1    4    4    0    0  0.37475446161E-01 -0.48918667310E-01  0.25699524218E-01  0.66769542027E-01  0.51100000000E-03 0.  1.
         11    1    4    4    0    0  0.36863604201E-01 -0.49921405303E-01  0.34613046176E-02  0.62155561077E-01  0.51100000000E-03 0. -1.
</event>
<event>
 8    1  0.1086486E+005  0.1043930E+01  0.7957747E-01            NaN
         13   -1    0    0    0    0  0.00000000000E+00  0.00000000000E+00  0.74505805969E-08  0.10566000000E+00  0.10566000000E+00 0.  1.
     999900   -1    0    0    0    0 -0.00000000000E+00 -0.00000000000E+00 -0.74505805969E-08  0.93827000000E+00  0.93827000000E+00 0. -1.
     999902    2    1    2    0    0 -0.11296122106E-01 -0.18269471841E-02  0.21336877531E-01  0.10197183819E+01  0.10194309078E+01 0.  0.
     999903    2    3    3    0    0  0.11594724522E+00 -0.24086547909E-02 -0.49706270349E-01  0.12773276438E+00  0.19884176944E-01 0.  0.
         14    1    1    2    0    0  0.11296122106E-01  0.18269471841E-02 -0.21336877531E-01  0.24211618150E-01  0.00000000000E+00 0. -1.
     999901    1    3    3    0    0 -0.12724336732E+00  0.58170760683E-03  0.71043147880E-01  0.89198561747E+00  0.88000000000E+00 0.  1.
        -11    1    4    4    0    0  0.75404506733E-01  0.26406459074E-02 -0.41306332665E-01  0.86019107678E-01  0.51100000000E-03 0.  1.
         11    1    4    4    0    0  0.40542738486E-01 -0.50493006983E-02 -0.83999376834E-02  0.41713656703E-01  0.51100000000E-03 0. -1.
</event>
<event>
 8    1  0.1086486E+005  0.1043930E+01  0.7957747E-01            NaN
         13   -1    0    0    0    0  0.00000000000E+00  0.00000000000E+00  0.74505805969E-08  0.10566000000E+00  0.10566000000E+00 0. -1.
     999900   -1    0    0    0    0 -0.00000000000E+00 -0.00000000000E+00 -0.74505805969E-08  0.93827000000E+00  0.93827000000E+00 0.  1.
     999902    2    1    2    0    0 -0.10021390214E-01 -0.18733808467E-01  0.14563121197E-02  0.10226343505E+01  0.10224125929E+01 0.  0.
     999903    2    3    3    0    0 -0.41303816790E-01  0.39584072238E-01  0.11860754420E+00  0.13240742631E+00  0.13822913774E-01 0.  0.
         14    1    1    2    0    0  0.10021390214E-01  0.18733808467E-01 -0.14563121197E-02  0.21295649473E-01  0.00000000000E+00 0. -1.
     999901    1    3    3    0    0  0.31282426577E-01 -0.58317880705E-01 -0.11715123208E+00  0.89022692422E+00  0.88000000000E+00 0.  1.
        -11    1    4    4    0    0 -0.18250806649E-01  0.19634791571E-01  0.40616157879E-01  0.48667755087E-01  0.51100000000E-03 0. -1.
         11    1    4    4    0    0 -0.23053010141E-01  0.19949280667E-01  0.77991386318E-01  0.83739671223E-01  0.51100000000E-03 0.  1.
</event>
<event>
 8    1  0.1086486E+005  0.1043930E+01  0.7957747E-01            NaN
         13   -1    0    0    0    0  0.00000000000E+00  0.00000000000E+00  0.74505805969E-08  0.10566000000E+00  0.10566000000E+00 0.  1.
     999900   -1    0    0    0    0 -0.00000000000E+00 -0.00000000000E+00 -0.74505805969E-08  0.93827000000E+00  0.93827000000E+00 0.  1.
     999902    2    1    2    0    0 -0.22605588858E-01 -0.49089865804E-02 -0.17184107378E-02  0.10207337992E+01  0.10204701980E+01 0.  0.
     999903    2    3    3    0    0 -0.10359919371E+00  0.48943268939E-01  0.64378490939E-01  0.13291127758E+00  0.19813659462E-01 0.  0.
         14    1    1    2    0    0  0.22605588858E-01  0.49089865804E-02  0.17184107378E-02  0.23196200817E-01  0.00000000000E+00 0.  1.
     999901    1    3    3    0    0  0.80993604850E-01 -0.53852255520E-01 -0.66096901677E-01  0.88782252160E+00  0.88000000000E+00 0. -1.
        -11    1    4    4    0    0 -0.74046073919E-01  0.44327454842E-01  0.45901033210E-01  0.97749221410E-01  0.51100000000E-03 0.  1.
         11    1    4    4    0    0 -0.29553119789E-01  0.46158140975E-02  0.18477457729E-01  0.35162056171E-01  0.51100000000E-03 0. -1.
</event>
<event>
 8    1  0.1086486E+005  0.1043930E+01  0.7957747E-01            NaN
         13   -1    0    0    0    0  0.00000000000E+00  0.00000000000E+00  0.74505805969E-08  0.10566000000E+00  0.10566000000E+00 0. -1.
     999900   -1    0    0    0    0 -0.00000000000E+00 -0.00000000000E+00 -0.74505805969E-08  0.93827000000E+00  0.93827000000E+00 0.  1.
     999902    2    1    2    0    0 -0.16222688015E-01  0.17102073300E-01  0.28980940927E-03  0.10203558509E+01  0.10200834877E+01 0.  0.
     999903    2    3    3    0    0  0.26594899535E-01 -0.19272432436E-01  0.12394408446E+00  0.12993638219E+00  0.21038346224E-01 0.  0.
         14    1    1    2    0    0  0.16222688015E-01 -0.17102073300E-01 -0.28980940927E-03  0.23574149128E-01  0.00000000000E+00 0. -1.
     999901    1    3    3    0    0 -0.42817587550E-01  0.36374505736E-01 -0.12365427505E+00  0.89041946868E+00  0.88000000000E+00 0.  1.
        -11    1    4    4    0    0  0.22261412476E-01 -0.67176157888E-02  0.98740334818E-01  0.10144265221E+00  0.51100000000E-03 0. -1.
         11    1    4    4    0    0  0.43334870589E-02 -0.12554816647E-01  0.25203749637E-01  0.28493729975E-01  0.51100000000E-03 0.  1.
</event>
<event>
 8    1  0.1086486E+005  0.1043930E+01  0.7957747E-01            NaN
         13   -1    0    0    0    0  0.00000000000E+00  0.00000000000E+00  0.74505805969E-08  0.10566000000E+00  0.10566000000E+00 0.  1.
     999900   -1    0    0    0    0 -0.00000000000E+00 -0.00000000000E+00 -0.74505805969E-08  0.93827000000E+00  0.93827000000E+00 0.  1.
     999902    2    1    2    0    0  0.12276251567E-01  0.20548105721E-01  0.20486133403E-03  0.10199931462E+01  0.10197122365E+01 0.  0.
     999903    2    3    3    0    0 -0.71878189749E-01 -0.58215439704E-01  0.86662035282E-01  0.12827541676E+00  0.19717063802E-01 0.  0.
         14    1    1    2    0    0 -0.12276251567E-01 -0.20548105721E-01 -0.20486133403E-03  0.23936853791E-01  0.00000000000E+00 0.  1.
     999901    1    3    3    0    0  0.84154441316E-01  0.78763545425E-01 -0.86457173948E-01  0.89171772945E+00  0.88000000000E+00 0.  1.
        -11    1    4    4    0    0 -0.21663363678E-01 -0.26178220932E-01  0.22673105026E-01  0.40852556707E-01  0.51100000000E-03 0. -1.
         11    1    4    4    0    0 -0.50214826071E-01 -0.32037218772E-01  0.63988930256E-01  0.87422860056E-01  0.51100000000E-03 0.  1.
</event>
<event>
 8    1  0.1086486E+005  0.1043930E+01  0.7957747E-01            NaN
         13   -1    0    0    0    0  0.00000000000E+00  0.00000000000E+00  0.74505805969E-08  0.10566000000E+00  0.10566000000E+00 0. -1.
     999900   -1    0    0    0    0 -0.00000000000E+00 -0.00000000000E+00 -0.74505805969E-08  0.93827000000E+00  0.93827000000E+00 0. -1.
     999902    2    1    2    0    0  0.54414178294E-02 -0.22316396945E-01 -0.60446717418E-02  0.10201777652E+01  0.10199012227E+01 0.  0.
     999903    2    3    3    0    0  0.87798757444E-01  0.90939010454E-01  0.14688289049E-01  0.12886447891E+00  0.20292428585E-01 0.  0.
         14    1    1    2    0    0 -0.54414178294E-02  0.22316396945E-01  0.60446717418E-02  0.23752234780E-01  0.00000000000E+00 0. -1.
     999901    1    3    3    0    0 -0.82357339615E-01 -0.11325540740E+00 -0.20732960790E-01  0.89131328631E+00  0.88000000000E+00 0. -1.
        -11    1    4    4    0    0  0.69189043589E-01  0.61070158332E-01  0.53056944913E-02  0.92439707413E-01  0.51100000000E-03 0. -1.
         11    1    4    4    0    0  0.18609713855E-01  0.29868852122E-01  0.93825945573E-02  0.36424771495E-01  0.51100000000E-03 0.  1.
</event>
<event>
 8    1  0.1086486E+005  0.1043930E+01  0.7957747E-01            NaN
         13   -1    0    0    0    0  0.00000000000E+00  0.00000000000E+00  0.74505805969E-08  0.10566000000E+00  0.10566000000E+00 0.  1.
     999900   -1    0    0    0    0 -0.00000000000E+00 -0.00000000000E+00 -0.74505805969E-08  0.93827000000E+00  0.93827000000E+00 0. -1.
     999902    2    1    2    0    0  0.18717599007E-01 -0.98928964774E-02  0.99318158287E-02  0.10205449860E+01  0.10202770259E+01 0.  0.
     999903    2    3    3    0    0  0.87551784878E-01 -0.94211107905E-01 -0.27303997155E-01  0.13305740205E+00  0.20438103932E-01 0.  0.
         14    1    1    2    0    0 -0.18717599007E-01  0.98928964774E-02 -0.99318158287E-02  0.23385013983E-01  0.00000000000E+00 0. -1.
     999901    1    3    3    0    0 -0.68834185870E-01  0.84318211428E-01  0.37235812983E-01  0.88748758396E+00  0.88000000000E+00 0. -1.
        -11    1    4    4    0    0  0.30345170128E-01 -0.42334357379E-01 -0.18735635673E-01  0.55356231174E-01  0.51100000000E-03 0.  1.
         11    1    4    4    0    0  0.57206614750E-01 -0.51876750526E-01 -0.85683614818E-02  0.77701170878E-01  0.51100000000E-03 0. -1.
</event>
<event>
 7    1  0.1086486E+005  0.1043930E+01  0.7957747E-01            NaN
         13   -1    0    0    0    0  0.00000000000E+00  0.00000000000E+00  0.74505805969E-08  0.10566000000E+00  0.10566000000E+00 0.  1.
     999900   -1    0    0    0    0 -0.00000000000E+00 -0.00000000000E+00 -0.74505805969E-08  0.93827000000E+00  0.93827000000E+00 0. -1.
     999902    2    1    2    0    0  0.12112310658E-01 -0.17017608604E-01  0.12057034723E-01  0.10198119744E+01  0.10195267451E+01 0.  0.
         14    1    1    2    0    0 -0.12112310658E-01  0.17017608604E-01 -0.12057034723E-01  0.24118025591E-01  0.00000000000E+00 0. -1.
     999901    1    3    3    0    0  0.24623389929E-01  0.14569789152E-01 -0.10296943843E+00  0.88646561994E+00  0.88000000000E+00 0. -1.
        -11    1    3    3    0    0 -0.98140614151E-02 -0.30613260819E-01  0.19144306412E-01  0.37419956286E-01  0.51100000000E-03 0.  1.
         11    1    3    3    0    0 -0.26970178563E-02 -0.97413693672E-03  0.95882166742E-01  0.95926398182E-01  0.51100000000E-03 0. -1.
</event>
<event>
 8    1  0.1086486E+005  0.1043930E+01  0.7957747E-01            NaN
         13   -1    0    0    0    0  0.00000000000E+00  0.00000000000E+00  0.74505805969E-08  0.10566000000E+00  0.10566000000E+00 0.  1.
     999900   -1    0    0    0    0 -0.00000000000E+00 -0.00000000000E+00 -0.74505805969E-08  0.93827000000E+00  0.93827000000E+00 0. -1.
     999902    2    1    2    0    0  0.86786365545E-02 -0.88933709821E-02  0.19846864911E-01  0.10205140049E+01  0.10202453261E+01 0.  0.
     999903    2    3    3    0    0  0.79491906192E-01 -0.27520361397E-02 -0.10024006386E+00  0.12951843498E+00  0.20010440893E-01 0.  0.
         14    1    1    2    0    0 -0.86786365545E-02  0.88933709821E-02 -0.19846864911E-01  0.23415995103E-01  0.00000000000E+00 0. -1.
     999901    1    3    3    0    0 -0.70813269638E-01 -0.61413348423E-02  0.12008692877E+00  0.89099556992E+00  0.88000000000E+00 0.  1.
        -11    1    4    4    0    0  0.43237098808E-01 -0.63447528470E-02 -0.40731315586E-01  0.59741139865E-01  0.51100000000E-03 0.  1.
         11    1    4    4    0    0  0.36254807384E-01  0.35927167072E-02 -0.59508748271E-01  0.69777295115E-01  0.51100000000E-03 0. -1.
</event>
<event>
 8    1  0.1086486E+005  0.1043930E+01  0.7957747E-01            NaN
         13   -1    0    0    0    0  0.00000000000E+00  0.00000000000E+00  0.74505805969E-08  0.10566000000E+00  0.10566000000E+00 0.  1.
     999900   -1    0    0    0    0 -0.00000000000E+00 -0.00000000000E+00 -0.74505805969E-08  0.93827000000E+00  0.93827000000E+00 0.  1.
     999902    2    1    2    0    0  0.11136234798E-01 -0.20735807892E-01 -0.26518695142E-02  0.10202440998E+01  0.10199691179E+01 0.  0.
     999903    2    3    3    0    0  0.90980389191E-01 -0.47078756504E-01  0.81203571335E-01  0.13226843864E+00  0.20176207038E-01 0.  0.
         14    1    1    2    0    0 -0.11136234798E-01  0.20735807892E-01  0.26518695142E-02  0.23685900159E-01  0.00000000000E+00 0.  1.
     999901    1    3    3    0    0 -0.79844154393E-01  0.26342948612E-01 -0.83855440849E-01  0.88797566120E+00  0.88000000000E+00 0.  1.
        -11    1    4    4    0    0  0.20250166170E-01 -0.14578837163E-01  0.10381732897E-01  0.27030597883E-01  0.51100000000E-03 0. -1.
         11    1    4    4    0    0  0.70730223021E-01 -0.32499919341E-01  0.70821838438E-01  0.10523784075E+00  0.51100000000E-03 0.  1.
</event>
<event>
 8    1  0.1086486E+005  0.1043930E+01  0.7957747E-01            NaN
         13   -1    0    0    0    0  0.00000000000E+00  0.00000000000E+00  0.74505805969E-08  0.10566000000E+00  0.10566000000E+00 0. -1.
     999900   -1    0    0    0    0 -0.00000000000E+00 -0.00000000000E+00 -0.74505805969E-08  0.93827000000E+00  0.93827000000E+00 0. -1.
     999902    2    1    2    0    0  0.17345712517E-01  0.14111777838E-01 -0.72877211569E-02  0.10204113500E+01  0.10201402827E+01 0.  0.
     999903    2    3    3    0    0 -0.64609279953E-02  0.47303033967E-01 -0.12158804437E+00  0.13207977934E+00  0.19547249498E-01 0.  0.
         14    1    1    2    0    0 -0.17345712517E-01 -0.14111777838E-01  0.72877211569E-02  0.23518649964E-01  0.00000000000E+00 0. -1.
     999901    1    3    3    0    0  0.23806640512E-01 -0.33191256129E-01  0.11430032321E+00  0.88833157070E+00  0.88000000000E+00 0.  1.
        -11    1    4    4    0    0 -0.91085463210E-03  0.19008414023E-02 -0.26212739880E-01  0.26302313723E-01  0.51100000000E-03 0. -1.
         11    1    4    4    0    0 -0.55500733632E-02  0.45402192565E-01 -0.95375304489E-01  0.10577746561E+00  0.51100000000E-03 0.  1.
</event>
<event>
 8    1  0.1086486E+005  0.1043930E+01  0.7957747E-01            NaN
         13   -1    0    0    0    0  0.00000000000E+00  0.00000000000E+00  0.74505805969E-08  0.10566000000E+00  0.10566000000E+00 0. -1.
     999900   -1    0    0    0    0 -0.00000000000E+00 -0.00000000000E+00 -0.74505805969E-08  0.93827000000E+00  0.93827000000E+00 0. -1.
     999902    2    1    2    0    0  0.37738162902E-02 -0.14139172071E-01  0.18257812074E-01  0.10205311629E+01  0.10202628822E+01 0.  0.
     999903    2    3    3    0    0  0.54142076656E-01 -0.51829785741E-01 -0.10296978850E+00  0.12999555150E+00  0.26045631326E-01 0.  0.
         14    1    1    2    0    0 -0.37738162902E-02  0.14139172071E-01 -0.18257812074E-01  0.23398837108E-01  0.00000000000E+00 0.  1.
     999901    1    3    3    0    0 -0.50368260366E-01  0.37690613670E-01  0.12122760058E+00  0.89053561139E+00  0.88000000000E+00 0.  1.
        -11    1    4    4    0    0  0.45795689499E-01 -0.46019889224E-01 -0.69932711853E-01  0.95424947939E-01  0.51100000000E-03 0. -1.
         11    1    4    4    0    0  0.83463871572E-02 -0.58098965165E-02 -0.33037076651E-01  0.34570603564E-01  0.51100000000E-03 0.  1.
</event>
<event>
 8    1  0.1086486E+005  0.1043930E+01  0.7957747E-01            NaN
         13   -1    0    0    0    0  0.00000000000E+00  0.00000000000E+00  0.74505805969E-08  0.10566000000E+00  0.10566000000E+00 0.  1.
     999900   -1    0    0    0    0 -0.00000000000E+00 -0.00000000000E+00 -0.74505805969E-08  0.93827000000E+00  0.93827000000E+00 0. -1.
     999902    2    1    2    0    0 -0.12993425310E-01 -0.15867608959E-01 -0.33086639426E-02  0.10231560410E+01  0.10229451241E+01 0.  0.
     999903    2    3    3    0    0 -0.59616830956E-01  0.61786404216E-02  0.11739707746E+00  0.13342031896E+00  0.20653464222E-01 0.  0.
         14    1    1    2    0    0  0.12993425310E-01  0.15867608959E-01  0.33086639426E-02  0.20773958998E-01  0.00000000000E+00 0. -1.
     999901    1    3    3    0    0  0.46623405646E-01 -0.22046249380E-01 -0.12070574141E+00  0.88973572204E+00  0.88000000000E+00 0. -1.
        -11    1    4    4    0    0 -0.48363947858E-01 -0.27923545241E-02  0.97330209479E-01  0.10872120076E+00  0.51100000000E-03 0.  1.
         11    1    4    4    0    0 -0.11252883098E-01  0.89709949457E-02  0.20066867985E-01  0.24699118204E-01  0.51100000000E-03 0. -1.
</event>
<event>
 8    1  0.1086486E+005  0.1043930E+01  0.7957747E-01            NaN
         13   -1    0    0    0    0  0.00000000000E+00  0.00000000000E+00  0.74505805969E-08  0.10566000000E+00  0.10566000000E+00 0. -1.
     999900   -1    0    0    0    0 -0.00000000000E+00 -0.00000000000E+00 -0.74505805969E-08  0.93827000000E+00  0.93827000000E+00 0. -1.
     999902    2    1    2    0    0 -0.67612886053E-02 -0.18286665949E-01 -0.14448833147E-01  0.10196630275E+01  0.10193742216E+01 0.  0.
     999903    2    3    3    0    0 -0.19204204718E-01 -0.12890102593E+00  0.11313792731E-01  0.13227693583E+00  0.19619120304E-01 0.  0.
         14    1    1    2    0    0  0.67612886053E-02  0.18286665949E-01  0.14448833147E-01  0.24266972503E-01  0.00000000000E+00 0. -1.
     999901    1    3    3    0    0  0.12442916113E-01  0.11061435998E+00 -0.25762625878E-01  0.88738609167E+00  0.88000000000E+00 0.  1.
        -11    1    4    4    0    0 -0.13385871472E-01 -0.31729102497E-01  0.34075636256E-02  0.34609104456E-01  0.51100000000E-03 0.  1.
         11    1    4    4    0    0 -0.58183332457E-02 -0.97171923433E-01  0.79062291050E-02  0.97667831373E-01  0.51100000000E-03 0. -1.
</event>
<event>
 8    1  0.1086486E+005  0.1043930E+01  0.7957747E-01            NaN
         13   -1    0    0    0    0  0.00000000000E+00  0.00000000000E+00  0.74505805969E-08  0.10566000000E+00  0.10566000000E+00 0. -1.
     999900   -1    0    0    0    0 -0.00000000000E+00 -0.00000000000E+00 -0.74505805969E-08  0.93827000000E+00  0.93827000000E+00 0.  1.
     999902    2    1    2    0    0 -0.86161557669E-02 -0.18553789556E-01  0.10618704765E-01  0.10208813962E+01  0.10206211770E+01 0.  0.
     999903    2    3    3    0    0  0.87550173920E-01 -0.20581253878E-01 -0.91363114512E-01  0.12978523693E+00  0.20208118813E-01 0.  0.
         14    1    1    2    0    0  0.86161557669E-02  0.18553789556E-01 -0.10618704765E-01  0.23048603818E-01  0.00000000000E+00 0. -1.
     999901    1    3    3    0    0 -0.96166329687E-01  0.20274643220E-02  0.10198181928E+00  0.89109615926E+00  0.88000000000E+00 0. -1.
        -11    1    4    4    0    0  0.19108860537E-01 -0.51407842194E-02 -0.33180104034E-01  0.38636208900E-01  0.51100000000E-03 0. -1.
         11    1    4    4    0    0  0.68441313383E-01 -0.15440469658E-01 -0.58183010478E-01  0.91149028026E-01  0.51100000000E-03 0.  1.
</event>
<event>
 8    1  0.1086486E+005  0.1043930E+01  0.7957747E-01            NaN
         13   -1    0    0    0    0  0.00000000000E+00  0.00000000000E+00  0.74505805969E-08  0.10566000000E+00  0.10566000000E+00 0.  1.
     999900   -1    0    0    0    0 -0.00000000000E+00 -0.00000000000E+00 -0.74505805969E-08  0.93827000000E+00  0.93827000000E+00 0.  1.
     999902    2    1    2    0    0  0.47131915192E-02  0.20267635346E-01 -0.10958765113E-01  0.10204122248E+01  0.10201411779E+01 0.  0.
     999903    2    3    3    0    0 -0.12729470660E+00  0.13100684620E-01 -0.16972755863E-01  0.13051693972E+00  0.19262057184E-01 0.  0.
         14    1    1    2    0    0 -0.47131915192E-02 -0.20267635346E-01  0.10958765113E-01  0.23517775184E-01  0.00000000000E+00 0. -1.
     999901    1    3    3    0    0  0.13200789812E+00  0.71669507260E-02  0.60139907498E-02  0.88989528509E+00  0.88000000000E+00 0. -1.
        -11    1    4    4    0    0 -0.87265420582E-01 -0.48637973858E-04 -0.10912600801E-01  0.87946585904E-01  0.51100000000E-03 0.  1.
         11    1    4    4    0    0 -0.40029286017E-01  0.13149322594E-01 -0.60601550615E-02  0.42570353817E-01  0.51100000000E-03 0. -1.
</event>
<event>
 8    1  0.1086486E+005  0.1043930E+01  0.7957747E-01            NaN
         13   -1    0    0    0    0  0.00000000000E+00  0.00000000000E+00  0.74505805969E-08  0.10566000000E+00  0.10566000000E+00 0. -1.
     999900   -1    0    0    0    0 -0.00000000000E+00 -0.00000000000E+00 -0.74505805969E-08  0.93827000000E+00  0.93827000000E+00 0.  1.
     999902    2    1    2    0    0 -0.75385945688E-02  0.47702297820E-03 -0.21995682539E-01  0.10206734308E+01  0.10204084400E+01 0.  0.
     999903    2    3    3    0    0 -0.68345822421E-01 -0.58963572861E-01 -0.95992579807E-01  0.13348334737E+00  0.21339500463E-01 0.  0.
         14    1    1    2    0    0  0.75385945688E-02 -0.47702297820E-03  0.21995682539E-01  0.23256569166E-01  0.00000000000E+00 0. -1.
     999901    1    3    3    0    0  0.60807227853E-01  0.59440595840E-01  0.73996897267E-01  0.88719008346E+00  0.88000000000E+00 0. -1.
        -11    1    4    4    0    0 -0.24140091633E-01 -0.19165811565E-01 -0.19086642660E-01  0.36257873711E-01  0.51100000000E-03 0. -1.
         11    1    4    4    0    0 -0.44205730788E-01 -0.39797761297E-01 -0.76905937147E-01  0.97225473659E-01  0.51100000000E-03 0.  1.
</event>
<event>
 8    1  0.1086486E+005  0.1043930E+01  0.7957747E-01            NaN
         13   -1    0    0    0    0  0.00000000000E+00  0.00000000000E+00  0.74505805969E-08  0.10566000000E+00  0.10566000000E+00 0. -1.
     999900   -1    0    0    0    0 -0.00000000000E+00 -0.00000000000E+00 -0.74505805969E-08  0.93827000000E+00  0.93827000000E+00 0.  1.
     999902    2    1    2    0    0  0.13622654491E-01  0.11829358339E-01 -0.15908975639E-01  0.10198757709E+01  0.10195920665E+01 0.  0.
     999903    2    3    3    0    0  0.12338536061E+00  0.37680419096E-01 -0.23656342951E-01  0.13264629056E+00  0.19790266356E-01 0.  0.
         14    1    1    2    0    0 -0.13622654491E-01 -0.11829358339E-01  0.15908975639E-01  0.24054229150E-01  0.00000000000E+00 0. -1.
     999901    1    3    3    0    0 -0.10976270611E+00 -0.25851060756E-01  0.77473673118E-02  0.88722948029E+00  0.88000000000E+00 0. -1.
        -11    1    4    4    0    0  0.75695783587E-01  0.30691542121E-01 -0.85304553729E-02  0.82127049141E-01  0.51100000000E-03 0.  1.
         11    1    4    4    0    0  0.47689577018E-01  0.69888769745E-02 -0.15125887578E-01  0.50519241419E-01  0.51100000000E-03 0. -1.
</event>
<event>
 8    1  0.1086486E+005  0.1043930E+01  0.7957747E-01            NaN
         13   -1    0    0    0    0  0.00000000000E+00  0.00000000000E+00  0.74505805969E-08  0.10566000000E+00  0.10566000000E+00 0.  1.
     999900   -1    0    0    0    0 -0.00000000000E+00 -0.00000000000E+00 -0.74505805969E-08  0.93827000000E+00  0.93827000000E+00 0. -1.
     999902    2    1    2    0    0  0.12257465100E-01 -0.17807746751E-01 -0.91566724500E-02  0.10204522244E+01  0.10201821094E+01 0.  0.
     999903    2    3    3    0    0 -0.11917627499E+00  0.95936650708E-02  0.43305952507E-01  0.12872469182E+00  0.19990443538E-01 0.  0.
         14    1    1    2    0    0 -0.12257465100E-01  0.17807746751E-01  0.91566724500E-02  0.23477775563E-01  0.00000000000E+00 0.  1.
     999901    1    3    3    0    0  0.13143374009E+00 -0.27401411822E-01 -0.52462624957E-01  0.89172753261E+00  0.88000000000E+00 0. -1.
        -11    1    4    4    0    0 -0.10020537985E+00  0.13648595446E-01  0.31128370818E-01  0.10581417154E+00  0.51100000000E-03 0.  1.
         11    1    4    4    0    0 -0.18970895136E-01 -0.40549303756E-02  0.12177581690E-01  0.22910520279E-01  0.51100000000E-03 0. -1.
</event>
<event>
 8    1  0.1086486E+005  0.1043930E+01  0.7957747E-01            NaN
         13   -1    0    0    0    0  0.00000000000E+00  0.00000000000E+00  0.74505805969E-08  0.10566000000E+00  0.10566000000E+00 0. -1.
     999900   -1    0    0    0    0 -0.00000000000E+00 -0.00000000000E+00 -0.74505805969E-08  0.93827000000E+00  0.93827000000E+00 0. -1.
     999902    2    1    2    0    0 -0.15076095258E-01 -0.24762500226E-02  0.11518600997E-01  0.10247962959E+01  0.10246176602E+01 0.  0.
     999903    2    3    3    0    0  0.34564972730E-02 -0.13122033341E+00 -0.22295189821E-01  0.13459302227E+00  0.19684584838E-01 0.  0.
         14    1    1    2    0    0  0.15076095258E-01  0.24762500226E-02 -0.11518600997E-01  0.19133704067E-01  0.00000000000E+00 0.  1.
     999901    1    3    3    0    0 -0.18532592531E-01  0.12874408339E+00  0.33813790817E-01  0.89020327366E+00  0.88000000000E+00 0.  1.
        -11    1    4    4    0    0  0.43963675253E-02 -0.85904405146E-01 -0.52941536722E-02  0.86181111939E-01  0.51100000000E-03 0.  1.
         11    1    4    4    0    0 -0.93987025233E-03 -0.45315928266E-01 -0.17001036149E-01  0.48411910330E-01  0.51100000000E-03 0. -1.
</event>
<event>
 8    1  0.1086486E+005  0.1043930E+01  0.7957747E-01            NaN
         13   -1    0    0    0    0  0.00000000000E+00  0.00000000000E+00  0.74505805969E-08  0.10566000000E+00  0.10566000000E+00 0.  1.
     999900   -1    0    0    0    0 -0.00000000000E+00 -0.00000000000E+00 -0.74505805969E-08  0.93827000000E+00  0.93827000000E+00 0. -1.
     999902    2    1    2    0    0 -0.15492989388E-01 -0.18177676626E-01 -0.66679127875E-02  0.10191323850E+01  0.10188306515E+01 0.  0.
     999903    2    3    3    0    0  0.17721596630E-01  0.12010695373E+00  0.32487603869E-01  0.12685496056E+00  0.17233725448E-01 0.  0.
         14    1    1    2    0    0  0.15492989388E-01  0.18177676626E-01  0.66679127875E-02  0.24797614979E-01  0.00000000000E+00 0.  1.
     999901    1    3    3    0    0 -0.33214586018E-01 -0.13828463035E+00 -0.39155516656E-01  0.89227742446E+00  0.88000000000E+00 0. -1.
        -11    1    4    4    0    0 -0.51504976699E-04  0.24793332955E-01  0.66221693150E-03  0.24807492095E-01  0.51100000000E-03 0. -1.
         11    1    4    4    0    0  0.17773101607E-01  0.95313620773E-01  0.31825386937E-01  0.10204746847E+00  0.51100000000E-03 0.  1.
</event>
<event>
 8    1  0.1086486E+005  0.1043930E+01  0.7957747E-01            NaN
         13   -1    0    0    0    0  0.00000000000E+00  0.00000000000E+00  0.74505805969E-08  0.10566000000E+00  0.10566000000E+00 0. -1.
     999900   -1    0    0    0    0 -0.00000000000E+00 -0.00000000000E+00 -0.74505805969E-08  0.93827000000E+00  0.93827000000E+00 0.  1.
     999902    2    1    2    0    0 -0.11965668204E-01  0.74583753734E-02  0.17979514150E-01  0.10210812034E+01  0.10208255269E+01 0.  0.
     999903    2    3    3    0    0 -0.12322579958E+00  0.10526764891E-01  0.46374000891E-01  0.13361600476E+00  0.20181137438E-01 0.  0.
         14    1    1    2    0    0  0.11965668204E-01 -0.74583753734E-02 -0.17979514150E-01  0.22848796639E-01  0.00000000000E+00 0.  1.
     999901    1    3    3    0    0  0.11126013138E+00 -0.30683895171E-02 -0.28394486741E-01  0.88746519860E+00  0.88000000000E+00 0. -1.
        -11    1    4    4    0    0 -0.33160061924E-01  0.11807970349E-01  0.14364895384E-01  0.38021430943E-01  0.51100000000E-03 0. -1.
         11    1    4    4    0    0 -0.90065737658E-01 -0.12812054585E-02  0.32009105506E-01  0.95594573819E-01  0.51100000000E-03 0.  1.
</event>
<event>
 8    1  0.1086486E+005  0.1043930E+01  0.7957747E-01            NaN
         13   -1    0    0    0    0  0.00000000000E+00  0.00000000000E+00  0.74505805969E-08  0.10566000000E+00  0.10566000000E+00 0.  1.
     999900   -1    0    0    0    0 -0.00000000000E+00 -0.00000000000E+00 -0.74505805969E-08  0.93827000000E+00  0.93827000000E+00 0.  1.
     999902    2    1    2    0    0  0.22521870123E-01  0.83181232865E-03  0.60122606804E-02  0.10206046099E+01  0.10203380302E+01 0.  0.
     999903    2    3    3    0    0  0.33162615861E-01  0.90854497102E-01 -0.86232403587E-01  0.13115175148E+00  0.20259707612E-01 0.  0.
         14    1    1    2    0    0 -0.22521870123E-01 -0.83181232865E-03 -0.60122606804E-02  0.23325390117E-01  0.00000000000E+00 0. -1.
     999901    1    3    3    0    0 -0.10640745738E-01 -0.90022684773E-01  0.92244664267E-01  0.88945285841E+00  0.88000000000E+00 0.  1.
        -11    1    4    4    0    0  0.13174615514E-01  0.60836035476E-01 -0.48124799964E-01  0.78681962348E-01  0.51100000000E-03 0.  1.
         11    1    4    4    0    0  0.19988000347E-01  0.30018461626E-01 -0.38107603623E-01  0.52469789128E-01  0.51100000000E-03 0. -1.
</event>
<event>
 8    1  0.1086486E+005  0.1043930E+01  0.7957747E-01            NaN
         13   -1    0    0    0    0  0.00000000000E+00  0.00000000000E+00  0.74505805969E-08  0.10566000000E+00  0.10566000000E+00 0. -1.
     999900   -1    0    0    0    0 -0.00000000000E+00 -0.00000000000E+00 -0.74505805969E-08  0.93827000000E+00  0.93827000000E+00 0. -1.
     999902    2    1    2    0    0 -0.16749934828E-01 -0.15643398169E-01  0.38259117652E-02  0.10206939542E+01  0.10204294362E+01 0.  0.
     999903    2    3    3    0    0 -0.25005112861E-01 -0.11156487694E+00  0.65641277464E-01  0.13328749858E+00  0.19616384393E-01 0.  0.
         14    1    1    2    0    0  0.16749934828E-01  0.15643398169E-01 -0.38259117652E-02  0.23236045788E-01  0.00000000000E+00 0.  1.
     999901    1    3    3    0    0  0.82551780327E-02  0.95921478767E-01 -0.61815365699E-01  0.88740645563E+00  0.88000000000E+00 0. -1.
        -11    1    4    4    0    0 -0.61231361418E-02 -0.58918864256E-01  0.41718089106E-01  0.72454022946E-01  0.51100000000E-03 0. -1.
         11    1    4    4    0    0 -0.18881976719E-01 -0.52646012681E-01  0.23923188358E-01  0.60833475638E-01  0.51100000000E-03 0.  1.
</event>
<event>
 8    1  0.1086486E+005  0.1043930E+01  0.7957747E-01            NaN
         13   -1    0    0    0    0  0.00000000000E+00  0.00000000000E+00  0.74505805969E-08  0.10566000000E+00  0.10566000000E+00 0.  1.
     999900   -1    0    0    0    0 -0.00000000000E+00 -0.00000000000E+00 -0.74505805969E-08  0.93827000000E+00  0.93827000000E+00 0. -1.
     999902    2    1    2    0    0  0.11655719305E-02 -0.13729901634E-01 -0.19525591233E-01  0.10200319359E+01  0.10197519467E+01 0.  0.
     999903    2    3    3    0    0 -0.30869066716E-01  0.70982272304E-01 -0.10429406010E+00  0.13133172555E+00  0.19477908073E-01 0.  0.
         14    1    1    2    0    0 -0.11655719305E-02  0.13729901634E-01  0.19525591233E-01  0.23898064144E-01  0.00000000000E+00 0.  1.
     999901    1    3    3    0    0  0.32034638647E-01 -0.84712173938E-01  0.84768468864E-01  0.88870021031E+00  0.88000000000E+00 0.  1.
        -11    1    4    4    0    0 -0.95727405458E-02  0.29069255732E-01 -0.26764995622E-01  0.40660608727E-01  0.51100000000E-03 0.  1.
         11    1    4    4    0    0 -0.21296326171E-01  0.41913016572E-01 -0.77529064474E-01  0.90671116822E-01  0.51100000000E-03 0. -1.
</event>
<event>
 8    1  0.1086486E+005  0.1043930E+01  0.7957747E-01            NaN
         13   -1    0    0    0    0  0.00000000000E+00  0.00000000000E+00  0.74505805969E-08  0.10566000000E+00  0.10566000000E+00 0. -1.
     999900   -1    0    0    0    0 -0.00000000000E+00 -0.00000000000E+00 -0.74505805969E-08  0.93827000000E+00  0.93827000000E+00 0. -1.
     999902    2    1    2    0    0 -0.10699712079E-01  0.60921884639E-02 -0.21393639640E-01  0.10192462722E+01  0.10189473377E+01 0.  0.
     999903    2    3    3    0    0  0.90326149343E-01  0.47870041329E-01 -0.79364890990E-01  0.13058870060E+00  0.17443299270E-01 0.  0.
         14    1    1    2    0    0  0.10699712079E-01 -0.60921884639E-02  0.21393639640E-01  0.24683727756E-01  0.00000000000E+00 0. -1.
     999901    1    3    3    0    0 -0.10102586142E+00 -0.41777852865E-01  0.57971251350E-01  0.88865757165E+00  0.88000000000E+00 0. -1.
        -11    1    4    4    0    0  0.43976695161E-01  0.14708707203E-01 -0.40867053595E-01  0.61811592565E-01  0.51100000000E-03 0. -1.
         11    1    4    4    0    0  0.46349454182E-01  0.33161334125E-01 -0.38497837395E-01  0.68777108030E-01  0.51100000000E-03 0.  1.
</event>
<event>
 8    1  0.1086486E+005  0.1043930E+01  0.7957747E-01            NaN
         13   -1    0    0    0    0  0.00000000000E+00  0.00000000000E+00  0.74505805969E-08  0.10566000000E+00  0.10566000000E+00 0. -1.
     999900   -1    0    0    0    0 -0.00000000000E+00 -0.00000000000E+00 -0.74505805969E-08  0.93827000000E+00  0.93827000000E+00 0. -1.
     999902    2    1    2    0    0 -0.11843843794E-01 -0.22935748259E-02 -0.20315021380E-01  0.10203029559E+01  0.10200293547E+01 0.  0.
     999903    2    3    3    0    0  0.11989285475E-01  0.84504793305E-01 -0.99062596599E-01  0.13221334587E+00  0.19549110560E-01 0.  0.
         14    1    1    2    0    0  0.11843843794E-01  0.22935748259E-02  0.20315021380E-01  0.23627044144E-01  0.00000000000E+00 0. -1.
     999901    1    3    3    0    0 -0.23833129269E-01 -0.86798368131E-01  0.78747575218E-01  0.88808960999E+00  0.88000000000E+00 0.  1.
        -11    1    4    4    0    0  0.91095862047E-02  0.28314420402E-01 -0.46584727843E-01  0.55272859097E-01  0.51100000000E-03 0. -1.
         11    1    4    4    0    0  0.28796992707E-02  0.56190372903E-01 -0.52477868756E-01  0.76940486774E-01  0.51100000000E-03 0.  1.
</event>
<event>
 8    1  0.1086486E+005  0.1043930E+01  0.7957747E-01            NaN
         13   -1    0    0    0    0  0.00000000000E+00  0.00000000000E+00  0.74505805969E-08  0.10566000000E+00  0.10566000000E+00 0.  1.
     999900   -1    0    0    0    0 -0.00000000000E+00 -0.00000000000E+00 -0.74505805969E-08  0.93827000000E+00  0.93827000000E+00 0. -1.
     999902    2    1    2    0    0 -0.19062686894E-01 -0.67018985963E-02 -0.13056613692E-01  0.10198722229E+01  0.10195884339E+01 0.  0.
     999903    2    3    3    0    0 -0.11682941785E+00 -0.26435356631E-01  0.52335629261E-01  0.13182724181E+00  0.17072276932E-01 0.  0.
         14    1    1    2    0    0  0.19062686894E-01  0.67018985963E-02  0.13056613692E-01  0.24057777069E-01  0.00000000000E+00 0. -1.
     999901    1    3    3    0    0  0.97766730953E-01  0.19733458035E-01 -0.65392242953E-01  0.88804498112E+00  0.88000000000E+00 0. -1.
        -11    1    4    4    0    0 -0.10144907737E+00 -0.19492688843E-01  0.39422586998E-01  0.11057251786E+00  0.51100000000E-03 0. -1.
         11    1    4    4    0    0 -0.15380340472E-01 -0.69426677879E-02  0.12913042263E-01  0.21254723958E-01  0.51100000000E-03 0.  1.
</event>
<event>
 8    1  0.1086486E+005  0.1043930E+01  0.7957747E-01            NaN
         13   -1    0    0    0    0  0.00000000000E+00  0.00000000000E+00  0.74505805969E-08  0.10566000000E+00  0.10566000000E+00 0. -1.
     999900   -1    0    0    0    0 -0.00000000000E+00 -0.00000000000E+00 -0.74505805969E-08  0.93827000000E+00  0.93827000000E+00 0.  1.
     999902    2    1    2    0    0 -0.13973308904E-01  0.17935533050E-01  0.85193016997E-02  0.10196500657E+01  0.10193609475E+01 0.  0.
     999903    2    3    3    0    0 -0.84289278615E-01  0.99065338742E-01 -0.17577787484E-01  0.13274114196E+00  0.19814346488E-01 0.  0.
         14    1    1    2    0    0  0.13973308904E-01 -0.17935533050E-01 -0.85193016997E-02  0.24279934287E-01  0.00000000000E+00 0.  1.
     999901    1    3    3    0    0  0.70315969711E-01 -0.81129805692E-01  0.26097089184E-01  0.88690892375E+00  0.88000000000E+00 0.  1.
        -11    1    4    4    0    0 -0.47229846100E-01  0.43773433678E-01 -0.15027632381E-01  0.66127624444E-01  0.51100000000E-03 0.  1.
         11    1    4    4    0    0 -0.37059432515E-01  0.55291905064E-01 -0.25501551030E-02  0.66613517517E-01  0.51100000000E-03 0. -1.
</event>
<event>
 8    1  0.1086486E+005  0.1043930E+01  0.7957747E-01            NaN
         13   -1    0    0    0    0  0.00000000000E+00  0.00000000000E+00  0.74505805969E-08  0.10566000000E+00  0.10566000000E+00 0. -1.
     999900   -1    0    0    0    0 -0.00000000000E+00 -0.00000000000E+00 -0.74505805969E-08  0.93827000000E+00  0.93827000000E+00 0.  1.
     999902    2    1    2    0    0 -0.14842412070E-01  0.50254776248E-02 -0.12397352346E-01  0.10239488347E+01  0.10237538616E+01 0.  0.
     999903    2    3    3    0    0 -0.12091253654E+00  0.23005413694E-01 -0.55223188598E-01  0.13636323226E+00  0.19905778111E-01 0.  0.
         14    1    1    2    0    0  0.14842412070E-01 -0.50254776248E-02  0.12397352346E-01  0.19981165296E-01  0.00000000000E+00 0.  1.
     999901    1    3    3    0    0  0.10607012447E+00 -0.17979936070E-01  0.42825836252E-01  0.88758560244E+00  0.88000000000E+00 0. -1.
        -11    1    4    4    0    0 -0.10695890572E+00  0.24003781034E-01 -0.54305559900E-01  0.12233455756E+00  0.51100000000E-03 0. -1.
         11    1    4    4    0    0 -0.13953630826E-01 -0.99836733918E-03 -0.91762869821E-03  0.14028674706E-01  0.51100000000E-03 0.  1.
</event>
<event>
 8    1  0.1086486E+005  0.1043930E+01  0.7957747E-01            NaN
         13   -1    0    0    0    0  0.00000000000E+00  0.00000000000E+00  0.74505805969E-08  0.10566000000E+00  0.10566000000E+00 0.  1.
     999900   -1    0    0    0    0 -0.00000000000E+00 -0.00000000000E+00 -0.74505805969E-08  0.93827000000E+00  0.93827000000E+00 0. -1.
     999902    2    1    2    0    0  0.81531703957E-02  0.21274990908E-01 -0.13937103806E-02  0.10211036588E+01  0.10208484903E+01 0.  0.
     999903    2    3    3    0    0 -0.36268253377E-01  0.74791605563E-01 -0.10169551385E+00  0.13267935545E+00  0.18779333316E-01 0.  0.
         14    1    1    2    0    0 -0.81531703957E-02 -0.21274990908E-01  0.13937103806E-02  0.22826341237E-01  0.00000000000E+00 0.  1.
     999901    1    3    3    0    0  0.44421423773E-01 -0.53516614655E-01  0.10030180347E+00  0.88842430331E+00  0.88000000000E+00 0.  1.
        -11    1    4    4    0    0 -0.32656627744E-01  0.60384023712E-01 -0.72065086028E-01  0.99530514921E-01  0.51100000000E-03 0.  1.
         11    1    4    4    0    0 -0.36116256339E-02  0.14407581851E-01 -0.29630427824E-01  0.33148840531E-01  0.51100000000E-03 0. -1.
</event>
<event>
 8    1  0.1086486E+005  0.1043930E+01  0.7957747E-01            NaN
         13   -1    0    0    0    0  0.00000000000E+00  0.00000000000E+00  0.74505805969E-08  0.10566000000E+00  0.10566000000E+00 0. -1.
     999900   -1    0    0    0    0 -0.00000000000E+00 -0.00000000000E+00 -0.74505805969E-08  0.93827000000E+00  0.93827000000E+00 0. -1.
     999902    2    1    2    0    0 -0.21011574474E-01 -0.47799383104E-02 -0.10553195127E-01  0.10199361675E+01  0.10196539029E+01 0.  0.
     999903    2    3    3    0    0  0.28298760730E-01  0.80956851241E-01 -0.96015214713E-01  0.13028114274E+00  0.19985571661E-01 0.  0.
         14    1    1    2    0    0  0.21011574474E-01  0.47799383104E-02  0.10553195127E-01  0.23993832531E-01  0.00000000000E+00 0. -1.
     999901    1    3    3    0    0 -0.49310335204E-01 -0.85736789551E-01  0.85462019586E-01  0.88965502473E+00  0.88000000000E+00 0.  1.
        -11    1    4    4    0    0 -0.67875498080E-03  0.22035077758E-01 -0.29313645249E-01  0.36681824912E-01  0.51100000000E-03 0.  1.
         11    1    4    4    0    0  0.28977515711E-01  0.58921773483E-01 -0.66701569464E-01  0.93599317824E-01  0.51100000000E-03 0. -1.
</event>
<event>
 8    1  0.1086486E+005  0.1043930E+01  0.7957747E-01            NaN
         13   -1    0    0    0    0  0.00000000000E+00  0.00000000000E+00  0.74505805969E-08  0.10566000000E+00  0.10566000000E+00 0.  1.
     999900   -1    0    0    0    0 -0.00000000000E+00 -0.00000000000E+00 -0.74505805969E-08  0.93827000000E+00  0.93827000000E+00 0.  1.
     999902    2    1    2    0    0 -0.14705879439E-01  0.76360778676E-02 -0.16045282868E-01  0.10208643615E+01  0.10206037532E+01 0.  0.
     999903    2    3    3    0    0 -0.88108462197E-01 -0.79192216209E-01  0.52000423866E-01  0.13094452806E+00  0.20196958406E-01 0.  0.
         14    1    1    2    0    0  0.14705879439E-01 -0.76360778676E-02  0.16045282868E-01  0.23065638460E-01  0.00000000000E+00 0.  1.
     999901    1    3    3    0    0  0.73402582758E-01  0.86828294077E-01 -0.68045706734E-01  0.88991983348E+00  0.88000000000E+00 0.  1.
        -11    1    4    4    0    0 -0.24061003736E-01 -0.27801447177E-01  0.25146555848E-01  0.44547309211E-01  0.51100000000E-03 0. -1.
         11    1    4    4    0    0 -0.64047458461E-01 -0.51390769032E-01  0.26853868018E-01  0.86397218853E-01  0.51100000000E-03 0.  1.
</event>
<event>
 8    1  0.1086486E+005  0.1043930E+01  0.7957747E-01            NaN
         13   -1    0    0    0    0  0.00000000000E+00  0.00000000000E+00  0.74505805969E-08  0.10566000000E+00  0.10566000000E+00 0.  1.
     999900   -1    0    0    0    0 -0.00000000000E+00 -0.00000000000E+00 -0.74505805969E-08  0.93827000000E+00  0.93827000000E+00 0.  1.
     999902    2    1    2    0    0  0.10905484124E-01 -0.75281095590E-02 -0.19698027685E-01  0.10201894374E+01  0.10199131698E+01 0.  0.
     999903    2    3    3    0    0  0.18902774353E-01  0.41251374277E-01 -0.12263543406E+00  0.13281155605E+00  0.23247988597E-01 0.  0.
         14    1    1    2    0    0 -0.10905484124E-01  0.75281095590E-02  0.19698027685E-01  0.23740562592E-01  0.00000000000E+00 0.  1.
     999901    1    3    3    0    0 -0.79972902285E-02 -0.48779483836E-01  0.10293740638E+00  0.88737788136E+00  0.88000000000E+00 0. -1.
        -11    1    4    4    0    0  0.64692694191E-02  0.37251204370E-01 -0.94676231995E-01  0.10194779890E+00  0.51100000000E-03 0. -1.
         11    1    4    4    0    0  0.12433504934E-01  0.40001699065E-02 -0.27959202069E-01  0.30863757152E-01  0.51100000000E-03 0.  1.
</event>
<event>
 8    1  0.1086486E+005  0.1043930E+01  0.7957747E-01            NaN
         13   -1    0    0    0    0  0.00000000000E+00  0.00000000000E+00  0.74505805969E-08  0.10566000000E+00  0.10566000000E+00 0. -1.
     999900   -1    0    0    0    0 -0.00000000000E+00 -0.00000000000E+00 -0.74505805969E-08  0.93827000000E+00  0.93827000000E+00 0. -1.
     999902    2    1    2    0    0 -0.66220165561E-02 -0.15823242304E-01 -0.14486887486E-01  0.10214779175E+01  0.10212311393E+01 0.  0.
     999903    2    3    3    0    0  0.96180809967E-01 -0.44902931944E-01  0.73488501918E-01  0.13066159600E+00  0.20121412742E-01 0.  0.
         14    1    1    2    0    0  0.66220165561E-02  0.15823242304E-01  0.14486887486E-01  0.22452082516E-01  0.00000000000E+00 0. -1.
     999901    1    3    3    0    0 -0.10280282652E+00  0.29079689640E-01 -0.87975389403E-01  0.89081632149E+00  0.88000000000E+00 0. -1.
        -11    1    4    4    0    0  0.41860183273E-01 -0.30145230806E-01  0.38665084869E-01  0.64469060742E-01  0.51100000000E-03 0. -1.
         11    1    4    4    0    0  0.54320626694E-01 -0.14757701139E-01  0.34823417048E-01  0.66192535253E-01  0.51100000000E-03 0.  1.
</event>
<event>
 8    1  0.1086486E+005  0.1043930E+01  0.7957747E-01            NaN
         13   -1    0    0    0    0  0.00000000000E+00  0.00000000000E+00  0.74505805969E-08  0.10566000000E+00  0.10566000000E+00 0. -1.
     999900   -1    0    0    0    0 -0.00000000000E+00 -0.00000000000E+00 -0.74505805969E-08  0.93827000000E+00  0.93827000000E+00 0. -1.
     999902    2    1    2    0    0 -0.67700496454E-02 -0.22418016087E-01  0.26530838486E-02  0.10203622281E+01  0.10200900140E+01 0.  0.
     999903    2    3    3    0    0  0.34272300589E-01 -0.16525511806E-01  0.12367238172E+00  0.13111261942E+00  0.21165487055E-01 0.  0.
         14    1    1    2    0    0  0.67700496454E-02  0.22418016087E-01 -0.26530838486E-02  0.23567771880E-01  0.00000000000E+00 0. -1.
     999901    1    3    3    0    0 -0.41042350234E-01 -0.58925042803E-02 -0.12101929787E+00  0.88924960870E+00  0.88000000000E+00 0. -1.
        -11    1    4    4    0    0  0.25705902159E-01 -0.44331030649E-02  0.55229893685E-01  0.61082305835E-01  0.51100000000E-03 0. -1.
         11    1    4    4    0    0  0.85663984304E-02 -0.12092408742E-01  0.68442488035E-01  0.70030313584E-01  0.51100000000E-03 0.  1.
</event>
<event>
 8    1  0.1086486E+005  0.1043930E+01  0.7957747E-01            NaN
         13   -1    0    0    0    0  0.00000000000E+00  0.00000000000E+00  0.74505805969E-08  0.10566000000E+00  0.10566000000E+00 0.  1.
     999900   -1    0    0    0    0 -0.00000000000E+00 -0.00000000000E+00 -0.74505805969E-08  0.93827000000E+00  0.93827000000E+00 0.  1.
     999902    2    1    2    0    0  0.42653048587E-02  0.29313820799E-02  0.23734797624E-01  0.10196374817E+01  0.10193480601E+01 0.  0.
     999903    2    3    3    0    0  0.11787768049E+00  0.38764643222E-01  0.38794307337E-01  0.13148288744E+00  0.19619028680E-01 0.  0.
         14    1    1    2    0    0 -0.42653048587E-02 -0.29313820799E-02 -0.23734797624E-01  0.24292518286E-01  0.00000000000E+00 0. -1.
     999901    1    3    3    0    0 -0.11361237563E+00 -0.35833261142E-01 -0.15059509713E-01  0.88815459428E+00  0.88000000000E+00 0. -1.
        -11    1    4    4    0    0  0.13454703324E-01  0.47123943578E-02 -0.18144703869E-02  0.14380164321E-01  0.51100000000E-03 0. -1.
         11    1    4    4    0    0  0.10442297716E+00  0.34052248864E-01  0.40608777724E-01  0.11710272312E+00  0.51100000000E-03 0.  1.
</event>
<event>
 7    1  0.1278650E+005  0.1043930E+01  0.7957747E-01            NaN
         13   -1    0    0    0    0  0.00000000000E+00  0.00000000000E+00  0.74505805969E-08  0.10566000000E+00  0.10566000000E+00 0. -1.
     999900   -1    0    0    0    0 -0.00000000000E+00 -0.00000000000E+00 -0.74505805969E-08  0.93827000000E+00  0.93827000000E+00 0.  1.
     999903    2    1    2    0    0 -0.65288313933E-01  0.42901809511E-01  0.61627032536E-01  0.10174544486E+00  0.21239473021E-01 0.  0.
         14    1    1    2    0    0  0.19272028528E-01  0.27697764788E-01  0.40005598774E-01  0.52335697101E-01  0.00000000000E+00 0. -1.
     999901    1    1    2    0    0  0.46016285405E-01 -0.70599574298E-01 -0.10163263131E+00  0.88984885804E+00  0.88000000000E+00 0.  1.
        -11    1    3    3    0    0 -0.50922286239E-01  0.23013340564E-01  0.48049013490E-01  0.73699809349E-01  0.51100000000E-03 0. -1.
         11    1    3    3    0    0 -0.14366027693E-01  0.19888468947E-01  0.13578019046E-01  0.28045635506E-01  0.51100000000E-03 0.  1.
</event>
<event>
 8    1  0.1086486E+005  0.1043930E+01  0.7957747E-01            NaN
         13   -1    0    0    0    0  0.00000000000E+00  0.00000000000E+00  0.74505805969E-08  0.10566000000E+00  0.10566000000E+00 0. -1.
     999900   -1    0    0    0    0 -0.00000000000E+00 -0.00000000000E+00 -0.74505805969E-08  0.93827000000E+00  0.93827000000E+00 0. -1.
     999902    2    1    2    0    0  0.20234189854E-01 -0.36681276580E-02  0.10108740548E-01  0.10210157198E+01  0.10207585591E+01 0.  0.
     999903    2    3    3    0    0 -0.52745009763E-01  0.11050404001E+00 -0.36222886406E-01  0.12943966190E+00  0.21197869231E-01 0.  0.
         14    1    1    2    0    0 -0.20234189854E-01  0.36681276580E-02 -0.10108740548E-01  0.22914280155E-01  0.00000000000E+00 0. -1.
     999901    1    3    3    0    0  0.72979199617E-01 -0.11417216767E+00  0.46331626953E-01  0.89157605795E+00  0.88000000000E+00 0.  1.
        -11    1    4    4    0    0 -0.29278317846E-01  0.74942500071E-01 -0.15035170307E-01  0.81853012650E-01  0.51100000000E-03 0.  1.
         11    1    4    4    0    0 -0.23466691917E-01  0.35561539938E-01 -0.21187716099E-01  0.47586649249E-01  0.51100000000E-03 0. -1.
</event>
<event>
 8    1  0.1086486E+005  0.1043930E+01  0.7957747E-01            NaN
         13   -1    0    0    0    0  0.00000000000E+00  0.00000000000E+00  0.74505805969E-08  0.10566000000E+00  0.10566000000E+00 0. -1.
     999900   -1    0    0    0    0 -0.00000000000E+00 -0.00000000000E+00 -0.74505805969E-08  0.93827000000E+00  0.93827000000E+00 0.  1.
     999902    2    1    2    0    0  0.16567733598E-01 -0.95217070369E-02 -0.77471429198E-02  0.10233103268E+01  0.10231025628E+01 0.  0.
     999903    2    3    3    0    0 -0.84011992306E-01 -0.97836172275E-01  0.25749848635E-01  0.13255908511E+00  0.16701044431E-01 0.  0.
         14    1    1    2    0    0 -0.16567733598E-01  0.95217070369E-02  0.77471429198E-02  0.20619673249E-01  0.00000000000E+00 0. -1.
     999901    1    3    3    0    0  0.10057972590E+00  0.88314465238E-01 -0.33496991555E-01  0.89075124164E+00  0.88000000000E+00 0.  1.
        -11    1    4    4    0    0 -0.58192605564E-01 -0.77578623350E-01  0.22661576445E-01  0.99592320543E-01  0.51100000000E-03 0. -1.
         11    1    4    4    0    0 -0.25819386743E-01 -0.20257548924E-01  0.30882721903E-02  0.32966764571E-01  0.51100000000E-03 0.  1.
</event>
<event>
 8    1  0.1086486E+005  0.1043930E+01  0.7957747E-01            NaN
         13   -1    0    0    0    0  0.00000000000E+00  0.00000000000E+00  0.74505805969E-08  0.10566000000E+00  0.10566000000E+00 0. -1.
     999900   -1    0    0    0    0 -0.00000000000E+00 -0.00000000000E+00 -0.74505805969E-08  0.93827000000E+00  0.93827000000E+00 0. -1.
     999902    2    1    2    0    0  0.10920652139E-01  0.10028351722E-01 -0.14386427546E-01  0.10232709153E+01  0.10230623482E+01 0.  0.
     999903    2    3    3    0    0 -0.10924984215E+00 -0.69527319227E-01  0.82591921796E-02  0.13126033437E+00  0.19785979719E-01 0.  0.
         14    1    1    2    0    0 -0.10920652139E-01 -0.10028351722E-01  0.14386427546E-01  0.20659084659E-01  0.00000000000E+00 0. -1.
     999901    1    3    3    0    0  0.12017049429E+00  0.79555670949E-01 -0.22645619726E-01  0.89201058097E+00  0.88000000000E+00 0.  1.
        -11    1    4    4    0    0 -0.34048390454E-01 -0.23351159923E-01  0.11794963425E-01  0.42941260408E-01  0.51100000000E-03 0.  1.
         11    1    4    4    0    0 -0.75201451697E-01 -0.46176159304E-01 -0.35357712453E-02  0.88319073958E-01  0.51100000000E-03 0. -1.
</event>
<event>
 8    1  0.1086486E+005  0.1043930E+01  0.7957747E-01            NaN
         13   -1    0    0    0    0  0.00000000000E+00  0.00000000000E+00  0.74505805969E-08  0.10566000000E+00  0.10566000000E+00 0.  1.
     999900   -1    0    0    0    0 -0.00000000000E+00 -0.00000000000E+00 -0.74505805969E-08  0.93827000000E+00  0.93827000000E+00 0. -1.
     999902    2    1    2    0    0 -0.16116244896E-02  0.10138109145E-01  0.20302030434E-01  0.10211802521E+01  0.10209268124E+01 0.  0.
     999903    2    3    3    0    0  0.14775298759E-01  0.10108897301E+00 -0.79205250519E-01  0.13076333296E+00  0.19705015114E-01 0.  0.
         14    1    1    2    0    0  0.16116244896E-02 -0.10138109145E-01 -0.20302030434E-01  0.22749747917E-01  0.00000000000E+00 0. -1.
     999901    1    3    3    0    0 -0.16386923249E-01 -0.90950863864E-01  0.99507280953E-01  0.89041691912E+00  0.88000000000E+00 0.  1.
        -11    1    4    4    0    0  0.17665005271E-01  0.79010541267E-01 -0.55041717347E-01  0.97900816197E-01  0.51100000000E-03 0.  1.
         11    1    4    4    0    0 -0.28897065123E-02  0.22078431742E-01 -0.24163533172E-01  0.32862516767E-01  0.51100000000E-03 0. -1.
</event>
<event>
 8    1  0.1086486E+005  0.1043930E+01  0.7957747E-01            NaN
         13   -1    0    0    0    0  0.00000000000E+00  0.00000000000E+00  0.74505805969E-08  0.10566000000E+00  0.10566000000E+00 0.  1.
     999900   -1    0    0    0    0 -0.00000000000E+00 -0.00000000000E+00 -0.74505805969E-08  0.93827000000E+00  0.93827000000E+00 0. -1.
     999902    2    1    2    0    0 -0.10973122514E-01  0.17317380488E-01 -0.12417611667E-01  0.10199613087E+01  0.10196796423E+01 0.  0.
     999903    2    3    3    0    0 -0.70477574980E-01  0.57129552508E-01 -0.95435622630E-01  0.13315931327E+00  0.19813386830E-01 0.  0.
         14    1    1    2    0    0  0.10973122514E-01 -0.17317380488E-01  0.12417611667E-01  0.23968691332E-01  0.00000000000E+00 0.  1.
     999901    1    3    3    0    0  0.59504452466E-01 -0.39812172021E-01  0.83018010963E-01  0.88680199540E+00  0.88000000000E+00 0. -1.
        -11    1    4    4    0    0 -0.41581757538E-01  0.27646377243E-01 -0.64491072437E-01  0.81564234071E-01  0.51100000000E-03 0.  1.
         11    1    4    4    0    0 -0.28895817443E-01  0.29483175266E-01 -0.30944550194E-01  0.51595079195E-01  0.51100000000E-03 0. -1.
</event>
<event>
 7    1  0.1086486E+005  0.1043930E+01  0.7957747E-01            NaN
         13   -1    0    0    0    0  0.00000000000E+00  0.00000000000E+00  0.74505805969E-08  0.10566000000E+00  0.10566000000E+00 0. -1.
     999900   -1    0    0    0    0 -0.00000000000E+00 -0.00000000000E+00 -0.74505805969E-08  0.93827000000E+00  0.93827000000E+00 0. -1.
     999903    2    1    2    0    0 -0.56715778468E-01 -0.26162731204E-01 -0.39072171471E-01  0.76333300607E-01  0.19974237577E-01 0.  0.
         14    1    1    2    0    0 -0.67588248044E-01 -0.15125127743E-01  0.35648231313E-01  0.77895681258E-01  0.00000000000E+00 0.  1.
     999901    1    1    2    0    0  0.12430402651E+00  0.41287858947E-01  0.34239401578E-02  0.88970101813E+00  0.88000000000E+00 0.  1.
        -11    1    3    3    0    0 -0.78136826314E-02  0.17072999486E-02 -0.36941815134E-03  0.80228486306E-02  0.51100000000E-03 0.  1.
         11    1    3    3    0    0 -0.48902095837E-01 -0.27870031153E-01 -0.38702753320E-01  0.68310451976E-01  0.51100000000E-03 0. -1.
</event>
<event>
 8    1  0.1086486E+005  0.1043930E+01  0.7957747E-01            NaN
         13   -1    0    0    0    0  0.00000000000E+00  0.00000000000E+00  0.74505805969E-08  0.10566000000E+00  0.10566000000E+00 0.  1.
     999900   -1    0    0    0    0 -0.00000000000E+00 -0.00000000000E+00 -0.74505805969E-08  0.93827000000E+00  0.93827000000E+00 0. -1.
     999902    2    1    2    0    0 -0.17916688489E-01 -0.37393345992E-02  0.15391418366E-01  0.10200158596E+01  0.10197354891E+01 0.  0.
     999903    2    3    3    0    0  0.57548409022E-01  0.10907313604E+00  0.34049270947E-01  0.12941507931E+00  0.19497218065E-01 0.  0.
         14    1    1    2    0    0  0.17916688489E-01  0.37393345992E-02 -0.15391418366E-01  0.23914140356E-01  0.00000000000E+00 0. -1.
     999901    1    3    3    0    0 -0.75465097511E-01 -0.11281247064E+00 -0.18657852581E-01  0.89060078034E+00  0.88000000000E+00 0.  1.
        -11    1    4    4    0    0  0.25165865146E-01  0.43907981597E-01  0.23798257615E-01  0.55927183042E-01  0.51100000000E-03 0.  1.
         11    1    4    4    0    0  0.32382543875E-01  0.65165154448E-01  0.10251013332E-01  0.73487896265E-01  0.51100000000E-03 0. -1.
</event>
<event>
 8    1  0.1086486E+005  0.1043930E+01  0.7957747E-01            NaN
         13   -1    0    0    0    0  0.00000000000E+00  0.00000000000E+00  0.74505805969E-08  0.10566000000E+00  0.10566000000E+00 0.  1.
     999900   -1    0    0    0    0 -0.00000000000E+00 -0.00000000000E+00 -0.74505805969E-08  0.93827000000E+00  0.93827000000E+00 0.  1.
     999902    2    1    2    0    0  0.15986994051E-02 -0.25740502441E-01  0.16618919010E-02  0.10180864091E+01  0.10177583432E+01 0.  0.
     999903    2    3    3    0    0 -0.58282521327E-01  0.44811479422E-01  0.10234403390E+00  0.12752465579E+00  0.19578446848E-01 0.  0.
         14    1    1    2    0    0 -0.15986994051E-02  0.25740502441E-01 -0.16618919010E-02  0.25843590896E-01  0.00000000000E+00 0. -1.
     999901    1    3    3    0    0  0.59881220733E-01 -0.70551981863E-01 -0.10068214200E+00  0.89056175331E+00  0.88000000000E+00 0.  1.
        -11    1    4    4    0    0 -0.24496233052E-01  0.30942905343E-01  0.56180191579E-01  0.68658603770E-01  0.51100000000E-03 0. -1.
         11    1    4    4    0    0 -0.33786288275E-01  0.13868574079E-01  0.46163842317E-01  0.58866052024E-01  0.51100000000E-03 0.  1.
</event>
<event>
 8    1  0.1086486E+005  0.1043930E+01  0.7957747E-01            NaN
         13   -1    0    0    0    0  0.00000000000E+00  0.00000000000E+00  0.74505805969E-08  0.10566000000E+00  0.10566000000E+00 0. -1.
     999900   -1    0    0    0    0 -0.00000000000E+00 -0.00000000000E+00 -0.74505805969E-08  0.93827000000E+00  0.93827000000E+00 0. -1.
     999902    2    1    2    0    0 -0.11301770738E-01  0.20814430261E-01  0.73772855568E-02  0.10191228464E+01  0.10188208778E+01 0.  0.
     999903    2    3    3    0    0  0.10650615656E+00 -0.60300931336E-01 -0.27317837548E-01  0.12689968976E+00  0.19429444369E-01 0.  0.
         14    1    1    2    0    0  0.11301770738E-01 -0.20814430261E-01 -0.73772855568E-02  0.24807153627E-01  0.00000000000E+00 0. -1.
     999901    1    3    3    0    0 -0.11780792730E+00  0.81115361597E-01  0.34695123104E-01  0.89222315661E+00  0.88000000000E+00 0. -1.
        -11    1    4    4    0    0  0.75270041740E-01 -0.32091789707E-01 -0.17480668263E-01  0.83673753556E-01  0.51100000000E-03 0.  1.
         11    1    4    4    0    0  0.31236114821E-01 -0.28209141629E-01 -0.98371692844E-02  0.43225936208E-01  0.51100000000E-03 0. -1.
</event>
<event>
 8    1  0.1086486E+005  0.1043930E+01  0.7957747E-01            NaN
         13   -1    0    0    0    0  0.00000000000E+00  0.00000000000E+00  0.74505805969E-08  0.10566000000E+00  0.10566000000E+00 0.  1.
     999900   -1    0    0    0    0 -0.00000000000E+00 -0.00000000000E+00 -0.74505805969E-08  0.93827000000E+00  0.93827000000E+00 0.  1.
     999902    2    1    2    0    0  0.19840689203E-01 -0.15518307605E-01  0.87906038605E-02  0.10172514405E+01  0.10169015428E+01 0.  0.
     999903    2    3    3    0    0 -0.53730045573E-02  0.17649497974E-01  0.12540720639E+00  0.12858093598E+00  0.21580447740E-01 0.  0.
         14    1    1    2    0    0 -0.19840689203E-01  0.15518307605E-01 -0.87906038605E-02  0.26678559467E-01  0.00000000000E+00 0. -1.
     999901    1    3    3    0    0  0.25213693760E-01 -0.33167805579E-01 -0.11661660253E+00  0.88867050456E+00  0.88000000000E+00 0.  1.
        -11    1    4    4    0    0 -0.78991047398E-02  0.21942696293E-01  0.10620613636E+00  0.10873767653E+00  0.51100000000E-03 0.  1.
         11    1    4    4    0    0  0.25261001826E-02 -0.42931983191E-02  0.19201070036E-01  0.19843259447E-01  0.51100000000E-03 0. -1.
</event>
<event>
 8    1  0.1086486E+005  0.1043930E+01  0.7957747E-01            NaN
         13   -1    0    0    0    0  0.00000000000E+00  0.00000000000E+00  0.74505805969E-08  0.10566000000E+00  0.10566000000E+00 0. -1.
     999900   -1    0    0    0    0 -0.00000000000E+00 -0.00000000000E+00 -0.74505805969E-08  0.93827000000E+00  0.93827000000E+00 0.  1.
     999902    2    1    2    0    0  0.23338389530E-01 -0.16555052771E-02 -0.40514450501E-02  0.10201847830E+01  0.10199084058E+01 0.  0.
     999903    2    3    3    0    0 -0.93853577128E-01  0.79376025887E-01 -0.30041529690E-01  0.12834648454E+00  0.21477410514E-01 0.  0.
         14    1    1    2    0    0 -0.23338389530E-01  0.16555052771E-02  0.40514450501E-02  0.23745217004E-01  0.00000000000E+00 0. -1.
     999901    1    3    3    0    0  0.11719196666E+00 -0.81031531164E-01  0.25990084639E-01  0.89183829846E+00  0.88000000000E+00 0. -1.
        -11    1    4    4    0    0 -0.82371197147E-01  0.76781035191E-01 -0.24133386891E-01  0.11516519860E+00  0.51100000000E-03 0. -1.
         11    1    4    4    0    0 -0.11482379982E-01  0.25949906961E-02 -0.59081427986E-02  0.13181285942E-01  0.51100000000E-03 0.  1.
</event>
<event>
 8    1  0.1086486E+005  0.1043930E+01  0.7957747E-01            NaN
         13   -1    0    0    0    0  0.00000000000E+00  0.00000000000E+00  0.74505805969E-08  0.10566000000E+00  0.10566000000E+00 0. -1.
     999900   -1    0    0    0    0 -0.00000000000E+00 -0.00000000000E+00 -0.74505805969E-08  0.93827000000E+00  0.93827000000E+00 0.  1.
     999902    2    1    2    0    0  0.12457108836E-01  0.19410809185E-01 -0.35724141957E-02  0.10205907366E+01  0.10203238360E+01 0.  0.
     999903    2    3    3    0    0  0.64248806820E-01 -0.31539246157E-02  0.11236539182E+00  0.13119030817E+00  0.21143775950E-01 0.  0.
         14    1    1    2    0    0 -0.12457108836E-01 -0.19410809185E-01  0.35724141957E-02  0.23339263419E-01  0.00000000000E+00 0.  1.
     999901    1    3    3    0    0 -0.51791697984E-01  0.22564733800E-01 -0.11593780601E+00  0.88940042841E+00  0.88000000000E+00 0.  1.
        -11    1    4    4    0    0  0.31041303158E-01 -0.62488415569E-02  0.73132938903E-01  0.79695033698E-01  0.51100000000E-03 0. -1.
         11    1    4    4    0    0  0.33207503663E-01  0.30949169412E-02  0.39232452915E-01  0.51495274474E-01  0.51100000000E-03 0.  1.
</event>
<event>
 8    1  0.1086486E+005  0.1043930E+01  0.7957747E-01            NaN
         13   -1    0    0    0    0  0.00000000000E+00  0.00000000000E+00  0.74505805969E-08  0.10566000000E+00  0.10566000000E+00 0. -1.
     999900   -1    0    0    0    0 -0.00000000000E+00 -0.00000000000E+00 -0.74505805969E-08  0.93827000000E+00  0.93827000000E+00 0. -1.
     999902    2    1    2    0    0  0.66024307482E-03  0.23856205606E-01  0.15334626299E-02  0.10200154443E+01  0.10197350639E+01 0.  0.
     999903    2    3    3    0    0 -0.40145198890E-01  0.39753969976E-02  0.12260133787E+00  0.13056743510E+00  0.19731352885E-01 0.  0.
         14    1    1    2    0    0 -0.66024307482E-03 -0.23856205606E-01 -0.15334626299E-02  0.23914555703E-01  0.00000000000E+00 0.  1.
     999901    1    3    3    0    0  0.40805441965E-01  0.19880808609E-01 -0.12106787524E+00  0.88944800919E+00  0.88000000000E+00 0. -1.
        -11    1    4    4    0    0 -0.25239492960E-02 -0.17171959529E-02  0.33994166313E-01  0.34134784989E-01  0.51100000000E-03 0. -1.
         11    1    4    4    0    0 -0.37621249594E-01  0.56925929505E-02  0.88607171557E-01  0.96432650113E-01  0.51100000000E-03 0.  1.
</event>
<event>
 8    1  0.1086486E+005  0.1043930E+01  0.7957747E-01            NaN
         13   -1    0    0    0    0  0.00000000000E+00  0.00000000000E+00  0.74505805969E-08  0.10566000000E+00  0.10566000000E+00 0.  1.
     999900   -1    0    0    0    0 -0.00000000000E+00 -0.00000000000E+00 -0.74505805969E-08  0.93827000000E+00  0.93827000000E+00 0.  1.
     999902    2    1    2    0    0  0.78941750504E-02 -0.24252272078E-01 -0.34991779925E-02  0.10181863610E+01  0.10178608603E+01 0.  0.
     999903    2    3    3    0    0 -0.10891141117E+00 -0.33161256124E-01  0.56028226717E-01  0.12842997478E+00  0.19842677260E-01 0.  0.
         14    1    1    2    0    0 -0.78941750504E-02  0.24252272078E-01  0.34991779925E-02  0.25743638968E-01  0.00000000000E+00 0.  1.
     999901    1    3    3    0    0  0.11680558622E+00  0.89089840457E-02 -0.59527404709E-01  0.88975638625E+00  0.88000000000E+00 0.  1.
        -11    1    4    4    0    0 -0.24244323484E-01 -0.12032092563E-01  0.21548523524E-01  0.34599977741E-01  0.51100000000E-03 0.  1.
         11    1    4    4    0    0 -0.84667087689E-01 -0.21129163561E-01  0.34479703193E-01  0.93829997036E-01  0.51100000000E-03 0. -1.
</event>
<event>
 8    1  0.1086486E+005  0.1043930E+01  0.7957747E-01            NaN
         13   -1    0    0    0    0  0.00000000000E+00  0.00000000000E+00  0.74505805969E-08  0.10566000000E+00  0.10566000000E+00 0. -1.
     999900   -1    0    0    0    0 -0.00000000000E+00 -0.00000000000E+00 -0.74505805969E-08  0.93827000000E+00  0.93827000000E+00 0. -1.
     999902    2    1    2    0    0  0.58897429085E-03  0.22999963836E-01 -0.65618270092E-02  0.10200050590E+01  0.10197244322E+01 0.  0.
     999903    2    3    3    0    0  0.10240168725E+00 -0.69900533170E-01 -0.29555044456E-01  0.12898035739E+00  0.19754539995E-01 0.  0.
         14    1    1    2    0    0 -0.58897429085E-03 -0.22999963836E-01  0.65618270092E-02  0.23924940980E-01  0.00000000000E+00 0. -1.
     999901    1    3    3    0    0 -0.10181271296E+00  0.92900497007E-01  0.22993217447E-01  0.89102470163E+00  0.88000000000E+00 0.  1.
        -11    1    4    4    0    0  0.86615666990E-01 -0.57300523014E-01 -0.17122311972E-01  0.10525710614E+00  0.51100000000E-03 0. -1.
         11    1    4    4    0    0  0.15786020262E-01 -0.12600010157E-01 -0.12432732485E-01  0.23723251246E-01  0.51100000000E-03 0.  1.
</event>
<event>
 8    1  0.1086486E+005  0.1043930E+01  0.7957747E-01            NaN
         13   -1    0    0    0    0  0.00000000000E+00  0.00000000000E+00  0.74505805969E-08  0.10566000000E+00  0.10566000000E+00 0.  1.
     999900   -1    0    0    0    0 -0.00000000000E+00 -0.00000000000E+00 -0.74505805969E-08  0.93827000000E+00  0.93827000000E+00 0. -1.
     999902    2    1    2    0    0  0.19122948214E-01 -0.15627598699E-02 -0.88043490342E-02  0.10228196725E+01  0.10226017976E+01 0.  0.
     999903    2    3    3    0    0  0.89621653392E-01  0.13864032051E-01 -0.98276009766E-01  0.13534390862E+00  0.20869771504E-01 0.  0.
         14    1    1    2    0    0 -0.19122948214E-01  0.15627598699E-02  0.88043490342E-02  0.21110327537E-01  0.00000000000E+00 0.  1.
     999901    1    3    3    0    0 -0.70498705177E-01 -0.15426791921E-01  0.89471660732E-01  0.88747576385E+00  0.88000000000E+00 0.  1.
        -11    1    4    4    0    0  0.47886987349E-01  0.56304278504E-02 -0.37149179242E-01  0.60870254759E-01  0.51100000000E-03 0.  1.
         11    1    4    4    0    0  0.41734666043E-01  0.82336042005E-02 -0.61126830525E-01  0.74473653857E-01  0.51100000000E-03 0. -1.
</event>
<event>
 8    1  0.1086486E+005  0.1043930E+01  0.7957747E-01            NaN
         13   -1    0    0    0    0  0.00000000000E+00  0.00000000000E+00  0.74505805969E-08  0.10566000000E+00  0.10566000000E+00 0. -1.
     999900   -1    0    0    0    0 -0.00000000000E+00 -0.00000000000E+00 -0.74505805969E-08  0.93827000000E+00  0.93827000000E+00 0.  1.
     999902    2    1    2    0    0  0.18134649778E-01 -0.10441365783E-01  0.10750671328E-01  0.10204041722E+01  0.10201329374E+01 0.  0.
     999903    2    3    3    0    0  0.75476023059E-01 -0.39355517314E-01 -0.97902208509E-01  0.13139938614E+00  0.20867904733E-01 0.  0.
         14    1    1    2    0    0 -0.18134649778E-01  0.10441365783E-01 -0.10750671328E-01  0.23525827849E-01  0.00000000000E+00 0.  1.
     999901    1    3    3    0    0 -0.57341373281E-01  0.28914151531E-01  0.10865287984E+00  0.88900478601E+00  0.88000000000E+00 0. -1.
        -11    1    4    4    0    0  0.27018576423E-01 -0.11437624740E-01 -0.20044202814E-01  0.35536655992E-01  0.51100000000E-03 0. -1.
         11    1    4    4    0    0  0.48457446635E-01 -0.27917892574E-01 -0.77858005695E-01  0.95862730151E-01  0.51100000000E-03 0.  1.
</event>
<event>
 8    1  0.1086486E+005  0.1043930E+01  0.7957747E-01            NaN
         13   -1    0    0    0    0  0.00000000000E+00  0.00000000000E+00  0.74505805969E-08  0.10566000000E+00  0.10566000000E+00 0.  1.
     999900   -1    0    0    0    0 -0.00000000000E+00 -0.00000000000E+00 -0.74505805969E-08  0.93827000000E+00  0.93827000000E+00 0.  1.
     999902    2    1    2    0    0 -0.41819048478E-02  0.22010870713E-01  0.11595795871E-01  0.10187024508E+01  0.10183900304E+01 0.  0.
     999903    2    3    3    0    0 -0.11144971433E+00 -0.44635165148E-01  0.42714021917E-01  0.12914277260E+00  0.20976921952E-01 0.  0.
         14    1    1    2    0    0  0.41819048478E-02 -0.22010870713E-01 -0.11595795871E-01  0.25227549219E-01  0.00000000000E+00 0.  1.
     999901    1    3    3    0    0  0.10726780948E+00  0.66646035861E-01 -0.31118226046E-01  0.88955967818E+00  0.88000000000E+00 0. -1.
        -11    1    4    4    0    0 -0.34552698174E-02 -0.34730028341E-02  0.62399741109E-02  0.79497821417E-02  0.51100000000E-03 0. -1.
         11    1    4    4    0    0 -0.10799444452E+00 -0.41162162314E-01  0.36474047806E-01  0.12119299046E+00  0.51100000000E-03 0.  1.
</event>
<event>
 8    1  0.1086486E+005  0.1043930E+01  0.7957747E-01            NaN
         13   -1    0    0    0    0  0.00000000000E+00  0.00000000000E+00  0.74505805969E-08  0.10566000000E+00  0.10566000000E+00 0.  1.
     999900   -1    0    0    0    0 -0.00000000000E+00 -0.00000000000E+00 -0.74505805969E-08  0.93827000000E+00  0.93827000000E+00 0.  1.
     999902    2    1    2    0    0 -0.22707065991E-01  0.17836802394E-02  0.63123226315E-02  0.10202944806E+01  0.10200206808E+01 0.  0.
     999903    2    3    3    0    0 -0.63519009498E-02 -0.76782250066E-01  0.10482475573E+00  0.13116861980E+00  0.16766539179E-01 0.  0.
         14    1    1    2    0    0  0.22707065991E-01 -0.17836802394E-02 -0.63123226315E-02  0.23635519417E-01  0.00000000000E+00 0. -1.
     999901    1    3    3    0    0 -0.16355165041E-01  0.78565930305E-01 -0.98512433102E-01  0.88912586078E+00  0.88000000000E+00 0.  1.
        -11    1    4    4    0    0 -0.11877631747E-01 -0.51012413765E-01  0.66447788187E-01  0.84610366800E-01  0.51100000000E-03 0.  1.
         11    1    4    4    0    0  0.55257307967E-02 -0.25769836301E-01  0.38376967546E-01  0.46558253005E-01  0.51100000000E-03 0. -1.
</event>
<event>
 7    1  0.1086486E+005  0.1043930E+01  0.7957747E-01            NaN
         13   -1    0    0    0    0  0.00000000000E+00  0.00000000000E+00  0.74505805969E-08  0.10566000000E+00  0.10566000000E+00 0.  1.
     999900   -1    0    0    0    0 -0.00000000000E+00 -0.00000000000E+00 -0.74505805969E-08  0.93827000000E+00  0.93827000000E+00 0. -1.
     999903    2    1    2    0    0  0.61973241446E-01  0.74508007008E-01  0.46775424329E-01  0.10921406891E+00  0.18645287961E-01 0.  0.
         14    1    1    2    0    0 -0.48385121412E-02 -0.51117983806E-01 -0.44306237636E-02  0.51537267051E-01  0.00000000000E+00 0.  1.
     999901    1    1    2    0    0 -0.57134729305E-01 -0.23390023202E-01 -0.42344800565E-01  0.88317866404E+00  0.88000000000E+00 0. -1.
        -11    1    3    3    0    0  0.54120553567E-01  0.52849134524E-01  0.35912610589E-01  0.83737936795E-01  0.51100000000E-03 0.  1.
         11    1    3    3    0    0  0.78526878787E-02  0.21658872485E-01  0.10862813739E-01  0.25476132115E-01  0.51100000000E-03 0. -1.
</event>
<event>
 8    1  0.1086486E+005  0.1043930E+01  0.7957747E-01            NaN
         13   -1    0    0    0    0  0.00000000000E+00  0.00000000000E+00  0.74505805969E-08  0.10566000000E+00  0.10566000000E+00 0. -1.
     999900   -1    0    0    0    0 -0.00000000000E+00 -0.00000000000E+00 -0.74505805969E-08  0.93827000000E+00  0.93827000000E+00 0.  1.
     999902    2    1    2    0    0 -0.23301706576E-01 -0.41688081457E-02 -0.31230610909E-02  0.10200531911E+01  0.10197737057E+01 0.  0.
     999903    2    3    3    0    0 -0.78914477469E-01 -0.10298407997E+00 -0.18974831291E-01  0.13263642499E+00  0.19979027260E-01 0.  0.
         14    1    1    2    0    0  0.23301706576E-01  0.41688081457E-02  0.31230610909E-02  0.23876808859E-01  0.00000000000E+00 0. -1.
     999901    1    3    3    0    0  0.55612770893E-01  0.98815271820E-01  0.15851770200E-01  0.88741676615E+00  0.88000000000E+00 0.  1.
        -11    1    4    4    0    0 -0.64603570135E-01 -0.75114405984E-01 -0.20853142809E-01  0.10124677746E+00  0.51100000000E-03 0.  1.
         11    1    4    4    0    0 -0.14310907335E-01 -0.27869673982E-01  0.18783115185E-02  0.31389647525E-01  0.51100000000E-03 0. -1.
</event>
<event>
 8    1  0.1086486E+005  0.1043930E+01  0.7957747E-01            NaN
         13   -1    0    0    0    0  0.00000000000E+00  0.00000000000E+00  0.74505805969E-08  0.10566000000E+00  0.10566000000E+00 0. -1.
     999900   -1    0    0    0    0 -0.00000000000E+00 -0.00000000000E+00 -0.74505805969E-08  0.93827000000E+00  0.93827000000E+00 0. -1.
     999902    2    1    2    0    0 -0.99290998804E-02  0.49761307584E-02 -0.20202506315E-01  0.10208759296E+01  0.10206155855E+01 0.  0.
     999903    2    3    3    0    0  0.11202416358E+00  0.57976661289E-01 -0.28696625139E-01  0.13084570270E+00  0.19656936197E-01 0.  0.
         14    1    1    2    0    0  0.99290998804E-02 -0.49761307584E-02  0.20202506315E-01  0.23054070425E-01  0.00000000000E+00 0. -1.
     999901    1    3    3    0    0 -0.12195326346E+00 -0.53000530531E-01  0.84941188247E-02  0.89003022688E+00  0.88000000000E+00 0.  1.
        -11    1    4    4    0    0  0.70814147500E-01  0.39004924460E-01 -0.88694846614E-02  0.81332382833E-01  0.51100000000E-03 0.  1.
         11    1    4    4    0    0  0.41210016076E-01  0.18971736830E-01 -0.19827140478E-01  0.49513319863E-01  0.51100000000E-03 0. -1.
</event>
<event>
 8    1  0.1086486E+005  0.1043930E+01  0.7957747E-01            NaN
         13   -1    0    0    0    0  0.00000000000E+00  0.00000000000E+00  0.74505805969E-08  0.10566000000E+00  0.10566000000E+00 0.  1.
     999900   -1    0    0    0    0 -0.00000000000E+00 -0.00000000000E+00 -0.74505805969E-08  0.93827000000E+00  0.93827000000E+00 0.  1.
     999902    2    1    2    0    0  0.19880357890E-01 -0.86082317087E-02  0.33823764864E-02  0.10220035148E+01  0.10217682778E+01 0.  0.
     999903    2    3    3    0    0  0.77149817943E-02 -0.11682435424E+00  0.60826706124E-01  0.13343242784E+00  0.19921695092E-01 0.  0.
         14    1    1    2    0    0 -0.19880357890E-01  0.86082317087E-02 -0.33823764864E-02  0.21926485210E-01  0.00000000000E+00 0.  1.
     999901    1    3    3    0    0  0.12165376096E-01  0.10821612253E+00 -0.57444329637E-01  0.88857108695E+00  0.88000000000E+00 0. -1.
        -11    1    4    4    0    0 -0.26731536476E-02 -0.85302982901E-01  0.47409867574E-01  0.97630432277E-01  0.51100000000E-03 0.  1.
         11    1    4    4    0    0  0.10388135442E-01 -0.31521371335E-01  0.13416838550E-01  0.35801995566E-01  0.51100000000E-03 0. -1.
</event>
<event>
 8    1  0.1086486E+005  0.1043930E+01  0.7957747E-01            NaN
         13   -1    0    0    0    0  0.00000000000E+00  0.00000000000E+00  0.74505805969E-08  0.10566000000E+00  0.10566000000E+00 0. -1.
     999900   -1    0    0    0    0 -0.00000000000E+00 -0.00000000000E+00 -0.74505805969E-08  0.93827000000E+00  0.93827000000E+00 0.  1.
     999902    2    1    2    0    0 -0.22105249506E-01 -0.81063808012E-02 -0.73837529186E-03  0.10203736704E+01  0.10201017237E+01 0.  0.
     999903    2    3    3    0    0  0.12357736587E+00  0.21215055425E-01  0.15007947955E-01  0.12777571067E+00  0.19492301116E-01 0.  0.
         14    1    1    2    0    0  0.22105249506E-01  0.81063808012E-02  0.73837529186E-03  0.23556329584E-01  0.00000000000E+00 0. -1.
     999901    1    3    3    0    0 -0.14568261538E+00 -0.29321436226E-01 -0.15746323247E-01  0.89259795975E+00  0.88000000000E+00 0.  1.
        -11    1    4    4    0    0  0.30617449539E-01 -0.15886539915E-02 -0.12454404339E-02  0.30688178190E-01  0.51100000000E-03 0.  1.
         11    1    4    4    0    0  0.92959916334E-01  0.22803709416E-01  0.16253388389E-01  0.97087532480E-01  0.51100000000E-03 0. -1.
</event>
<event>
 8    1  0.1086486E+005  0.1043930E+01  0.7957747E-01            NaN
         13   -1    0    0    0    0  0.00000000000E+00  0.00000000000E+00  0.74505805969E-08  0.10566000000E+00  0.10566000000E+00 0. -1.
     999900   -1    0    0    0    0 -0.00000000000E+00 -0.00000000000E+00 -0.74505805969E-08  0.93827000000E+00  0.93827000000E+00 0. -1.
     999902    2    1    2    0    0  0.11312341755E-01  0.10766325387E-01  0.18846776433E-01  0.10194538112E+01  0.10191599429E+01 0.  0.
     999903    2    3    3    0    0 -0.69887535042E-02 -0.92481820123E-01 -0.85060489212E-01  0.12715799166E+00  0.18224661568E-01 0.  0.
         14    1    1    2    0    0 -0.11312341755E-01 -0.10766325387E-01 -0.18846776433E-01  0.24476188842E-01  0.00000000000E+00 0.  1.
     999901    1    3    3    0    0  0.18301095259E-01  0.10324814551E+00  0.10390726564E+00  0.89229581950E+00  0.88000000000E+00 0. -1.
        -11    1    4    4    0    0 -0.46660557878E-02 -0.30527653423E-01 -0.39883469719E-01  0.50444642708E-01  0.51100000000E-03 0. -1.
         11    1    4    4    0    0 -0.23226977163E-02 -0.61954166700E-01 -0.45177019493E-01  0.76713348952E-01  0.51100000000E-03 0.  1.
</event>
<event>
 8    1  0.1086486E+005  0.1043930E+01  0.7957747E-01            NaN
         13   -1    0    0    0    0  0.00000000000E+00  0.00000000000E+00  0.74505805969E-08  0.10566000000E+00  0.10566000000E+00 0.  1.
     999900   -1    0    0    0    0 -0.00000000000E+00 -0.00000000000E+00 -0.74505805969E-08  0.93827000000E+00  0.93827000000E+00 0.  1.
     999902    2    1    2    0    0  0.56099165538E-02  0.23094839289E-01  0.14628049334E-02  0.10201186043E+01  0.10198406662E+01 0.  0.
     999903    2    3    3    0    0 -0.90002785155E-01 -0.44036015308E-01  0.78408526583E-01  0.12906923171E+00  0.21709388589E-01 0.  0.
         14    1    1    2    0    0 -0.56099165538E-02 -0.23094839289E-01 -0.14628049334E-02  0.23811395671E-01  0.00000000000E+00 0. -1.
     999901    1    3    3    0    0  0.95612701709E-01  0.67130854598E-01 -0.76945721650E-01  0.89104937262E+00  0.88000000000E+00 0.  1.
        -11    1    4    4    0    0 -0.40085202665E-01 -0.13397677667E-01  0.21576233199E-01  0.47456466363E-01  0.51100000000E-03 0.  1.
         11    1    4    4    0    0 -0.49917582490E-01 -0.30638337641E-01  0.56832293384E-01  0.81612765345E-01  0.51100000000E-03 0. -1.
</event>
<event>
 8    1  0.1086486E+005  0.1043930E+01  0.7957747E-01            NaN
         13   -1    0    0    0    0  0.00000000000E+00  0.00000000000E+00  0.74505805969E-08  0.10566000000E+00  0.10566000000E+00 0.  1.
     999900   -1    0    0    0    0 -0.00000000000E+00 -0.00000000000E+00 -0.74505805969E-08  0.93827000000E+00  0.93827000000E+00 0. -1.
     999902    2    1    2    0    0 -0.11987508784E-01 -0.11137515025E-01  0.16390335276E-01  0.10207699547E+01  0.10205071841E+01 0.  0.
     999903    2    3    3    0    0 -0.10452229775E+00 -0.39863757372E-01 -0.66892307845E-01  0.13154339031E+00  0.17749726983E-01 0.  0.
         14    1    1    2    0    0  0.11987508784E-01  0.11137515025E-01 -0.16390335276E-01  0.23160045299E-01  0.00000000000E+00 0. -1.
     999901    1    3    3    0    0  0.92534788964E-01  0.28726242346E-01  0.83282643121E-01  0.88922656439E+00  0.88000000000E+00 0.  1.
        -11    1    4    4    0    0 -0.67070357908E-01 -0.34248236594E-01 -0.42142139649E-01  0.86299453502E-01  0.51100000000E-03 0.  1.
         11    1    4    4    0    0 -0.37451939840E-01 -0.56155207782E-02 -0.24750168196E-01  0.45243936811E-01  0.51100000000E-03 0. -1.
</event>
<event>
 8    1  0.1086486E+005  0.1043930E+01  0.7957747E-01            NaN
         13   -1    0    0    0    0  0.00000000000E+00  0.00000000000E+00  0.74505805969E-08  0.10566000000E+00  0.10566000000E+00 0.  1.
     999900   -1    0    0    0    0 -0.00000000000E+00 -0.00000000000E+00 -0.74505805969E-08  0.93827000000E+00  0.93827000000E+00 0. -1.
     999902    2    1    2    0    0  0.13237795088E-01  0.17663132569E-01 -0.50975368228E-02  0.10212758535E+01  0.10210245632E+01 0.  0.
     999903    2    3    3    0    0  0.39897486138E-01 -0.10130396909E+00  0.67829125870E-01  0.12988244513E+00  0.20355728500E-01 0.  0.
         14    1    1    2    0    0 -0.13237795088E-01 -0.17663132569E-01  0.50975368228E-02  0.22654146477E-01  0.00000000000E+00 0. -1.
     999901    1    3    3    0    0 -0.26659691050E-01  0.11896710165E+00 -0.72926662693E-01  0.89139340840E+00  0.88000000000E+00 0.  1.
        -11    1    4    4    0    0  0.23716401445E-01 -0.57207837602E-01  0.26678400956E-01  0.67432948766E-01  0.51100000000E-03 0.  1.
         11    1    4    4    0    0  0.16181084693E-01 -0.44096131483E-01  0.41150724914E-01  0.62449496360E-01  0.51100000000E-03 0. -1.
</event>
<event>
 8    1  0.1086486E+005  0.1043930E+01  0.7957747E-01            NaN
         13   -1    0    0    0    0  0.00000000000E+00  0.00000000000E+00  0.74505805969E-08  0.10566000000E+00  0.10566000000E+00 0.  1.
     999900   -1    0    0    0    0 -0.00000000000E+00 -0.00000000000E+00 -0.74505805969E-08  0.93827000000E+00  0.93827000000E+00 0. -1.
     999902    2    1    2    0    0 -0.25179455871E-02  0.23492107845E-01 -0.50173956631E-02  0.10197764611E+01  0.10194903811E+01 0.  0.
     999903    2    3    3    0    0  0.72986011326E-01  0.10035242216E+00  0.40506583898E-01  0.13203731693E+00  0.19887263253E-01 0.  0.
         14    1    1    2    0    0  0.25179455871E-02 -0.23492107845E-01  0.50173956631E-02  0.24153538876E-01  0.00000000000E+00 0. -1.
     999901    1    3    3    0    0 -0.75503956913E-01 -0.76860314313E-01 -0.45523979561E-01  0.88773914420E+00  0.88000000000E+00 0. -1.
        -11    1    4    4    0    0  0.23316279135E-01  0.30072512767E-01  0.30509196939E-02  0.38178189176E-01  0.51100000000E-03 0. -1.
         11    1    4    4    0    0  0.49669732191E-01  0.70279909392E-01  0.37455664204E-01  0.93859127750E-01  0.51100000000E-03 0.  1.
</event>
<event>
 8    1  0.1086486E+005  0.1043930E+01  0.7957747E-01            NaN
         13   -1    0    0    0    0  0.00000000000E+00  0.00000000000E+00  0.74505805969E-08  0.10566000000E+00  0.10566000000E+00 0.  1.
     999900   -1    0    0    0    0 -0.00000000000E+00 -0.00000000000E+00 -0.74505805969E-08  0.93827000000E+00  0.93827000000E+00 0. -1.
     999902    2    1    2    0    0  0.20570608541E-01 -0.12220905188E-01 -0.57871961087E-02  0.10193130932E+01  0.10190157948E+01 0.  0.
     999903    2    3    3    0    0 -0.88663706527E-01  0.88185311562E-01 -0.82987429701E-02  0.12688951006E+00  0.19853881205E-01 0.  0.
         14    1    1    2    0    0 -0.20570608541E-01  0.12220905188E-01  0.57871961087E-02  0.24616906755E-01  0.00000000000E+00 0.  1.
     999901    1    3    3    0    0  0.10923431507E+00 -0.10040621675E+00  0.25115468614E-02  0.89242358318E+00  0.88000000000E+00 0.  1.
        -11    1    4    4    0    0 -0.81652780812E-01  0.71929583678E-01 -0.54760340847E-02  0.10895544820E+00  0.51100000000E-03 0. -1.
         11    1    4    4    0    0 -0.70109257148E-02  0.16255727885E-01 -0.28227088853E-02  0.17934061863E-01  0.51100000000E-03 0.  1.
</event>
<event>
 8    1  0.1086486E+005  0.1043930E+01  0.7957747E-01            NaN
         13   -1    0    0    0    0  0.00000000000E+00  0.00000000000E+00  0.74505805969E-08  0.10566000000E+00  0.10566000000E+00 0.  1.
     999900   -1    0    0    0    0 -0.00000000000E+00 -0.00000000000E+00 -0.74505805969E-08  0.93827000000E+00  0.93827000000E+00 0.  1.
     999902    2    1    2    0    0  0.20710882838E-01 -0.10298658689E-01  0.33519755090E-05  0.10207998671E+01  0.10205377825E+01 0.  0.
     999903    2    3    3    0    0  0.34488502053E-01 -0.79761471574E-01  0.97892920851E-01  0.13254468252E+00  0.20825940307E-01 0.  0.
         14    1    1    2    0    0 -0.20710882838E-01  0.10298658689E-01 -0.33519755090E-05  0.23130132943E-01  0.00000000000E+00 0. -1.
     999901    1    3    3    0    0 -0.13777619215E-01  0.69462812885E-01 -0.97889568875E-01  0.88825518454E+00  0.88000000000E+00 0. -1.
        -11    1    4    4    0    0  0.12607673219E-01 -0.54028815438E-01  0.57859052060E-01  0.80162318753E-01  0.51100000000E-03 0. -1.
         11    1    4    4    0    0  0.21880828833E-01 -0.25732656137E-01  0.40033868791E-01  0.52382363765E-01  0.51100000000E-03 0.  1.
</event>
<event>
 8    1  0.1086486E+005  0.1043930E+01  0.7957747E-01            NaN
         13   -1    0    0    0    0  0.00000000000E+00  0.00000000000E+00  0.74505805969E-08  0.10566000000E+00  0.10566000000E+00 0.  1.
     999900   -1    0    0    0    0 -0.00000000000E+00 -0.00000000000E+00 -0.74505805969E-08  0.93827000000E+00  0.93827000000E+00 0.  1.
     999902    2    1    2    0    0 -0.23305260166E-01 -0.14251600440E-02 -0.21659071408E-02  0.10204809619E+01  0.10202115155E+01 0.  0.
     999903    2    3    3    0    0 -0.59963850841E-01 -0.10228760014E+00 -0.55570066197E-01  0.13235423207E+00  0.19266394029E-01 0.  0.
         14    1    1    2    0    0  0.23305260166E-01  0.14251600440E-02  0.21659071408E-02  0.23449038068E-01  0.00000000000E+00 0. -1.
     999901    1    3    3    0    0  0.36658590675E-01  0.10086244010E+00  0.53404159056E-01  0.88812672986E+00  0.88000000000E+00 0. -1.
        -11    1    4    4    0    0 -0.13435716890E-01 -0.37927025237E-01 -0.13262549823E-01  0.42369022653E-01  0.51100000000E-03 0.  1.
         11    1    4    4    0    0 -0.46528133950E-01 -0.64360574906E-01 -0.42307516374E-01  0.89985209417E-01  0.51100000000E-03 0. -1.
</event>
<event>
 8    1  0.1086486E+005  0.1043930E+01  0.7957747E-01            NaN
         13   -1    0    0    0    0  0.00000000000E+00  0.00000000000E+00  0.74505805969E-08  0.10566000000E+00  0.10566000000E+00 0. -1.
     999900   -1    0    0    0    0 -0.00000000000E+00 -0.00000000000E+00 -0.74505805969E-08  0.93827000000E+00  0.93827000000E+00 0.  1.
     999902    2    1    2    0    0 -0.34707652990E-02  0.21417750491E-01 -0.11126576947E-01  0.10195462562E+01  0.10192546304E+01 0.  0.
     999903    2    3    3    0    0  0.94035522453E-01  0.12377400527E-01 -0.87893786754E-01  0.13079296726E+00  0.19636776906E-01 0.  0.
         14    1    1    2    0    0  0.34707652990E-02 -0.21417750491E-01  0.11126576947E-01  0.24383743814E-01  0.00000000000E+00 0. -1.
     999901    1    3    3    0    0 -0.97506287752E-01  0.90403499638E-02  0.76767209808E-01  0.88875328893E+00  0.88000000000E+00 0. -1.
        -11    1    4    4    0    0  0.62733596487E-01  0.12187734595E-01 -0.69781950413E-01  0.94624662362E-01  0.51100000000E-03 0. -1.
         11    1    4    4    0    0  0.31301925966E-01  0.18966593224E-03 -0.18111836341E-01  0.36168304895E-01  0.51100000000E-03 0.  1.
</event>
<event>
 8    1  0.1086486E+005  0.1043930E+01  0.7957747E-01            NaN
         13   -1    0    0    0    0  0.00000000000E+00  0.00000000000E+00  0.74505805969E-08  0.10566000000E+00  0.10566000000E+00 0.  1.
     999900   -1    0    0    0    0 -0.00000000000E+00 -0.00000000000E+00 -0.74505805969E-08  0.93827000000E+00  0.93827000000E+00 0. -1.
     999902    2    1    2    0    0 -0.53595224475E-02  0.15216727712E-01  0.20380622341E-01  0.10179368653E+01  0.10176049424E+01 0.  0.
     999903    2    3    3    0    0  0.74976962519E-01 -0.94081744939E-01 -0.31759823519E-01  0.12601829671E+00  0.19975111454E-01 0.  0.
         14    1    1    2    0    0  0.53595224475E-02 -0.15216727712E-01 -0.20380622341E-01  0.25993134673E-01  0.00000000000E+00 0. -1.
     999901    1    3    3    0    0 -0.80336484967E-01  0.10929847265E+00  0.52140445860E-01  0.89191856861E+00  0.88000000000E+00 0.  1.
        -11    1    4    4    0    0  0.58584429595E-01 -0.61176674306E-01 -0.16965249643E-01  0.86387508857E-01  0.51100000000E-03 0.  1.
         11    1    4    4    0    0  0.16392532924E-01 -0.32905070633E-01 -0.14794573877E-01  0.39630787857E-01  0.51100000000E-03 0. -1.
</event>
<event>
 8    1  0.1086486E+005  0.1043930E+01  0.7957747E-01            NaN
         13   -1    0    0    0    0  0.00000000000E+00  0.00000000000E+00  0.74505805969E-08  0.10566000000E+00  0.10566000000E+00 0. -1.
     999900   -1    0    0    0    0 -0.00000000000E+00 -0.00000000000E+00 -0.74505805969E-08  0.93827000000E+00  0.93827000000E+00 0.  1.
     999902    2    1    2    0    0 -0.41687353704E-02  0.20202933027E-01 -0.11452805496E-01  0.10203354326E+01  0.10200625919E+01 0.  0.
     999903    2    3    3    0    0  0.89895758416E-01 -0.89712923625E-01 -0.29606391717E-02  0.12848245064E+00  0.19217666103E-01 0.  0.
         14    1    1    2    0    0  0.41687353704E-02 -0.20202933027E-01  0.11452805496E-01  0.23594567409E-01  0.00000000000E+00 0.  1.
     999901    1    3    3    0    0 -0.94064493786E-01  0.10991585665E+00 -0.84921663241E-02  0.89185298196E+00  0.88000000000E+00 0.  1.
        -11    1    4    4    0    0  0.40319522943E-01 -0.52262038269E-01  0.28968481608E-02  0.66072970454E-01  0.51100000000E-03 0. -1.
         11    1    4    4    0    0  0.49576235473E-01 -0.37450885356E-01 -0.58574873325E-02  0.62409480181E-01  0.51100000000E-03 0.  1.
</event>
<event>
 8    1  0.1086486E+005  0.1043930E+01  0.7957747E-01            NaN
         13   -1    0    0    0    0  0.00000000000E+00  0.00000000000E+00  0.74505805969E-08  0.10566000000E+00  0.10566000000E+00 0.  1.
     999900   -1    0    0    0    0 -0.00000000000E+00 -0.00000000000E+00 -0.74505805969E-08  0.93827000000E+00  0.93827000000E+00 0.  1.
     999902    2    1    2    0    0 -0.11949549516E-01  0.47557255406E-02 -0.16261338941E-01  0.10231974217E+01  0.10229873528E+01 0.  0.
     999903    2    3    3    0    0  0.83759653193E-01 -0.91130401559E-01 -0.40937112831E-01  0.13248798834E+00  0.23596403449E-01 0.  0.
         14    1    1    2    0    0  0.11949549516E-01 -0.47557255406E-02  0.16261338941E-01  0.20732578306E-01  0.00000000000E+00 0.  1.
     999901    1    3    3    0    0 -0.95709202708E-01  0.95886127099E-01  0.24675773890E-01  0.89070943336E+00  0.88000000000E+00 0.  1.
        -11    1    4    4    0    0  0.11684535456E-01 -0.22884853966E-01 -0.17073612561E-02  0.25756962424E-01  0.51100000000E-03 0. -1.
         11    1    4    4    0    0  0.72075117737E-01 -0.68245547593E-01 -0.39229751574E-01  0.10673102591E+00  0.51100000000E-03 0.  1.
</event>
<event>
 8    1  0.1086486E+005  0.1043930E+01  0.7957747E-01            NaN
         13   -1    0    0    0    0  0.00000000000E+00  0.00000000000E+00  0.74505805969E-08  0.10566000000E+00  0.10566000000E+00 0.  1.
     999900   -1    0    0    0    0 -0.00000000000E+00 -0.00000000000E+00 -0.74505805969E-08  0.93827000000E+00  0.93827000000E+00 0.  1.
     999902    2    1    2    0    0  0.14023954999E-01  0.12416379598E-01  0.14383245138E-01  0.10203139983E+01  0.10200406558E+01 0.  0.
     999903    2    3    3    0    0 -0.11419717140E+00 -0.42734917608E-01  0.37313571820E-01  0.12901824338E+00  0.19650377677E-01 0.  0.
         14    1    1    2    0    0 -0.14023954999E-01 -0.12416379598E-01 -0.14383245138E-01  0.23616001711E-01  0.00000000000E+00 0. -1.
     999901    1    3    3    0    0  0.12822112640E+00  0.55151297206E-01 -0.22930326682E-01  0.89129575491E+00  0.88000000000E+00 0. -1.
        -11    1    4    4    0    0 -0.38599875619E-01 -0.56385814842E-02  0.15896771123E-01  0.42127336162E-01  0.51100000000E-03 0.  1.
         11    1    4    4    0    0 -0.75597295785E-01 -0.37096336124E-01  0.21416800697E-01  0.86890907216E-01  0.51100000000E-03 0. -1.
</event>
<event>
 8    1  0.1086486E+005  0.1043930E+01  0.7957747E-01            NaN
         13   -1    0    0    0    0  0.00000000000E+00  0.00000000000E+00  0.74505805969E-08  0.10566000000E+00  0.10566000000E+00 0.  1.
     999900   -1    0    0    0    0 -0.00000000000E+00 -0.00000000000E+00 -0.74505805969E-08  0.93827000000E+00  0.93827000000E+00 0.  1.
     999902    2    1    2    0    0  0.18797101240E-01  0.15125085127E-01 -0.44321931495E-02  0.10193995383E+01  0.10191043495E+01 0.  0.
     999903    2    3    3    0    0 -0.12439541497E+00  0.60379644703E-02  0.18830432702E-01  0.12747587440E+00  0.19617264821E-01 0.  0.
         14    1    1    2    0    0 -0.18797101240E-01 -0.15125085127E-01  0.44321931495E-02  0.24530461701E-01  0.00000000000E+00 0.  1.
     999901    1    3    3    0    0  0.14319251621E+00  0.90871206572E-02 -0.23262625852E-01  0.89192366390E+00  0.88000000000E+00 0.  1.
        -11    1    4    4    0    0 -0.56634372907E-01  0.12287336064E-02 -0.11612986221E-02  0.56661907101E-01  0.51100000000E-03 0.  1.
         11    1    4    4    0    0 -0.67761042059E-01  0.48092308639E-02  0.19991731325E-01  0.70813967301E-01  0.51100000000E-03 0. -1.
</event>
<event>
 8    1  0.1086486E+005  0.1043930E+01  0.7957747E-01            NaN
         13   -1    0    0    0    0  0.00000000000E+00  0.00000000000E+00  0.74505805969E-08  0.10566000000E+00  0.10566000000E+00 0. -1.
     999900   -1    0    0    0    0 -0.00000000000E+00 -0.00000000000E+00 -0.74505805969E-08  0.93827000000E+00  0.93827000000E+00 0.  1.
     999902    2    1    2    0    0  0.10022860942E-01 -0.66339461835E-02  0.20616736436E-01  0.10200654488E+01  0.10197862536E+01 0.  0.
     999903    2    3    3    0    0 -0.42520444214E-01  0.11027712203E+00 -0.45622730482E-01  0.12831623305E+00  0.20361490786E-01 0.  0.
         14    1    1    2    0    0 -0.10022860942E-01  0.66339461835E-02 -0.20616736436E-01  0.23864551215E-01  0.00000000000E+00 0.  1.
     999901    1    3    3    0    0  0.52543305156E-01 -0.11691106822E+00  0.66239466918E-01  0.89174921574E+00  0.88000000000E+00 0. -1.
        -11    1    4    4    0    0 -0.18919738827E-01  0.25539376388E-01 -0.15240918757E-01  0.35252843703E-01  0.51100000000E-03 0.  1.
         11    1    4    4    0    0 -0.23600705387E-01  0.84737745646E-01 -0.30381811725E-01  0.93063389346E-01  0.51100000000E-03 0. -1.
</event>
<event>
 8    1  0.1086486E+005  0.1043930E+01  0.7957747E-01            NaN
         13   -1    0    0    0    0  0.00000000000E+00  0.00000000000E+00  0.74505805969E-08  0.10566000000E+00  0.10566000000E+00 0.  1.
     999900   -1    0    0    0    0 -0.00000000000E+00 -0.00000000000E+00 -0.74505805969E-08  0.93827000000E+00  0.93827000000E+00 0. -1.
     999902    2    1    2    0    0  0.55894044547E-02  0.98359831469E-02  0.20569314539E-01  0.10204548066E+01  0.10201847517E+01 0.  0.
     999903    2    3    3    0    0 -0.92582248264E-01 -0.28028480320E-01  0.87045388188E-01  0.13169698839E+00  0.20251635547E-01 0.  0.
         14    1    1    2    0    0 -0.55894044547E-02 -0.98359831469E-02 -0.20569314539E-01  0.23475193444E-01  0.00000000000E+00 0. -1.
     999901    1    3    3    0    0  0.98171652719E-01  0.37864463467E-01 -0.66476073650E-01  0.88875781817E+00  0.88000000000E+00 0. -1.
        -11    1    4    4    0    0 -0.58568600368E-01 -0.13323386815E-01  0.41645657578E-01  0.73091829238E-01  0.51100000000E-03 0.  1.
         11    1    4    4    0    0 -0.34013647896E-01 -0.14705093506E-01  0.45399730611E-01  0.58605159148E-01  0.51100000000E-03 0. -1.
</event>
<event>
 8    1  0.1086486E+005  0.1043930E+01  0.7957747E-01            NaN
         13   -1    0    0    0    0  0.00000000000E+00  0.00000000000E+00  0.74505805969E-08  0.10566000000E+00  0.10566000000E+00 0. -1.
     999900   -1    0    0    0    0 -0.00000000000E+00 -0.00000000000E+00 -0.74505805969E-08  0.93827000000E+00  0.93827000000E+00 0.  1.
     999902    2    1    2    0    0  0.42939895541E-02 -0.23739465173E-01 -0.48561189219E-02  0.10193214152E+01  0.10190243202E+01 0.  0.
     999903    2    3    3    0    0  0.78677266694E-01  0.90437143658E-01 -0.40608455882E-01  0.12811582755E+00  0.19890433208E-01 0.  0.
         14    1    1    2    0    0 -0.42939895541E-02  0.23739465173E-01  0.48561189219E-02  0.24608584762E-01  0.00000000000E+00 0. -1.
     999901    1    3    3    0    0 -0.74383277140E-01 -0.11417660883E+00  0.35752336960E-01  0.89120558768E+00  0.88000000000E+00 0.  1.
        -11    1    4    4    0    0  0.26683893054E-01  0.42522599780E-01 -0.10632172157E-01  0.51317695255E-01  0.51100000000E-03 0.  1.
         11    1    4    4    0    0  0.51993373640E-01  0.47914543878E-01 -0.29976283726E-01  0.76798132298E-01  0.51100000000E-03 0. -1.
</event>
<event>
 8    1  0.1086486E+005  0.1043930E+01  0.7957747E-01            NaN
         13   -1    0    0    0    0  0.00000000000E+00  0.00000000000E+00  0.74505805969E-08  0.10566000000E+00  0.10566000000E+00 0.  1.
     999900   -1    0    0    0    0 -0.00000000000E+00 -0.00000000000E+00 -0.74505805969E-08  0.93827000000E+00  0.93827000000E+00 0. -1.
     999902    2    1    2    0    0  0.33514219856E-02  0.20158713649E-01  0.12062152571E-01  0.10202002446E+01  0.10199242314E+01 0.  0.
     999903    2    3    3    0    0 -0.33123923658E-01 -0.35266820087E-01 -0.11713316478E+00  0.12829561371E+00  0.19966053397E-01 0.  0.
         14    1    1    2    0    0 -0.33514219856E-02 -0.20158713649E-01 -0.12062152571E-01  0.23729755370E-01  0.00000000000E+00 0.  1.
     999901    1    3    3    0    0  0.36475345644E-01  0.55425533736E-01  0.12919531735E+00  0.89190463092E+00  0.88000000000E+00 0.  1.
        -11    1    4    4    0    0 -0.16093426833E-01 -0.55158792526E-02 -0.51623822346E-01  0.54357184123E-01  0.51100000000E-03 0. -1.
         11    1    4    4    0    0 -0.17030496825E-01 -0.29750940834E-01 -0.65509342434E-01  0.73938429587E-01  0.51100000000E-03 0.  1.
</event>
<event>
 8    1  0.1086486E+005  0.1043930E+01  0.7957747E-01            NaN
         13   -1    0    0    0    0  0.00000000000E+00  0.00000000000E+00  0.74505805969E-08  0.10566000000E+00  0.10566000000E+00 0.  1.
     999900   -1    0    0    0    0 -0.00000000000E+00 -0.00000000000E+00 -0.74505805969E-08  0.93827000000E+00  0.93827000000E+00 0. -1.
     999902    2    1    2    0    0 -0.17781073828E-01 -0.13803429684E-01  0.91140630252E-02  0.10196448728E+01  0.10193556294E+01 0.  0.
     999903    2    3    3    0    0  0.11830981138E+00  0.42779074165E-01  0.10868889547E-02  0.12735190282E+00  0.19750067603E-01 0.  0.
         14    1    1    2    0    0  0.17781073828E-01  0.13803429684E-01 -0.91140630252E-02  0.24285127184E-01  0.00000000000E+00 0.  1.
     999901    1    3    3    0    0 -0.13609088520E+00 -0.56582503849E-01  0.80271740706E-02  0.89229296999E+00  0.88000000000E+00 0.  1.
        -11    1    4    4    0    0  0.46279410591E-01  0.11772469055E-01 -0.79409771324E-02  0.48411724935E-01  0.51100000000E-03 0.  1.
         11    1    4    4    0    0  0.72030400786E-01  0.31006605110E-01  0.90278660871E-02  0.78940177887E-01  0.51100000000E-03 0. -1.
</event>
<event>
 8    1  0.1086486E+005  0.1043930E+01  0.7957747E-01            NaN
         13   -1    0    0    0    0  0.00000000000E+00  0.00000000000E+00  0.74505805969E-08  0.10566000000E+00  0.10566000000E+00 0.  1.
     999900   -1    0    0    0    0 -0.00000000000E+00 -0.00000000000E+00 -0.74505805969E-08  0.93827000000E+00  0.93827000000E+00 0. -1.
     999902    2    1    2    0    0 -0.55459802781E-02  0.75915334013E-02 -0.19686451332E-01  0.10221138215E+01  0.10218809708E+01 0.  0.
     999903    2    3    3    0    0 -0.69618559506E-01  0.97855963306E-01  0.51298527248E-01  0.13234316013E+00  0.21462519748E-01 0.  0.
         14    1    1    2    0    0  0.55459802781E-02 -0.75915334013E-02  0.19686451332E-01  0.21816178461E-01  0.00000000000E+00 0.  1.
     999901    1    3    3    0    0  0.64072579228E-01 -0.90264429904E-01 -0.70984978579E-01  0.88977066141E+00  0.88000000000E+00 0. -1.
        -11    1    4    4    0    0 -0.39555671651E-01  0.41618863647E-01  0.31908586257E-01  0.65690181679E-01  0.51100000000E-03 0.  1.
         11    1    4    4    0    0 -0.30062887855E-01  0.56237099658E-01  0.19389940991E-01  0.66652978454E-01  0.51100000000E-03 0. -1.
</event>
<event>
 8    1  0.1086486E+005  0.1043930E+01  0.7957747E-01            NaN
         13   -1    0    0    0    0  0.00000000000E+00  0.00000000000E+00  0.74505805969E-08  0.10566000000E+00  0.10566000000E+00 0. -1.
     999900   -1    0    0    0    0 -0.00000000000E+00 -0.00000000000E+00 -0.74505805969E-08  0.93827000000E+00  0.93827000000E+00 0. -1.
     999902    2    1    2    0    0  0.40517186280E-02 -0.77004972805E-02  0.21779302639E-01  0.10204768103E+01  0.10202072673E+01 0.  0.
     999903    2    3    3    0    0 -0.49912130303E-01 -0.83640814128E-01 -0.82859549678E-01  0.12939414406E+00  0.19751784850E-01 0.  0.
         14    1    1    2    0    0 -0.40517186280E-02  0.77004972805E-02 -0.21779302639E-01  0.23453189669E-01  0.00000000000E+00 0.  1.
     999901    1    3    3    0    0  0.53963848931E-01  0.75940316847E-01  0.10463885232E+00  0.89108266627E+00  0.88000000000E+00 0.  1.
        -11    1    4    4    0    0 -0.27901434618E-01 -0.47543621049E-01 -0.33956872053E-01  0.64747326098E-01  0.51100000000E-03 0.  1.
         11    1    4    4    0    0 -0.22010695685E-01 -0.36097193078E-01 -0.48902677625E-01  0.64646817961E-01  0.51100000000E-03 0. -1.
</event>
<event>
 8    1  0.1086486E+005  0.1043930E+01  0.7957747E-01            NaN
         13   -1    0    0    0    0  0.00000000000E+00  0.00000000000E+00  0.74505805969E-08  0.10566000000E+00  0.10566000000E+00 0.  1.
     999900   -1    0    0    0    0 -0.00000000000E+00 -0.00000000000E+00 -0.74505805969E-08  0.93827000000E+00  0.93827000000E+00 0. -1.
     999902    2    1    2    0    0  0.19639641029E-01 -0.11787844913E-01  0.57533032802E-02  0.10203128603E+01  0.10200394912E+01 0.  0.
     999903    2    3    3    0    0 -0.56236621005E-01  0.60697114877E-01  0.97228178260E-01  0.12937014091E+00  0.20895392204E-01 0.  0.
         14    1    1    2    0    0 -0.19639641029E-01  0.11787844913E-01 -0.57533032802E-02  0.23617139667E-01  0.00000000000E+00 0. -1.
     999901    1    3    3    0    0  0.75876262034E-01 -0.72484959790E-01 -0.91474874980E-01  0.89094271942E+00  0.88000000000E+00 0. -1.
        -11    1    4    4    0    0 -0.32271552100E-01  0.38986498755E-01  0.43887038277E-01  0.66990547168E-01  0.51100000000E-03 0. -1.
         11    1    4    4    0    0 -0.23965068905E-01  0.21710616122E-01  0.53341139983E-01  0.62379593744E-01  0.51100000000E-03 0.  1.
</event>
<event>
 8    1  0.1086486E+005  0.1043930E+01  0.7957747E-01            NaN
         13   -1    0    0    0    0  0.00000000000E+00  0.00000000000E+00  0.74505805969E-08  0.10566000000E+00  0.10566000000E+00 0.  1.
     999900   -1    0    0    0    0 -0.00000000000E+00 -0.00000000000E+00 -0.74505805969E-08  0.93827000000E+00  0.93827000000E+00 0. -1.
     999902    2    1    2    0    0  0.21926817835E-01  0.46028250594E-02 -0.11790849444E-02  0.10214942789E+01  0.10212478643E+01 0.  0.
     999903    2    3    3    0    0  0.84932388191E-01  0.16392115585E-01 -0.10030696971E+00  0.13361195181E+00  0.17562843602E-01 0.  0.
         14    1    1    2    0    0 -0.21926817835E-01 -0.46028250594E-02  0.11790849444E-02  0.22435721076E-01  0.00000000000E+00 0.  1.
     999901    1    3    3    0    0 -0.63005570356E-01 -0.11789290525E-01  0.99127884770E-01  0.88788232712E+00  0.88000000000E+00 0.  1.
        -11    1    4    4    0    0  0.44759755170E-01  0.12723801427E-01 -0.65379853935E-01  0.80250340978E-01  0.51100000000E-03 0. -1.
         11    1    4    4    0    0  0.40172633021E-01  0.36683141574E-02 -0.34927115780E-01  0.53361610829E-01  0.51100000000E-03 0.  1.
</event>
<event>
 8    1  0.1086486E+005  0.1043930E+01  0.7957747E-01            NaN
         13   -1    0    0    0    0  0.00000000000E+00  0.00000000000E+00  0.74505805969E-08  0.10566000000E+00  0.10566000000E+00 0.  1.
     999900   -1    0    0    0    0 -0.00000000000E+00 -0.00000000000E+00 -0.74505805969E-08  0.93827000000E+00  0.93827000000E+00 0. -1.
     999902    2    1    2    0    0 -0.72653774909E-02  0.51952812710E-02 -0.21838567919E-01  0.10203355153E+01  0.10200626766E+01 0.  0.
     999903    2    3    3    0    0 -0.80899109254E-01 -0.34267392119E-01 -0.98023097564E-01  0.13310199952E+00  0.19715338665E-01 0.  0.
         14    1    1    2    0    0  0.72653774909E-02 -0.51952812710E-02  0.21838567919E-01  0.23594484659E-01  0.00000000000E+00 0.  1.
     999901    1    3    3    0    0  0.73633731763E-01  0.39462673390E-01  0.76184529645E-01  0.88723351582E+00  0.88000000000E+00 0.  1.
        -11    1    4    4    0    0 -0.16995835052E-01 -0.10413583155E-01 -0.34741079559E-01  0.40056271084E-01  0.51100000000E-03 0.  1.
         11    1    4    4    0    0 -0.63903274203E-01 -0.23853808964E-01 -0.63282018005E-01  0.93045728433E-01  0.51100000000E-03 0. -1.
</event>
<event>
 8    1  0.1086486E+005  0.1043930E+01  0.7957747E-01            NaN
         13   -1    0    0    0    0  0.00000000000E+00  0.00000000000E+00  0.74505805969E-08  0.10566000000E+00  0.10566000000E+00 0. -1.
     999900   -1    0    0    0    0 -0.00000000000E+00 -0.00000000000E+00 -0.74505805969E-08  0.93827000000E+00  0.93827000000E+00 0.  1.
     999902    2    1    2    0    0 -0.22823005873E-01 -0.53255676496E-02  0.62915190948E-02  0.10196640881E+01  0.10193753078E+01 0.  0.
     999903    2    3    3    0    0 -0.60378536348E-01  0.76181826583E-01  0.86726402105E-01  0.13145035054E+00  0.17563811708E-01 0.  0.
         14    1    1    2    0    0  0.22823005873E-01  0.53255676496E-02 -0.62915190948E-02  0.24265911901E-01  0.00000000000E+00 0. -1.
     999901    1    3    3    0    0  0.37555530475E-01 -0.81507394233E-01 -0.80434883011E-01  0.88821373756E+00  0.88000000000E+00 0.  1.
        -11    1    4    4    0    0 -0.86160093983E-02  0.11083168494E-01  0.21816878763E-01  0.25948209221E-01  0.51100000000E-03 0.  1.
         11    1    4    4    0    0 -0.51762526950E-01  0.65098658089E-01  0.64909523342E-01  0.10550214132E+00  0.51100000000E-03 0. -1.
</event>
<event>
 8    1  0.1086486E+005  0.1043930E+01  0.7957747E-01            NaN
         13   -1    0    0    0    0  0.00000000000E+00  0.00000000000E+00  0.74505805969E-08  0.10566000000E+00  0.10566000000E+00 0.  1.
     999900   -1    0    0    0    0 -0.00000000000E+00 -0.00000000000E+00 -0.74505805969E-08  0.93827000000E+00  0.93827000000E+00 0. -1.
     999902    2    1    2    0    0 -0.76218423732E-02  0.10147560499E-01 -0.21334252351E-01  0.10191063059E+01  0.10188039296E+01 0.  0.
     999903    2    3    3    0    0  0.60443357600E-01  0.11328908252E+00  0.59788326384E-02  0.13005228638E+00  0.19749305273E-01 0.  0.
         14    1    1    2    0    0  0.76218423732E-02 -0.10147560499E-01  0.21334252351E-01  0.24823694096E-01  0.00000000000E+00 0.  1.
     999901    1    3    3    0    0 -0.68065199973E-01 -0.10314152202E+00 -0.27313084989E-01  0.88905401952E+00  0.88000000000E+00 0. -1.
        -11    1    4    4    0    0  0.75102692568E-02  0.31779614727E-01 -0.28580144904E-03  0.32660233618E-01  0.51100000000E-03 0. -1.
         11    1    4    4    0    0  0.52933088343E-01  0.81509467789E-01  0.62646340874E-02  0.97392052766E-01  0.51100000000E-03 0.  1.
</event>
<event>
 8    1  0.1086486E+005  0.1043930E+01  0.7957747E-01            NaN
         13   -1    0    0    0    0  0.00000000000E+00  0.00000000000E+00  0.74505805969E-08  0.10566000000E+00  0.10566000000E+00 0. -1.
     999900   -1    0    0    0    0 -0.00000000000E+00 -0.00000000000E+00 -0.74505805969E-08  0.93827000000E+00  0.93827000000E+00 0. -1.
     999902    2    1    2    0    0 -0.56445875119E-03 -0.27798529013E-02 -0.23625288904E-01  0.10201350326E+01  0.10198574824E+01 0.  0.
     999903    2    3    3    0    0  0.81638650484E-01  0.98482711828E-01  0.85823499435E-02  0.12993910467E+00  0.21137653818E-01 0.  0.
         14    1    1    2    0    0  0.56445875119E-03  0.27798529013E-02  0.23625288904E-01  0.23794967359E-01  0.00000000000E+00 0. -1.
     999901    1    3    3    0    0 -0.82203109235E-01 -0.10126256473E+00 -0.32207638847E-01  0.89019592798E+00  0.88000000000E+00 0. -1.
        -11    1    4    4    0    0  0.67245596685E-01  0.68524927458E-01  0.18690629547E-02  0.96028071282E-01  0.51100000000E-03 0. -1.
         11    1    4    4    0    0  0.14393053799E-01  0.29957784369E-01  0.67132869888E-02  0.33911033384E-01  0.51100000000E-03 0.  1.
</event>
<event>
 8    1  0.1086486E+005  0.1043930E+01  0.7957747E-01            NaN
         13   -1    0    0    0    0  0.00000000000E+00  0.00000000000E+00  0.74505805969E-08  0.10566000000E+00  0.10566000000E+00 0. -1.
     999900   -1    0    0    0    0 -0.00000000000E+00 -0.00000000000E+00 -0.74505805969E-08  0.93827000000E+00  0.93827000000E+00 0.  1.
     999902    2    1    2    0    0 -0.10397278990E-01 -0.15918458197E-01 -0.14155108975E-01  0.10202262486E+01  0.10199508471E+01 0.  0.
     999903    2    3    3    0    0 -0.12542978235E+00  0.22008861299E-01  0.23978461333E-01  0.13111144857E+00  0.19955577234E-01 0.  0.
         14    1    1    2    0    0  0.10397278990E-01  0.15918458197E-01  0.14155108975E-01  0.23703751430E-01  0.00000000000E+00 0. -1.
     999901    1    3    3    0    0  0.11503250336E+00 -0.37927319496E-01 -0.38133570308E-01  0.88911480000E+00  0.88000000000E+00 0.  1.
        -11    1    4    4    0    0 -0.10011141945E+00  0.23910819224E-01  0.24117128525E-01  0.10571622671E+00  0.51100000000E-03 0. -1.
         11    1    4    4    0    0 -0.25318362902E-01 -0.19019579255E-02 -0.13866719212E-03  0.25395221865E-01  0.51100000000E-03 0.  1.
</event>
<event>
 8    1  0.1086486E+005  0.1043930E+01  0.7957747E-01            NaN
         13   -1    0    0    0    0  0.00000000000E+00  0.00000000000E+00  0.74505805969E-08  0.10566000000E+00  0.10566000000E+00 0. -1.
     999900   -1    0    0    0    0 -0.00000000000E+00 -0.00000000000E+00 -0.74505805969E-08  0.93827000000E+00  0.93827000000E+00 0. -1.
     999902    2    1    2    0    0  0.70820873354E-02  0.21118371123E-01  0.84951350482E-02  0.10200907702E+01  0.10198121741E+01 0.  0.
     999903    2    3    3    0    0 -0.86242165235E-01 -0.52214295558E-01 -0.76529617098E-01  0.12806145192E+00  0.19465596567E-01 0.  0.
         14    1    1    2    0    0 -0.70820873354E-02 -0.21118371123E-01 -0.84951350482E-02  0.23839229841E-01  0.00000000000E+00 0.  1.
     999901    1    3    3    0    0  0.93324252570E-01  0.73332666681E-01  0.85024752146E-01  0.89202931824E+00  0.88000000000E+00 0. -1.
        -11    1    4    4    0    0 -0.80027536589E-01 -0.52199133816E-01 -0.67095603333E-01  0.11675288986E+00  0.51100000000E-03 0.  1.
         11    1    4    4    0    0 -0.62146286455E-02 -0.15161741418E-04 -0.94340137652E-02  0.11308562057E-01  0.51100000000E-03 0. -1.
</event>
<event>
 8    1  0.1086486E+005  0.1043930E+01  0.7957747E-01            NaN
         13   -1    0    0    0    0  0.00000000000E+00  0.00000000000E+00  0.74505805969E-08  0.10566000000E+00  0.10566000000E+00 0. -1.
     999900   -1    0    0    0    0 -0.00000000000E+00 -0.00000000000E+00 -0.74505805969E-08  0.93827000000E+00  0.93827000000E+00 0.  1.
     999902    2    1    2    0    0  0.13035478550E-01  0.19798239163E-01  0.14185477263E-02  0.10201832896E+01  0.10199068772E+01 0.  0.
     999903    2    3    3    0    0  0.85254781435E-01  0.14821987532E-01 -0.97147755955E-01  0.13172636497E+00  0.20641697319E-01 0.  0.
         14    1    1    2    0    0 -0.13035478550E-01 -0.19798239163E-01 -0.14185477263E-02  0.23746710354E-01  0.00000000000E+00 0. -1.
     999901    1    3    3    0    0 -0.72219302885E-01  0.49762516315E-02  0.98566303681E-01  0.88845692468E+00  0.88000000000E+00 0.  1.
        -11    1    4    4    0    0  0.25118283536E-01  0.28382167182E-03 -0.41492233462E-01  0.48506445770E-01  0.51100000000E-03 0. -1.
         11    1    4    4    0    0  0.60136497899E-01  0.14538165860E-01 -0.55655522493E-01  0.83219919197E-01  0.51100000000E-03 0.  1.
</event>
<event>
 8    1  0.1086486E+005  0.1043930E+01  0.7957747E-01            NaN
         13   -1    0    0    0    0  0.00000000000E+00  0.00000000000E+00  0.74505805969E-08  0.10566000000E+00  0.10566000000E+00 0.  1.
     999900   -1    0    0    0    0 -0.00000000000E+00 -0.00000000000E+00 -0.74505805969E-08  0.93827000000E+00  0.93827000000E+00 0.  1.
     999902    2    1    2    0    0 -0.13208492769E-01  0.92677577564E-02  0.17635587415E-01  0.10200266622E+01  0.10197465479E+01 0.  0.
     999903    2    3    3    0    0 -0.22547704487E-02  0.12913699720E+00 -0.12584348840E-01  0.13131868814E+00  0.20119244086E-01 0.  0.
         14    1    1    2    0    0  0.13208492769E-01 -0.92677577564E-02 -0.17635587415E-01  0.23903337812E-01  0.00000000000E+00 0. -1.
     999901    1    3    3    0    0 -0.10953722320E-01 -0.11986923944E+00  0.30219936256E-01  0.88870797405E+00  0.88000000000E+00 0.  1.
        -11    1    4    4    0    0  0.52589793771E-02  0.32265620294E-01 -0.97323880156E-02  0.34113158964E-01  0.51100000000E-03 0.  1.
         11    1    4    4    0    0 -0.75137498258E-02  0.96871376905E-01 -0.28519608246E-02  0.97205529172E-01  0.51100000000E-03 0. -1.
</event>
<event>
 8    1  0.1086486E+005  0.1043930E+01  0.7957747E-01            NaN
         13   -1    0    0    0    0  0.00000000000E+00  0.00000000000E+00  0.74505805969E-08  0.10566000000E+00  0.10566000000E+00 0. -1.
     999900   -1    0    0    0    0 -0.00000000000E+00 -0.00000000000E+00 -0.74505805969E-08  0.93827000000E+00  0.93827000000E+00 0.  1.
     999902    2    1    2    0    0  0.93623589796E-02 -0.70260982526E-02  0.19403201462E-01  0.10212693723E+01  0.10210179365E+01 0.  0.
     999903    2    3    3    0    0  0.11084339239E-02  0.10479534764E+00 -0.72303794801E-01  0.12942726953E+00  0.23244049623E-01 0.  0.
         14    1    1    2    0    0 -0.93623589796E-02  0.70260982526E-02 -0.19403201462E-01  0.22660627734E-01  0.00000000000E+00 0. -1.
     999901    1    3    3    0    0  0.82539250557E-02 -0.11182144590E+00  0.91706996263E-01  0.89184210273E+00  0.88000000000E+00 0. -1.
        -11    1    4    4    0    0 -0.65155314567E-02  0.75059170852E-01 -0.60143649175E-01  0.96404620928E-01  0.51100000000E-03 0.  1.
         11    1    4    4    0    0  0.76239653806E-02  0.29736176792E-01 -0.12160145626E-01  0.33022648607E-01  0.51100000000E-03 0. -1.
</event>
<event>
 8    1  0.1086486E+005  0.1043930E+01  0.7957747E-01            NaN
         13   -1    0    0    0    0  0.00000000000E+00  0.00000000000E+00  0.74505805969E-08  0.10566000000E+00  0.10566000000E+00 0.  1.
     999900   -1    0    0    0    0 -0.00000000000E+00 -0.00000000000E+00 -0.74505805969E-08  0.93827000000E+00  0.93827000000E+00 0.  1.
     999902    2    1    2    0    0 -0.10163055691E-01 -0.21248328290E-01 -0.50753770139E-02  0.10198356312E+01  0.10195509679E+01 0.  0.
     999903    2    3    3    0    0 -0.96913354234E-01  0.70122175837E-01 -0.45790641853E-01  0.12993006536E+00  0.21811034591E-01 0.  0.
         14    1    1    2    0    0  0.10163055691E-01  0.21248328290E-01  0.50753770139E-02  0.24094368801E-01  0.00000000000E+00 0.  1.
     999901    1    3    3    0    0  0.86750298543E-01 -0.91370504127E-01  0.40715264839E-01  0.88990556584E+00  0.88000000000E+00 0. -1.
        -11    1    4    4    0    0 -0.79543696513E-01  0.66615869974E-01 -0.37116020828E-01  0.11019407384E+00  0.51100000000E-03 0.  1.
         11    1    4    4    0    0 -0.17369657721E-01  0.35063058636E-02 -0.86746210252E-02  0.19735991515E-01  0.51100000000E-03 0. -1.
</event>
<event>
 8    1  0.1086486E+005  0.1043930E+01  0.7957747E-01            NaN
         13   -1    0    0    0    0  0.00000000000E+00  0.00000000000E+00  0.74505805969E-08  0.10566000000E+00  0.10566000000E+00 0.  1.
     999900   -1    0    0    0    0 -0.00000000000E+00 -0.00000000000E+00 -0.74505805969E-08  0.93827000000E+00  0.93827000000E+00 0. -1.
     999902    2    1    2    0    0 -0.90387691113E-02  0.11443826210E-01  0.17931347643E-01  0.10208173685E+01  0.10205556850E+01 0.  0.
     999903    2    3    3    0    0 -0.54858448658E-01 -0.73173932458E-01  0.93543785626E-01  0.13234854583E+00  0.20045547502E-01 0.  0.
         14    1    1    2    0    0  0.90387691113E-02 -0.11443826210E-01 -0.17931347643E-01  0.23112631475E-01  0.00000000000E+00 0. -1.
     999901    1    3    3    0    0  0.45819679546E-01  0.84617758669E-01 -0.75612437983E-01  0.88846882269E+00  0.88000000000E+00 0.  1.
        -11    1    4    4    0    0 -0.33166117913E-01 -0.34896143389E-01  0.37103180967E-01  0.60783545140E-01  0.51100000000E-03 0. -1.
         11    1    4    4    0    0 -0.21692330744E-01 -0.38277789070E-01  0.56440604659E-01  0.71565000695E-01  0.51100000000E-03 0.  1.
</event>
<event>
 8    1  0.1086486E+005  0.1043930E+01  0.7957747E-01            NaN
         13   -1    0    0    0    0  0.00000000000E+00  0.00000000000E+00  0.74505805969E-08  0.10566000000E+00  0.10566000000E+00 0. -1.
     999900   -1    0    0    0    0 -0.00000000000E+00 -0.00000000000E+00 -0.74505805969E-08  0.93827000000E+00  0.93827000000E+00 0.  1.
     999902    2    1    2    0    0 -0.25357189746E-02 -0.18839776275E-01 -0.10043013107E-01  0.10224304848E+01  0.10222044155E+01 0.  0.
     999903    2    3    3    0    0  0.83853619751E-01  0.92527220533E-01 -0.34008666798E-01  0.13089244391E+00  0.19583829325E-01 0.  0.
         14    1    1    2    0    0  0.25357189746E-02  0.18839776275E-01  0.10043013107E-01  0.21499515183E-01  0.00000000000E+00 0. -1.
     999901    1    3    3    0    0 -0.86389338726E-01 -0.11136699681E+00  0.23965653691E-01  0.89153804090E+00  0.88000000000E+00 0.  1.
        -11    1    4    4    0    0  0.78330737207E-02  0.25891429423E-02  0.17633434802E-03  0.82675824696E-02  0.51100000000E-03 0.  1.
         11    1    4    4    0    0  0.76020546030E-01  0.89938077591E-01 -0.34185001146E-01  0.12262486144E+00  0.51100000000E-03 0. -1.
</event>
<event>
 8    1  0.1086486E+005  0.1043930E+01  0.7957747E-01            NaN
         13   -1    0    0    0    0  0.00000000000E+00  0.00000000000E+00  0.74505805969E-08  0.10566000000E+00  0.10566000000E+00 0. -1.
     999900   -1    0    0    0    0 -0.00000000000E+00 -0.00000000000E+00 -0.74505805969E-08  0.93827000000E+00  0.93827000000E+00 0. -1.
     999902    2    1    2    0    0  0.59247375131E-02 -0.18469095115E-01  0.13968255488E-01  0.10200276539E+01  0.10197475631E+01 0.  0.
     999903    2    3    3    0    0 -0.12616666649E+00  0.30410184064E-02 -0.17846967671E-01  0.12934082203E+00  0.21983140419E-01 0.  0.
         14    1    1    2    0    0 -0.59247375131E-02  0.18469095115E-01 -0.13968255488E-01  0.23902346126E-01  0.00000000000E+00 0. -1.
     999901    1    3    3    0    0  0.13209140400E+00 -0.21510113521E-01  0.31815223159E-01  0.89068683184E+00  0.88000000000E+00 0.  1.
        -11    1    4    4    0    0 -0.83345913124E-01  0.74911249096E-02 -0.20655391265E-01  0.86194921522E-01  0.51100000000E-03 0. -1.
         11    1    4    4    0    0 -0.42820753365E-01 -0.44501065032E-02  0.28084235941E-02  0.43145900509E-01  0.51100000000E-03 0.  1.
</event>
<event>
 8    1  0.1086486E+005  0.1043930E+01  0.7957747E-01            NaN
         13   -1    0    0    0    0  0.00000000000E+00  0.00000000000E+00  0.74505805969E-08  0.10566000000E+00  0.10566000000E+00 0. -1.
     999900   -1    0    0    0    0 -0.00000000000E+00 -0.00000000000E+00 -0.74505805969E-08  0.93827000000E+00  0.93827000000E+00 0. -1.
     999902    2    1    2    0    0  0.72878061074E-02  0.34576556928E-02 -0.22426789568E-01  0.10200966538E+01  0.10198181969E+01 0.  0.
     999903    2    3    3    0    0  0.31231449276E-01  0.10853935163E+00 -0.66400271723E-01  0.13243166744E+00  0.19312073441E-01 0.  0.
         14    1    1    2    0    0 -0.72878061074E-02 -0.34576556928E-02  0.22426789568E-01  0.23833346200E-01  0.00000000000E+00 0. -1.
     999901    1    3    3    0    0 -0.23943643169E-01 -0.10508169594E+00  0.43973482154E-01  0.88766498636E+00  0.88000000000E+00 0.  1.
        -11    1    4    4    0    0  0.75831723793E-02  0.60794937482E-01 -0.37068550644E-01  0.71609129967E-01  0.51100000000E-03 0.  1.
         11    1    4    4    0    0  0.23648276897E-01  0.47744414149E-01 -0.29331721079E-01  0.60822537477E-01  0.51100000000E-03 0. -1.
</event>
<event>
 7    1  0.1086486E+005  0.1043930E+01  0.7957747E-01            NaN
         13   -1    0    0    0    0  0.00000000000E+00  0.00000000000E+00  0.74505805969E-08  0.10566000000E+00  0.10566000000E+00 0. -1.
     999900   -1    0    0    0    0 -0.00000000000E+00 -0.00000000000E+00 -0.74505805969E-08  0.93827000000E+00  0.93827000000E+00 0.  1.
     999902    2    1    2    0    0 -0.97006874770E-02 -0.16240837824E-01 -0.58134686024E-02  0.10241394829E+01  0.10239482486E+01 0.  0.
         14    1    1    2    0    0  0.97006874770E-02  0.16240837824E-01  0.58134686024E-02  0.19790517122E-01  0.00000000000E+00 0. -1.
     999901    1    3    3    0    0 -0.87004833353E-01  0.73433689337E-01  0.48882434116E-01  0.88867982993E+00  0.88000000000E+00 0.  1.
        -11    1    3    3    0    0  0.37507788285E-01 -0.70223469325E-01 -0.34187603415E-01  0.86644233359E-01  0.51100000000E-03 0. -1.
         11    1    3    3    0    0  0.39796357591E-01 -0.19451057836E-01 -0.20508299304E-01  0.48815419591E-01  0.51100000000E-03 0.  1.
</event>
<event>
 8    1  0.1086486E+005  0.1043930E+01  0.7957747E-01            NaN
         13   -1    0    0    0    0  0.00000000000E+00  0.00000000000E+00  0.74505805969E-08  0.10566000000E+00  0.10566000000E+00 0. -1.
     999900   -1    0    0    0    0 -0.00000000000E+00 -0.00000000000E+00 -0.74505805969E-08  0.93827000000E+00  0.93827000000E+00 0.  1.
     999902    2    1    2    0    0  0.13718784297E-01  0.15352134894E-01  0.11689882470E-01  0.10202541380E+01  0.10199793918E+01 0.  0.
     999903    2    3    3    0    0 -0.19799189784E-02 -0.11503707729E+00  0.55794924128E-01  0.12941574042E+00  0.19947708610E-01 0.  0.
         14    1    1    2    0    0 -0.13718784297E-01 -0.15352134894E-01 -0.11689882470E-01  0.23675861982E-01  0.00000000000E+00 0. -1.
     999901    1    3    3    0    0  0.15698703276E-01  0.13038921218E+00 -0.44105041658E-01  0.89083839760E+00  0.88000000000E+00 0. -1.
        -11    1    4    4    0    0 -0.68959426245E-05 -0.97558100507E-01  0.54549574113E-01  0.11177432701E+00  0.51100000000E-03 0.  1.
         11    1    4    4    0    0 -0.19730230358E-02 -0.17478976783E-01  0.12453500148E-02  0.17641413406E-01  0.51100000000E-03 0. -1.
</event>
<event>
 7    1  0.1086486E+005  0.1043930E+01  0.7957747E-01            NaN
         13   -1    0    0    0    0  0.00000000000E+00  0.00000000000E+00  0.74505805969E-08  0.10566000000E+00  0.10566000000E+00 0.  1.
     999900   -1    0    0    0    0 -0.00000000000E+00 -0.00000000000E+00 -0.74505805969E-08  0.93827000000E+00  0.93827000000E+00 0.  1.
     999903    2    1    2    0    0 -0.53484771423E-01 -0.95973661662E-01  0.89665416998E-02  0.11215915172E+00  0.20681197673E-01 0.  0.
         14    1    1    2    0    0  0.26290423770E-02 -0.80844947541E-02 -0.42702857075E-01  0.43540841994E-01  0.00000000000E+00 0. -1.
     999901    1    1    2    0    0  0.50855729046E-01  0.10405815642E+00  0.33736315375E-01  0.88823000629E+00  0.88000000000E+00 0. -1.
        -11    1    3    3    0    0 -0.26222352248E-01 -0.66043719774E-01  0.20938903633E-02  0.71091702588E-01  0.51100000000E-03 0.  1.
         11    1    3    3    0    0 -0.27262419175E-01 -0.29929941888E-01  0.68726513365E-02  0.41067449130E-01  0.51100000000E-03 0. -1.
</event>
<event>
 8    1  0.1086486E+005  0.1043930E+01  0.7957747E-01            NaN
         13   -1    0    0    0    0  0.00000000000E+00  0.00000000000E+00  0.74505805969E-08  0.10566000000E+00  0.10566000000E+00 0. -1.
     999900   -1    0    0    0    0 -0.00000000000E+00 -0.00000000000E+00 -0.74505805969E-08  0.93827000000E+00  0.93827000000E+00 0. -1.
     999902    2    1    2    0    0  0.18702501461E-01 -0.26855184123E-01  0.92657872750E-02  0.10099176598E+01  0.10093447578E+01 0.  0.
     999903    2    3    3    0    0  0.14260608187E-01  0.11362807864E+00  0.23739988751E-01  0.11864621960E+00  0.19965799708E-01 0.  0.
         14    1    1    2    0    0 -0.18702501461E-01  0.26855184123E-01 -0.92657872750E-02  0.34012340245E-01  0.00000000000E+00 0.  1.
     999901    1    3    3    0    0  0.44418932731E-02 -0.14048326276E+00 -0.14474201476E-01  0.89127144016E+00  0.88000000000E+00 0. -1.
        -11    1    4    4    0    0 -0.42584610945E-02  0.37495204659E-01  0.48806470840E-02  0.38053997166E-01  0.51100000000E-03 0.  1.
         11    1    4    4    0    0  0.18519069282E-01  0.76132873979E-01  0.18859341667E-01  0.80592222431E-01  0.51100000000E-03 0. -1.
</event>
<event>
 8    1  0.1086486E+005  0.1043930E+01  0.7957747E-01            NaN
         13   -1    0    0    0    0  0.00000000000E+00  0.00000000000E+00  0.74505805969E-08  0.10566000000E+00  0.10566000000E+00 0. -1.
     999900   -1    0    0    0    0 -0.00000000000E+00 -0.00000000000E+00 -0.74505805969E-08  0.93827000000E+00  0.93827000000E+00 0.  1.
     999902    2    1    2    0    0  0.22574964299E-01  0.81746994920E-02  0.14262842700E-02  0.10198782015E+01  0.10195945551E+01 0.  0.
     999903    2    3    3    0    0  0.76852930299E-01  0.39633994885E-01 -0.97306991309E-01  0.13213722318E+00  0.22679698987E-01 0.  0.
         14    1    1    2    0    0 -0.22574964299E-01 -0.81746994920E-02 -0.14262842700E-02  0.24051798513E-01  0.00000000000E+00 0. -1.
     999901    1    3    3    0    0 -0.54277966000E-01 -0.31459295393E-01  0.98733275579E-01  0.88774097831E+00  0.88000000000E+00 0.  1.
        -11    1    4    4    0    0  0.38512249653E-01  0.13224827813E-01 -0.59805610423E-01  0.72353725564E-01  0.51100000000E-03 0. -1.
         11    1    4    4    0    0  0.38340680646E-01  0.26409167071E-01 -0.37501380886E-01  0.59783497616E-01  0.51100000000E-03 0.  1.
</event>
<event>
 8    1  0.1086486E+005  0.1043930E+01  0.7957747E-01            NaN
         13   -1    0    0    0    0  0.00000000000E+00  0.00000000000E+00  0.74505805969E-08  0.10566000000E+00  0.10566000000E+00 0.  1.
     999900   -1    0    0    0    0 -0.00000000000E+00 -0.00000000000E+00 -0.74505805969E-08  0.93827000000E+00  0.93827000000E+00 0. -1.
     999902    2    1    2    0    0  0.16847971632E-01 -0.14358684167E-01  0.96023581132E-02  0.10198005317E+01  0.10195150284E+01 0.  0.
     999903    2    3    3    0    0  0.47737784710E-01 -0.10292521804E+00 -0.63880156196E-01  0.13177018797E+00  0.20253678303E-01 0.  0.
         14    1    1    2    0    0 -0.16847971632E-01  0.14358684167E-01 -0.96023581132E-02  0.24129468300E-01  0.00000000000E+00 0.  1.
     999901    1    3    3    0    0 -0.30889813078E-01  0.88566533872E-01  0.73482514309E-01  0.88803034373E+00  0.88000000000E+00 0.  1.
        -11    1    4    4    0    0  0.33546899251E-01 -0.59633145389E-01 -0.47750561579E-01  0.83437903440E-01  0.51100000000E-03 0.  1.
         11    1    4    4    0    0  0.14190885459E-01 -0.43292072651E-01 -0.16129594617E-01  0.48332284531E-01  0.51100000000E-03 0. -1.
</event>
<event>
 8    1  0.1086486E+005  0.1043930E+01  0.7957747E-01            NaN
         13   -1    0    0    0    0  0.00000000000E+00  0.00000000000E+00  0.74505805969E-08  0.10566000000E+00  0.10566000000E+00 0. -1.
     999900   -1    0    0    0    0 -0.00000000000E+00 -0.00000000000E+00 -0.74505805969E-08  0.93827000000E+00  0.93827000000E+00 0.  1.
     999902    2    1    2    0    0  0.85350310403E-02  0.15191714631E-01  0.15343305620E-01  0.10207125071E+01  0.10204484162E+01 0.  0.
     999903    2    3    3    0    0  0.77810040063E-01 -0.63802170292E-01 -0.78870848296E-01  0.12946878763E+00  0.20406787870E-01 0.  0.
         14    1    1    2    0    0 -0.85350310403E-02 -0.15191714631E-01 -0.15343305620E-01  0.23217492880E-01  0.00000000000E+00 0.  1.
     999901    1    3    3    0    0 -0.69275009023E-01  0.78993884923E-01  0.94214153915E-01  0.89124371949E+00  0.88000000000E+00 0. -1.
        -11    1    4    4    0    0  0.64948506244E-01 -0.53024005757E-01 -0.54961943483E-01  0.10025432660E+00  0.51100000000E-03 0.  1.
         11    1    4    4    0    0  0.12861533820E-01 -0.10778164535E-01 -0.23908904813E-01  0.29214461030E-01  0.51100000000E-03 0. -1.
</event>
<event>
 8    1  0.1086486E+005  0.1043930E+01  0.7957747E-01            NaN
         13   -1    0    0    0    0  0.00000000000E+00  0.00000000000E+00  0.74505805969E-08  0.10566000000E+00  0.10566000000E+00 0.  1.
     999900   -1    0    0    0    0 -0.00000000000E+00 -0.00000000000E+00 -0.74505805969E-08  0.93827000000E+00  0.93827000000E+00 0.  1.
     999902    2    1    2    0    0  0.55668458903E-02  0.12928910994E-01  0.20543724885E-01  0.10190263628E+01  0.10187220116E+01 0.  0.
     999903    2    3    3    0    0 -0.12091344342E+00  0.13046883610E-01 -0.36176150116E-01  0.12817597037E+00  0.18168202213E-01 0.  0.
         14    1    1    2    0    0 -0.55668458903E-02 -0.12928910994E-01 -0.20543724885E-01  0.24903637180E-01  0.00000000000E+00 0. -1.
     999901    1    3    3    0    0  0.12648028931E+00 -0.11797261535E-03  0.56719875001E-01  0.89085039245E+00  0.88000000000E+00 0. -1.
        -11    1    4    4    0    0 -0.18389123942E-01  0.14231304639E-02 -0.12574898421E-01  0.22328778985E-01  0.51100000000E-03 0.  1.
         11    1    4    4    0    0 -0.10252431948E+00  0.11623753146E-01 -0.23601251695E-01  0.10584719139E+00  0.51100000000E-03 0. -1.
</event>
<event>
 8    1  0.1086486E+005  0.1043930E+01  0.7957747E-01            NaN
         13   -1    0    0    0    0  0.00000000000E+00  0.00000000000E+00  0.74505805969E-08  0.10566000000E+00  0.10566000000E+00 0. -1.
     999900   -1    0    0    0    0 -0.00000000000E+00 -0.00000000000E+00 -0.74505805969E-08  0.93827000000E+00  0.93827000000E+00 0. -1.
     999902    2    1    2    0    0  0.15829966235E-02  0.24787710825E-01  0.12851590022E-03  0.10190914613E+01  0.10187887188E+01 0.  0.
     999903    2    3    3    0    0 -0.52736805717E-01 -0.23788432429E-01  0.11335369077E+00  0.12884979593E+00  0.20153176033E-01 0.  0.
         14    1    1    2    0    0 -0.15829966235E-02 -0.24787710825E-01 -0.12851590022E-03  0.24838538656E-01  0.00000000000E+00 0. -1.
     999901    1    3    3    0    0  0.54319802341E-01  0.48576143254E-01 -0.11322517487E+00  0.89024166542E+00  0.88000000000E+00 0. -1.
        -11    1    4    4    0    0 -0.24703864104E-01 -0.15619775100E-01  0.76050237530E-01  0.81474891993E-01  0.51100000000E-03 0. -1.
         11    1    4    4    0    0 -0.28032941613E-01 -0.81686573284E-02  0.37303453241E-01  0.47374903934E-01  0.51100000000E-03 0.  1.
</event>
<event>
 8    1  0.1086486E+005  0.1043930E+01  0.7957747E-01            NaN
         13   -1    0    0    0    0  0.00000000000E+00  0.00000000000E+00  0.74505805969E-08  0.10566000000E+00  0.10566000000E+00 0.  1.
     999900   -1    0    0    0    0 -0.00000000000E+00 -0.00000000000E+00 -0.74505805969E-08  0.93827000000E+00  0.93827000000E+00 0. -1.
     999902    2    1    2    0    0  0.96851929992E-02 -0.11825345151E-01  0.18654608622E-01  0.10198128655E+01  0.10195276576E+01 0.  0.
     999903    2    3    3    0    0 -0.91953924018E-01 -0.79703738423E-01  0.43677129156E-01  0.13101361211E+00  0.21181711104E-01 0.  0.
         14    1    1    2    0    0 -0.96851929992E-02  0.11825345151E-01 -0.18654608622E-01  0.24117134452E-01  0.00000000000E+00 0. -1.
     999901    1    3    3    0    0  0.10163911702E+00  0.67878393272E-01 -0.25022520534E-01  0.88879925344E+00  0.88000000000E+00 0.  1.
        -11    1    4    4    0    0 -0.55530914777E-01 -0.48940098732E-01  0.37369815112E-01  0.82919116989E-01  0.51100000000E-03 0. -1.
         11    1    4    4    0    0 -0.36423009242E-01 -0.30763639691E-01  0.63073140444E-02  0.48094495119E-01  0.51100000000E-03 0.  1.
</event>
<event>
 8    1  0.1086486E+005  0.1043930E+01  0.7957747E-01            NaN
         13   -1    0    0    0    0  0.00000000000E+00  0.00000000000E+00  0.74505805969E-08  0.10566000000E+00  0.10566000000E+00 0. -1.
     999900   -1    0    0    0    0 -0.00000000000E+00 -0.00000000000E+00 -0.74505805969E-08  0.93827000000E+00  0.93827000000E+00 0.  1.
     999902    2    1    2    0    0 -0.17271207969E-02  0.22181235141E-01 -0.79886515362E-02  0.10202908652E+01  0.10200169807E+01 0.  0.
     999903    2    3    3    0    0 -0.85473539106E-01 -0.90719884752E-02 -0.97087675185E-01  0.13128644311E+00  0.20544746495E-01 0.  0.
         14    1    1    2    0    0  0.17271207969E-02 -0.22181235141E-01  0.79886515362E-02  0.23639134756E-01  0.00000000000E+00 0. -1.
     999901    1    3    3    0    0  0.83746418309E-01  0.31253223617E-01  0.89099023648E-01  0.88900442214E+00  0.88000000000E+00 0. -1.
        -11    1    4    4    0    0 -0.65095022067E-01 -0.88143088844E-02 -0.85549674214E-01  0.10786130825E+00  0.51100000000E-03 0.  1.
         11    1    4    4    0    0 -0.20378517039E-01 -0.25767959078E-03 -0.11538000971E-01  0.23425134853E-01  0.51100000000E-03 0. -1.
</event>
<event>
 8    1  0.1086486E+005  0.1043930E+01  0.7957747E-01            NaN
         13   -1    0    0    0    0  0.00000000000E+00  0.00000000000E+00  0.74505805969E-08  0.10566000000E+00  0.10566000000E+00 0. -1.
     999900   -1    0    0    0    0 -0.00000000000E+00 -0.00000000000E+00 -0.74505805969E-08  0.93827000000E+00  0.93827000000E+00 0.  1.
     999902    2    1    2    0    0 -0.39706810425E-03 -0.21632909134E-01  0.14787623800E-01  0.10177228590E+01  0.10173853761E+01 0.  0.
     999903    2    3    3    0    0  0.70999271151E-01 -0.10703729330E+00  0.94698370331E-02  0.13069432230E+00  0.22213721191E-01 0.  0.
         14    1    1    2    0    0  0.39706810425E-03  0.21632909134E-01 -0.14787623800E-01  0.26207140979E-01  0.00000000000E+00 0.  1.
     999901    1    3    3    0    0 -0.71396339255E-01  0.85404384162E-01  0.53177867668E-02  0.88702853672E+00  0.88000000000E+00 0.  1.
        -11    1    4    4    0    0  0.31519145242E-01 -0.67185287414E-01  0.69650347765E-02  0.74539199030E-01  0.51100000000E-03 0. -1.
         11    1    4    4    0    0  0.39480125908E-01 -0.39852005882E-01  0.25048022566E-02  0.56155123274E-01  0.51100000000E-03 0.  1.
</event>
<event>
 8    1  0.1086486E+005  0.1043930E+01  0.7957747E-01            NaN
         13   -1    0    0    0    0  0.00000000000E+00  0.00000000000E+00  0.74505805969E-08  0.10566000000E+00  0.10566000000E+00 0. -1.
     999900   -1    0    0    0    0 -0.00000000000E+00 -0.00000000000E+00 -0.74505805969E-08  0.93827000000E+00  0.93827000000E+00 0. -1.
     999902    2    1    2    0    0 -0.65551979912E-02 -0.17797613140E-01 -0.79171208010E-02  0.10233774708E+01  0.10231710714E+01 0.  0.
     999903    2    3    3    0    0  0.55867126755E-01 -0.38329557930E-01  0.11228981455E+00  0.13277777696E+00  0.20751981610E-01 0.  0.
         14    1    1    2    0    0  0.65551979912E-02  0.17797613140E-01  0.79171208010E-02  0.20552529186E-01  0.00000000000E+00 0. -1.
     999901    1    3    3    0    0 -0.62422324746E-01  0.20531944790E-01 -0.12020693535E+00  0.89059969385E+00  0.88000000000E+00 0. -1.
        -11    1    4    4    0    0  0.35606181641E-01 -0.18448799453E-01  0.48349335375E-01  0.62817813752E-01  0.51100000000E-03 0.  1.
         11    1    4    4    0    0  0.20260945114E-01 -0.19880758476E-01  0.63940479172E-01  0.69959963210E-01  0.51100000000E-03 0. -1.
</event>
<event>
 8    1  0.1086486E+005  0.1043930E+01  0.7957747E-01            NaN
         13   -1    0    0    0    0  0.00000000000E+00  0.00000000000E+00  0.74505805969E-08  0.10566000000E+00  0.10566000000E+00 0. -1.
     999900   -1    0    0    0    0 -0.00000000000E+00 -0.00000000000E+00 -0.74505805969E-08  0.93827000000E+00  0.93827000000E+00 0.  1.
     999902    2    1    2    0    0  0.12612983438E-02  0.22013377352E-01  0.90439397486E-02  0.10200978263E+01  0.10198193971E+01 0.  0.
     999903    2    3    3    0    0  0.32240302087E-01 -0.89527231332E-01  0.85264133911E-01  0.12924962149E+00  0.19517425420E-01 0.  0.
         14    1    1    2    0    0 -0.12612983438E-02 -0.22013377352E-01 -0.90439397486E-02  0.23832173676E-01  0.00000000000E+00 0.  1.
     999901    1    3    3    0    0 -0.30979003744E-01  0.11154060868E+00 -0.76220194162E-01  0.89084820483E+00  0.88000000000E+00 0.  1.
        -11    1    4    4    0    0 -0.28468467681E-03 -0.20067178787E-01  0.13349322708E-01  0.24108883168E-01  0.51100000000E-03 0. -1.
         11    1    4    4    0    0  0.32524986764E-01 -0.69460052545E-01  0.71914811202E-01  0.10514073832E+00  0.51100000000E-03 0.  1.
</event>
<event>
 8    1  0.1086486E+005  0.1043930E+01  0.7957747E-01            NaN
         13   -1    0    0    0    0  0.00000000000E+00  0.00000000000E+00  0.74505805969E-08  0.10566000000E+00  0.10566000000E+00 0. -1.
     999900   -1    0    0    0    0 -0.00000000000E+00 -0.00000000000E+00 -0.74505805969E-08  0.93827000000E+00  0.93827000000E+00 0.  1.
     999902    2    1    2    0    0 -0.14869324566E-01  0.16733132897E-01 -0.60558420368E-02  0.10207401796E+01  0.10204767251E+01 0.  0.
     999903    2    3    3    0    0 -0.10072772309E-01 -0.77143281787E-01  0.10086079539E+00  0.12929923619E+00  0.22200129854E-01 0.  0.
         14    1    1    2    0    0  0.14869324566E-01 -0.16733132897E-01  0.60558420368E-02  0.23189820447E-01  0.00000000000E+00 0. -1.
     999901    1    3    3    0    0 -0.47965522570E-02  0.93876414684E-01 -0.10691663743E+00  0.89144094336E+00  0.88000000000E+00 0.  1.
        -11    1    4    4    0    0 -0.16008632562E-01 -0.59545648418E-01  0.70076844362E-01  0.93343375763E-01  0.51100000000E-03 0. -1.
         11    1    4    4    0    0  0.59358602529E-02 -0.17597633369E-01  0.30783951027E-01  0.35955860426E-01  0.51100000000E-03 0.  1.
</event>
<event>
 8    1  0.2159111E+005  0.1043930E+01  0.7957747E-01            NaN
         13   -1    0    0    0    0  0.00000000000E+00  0.00000000000E+00  0.74505805969E-08  0.10566000000E+00  0.10566000000E+00 0.  1.
     999900   -1    0    0    0    0 -0.00000000000E+00 -0.00000000000E+00 -0.74505805969E-08  0.93827000000E+00  0.93827000000E+00 0. -1.
     999902    2    1    2    0    0  0.23523180089E-01 -0.11554803512E-02  0.47797140007E-03  0.10203736082E+01  0.10201016600E+01 0.  0.
     999903    2    3    3    0    0 -0.11185679577E+00  0.28671400632E-01 -0.51595324648E-01  0.12800092328E+00  0.19701950685E-01 0.  0.
         14    1    1    2    0    0 -0.23523180089E-01  0.11554803512E-02 -0.47797140007E-03  0.23556391765E-01  0.00000000000E+00 0.  1.
     999901    1    3    3    0    0  0.13537997586E+00 -0.29826880983E-01  0.52073296048E-01  0.89237268496E+00  0.88000000000E+00 0.  1.
        -11    1    4    4    0    0 -0.65294149635E-01  0.15345003556E-01 -0.19335954220E-01  0.69806413440E-01  0.51100000000E-03 0.  1.
         11    1    4    4    0    0 -0.46562646135E-01  0.13326397076E-01 -0.32259370428E-01  0.58194509840E-01  0.51100000000E-03 0. -1.
</event>
<event>
 8    1  0.1086486E+005  0.1043930E+01  0.7957747E-01            NaN
         13   -1    0    0    0    0  0.00000000000E+00  0.00000000000E+00  0.74505805969E-08  0.10566000000E+00  0.10566000000E+00 0.  1.
     999900   -1    0    0    0    0 -0.00000000000E+00 -0.00000000000E+00 -0.74505805969E-08  0.93827000000E+00  0.93827000000E+00 0.  1.
     999902    2    1    2    0    0  0.11563362908E-01 -0.20362662543E-01  0.21892838447E-03  0.10205121154E+01  0.10202433927E+01 0.  0.
     999903    2    3    3    0    0  0.37557167691E-01  0.11380007924E+00  0.43910632679E-01  0.12889320346E+00  0.18008757804E-01 0.  0.
         14    1    1    2    0    0 -0.11563362908E-01  0.20362662543E-01 -0.21892838447E-03  0.23417884559E-01  0.00000000000E+00 0.  1.
     999901    1    3    3    0    0 -0.25993804783E-01 -0.13416274178E+00 -0.43691704294E-01  0.89161891198E+00  0.88000000000E+00 0.  1.
        -11    1    4    4    0    0  0.11326202037E-01  0.56577009763E-01  0.27025561528E-01  0.63717211043E-01  0.51100000000E-03 0.  1.
         11    1    4    4    0    0  0.26230965655E-01  0.57223069475E-01  0.16885071151E-01  0.65175992422E-01  0.51100000000E-03 0. -1.
</event>
<event>
 8    1  0.1086486E+005  0.1043930E+01  0.7957747E-01            NaN
         13   -1    0    0    0    0  0.00000000000E+00  0.00000000000E+00  0.74505805969E-08  0.10566000000E+00  0.10566000000E+00 0.  1.
     999900   -1    0    0    0    0 -0.00000000000E+00 -0.00000000000E+00 -0.74505805969E-08  0.93827000000E+00  0.93827000000E+00 0. -1.
     999902    2    1    2    0    0 -0.18008241272E-01 -0.91873416217E-04  0.16383972381E-01  0.10195837530E+01  0.10192930342E+01 0.  0.
     999903    2    3    3    0    0 -0.78638814487E-01  0.79888194030E-01  0.67539310148E-01  0.13240296744E+00  0.20069894924E-01 0.  0.
         14    1    1    2    0    0  0.18008241272E-01  0.91873416217E-04 -0.16383972381E-01  0.24346247050E-01  0.00000000000E+00 0. -1.
     999901    1    3    3    0    0  0.60630573215E-01 -0.79980067446E-01 -0.51155337767E-01  0.88718078551E+00  0.88000000000E+00 0. -1.
        -11    1    4    4    0    0 -0.44471185379E-01  0.54215897098E-01  0.33246885543E-01  0.77605839642E-01  0.51100000000E-03 0. -1.
         11    1    4    4    0    0 -0.34167629107E-01  0.25672296932E-01  0.34292424605E-01  0.54797127798E-01  0.51100000000E-03 0.  1.
</event>
<event>
 8    1  0.1086486E+005  0.1043930E+01  0.7957747E-01            NaN
         13   -1    0    0    0    0  0.00000000000E+00  0.00000000000E+00  0.74505805969E-08  0.10566000000E+00  0.10566000000E+00 0.  1.
     999900   -1    0    0    0    0 -0.00000000000E+00 -0.00000000000E+00 -0.74505805969E-08  0.93827000000E+00  0.93827000000E+00 0. -1.
     999902    2    1    2    0    0 -0.22851777309E-01  0.76013200132E-02  0.49213635686E-02  0.10193494465E+01  0.10190530361E+01 0.  0.
     999903    2    3    3    0    0 -0.66525682579E-01  0.14805753551E-01  0.11102900861E+00  0.13187091367E+00  0.20435761249E-01 0.  0.
         14    1    1    2    0    0  0.22851777309E-01 -0.76013200132E-02 -0.49213635686E-02  0.24580553523E-01  0.00000000000E+00 0. -1.
     999901    1    3    3    0    0  0.43673905270E-01 -0.72044335374E-02 -0.10610764504E+00  0.88747853281E+00  0.88000000000E+00 0. -1.
        -11    1    4    4    0    0 -0.52201849039E-02 -0.95692422169E-03  0.21965791313E-01  0.22603609079E-01  0.51100000000E-03 0. -1.
         11    1    4    4    0    0 -0.61305497675E-01  0.15762677772E-01  0.89063217295E-01  0.10926730459E+00  0.51100000000E-03 0.  1.
</event>
<event>
 8    1  0.1086486E+005  0.1043930E+01  0.7957747E-01            NaN
         13   -1    0    0    0    0  0.00000000000E+00  0.00000000000E+00  0.74505805969E-08  0.10566000000E+00  0.10566000000E+00 0. -1.
     999900   -1    0    0    0    0 -0.00000000000E+00 -0.00000000000E+00 -0.74505805969E-08  0.93827000000E+00  0.93827000000E+00 0. -1.
     999902    2    1    2    0    0 -0.47782891849E-02 -0.23006579074E-01 -0.28993915893E-02  0.10202542487E+01  0.10199795051E+01 0.  0.
     999903    2    3    3    0    0 -0.10622081083E+00 -0.37126414475E-01  0.65615707430E-01  0.13166870203E+00  0.19235246990E-01 0.  0.
         14    1    1    2    0    0  0.47782891849E-02  0.23006579074E-01  0.28993915893E-02  0.23675751304E-01  0.00000000000E+00 0. -1.
     999901    1    3    3    0    0  0.10144252165E+00  0.14119835400E-01 -0.68515099019E-01  0.88858554667E+00  0.88000000000E+00 0. -1.
        -11    1    4    4    0    0 -0.45826435183E-01 -0.96525851074E-02  0.18817386434E-01  0.50473653663E-01  0.51100000000E-03 0. -1.
         11    1    4    4    0    0 -0.60394375651E-01 -0.27473829367E-01  0.46798320996E-01  0.81195048367E-01  0.51100000000E-03 0.  1.
</event>
<event>
 8    1  0.1086486E+005  0.1043930E+01  0.7957747E-01            NaN
         13   -1    0    0    0    0  0.00000000000E+00  0.00000000000E+00  0.74505805969E-08  0.10566000000E+00  0.10566000000E+00 0. -1.
     999900   -1    0    0    0    0 -0.00000000000E+00 -0.00000000000E+00 -0.74505805969E-08  0.93827000000E+00  0.93827000000E+00 0. -1.
     999902    2    1    2    0    0 -0.58035286681E-02 -0.22021594072E-01 -0.42361213183E-02  0.10207658839E+01  0.10205030198E+01 0.  0.
     999903    2    3    3    0    0 -0.59691762445E-01  0.11066728652E+00  0.20260699191E-01  0.12885200074E+00  0.19544496786E-01 0.  0.
         14    1    1    2    0    0  0.58035286681E-02  0.22021594072E-01  0.42361213183E-02  0.23164116091E-01  0.00000000000E+00 0. -1.
     999901    1    3    3    0    0  0.53888233777E-01 -0.13268888059E+00 -0.24496820509E-01  0.89191388317E+00  0.88000000000E+00 0.  1.
        -11    1    4    4    0    0 -0.32868290853E-01  0.74958545212E-01  0.19688343367E-01  0.84184321755E-01  0.51100000000E-03 0. -1.
         11    1    4    4    0    0 -0.26823471592E-01  0.35708741305E-01  0.57235582461E-03  0.44667678986E-01  0.51100000000E-03 0.  1.
</event>
<event>
 8    1  0.1086486E+005  0.1043930E+01  0.7957747E-01            NaN
         13   -1    0    0    0    0  0.00000000000E+00  0.00000000000E+00  0.74505805969E-08  0.10566000000E+00  0.10566000000E+00 0. -1.
     999900   -1    0    0    0    0 -0.00000000000E+00 -0.00000000000E+00 -0.74505805969E-08  0.93827000000E+00  0.93827000000E+00 0.  1.
     999902    2    1    2    0    0 -0.12122283964E-01 -0.12631343872E-01 -0.13044940176E-01  0.10220972017E+01  0.10218639923E+01 0.  0.
     999903    2    3    3    0    0 -0.12155135313E+00 -0.38120732166E-01  0.34823260418E-01  0.13366273890E+00  0.20619084304E-01 0.  0.
         14    1    1    2    0    0  0.12122283964E-01  0.12631343872E-01  0.13044940176E-01  0.21832798279E-01  0.00000000000E+00 0. -1.
     999901    1    3    3    0    0  0.10942906916E+00  0.25489388294E-01 -0.47868200594E-01  0.88843446282E+00  0.88000000000E+00 0.  1.
        -11    1    4    4    0    0 -0.51481259349E-01 -0.25260241282E-01  0.99531145159E-02  0.58204170498E-01  0.51100000000E-03 0.  1.
         11    1    4    4    0    0 -0.70070093776E-01 -0.12860490883E-01  0.24870145902E-01  0.75458568405E-01  0.51100000000E-03 0. -1.
</event>
<event>
 8    1  0.1086486E+005  0.1043930E+01  0.7957747E-01            NaN
         13   -1    0    0    0    0  0.00000000000E+00  0.00000000000E+00  0.74505805969E-08  0.10566000000E+00  0.10566000000E+00 0.  1.
     999900   -1    0    0    0    0 -0.00000000000E+00 -0.00000000000E+00 -0.74505805969E-08  0.93827000000E+00  0.93827000000E+00 0. -1.
     999902    2    1    2    0    0 -0.42177035372E-02 -0.21319353114E-01 -0.98527931623E-02  0.10200682865E+01  0.10197891584E+01 0.  0.
     999903    2    3    3    0    0  0.91002438739E-01  0.91476168356E-02 -0.91181089801E-01  0.13068119211E+00  0.19961464953E-01 0.  0.
         14    1    1    2    0    0  0.42177035372E-02  0.21319353114E-01  0.98527931623E-02  0.23861713548E-01  0.00000000000E+00 0.  1.
     999901    1    3    3    0    0 -0.95220142276E-01 -0.30466969950E-01  0.81328296638E-01  0.88938709434E+00  0.88000000000E+00 0.  1.
        -11    1    4    4    0    0  0.45650940427E-01  0.13904905349E-01 -0.41514163942E-01  0.63253787898E-01  0.51100000000E-03 0.  1.
         11    1    4    4    0    0  0.45351498312E-01 -0.47572885133E-02 -0.49666925858E-01  0.67427404209E-01  0.51100000000E-03 0. -1.
</event>
<event>
 8    1  0.1086486E+005  0.1043930E+01  0.7957747E-01            NaN
         13   -1    0    0    0    0  0.00000000000E+00  0.00000000000E+00  0.74505805969E-08  0.10566000000E+00  0.10566000000E+00 0.  1.
     999900   -1    0    0    0    0 -0.00000000000E+00 -0.00000000000E+00 -0.74505805969E-08  0.93827000000E+00  0.93827000000E+00 0.  1.
     999902    2    1    2    0    0 -0.80292280500E-02  0.15739692067E-01  0.16232391831E-01  0.10199363143E+01  0.10196540532E+01 0.  0.
     999903    2    3    3    0    0  0.16320876510E-01 -0.97581208996E-01  0.81702277474E-01  0.12992459519E+00  0.20412616964E-01 0.  0.
         14    1    1    2    0    0  0.80292280500E-02 -0.15739692067E-01 -0.16232391831E-01  0.23993685711E-01  0.00000000000E+00 0. -1.
     999901    1    3    3    0    0 -0.24350104560E-01  0.11332090106E+00 -0.65469885643E-01  0.89001171910E+00  0.88000000000E+00 0.  1.
        -11    1    4    4    0    0  0.43202337850E-02 -0.73649400549E-01  0.54254783034E-01  0.91579152782E-01  0.51100000000E-03 0. -1.
         11    1    4    4    0    0  0.12000642725E-01 -0.23931808448E-01  0.27447494440E-01  0.38345442407E-01  0.51100000000E-03 0.  1.
</event>
<event>
 8    1  0.1086486E+005  0.1043930E+01  0.7957747E-01            NaN
         13   -1    0    0    0    0  0.00000000000E+00  0.00000000000E+00  0.74505805969E-08  0.10566000000E+00  0.10566000000E+00 0.  1.
     999900   -1    0    0    0    0 -0.00000000000E+00 -0.00000000000E+00 -0.74505805969E-08  0.93827000000E+00  0.93827000000E+00 0.  1.
     999902    2    1    2    0    0  0.15836160026E-01 -0.16127662721E-01 -0.39018854590E-02  0.10209929082E+01  0.10207352294E+01 0.  0.
     999903    2    3    3    0    0 -0.10996002476E+00  0.48448246878E-02 -0.65301859646E-01  0.12968236628E+00  0.20940484274E-01 0.  0.
         14    1    1    2    0    0 -0.15836160026E-01  0.16127662721E-01  0.39018854590E-02  0.22937091781E-01  0.00000000000E+00 0.  1.
     999901    1    3    3    0    0  0.12579618478E+00 -0.20972487409E-01  0.61399974187E-01  0.89131054193E+00  0.88000000000E+00 0. -1.
        -11    1    4    4    0    0 -0.18790687214E-02  0.33758471631E-02 -0.30239886563E-02  0.49328360728E-02  0.51100000000E-03 0. -1.
         11    1    4    4    0    0 -0.10808095603E+00  0.14689775247E-02 -0.62277870990E-01  0.12474953021E+00  0.51100000000E-03 0.  1.
</event>
<event>
 8    1  0.1086486E+005  0.1043930E+01  0.7957747E-01            NaN
         13   -1    0    0    0    0  0.00000000000E+00  0.00000000000E+00  0.74505805969E-08  0.10566000000E+00  0.10566000000E+00 0. -1.
     999900   -1    0    0    0    0 -0.00000000000E+00 -0.00000000000E+00 -0.74505805969E-08  0.93827000000E+00  0.93827000000E+00 0. -1.
     999902    2    1    2    0    0  0.57174281021E-02 -0.20297743237E-02  0.24358378542E-01  0.10188274190E+01  0.10185181246E+01 0.  0.
     999903    2    3    3    0    0  0.79671658786E-01  0.30286861156E-01 -0.93196173944E-01  0.12734962007E+00  0.16356396973E-01 0.  0.
         14    1    1    2    0    0 -0.57174281021E-02  0.20297743237E-02 -0.24358378542E-01  0.25102581005E-01  0.00000000000E+00 0.  1.
     999901    1    3    3    0    0 -0.73954230684E-01 -0.32316635480E-01  0.11755455249E+00  0.89147779892E+00  0.88000000000E+00 0. -1.
        -11    1    4    4    0    0  0.98594215690E-02  0.44478762888E-02 -0.21108549818E-01  0.23723907637E-01  0.51100000000E-03 0.  1.
         11    1    4    4    0    0  0.69812237217E-01  0.25838984867E-01 -0.72087624126E-01  0.10362571243E+00  0.51100000000E-03 0. -1.
</event>
<event>
 8    1  0.1086486E+005  0.1043930E+01  0.7957747E-01            NaN
         13   -1    0    0    0    0  0.00000000000E+00  0.00000000000E+00  0.74505805969E-08  0.10566000000E+00  0.10566000000E+00 0.  1.
     999900   -1    0    0    0    0 -0.00000000000E+00 -0.00000000000E+00 -0.74505805969E-08  0.93827000000E+00  0.93827000000E+00 0.  1.
     999902    2    1    2    0    0 -0.68455219075E-03 -0.26051739510E-01  0.53211453763E-02  0.10173315728E+01  0.10169838016E+01 0.  0.
     999903    2    3    3    0    0 -0.10294590797E+00 -0.69787665009E-01  0.31941596070E-01  0.12993151391E+00  0.19843250559E-01 0.  0.
         14    1    1    2    0    0  0.68455219075E-03  0.26051739510E-01 -0.53211453763E-02  0.26598427234E-01  0.00000000000E+00 0. -1.
     999901    1    3    3    0    0  0.10226135578E+00  0.43735925499E-01 -0.26620450694E-01  0.88740005886E+00  0.88000000000E+00 0. -1.
        -11    1    4    4    0    0 -0.58345835327E-01 -0.47033709666E-01  0.26818917082E-01  0.79598503626E-01  0.51100000000E-03 0. -1.
         11    1    4    4    0    0 -0.44600072639E-01 -0.22753955343E-01  0.51226789880E-02  0.50333010283E-01  0.51100000000E-03 0.  1.
</event>
<event>
 8    1  0.1086486E+005  0.1043930E+01  0.7957747E-01            NaN
         13   -1    0    0    0    0  0.00000000000E+00  0.00000000000E+00  0.74505805969E-08  0.10566000000E+00  0.10566000000E+00 0.  1.
     999900   -1    0    0    0    0 -0.00000000000E+00 -0.00000000000E+00 -0.74505805969E-08  0.93827000000E+00  0.93827000000E+00 0. -1.
     999902    2    1    2    0    0 -0.69689708712E-02  0.11420200333E-01  0.22198388698E-01  0.10180117441E+01  0.10176817553E+01 0.  0.
     999903    2    3    3    0    0 -0.77703573782E-01 -0.10362047347E-01 -0.97264900438E-01  0.12686118000E+00  0.22092549178E-01 0.  0.
         14    1    1    2    0    0  0.69689708712E-02 -0.11420200333E-01 -0.22198388698E-01  0.25918255949E-01  0.00000000000E+00 0. -1.
     999901    1    3    3    0    0  0.70734602911E-01  0.21782247680E-01  0.11946328914E+00  0.89115056405E+00  0.88000000000E+00 0.  1.
        -11    1    4    4    0    0 -0.59187024185E-01 -0.16997421805E-01 -0.69909624447E-01  0.93164547395E-01  0.51100000000E-03 0.  1.
         11    1    4    4    0    0 -0.18516549598E-01  0.66353744580E-02 -0.27355275991E-01  0.33696632602E-01  0.51100000000E-03 0. -1.
</event>
<event>
 8    1  0.1086486E+005  0.1043930E+01  0.7957747E-01            NaN
         13   -1    0    0    0    0  0.00000000000E+00  0.00000000000E+00  0.74505805969E-08  0.10566000000E+00  0.10566000000E+00 0. -1.
     999900   -1    0    0    0    0 -0.00000000000E+00 -0.00000000000E+00 -0.74505805969E-08  0.93827000000E+00  0.93827000000E+00 0. -1.
     999902    2    1    2    0    0 -0.24119532071E-01 -0.54861557605E-02 -0.71793582788E-02  0.10181735849E+01  0.10178477568E+01 0.  0.
     999903    2    3    3    0    0  0.57021273251E-01 -0.15789278505E-01 -0.11191161165E+00  0.12819671470E+00  0.20235165462E-01 0.  0.
         14    1    1    2    0    0  0.24119532071E-01  0.54861557605E-02  0.71793582788E-02  0.25756415078E-01  0.00000000000E+00 0. -1.
     999901    1    3    3    0    0 -0.81140805322E-01  0.10303122745E-01  0.10473225337E+00  0.88997687022E+00  0.88000000000E+00 0.  1.
        -11    1    4    4    0    0  0.54661922539E-01 -0.91427608511E-02 -0.97808694971E-01  0.11242027301E+00  0.51100000000E-03 0. -1.
         11    1    4    4    0    0  0.23593507120E-02 -0.66465176542E-02 -0.14102916674E-01  0.15776441691E-01  0.51100000000E-03 0.  1.
</event>
<event>
 8    1  0.1086486E+005  0.1043930E+01  0.7957747E-01            NaN
         13   -1    0    0    0    0  0.00000000000E+00  0.00000000000E+00  0.74505805969E-08  0.10566000000E+00  0.10566000000E+00 0.  1.
     999900   -1    0    0    0    0 -0.00000000000E+00 -0.00000000000E+00 -0.74505805969E-08  0.93827000000E+00  0.93827000000E+00 0.  1.
     999902    2    1    2    0    0  0.68353559345E-02 -0.10569751132E-01 -0.20018512630E-01  0.10202829584E+01  0.10200088885E+01 0.  0.
     999903    2    3    3    0    0 -0.30327145594E-01  0.11708518867E+00 -0.43772841021E-01  0.12997901966E+00  0.18703122031E-01 0.  0.
         14    1    1    2    0    0 -0.68353559345E-02  0.10569751132E-01  0.20018512630E-01  0.23647041626E-01  0.00000000000E+00 0.  1.
     999901    1    3    3    0    0  0.37162501529E-01 -0.12765493980E+00  0.23754328390E-01  0.89030393872E+00  0.88000000000E+00 0.  1.
        -11    1    4    4    0    0 -0.69435132055E-02  0.58755275703E-01 -0.16144250529E-01  0.61329379132E-01  0.51100000000E-03 0.  1.
         11    1    4    4    0    0 -0.23383632389E-01  0.58329912969E-01 -0.27628590491E-01  0.68649640525E-01  0.51100000000E-03 0. -1.
</event>
<event>
 8    1  0.1086486E+005  0.1043930E+01  0.7957747E-01            NaN
         13   -1    0    0    0    0  0.00000000000E+00  0.00000000000E+00  0.74505805969E-08  0.10566000000E+00  0.10566000000E+00 0.  1.
     999900   -1    0    0    0    0 -0.00000000000E+00 -0.00000000000E+00 -0.74505805969E-08  0.93827000000E+00  0.93827000000E+00 0.  1.
     999902    2    1    2    0    0  0.14400296268E-02  0.10164880949E-01 -0.21135682577E-01  0.10204328604E+01  0.10201622945E+01 0.  0.
     999903    2    3    3    0    0  0.66934739055E-01  0.89202446012E-01 -0.69852236220E-01  0.13312806711E+00  0.20159654748E-01 0.  0.
         14    1    1    2    0    0 -0.14400296268E-02 -0.10164880949E-01  0.21135682577E-01  0.23497139571E-01  0.00000000000E+00 0. -1.
     999901    1    3    3    0    0 -0.65494709428E-01 -0.79037565063E-01  0.48716553644E-01  0.88730479332E+00  0.88000000000E+00 0. -1.
        -11    1    4    4    0    0  0.43889633725E-01  0.41759566602E-01 -0.37376744176E-01  0.71185978096E-01  0.51100000000E-03 0. -1.
         11    1    4    4    0    0  0.23045105329E-01  0.47442879410E-01 -0.32475492045E-01  0.61942089010E-01  0.51100000000E-03 0.  1.
</event>
<event>
 8    1  0.1086486E+005  0.1043930E+01  0.7957747E-01            NaN
         13   -1    0    0    0    0  0.00000000000E+00  0.00000000000E+00  0.74505805969E-08  0.10566000000E+00  0.10566000000E+00 0.  1.
     999900   -1    0    0    0    0 -0.00000000000E+00 -0.00000000000E+00 -0.74505805969E-08  0.93827000000E+00  0.93827000000E+00 0. -1.
     999902    2    1    2    0    0 -0.83947737375E-02  0.51114544162E-02 -0.22850555420E-01  0.10190553729E+01  0.10187517391E+01 0.  0.
     999903    2    3    3    0    0  0.33058150885E-01 -0.11113297925E+00  0.49278870443E-01  0.12752087134E+00  0.19742976966E-01 0.  0.
         14    1    1    2    0    0  0.83947737375E-02 -0.51114544162E-02  0.22850555420E-01  0.24874627140E-01  0.00000000000E+00 0.  1.
     999901    1    3    3    0    0 -0.41452924622E-01  0.11624443367E+00 -0.72129425863E-01  0.89153450152E+00  0.88000000000E+00 0.  1.
        -11    1    4    4    0    0  0.93705142367E-02 -0.60882460393E-01  0.31508274399E-01  0.69191856437E-01  0.51100000000E-03 0.  1.
         11    1    4    4    0    0  0.23687636648E-01 -0.50250518857E-01  0.17770596044E-01  0.58329014908E-01  0.51100000000E-03 0. -1.
</event>
<event>
 8    1  0.1086486E+005  0.1043930E+01  0.7957747E-01            NaN
         13   -1    0    0    0    0  0.00000000000E+00  0.00000000000E+00  0.74505805969E-08  0.10566000000E+00  0.10566000000E+00 0.  1.
     999900   -1    0    0    0    0 -0.00000000000E+00 -0.00000000000E+00 -0.74505805969E-08  0.93827000000E+00  0.93827000000E+00 0. -1.
     999902    2    1    2    0    0  0.86789914968E-02 -0.18830501768E-01 -0.10938025682E-01  0.10204874512E+01  0.10202181555E+01 0.  0.
     999903    2    3    3    0    0  0.52905739548E-01  0.92276250955E-01  0.70449812494E-01  0.12867766430E+00  0.16758324532E-01 0.  0.
         14    1    1    2    0    0 -0.86789914968E-02  0.18830501768E-01  0.10938025682E-01  0.23442548838E-01  0.00000000000E+00 0. -1.
     999901    1    3    3    0    0 -0.44226748052E-01 -0.11110675272E+00 -0.81387838176E-01  0.89180978686E+00  0.88000000000E+00 0. -1.
        -11    1    4    4    0    0  0.45546662082E-01  0.78560603401E-01  0.52423965676E-01  0.10485609249E+00  0.51100000000E-03 0. -1.
         11    1    4    4    0    0  0.73590774666E-02  0.13715647554E-01  0.18025846819E-01  0.23821571810E-01  0.51100000000E-03 0.  1.
</event>
<event>
 8    1  0.1086486E+005  0.1043930E+01  0.7957747E-01            NaN
         13   -1    0    0    0    0  0.00000000000E+00  0.00000000000E+00  0.74505805969E-08  0.10566000000E+00  0.10566000000E+00 0. -1.
     999900   -1    0    0    0    0 -0.00000000000E+00 -0.00000000000E+00 -0.74505805969E-08  0.93827000000E+00  0.93827000000E+00 0.  1.
     999902    2    1    2    0    0 -0.10806609699E-01 -0.11411913846E-01 -0.18361360378E-01  0.10197607190E+01  0.10194742615E+01 0.  0.
     999903    2    3    3    0    0 -0.47168322911E-01  0.43322894785E-01 -0.11229847458E+00  0.13232494389E+00  0.28235075406E-01 0.  0.
         14    1    1    2    0    0  0.10806609699E-01  0.11411913846E-01  0.18361360378E-01  0.24169281035E-01  0.00000000000E+00 0.  1.
     999901    1    3    3    0    0  0.36361713212E-01 -0.54734808631E-01  0.93937114200E-01  0.88743577508E+00  0.88000000000E+00 0. -1.
        -11    1    4    4    0    0 -0.33611012859E-01  0.29347705436E-01 -0.49828248261E-01  0.66888739303E-01  0.51100000000E-03 0.  1.
         11    1    4    4    0    0 -0.13557310052E-01  0.13975189349E-01 -0.62470226318E-01  0.65436204584E-01  0.51100000000E-03 0. -1.
</event>
<event>
 8    1  0.1086486E+005  0.1043930E+01  0.7957747E-01            NaN
         13   -1    0    0    0    0  0.00000000000E+00  0.00000000000E+00  0.74505805969E-08  0.10566000000E+00  0.10566000000E+00 0. -1.
     999900   -1    0    0    0    0 -0.00000000000E+00 -0.00000000000E+00 -0.74505805969E-08  0.93827000000E+00  0.93827000000E+00 0.  1.
     999902    2    1    2    0    0  0.14726442688E-01  0.25773556660E-02  0.18160106896E-01  0.10204076626E+01  0.10201365092E+01 0.  0.
     999903    2    3    3    0    0  0.49370467726E-01 -0.64957250012E-01 -0.98495728231E-01  0.12947011407E+00  0.20105087518E-01 0.  0.
         14    1    1    2    0    0 -0.14726442688E-01 -0.25773556660E-02 -0.18160106896E-01  0.23522337446E-01  0.00000000000E+00 0.  1.
     999901    1    3    3    0    0 -0.34644025038E-01  0.67534605678E-01  0.11665583513E+00  0.89093754849E+00  0.88000000000E+00 0. -1.
        -11    1    4    4    0    0  0.20173882581E-01 -0.16951060629E-01 -0.20742538183E-01  0.33538604713E-01  0.51100000000E-03 0.  1.
         11    1    4    4    0    0  0.29196585145E-01 -0.48006189383E-01 -0.77753190048E-01  0.95931509354E-01  0.51100000000E-03 0. -1.
</event>
<event>
 8    1  0.1086486E+005  0.1043930E+01  0.7957747E-01            NaN
         13   -1    0    0    0    0  0.00000000000E+00  0.00000000000E+00  0.74505805969E-08  0.10566000000E+00  0.10566000000E+00 0. -1.
     999900   -1    0    0    0    0 -0.00000000000E+00 -0.00000000000E+00 -0.74505805969E-08  0.93827000000E+00  0.93827000000E+00 0. -1.
     999902    2    1    2    0    0  0.86721372370E-02 -0.19358456761E-01  0.10286128607E-01  0.10203554320E+01  0.10200830591E+01 0.  0.
     999903    2    3    3    0    0 -0.82889606317E-01  0.10750073043E-01  0.98108514980E-01  0.13074717669E+00  0.21983916741E-01 0.  0.
         14    1    1    2    0    0 -0.86721372370E-02  0.19358456761E-01 -0.10286128607E-01  0.23574567953E-01  0.00000000000E+00 0.  1.
     999901    1    3    3    0    0  0.91561743554E-01 -0.30108529804E-01 -0.87822386373E-01  0.88960825536E+00  0.88000000000E+00 0. -1.
        -11    1    4    4    0    0 -0.41789271249E-01  0.41076396705E-02  0.32756719694E-01  0.53258611522E-01  0.51100000000E-03 0. -1.
         11    1    4    4    0    0 -0.41100335068E-01  0.66424333722E-02  0.65351795286E-01  0.77488565169E-01  0.51100000000E-03 0.  1.
</event>
<event>
 8    1  0.1086486E+005  0.1043930E+01  0.7957747E-01            NaN
         13   -1    0    0    0    0  0.00000000000E+00  0.00000000000E+00  0.74505805969E-08  0.10566000000E+00  0.10566000000E+00 0. -1.
     999900   -1    0    0    0    0 -0.00000000000E+00 -0.00000000000E+00 -0.74505805969E-08  0.93827000000E+00  0.93827000000E+00 0.  1.
     999902    2    1    2    0    0 -0.74338519815E-02 -0.21017273822E-01 -0.59914597932E-02  0.10208456862E+01  0.10205846508E+01 0.  0.
     999903    2    3    3    0    0  0.39776457586E-01  0.11900629066E+00 -0.18525490850E-01  0.12843741981E+00  0.20206761340E-01 0.  0.
         14    1    1    2    0    0  0.74338519815E-02  0.21017273822E-01  0.59914597932E-02  0.23084313822E-01  0.00000000000E+00 0. -1.
     999901    1    3    3    0    0 -0.47210309568E-01 -0.14002356448E+00  0.12534031056E-01  0.89240826636E+00  0.88000000000E+00 0. -1.
        -11    1    4    4    0    0  0.26063974405E-01  0.89764790261E-01 -0.55837986099E-02  0.93640206430E-01  0.51100000000E-03 0.  1.
         11    1    4    4    0    0  0.13712483181E-01  0.29241500394E-01 -0.12941692240E-01  0.34797213385E-01  0.51100000000E-03 0. -1.
</event>
<event>
 8    1  0.1086486E+005  0.1043930E+01  0.7957747E-01            NaN
         13   -1    0    0    0    0  0.00000000000E+00  0.00000000000E+00  0.74505805969E-08  0.10566000000E+00  0.10566000000E+00 0. -1.
     999900   -1    0    0    0    0 -0.00000000000E+00 -0.00000000000E+00 -0.74505805969E-08  0.93827000000E+00  0.93827000000E+00 0. -1.
     999902    2    1    2    0    0  0.95246523905E-03 -0.19785010584E-01  0.13511743505E-01  0.10199524887E+01  0.10196706126E+01 0.  0.
     999903    2    3    3    0    0 -0.39726141178E-02 -0.94922137538E-01  0.91545375040E-01  0.13329635928E+00  0.19009730353E-01 0.  0.
         14    1    1    2    0    0 -0.95246523905E-03  0.19785010584E-01 -0.13511743505E-01  0.23977511263E-01  0.00000000000E+00 0.  1.
     999901    1    3    3    0    0  0.49250793568E-02  0.75137126954E-01 -0.78033631536E-01  0.88665612946E+00  0.88000000000E+00 0. -1.
        -11    1    4    4    0    0 -0.78064668401E-02 -0.61813528333E-01  0.49108889821E-01  0.79333456939E-01  0.51100000000E-03 0. -1.
         11    1    4    4    0    0  0.38338527224E-02 -0.33108609206E-01  0.42436485219E-01  0.53962902340E-01  0.51100000000E-03 0.  1.
</event>
<event>
 8    1  0.1086486E+005  0.1043930E+01  0.7957747E-01            NaN
         13   -1    0    0    0    0  0.00000000000E+00  0.00000000000E+00  0.74505805969E-08  0.10566000000E+00  0.10566000000E+00 0.  1.
     999900   -1    0    0    0    0 -0.00000000000E+00 -0.00000000000E+00 -0.74505805969E-08  0.93827000000E+00  0.93827000000E+00 0.  1.
     999902    2    1    2    0    0 -0.14593067304E-01 -0.12086498590E-01 -0.13875704582E-01  0.10204443397E+01  0.10201740411E+01 0.  0.
     999903    2    3    3    0    0  0.59228455553E-01  0.10158384607E+00  0.46736581208E-01  0.12800699531E+00  0.19344123039E-01 0.  0.
         14    1    1    2    0    0  0.14593067304E-01  0.12086498590E-01  0.13875704582E-01  0.23485660288E-01  0.00000000000E+00 0.  1.
     999901    1    3    3    0    0 -0.73821522857E-01 -0.11367034466E+00 -0.60612285790E-01  0.89243734440E+00  0.88000000000E+00 0. -1.
        -11    1    4    4    0    0  0.37528322212E-01  0.62625020735E-01  0.38897339542E-01  0.82725644964E-01  0.51100000000E-03 0.  1.
         11    1    4    4    0    0  0.21700133341E-01  0.38958825334E-01  0.78392416661E-02  0.45281350348E-01  0.51100000000E-03 0. -1.
</event>
<event>
 7    1  0.1086486E+005  0.1043930E+01  0.7957747E-01            NaN
         13   -1    0    0    0    0  0.00000000000E+00  0.00000000000E+00  0.74505805969E-08  0.10566000000E+00  0.10566000000E+00 0. -1.
     999900   -1    0    0    0    0 -0.00000000000E+00 -0.00000000000E+00 -0.74505805969E-08  0.93827000000E+00  0.93827000000E+00 0.  1.
     999903    2    1    2    0    0 -0.20986236516E-01 -0.67080539980E-02  0.51918455978E-01  0.59948099617E-01  0.20318180651E-01 0.  0.
         14    1    1    2    0    0 -0.46126195655E-01 -0.56497948959E-01  0.56892214391E-01  0.92500639028E-01  0.00000000000E+00 0. -1.
     999901    1    1    2    0    0  0.67112432171E-01  0.63206002957E-01 -0.10881067037E+00  0.89148126136E+00  0.88000000000E+00 0.  1.
        -11    1    3    3    0    0 -0.53923735325E-02  0.60100175278E-02  0.25386584165E-01  0.26644657617E-01  0.51100000000E-03 0.  1.
         11    1    3    3    0    0 -0.15593862984E-01 -0.12718071526E-01  0.26531871813E-01  0.33303441999E-01  0.51100000000E-03 0. -1.
</event>
<event>
 8    1  0.1086486E+005  0.1043930E+01  0.7957747E-01            NaN
         13   -1    0    0    0    0  0.00000000000E+00  0.00000000000E+00  0.74505805969E-08  0.10566000000E+00  0.10566000000E+00 0.  1.
     999900   -1    0    0    0    0 -0.00000000000E+00 -0.00000000000E+00 -0.74505805969E-08  0.93827000000E+00  0.93827000000E+00 0.  1.
     999902    2    1    2    0    0 -0.14205557934E-01  0.13893066474E-01 -0.12607276413E-01  0.10203979242E+01  0.10201265437E+01 0.  0.
     999903    2    3    3    0    0 -0.97605261456E-01  0.71054100864E-01 -0.53822730934E-01  0.13365015394E+00  0.19748543451E-01 0.  0.
         14    1    1    2    0    0  0.14205557934E-01 -0.13893066474E-01  0.12607276413E-01  0.23532075787E-01  0.00000000000E+00 0.  1.
     999901    1    3    3    0    0  0.83399703522E-01 -0.57161034390E-01  0.41215454520E-01  0.88674777028E+00  0.88000000000E+00 0. -1.
        -11    1    4    4    0    0 -0.70471200798E-01  0.61473339439E-01 -0.42526287273E-01  0.10273221420E+00  0.51100000000E-03 0.  1.
         11    1    4    4    0    0 -0.27134060659E-01  0.95807614247E-02 -0.11296443660E-01  0.30917939738E-01  0.51100000000E-03 0. -1.
</event>
<event>
 8    1  0.1086486E+005  0.1043930E+01  0.7957747E-01            NaN
         13   -1    0    0    0    0  0.00000000000E+00  0.00000000000E+00  0.74505805969E-08  0.10566000000E+00  0.10566000000E+00 0. -1.
     999900   -1    0    0    0    0 -0.00000000000E+00 -0.00000000000E+00 -0.74505805969E-08  0.93827000000E+00  0.93827000000E+00 0.  1.
     999902    2    1    2    0    0  0.17052884855E-01  0.31062509399E-02 -0.17045269443E-01  0.10196196959E+01  0.10193298452E+01 0.  0.
     999903    2    3    3    0    0  0.16118982354E-01  0.10053454742E+00  0.77124197245E-01  0.12924840613E+00  0.19748211792E-01 0.  0.
         14    1    1    2    0    0 -0.17052884855E-01 -0.31062509399E-02  0.17045269443E-01  0.24310304135E-01  0.00000000000E+00 0. -1.
     999901    1    3    3    0    0  0.93390250072E-03 -0.97428296482E-01 -0.94169466687E-01  0.89037128974E+00  0.88000000000E+00 0.  1.
        -11    1    4    4    0    0  0.12624250795E-01  0.87136918548E-01  0.57259900918E-01  0.10502938473E+00  0.51100000000E-03 0. -1.
         11    1    4    4    0    0  0.34947315591E-02  0.13397628874E-01  0.19864296327E-01  0.24219021402E-01  0.51100000000E-03 0.  1.
</event>
<event>
 8    1  0.1086486E+005  0.1043930E+01  0.7957747E-01            NaN
         13   -1    0    0    0    0  0.00000000000E+00  0.00000000000E+00  0.74505805969E-08  0.10566000000E+00  0.10566000000E+00 0.  1.
     999900   -1    0    0    0    0 -0.00000000000E+00 -0.00000000000E+00 -0.74505805969E-08  0.93827000000E+00  0.93827000000E+00 0.  1.
     999902    2    1    2    0    0 -0.37037733246E-02  0.18836021944E-02 -0.22823065197E-01  0.10207317630E+01  0.10204681151E+01 0.  0.
     999903    2    3    3    0    0 -0.10675269050E+00  0.35047174518E-01  0.62349647170E-01  0.13001671723E+00  0.19809767483E-01 0.  0.
         14    1    1    2    0    0  0.37037733246E-02 -0.18836021944E-02  0.22823065197E-01  0.23198236981E-01  0.00000000000E+00 0.  1.
     999901    1    3    3    0    0  0.10304891717E+00 -0.33163572323E-01 -0.85172712367E-01  0.89071504579E+00  0.88000000000E+00 0.  1.
        -11    1    4    4    0    0 -0.19019233218E-01  0.14015960789E-01  0.95979876281E-02  0.25506094890E-01  0.51100000000E-03 0. -1.
         11    1    4    4    0    0 -0.87733457277E-01  0.21031213729E-01  0.52751659542E-01  0.10451062234E+00  0.51100000000E-03 0.  1.
</event>
<event>
 8    1  0.1086486E+005  0.1043930E+01  0.7957747E-01            NaN
         13   -1    0    0    0    0  0.00000000000E+00  0.00000000000E+00  0.74505805969E-08  0.10566000000E+00  0.10566000000E+00 0.  1.
     999900   -1    0    0    0    0 -0.00000000000E+00 -0.00000000000E+00 -0.74505805969E-08  0.93827000000E+00  0.93827000000E+00 0.  1.
     999902    2    1    2    0    0  0.20917626621E-01  0.90441934357E-02  0.68996848439E-02  0.10201192842E+01  0.10198413620E+01 0.  0.
     999903    2    3    3    0    0 -0.83802139617E-01  0.39853978117E-01  0.88350729862E-01  0.12964202728E+00  0.19750078308E-01 0.  0.
         14    1    1    2    0    0 -0.20917626621E-01 -0.90441934357E-02 -0.68996848439E-02  0.23810715850E-01  0.00000000000E+00 0. -1.
     999901    1    3    3    0    0  0.10471976624E+00 -0.30809784681E-01 -0.81451045019E-01  0.89047725687E+00  0.88000000000E+00 0.  1.
        -11    1    4    4    0    0 -0.51887708897E-01  0.14400856189E-01  0.54379860249E-01  0.76532014969E-01  0.51100000000E-03 0.  1.
         11    1    4    4    0    0 -0.31914430721E-01  0.25453121927E-01  0.33970869613E-01  0.53110012308E-01  0.51100000000E-03 0. -1.
</event>
<event>
 8    1  0.1086486E+005  0.1043930E+01  0.7957747E-01            NaN
         13   -1    0    0    0    0  0.00000000000E+00  0.00000000000E+00  0.74505805969E-08  0.10566000000E+00  0.10566000000E+00 0. -1.
     999900   -1    0    0    0    0 -0.00000000000E+00 -0.00000000000E+00 -0.74505805969E-08  0.93827000000E+00  0.93827000000E+00 0. -1.
     999902    2    1    2    0    0 -0.48529150009E-02  0.17871641730E-01  0.15830702400E-01  0.10195669645E+01  0.10192758398E+01 0.  0.
     999903    2    3    3    0    0  0.48234462547E-01  0.62127332917E-01  0.10450150353E+00  0.13241458362E+00  0.20656447958E-01 0.  0.
         14    1    1    2    0    0  0.48529150009E-02 -0.17871641730E-01 -0.15830702400E-01  0.24363035538E-01  0.00000000000E+00 0. -1.
     999901    1    3    3    0    0 -0.53087377548E-01 -0.44255691186E-01 -0.88670801134E-01  0.88715238084E+00  0.88000000000E+00 0. -1.
        -11    1    4    4    0    0  0.72023576270E-02  0.24847232612E-01  0.33915112219E-01  0.42658585088E-01  0.51100000000E-03 0. -1.
         11    1    4    4    0    0  0.41032104920E-01  0.37280100305E-01  0.70586391314E-01  0.89755998533E-01  0.51100000000E-03 0.  1.
</event>
<event>
 8    1  0.1086486E+005  0.1043930E+01  0.7957747E-01            NaN
         13   -1    0    0    0    0  0.00000000000E+00  0.00000000000E+00  0.74505805969E-08  0.10566000000E+00  0.10566000000E+00 0. -1.
     999900   -1    0    0    0    0 -0.00000000000E+00 -0.00000000000E+00 -0.74505805969E-08  0.93827000000E+00  0.93827000000E+00 0. -1.
     999902    2    1    2    0    0  0.22823918147E-01  0.58892389450E-02  0.17587184167E-02  0.10202930064E+01  0.10200191721E+01 0.  0.
     999903    2    3    3    0    0 -0.78749558487E-01 -0.97135703875E-01  0.20508879766E-01  0.12828242434E+00  0.19973189926E-01 0.  0.
         14    1    1    2    0    0 -0.22823918147E-01 -0.58892389450E-02 -0.17587184167E-02  0.23636993577E-01  0.00000000000E+00 0.  1.
     999901    1    3    3    0    0  0.10157347663E+00  0.10302494282E+00 -0.18750161349E-01  0.89201058208E+00  0.88000000000E+00 0. -1.
        -11    1    4    4    0    0 -0.39655194371E-01 -0.64398278195E-01  0.12971562088E-01  0.76734576425E-01  0.51100000000E-03 0. -1.
         11    1    4    4    0    0 -0.39094364116E-01 -0.32737425680E-01  0.75373176771E-02  0.51547847914E-01  0.51100000000E-03 0.  1.
</event>
<event>
 7    1  0.1086486E+005  0.1043930E+01  0.7957747E-01            NaN
         13   -1    0    0    0    0  0.00000000000E+00  0.00000000000E+00  0.74505805969E-08  0.10566000000E+00  0.10566000000E+00 0. -1.
     999900   -1    0    0    0    0 -0.00000000000E+00 -0.00000000000E+00 -0.74505805969E-08  0.93827000000E+00  0.93827000000E+00 0.  1.
     999903    2    1    2    0    0 -0.61338321966E-01 -0.71610205029E-01 -0.21162759593E-01  0.98392090797E-01  0.18512966587E-01 0.  0.
         14    1    1    2    0    0 -0.83109261274E-02  0.61901210296E-01  0.35347105340E-02  0.62556578454E-01  0.00000000000E+00 0.  1.
     999901    1    1    2    0    0  0.69649248093E-01  0.97089947327E-02  0.17628049059E-01  0.88298133075E+00  0.88000000000E+00 0.  1.
        -11    1    3    3    0    0 -0.44727989648E-01 -0.46201095922E-01 -0.63777600620E-02  0.64622529095E-01  0.51100000000E-03 0.  1.
         11    1    3    3    0    0 -0.16610332318E-01 -0.25409109108E-01 -0.14784999531E-01  0.33769561701E-01  0.51100000000E-03 0. -1.
</event>
<event>
 8    1  0.1086486E+005  0.1043930E+01  0.7957747E-01            NaN
         13   -1    0    0    0    0  0.00000000000E+00  0.00000000000E+00  0.74505805969E-08  0.10566000000E+00  0.10566000000E+00 0.  1.
     999900   -1    0    0    0    0 -0.00000000000E+00 -0.00000000000E+00 -0.74505805969E-08  0.93827000000E+00  0.93827000000E+00 0.  1.
     999902    2    1    2    0    0 -0.14034316349E-01 -0.13938630513E-01 -0.13925521431E-01  0.10197397622E+01  0.10194528018E+01 0.  0.
     999903    2    3    3    0    0 -0.34784564358E-01 -0.12564980283E+00  0.90145155359E-02  0.13213838543E+00  0.19530810158E-01 0.  0.
         14    1    1    2    0    0  0.14034316349E-01  0.13938630513E-01  0.13925521431E-01  0.24190237764E-01  0.00000000000E+00 0.  1.
     999901    1    3    3    0    0  0.20750248009E-01  0.11171117231E+00 -0.22940036967E-01  0.88760137681E+00  0.88000000000E+00 0.  1.
        -11    1    4    4    0    0 -0.12925364823E-01 -0.68094675475E-01  0.12672371143E-01  0.70461336882E-01  0.51100000000E-03 0.  1.
         11    1    4    4    0    0 -0.21859199535E-01 -0.57555127353E-01 -0.36578556068E-02  0.61677048548E-01  0.51100000000E-03 0. -1.
</event>
<event>
 8    1  0.1086486E+005  0.1043930E+01  0.7957747E-01            NaN
         13   -1    0    0    0    0  0.00000000000E+00  0.00000000000E+00  0.74505805969E-08  0.10566000000E+00  0.10566000000E+00 0.  1.
     999900   -1    0    0    0    0 -0.00000000000E+00 -0.00000000000E+00 -0.74505805969E-08  0.93827000000E+00  0.93827000000E+00 0.  1.
     999902    2    1    2    0    0 -0.70076329349E-02  0.19896145942E-01  0.10292415883E-01  0.10204587971E+01  0.10201888350E+01 0.  0.
     999903    2    3    3    0    0  0.10186418856E+00  0.44998948068E-01 -0.64463432064E-01  0.13025002324E+00  0.20206836534E-01 0.  0.
         14    1    1    2    0    0  0.70076329349E-02 -0.19896145942E-01 -0.10292415883E-01  0.23471202939E-01  0.00000000000E+00 0. -1.
     999901    1    3    3    0    0 -0.10887182149E+00 -0.25102802126E-01  0.74755847947E-01  0.89020877382E+00  0.88000000000E+00 0. -1.
        -11    1    4    4    0    0  0.62788729961E-01  0.36736586983E-01 -0.47319053087E-01  0.86783381700E-01  0.51100000000E-03 0. -1.
         11    1    4    4    0    0  0.39075458594E-01  0.82623610850E-02 -0.17144378977E-01  0.43466641538E-01  0.51100000000E-03 0.  1.
</event>
<event>
 8    1  0.1086486E+005  0.1043930E+01  0.7957747E-01            NaN
         13   -1    0    0    0    0  0.00000000000E+00  0.00000000000E+00  0.74505805969E-08  0.10566000000E+00  0.10566000000E+00 0. -1.
     999900   -1    0    0    0    0 -0.00000000000E+00 -0.00000000000E+00 -0.74505805969E-08  0.93827000000E+00  0.93827000000E+00 0. -1.
     999902    2    1    2    0    0 -0.58442523582E-02 -0.77203948080E-02  0.21552656822E-01  0.10203021182E+01  0.10200284975E+01 0.  0.
     999903    2    3    3    0    0 -0.23849103150E-01  0.69746383740E-01 -0.10266551650E+00  0.12802669492E+00  0.20427642278E-01 0.  0.
         14    1    1    2    0    0  0.58442523582E-02  0.77203948080E-02 -0.21552656822E-01  0.23627881787E-01  0.00000000000E+00 0.  1.
     999901    1    3    3    0    0  0.18004850792E-01 -0.77466778548E-01  0.12421817332E+00  0.89227542329E+00  0.88000000000E+00 0. -1.
        -11    1    4    4    0    0 -0.26174223830E-02  0.36154424940E-01 -0.41748026265E-01  0.55291519790E-01  0.51100000000E-03 0.  1.
         11    1    4    4    0    0 -0.21231680767E-01  0.33591958799E-01 -0.60917490231E-01  0.72735175130E-01  0.51100000000E-03 0. -1.
</event>
<event>
 8    1  0.1086486E+005  0.1043930E+01  0.7957747E-01            NaN
         13   -1    0    0    0    0  0.00000000000E+00  0.00000000000E+00  0.74505805969E-08  0.10566000000E+00  0.10566000000E+00 0. -1.
     999900   -1    0    0    0    0 -0.00000000000E+00 -0.00000000000E+00 -0.74505805969E-08  0.93827000000E+00  0.93827000000E+00 0.  1.
     999902    2    1    2    0    0 -0.20642099766E-01 -0.93495002046E-02  0.48426995441E-02  0.10207575773E+01  0.10204945225E+01 0.  0.
     999903    2    3    3    0    0  0.14585061529E-01 -0.99991817358E-01  0.82630836095E-01  0.13198990416E+00  0.19554850261E-01 0.  0.
         14    1    1    2    0    0  0.20642099766E-01  0.93495002046E-02 -0.48426995441E-02  0.23172422742E-01  0.00000000000E+00 0.  1.
     999901    1    3    3    0    0 -0.35227161295E-01  0.90642317153E-01 -0.77788136551E-01  0.88876767310E+00  0.88000000000E+00 0. -1.
        -11    1    4    4    0    0 -0.24758849237E-03 -0.56354836618E-01  0.51719552501E-01  0.76492497293E-01  0.51100000000E-03 0. -1.
         11    1    4    4    0    0  0.14832650021E-01 -0.43636980740E-01  0.30911283594E-01  0.55497406869E-01  0.51100000000E-03 0.  1.
</event>
<event>
 8    1  0.1086486E+005  0.1043930E+01  0.7957747E-01            NaN
         13   -1    0    0    0    0  0.00000000000E+00  0.00000000000E+00  0.74505805969E-08  0.10566000000E+00  0.10566000000E+00 0.  1.
     999900   -1    0    0    0    0 -0.00000000000E+00 -0.00000000000E+00 -0.74505805969E-08  0.93827000000E+00  0.93827000000E+00 0. -1.
     999902    2    1    2    0    0 -0.17762501666E-01 -0.14913881980E-01  0.44210803862E-03  0.10207324613E+01  0.10204688294E+01 0.  0.
     999903    2    3    3    0    0  0.95880342057E-01  0.76971788195E-01 -0.30016479594E-01  0.12816011251E+00  0.20157609463E-01 0.  0.
         14    1    1    2    0    0  0.17762501666E-01  0.14913881980E-01 -0.44210803862E-03  0.23197538677E-01  0.00000000000E+00 0.  1.
     999901    1    3    3    0    0 -0.11364284372E+00 -0.91885670175E-01  0.30458587632E-01  0.89257234882E+00  0.88000000000E+00 0. -1.
        -11    1    4    4    0    0  0.76872129184E-01  0.50413771797E-01 -0.21832554855E-01  0.94487005480E-01  0.51100000000E-03 0.  1.
         11    1    4    4    0    0  0.19008212874E-01  0.26558016398E-01 -0.81839247386E-02  0.33673107026E-01  0.51100000000E-03 0. -1.
</event>
<event>
 8    1  0.1086486E+005  0.1043930E+01  0.7957747E-01            NaN
         13   -1    0    0    0    0  0.00000000000E+00  0.00000000000E+00  0.74505805969E-08  0.10566000000E+00  0.10566000000E+00 0. -1.
     999900   -1    0    0    0    0 -0.00000000000E+00 -0.00000000000E+00 -0.74505805969E-08  0.93827000000E+00  0.93827000000E+00 0.  1.
     999902    2    1    2    0    0  0.10293368248E-01 -0.91712500745E-02  0.18330120060E-01  0.10209940335E+01  0.10207363802E+01 0.  0.
     999903    2    3    3    0    0  0.89287394162E-01  0.46220652649E-01  0.85112508668E-01  0.13320565419E+00  0.19774217759E-01 0.  0.
         14    1    1    2    0    0 -0.10293368248E-01  0.91712500745E-02 -0.18330120060E-01  0.22935966499E-01  0.00000000000E+00 0.  1.
     999901    1    3    3    0    0 -0.78994025914E-01 -0.55391902724E-01 -0.66782388608E-01  0.88778837931E+00  0.88000000000E+00 0.  1.
        -11    1    4    4    0    0  0.75695320683E-01  0.39410504933E-01  0.61795444602E-01  0.10536559005E+00  0.51100000000E-03 0. -1.
         11    1    4    4    0    0  0.13592073479E-01  0.68101477165E-02  0.23317064066E-01  0.27840064135E-01  0.51100000000E-03 0.  1.
</event>
<event>
 8    1  0.1086486E+005  0.1043930E+01  0.7957747E-01            NaN
         13   -1    0    0    0    0  0.00000000000E+00  0.00000000000E+00  0.74505805969E-08  0.10566000000E+00  0.10566000000E+00 0.  1.
     999900   -1    0    0    0    0 -0.00000000000E+00 -0.00000000000E+00 -0.74505805969E-08  0.93827000000E+00  0.93827000000E+00 0. -1.
     999902    2    1    2    0    0 -0.18021369840E-01  0.15106894180E-01 -0.20382677732E-02  0.10203261326E+01  0.10200530742E+01 0.  0.
     999903    2    3    3    0    0  0.84812824128E-01  0.52603983871E-01 -0.80942643451E-01  0.13004145692E+00  0.19966840812E-01 0.  0.
         14    1    1    2    0    0  0.18021369840E-01 -0.15106894180E-01  0.20382677732E-02  0.23603867441E-01  0.00000000000E+00 0. -1.
     999901    1    3    3    0    0 -0.10283419397E+00 -0.37497089692E-01  0.78904375678E-01  0.89028467564E+00  0.88000000000E+00 0.  1.
        -11    1    4    4    0    0  0.43621940794E-01  0.31285811273E-01 -0.55172044899E-01  0.76979811411E-01  0.51100000000E-03 0.  1.
         11    1    4    4    0    0  0.41190883335E-01  0.21318172598E-01 -0.25770598553E-01  0.53061645504E-01  0.51100000000E-03 0. -1.
</event>
<event>
 8    1  0.1086486E+005  0.1043930E+01  0.7957747E-01            NaN
         13   -1    0    0    0    0  0.00000000000E+00  0.00000000000E+00  0.74505805969E-08  0.10566000000E+00  0.10566000000E+00 0.  1.
     999900   -1    0    0    0    0 -0.00000000000E+00 -0.00000000000E+00 -0.74505805969E-08  0.93827000000E+00  0.93827000000E+00 0.  1.
     999902    2    1    2    0    0  0.52994337542E-02 -0.11656971655E-01  0.19924911573E-01  0.10202451718E+01  0.10199702150E+01 0.  0.
     999903    2    3    3    0    0  0.94469838113E-01 -0.86394315464E-01 -0.23264230138E-01  0.13153693309E+00  0.19292804466E-01 0.  0.
         14    1    1    2    0    0 -0.52994337542E-02  0.11656971655E-01 -0.19924911573E-01  0.23684828213E-01  0.00000000000E+00 0. -1.
     999901    1    3    3    0    0 -0.89170404359E-01  0.74737343809E-01  0.43189141711E-01  0.88870823870E+00  0.88000000000E+00 0.  1.
        -11    1    4    4    0    0  0.68155176963E-01 -0.56071882977E-01 -0.81452352400E-02  0.88632895618E-01  0.51100000000E-03 0.  1.
         11    1    4    4    0    0  0.26314661150E-01 -0.30322432487E-01 -0.15118994898E-01  0.42904037469E-01  0.51100000000E-03 0. -1.
</event>
<event>
 8    1  0.1086486E+005  0.1043930E+01  0.7957747E-01            NaN
         13   -1    0    0    0    0  0.00000000000E+00  0.00000000000E+00  0.74505805969E-08  0.10566000000E+00  0.10566000000E+00 0. -1.
     999900   -1    0    0    0    0 -0.00000000000E+00 -0.00000000000E+00 -0.74505805969E-08  0.93827000000E+00  0.93827000000E+00 0. -1.
     999902    2    1    2    0    0  0.32154945068E-02 -0.12051072420E-01  0.20218265708E-01  0.10201740319E+01  0.10198974014E+01 0.  0.
     999903    2    3    3    0    0 -0.66491959762E-01  0.48511182080E-01 -0.95682344085E-01  0.12778405707E+00  0.19978457709E-01 0.  0.
         14    1    1    2    0    0 -0.32154945068E-02  0.12051072420E-01 -0.20218265708E-01  0.23755968085E-01  0.00000000000E+00 0.  1.
     999901    1    3    3    0    0  0.69707454268E-01 -0.60562254500E-01  0.11590060979E+00  0.89238997484E+00  0.88000000000E+00 0.  1.
        -11    1    4    4    0    0 -0.44048995771E-01  0.32063860422E-01 -0.76758154351E-01  0.94130125645E-01  0.51100000000E-03 0.  1.
         11    1    4    4    0    0 -0.22442963991E-01  0.16447321657E-01 -0.18924189735E-01  0.33653931427E-01  0.51100000000E-03 0. -1.
</event>
<event>
 8    1  0.1086486E+005  0.1043930E+01  0.7957747E-01            NaN
         13   -1    0    0    0    0  0.00000000000E+00  0.00000000000E+00  0.74505805969E-08  0.10566000000E+00  0.10566000000E+00 0. -1.
     999900   -1    0    0    0    0 -0.00000000000E+00 -0.00000000000E+00 -0.74505805969E-08  0.93827000000E+00  0.93827000000E+00 0.  1.
     999902    2    1    2    0    0  0.16000187417E-02 -0.10447016769E-01 -0.19147448842E-01  0.10220593572E+01  0.10218253298E+01 0.  0.
     999903    2    3    3    0    0  0.34912844746E-01  0.11750317761E+00 -0.43943018735E-01  0.13183701592E+00  0.20593843610E-01 0.  0.
         14    1    1    2    0    0 -0.16000187417E-02  0.10447016769E-01  0.19147448842E-01  0.21870642800E-01  0.00000000000E+00 0. -1.
     999901    1    3    3    0    0 -0.33312826005E-01 -0.12795019438E+00  0.24795569893E-01  0.89022234128E+00  0.88000000000E+00 0. -1.
        -11    1    4    4    0    0  0.28921098444E-01  0.63589781149E-01 -0.21104552386E-01  0.72977759997E-01  0.51100000000E-03 0. -1.
         11    1    4    4    0    0  0.59917463025E-02  0.53913396465E-01 -0.22838466349E-01  0.58859255927E-01  0.51100000000E-03 0.  1.
</event>
<event>
 8    1  0.1086486E+005  0.1043930E+01  0.7957747E-01            NaN
         13   -1    0    0    0    0  0.00000000000E+00  0.00000000000E+00  0.74505805969E-08  0.10566000000E+00  0.10566000000E+00 0. -1.
     999900   -1    0    0    0    0 -0.00000000000E+00 -0.00000000000E+00 -0.74505805969E-08  0.93827000000E+00  0.93827000000E+00 0.  1.
     999902    2    1    2    0    0  0.19508155900E-01  0.53710652556E-02  0.13626090479E-01  0.10195355984E+01  0.10192437145E+01 0.  0.
     999903    2    3    3    0    0  0.16262216886E-01  0.10904356008E+00  0.69072852127E-01  0.13171080391E+00  0.20535804635E-01 0.  0.
         14    1    1    2    0    0 -0.19508155900E-01 -0.53710652556E-02 -0.13626090479E-01  0.24394401619E-01  0.00000000000E+00 0.  1.
     999901    1    3    3    0    0  0.32459390138E-02 -0.10367249483E+00 -0.55446761648E-01  0.88782479447E+00  0.88000000000E+00 0. -1.
        -11    1    4    4    0    0  0.96903841309E-02  0.82172989732E-01  0.41185033523E-01  0.92427116656E-01  0.51100000000E-03 0.  1.
         11    1    4    4    0    0  0.65718327556E-02  0.26870570349E-01  0.27887818603E-01  0.39283687252E-01  0.51100000000E-03 0. -1.
</event>
<event>
 8    1  0.1086486E+005  0.1043930E+01  0.7957747E-01            NaN
         13   -1    0    0    0    0  0.00000000000E+00  0.00000000000E+00  0.74505805969E-08  0.10566000000E+00  0.10566000000E+00 0.  1.
     999900   -1    0    0    0    0 -0.00000000000E+00 -0.00000000000E+00 -0.74505805969E-08  0.93827000000E+00  0.93827000000E+00 0. -1.
     999902    2    1    2    0    0 -0.40052766116E-02  0.16685861760E-01  0.15969669768E-01  0.10204887847E+01  0.10202195200E+01 0.  0.
     999903    2    3    3    0    0  0.12428179092E+00 -0.24193632188E-01 -0.19150234825E-01  0.12955550299E+00  0.19662183704E-01 0.  0.
         14    1    1    2    0    0  0.40052766116E-02 -0.16685861760E-01 -0.15969669768E-01  0.23441215325E-01  0.00000000000E+00 0. -1.
     999901    1    3    3    0    0 -0.12828706753E+00  0.40879493948E-01  0.35119904593E-01  0.89093328169E+00  0.88000000000E+00 0.  1.
        -11    1    4    4    0    0  0.72024542902E-01 -0.20521049907E-01 -0.18583408704E-01  0.77163802846E-01  0.51100000000E-03 0.  1.
         11    1    4    4    0    0  0.52257248016E-01 -0.36725822812E-02 -0.56682612105E-03  0.52391700141E-01  0.51100000000E-03 0. -1.
</event>
<event>
 8    1  0.1086486E+005  0.1043930E+01  0.7957747E-01            NaN
         13   -1    0    0    0    0  0.00000000000E+00  0.00000000000E+00  0.74505805969E-08  0.10566000000E+00  0.10566000000E+00 0. -1.
     999900   -1    0    0    0    0 -0.00000000000E+00 -0.00000000000E+00 -0.74505805969E-08  0.93827000000E+00  0.93827000000E+00 0.  1.
     999902    2    1    2    0    0 -0.13213374349E-01 -0.15980649141E-01 -0.10001240500E-01  0.10209082881E+01  0.10206486827E+01 0.  0.
     999903    2    3    3    0    0 -0.13138923157E-01  0.12628553313E+00  0.67033277770E-02  0.12932614673E+00  0.23656932284E-01 0.  0.
         14    1    1    2    0    0  0.13213374349E-01  0.15980649141E-01  0.10001240500E-01  0.23021711930E-01  0.00000000000E+00 0. -1.
     999901    1    3    3    0    0 -0.74451192313E-04 -0.14226618227E+00 -0.16704568277E-01  0.89158214134E+00  0.88000000000E+00 0.  1.
        -11    1    4    4    0    0 -0.16754990448E-01  0.81928461047E-01 -0.33687201116E-02  0.83693559075E-01  0.51100000000E-03 0.  1.
         11    1    4    4    0    0  0.36160672911E-02  0.44357072080E-01  0.10072047889E-01  0.45632587652E-01  0.51100000000E-03 0. -1.
</event>
<event>
 8    1  0.1086486E+005  0.1043930E+01  0.7957747E-01            NaN
         13   -1    0    0    0    0  0.00000000000E+00  0.00000000000E+00  0.74505805969E-08  0.10566000000E+00  0.10566000000E+00 0. -1.
     999900   -1    0    0    0    0 -0.00000000000E+00 -0.00000000000E+00 -0.74505805969E-08  0.93827000000E+00  0.93827000000E+00 0.  1.
     999902    2    1    2    0    0  0.18642535880E-01  0.96796210959E-02  0.84921698595E-02  0.10212726357E+01  0.10210212732E+01 0.  0.
     999903    2    3    3    0    0  0.12176335925E+00  0.48010610004E-01 -0.19958841629E-01  0.13396624612E+00  0.20427075452E-01 0.  0.
         14    1    1    2    0    0 -0.18642535880E-01 -0.96796210959E-02 -0.84921698595E-02  0.22657364311E-01  0.00000000000E+00 0.  1.
     999901    1    3    3    0    0 -0.10312082337E+00 -0.38330988909E-01  0.28451011488E-01  0.88730638957E+00  0.88000000000E+00 0.  1.
        -11    1    4    4    0    0  0.75281270379E-01  0.23266523146E-01 -0.38222541096E-02  0.78888982226E-01  0.51100000000E-03 0. -1.
         11    1    4    4    0    0  0.46482088867E-01  0.24744086859E-01 -0.16136587519E-01  0.55077263891E-01  0.51100000000E-03 0.  1.
</event>
<event>
 8    1  0.1086486E+005  0.1043930E+01  0.7957747E-01            NaN
         13   -1    0    0    0    0  0.00000000000E+00  0.00000000000E+00  0.74505805969E-08  0.10566000000E+00  0.10566000000E+00 0. -1.
     999900   -1    0    0    0    0 -0.00000000000E+00 -0.00000000000E+00 -0.74505805969E-08  0.93827000000E+00  0.93827000000E+00 0. -1.
     999902    2    1    2    0    0 -0.21328292832E-02  0.17154339790E-01  0.17568119679E-01  0.10192833133E+01  0.10189852863E+01 0.  0.
     999903    2    3    3    0    0 -0.63396245469E-01  0.11308617383E+00  0.14236907661E-01  0.13194616213E+00  0.19988334345E-01 0.  0.
         14    1    1    2    0    0  0.21328292832E-02 -0.17154339790E-01 -0.17568119679E-01  0.24646686662E-01  0.00000000000E+00 0.  1.
     999901    1    3    3    0    0  0.61263416185E-01 -0.95931834038E-01  0.33312120176E-02  0.88733715121E+00  0.88000000000E+00 0. -1.
        -11    1    4    4    0    0 -0.25034111547E-01  0.52933063279E-01 -0.26932996269E-02  0.58618520221E-01  0.51100000000E-03 0.  1.
         11    1    4    4    0    0 -0.38362133922E-01  0.60153110549E-01  0.16930207288E-01  0.73327641907E-01  0.51100000000E-03 0. -1.
</event>
<event>
 8    1  0.1234716E+005  0.1043930E+01  0.7957747E-01            NaN
         13   -1    0    0    0    0  0.00000000000E+00  0.00000000000E+00  0.74505805969E-08  0.10566000000E+00  0.10566000000E+00 0. -1.
     999900   -1    0    0    0    0 -0.00000000000E+00 -0.00000000000E+00 -0.74505805969E-08  0.93827000000E+00  0.93827000000E+00 0.  1.
     999902    2    1    2    0    0  0.12968552747E-01 -0.19779312906E-01  0.11994804353E-02  0.10202478689E+01  0.10199729755E+01 0.  0.
     999903    2    3    3    0    0  0.37024798006E-02  0.43092053634E-01 -0.12061165457E+00  0.12958709093E+00  0.19365161334E-01 0.  0.
         14    1    1    2    0    0 -0.12968552747E-01  0.19779312906E-01 -0.11994804353E-02  0.23682131085E-01  0.00000000000E+00 0. -1.
     999901    1    3    3    0    0  0.92660729467E-02 -0.62871366540E-01  0.12181113500E+00  0.89066077799E+00  0.88000000000E+00 0. -1.
        -11    1    4    4    0    0 -0.18261840482E-02  0.28591775515E-01 -0.53368780382E-01  0.60574849697E-01  0.51100000000E-03 0.  1.
         11    1    4    4    0    0  0.55286638489E-02  0.14500278119E-01 -0.67242874187E-01  0.69012241229E-01  0.51100000000E-03 0. -1.
</event>
<event>
 8    1  0.1086486E+005  0.1043930E+01  0.7957747E-01            NaN
         13   -1    0    0    0    0  0.00000000000E+00  0.00000000000E+00  0.74505805969E-08  0.10566000000E+00  0.10566000000E+00 0.  1.
     999900   -1    0    0    0    0 -0.00000000000E+00 -0.00000000000E+00 -0.74505805969E-08  0.93827000000E+00  0.93827000000E+00 0.  1.
     999902    2    1    2    0    0 -0.14594819775E-02  0.21314722365E-02  0.23331029061E-01  0.10204563940E+01  0.10201863761E+01 0.  0.
     999903    2    3    3    0    0 -0.11601442494E+00  0.54935685095E-01 -0.15869523789E-01  0.13059808888E+00  0.18076026754E-01 0.  0.
         14    1    1    2    0    0  0.14594819775E-02 -0.21314722365E-02 -0.23331029061E-01  0.23473605999E-01  0.00000000000E+00 0. -1.
     999901    1    3    3    0    0  0.11455494296E+00 -0.52804212859E-01  0.39200552850E-01  0.88985830512E+00  0.88000000000E+00 0.  1.
        -11    1    4    4    0    0 -0.60992997555E-01  0.26916587471E-01 -0.17139672032E-01  0.68838055683E-01  0.51100000000E-03 0. -1.
         11    1    4    4    0    0 -0.55021427381E-01  0.28019097624E-01  0.12701482429E-02  0.61760033196E-01  0.51100000000E-03 0.  1.
</event>
<event>
 8    1  0.1086486E+005  0.1043930E+01  0.7957747E-01            NaN
         13   -1    0    0    0    0  0.00000000000E+00  0.00000000000E+00  0.74505805969E-08  0.10566000000E+00  0.10566000000E+00 0. -1.
     999900   -1    0    0    0    0 -0.00000000000E+00 -0.00000000000E+00 -0.74505805969E-08  0.93827000000E+00  0.93827000000E+00 0. -1.
     999902    2    1    2    0    0 -0.16918677298E-01 -0.13217792122E-01 -0.84751139462E-02  0.10208479891E+01  0.10205870064E+01 0.  0.
     999903    2    3    3    0    0 -0.12014103888E+00 -0.55078454652E-01  0.57216702354E-02  0.13371286994E+00  0.19465063209E-01 0.  0.
         14    1    1    2    0    0  0.16918677298E-01  0.13217792122E-01  0.84751139462E-02  0.23082010886E-01  0.00000000000E+00 0. -1.
     999901    1    3    3    0    0  0.10322236158E+00  0.41860662530E-01 -0.14196784182E-01  0.88713511918E+00  0.88000000000E+00 0. -1.
        -11    1    4    4    0    0 -0.11478945019E+00 -0.50257286428E-01  0.92977851578E-02  0.12565477565E+00  0.51100000000E-03 0.  1.
         11    1    4    4    0    0 -0.53515886927E-02 -0.48211682236E-02 -0.35761149224E-02  0.80580942855E-02  0.51100000000E-03 0. -1.
</event>
<event>
 8    1  0.1086486E+005  0.1043930E+01  0.7957747E-01            NaN
         13   -1    0    0    0    0  0.00000000000E+00  0.00000000000E+00  0.74505805969E-08  0.10566000000E+00  0.10566000000E+00 0.  1.
     999900   -1    0    0    0    0 -0.00000000000E+00 -0.00000000000E+00 -0.74505805969E-08  0.93827000000E+00  0.93827000000E+00 0. -1.
     999902    2    1    2    0    0 -0.11241899252E-01  0.81205032256E-02 -0.90265132946E-02  0.10273830724E+01  0.10272498122E+01 0.  0.
     999903    2    3    3    0    0  0.33362705593E-01  0.16128829114E-01 -0.13103681210E+00  0.13781001913E+00  0.21160009272E-01 0.  0.
         14    1    1    2    0    0  0.11241899252E-01 -0.81205032256E-02  0.90265132946E-02  0.16546927621E-01  0.00000000000E+00 0.  1.
     999901    1    3    3    0    0 -0.44604604845E-01 -0.80083258886E-02  0.12201029881E+00  0.88957305325E+00  0.88000000000E+00 0.  1.
        -11    1    4    4    0    0  0.66098056410E-03 -0.29335126798E-02 -0.25645421741E-01  0.25826172175E-01  0.51100000000E-03 0.  1.
         11    1    4    4    0    0  0.32701725029E-01  0.19062341794E-01 -0.10539139036E+00  0.11198384695E+00  0.51100000000E-03 0. -1.
</event>
<event>
 8    1  0.1086486E+005  0.1043930E+01  0.7957747E-01            NaN
         13   -1    0    0    0    0  0.00000000000E+00  0.00000000000E+00  0.74505805969E-08  0.10566000000E+00  0.10566000000E+00 0. -1.
     999900   -1    0    0    0    0 -0.00000000000E+00 -0.00000000000E+00 -0.74505805969E-08  0.93827000000E+00  0.93827000000E+00 0. -1.
     999902    2    1    2    0    0 -0.22071508590E-01  0.10243724426E-01 -0.35720122172E-02  0.10193364103E+01  0.10190396816E+01 0.  0.
     999903    2    3    3    0    0 -0.40568683874E-01 -0.10016661455E+00 -0.69094171099E-01  0.12982770225E+00  0.20051409178E-01 0.  0.
         14    1    1    2    0    0  0.22071508590E-01 -0.10243724426E-01  0.35720122172E-02  0.24593589670E-01  0.00000000000E+00 0.  1.
     999901    1    3    3    0    0  0.18497175284E-01  0.11041033898E+00  0.65522158882E-01  0.88950870808E+00  0.88000000000E+00 0.  1.
        -11    1    4    4    0    0 -0.24917844108E-01 -0.74627698175E-01 -0.40836008369E-01  0.88645546930E-01  0.51100000000E-03 0.  1.
         11    1    4    4    0    0 -0.15650839766E-01 -0.25538916375E-01 -0.28258162730E-01  0.41182155320E-01  0.51100000000E-03 0. -1.
</event>
<event>
 8    1  0.1086486E+005  0.1043930E+01  0.7957747E-01            NaN
         13   -1    0    0    0    0  0.00000000000E+00  0.00000000000E+00  0.74505805969E-08  0.10566000000E+00  0.10566000000E+00 0. -1.
     999900   -1    0    0    0    0 -0.00000000000E+00 -0.00000000000E+00 -0.74505805969E-08  0.93827000000E+00  0.93827000000E+00 0.  1.
     999902    2    1    2    0    0  0.75080924401E-02 -0.39842441511E-02  0.21982769170E-01  0.10203612114E+01  0.10200889736E+01 0.  0.
     999903    2    3    3    0    0  0.72014164783E-01 -0.10710664759E+00  0.19171762911E-01  0.13199013739E+00  0.19898894142E-01 0.  0.
         14    1    1    2    0    0 -0.75080924401E-02  0.39842441511E-02 -0.21982769170E-01  0.23568788555E-01  0.00000000000E+00 0.  1.
     999901    1    3    3    0    0 -0.64506072343E-01  0.10312240344E+00  0.28110062592E-02  0.88837107405E+00  0.88000000000E+00 0.  1.
        -11    1    4    4    0    0  0.33203104351E-01 -0.57767388550E-01  0.18721352611E-01  0.69211758272E-01  0.51100000000E-03 0. -1.
         11    1    4    4    0    0  0.38811060432E-01 -0.49339259039E-01  0.45041029998E-03  0.62778379119E-01  0.51100000000E-03 0.  1.
</event>
<event>
 8    1  0.1086486E+005  0.1043930E+01  0.7957747E-01            NaN
         13   -1    0    0    0    0  0.00000000000E+00  0.00000000000E+00  0.74505805969E-08  0.10566000000E+00  0.10566000000E+00 0. -1.
     999900   -1    0    0    0    0 -0.00000000000E+00 -0.00000000000E+00 -0.74505805969E-08  0.93827000000E+00  0.93827000000E+00 0.  1.
     999902    2    1    2    0    0  0.66397943190E-02 -0.20095907199E-01  0.11982009275E-01  0.10196092085E+01  0.10193191046E+01 0.  0.
     999903    2    3    3    0    0  0.74029820741E-01 -0.61944261999E-01 -0.85535443968E-01  0.13067594092E+00  0.21032912457E-01 0.  0.
         14    1    1    2    0    0 -0.66397943190E-02  0.20095907199E-01 -0.11982009275E-01  0.24320791537E-01  0.00000000000E+00 0.  1.
     999901    1    3    3    0    0 -0.67390026422E-01  0.41848354800E-01  0.97517453243E-01  0.88893326754E+00  0.88000000000E+00 0. -1.
        -11    1    4    4    0    0  0.29653031802E-01 -0.12839098629E-01 -0.32819877716E-01  0.46060289219E-01  0.51100000000E-03 0. -1.
         11    1    4    4    0    0  0.44376788939E-01 -0.49105163370E-01 -0.52715566252E-01  0.84615651699E-01  0.51100000000E-03 0.  1.
</event>
<event>
 8    1  0.1086486E+005  0.1043930E+01  0.7957747E-01            NaN
         13   -1    0    0    0    0  0.00000000000E+00  0.00000000000E+00  0.74505805969E-08  0.10566000000E+00  0.10566000000E+00 0.  1.
     999900   -1    0    0    0    0 -0.00000000000E+00 -0.00000000000E+00 -0.74505805969E-08  0.93827000000E+00  0.93827000000E+00 0.  1.
     999902    2    1    2    0    0  0.12332799376E-01 -0.15990673821E-01 -0.11104519190E-01  0.10208841775E+01  0.10206240218E+01 0.  0.
     999903    2    3    3    0    0 -0.33263150762E-01 -0.10453497465E+00 -0.72855002402E-01  0.13311607371E+00  0.19443239973E-01 0.  0.
         14    1    1    2    0    0 -0.12332799376E-01  0.15990673821E-01  0.11104519190E-01  0.23045822531E-01  0.00000000000E+00 0.  1.
     999901    1    3    3    0    0  0.45595950138E-01  0.88544300829E-01  0.61750483213E-01  0.88776810376E+00  0.88000000000E+00 0.  1.
        -11    1    4    4    0    0 -0.29914750944E-01 -0.74693909495E-01 -0.45197502376E-01  0.92288394621E-01  0.51100000000E-03 0. -1.
         11    1    4    4    0    0 -0.33483998181E-02 -0.29841065156E-01 -0.27657500026E-01  0.40827679087E-01  0.51100000000E-03 0.  1.
</event>
<event>
 8    1  0.1086486E+005  0.1043930E+01  0.7957747E-01            NaN
         13   -1    0    0    0    0  0.00000000000E+00  0.00000000000E+00  0.74505805969E-08  0.10566000000E+00  0.10566000000E+00 0. -1.
     999900   -1    0    0    0    0 -0.00000000000E+00 -0.00000000000E+00 -0.74505805969E-08  0.93827000000E+00  0.93827000000E+00 0. -1.
     999902    2    1    2    0    0 -0.11803228411E-01 -0.16079475927E-01  0.12351107874E-01  0.10204690620E+01  0.10201993388E+01 0.  0.
     999903    2    3    3    0    0 -0.98890927578E-01  0.69227179458E-01 -0.44188109199E-01  0.13026786233E+00  0.21102346493E-01 0.  0.
         14    1    1    2    0    0  0.11803228411E-01  0.16079475927E-01 -0.12351107874E-01  0.23460938019E-01  0.00000000000E+00 0.  1.
     999901    1    3    3    0    0  0.87087699167E-01 -0.85306655385E-01  0.56539217073E-01  0.89020119965E+00  0.88000000000E+00 0.  1.
        -11    1    4    4    0    0 -0.29302269485E-01  0.19693422915E-01 -0.23389330451E-01  0.42352990485E-01  0.51100000000E-03 0.  1.
         11    1    4    4    0    0 -0.69588658094E-01  0.49533756542E-01 -0.20798778748E-01  0.87914871841E-01  0.51100000000E-03 0. -1.
</event>
<event>
 8    1  0.1086486E+005  0.1043930E+01  0.7957747E-01            NaN
         13   -1    0    0    0    0  0.00000000000E+00  0.00000000000E+00  0.74505805969E-08  0.10566000000E+00  0.10566000000E+00 0. -1.
     999900   -1    0    0    0    0 -0.00000000000E+00 -0.00000000000E+00 -0.74505805969E-08  0.93827000000E+00  0.93827000000E+00 0.  1.
     999902    2    1    2    0    0 -0.33644699304E-02  0.22059507130E-01 -0.10544657893E-02  0.10215904966E+01  0.10213462143E+01 0.  0.
     999903    2    3    3    0    0  0.46792901120E-01  0.12019416244E+00 -0.30516216904E-01  0.13422689177E+00  0.21199214616E-01 0.  0.
         14    1    1    2    0    0  0.33644699304E-02 -0.22059507130E-01  0.10544657893E-02  0.22339503371E-01  0.00000000000E+00 0. -1.
     999901    1    3    3    0    0 -0.50157371050E-01 -0.98134655313E-01  0.29461751115E-01  0.88736360486E+00  0.88000000000E+00 0.  1.
        -11    1    4    4    0    0  0.20827256207E-01  0.69805484014E-01 -0.82133069537E-02  0.73309615547E-01  0.51100000000E-03 0.  1.
         11    1    4    4    0    0  0.25965644913E-01  0.50388678430E-01 -0.22302909950E-01  0.60917276227E-01  0.51100000000E-03 0. -1.
</event>
<event>
 8    1  0.1086486E+005  0.1043930E+01  0.7957747E-01            NaN
         13   -1    0    0    0    0  0.00000000000E+00  0.00000000000E+00  0.74505805969E-08  0.10566000000E+00  0.10566000000E+00 0. -1.
     999900   -1    0    0    0    0 -0.00000000000E+00 -0.00000000000E+00 -0.74505805969E-08  0.93827000000E+00  0.93827000000E+00 0.  1.
     999902    2    1    2    0    0 -0.10051573780E-01  0.60097594246E-02 -0.17322206981E-01  0.10230204281E+01  0.10228067198E+01 0.  0.
     999903    2    3    3    0    0 -0.15948486044E-01 -0.99538101483E-01 -0.86434943890E-01  0.13400316450E+00  0.17990572989E-01 0.  0.
         14    1    1    2    0    0  0.10051573780E-01 -0.60097594246E-02  0.17322206981E-01  0.20909571934E-01  0.00000000000E+00 0. -1.
     999901    1    3    3    0    0  0.58969122635E-02  0.10554786091E+00  0.69112736909E-01  0.88901726357E+00  0.88000000000E+00 0.  1.
        -11    1    4    4    0    0 -0.13958417013E-01 -0.86107419576E-01 -0.81967289580E-01  0.11970055469E+00  0.51100000000E-03 0.  1.
         11    1    4    4    0    0 -0.19900690301E-02 -0.13430681908E-01 -0.44676543097E-02  0.14302609807E-01  0.51100000000E-03 0. -1.
</event>
<event>
 8    1  0.1086486E+005  0.1043930E+01  0.7957747E-01            NaN
         13   -1    0    0    0    0  0.00000000000E+00  0.00000000000E+00  0.74505805969E-08  0.10566000000E+00  0.10566000000E+00 0. -1.
     999900   -1    0    0    0    0 -0.00000000000E+00 -0.00000000000E+00 -0.74505805969E-08  0.93827000000E+00  0.93827000000E+00 0. -1.
     999902    2    1    2    0    0  0.22779118548E-01 -0.14282103808E-01 -0.25048329447E-02  0.10169273905E+01  0.10165688253E+01 0.  0.
     999903    2    3    3    0    0  0.10703800220E+00 -0.62693387683E-01  0.35998396016E-01  0.13074134316E+00  0.20243999662E-01 0.  0.
         14    1    1    2    0    0 -0.22779118548E-01  0.14282103808E-01  0.25048329447E-02  0.27002609487E-01  0.00000000000E+00 0.  1.
     999901    1    3    3    0    0 -0.84258883649E-01  0.48411283875E-01 -0.38503228961E-01  0.88618604735E+00  0.88000000000E+00 0. -1.
        -11    1    4    4    0    0  0.11427817242E-01 -0.11692789048E-01  0.10437413729E-01  0.19404047232E-01  0.51100000000E-03 0. -1.
         11    1    4    4    0    0  0.95610184956E-01 -0.51000598635E-01  0.25560982287E-01  0.11133729593E+00  0.51100000000E-03 0.  1.
</event>
<event>
 8    1  0.1086486E+005  0.1043930E+01  0.7957747E-01            NaN
         13   -1    0    0    0    0  0.00000000000E+00  0.00000000000E+00  0.74505805969E-08  0.10566000000E+00  0.10566000000E+00 0.  1.
     999900   -1    0    0    0    0 -0.00000000000E+00 -0.00000000000E+00 -0.74505805969E-08  0.93827000000E+00  0.93827000000E+00 0. -1.
     999902    2    1    2    0    0 -0.50743019023E-02  0.19077365459E-01 -0.23208380238E-01  0.10134616012E+01  0.10130035014E+01 0.  0.
     999903    2    3    3    0    0  0.20796349016E-01  0.63161007512E-01 -0.10734242085E+00  0.12797236079E+00  0.20802134765E-01 0.  0.
         14    1    1    2    0    0  0.50743019023E-02 -0.19077365459E-01  0.23208380238E-01  0.30468398808E-01  0.00000000000E+00 0.  1.
     999901    1    3    3    0    0 -0.25870650918E-01 -0.44083642053E-01  0.84134040610E-01  0.88548924040E+00  0.88000000000E+00 0.  1.
        -11    1    4    4    0    0  0.10144203816E-01  0.76920576135E-02 -0.14549136380E-01  0.19339366892E-01  0.51100000000E-03 0. -1.
         11    1    4    4    0    0  0.10652145200E-01  0.55468949898E-01 -0.92793284468E-01  0.10863299390E+00  0.51100000000E-03 0.  1.
</event>
<event>
 8    1  0.1086486E+005  0.1043930E+01  0.7957747E-01            NaN
         13   -1    0    0    0    0  0.00000000000E+00  0.00000000000E+00  0.74505805969E-08  0.10566000000E+00  0.10566000000E+00 0. -1.
     999900   -1    0    0    0    0 -0.00000000000E+00 -0.00000000000E+00 -0.74505805969E-08  0.93827000000E+00  0.93827000000E+00 0. -1.
     999902    2    1    2    0    0 -0.23201864685E-01 -0.30202849827E-02  0.28082648558E-02  0.10203644532E+01  0.10200922911E+01 0.  0.
     999903    2    3    3    0    0  0.35855615397E-01 -0.82319209548E-01 -0.91562742092E-01  0.12981294295E+00  0.20139190692E-01 0.  0.
         14    1    1    2    0    0  0.23201864685E-01  0.30202849827E-02 -0.28082648558E-02  0.23565546837E-01  0.00000000000E+00 0. -1.
     999901    1    3    3    0    0 -0.59057480082E-01  0.79298924566E-01  0.94371006947E-01  0.89055151021E+00  0.88000000000E+00 0.  1.
        -11    1    4    4    0    0  0.57497333956E-02 -0.21809232196E-01 -0.35195210250E-01  0.41805095247E-01  0.51100000000E-03 0. -1.
         11    1    4    4    0    0  0.30105882001E-01 -0.60509977353E-01 -0.56367531842E-01  0.88007847702E-01  0.51100000000E-03 0.  1.
</event>
<event>
 8    1  0.1086486E+005  0.1043930E+01  0.7957747E-01            NaN
         13   -1    0    0    0    0  0.00000000000E+00  0.00000000000E+00  0.74505805969E-08  0.10566000000E+00  0.10566000000E+00 0.  1.
     999900   -1    0    0    0    0 -0.00000000000E+00 -0.00000000000E+00 -0.74505805969E-08  0.93827000000E+00  0.93827000000E+00 0.  1.
     999902    2    1    2    0    0  0.17992438849E-01  0.15161353649E-01 -0.20960415881E-02  0.10203082327E+01  0.10200347552E+01 0.  0.
     999903    2    3    3    0    0 -0.37616978618E-01  0.12159811937E+00  0.27231968582E-01  0.13166807797E+00  0.19843460625E-01 0.  0.
         14    1    1    2    0    0 -0.17992438849E-01 -0.15161353649E-01  0.20960415881E-02  0.23621767303E-01  0.00000000000E+00 0.  1.
     999901    1    3    3    0    0  0.55609417467E-01 -0.10643676572E+00 -0.29328010171E-01  0.88864015472E+00  0.88000000000E+00 0.  1.
        -11    1    4    4    0    0 -0.21679577527E-02  0.22607015361E-01  0.11121798058E-01  0.25292937698E-01  0.51100000000E-03 0. -1.
         11    1    4    4    0    0 -0.35449020866E-01  0.98991104008E-01  0.16110170525E-01  0.10637514027E+00  0.51100000000E-03 0.  1.
</event>
<event>
 8    1  0.1086486E+005  0.1043930E+01  0.7957747E-01            NaN
         13   -1    0    0    0    0  0.00000000000E+00  0.00000000000E+00  0.74505805969E-08  0.10566000000E+00  0.10566000000E+00 0.  1.
     999900   -1    0    0    0    0 -0.00000000000E+00 -0.00000000000E+00 -0.74505805969E-08  0.93827000000E+00  0.93827000000E+00 0. -1.
     999902    2    1    2    0    0 -0.11019981093E-01 -0.41670393028E-02  0.20441301530E-01  0.10203365473E+01  0.10200637327E+01 0.  0.
     999903    2    3    3    0    0 -0.55321764259E-01 -0.72329814420E-02 -0.11447079834E+00  0.12894812321E+00  0.20279082459E-01 0.  0.
         14    1    1    2    0    0  0.11019981093E-01  0.41670393028E-02 -0.20441301530E-01  0.23593452653E-01  0.00000000000E+00 0. -1.
     999901    1    3    3    0    0  0.44301783166E-01  0.30659421392E-02  0.13491209987E+00  0.89138842414E+00  0.88000000000E+00 0.  1.
        -11    1    4    4    0    0 -0.49534010158E-01 -0.12938732161E-01 -0.97528160157E-01  0.11015004356E+00  0.51100000000E-03 0. -1.
         11    1    4    4    0    0 -0.57877541017E-02  0.57057507194E-02 -0.16942638184E-01  0.18798079648E-01  0.51100000000E-03 0.  1.
</event>
<event>
 8    1  0.1086486E+005  0.1043930E+01  0.7957747E-01            NaN
         13   -1    0    0    0    0  0.00000000000E+00  0.00000000000E+00  0.74505805969E-08  0.10566000000E+00  0.10566000000E+00 0.  1.
     999900   -1    0    0    0    0 -0.00000000000E+00 -0.00000000000E+00 -0.74505805969E-08  0.93827000000E+00  0.93827000000E+00 0. -1.
     999902    2    1    2    0    0 -0.71959399683E-02  0.11459769358E-01 -0.20376120897E-01  0.10194699475E+01  0.10191764713E+01 0.  0.
     999903    2    3    3    0    0 -0.10627199746E+00 -0.51152681706E-01  0.49227620007E-01  0.12897510476E+00  0.17346030851E-01 0.  0.
         14    1    1    2    0    0  0.71959399683E-02 -0.11459769358E-01  0.20376120897E-01  0.24460052506E-01  0.00000000000E+00 0. -1.
     999901    1    3    3    0    0  0.99076057488E-01  0.62612451064E-01 -0.69603740904E-01  0.89049484274E+00  0.88000000000E+00 0. -1.
        -11    1    4    4    0    0 -0.16874197358E-01 -0.13724414926E-01  0.44236165988E-02  0.22201973028E-01  0.51100000000E-03 0.  1.
         11    1    4    4    0    0 -0.89397800099E-01 -0.37428266780E-01  0.44804003408E-01  0.10677313173E+00  0.51100000000E-03 0. -1.
</event>
<event>
 8    1  0.1086486E+005  0.1043930E+01  0.7957747E-01            NaN
         13   -1    0    0    0    0  0.00000000000E+00  0.00000000000E+00  0.74505805969E-08  0.10566000000E+00  0.10566000000E+00 0. -1.
     999900   -1    0    0    0    0 -0.00000000000E+00 -0.00000000000E+00 -0.74505805969E-08  0.93827000000E+00  0.93827000000E+00 0. -1.
     999902    2    1    2    0    0 -0.20958663239E-01 -0.28095613240E-02  0.10660016848E-01  0.10202488860E+01  0.10199740165E+01 0.  0.
     999903    2    3    3    0    0  0.67449290229E-01 -0.84874662501E-01  0.69142173789E-01  0.13009675873E+00  0.19784118565E-01 0.  0.
         14    1    1    2    0    0  0.20958663239E-01  0.28095613240E-02 -0.10660016848E-01  0.23681113969E-01  0.00000000000E+00 0.  1.
     999901    1    3    3    0    0 -0.88407953468E-01  0.82065101177E-01 -0.58482156941E-01  0.89015212731E+00  0.88000000000E+00 0. -1.
        -11    1    4    4    0    0  0.26520094456E-01 -0.35987182675E-01  0.17363530247E-01  0.47959837682E-01  0.51100000000E-03 0.  1.
         11    1    4    4    0    0  0.40929195773E-01 -0.48887479827E-01  0.51778643542E-01  0.82136921043E-01  0.51100000000E-03 0. -1.
</event>
<event>
 8    1  0.1095841E+005  0.1043930E+01  0.7957747E-01            NaN
         13   -1    0    0    0    0  0.00000000000E+00  0.00000000000E+00  0.74505805969E-08  0.10566000000E+00  0.10566000000E+00 0.  1.
     999900   -1    0    0    0    0 -0.00000000000E+00 -0.00000000000E+00 -0.74505805969E-08  0.93827000000E+00  0.93827000000E+00 0. -1.
     999902    2    1    2    0    0  0.11672683478E-01 -0.17588098866E-02 -0.20901270701E-01  0.10199256656E+01  0.10196431510E+01 0.  0.
     999903    2    3    3    0    0  0.23677575110E-02 -0.31072620182E-01 -0.12752705656E+00  0.13295614003E+00  0.21049252178E-01 0.  0.
         14    1    1    2    0    0 -0.11672683478E-01  0.17588098866E-02  0.20901270701E-01  0.24004334373E-01  0.00000000000E+00 0.  1.
     999901    1    3    3    0    0  0.93049259667E-02  0.29313810296E-01  0.10662578586E+00  0.88696952559E+00  0.88000000000E+00 0.  1.
        -11    1    4    4    0    0 -0.64363901465E-02 -0.20761729373E-01 -0.54456158578E-01  0.58636258858E-01  0.51100000000E-03 0.  1.
         11    1    4    4    0    0  0.88041476575E-02 -0.10310890809E-01 -0.73070897981E-01  0.74319881176E-01  0.51100000000E-03 0. -1.
</event>
<event>
 8    1  0.1086486E+005  0.1043930E+01  0.7957747E-01            NaN
         13   -1    0    0    0    0  0.00000000000E+00  0.00000000000E+00  0.74505805969E-08  0.10566000000E+00  0.10566000000E+00 0.  1.
     999900   -1    0    0    0    0 -0.00000000000E+00 -0.00000000000E+00 -0.74505805969E-08  0.93827000000E+00  0.93827000000E+00 0. -1.
     999902    2    1    2    0    0 -0.46073566553E-02 -0.11705607855E-01 -0.19553914938E-01  0.10206790951E+01  0.10204142348E+01 0.  0.
     999903    2    3    3    0    0 -0.37381891474E-01  0.83255407339E-02 -0.12632510181E+00  0.13339362613E+00  0.19212176007E-01 0.  0.
         14    1    1    2    0    0  0.46073566553E-02  0.11705607855E-01  0.19553914938E-01  0.23250904929E-01  0.00000000000E+00 0.  1.
     999901    1    3    3    0    0  0.32774534819E-01 -0.20031148589E-01  0.10677118687E+00  0.88728546894E+00  0.88000000000E+00 0.  1.
        -11    1    4    4    0    0 -0.18073548150E-01  0.13993626361E-02 -0.31262039139E-01  0.36141217061E-01  0.51100000000E-03 0.  1.
         11    1    4    4    0    0 -0.19308343324E-01  0.69261780978E-02 -0.95063062669E-01  0.97252409070E-01  0.51100000000E-03 0. -1.
</event>
<event>
 8    1  0.1086486E+005  0.1043930E+01  0.7957747E-01            NaN
         13   -1    0    0    0    0  0.00000000000E+00  0.00000000000E+00  0.74505805969E-08  0.10566000000E+00  0.10566000000E+00 0. -1.
     999900   -1    0    0    0    0 -0.00000000000E+00 -0.00000000000E+00 -0.74505805969E-08  0.93827000000E+00  0.93827000000E+00 0.  1.
     999902    2    1    2    0    0  0.76486426488E-02  0.42070068383E-03 -0.22348751995E-01  0.10203048981E+01  0.10200313425E+01 0.  0.
     999903    2    3    3    0    0 -0.39527996042E-01  0.92668150718E-02  0.11928880274E+00  0.12768791088E+00  0.20640925209E-01 0.  0.
         14    1    1    2    0    0 -0.76486426488E-02 -0.42070068383E-03  0.22348751995E-01  0.23625101887E-01  0.00000000000E+00 0. -1.
     999901    1    3    3    0    0  0.47176638691E-01 -0.88461143879E-02 -0.14163755474E+00  0.89261698723E+00  0.88000000000E+00 0.  1.
        -11    1    4    4    0    0 -0.18708618224E-01  0.40359851442E-02  0.28082511577E-01  0.33988088346E-01  0.51100000000E-03 0. -1.
         11    1    4    4    0    0 -0.20819377818E-01  0.52308299275E-02  0.91206291166E-01  0.93699822538E-01  0.51100000000E-03 0.  1.
</event>
<event>
 8    1  0.1086486E+005  0.1043930E+01  0.7957747E-01            NaN
         13   -1    0    0    0    0  0.00000000000E+00  0.00000000000E+00  0.74505805969E-08  0.10566000000E+00  0.10566000000E+00 0.  1.
     999900   -1    0    0    0    0 -0.00000000000E+00 -0.00000000000E+00 -0.74505805969E-08  0.93827000000E+00  0.93827000000E+00 0.  1.
     999902    2    1    2    0    0  0.11413129225E-01  0.10117060685E-01  0.23580239340E-01  0.10158472273E+01  0.10154589835E+01 0.  0.
     999903    2    3    3    0    0 -0.12045845771E+00 -0.16198581159E-01 -0.19060310148E-01  0.12461165523E+00  0.19802402162E-01 0.  0.
         14    1    1    2    0    0 -0.11413129225E-01 -0.10117060685E-01 -0.23580239340E-01  0.28082772707E-01  0.00000000000E+00 0. -1.
     999901    1    3    3    0    0  0.13187158693E+00  0.26315641844E-01  0.42640549488E-01  0.89123557206E+00  0.88000000000E+00 0. -1.
        -11    1    4    4    0    0 -0.35398766155E-01 -0.13214424026E-01 -0.22596223517E-02  0.37855787692E-01  0.51100000000E-03 0.  1.
         11    1    4    4    0    0 -0.85059691554E-01 -0.29841571334E-02 -0.16800687796E-01  0.86755867539E-01  0.51100000000E-03 0. -1.
</event>
<event>
 8    1  0.1086486E+005  0.1043930E+01  0.7957747E-01            NaN
         13   -1    0    0    0    0  0.00000000000E+00  0.00000000000E+00  0.74505805969E-08  0.10566000000E+00  0.10566000000E+00 0. -1.
     999900   -1    0    0    0    0 -0.00000000000E+00 -0.00000000000E+00 -0.74505805969E-08  0.93827000000E+00  0.93827000000E+00 0.  1.
     999902    2    1    2    0    0 -0.17985098324E-01  0.21358558794E-01 -0.40311222621E-02  0.10157182694E+01  0.10153264013E+01 0.  0.
     999903    2    3    3    0    0 -0.53359111301E-01  0.97274351461E-01 -0.61659711885E-01  0.12986524396E+00  0.27451180471E-01 0.  0.
         14    1    1    2    0    0  0.17985098324E-01 -0.21358558794E-01  0.40311222621E-02  0.28211730578E-01  0.00000000000E+00 0. -1.
     999901    1    3    3    0    0  0.35374012977E-01 -0.75915792667E-01  0.57628589623E-01  0.88585302546E+00  0.88000000000E+00 0. -1.
        -11    1    4    4    0    0 -0.54068130611E-01  0.78043466997E-01 -0.49207573309E-01  0.10693826200E+00  0.51100000000E-03 0.  1.
         11    1    4    4    0    0  0.70901931049E-03  0.19230884464E-01 -0.12452138576E-01  0.22926981960E-01  0.51100000000E-03 0. -1.
</event>
<event>
 8    1  0.1086486E+005  0.1043930E+01  0.7957747E-01            NaN
         13   -1    0    0    0    0  0.00000000000E+00  0.00000000000E+00  0.74505805969E-08  0.10566000000E+00  0.10566000000E+00 0. -1.
     999900   -1    0    0    0    0 -0.00000000000E+00 -0.00000000000E+00 -0.74505805969E-08  0.93827000000E+00  0.93827000000E+00 0. -1.
     999902    2    1    2    0    0  0.12363775692E-01 -0.39360728950E-02  0.20029648124E-01  0.10200649120E+01  0.10197857041E+01 0.  0.
     999903    2    3    3    0    0  0.40430820687E-01 -0.11975618231E+00 -0.26558593165E-01  0.13081099949E+00  0.20735579442E-01 0.  0.
         14    1    1    2    0    0 -0.12363775692E-01  0.39360728950E-02 -0.20029648124E-01  0.23865087956E-01  0.00000000000E+00 0.  1.
     999901    1    3    3    0    0 -0.28067044995E-01  0.11582010941E+00  0.46588241289E-01  0.88925391255E+00  0.88000000000E+00 0.  1.
        -11    1    4    4    0    0  0.11500808287E-01 -0.65082093130E-01 -0.10709590111E-01  0.66954491103E-01  0.51100000000E-03 0.  1.
         11    1    4    4    0    0  0.28930012400E-01 -0.54674089179E-01 -0.15849003054E-01  0.63856508391E-01  0.51100000000E-03 0. -1.
</event>
<event>
 8    1  0.1086486E+005  0.1043930E+01  0.7957747E-01            NaN
         13   -1    0    0    0    0  0.00000000000E+00  0.00000000000E+00  0.74505805969E-08  0.10566000000E+00  0.10566000000E+00 0.  1.
     999900   -1    0    0    0    0 -0.00000000000E+00 -0.00000000000E+00 -0.74505805969E-08  0.93827000000E+00  0.93827000000E+00 0.  1.
     999902    2    1    2    0    0 -0.13593125353E-01  0.19089862866E-01  0.16461748593E-02  0.10204373243E+01  0.10201668623E+01 0.  0.
     999903    2    3    3    0    0 -0.22797614777E-02  0.21956619879E-01  0.12795513602E+00  0.13134218641E+00  0.19772774928E-01 0.  0.
         14    1    1    2    0    0  0.13593125353E-01 -0.19089862866E-01 -0.16461748593E-02  0.23492675726E-01  0.00000000000E+00 0. -1.
     999901    1    3    3    0    0 -0.11313363875E-01 -0.28667570129E-02 -0.12630896116E+00  0.88909513786E+00  0.88000000000E+00 0.  1.
        -11    1    4    4    0    0 -0.22667121287E-02  0.20721574835E-01  0.62757087184E-01  0.66130437473E-01  0.51100000000E-03 0.  1.
         11    1    4    4    0    0 -0.13049348978E-04  0.12350450447E-02  0.65198048838E-01  0.65211748940E-01  0.51100000000E-03 0. -1.
</event>
<event>
 8    1  0.1086486E+005  0.1043930E+01  0.7957747E-01            NaN
         13   -1    0    0    0    0  0.00000000000E+00  0.00000000000E+00  0.74505805969E-08  0.10566000000E+00  0.10566000000E+00 0.  1.
     999900   -1    0    0    0    0 -0.00000000000E+00 -0.00000000000E+00 -0.74505805969E-08  0.93827000000E+00  0.93827000000E+00 0. -1.
     999902    2    1    2    0    0  0.15279249676E-01 -0.15614163445E-01  0.87874751078E-02  0.10203826585E+01  0.10201109217E+01 0.  0.
     999903    2    3    3    0    0 -0.43602903093E-01 -0.10687045572E+00  0.61158471130E-01  0.13216109834E+00  0.20092034707E-01 0.  0.
         14    1    1    2    0    0 -0.15279249676E-01  0.15614163445E-01 -0.87874751078E-02  0.23547341453E-01  0.00000000000E+00 0. -1.
     999901    1    3    3    0    0  0.58882152769E-01  0.91256292278E-01 -0.52370996022E-01  0.88822156021E+00  0.88000000000E+00 0.  1.
        -11    1    4    4    0    0 -0.97543712550E-02 -0.49062258546E-01  0.22928267196E-01  0.55029260670E-01  0.51100000000E-03 0. -1.
         11    1    4    4    0    0 -0.33848531838E-01 -0.57808197176E-01  0.38230203934E-01  0.77131837669E-01  0.51100000000E-03 0.  1.
</event>
<event>
 8    1  0.1086486E+005  0.1043930E+01  0.7957747E-01            NaN
         13   -1    0    0    0    0  0.00000000000E+00  0.00000000000E+00  0.74505805969E-08  0.10566000000E+00  0.10566000000E+00 0.  1.
     999900   -1    0    0    0    0 -0.00000000000E+00 -0.00000000000E+00 -0.74505805969E-08  0.93827000000E+00  0.93827000000E+00 0.  1.
     999902    2    1    2    0    0  0.66377250170E-02  0.21998087637E-01  0.34730813191E-02  0.10206912921E+01  0.10204267128E+01 0.  0.
     999903    2    3    3    0    0 -0.11649967398E+00  0.17432835389E-01 -0.52300885717E-01  0.13035742436E+00  0.19534524658E-01 0.  0.
         14    1    1    2    0    0 -0.66377250170E-02 -0.21998087637E-01 -0.34730813191E-02  0.23238707945E-01  0.00000000000E+00 0. -1.
     999901    1    3    3    0    0  0.12313739899E+00  0.45652522475E-02  0.55773967036E-01  0.89033386769E+00  0.88000000000E+00 0. -1.
        -11    1    4    4    0    0 -0.92748346385E-02  0.30673072673E-02 -0.10574646807E-01  0.14405388142E-01  0.51100000000E-03 0.  1.
         11    1    4    4    0    0 -0.10722483934E+00  0.14365528122E-01 -0.41726238911E-01  0.11595203622E+00  0.51100000000E-03 0. -1.
</event>
<event>
 8    1  0.1086486E+005  0.1043930E+01  0.7957747E-01            NaN
         13   -1    0    0    0    0  0.00000000000E+00  0.00000000000E+00  0.74505805969E-08  0.10566000000E+00  0.10566000000E+00 0.  1.
     999900   -1    0    0    0    0 -0.00000000000E+00 -0.00000000000E+00 -0.74505805969E-08  0.93827000000E+00  0.93827000000E+00 0. -1.
     999902    2    1    2    0    0  0.74689003770E-02  0.97206951063E-02  0.21522869519E-01  0.10191608600E+01  0.10188598275E+01 0.  0.
     999903    2    3    3    0    0 -0.96075286088E-01  0.15187814039E-01  0.84930321393E-01  0.13080744330E+00  0.20887734135E-01 0.  0.
         14    1    1    2    0    0 -0.74689003770E-02 -0.97206951063E-02 -0.21522869519E-01  0.24769140044E-01  0.00000000000E+00 0. -1.
     999901    1    3    3    0    0  0.10354418646E+00 -0.54671189328E-02 -0.63407451875E-01  0.88835341666E+00  0.88000000000E+00 0. -1.
        -11    1    4    4    0    0 -0.20819426063E-01 -0.19356196759E-02  0.98010023231E-02  0.23097962954E-01  0.51100000000E-03 0.  1.
         11    1    4    4    0    0 -0.75255860025E-01  0.17123433715E-01  0.75129319070E-01  0.10770948034E+00  0.51100000000E-03 0. -1.
</event>
<event>
 8    1  0.1086486E+005  0.1043930E+01  0.7957747E-01            NaN
         13   -1    0    0    0    0  0.00000000000E+00  0.00000000000E+00  0.74505805969E-08  0.10566000000E+00  0.10566000000E+00 0. -1.
     999900   -1    0    0    0    0 -0.00000000000E+00 -0.00000000000E+00 -0.74505805969E-08  0.93827000000E+00  0.93827000000E+00 0. -1.
     999902    2    1    2    0    0  0.17514372842E-02 -0.13204594594E-01  0.19655700951E-01  0.10201860443E+01  0.10199096968E+01 0.  0.
     999903    2    3    3    0    0  0.75314338483E-01  0.54290818613E-01 -0.86031049947E-01  0.12825733611E+00  0.20708938738E-01 0.  0.
         14    1    1    2    0    0 -0.17514372842E-02  0.13204594594E-01 -0.19655700951E-01  0.23743955670E-01  0.00000000000E+00 0.  1.
     999901    1    3    3    0    0 -0.73562901199E-01 -0.67495413207E-01  0.10568675090E+00  0.89192870822E+00  0.88000000000E+00 0.  1.
        -11    1    4    4    0    0  0.52514242884E-01  0.25733766481E-01 -0.55719029811E-01  0.80776505539E-01  0.51100000000E-03 0. -1.
         11    1    4    4    0    0  0.22800095598E-01  0.28557052132E-01 -0.30312020136E-01  0.47480830568E-01  0.51100000000E-03 0.  1.
</event>
<event>
 8    1  0.1086486E+005  0.1043930E+01  0.7957747E-01            NaN
         13   -1    0    0    0    0  0.00000000000E+00  0.00000000000E+00  0.74505805969E-08  0.10566000000E+00  0.10566000000E+00 0.  1.
     999900   -1    0    0    0    0 -0.00000000000E+00 -0.00000000000E+00 -0.74505805969E-08  0.93827000000E+00  0.93827000000E+00 0.  1.
     999902    2    1    2    0    0  0.89406758684E-02 -0.99996466552E-02 -0.19161292524E-01  0.10205401785E+01  0.10202721069E+01 0.  0.
     999903    2    3    3    0    0 -0.52794317711E-01 -0.48626468058E-01  0.10495448236E+00  0.12885191104E+00  0.20870990198E-01 0.  0.
         14    1    1    2    0    0 -0.89406758684E-02  0.99996466552E-02  0.19161292524E-01  0.23389821492E-01  0.00000000000E+00 0.  1.
     999901    1    3    3    0    0  0.61734993580E-01  0.38626821403E-01 -0.12411577489E+00  0.89168826747E+00  0.88000000000E+00 0.  1.
        -11    1    4    4    0    0 -0.28101284475E-01 -0.21959032138E-01  0.69280684286E-01  0.77922754171E-01  0.51100000000E-03 0.  1.
         11    1    4    4    0    0 -0.24693033236E-01 -0.26667435921E-01  0.35673798079E-01  0.50929156869E-01  0.51100000000E-03 0. -1.
</event>
<event>
 8    1  0.1086486E+005  0.1043930E+01  0.7957747E-01            NaN
         13   -1    0    0    0    0  0.00000000000E+00  0.00000000000E+00  0.74505805969E-08  0.10566000000E+00  0.10566000000E+00 0.  1.
     999900   -1    0    0    0    0 -0.00000000000E+00 -0.00000000000E+00 -0.74505805969E-08  0.93827000000E+00  0.93827000000E+00 0. -1.
     999902    2    1    2    0    0 -0.75591054202E-02  0.22244146772E-01 -0.47262551656E-02  0.10199658679E+01  0.10196843100E+01 0.  0.
     999903    2    3    3    0    0  0.35952240801E-01  0.45236169212E-01  0.11518329023E+00  0.13047153433E+00  0.20414609890E-01 0.  0.
         14    1    1    2    0    0  0.75591054202E-02 -0.22244146772E-01  0.47262551656E-02  0.23964132119E-01  0.00000000000E+00 0.  1.
     999901    1    3    3    0    0 -0.43511346222E-01 -0.22992022440E-01 -0.11990954540E+00  0.88949433355E+00  0.88000000000E+00 0. -1.
        -11    1    4    4    0    0  0.17675823445E-01  0.31539715715E-01  0.86845054870E-01  0.94071850615E-01  0.51100000000E-03 0.  1.
         11    1    4    4    0    0  0.18276417356E-01  0.13696453497E-01  0.28338235364E-01  0.36399683712E-01  0.51100000000E-03 0. -1.
</event>
<event>
 8    1  0.1086486E+005  0.1043930E+01  0.7957747E-01            NaN
         13   -1    0    0    0    0  0.00000000000E+00  0.00000000000E+00  0.74505805969E-08  0.10566000000E+00  0.10566000000E+00 0. -1.
     999900   -1    0    0    0    0 -0.00000000000E+00 -0.00000000000E+00 -0.74505805969E-08  0.93827000000E+00  0.93827000000E+00 0. -1.
     999902    2    1    2    0    0  0.61769618732E-02  0.22271176217E-01  0.51371498270E-03  0.10208123866E+01  0.10205505889E+01 0.  0.
     999903    2    3    3    0    0  0.22521170492E-01  0.11594902454E+00 -0.59378786629E-01  0.13366539526E+00  0.19728613124E-01 0.  0.
         14    1    1    2    0    0 -0.61769618732E-02 -0.22271176217E-01 -0.51371498270E-03  0.23117613440E-01  0.00000000000E+00 0.  1.
     999901    1    3    3    0    0 -0.16344208619E-01 -0.93677848325E-01  0.59892501612E-01  0.88714699130E+00  0.88000000000E+00 0. -1.
        -11    1    4    4    0    0  0.61044623950E-02  0.53520299436E-01 -0.17179325414E-01  0.56542702938E-01  0.51100000000E-03 0. -1.
         11    1    4    4    0    0  0.16416708097E-01  0.62428725107E-01 -0.42199461215E-01  0.77122692322E-01  0.51100000000E-03 0.  1.
</event>
<event>
 8    1  0.1086486E+005  0.1043930E+01  0.7957747E-01            NaN
         13   -1    0    0    0    0  0.00000000000E+00  0.00000000000E+00  0.74505805969E-08  0.10566000000E+00  0.10566000000E+00 0.  1.
     999900   -1    0    0    0    0 -0.00000000000E+00 -0.00000000000E+00 -0.74505805969E-08  0.93827000000E+00  0.93827000000E+00 0. -1.
     999902    2    1    2    0    0  0.19386660480E-01 -0.12731508468E-01  0.67613639714E-02  0.10197711516E+01  0.10194849443E+01 0.  0.
     999903    2    3    3    0    0 -0.54996125027E-01  0.81272651337E-01  0.80629753630E-01  0.12857750272E+00  0.20029962863E-01 0.  0.
         14    1    1    2    0    0 -0.19386660480E-01  0.12731508468E-01 -0.67613639714E-02  0.24158848383E-01  0.00000000000E+00 0. -1.
     999901    1    3    3    0    0  0.74382785508E-01 -0.94004159805E-01 -0.73868389659E-01  0.89119364890E+00  0.88000000000E+00 0.  1.
        -11    1    4    4    0    0 -0.40586642397E-01  0.46511500289E-01  0.42117044330E-01  0.74730862060E-01  0.51100000000E-03 0. -1.
         11    1    4    4    0    0 -0.14409482630E-01  0.34761151048E-01  0.38512709300E-01  0.53846640661E-01  0.51100000000E-03 0.  1.
</event>
<event>
 8    1  0.1086486E+005  0.1043930E+01  0.7957747E-01            NaN
         13   -1    0    0    0    0  0.00000000000E+00  0.00000000000E+00  0.74505805969E-08  0.10566000000E+00  0.10566000000E+00 0. -1.
     999900   -1    0    0    0    0 -0.00000000000E+00 -0.00000000000E+00 -0.74505805969E-08  0.93827000000E+00  0.93827000000E+00 0.  1.
     999902    2    1    2    0    0  0.14851442815E-01 -0.10339273932E-02  0.17747692063E-01  0.10207650495E+01  0.10205021662E+01 0.  0.
     999903    2    3    3    0    0  0.87450803567E-01 -0.13231716481E-01 -0.93974528726E-01  0.13065196235E+00  0.20396123443E-01 0.  0.
         14    1    1    2    0    0 -0.14851442815E-01  0.10339273932E-02 -0.17747692063E-01  0.23164950531E-01  0.00000000000E+00 0.  1.
     999901    1    3    3    0    0 -0.72599360752E-01  0.12197789088E-01  0.11172222079E+00  0.89011308712E+00  0.88000000000E+00 0. -1.
        -11    1    4    4    0    0  0.72265932982E-01 -0.18500441115E-01 -0.79450337444E-01  0.10898279053E+00  0.51100000000E-03 0. -1.
         11    1    4    4    0    0  0.15184870585E-01  0.52687246334E-02 -0.14524191281E-01  0.21669171819E-01  0.51100000000E-03 0.  1.
</event>
<event>
 8    1  0.1086486E+005  0.1043930E+01  0.7957747E-01            NaN
         13   -1    0    0    0    0  0.00000000000E+00  0.00000000000E+00  0.74505805969E-08  0.10566000000E+00  0.10566000000E+00 0.  1.
     999900   -1    0    0    0    0 -0.00000000000E+00 -0.00000000000E+00 -0.74505805969E-08  0.93827000000E+00  0.93827000000E+00 0.  1.
     999902    2    1    2    0    0  0.89601927301E-02  0.11792656027E-01  0.14931480872E-01  0.10228990487E+01  0.10226828262E+01 0.  0.
     999903    2    3    3    0    0 -0.10227060618E-01  0.48601880998E-01 -0.12019566562E+00  0.13161771523E+00  0.20235842538E-01 0.  0.
         14    1    1    2    0    0 -0.89601927301E-02 -0.11792656027E-01 -0.14931480872E-01  0.21030951261E-01  0.00000000000E+00 0. -1.
     999901    1    3    3    0    0  0.19187253348E-01 -0.36809224971E-01  0.13512714650E+00  0.89128133350E+00  0.88000000000E+00 0. -1.
        -11    1    4    4    0    0  0.44714705075E-02  0.86246064588E-02 -0.12758879094E-01  0.16044562998E-01  0.51100000000E-03 0.  1.
         11    1    4    4    0    0 -0.14698531125E-01  0.39977274539E-01 -0.10743678653E+00  0.11557315224E+00  0.51100000000E-03 0. -1.
</event>
<event>
 8    1  0.1086486E+005  0.1043930E+01  0.7957747E-01            NaN
         13   -1    0    0    0    0  0.00000000000E+00  0.00000000000E+00  0.74505805969E-08  0.10566000000E+00  0.10566000000E+00 0. -1.
     999900   -1    0    0    0    0 -0.00000000000E+00 -0.00000000000E+00 -0.74505805969E-08  0.93827000000E+00  0.93827000000E+00 0. -1.
     999902    2    1    2    0    0  0.19274737558E-01  0.58341542534E-02  0.11752727956E-01  0.10206130646E+01  0.10203466803E+01 0.  0.
     999903    2    3    3    0    0 -0.87907644293E-01  0.40016898964E-01  0.85167346737E-01  0.13041857499E+00  0.20649978794E-01 0.  0.
         14    1    1    2    0    0 -0.19274737558E-01 -0.58341542534E-02 -0.11752727956E-01  0.23316935438E-01  0.00000000000E+00 0.  1.
     999901    1    3    3    0    0  0.10718238185E+00 -0.34182744710E-01 -0.73414618781E-01  0.89019448957E+00  0.88000000000E+00 0. -1.
        -11    1    4    4    0    0 -0.86393002629E-01  0.37744092372E-01  0.85901169550E-01  0.12754465674E+00  0.51100000000E-03 0. -1.
         11    1    4    4    0    0 -0.15146416633E-02  0.22728065918E-02 -0.73382281299E-03  0.28739182474E-02  0.51100000000E-03 0.  1.
</event>
<event>
 8    1  0.1086486E+005  0.1043930E+01  0.7957747E-01            NaN
         13   -1    0    0    0    0  0.00000000000E+00  0.00000000000E+00  0.74505805969E-08  0.10566000000E+00  0.10566000000E+00 0.  1.
     999900   -1    0    0    0    0 -0.00000000000E+00 -0.00000000000E+00 -0.74505805969E-08  0.93827000000E+00  0.93827000000E+00 0.  1.
     999902    2    1    2    0    0  0.23287477333E-01 -0.91161917851E-02  0.44247015788E-02  0.10185333558E+01  0.10182166799E+01 0.  0.
     999903    2    3    3    0    0  0.99433286046E-01 -0.70337118618E-01 -0.45771357415E-01  0.13170426831E+00  0.20413439223E-01 0.  0.
         14    1    1    2    0    0 -0.23287477333E-01  0.91161917851E-02 -0.44247015788E-02  0.25396644212E-01  0.00000000000E+00 0. -1.
     999901    1    3    3    0    0 -0.76145808713E-01  0.61220926833E-01  0.50196058994E-01  0.88682908748E+00  0.88000000000E+00 0. -1.
        -11    1    4    4    0    0  0.54753632347E-01 -0.49348244863E-01 -0.22086179931E-01  0.76949788766E-01  0.51100000000E-03 0. -1.
         11    1    4    4    0    0  0.44679653699E-01 -0.20988873755E-01 -0.23685177484E-01  0.54754479539E-01  0.51100000000E-03 0.  1.
</event>
<event>
 8    1  0.1086486E+005  0.1043930E+01  0.7957747E-01            NaN
         13   -1    0    0    0    0  0.00000000000E+00  0.00000000000E+00  0.74505805969E-08  0.10566000000E+00  0.10566000000E+00 0.  1.
     999900   -1    0    0    0    0 -0.00000000000E+00 -0.00000000000E+00 -0.74505805969E-08  0.93827000000E+00  0.93827000000E+00 0.  1.
     999902    2    1    2    0    0  0.46697099147E-02 -0.24005938442E-01 -0.55693669021E-02  0.10188479523E+01  0.10185391699E+01 0.  0.
     999903    2    3    3    0    0  0.79940613713E-01  0.57306152687E-01 -0.80613118134E-01  0.12873058375E+00  0.19964756966E-01 0.  0.
         14    1    1    2    0    0 -0.46697099147E-02  0.24005938442E-01  0.55693669021E-02  0.25082047741E-01  0.00000000000E+00 0. -1.
     999901    1    3    3    0    0 -0.75270903798E-01 -0.81312091130E-01  0.75043751232E-01  0.89011736851E+00  0.88000000000E+00 0. -1.
        -11    1    4    4    0    0  0.11156556868E-01  0.14914686263E-02 -0.13569852273E-01  0.17637892490E-01  0.51100000000E-03 0. -1.
         11    1    4    4    0    0  0.68784056846E-01  0.55814684061E-01 -0.67043265862E-01  0.11109269126E+00  0.51100000000E-03 0.  1.
</event>
<event>
 8    1  0.1086486E+005  0.1043930E+01  0.7957747E-01            NaN
         13   -1    0    0    0    0  0.00000000000E+00  0.00000000000E+00  0.74505805969E-08  0.10566000000E+00  0.10566000000E+00 0. -1.
     999900   -1    0    0    0    0 -0.00000000000E+00 -0.00000000000E+00 -0.74505805969E-08  0.93827000000E+00  0.93827000000E+00 0.  1.
     999902    2    1    2    0    0 -0.17567706917E-01 -0.68650095677E-03  0.15995597086E-01  0.10201612235E+01  0.10198842911E+01 0.  0.
     999903    2    3    3    0    0 -0.69725949455E-01 -0.64978792764E-02  0.11238103292E+00  0.13334421497E+00  0.15724269241E-01 0.  0.
         14    1    1    2    0    0  0.17567706917E-01  0.68650095677E-03 -0.15995597086E-01  0.23768776494E-01  0.00000000000E+00 0.  1.
     999901    1    3    3    0    0  0.52158242538E-01  0.58113783197E-02 -0.96385435837E-01  0.88681700853E+00  0.88000000000E+00 0. -1.
        -11    1    4    4    0    0 -0.43956664371E-01  0.26024890507E-02  0.62346098155E-01  0.76329931010E-01  0.51100000000E-03 0.  1.
         11    1    4    4    0    0 -0.25769285084E-01 -0.91003683272E-02  0.50034934769E-01  0.57014283962E-01  0.51100000000E-03 0. -1.
</event>
<event>
 8    1  0.1086486E+005  0.1043930E+01  0.7957747E-01            NaN
         13   -1    0    0    0    0  0.00000000000E+00  0.00000000000E+00  0.74505805969E-08  0.10566000000E+00  0.10566000000E+00 0. -1.
     999900   -1    0    0    0    0 -0.00000000000E+00 -0.00000000000E+00 -0.74505805969E-08  0.93827000000E+00  0.93827000000E+00 0.  1.
     999902    2    1    2    0    0  0.21242071241E-01 -0.94214763979E-02 -0.45495648795E-02  0.10202511413E+01  0.10199763247E+01 0.  0.
     999903    2    3    3    0    0  0.12452117114E+00  0.13538767951E-01 -0.40731005364E-01  0.13317569811E+00  0.19695975945E-01 0.  0.
         14    1    1    2    0    0 -0.21242071241E-01  0.94214763979E-02  0.45495648795E-02  0.23678858687E-01  0.00000000000E+00 0.  1.
     999901    1    3    3    0    0 -0.10327909990E+00 -0.22960244349E-01  0.36181440485E-01  0.88707544320E+00  0.88000000000E+00 0.  1.
        -11    1    4    4    0    0  0.84323998314E-01  0.37928203675E-02 -0.35146307102E-01  0.91435475620E-01  0.51100000000E-03 0. -1.
         11    1    4    4    0    0  0.40197172831E-01  0.97459475838E-02 -0.55846982625E-02  0.41740222491E-01  0.51100000000E-03 0.  1.
</event>
<event>
 8    1  0.1086486E+005  0.1043930E+01  0.7957747E-01            NaN
         13   -1    0    0    0    0  0.00000000000E+00  0.00000000000E+00  0.74505805969E-08  0.10566000000E+00  0.10566000000E+00 0. -1.
     999900   -1    0    0    0    0 -0.00000000000E+00 -0.00000000000E+00 -0.74505805969E-08  0.93827000000E+00  0.93827000000E+00 0.  1.
     999902    2    1    2    0    0  0.12430464747E-01 -0.61809607900E-02 -0.19083614515E-01  0.10203311637E+01  0.10200582231E+01 0.  0.
     999903    2    3    3    0    0  0.77961795935E-01  0.53169857427E-01 -0.91614187755E-01  0.13293184041E+00  0.19303870892E-01 0.  0.
         14    1    1    2    0    0 -0.12430464747E-01  0.61809607900E-02  0.19083614515E-01  0.23598836265E-01  0.00000000000E+00 0. -1.
     999901    1    3    3    0    0 -0.65531331188E-01 -0.59350818217E-01  0.72530573241E-01  0.88739932333E+00  0.88000000000E+00 0. -1.
        -11    1    4    4    0    0  0.16275701153E-01  0.25026261442E-02 -0.16634993484E-01  0.23412511930E-01  0.51100000000E-03 0.  1.
         11    1    4    4    0    0  0.61686094782E-01  0.50667231283E-01 -0.74979194271E-01  0.10951932848E+00  0.51100000000E-03 0. -1.
</event>
<event>
 7    1  0.1086486E+005  0.1043930E+01  0.7957747E-01            NaN
         13   -1    0    0    0    0  0.00000000000E+00  0.00000000000E+00  0.74505805969E-08  0.10566000000E+00  0.10566000000E+00 0.  1.
     999900   -1    0    0    0    0 -0.00000000000E+00 -0.00000000000E+00 -0.74505805969E-08  0.93827000000E+00  0.93827000000E+00 0. -1.
     999903    2    1    2    0    0 -0.29004538011E-01  0.45298998177E-01  0.91402329060E-01  0.10759307075E+00  0.18127897165E-01 0.  0.
         14    1    1    2    0    0  0.12633882487E-01  0.18950848762E-02  0.42886783542E-01  0.44749106538E-01  0.00000000000E+00 0.  1.
     999901    1    1    2    0    0  0.16370655525E-01 -0.47194083053E-01 -0.13428911260E+00  0.89158782271E+00  0.88000000000E+00 0. -1.
        -11    1    3    3    0    0 -0.23474679431E-01  0.43221225360E-01  0.71196226275E-01  0.86534956248E-01  0.51100000000E-03 0.  1.
         11    1    3    3    0    0 -0.55298585801E-02  0.20777728165E-02  0.20206102785E-01  0.21058114506E-01  0.51100000000E-03 0. -1.
</event>
<event>
 8    1  0.1086486E+005  0.1043930E+01  0.7957747E-01            NaN
         13   -1    0    0    0    0  0.00000000000E+00  0.00000000000E+00  0.74505805969E-08  0.10566000000E+00  0.10566000000E+00 0.  1.
     999900   -1    0    0    0    0 -0.00000000000E+00 -0.00000000000E+00 -0.74505805969E-08  0.93827000000E+00  0.93827000000E+00 0. -1.
     999902    2    1    2    0    0  0.13374105653E-01 -0.13630292899E-01  0.14017175651E-01  0.10202417582E+01  0.10199667212E+01 0.  0.
     999903    2    3    3    0    0 -0.11714167493E-01  0.11611167668E+00 -0.49039724529E-01  0.12814390886E+00  0.19920432098E-01 0.  0.
         14    1    1    2    0    0 -0.13374105653E-01  0.13630292899E-01 -0.14017175651E-01  0.23688241804E-01  0.00000000000E+00 0.  1.
     999901    1    3    3    0    0  0.25088273146E-01 -0.12974196958E+00  0.63056900180E-01  0.89209784933E+00  0.88000000000E+00 0. -1.
        -11    1    4    4    0    0 -0.75800325445E-02  0.12551353632E-01 -0.75924224386E-02  0.16519666184E-01  0.51100000000E-03 0. -1.
         11    1    4    4    0    0 -0.41341349481E-02  0.10356032305E+00 -0.41447302090E-01  0.11162424268E+00  0.51100000000E-03 0.  1.
</event>
<event>
 8    1  0.1086486E+005  0.1043930E+01  0.7957747E-01            NaN
         13   -1    0    0    0    0  0.00000000000E+00  0.00000000000E+00  0.74505805969E-08  0.10566000000E+00  0.10566000000E+00 0.  1.
     999900   -1    0    0    0    0 -0.00000000000E+00 -0.00000000000E+00 -0.74505805969E-08  0.93827000000E+00  0.93827000000E+00 0. -1.
     999902    2    1    2    0    0  0.45529528558E-02 -0.80791824403E-02  0.22310378528E-01  0.10197689661E+01  0.10194827064E+01 0.  0.
     999903    2    3    3    0    0 -0.25086524805E-01  0.10830566797E+00 -0.59164964324E-01  0.12788211032E+00  0.22223629170E-01 0.  0.
         14    1    1    2    0    0 -0.45529528558E-02  0.80791824403E-02 -0.22310378528E-01  0.24161033891E-01  0.00000000000E+00 0. -1.
     999901    1    3    3    0    0  0.29639477661E-01 -0.11638485041E+00  0.81475342853E-01  0.89188685579E+00  0.88000000000E+00 0.  1.
        -11    1    4    4    0    0 -0.17816733059E-01  0.79312659270E-01 -0.31594478363E-01  0.87214712528E-01  0.51100000000E-03 0. -1.
         11    1    4    4    0    0 -0.72697917462E-02  0.28993008704E-01 -0.27570485961E-01  0.40667397788E-01  0.51100000000E-03 0.  1.
</event>
<event>
 8    1  0.1086486E+005  0.1043930E+01  0.7957747E-01            NaN
         13   -1    0    0    0    0  0.00000000000E+00  0.00000000000E+00  0.74505805969E-08  0.10566000000E+00  0.10566000000E+00 0. -1.
     999900   -1    0    0    0    0 -0.00000000000E+00 -0.00000000000E+00 -0.74505805969E-08  0.93827000000E+00  0.93827000000E+00 0.  1.
     999902    2    1    2    0    0  0.22453439912E-01 -0.43755709594E-02  0.68812158671E-02  0.10200416406E+01  0.10197618814E+01 0.  0.
     999903    2    3    3    0    0  0.13045549250E+00  0.87504991276E-02  0.12621251720E-01  0.13332314797E+00  0.22815762772E-01 0.  0.
         14    1    1    2    0    0 -0.22453439912E-01  0.43755709594E-02 -0.68812158671E-02  0.23888359444E-01  0.00000000000E+00 0. -1.
     999901    1    3    3    0    0 -0.10800205259E+00 -0.13126070087E-01 -0.57400358529E-02  0.88671849258E+00  0.88000000000E+00 0.  1.
        -11    1    4    4    0    0  0.32494237091E-01  0.22393840548E-02 -0.67103759418E-02  0.33259292706E-01  0.51100000000E-03 0. -1.
         11    1    4    4    0    0  0.97961255413E-01  0.65111150728E-02  0.19331627662E-01  0.10006385527E+00  0.51100000000E-03 0.  1.
</event>
<event>
 8    1  0.1086486E+005  0.1043930E+01  0.7957747E-01            NaN
         13   -1    0    0    0    0  0.00000000000E+00  0.00000000000E+00  0.74505805969E-08  0.10566000000E+00  0.10566000000E+00 0.  1.
     999900   -1    0    0    0    0 -0.00000000000E+00 -0.00000000000E+00 -0.74505805969E-08  0.93827000000E+00  0.93827000000E+00 0.  1.
     999902    2    1    2    0    0 -0.12269154566E-01 -0.94689633428E-02 -0.17844527518E-01  0.10202948443E+01  0.10200210531E+01 0.  0.
     999903    2    3    3    0    0  0.62341148148E-01 -0.40242974262E-01  0.10278740886E+00  0.12840594931E+00  0.20418635285E-01 0.  0.
         14    1    1    2    0    0  0.12269154566E-01  0.94689633428E-02  0.17844527518E-01  0.23635155656E-01  0.00000000000E+00 0.  1.
     999901    1    3    3    0    0 -0.74610302713E-01  0.30774010920E-01 -0.12063193638E+00  0.89188889504E+00  0.88000000000E+00 0. -1.
        -11    1    4    4    0    0  0.31048914919E-01 -0.25331061167E-01  0.70165681654E-01  0.80803352532E-01  0.51100000000E-03 0. -1.
         11    1    4    4    0    0  0.31292233229E-01 -0.14911913095E-01  0.32621727206E-01  0.47602596773E-01  0.51100000000E-03 0.  1.
</event>
<event>
 8    1  0.1086486E+005  0.1043930E+01  0.7957747E-01            NaN
         13   -1    0    0    0    0  0.00000000000E+00  0.00000000000E+00  0.74505805969E-08  0.10566000000E+00  0.10566000000E+00 0.  1.
     999900   -1    0    0    0    0 -0.00000000000E+00 -0.00000000000E+00 -0.74505805969E-08  0.93827000000E+00  0.93827000000E+00 0.  1.
     999902    2    1    2    0    0  0.94151320607E-03 -0.26147107908E-02  0.22875730667E-01  0.10208860808E+01  0.10206259686E+01 0.  0.
     999903    2    3    3    0    0 -0.45124051421E-01  0.10685127409E+00 -0.53772251994E-01  0.12960624182E+00  0.21282576038E-01 0.  0.
         14    1    1    2    0    0 -0.94151320607E-03  0.26147107908E-02 -0.22875730667E-01  0.23043919223E-01  0.00000000000E+00 0. -1.
     999901    1    3    3    0    0  0.46065564627E-01 -0.10946598488E+00  0.76647982661E-01  0.89127983896E+00  0.88000000000E+00 0. -1.
        -11    1    4    4    0    0 -0.83854863188E-02  0.46565746116E-01 -0.20847893860E-01  0.51706681305E-01  0.51100000000E-03 0. -1.
         11    1    4    4    0    0 -0.36738565102E-01  0.60285527971E-01 -0.32924358134E-01  0.77899560512E-01  0.51100000000E-03 0.  1.
</event>
<event>
 8    1  0.1086486E+005  0.1043930E+01  0.7957747E-01            NaN
         13   -1    0    0    0    0  0.00000000000E+00  0.00000000000E+00  0.74505805969E-08  0.10566000000E+00  0.10566000000E+00 0. -1.
     999900   -1    0    0    0    0 -0.00000000000E+00 -0.00000000000E+00 -0.74505805969E-08  0.93827000000E+00  0.93827000000E+00 0.  1.
     999902    2    1    2    0    0 -0.22366676106E-01  0.40442631874E-03 -0.26404893561E-02  0.10214043714E+01  0.10211559557E+01 0.  0.
     999903    2    3    3    0    0  0.91834858924E-01 -0.28602513236E-01  0.84207511719E-01  0.12931358652E+00  0.19477000576E-01 0.  0.
         14    1    1    2    0    0  0.22366676106E-01 -0.40442631874E-03  0.26404893561E-02  0.22525628619E-01  0.00000000000E+00 0.  1.
     999901    1    3    3    0    0 -0.11420153503E+00  0.29006939554E-01 -0.86848001075E-01  0.89209078486E+00  0.88000000000E+00 0.  1.
        -11    1    4    4    0    0  0.52026432931E-01 -0.15854189547E-01  0.60097928949E-01  0.81056321374E-01  0.51100000000E-03 0. -1.
         11    1    4    4    0    0  0.39808425992E-01 -0.12748323689E-01  0.24109582770E-01  0.48257265144E-01  0.51100000000E-03 0.  1.
</event>
<event>
 8    1  0.1086486E+005  0.1043930E+01  0.7957747E-01            NaN
         13   -1    0    0    0    0  0.00000000000E+00  0.00000000000E+00  0.74505805969E-08  0.10566000000E+00  0.10566000000E+00 0.  1.
     999900   -1    0    0    0    0 -0.00000000000E+00 -0.00000000000E+00 -0.74505805969E-08  0.93827000000E+00  0.93827000000E+00 0.  1.
     999902    2    1    2    0    0  0.13660976462E-01 -0.20477201266E-01  0.48313538111E-02  0.10188445455E+01  0.10185356782E+01 0.  0.
     999903    2    3    3    0    0  0.21755701485E-01 -0.12628102502E+00 -0.24575103145E-01  0.13198225999E+00  0.19878969510E-01 0.  0.
         14    1    1    2    0    0 -0.13660976462E-01  0.20477201266E-01 -0.48313538111E-02  0.25085454535E-01  0.00000000000E+00 0. -1.
     999901    1    3    3    0    0 -0.80947250235E-02  0.10580382376E+00  0.29406456956E-01  0.88686228548E+00  0.88000000000E+00 0.  1.
        -11    1    4    4    0    0  0.25558647057E-01 -0.10679402687E+00 -0.20554356211E-01  0.11171817799E+00  0.51100000000E-03 0. -1.
         11    1    4    4    0    0 -0.38029455718E-02 -0.19486998157E-01 -0.40207469343E-02  0.20264081995E-01  0.51100000000E-03 0.  1.
</event>
<event>
 8    1  0.1086486E+005  0.1043930E+01  0.7957747E-01            NaN
         13   -1    0    0    0    0  0.00000000000E+00  0.00000000000E+00  0.74505805969E-08  0.10566000000E+00  0.10566000000E+00 0. -1.
     999900   -1    0    0    0    0 -0.00000000000E+00 -0.00000000000E+00 -0.74505805969E-08  0.93827000000E+00  0.93827000000E+00 0. -1.
     999902    2    1    2    0    0 -0.10417944275E-01  0.17151547038E-01 -0.44749680373E-02  0.10233694925E+01  0.10231629312E+01 0.  0.
     999903    2    3    3    0    0  0.87861749555E-01  0.66032022295E-01  0.72069279044E-01  0.13325308393E+00  0.21965618422E-01 0.  0.
         14    1    1    2    0    0  0.10417944275E-01 -0.17151547038E-01  0.44749680373E-02  0.20560507475E-01  0.00000000000E+00 0.  1.
     999901    1    3    3    0    0 -0.98279693830E-01 -0.48880475258E-01 -0.76544247082E-01  0.89011640859E+00  0.88000000000E+00 0.  1.
        -11    1    4    4    0    0  0.32172029202E-01  0.37407441471E-01  0.28677381123E-01  0.57070215082E-01  0.51100000000E-03 0.  1.
         11    1    4    4    0    0  0.55689720353E-01  0.28624580824E-01  0.43391897921E-01  0.76182868852E-01  0.51100000000E-03 0. -1.
</event>
<event>
 8    1  0.1086486E+005  0.1043930E+01  0.7957747E-01            NaN
         13   -1    0    0    0    0  0.00000000000E+00  0.00000000000E+00  0.74505805969E-08  0.10566000000E+00  0.10566000000E+00 0. -1.
     999900   -1    0    0    0    0 -0.00000000000E+00 -0.00000000000E+00 -0.74505805969E-08  0.93827000000E+00  0.93827000000E+00 0. -1.
     999902    2    1    2    0    0 -0.15817329211E-01  0.17637583831E-01 -0.98830808522E-03  0.10202182093E+01  0.10199426187E+01 0.  0.
     999903    2    3    3    0    0 -0.42412789064E-01  0.18154663429E-01  0.12123934786E+00  0.13137222389E+00  0.20766445495E-01 0.  0.
         14    1    1    2    0    0  0.15817329211E-01 -0.17637583831E-01  0.98830808522E-03  0.23711790730E-01  0.00000000000E+00 0. -1.
     999901    1    3    3    0    0  0.26595459853E-01 -0.51707959757E-03 -0.12222765595E+00  0.88884598538E+00  0.88000000000E+00 0. -1.
        -11    1    4    4    0    0 -0.25565564346E-02  0.74887892891E-02  0.33340019138E-01  0.34270044397E-01  0.51100000000E-03 0. -1.
         11    1    4    4    0    0 -0.39856232629E-01  0.10665874139E-01  0.87899328723E-01  0.97102179489E-01  0.51100000000E-03 0.  1.
</event>
<event>
 8    1  0.1086486E+005  0.1043930E+01  0.7957747E-01            NaN
         13   -1    0    0    0    0  0.00000000000E+00  0.00000000000E+00  0.74505805969E-08  0.10566000000E+00  0.10566000000E+00 0. -1.
     999900   -1    0    0    0    0 -0.00000000000E+00 -0.00000000000E+00 -0.74505805969E-08  0.93827000000E+00  0.93827000000E+00 0. -1.
     999902    2    1    2    0    0 -0.16405776164E-01  0.89512885931E-02  0.14493910757E-01  0.10202794502E+01  0.10200052980E+01 0.  0.
     999903    2    3    3    0    0  0.88914723754E-01  0.35823426189E-01  0.86437755650E-01  0.13067817076E+00  0.20399822230E-01 0.  0.
         14    1    1    2    0    0  0.16405776164E-01 -0.89512885931E-02 -0.14493910757E-01  0.23650549847E-01  0.00000000000E+00 0.  1.
     999901    1    3    3    0    0 -0.10532049992E+00 -0.26872137596E-01 -0.71943844893E-01  0.88960127939E+00  0.88000000000E+00 0. -1.
        -11    1    4    4    0    0  0.10298756696E-01 -0.17304372696E-02  0.13339143667E-01  0.16948530243E-01  0.51100000000E-03 0.  1.
         11    1    4    4    0    0  0.78615967057E-01  0.37553863459E-01  0.73098611983E-01  0.11372964052E+00  0.51100000000E-03 0. -1.
</event>
<event>
 8    1  0.1086486E+005  0.1043930E+01  0.7957747E-01            NaN
         13   -1    0    0    0    0  0.00000000000E+00  0.00000000000E+00  0.74505805969E-08  0.10566000000E+00  0.10566000000E+00 0. -1.
     999900   -1    0    0    0    0 -0.00000000000E+00 -0.00000000000E+00 -0.74505805969E-08  0.93827000000E+00  0.93827000000E+00 0.  1.
     999902    2    1    2    0    0  0.21456038401E-01  0.61482722156E-02  0.80490601625E-02  0.10202034283E+01  0.10199274900E+01 0.  0.
     999903    2    3    3    0    0 -0.25439514323E-01  0.31882593303E-01  0.12333984723E+00  0.13107272153E+00  0.17426180549E-01 0.  0.
         14    1    1    2    0    0 -0.21456038401E-01 -0.61482722156E-02 -0.80490601625E-02  0.23726571699E-01  0.00000000000E+00 0.  1.
     999901    1    3    3    0    0  0.46895552724E-01 -0.25734321088E-01 -0.11529078707E+00  0.88913070677E+00  0.88000000000E+00 0.  1.
        -11    1    4    4    0    0 -0.16506278624E-02  0.87368029144E-03  0.27514148678E-01  0.27582193315E-01  0.51100000000E-03 0.  1.
         11    1    4    4    0    0 -0.23788886460E-01  0.31008913012E-01  0.95825698552E-01  0.10349052821E+00  0.51100000000E-03 0. -1.
</event>
<event>
 8    1  0.1086486E+005  0.1043930E+01  0.7957747E-01            NaN
         13   -1    0    0    0    0  0.00000000000E+00  0.00000000000E+00  0.74505805969E-08  0.10566000000E+00  0.10566000000E+00 0.  1.
     999900   -1    0    0    0    0 -0.00000000000E+00 -0.00000000000E+00 -0.74505805969E-08  0.93827000000E+00  0.93827000000E+00 0. -1.
     999902    2    1    2    0    0 -0.95640469090E-02 -0.19145364041E-01 -0.10552973294E-01  0.10200682900E+01  0.10197891621E+01 0.  0.
     999903    2    3    3    0    0  0.78305762190E-01 -0.99707890532E-01  0.27440727201E-01  0.13121793968E+00  0.19791370828E-01 0.  0.
         14    1    1    2    0    0  0.95640469090E-02  0.19145364041E-01  0.10552973294E-01  0.23861709974E-01  0.00000000000E+00 0.  1.
     999901    1    3    3    0    0 -0.87869809099E-01  0.80562526491E-01 -0.37993700495E-01  0.88885035034E+00  0.88000000000E+00 0.  1.
        -11    1    4    4    0    0  0.48837691991E-01 -0.57302567710E-01  0.25662882386E-01  0.79545892908E-01  0.51100000000E-03 0.  1.
         11    1    4    4    0    0  0.29468070199E-01 -0.42405322822E-01  0.17778448146E-02  0.51672046777E-01  0.51100000000E-03 0. -1.
</event>
<event>
 8    1  0.1086486E+005  0.1043930E+01  0.7957747E-01            NaN
         13   -1    0    0    0    0  0.00000000000E+00  0.00000000000E+00  0.74505805969E-08  0.10566000000E+00  0.10566000000E+00 0.  1.
     999900   -1    0    0    0    0 -0.00000000000E+00 -0.00000000000E+00 -0.74505805969E-08  0.93827000000E+00  0.93827000000E+00 0.  1.
     999902    2    1    2    0    0  0.93562348872E-02 -0.10321005876E-01  0.19374629861E-01  0.10200670879E+01  0.10197879315E+01 0.  0.
     999903    2    3    3    0    0 -0.67807316182E-01 -0.49685194384E-01 -0.95408855912E-01  0.12839506208E+00  0.17776150075E-01 0.  0.
         14    1    1    2    0    0 -0.93562348872E-02  0.10321005876E-01 -0.19374629861E-01  0.23862912140E-01  0.00000000000E+00 0. -1.
     999901    1    3    3    0    0  0.77163551069E-01  0.39364188508E-01  0.11478348577E+00  0.89167202578E+00  0.88000000000E+00 0. -1.
        -11    1    4    4    0    0 -0.48580308448E-01 -0.40206221711E-01 -0.60276246212E-01  0.87235735863E-01  0.51100000000E-03 0. -1.
         11    1    4    4    0    0 -0.19227007734E-01 -0.94789726726E-02 -0.35132609701E-01  0.41159326218E-01  0.51100000000E-03 0.  1.
</event>
<event>
 8    1  0.1086486E+005  0.1043930E+01  0.7957747E-01            NaN
         13   -1    0    0    0    0  0.00000000000E+00  0.00000000000E+00  0.74505805969E-08  0.10566000000E+00  0.10566000000E+00 0. -1.
     999900   -1    0    0    0    0 -0.00000000000E+00 -0.00000000000E+00 -0.74505805969E-08  0.93827000000E+00  0.93827000000E+00 0.  1.
     999902    2    1    2    0    0 -0.22367063935E-01 -0.74235106857E-02  0.38899679725E-02  0.10200443158E+01  0.10197646200E+01 0.  0.
     999903    2    3    3    0    0  0.11532024579E+00  0.46931718051E-01 -0.17739763547E-01  0.12741890082E+00  0.20482476094E-01 0.  0.
         14    1    1    2    0    0  0.22367063935E-01  0.74235106857E-02 -0.38899679725E-02  0.23885684223E-01  0.00000000000E+00 0.  1.
     999901    1    3    3    0    0 -0.13768730972E+00 -0.54355228736E-01  0.21629731519E-01  0.89262541496E+00  0.88000000000E+00 0.  1.
        -11    1    4    4    0    0  0.50442939969E-01  0.27694487810E-01 -0.15978378354E-01  0.59724739795E-01  0.51100000000E-03 0. -1.
         11    1    4    4    0    0  0.64877305818E-01  0.19237230241E-01 -0.17613851927E-02  0.67694161021E-01  0.51100000000E-03 0.  1.
</event>
<event>
 8    1  0.1086486E+005  0.1043930E+01  0.7957747E-01            NaN
         13   -1    0    0    0    0  0.00000000000E+00  0.00000000000E+00  0.74505805969E-08  0.10566000000E+00  0.10566000000E+00 0. -1.
     999900   -1    0    0    0    0 -0.00000000000E+00 -0.00000000000E+00 -0.74505805969E-08  0.93827000000E+00  0.93827000000E+00 0. -1.
     999902    2    1    2    0    0  0.13206152153E-01 -0.99232136643E-03  0.19831737867E-01  0.10200828831E+01  0.10198041005E+01 0.  0.
     999903    2    3    3    0    0 -0.64721382903E-02 -0.31757754805E-01 -0.12211272087E+00  0.12796070742E+00  0.20297351578E-01 0.  0.
         14    1    1    2    0    0 -0.13206152153E-01  0.99232136643E-03 -0.19831737867E-01  0.23847116874E-01  0.00000000000E+00 0.  1.
     999901    1    3    3    0    0  0.19678290443E-01  0.30765433439E-01  0.14194445874E+00  0.89212217570E+00  0.88000000000E+00 0.  1.
        -11    1    4    4    0    0  0.48377349793E-02 -0.18103515954E-01 -0.43419825420E-01  0.47293586565E-01  0.51100000000E-03 0.  1.
         11    1    4    4    0    0 -0.11309873270E-01 -0.13654238851E-01 -0.78692895454E-01  0.80667120860E-01  0.51100000000E-03 0. -1.
</event>
<event>
 8    1  0.1086486E+005  0.1043930E+01  0.7957747E-01            NaN
         13   -1    0    0    0    0  0.00000000000E+00  0.00000000000E+00  0.74505805969E-08  0.10566000000E+00  0.10566000000E+00 0.  1.
     999900   -1    0    0    0    0 -0.00000000000E+00 -0.00000000000E+00 -0.74505805969E-08  0.93827000000E+00  0.93827000000E+00 0. -1.
     999902    2    1    2    0    0 -0.14415469794E-01  0.19119688425E-01 -0.44863518015E-02  0.10195682347E+01  0.10192771407E+01 0.  0.
     999903    2    3    3    0    0  0.76744306497E-02  0.10313341503E+00  0.76387683119E-01  0.13160039776E+00  0.28074692799E-01 0.  0.
         14    1    1    2    0    0  0.14415469794E-01 -0.19119688425E-01  0.44863518015E-02  0.24361765275E-01  0.00000000000E+00 0. -1.
     999901    1    3    3    0    0 -0.22089900444E-01 -0.84013726609E-01 -0.80874034921E-01  0.88796783697E+00  0.88000000000E+00 0. -1.
        -11    1    4    4    0    0  0.57578274727E-02  0.93860875614E-01  0.56860437667E-01  0.10989261595E+00  0.51100000000E-03 0. -1.
         11    1    4    4    0    0  0.19166031770E-02  0.92725394205E-02  0.19527245452E-01  0.21707781807E-01  0.51100000000E-03 0.  1.
</event>
<event>
 8    1  0.1086486E+005  0.1043930E+01  0.7957747E-01            NaN
         13   -1    0    0    0    0  0.00000000000E+00  0.00000000000E+00  0.74505805969E-08  0.10566000000E+00  0.10566000000E+00 0. -1.
     999900   -1    0    0    0    0 -0.00000000000E+00 -0.00000000000E+00 -0.74505805969E-08  0.93827000000E+00  0.93827000000E+00 0. -1.
     999902    2    1    2    0    0 -0.13203333027E-01 -0.10658557063E-02  0.20410636337E-01  0.10195977554E+01  0.10193073750E+01 0.  0.
     999903    2    3    3    0    0  0.60197110804E-01 -0.10781626336E+00  0.35340010953E-01  0.12998763804E+00  0.19995771463E-01 0.  0.
         14    1    1    2    0    0  0.13203333027E-01  0.10658557063E-02 -0.20410636337E-01  0.24332244596E-01  0.00000000000E+00 0.  1.
     999901    1    3    3    0    0 -0.73400443831E-01  0.10675040765E+00 -0.14929374616E-01  0.88961011736E+00  0.88000000000E+00 0.  1.
        -11    1    4    4    0    0  0.46155432945E-01 -0.76293247441E-01  0.34053351229E-01  0.95450905948E-01  0.51100000000E-03 0.  1.
         11    1    4    4    0    0  0.14041677859E-01 -0.31523015914E-01  0.12866597237E-02  0.34536732093E-01  0.51100000000E-03 0. -1.
</event>
<event>
 8    1  0.1086486E+005  0.1043930E+01  0.7957747E-01            NaN
         13   -1    0    0    0    0  0.00000000000E+00  0.00000000000E+00  0.74505805969E-08  0.10566000000E+00  0.10566000000E+00 0. -1.
     999900   -1    0    0    0    0 -0.00000000000E+00 -0.00000000000E+00 -0.74505805969E-08  0.93827000000E+00  0.93827000000E+00 0. -1.
     999902    2    1    2    0    0  0.20489986630E-01  0.13652468297E-01 -0.11901045423E-01  0.10165828918E+01  0.10162149928E+01 0.  0.
     999903    2    3    3    0    0 -0.80636260615E-01 -0.86404963471E-01 -0.35529584643E-01  0.12484508542E+00  0.18865834979E-01 0.  0.
         14    1    1    2    0    0 -0.20489986630E-01 -0.13652468297E-01  0.11901045423E-01  0.27347108163E-01  0.00000000000E+00 0. -1.
     999901    1    3    3    0    0  0.10112624724E+00  0.10005743177E+00  0.23628539220E-01  0.89173780642E+00  0.88000000000E+00 0.  1.
        -11    1    4    4    0    0 -0.47385955949E-01 -0.43196247139E-01 -0.11003443054E-01  0.65059061384E-01  0.51100000000E-03 0. -1.
         11    1    4    4    0    0 -0.33250304665E-01 -0.43208716332E-01 -0.24526141589E-01  0.59786024033E-01  0.51100000000E-03 0.  1.
</event>
<event>
 8    1  0.1086486E+005  0.1043930E+01  0.7957747E-01            NaN
         13   -1    0    0    0    0  0.00000000000E+00  0.00000000000E+00  0.74505805969E-08  0.10566000000E+00  0.10566000000E+00 0. -1.
     999900   -1    0    0    0    0 -0.00000000000E+00 -0.00000000000E+00 -0.74505805969E-08  0.93827000000E+00  0.93827000000E+00 0. -1.
     999902    2    1    2    0    0  0.18512731907E-01  0.15033124815E-01  0.33454596732E-02  0.10198487171E+01  0.10195643666E+01 0.  0.
     999903    2    3    3    0    0 -0.45124638006E-02 -0.55832826677E-02  0.12864715787E+00  0.13043558957E+00  0.20293260552E-01 0.  0.
         14    1    1    2    0    0 -0.18512731907E-01 -0.15033124815E-01 -0.33454596732E-02  0.24081282873E-01  0.00000000000E+00 0.  1.
     999901    1    3    3    0    0  0.23025195708E-01  0.20616407482E-01 -0.12530169820E+00  0.88941312755E+00  0.88000000000E+00 0. -1.
        -11    1    4    4    0    0 -0.86924701246E-02 -0.10072708847E-01  0.10990386468E+00  0.11070744822E+00  0.51100000000E-03 0.  1.
         11    1    4    4    0    0  0.41800063240E-02  0.44894261790E-02  0.18743293194E-01  0.19728141348E-01  0.51100000000E-03 0. -1.
</event>
<event>
 8    1  0.1086486E+005  0.1043930E+01  0.7957747E-01            NaN
         13   -1    0    0    0    0  0.00000000000E+00  0.00000000000E+00  0.74505805969E-08  0.10566000000E+00  0.10566000000E+00 0.  1.
     999900   -1    0    0    0    0 -0.00000000000E+00 -0.00000000000E+00 -0.74505805969E-08  0.93827000000E+00  0.93827000000E+00 0. -1.
     999902    2    1    2    0    0  0.12673940233E-01  0.28595995930E-03 -0.18389502260E-01  0.10215942814E+01  0.10213500827E+01 0.  0.
     999903    2    3    3    0    0 -0.77325443923E-01  0.86165760261E-01  0.55926923100E-01  0.12974330707E+00  0.17370736401E-01 0.  0.
         14    1    1    2    0    0 -0.12673940233E-01 -0.28595995930E-03  0.18389502260E-01  0.22335718648E-01  0.00000000000E+00 0. -1.
     999901    1    3    3    0    0  0.89999384155E-01 -0.85879800302E-01 -0.74316425360E-01  0.89185097428E+00  0.88000000000E+00 0. -1.
        -11    1    4    4    0    0 -0.52460288385E-01  0.62212538401E-01  0.47393916836E-01  0.94174976856E-01  0.51100000000E-03 0.  1.
         11    1    4    4    0    0 -0.24865155538E-01  0.23953221860E-01  0.85330062633E-02  0.35568330215E-01  0.51100000000E-03 0. -1.
</event>
<event>
 8    1  0.1086486E+005  0.1043930E+01  0.7957747E-01            NaN
         13   -1    0    0    0    0  0.00000000000E+00  0.00000000000E+00  0.74505805969E-08  0.10566000000E+00  0.10566000000E+00 0.  1.
     999900   -1    0    0    0    0 -0.00000000000E+00 -0.00000000000E+00 -0.74505805969E-08  0.93827000000E+00  0.93827000000E+00 0.  1.
     999902    2    1    2    0    0 -0.18875856399E-01 -0.16833463948E-01  0.51801766871E-02  0.10181133834E+01  0.10177860108E+01 0.  0.
     999903    2    3    3    0    0 -0.14772957942E-01  0.52071569241E-01  0.11468227099E+00  0.12864418997E+00  0.21624424247E-01 0.  0.
         14    1    1    2    0    0  0.18875856399E-01  0.16833463948E-01 -0.51801766871E-02  0.25816616621E-01  0.00000000000E+00 0. -1.
     999901    1    3    3    0    0 -0.41028984567E-02 -0.68905033189E-01 -0.10950209430E+00  0.88946919341E+00  0.88000000000E+00 0.  1.
        -11    1    4    4    0    0 -0.15932743794E-01  0.28952169680E-01  0.83518809632E-01  0.89820560772E-01  0.51100000000E-03 0. -1.
         11    1    4    4    0    0  0.11597858524E-02  0.23119399560E-01  0.31163461353E-01  0.38823629194E-01  0.51100000000E-03 0.  1.
</event>
<event>
 8    1  0.1086486E+005  0.1043930E+01  0.7957747E-01            NaN
         13   -1    0    0    0    0  0.00000000000E+00  0.00000000000E+00  0.74505805969E-08  0.10566000000E+00  0.10566000000E+00 0. -1.
     999900   -1    0    0    0    0 -0.00000000000E+00 -0.00000000000E+00 -0.74505805969E-08  0.93827000000E+00  0.93827000000E+00 0. -1.
     999902    2    1    2    0    0  0.80408661125E-02 -0.16867969935E-01 -0.13641426079E-01  0.10207940444E+01  0.10205318263E+01 0.  0.
     999903    2    3    3    0    0  0.10929099779E-01  0.12362125561E+00  0.27560778188E-01  0.12869360943E+00  0.20019704096E-01 0.  0.
         14    1    1    2    0    0 -0.80408661125E-02  0.16867969935E-01  0.13641426079E-01  0.23135955632E-01  0.00000000000E+00 0. -1.
     999901    1    3    3    0    0 -0.28882336667E-02 -0.14048922554E+00 -0.41202204267E-01  0.89210043494E+00  0.88000000000E+00 0. -1.
        -11    1    4    4    0    0  0.25948453804E-02  0.10611972978E+00  0.20902971200E-01  0.10819115305E+00  0.51100000000E-03 0. -1.
         11    1    4    4    0    0  0.83342543988E-02  0.17501525829E-01  0.66578069878E-02  0.20502456380E-01  0.51100000000E-03 0.  1.
</event>
<event>
 8    1  0.1086486E+005  0.1043930E+01  0.7957747E-01            NaN
         13   -1    0    0    0    0  0.00000000000E+00  0.00000000000E+00  0.74505805969E-08  0.10566000000E+00  0.10566000000E+00 0.  1.
     999900   -1    0    0    0    0 -0.00000000000E+00 -0.00000000000E+00 -0.74505805969E-08  0.93827000000E+00  0.93827000000E+00 0. -1.
     999902    2    1    2    0    0 -0.35174608458E-02  0.45251202425E-02 -0.24365853358E-01  0.10188991380E+01  0.10185916303E+01 0.  0.
     999903    2    3    3    0    0  0.12201656784E+00 -0.18748258702E-01 -0.34472329846E-01  0.12962832242E+00  0.19380929203E-01 0.  0.
         14    1    1    2    0    0  0.35174608458E-02 -0.45251202425E-02  0.24365853358E-01  0.25030862028E-01  0.00000000000E+00 0.  1.
     999901    1    3    3    0    0 -0.12553402869E+00  0.23273378945E-01  0.10106476488E-01  0.88927081555E+00  0.88000000000E+00 0. -1.
        -11    1    4    4    0    0  0.10547063350E+00 -0.12485501055E-01 -0.23413223295E-01  0.10875836710E+00  0.51100000000E-03 0.  1.
         11    1    4    4    0    0  0.16545934341E-01 -0.62627576471E-02 -0.11059106551E-01  0.20869955325E-01  0.51100000000E-03 0. -1.
</event>
<event>
 8    1  0.1086486E+005  0.1043930E+01  0.7957747E-01            NaN
         13   -1    0    0    0    0  0.00000000000E+00  0.00000000000E+00  0.74505805969E-08  0.10566000000E+00  0.10566000000E+00 0. -1.
     999900   -1    0    0    0    0 -0.00000000000E+00 -0.00000000000E+00 -0.74505805969E-08  0.93827000000E+00  0.93827000000E+00 0. -1.
     999902    2    1    2    0    0 -0.39958644601E-02 -0.88206375027E-02 -0.21504513348E-01  0.10203457961E+01  0.10200731978E+01 0.  0.
     999903    2    3    3    0    0  0.10008439593E+00  0.72411176262E-01 -0.36448864266E-01  0.13037127861E+00  0.20196183428E-01 0.  0.
         14    1    1    2    0    0  0.39958644601E-02  0.88206375027E-02  0.21504513348E-01  0.23584203888E-01  0.00000000000E+00 0. -1.
     999901    1    3    3    0    0 -0.10408026039E+00 -0.81231813765E-01  0.14944350919E-01  0.88997451750E+00  0.88000000000E+00 0.  1.
        -11    1    4    4    0    0  0.68323854704E-01  0.59205810871E-01 -0.30795050547E-01  0.95509546234E-01  0.51100000000E-03 0. -1.
         11    1    4    4    0    0  0.31760541225E-01  0.13205365391E-01 -0.56538137190E-02  0.34861732381E-01  0.51100000000E-03 0.  1.
</event>
<event>
 8    1  0.1086486E+005  0.1043930E+01  0.7957747E-01            NaN
         13   -1    0    0    0    0  0.00000000000E+00  0.00000000000E+00  0.74505805969E-08  0.10566000000E+00  0.10566000000E+00 0.  1.
     999900   -1    0    0    0    0 -0.00000000000E+00 -0.00000000000E+00 -0.74505805969E-08  0.93827000000E+00  0.93827000000E+00 0. -1.
     999902    2    1    2    0    0  0.17080240428E-01  0.11275035000E-01 -0.12753129345E-01  0.10198156197E+01  0.10195304777E+01 0.  0.
     999903    2    3    3    0    0 -0.55639099054E-01  0.99367651385E-01 -0.61892287861E-01  0.13107321145E+00  0.19490817761E-01 0.  0.
         14    1    1    2    0    0 -0.17080240428E-01 -0.11275035000E-01  0.12753129345E-01  0.24114380262E-01  0.00000000000E+00 0.  1.
     999901    1    3    3    0    0  0.72719339482E-01 -0.88092616385E-01  0.49139158516E-01  0.88874240829E+00  0.88000000000E+00 0. -1.
        -11    1    4    4    0    0 -0.47946917253E-01  0.70100903717E-01 -0.41092581115E-01  0.94349906835E-01  0.51100000000E-03 0.  1.
         11    1    4    4    0    0 -0.76921818012E-02  0.29266747668E-01 -0.20799706746E-01  0.36723304612E-01  0.51100000000E-03 0. -1.
</event>
<event>
 8    1  0.1086486E+005  0.1043930E+01  0.7957747E-01            NaN
         13   -1    0    0    0    0  0.00000000000E+00  0.00000000000E+00  0.74505805969E-08  0.10566000000E+00  0.10566000000E+00 0.  1.
     999900   -1    0    0    0    0 -0.00000000000E+00 -0.00000000000E+00 -0.74505805969E-08  0.93827000000E+00  0.93827000000E+00 0. -1.
     999902    2    1    2    0    0  0.11392654678E-01  0.41736631122E-02 -0.19342096381E-01  0.10210973756E+01  0.10208420650E+01 0.  0.
     999903    2    3    3    0    0 -0.11267610489E+00 -0.59838050094E-01  0.99705152625E-02  0.12960997483E+00  0.20563014095E-01 0.  0.
         14    1    1    2    0    0 -0.11392654678E-01 -0.41736631122E-02  0.19342096381E-01  0.22832624396E-01  0.00000000000E+00 0.  1.
     999901    1    3    3    0    0  0.12406875957E+00  0.64011713207E-01 -0.29312611644E-01  0.89148740077E+00  0.88000000000E+00 0.  1.
        -11    1    4    4    0    0 -0.55431950201E-01 -0.21322804738E-01 -0.27182583146E-02  0.59455976607E-01  0.51100000000E-03 0. -1.
         11    1    4    4    0    0 -0.57244154693E-01 -0.38515245357E-01  0.12688773577E-01  0.70153998227E-01  0.51100000000E-03 0.  1.
</event>
<event>
 8    1  0.1086486E+005  0.1043930E+01  0.7957747E-01            NaN
         13   -1    0    0    0    0  0.00000000000E+00  0.00000000000E+00  0.74505805969E-08  0.10566000000E+00  0.10566000000E+00 0. -1.
     999900   -1    0    0    0    0 -0.00000000000E+00 -0.00000000000E+00 -0.74505805969E-08  0.93827000000E+00  0.93827000000E+00 0.  1.
     999902    2    1    2    0    0 -0.10367923847E-01 -0.52187557092E-02 -0.20663094507E-01  0.10202299424E+01  0.10199546277E+01 0.  0.
     999903    2    3    3    0    0 -0.57818610374E-01  0.85031079826E-01  0.75103819962E-01  0.12918117696E+00  0.21769622562E-01 0.  0.
         14    1    1    2    0    0  0.10367923847E-01  0.52187557092E-02  0.20663094507E-01  0.23700057608E-01  0.00000000000E+00 0. -1.
     999901    1    3    3    0    0  0.47450686527E-01 -0.90249835535E-01 -0.95766914469E-01  0.89104876543E+00  0.88000000000E+00 0.  1.
        -11    1    4    4    0    0 -0.53281081575E-01  0.62987031522E-01  0.56746244597E-01  0.10013309738E+00  0.51100000000E-03 0.  1.
         11    1    4    4    0    0 -0.45375287994E-02  0.22044048304E-01  0.18357575365E-01  0.29048079584E-01  0.51100000000E-03 0. -1.
</event>
<event>
 8    1  0.1086486E+005  0.1043930E+01  0.7957747E-01            NaN
         13   -1    0    0    0    0  0.00000000000E+00  0.00000000000E+00  0.74505805969E-08  0.10566000000E+00  0.10566000000E+00 0.  1.
     999900   -1    0    0    0    0 -0.00000000000E+00 -0.00000000000E+00 -0.74505805969E-08  0.93827000000E+00  0.93827000000E+00 0.  1.
     999902    2    1    2    0    0  0.69051991298E-02  0.22558811129E-01  0.35079885507E-03  0.10203354075E+01  0.10200625662E+01 0.  0.
     999903    2    3    3    0    0  0.83730816280E-01  0.29791961021E-01 -0.94953810823E-01  0.13183247419E+00  0.21567673140E-01 0.  0.
         14    1    1    2    0    0 -0.69051991298E-02 -0.22558811129E-01 -0.35079885507E-03  0.23594592482E-01  0.00000000000E+00 0.  1.
     999901    1    3    3    0    0 -0.76825617150E-01 -0.72331498923E-02  0.95304609678E-01  0.88850293333E+00  0.88000000000E+00 0. -1.
        -11    1    4    4    0    0  0.43064577044E-01  0.42866470616E-02 -0.41055591458E-01  0.59655308648E-01  0.51100000000E-03 0.  1.
         11    1    4    4    0    0  0.40666239236E-01  0.25505313959E-01 -0.53898219365E-01  0.72177165541E-01  0.51100000000E-03 0. -1.
</event>
<event>
 8    1  0.1677112E+005  0.1043930E+01  0.7957747E-01            NaN
         13   -1    0    0    0    0  0.00000000000E+00  0.00000000000E+00  0.74505805969E-08  0.10566000000E+00  0.10566000000E+00 0. -1.
     999900   -1    0    0    0    0 -0.00000000000E+00 -0.00000000000E+00 -0.74505805969E-08  0.93827000000E+00  0.93827000000E+00 0. -1.
     999902    2    1    2    0    0 -0.42601423444E-02 -0.23621291392E-01 -0.28239071810E-02  0.10197620735E+01  0.10194756485E+01 0.  0.
     999903    2    3    3    0    0 -0.47285135435E-01 -0.67340734240E-01  0.10070441807E+00  0.13157253638E+00  0.19982341921E-01 0.  0.
         14    1    1    2    0    0  0.42601423444E-02  0.23621291392E-01  0.28239071810E-02  0.24167926505E-01  0.00000000000E+00 0. -1.
     999901    1    3    3    0    0  0.43024993091E-01  0.43719442849E-01 -0.10352832525E+00  0.88818953712E+00  0.88000000000E+00 0. -1.
        -11    1    4    4    0    0 -0.34970674345E-01 -0.32594304007E-01  0.56907419157E-01  0.74323967830E-01  0.51100000000E-03 0.  1.
         11    1    4    4    0    0 -0.12314461090E-01 -0.34746430233E-01  0.43796998915E-01  0.57248568548E-01  0.51100000000E-03 0. -1.
</event>
<event>
 8    1  0.1086486E+005  0.1043930E+01  0.7957747E-01            NaN
         13   -1    0    0    0    0  0.00000000000E+00  0.00000000000E+00  0.74505805969E-08  0.10566000000E+00  0.10566000000E+00 0.  1.
     999900   -1    0    0    0    0 -0.00000000000E+00 -0.00000000000E+00 -0.74505805969E-08  0.93827000000E+00  0.93827000000E+00 0.  1.
     999902    2    1    2    0    0  0.70465153418E-02  0.82614137391E-02  0.20402341062E-01  0.10208181014E+01  0.10205564347E+01 0.  0.
     999903    2    3    3    0    0 -0.22781454935E-01  0.12853724842E+00  0.86162936880E-02  0.13205778776E+00  0.18005551077E-01 0.  0.
         14    1    1    2    0    0 -0.70465153418E-02 -0.82614137391E-02 -0.20402341062E-01  0.23111898586E-01  0.00000000000E+00 0. -1.
     999901    1    3    3    0    0  0.29827970277E-01 -0.12027583468E+00  0.11786047374E-01  0.88876031366E+00  0.88000000000E+00 0.  1.
        -11    1    4    4    0    0 -0.21018215852E-02  0.47816637922E-01 -0.28154881402E-02  0.47948270153E-01  0.51100000000E-03 0. -1.
         11    1    4    4    0    0 -0.20679633350E-01  0.80720610500E-01  0.11431781828E-01  0.84109517604E-01  0.51100000000E-03 0.  1.
</event>
<event>
 8    1  0.1086486E+005  0.1043930E+01  0.7957747E-01            NaN
         13   -1    0    0    0    0  0.00000000000E+00  0.00000000000E+00  0.74505805969E-08  0.10566000000E+00  0.10566000000E+00 0.  1.
     999900   -1    0    0    0    0 -0.00000000000E+00 -0.00000000000E+00 -0.74505805969E-08  0.93827000000E+00  0.93827000000E+00 0. -1.
     999902    2    1    2    0    0  0.16242320681E-01 -0.58609251138E-02  0.15843874143E-01  0.10204951590E+01  0.10202260425E+01 0.  0.
     999903    2    3    3    0    0  0.35916146035E-01  0.11244527293E+00 -0.50493416513E-01  0.12988634925E+00  0.19671544423E-01 0.  0.
         14    1    1    2    0    0 -0.16242320681E-01  0.58609251138E-02 -0.15843874143E-01  0.23434840988E-01  0.00000000000E+00 0. -1.
     999901    1    3    3    0    0 -0.19673825354E-01 -0.11830619804E+00  0.66337290656E-01  0.89060880976E+00  0.88000000000E+00 0. -1.
        -11    1    4    4    0    0  0.27482154550E-01  0.85783339774E-01 -0.47280180412E-01  0.10173360695E+00  0.51100000000E-03 0.  1.
         11    1    4    4    0    0  0.84339914847E-02  0.26661933153E-01 -0.32132361006E-02  0.28152742301E-01  0.51100000000E-03 0. -1.
</event>
<event>
 8    1  0.1635537E+005  0.1043930E+01  0.7957747E-01            NaN
         13   -1    0    0    0    0  0.00000000000E+00  0.00000000000E+00  0.74505805969E-08  0.10566000000E+00  0.10566000000E+00 0.  1.
     999900   -1    0    0    0    0 -0.00000000000E+00 -0.00000000000E+00 -0.74505805969E-08  0.93827000000E+00  0.93827000000E+00 0.  1.
     999902    2    1    2    0    0  0.24234251789E-03  0.16414301896E-01  0.16043772807E-01  0.10209759005E+01  0.10207178350E+01 0.  0.
     999903    2    3    3    0    0  0.10481440999E+00  0.76647667613E-01 -0.14571228048E-01  0.13221234709E+00  0.20170734846E-01 0.  0.
         14    1    1    2    0    0 -0.24234251789E-03 -0.16414301896E-01 -0.16043772807E-01  0.22954099471E-01  0.00000000000E+00 0. -1.
     999901    1    3    3    0    0 -0.10457206747E+00 -0.60233365717E-01  0.30615000855E-01  0.88876355344E+00  0.88000000000E+00 0.  1.
        -11    1    4    4    0    0  0.55889003051E-01  0.41509691489E-01  0.22952355428E-02  0.69657478972E-01  0.51100000000E-03 0.  1.
         11    1    4    4    0    0  0.48925406940E-01  0.35137976124E-01 -0.16866463590E-01  0.62554868119E-01  0.51100000000E-03 0. -1.
</event>
<event>
 8    1  0.1086486E+005  0.1043930E+01  0.7957747E-01            NaN
         13   -1    0    0    0    0  0.00000000000E+00  0.00000000000E+00  0.74505805969E-08  0.10566000000E+00  0.10566000000E+00 0. -1.
     999900   -1    0    0    0    0 -0.00000000000E+00 -0.00000000000E+00 -0.74505805969E-08  0.93827000000E+00  0.93827000000E+00 0. -1.
     999902    2    1    2    0    0 -0.57961689277E-02 -0.22601924059E-01 -0.34126617890E-02  0.10203484647E+01  0.10200759289E+01 0.  0.
     999903    2    3    3    0    0 -0.11960821834E+00  0.22466874475E-01  0.43492048941E-01  0.13063815733E+00  0.19075730306E-01 0.  0.
         14    1    1    2    0    0  0.57961689277E-02  0.22601924059E-01  0.34126617890E-02  0.23581535275E-01  0.00000000000E+00 0.  1.
     999901    1    3    3    0    0  0.11381204941E+00 -0.45068798534E-01 -0.46904710730E-01  0.88971030739E+00  0.88000000000E+00 0. -1.
        -11    1    4    4    0    0 -0.76655975177E-01  0.71676626357E-02  0.21058674441E-01  0.79820065198E-01  0.51100000000E-03 0.  1.
         11    1    4    4    0    0 -0.42952243164E-01  0.15299211839E-01  0.22433374499E-01  0.50818092134E-01  0.51100000000E-03 0. -1.
</event>
<event>
 8    1  0.1086486E+005  0.1043930E+01  0.7957747E-01            NaN
         13   -1    0    0    0    0  0.00000000000E+00  0.00000000000E+00  0.74505805969E-08  0.10566000000E+00  0.10566000000E+00 0. -1.
     999900   -1    0    0    0    0 -0.00000000000E+00 -0.00000000000E+00 -0.74505805969E-08  0.93827000000E+00  0.93827000000E+00 0. -1.
     999902    2    1    2    0    0 -0.73367682753E-03  0.12140097277E-01  0.21096101423E-01  0.10195791122E+01  0.10192882812E+01 0.  0.
     999903    2    3    3    0    0  0.10894696665E+00 -0.60590200837E-01 -0.24323950708E-01  0.12863437708E+00  0.20360118125E-01 0.  0.
         14    1    1    2    0    0  0.73367682753E-03 -0.12140097277E-01 -0.21096101423E-01  0.24350887845E-01  0.00000000000E+00 0.  1.
     999901    1    3    3    0    0 -0.10968064348E+00  0.72730298114E-01  0.45420052131E-01  0.89094473507E+00  0.88000000000E+00 0. -1.
        -11    1    4    4    0    0  0.10520900019E+00 -0.60292321140E-01 -0.26699493470E-01  0.12416610561E+00  0.51100000000E-03 0. -1.
         11    1    4    4    0    0  0.37379664575E-02 -0.29787969761E-03  0.23755427617E-02  0.44682714739E-02  0.51100000000E-03 0.  1.
</event>
<event>
 8    1  0.1086486E+005  0.1043930E+01  0.7957747E-01            NaN
         13   -1    0    0    0    0  0.00000000000E+00  0.00000000000E+00  0.74505805969E-08  0.10566000000E+00  0.10566000000E+00 0. -1.
     999900   -1    0    0    0    0 -0.00000000000E+00 -0.00000000000E+00 -0.74505805969E-08  0.93827000000E+00  0.93827000000E+00 0.  1.
     999902    2    1    2    0    0  0.15349220426E-01  0.17771780996E-01  0.51081133136E-02  0.10198981963E+01  0.10196150270E+01 0.  0.
     999903    2    3    3    0    0  0.69490771334E-01 -0.91075715939E-01  0.58120638080E-01  0.12996032605E+00  0.19695797566E-01 0.  0.
         14    1    1    2    0    0 -0.15349220426E-01 -0.17771780996E-01 -0.51081133136E-02  0.24031803700E-01  0.00000000000E+00 0. -1.
     999901    1    3    3    0    0 -0.54141550908E-01  0.10884749693E+00 -0.53012524766E-01  0.88993787025E+00  0.88000000000E+00 0. -1.
        -11    1    4    4    0    0  0.10173689882E-01 -0.19334780568E-01  0.19098834449E-01  0.29023512946E-01  0.51100000000E-03 0. -1.
         11    1    4    4    0    0  0.59317081453E-01 -0.71740935371E-01  0.39021803631E-01  0.10093681310E+00  0.51100000000E-03 0.  1.
</event>
<event>
 8    1  0.1086486E+005  0.1043930E+01  0.7957747E-01            NaN
         13   -1    0    0    0    0  0.00000000000E+00  0.00000000000E+00  0.74505805969E-08  0.10566000000E+00  0.10566000000E+00 0.  1.
     999900   -1    0    0    0    0 -0.00000000000E+00 -0.00000000000E+00 -0.74505805969E-08  0.93827000000E+00  0.93827000000E+00 0. -1.
     999902    2    1    2    0    0  0.86746468269E-02 -0.23540815625E-01  0.73694813425E-03  0.10188309444E+01  0.10185217380E+01 0.  0.
     999903    2    3    3    0    0  0.60612932327E-01  0.82068677259E-01 -0.74475534374E-01  0.12781586711E+00  0.19521662654E-01 0.  0.
         14    1    1    2    0    0 -0.86746468269E-02  0.23540815625E-01 -0.73694813425E-03  0.25099055568E-01  0.00000000000E+00 0.  1.
     999901    1    3    3    0    0 -0.51938285500E-01 -0.10560949288E+00  0.75212482508E-01  0.89101507732E+00  0.88000000000E+00 0.  1.
        -11    1    4    4    0    0  0.29137167845E-01  0.54464064642E-01 -0.40119476994E-01  0.73655566271E-01  0.51100000000E-03 0. -1.
         11    1    4    4    0    0  0.31475764482E-01  0.27604612617E-01 -0.34356057379E-01  0.54160300841E-01  0.51100000000E-03 0.  1.
</event>
<event>
 8    1  0.1086486E+005  0.1043930E+01  0.7957747E-01            NaN
         13   -1    0    0    0    0  0.00000000000E+00  0.00000000000E+00  0.74505805969E-08  0.10566000000E+00  0.10566000000E+00 0. -1.
     999900   -1    0    0    0    0 -0.00000000000E+00 -0.00000000000E+00 -0.74505805969E-08  0.93827000000E+00  0.93827000000E+00 0.  1.
     999902    2    1    2    0    0 -0.17286072118E-01  0.70910118748E-03  0.13713150143E-01  0.10218537322E+01  0.10216152350E+01 0.  0.
     999903    2    3    3    0    0 -0.70910230097E-01 -0.83813748578E-01 -0.70802025686E-01  0.13215576243E+00  0.19980328274E-01 0.  0.
         14    1    1    2    0    0  0.17286072118E-01 -0.70910118748E-03 -0.13713150143E-01  0.22076267814E-01  0.00000000000E+00 0.  1.
     999901    1    3    3    0    0  0.53624157979E-01  0.84522849765E-01  0.84515175829E-01  0.88969796976E+00  0.88000000000E+00 0. -1.
        -11    1    4    4    0    0 -0.45841892689E-01 -0.59955256961E-01 -0.38127563344E-01  0.84558170333E-01  0.51100000000E-03 0. -1.
         11    1    4    4    0    0 -0.25068337407E-01 -0.23858491617E-01 -0.32674462342E-01  0.47597592092E-01  0.51100000000E-03 0.  1.
</event>
<event>
 8    1  0.1086486E+005  0.1043930E+01  0.7957747E-01            NaN
         13   -1    0    0    0    0  0.00000000000E+00  0.00000000000E+00  0.74505805969E-08  0.10566000000E+00  0.10566000000E+00 0. -1.
     999900   -1    0    0    0    0 -0.00000000000E+00 -0.00000000000E+00 -0.74505805969E-08  0.93827000000E+00  0.93827000000E+00 0. -1.
     999902    2    1    2    0    0 -0.16526669197E-01 -0.14123319987E-01 -0.88315394438E-02  0.10204652381E+01  0.10201954259E+01 0.  0.
     999903    2    3    3    0    0 -0.89775447454E-01 -0.39581027878E-01 -0.88232888823E-01  0.13349395745E+00  0.20231294383E-01 0.  0.
         14    1    1    2    0    0  0.16526669197E-01  0.14123319987E-01  0.88315394438E-02  0.23464761903E-01  0.00000000000E+00 0. -1.
     999901    1    3    3    0    0  0.73248778257E-01  0.25457707891E-01  0.79401349380E-01  0.88697128065E+00  0.88000000000E+00 0.  1.
        -11    1    4    4    0    0 -0.78386445274E-01 -0.27553430194E-01 -0.68199001510E-01  0.10749414517E+00  0.51100000000E-03 0.  1.
         11    1    4    4    0    0 -0.11389002180E-01 -0.12027597684E-01 -0.20033887314E-01  0.25999812281E-01  0.51100000000E-03 0. -1.
</event>
<event>
 7    1  0.1086486E+005  0.1043930E+01  0.7957747E-01            NaN
         13   -1    0    0    0    0  0.00000000000E+00  0.00000000000E+00  0.74505805969E-08  0.10566000000E+00  0.10566000000E+00 0. -1.
     999900   -1    0    0    0    0 -0.00000000000E+00 -0.00000000000E+00 -0.74505805969E-08  0.93827000000E+00  0.93827000000E+00 0.  1.
     999903    2    1    2    0    0 -0.47757944195E-01  0.46336499311E-02 -0.85927143365E-01  0.10056358862E+00  0.20670496941E-01 0.  0.
         14    1    1    2    0    0 -0.39677266337E-01 -0.84302659662E-02  0.41317654639E-01  0.57900806843E-01  0.00000000000E+00 0. -1.
     999901    1    1    2    0    0  0.87435210532E-01  0.37966160351E-02  0.44609488726E-01  0.88546560454E+00  0.88000000000E+00 0. -1.
        -11    1    3    3    0    0 -0.21752373185E-01 -0.14007722879E-02 -0.57824739047E-01  0.61798782100E-01  0.51100000000E-03 0.  1.
         11    1    3    3    0    0 -0.26005571010E-01  0.60344222190E-02 -0.28102404318E-01  0.38764806520E-01  0.51100000000E-03 0. -1.
</event>
<event>
 8    1  0.1086486E+005  0.1043930E+01  0.7957747E-01            NaN
         13   -1    0    0    0    0  0.00000000000E+00  0.00000000000E+00  0.74505805969E-08  0.10566000000E+00  0.10566000000E+00 0.  1.
     999900   -1    0    0    0    0 -0.00000000000E+00 -0.00000000000E+00 -0.74505805969E-08  0.93827000000E+00  0.93827000000E+00 0.  1.
     999902    2    1    2    0    0 -0.48279995400E-02  0.18220948169E-01 -0.15249428100E-01  0.10196842253E+01  0.10193959299E+01 0.  0.
     999903    2    3    3    0    0  0.70801258968E-01 -0.74184182916E-01  0.73158376067E-01  0.12723006246E+00  0.17866995795E-01 0.  0.
         14    1    1    2    0    0  0.48279995400E-02 -0.18220948169E-01  0.15249428100E-01  0.24245774665E-01  0.00000000000E+00 0.  1.
     999901    1    3    3    0    0 -0.75629258509E-01  0.92405131084E-01 -0.88407804167E-01  0.89245416287E+00  0.88000000000E+00 0.  1.
        -11    1    4    4    0    0  0.55963470050E-01 -0.52109264407E-01  0.61731218398E-01  0.98276598755E-01  0.51100000000E-03 0. -1.
         11    1    4    4    0    0  0.14837788919E-01 -0.22074918509E-01  0.11427157669E-01  0.28953463706E-01  0.51100000000E-03 0.  1.
</event>
<event>
 8    1  0.1086486E+005  0.1043930E+01  0.7957747E-01            NaN
         13   -1    0    0    0    0  0.00000000000E+00  0.00000000000E+00  0.74505805969E-08  0.10566000000E+00  0.10566000000E+00 0.  1.
     999900   -1    0    0    0    0 -0.00000000000E+00 -0.00000000000E+00 -0.74505805969E-08  0.93827000000E+00  0.93827000000E+00 0. -1.
     999902    2    1    2    0    0 -0.15985754161E-01 -0.17453998153E-01  0.26910462270E-02  0.10201092503E+01  0.10198310911E+01 0.  0.
     999903    2    3    3    0    0  0.27819584430E-01  0.56645647602E-01  0.11108103248E+00  0.12929049525E+00  0.19858945479E-01 0.  0.
         14    1    1    2    0    0  0.15985754161E-01  0.17453998153E-01 -0.26910462270E-02  0.23820749724E-01  0.00000000000E+00 0. -1.
     999901    1    3    3    0    0 -0.43805338591E-01 -0.74099645755E-01 -0.10838998625E+00  0.89081875503E+00  0.88000000000E+00 0. -1.
        -11    1    4    4    0    0  0.26057969122E-01  0.54392606383E-01  0.92123541066E-01  0.11011167660E+00  0.51100000000E-03 0. -1.
         11    1    4    4    0    0  0.17616153081E-02  0.22530412190E-02  0.18957491410E-01  0.19178818650E-01  0.51100000000E-03 0.  1.
</event>
<event>
 8    1  0.1086486E+005  0.1043930E+01  0.7957747E-01            NaN
         13   -1    0    0    0    0  0.00000000000E+00  0.00000000000E+00  0.74505805969E-08  0.10566000000E+00  0.10566000000E+00 0. -1.
     999900   -1    0    0    0    0 -0.00000000000E+00 -0.00000000000E+00 -0.74505805969E-08  0.93827000000E+00  0.93827000000E+00 0.  1.
     999902    2    1    2    0    0  0.45476070598E-02 -0.15928056525E-01  0.17728865691E-01  0.10196669336E+01  0.10193782218E+01 0.  0.
     999903    2    3    3    0    0  0.11455037632E+00 -0.59957345807E-01  0.12595362711E-01  0.13171111235E+00  0.21737109350E-01 0.  0.
         14    1    1    2    0    0 -0.45476070598E-02  0.15928056525E-01 -0.17728865691E-01  0.24263066445E-01  0.00000000000E+00 0.  1.
     999901    1    3    3    0    0 -0.11000276926E+00  0.44029289281E-01  0.51335029804E-02  0.88795582121E+00  0.88000000000E+00 0.  1.
        -11    1    4    4    0    0  0.54982311045E-01 -0.23092756807E-01 -0.38193873151E-02  0.59759340570E-01  0.51100000000E-03 0. -1.
         11    1    4    4    0    0  0.59568065276E-01 -0.36864588999E-01  0.16414750026E-01  0.71951771780E-01  0.51100000000E-03 0.  1.
</event>
<event>
 8    1  0.1086486E+005  0.1043930E+01  0.7957747E-01            NaN
         13   -1    0    0    0    0  0.00000000000E+00  0.00000000000E+00  0.74505805969E-08  0.10566000000E+00  0.10566000000E+00 0.  1.
     999900   -1    0    0    0    0 -0.00000000000E+00 -0.00000000000E+00 -0.74505805969E-08  0.93827000000E+00  0.93827000000E+00 0.  1.
     999902    2    1    2    0    0 -0.20750055879E-01  0.11608192002E-01  0.46167586173E-03  0.10201491656E+01  0.10198719488E+01 0.  0.
     999903    2    3    3    0    0 -0.58238487777E-01  0.70057754863E-01  0.94222024566E-01  0.13244835061E+00  0.19104062180E-01 0.  0.
         14    1    1    2    0    0  0.20750055879E-01 -0.11608192002E-01 -0.46167586173E-03  0.23780834408E-01  0.00000000000E+00 0.  1.
     999901    1    3    3    0    0  0.37488431899E-01 -0.58449562860E-01 -0.93760348705E-01  0.88770081498E+00  0.88000000000E+00 0.  1.
        -11    1    4    4    0    0 -0.26256538061E-01  0.44052286509E-01  0.59478300752E-01  0.78536228067E-01  0.51100000000E-03 0. -1.
         11    1    4    4    0    0 -0.31981949717E-01  0.26005468353E-01  0.34743723814E-01  0.53912122546E-01  0.51100000000E-03 0.  1.
</event>
<event>
 8    1  0.1086486E+005  0.1043930E+01  0.7957747E-01            NaN
         13   -1    0    0    0    0  0.00000000000E+00  0.00000000000E+00  0.74505805969E-08  0.10566000000E+00  0.10566000000E+00 0.  1.
     999900   -1    0    0    0    0 -0.00000000000E+00 -0.00000000000E+00 -0.74505805969E-08  0.93827000000E+00  0.93827000000E+00 0. -1.
     999902    2    1    2    0    0  0.12411386215E-03  0.20058251314E-01  0.12220380462E-01  0.10204419914E+01  0.10201716381E+01 0.  0.
     999903    2    3    3    0    0 -0.12102139655E+00  0.24373106683E-01  0.41494728485E-01  0.13164964212E+00  0.19224698323E-01 0.  0.
         14    1    1    2    0    0 -0.12411386215E-03 -0.20058251314E-01 -0.12220380462E-01  0.23488008614E-01  0.00000000000E+00 0. -1.
     999901    1    3    3    0    0  0.12114551041E+00 -0.43148553693E-02 -0.29274348023E-01  0.88879234927E+00  0.88000000000E+00 0.  1.
        -11    1    4    4    0    0 -0.89298888494E-01  0.12015000388E-01  0.36584677238E-01  0.97248914905E-01  0.51100000000E-03 0.  1.
         11    1    4    4    0    0 -0.31722508053E-01  0.12358106295E-01  0.49100512462E-02  0.34400727211E-01  0.51100000000E-03 0. -1.
</event>
<event>
 8    1  0.1086486E+005  0.1043930E+01  0.7957747E-01            NaN
         13   -1    0    0    0    0  0.00000000000E+00  0.00000000000E+00  0.74505805969E-08  0.10566000000E+00  0.10566000000E+00 0. -1.
     999900   -1    0    0    0    0 -0.00000000000E+00 -0.00000000000E+00 -0.74505805969E-08  0.93827000000E+00  0.93827000000E+00 0.  1.
     999902    2    1    2    0    0  0.42581081795E-02  0.28160538965E-01  0.19224835214E-02  0.10153845383E+01  0.10149832103E+01 0.  0.
     999903    2    3    3    0    0 -0.35153010747E-01  0.11650278460E+00  0.38891612079E-01  0.12931213432E+00  0.20010937205E-01 0.  0.
         14    1    1    2    0    0 -0.42581081795E-02 -0.28160538965E-01 -0.19224835214E-02  0.28545461687E-01  0.00000000000E+00 0. -1.
     999901    1    3    3    0    0  0.39411118926E-01 -0.88342245632E-01 -0.36969128558E-01  0.88607240400E+00  0.88000000000E+00 0.  1.
        -11    1    4    4    0    0 -0.32489361916E-01  0.93505235437E-01  0.38319420248E-01  0.10614813602E+00  0.51100000000E-03 0. -1.
         11    1    4    4    0    0 -0.26636488311E-02  0.22997549160E-01  0.57219183080E-03  0.23163998293E-01  0.51100000000E-03 0.  1.
</event>
<event>
 7    1  0.1086486E+005  0.1043930E+01  0.7957747E-01            NaN
         13   -1    0    0    0    0  0.00000000000E+00  0.00000000000E+00  0.74505805969E-08  0.10566000000E+00  0.10566000000E+00 0.  1.
     999900   -1    0    0    0    0 -0.00000000000E+00 -0.00000000000E+00 -0.74505805969E-08  0.93827000000E+00  0.93827000000E+00 0.  1.
     999902    2    1    2    0    0 -0.10224521933E-02  0.10575633077E-01 -0.21084122472E-01  0.10203200520E+01  0.10200468513E+01 0.  0.
         14    1    1    2    0    0  0.10224521933E-02 -0.10575633077E-01  0.21084122472E-01  0.23609947986E-01  0.00000000000E+00 0.  1.
     999901    1    3    3    0    0  0.10388354298E+00  0.23312438321E-01  0.46885623707E-01  0.88765619583E+00  0.88000000000E+00 0.  1.
        -11    1    3    3    0    0 -0.92470800795E-01 -0.46653736547E-02 -0.39707065844E-01  0.10074486046E+00  0.51100000000E-03 0. -1.
         11    1    3    3    0    0 -0.12435194378E-01 -0.80714315887E-02 -0.28262680335E-01  0.31918995721E-01  0.51100000000E-03 0.  1.
</event>
<event>
 8    1  0.1086486E+005  0.1043930E+01  0.7957747E-01            NaN
         13   -1    0    0    0    0  0.00000000000E+00  0.00000000000E+00  0.74505805969E-08  0.10566000000E+00  0.10566000000E+00 0.  1.
     999900   -1    0    0    0    0 -0.00000000000E+00 -0.00000000000E+00 -0.74505805969E-08  0.93827000000E+00  0.93827000000E+00 0. -1.
     999902    2    1    2    0    0  0.24556872872E-02  0.41941678468E-02  0.19773857787E-01  0.10235676108E+01  0.10233650506E+01 0.  0.
     999903    2    3    3    0    0 -0.88275486613E-02  0.12559395279E+00 -0.38991430984E-01  0.13322016264E+00  0.19378169440E-01 0.  0.
         14    1    1    2    0    0 -0.24556872872E-02 -0.41941678468E-02 -0.19773857787E-01  0.20362389245E-01  0.00000000000E+00 0. -1.
     999901    1    3    3    0    0  0.11283235948E-01 -0.12139978494E+00  0.58765288771E-01  0.89034744811E+00  0.88000000000E+00 0.  1.
        -11    1    4    4    0    0  0.57418018734E-02  0.50523500406E-01 -0.13537906000E-01  0.52622508510E-01  0.51100000000E-03 0. -1.
         11    1    4    4    0    0 -0.14569350535E-01  0.75070452386E-01 -0.25453524984E-01  0.80597654132E-01  0.51100000000E-03 0.  1.
</event>
<event>
 8    1  0.1086486E+005  0.1043930E+01  0.7957747E-01            NaN
         13   -1    0    0    0    0  0.00000000000E+00  0.00000000000E+00  0.74505805969E-08  0.10566000000E+00  0.10566000000E+00 0.  1.
     999900   -1    0    0    0    0 -0.00000000000E+00 -0.00000000000E+00 -0.74505805969E-08  0.93827000000E+00  0.93827000000E+00 0. -1.
     999902    2    1    2    0    0 -0.92404812762E-02 -0.80967397396E-02 -0.21009322593E-01  0.10195920600E+01  0.10193015420E+01 0.  0.
     999903    2    3    3    0    0 -0.31755566873E-02 -0.10358581445E-01  0.12558752956E+00  0.12744154785E+00  0.18754630531E-01 0.  0.
         14    1    1    2    0    0  0.92404812762E-02  0.80967397396E-02  0.21009322593E-01  0.24337940021E-01  0.00000000000E+00 0.  1.
     999901    1    3    3    0    0 -0.60649245889E-02  0.22618417058E-02 -0.14659685215E+00  0.89215051213E+00  0.88000000000E+00 0. -1.
        -11    1    4    4    0    0  0.49850528833E-02 -0.87592633946E-02  0.33737437856E-01  0.35214361865E-01  0.51100000000E-03 0.  1.
         11    1    4    4    0    0 -0.81606095706E-02 -0.15993180507E-02  0.91850091704E-01  0.92227185981E-01  0.51100000000E-03 0. -1.
</event>
<event>
 8    1  0.1086486E+005  0.1043930E+01  0.7957747E-01            NaN
         13   -1    0    0    0    0  0.00000000000E+00  0.00000000000E+00  0.74505805969E-08  0.10566000000E+00  0.10566000000E+00 0. -1.
     999900   -1    0    0    0    0 -0.00000000000E+00 -0.00000000000E+00 -0.74505805969E-08  0.93827000000E+00  0.93827000000E+00 0.  1.
     999902    2    1    2    0    0 -0.10941345853E-01 -0.17141090849E-01  0.12757128339E-01  0.10199242847E+01  0.10196417371E+01 0.  0.
     999903    2    3    3    0    0 -0.10329881252E-02  0.11471133286E+00  0.55669097912E-01  0.12901201385E+00  0.19628914988E-01 0.  0.
         14    1    1    2    0    0  0.10941345853E-01  0.17141090849E-01 -0.12757128339E-01  0.24005715320E-01  0.00000000000E+00 0.  1.
     999901    1    3    3    0    0 -0.99083577280E-02 -0.13185242371E+00 -0.42911969572E-01  0.89091227083E+00  0.88000000000E+00 0.  1.
        -11    1    4    4    0    0 -0.13426604237E-02  0.63367774456E-01  0.19900196718E-01  0.66434603385E-01  0.51100000000E-03 0.  1.
         11    1    4    4    0    0  0.30967229853E-03  0.51343558403E-01  0.35768901194E-01  0.62577410461E-01  0.51100000000E-03 0. -1.
</event>
<event>
 8    1  0.1086486E+005  0.1043930E+01  0.7957747E-01            NaN
         13   -1    0    0    0    0  0.00000000000E+00  0.00000000000E+00  0.74505805969E-08  0.10566000000E+00  0.10566000000E+00 0.  1.
     999900   -1    0    0    0    0 -0.00000000000E+00 -0.00000000000E+00 -0.74505805969E-08  0.93827000000E+00  0.93827000000E+00 0. -1.
     999902    2    1    2    0    0  0.19578952456E-01 -0.10265297692E-01  0.91148394558E-02  0.10200178271E+01  0.10197375032E+01 0.  0.
     999903    2    3    3    0    0  0.20193041877E-01 -0.98555378760E-01 -0.81256158420E-01  0.13099452435E+00  0.20882540686E-01 0.  0.
         14    1    1    2    0    0 -0.19578952456E-01  0.10265297692E-01 -0.91148394558E-02  0.23912172931E-01  0.00000000000E+00 0. -1.
     999901    1    3    3    0    0 -0.61408942132E-03  0.88290081068E-01  0.90370997876E-01  0.88902330272E+00  0.88000000000E+00 0.  1.
        -11    1    4    4    0    0  0.81460822199E-02 -0.81102637545E-01 -0.65564385559E-01  0.10460853812E+00  0.51100000000E-03 0. -1.
         11    1    4    4    0    0  0.12046959658E-01 -0.17452741215E-01 -0.15691772862E-01  0.26385986232E-01  0.51100000000E-03 0.  1.
</event>
<event>
 8    1  0.1086486E+005  0.1043930E+01  0.7957747E-01            NaN
         13   -1    0    0    0    0  0.00000000000E+00  0.00000000000E+00  0.74505805969E-08  0.10566000000E+00  0.10566000000E+00 0.  1.
     999900   -1    0    0    0    0 -0.00000000000E+00 -0.00000000000E+00 -0.74505805969E-08  0.93827000000E+00  0.93827000000E+00 0. -1.
     999902    2    1    2    0    0  0.64113900429E-02  0.20503199738E-01  0.10034058615E-01  0.10202198871E+01  0.10199443360E+01 0.  0.
     999903    2    3    3    0    0  0.73403153770E-01 -0.61349346207E-01 -0.84050322489E-01  0.12890647058E+00  0.20016397875E-01 0.  0.
         14    1    1    2    0    0 -0.64113900429E-02 -0.20503199738E-01 -0.10034058615E-01  0.23710112907E-01  0.00000000000E+00 0.  1.
     999901    1    3    3    0    0 -0.66991763727E-01  0.81852545946E-01  0.94084381104E-01  0.89131341651E+00  0.88000000000E+00 0.  1.
        -11    1    4    4    0    0  0.24219048415E-01 -0.33081884753E-01 -0.35744348582E-01  0.54395707381E-01  0.51100000000E-03 0. -1.
         11    1    4    4    0    0  0.49184105355E-01 -0.28267461454E-01 -0.48305973907E-01  0.74510763201E-01  0.51100000000E-03 0.  1.
</event>
<event>
 8    1  0.1086486E+005  0.1043930E+01  0.7957747E-01            NaN
         13   -1    0    0    0    0  0.00000000000E+00  0.00000000000E+00  0.74505805969E-08  0.10566000000E+00  0.10566000000E+00 0. -1.
     999900   -1    0    0    0    0 -0.00000000000E+00 -0.00000000000E+00 -0.74505805969E-08  0.93827000000E+00  0.93827000000E+00 0.  1.
     999902    2    1    2    0    0 -0.23198383693E-01 -0.38755165739E-02 -0.90878996540E-02  0.10187154297E+01  0.10184033347E+01 0.  0.
     999903    2    3    3    0    0  0.37216315186E-01 -0.90195876325E-01  0.80205508463E-01  0.12794359973E+00  0.20403208157E-01 0.  0.
         14    1    1    2    0    0  0.23198383693E-01  0.38755165739E-02  0.90878996540E-02  0.25214570288E-01  0.00000000000E+00 0.  1.
     999901    1    3    3    0    0 -0.60414698879E-01  0.86320359751E-01 -0.89293408117E-01  0.89077182998E+00  0.88000000000E+00 0.  1.
        -11    1    4    4    0    0  0.26943683314E-01 -0.81243395909E-01  0.64717016696E-01  0.10730799048E+00  0.51100000000E-03 0.  1.
         11    1    4    4    0    0  0.10272631871E-01 -0.89524804160E-02  0.15488491767E-01  0.20635609256E-01  0.51100000000E-03 0. -1.
</event>
<event>
 8    1  0.1086486E+005  0.1043930E+01  0.7957747E-01            NaN
         13   -1    0    0    0    0  0.00000000000E+00  0.00000000000E+00  0.74505805969E-08  0.10566000000E+00  0.10566000000E+00 0.  1.
     999900   -1    0    0    0    0 -0.00000000000E+00 -0.00000000000E+00 -0.74505805969E-08  0.93827000000E+00  0.93827000000E+00 0.  1.
     999902    2    1    2    0    0  0.18613517188E-01  0.11476896483E-01 -0.85729084426E-02  0.10204421961E+01  0.10201718476E+01 0.  0.
     999903    2    3    3    0    0 -0.54843177043E-01  0.74809266223E-01 -0.90859236137E-01  0.13129771133E+00  0.19480447353E-01 0.  0.
         14    1    1    2    0    0 -0.18613517188E-01 -0.11476896483E-01  0.85729084426E-02  0.23487803945E-01  0.00000000000E+00 0. -1.
     999901    1    3    3    0    0  0.73456694231E-01 -0.63332369740E-01  0.82286327695E-01  0.88914448472E+00  0.88000000000E+00 0. -1.
        -11    1    4    4    0    0 -0.65573421740E-02  0.22392427957E-01 -0.25935172427E-01  0.34890025165E-01  0.51100000000E-03 0.  1.
         11    1    4    4    0    0 -0.48285834869E-01  0.52416838266E-01 -0.64924063711E-01  0.96407686169E-01  0.51100000000E-03 0. -1.
</event>
<event>
 8    1  0.1086486E+005  0.1043930E+01  0.7957747E-01            NaN
         13   -1    0    0    0    0  0.00000000000E+00  0.00000000000E+00  0.74505805969E-08  0.10566000000E+00  0.10566000000E+00 0. -1.
     999900   -1    0    0    0    0 -0.00000000000E+00 -0.00000000000E+00 -0.74505805969E-08  0.93827000000E+00  0.93827000000E+00 0. -1.
     999902    2    1    2    0    0 -0.14351175837E-01  0.18527457906E-01  0.84159479872E-02  0.10190291742E+01  0.10187248926E+01 0.  0.
     999903    2    3    3    0    0  0.64770603955E-01  0.10943869730E+00  0.23200310266E-01  0.13069157687E+00  0.19234715107E-01 0.  0.
         14    1    1    2    0    0  0.14351175837E-01 -0.18527457906E-01 -0.84159479872E-02  0.24900825787E-01  0.00000000000E+00 0.  1.
     999901    1    3    3    0    0 -0.79121779792E-01 -0.90911239392E-01 -0.14784362278E-01  0.88833759734E+00  0.88000000000E+00 0. -1.
        -11    1    4    4    0    0  0.48518247255E-01  0.95469798071E-01  0.21111658501E-01  0.10915340538E+00  0.51100000000E-03 0. -1.
         11    1    4    4    0    0  0.16252356700E-01  0.13968899227E-01  0.20886517646E-02  0.21538171489E-01  0.51100000000E-03 0.  1.
</event>
<event>
 8    1  0.1086486E+005  0.1043930E+01  0.7957747E-01            NaN
         13   -1    0    0    0    0  0.00000000000E+00  0.00000000000E+00  0.74505805969E-08  0.10566000000E+00  0.10566000000E+00 0.  1.
     999900   -1    0    0    0    0 -0.00000000000E+00 -0.00000000000E+00 -0.74505805969E-08  0.93827000000E+00  0.93827000000E+00 0. -1.
     999902    2    1    2    0    0 -0.31701850607E-02  0.19588537438E-01 -0.14309911993E-01  0.10194650362E+01  0.10191714407E+01 0.  0.
     999903    2    3    3    0    0 -0.11322618181E+00  0.48661367280E-01  0.39232097506E-01  0.13051942559E+00  0.17551810978E-01 0.  0.
         14    1    1    2    0    0  0.31701850607E-02 -0.19588537438E-01  0.14309911993E-01  0.24464963795E-01  0.00000000000E+00 0.  1.
     999901    1    3    3    0    0  0.11005599675E+00 -0.29072829842E-01 -0.53542009499E-01  0.88894561062E+00  0.88000000000E+00 0. -1.
        -11    1    4    4    0    0 -0.59498887443E-01  0.28633404546E-01  0.29648772510E-01  0.72383011095E-01  0.51100000000E-03 0.  1.
         11    1    4    4    0    0 -0.53727294364E-01  0.20027962734E-01  0.95833249961E-02  0.58136414492E-01  0.51100000000E-03 0. -1.
</event>
<event>
 8    1  0.1086486E+005  0.1043930E+01  0.7957747E-01            NaN
         13   -1    0    0    0    0  0.00000000000E+00  0.00000000000E+00  0.74505805969E-08  0.10566000000E+00  0.10566000000E+00 0. -1.
     999900   -1    0    0    0    0 -0.00000000000E+00 -0.00000000000E+00 -0.74505805969E-08  0.93827000000E+00  0.93827000000E+00 0. -1.
     999902    2    1    2    0    0  0.24323220782E-02 -0.20626204148E-01 -0.10982100532E-01  0.10204361067E+01  0.10201656164E+01 0.  0.
     999903    2    3    3    0    0 -0.59690625559E-01 -0.10409640096E+00 -0.54452783939E-01  0.13324039288E+00  0.19719663911E-01 0.  0.
         14    1    1    2    0    0 -0.24323220782E-02  0.20626204148E-01  0.10982100532E-01  0.23493893256E-01  0.00000000000E+00 0.  1.
     999901    1    3    3    0    0  0.62122947638E-01  0.83470196809E-01  0.43470683408E-01  0.88719571386E+00  0.88000000000E+00 0.  1.
        -11    1    4    4    0    0 -0.24684231133E-01 -0.58752761916E-01 -0.22120364992E-01  0.67459394955E-01  0.51100000000E-03 0.  1.
         11    1    4    4    0    0 -0.35006394427E-01 -0.45343639041E-01 -0.32332418948E-01  0.65780997927E-01  0.51100000000E-03 0. -1.
</event>
<event>
 8    1  0.1086486E+005  0.1043930E+01  0.7957747E-01            NaN
         13   -1    0    0    0    0  0.00000000000E+00  0.00000000000E+00  0.74505805969E-08  0.10566000000E+00  0.10566000000E+00 0.  1.
     999900   -1    0    0    0    0 -0.00000000000E+00 -0.00000000000E+00 -0.74505805969E-08  0.93827000000E+00  0.93827000000E+00 0.  1.
     999902    2    1    2    0    0 -0.25555381409E-02 -0.84828766455E-02  0.21967814182E-01  0.10202429818E+01  0.10199679736E+01 0.  0.
     999903    2    3    3    0    0 -0.11348110707E+00  0.24769045606E-01  0.59276875852E-01  0.13187248574E+00  0.19624912844E-01 0.  0.
         14    1    1    2    0    0  0.25555381409E-02  0.84828766455E-02 -0.21967814182E-01  0.23687018203E-01  0.00000000000E+00 0. -1.
     999901    1    3    3    0    0  0.11092556893E+00 -0.33251922251E-01 -0.37309061669E-01  0.88837049605E+00  0.88000000000E+00 0.  1.
        -11    1    4    4    0    0 -0.63299043034E-01  0.81166976867E-02  0.41334452784E-01  0.76035831937E-01  0.51100000000E-03 0. -1.
         11    1    4    4    0    0 -0.50182064033E-01  0.16652347919E-01  0.17942423068E-01  0.55836653807E-01  0.51100000000E-03 0.  1.
</event>
<event>
 8    1  0.1086486E+005  0.1043930E+01  0.7957747E-01            NaN
         13   -1    0    0    0    0  0.00000000000E+00  0.00000000000E+00  0.74505805969E-08  0.10566000000E+00  0.10566000000E+00 0.  1.
     999900   -1    0    0    0    0 -0.00000000000E+00 -0.00000000000E+00 -0.74505805969E-08  0.93827000000E+00  0.93827000000E+00 0. -1.
     999902    2    1    2    0    0 -0.23657396875E-01 -0.10446051754E-02 -0.58142252546E-02  0.10195462176E+01  0.10192545909E+01 0.  0.
     999903    2    3    3    0    0 -0.44470895517E-01 -0.11283835684E+00  0.37909571826E-01  0.13115282782E+00  0.32461874383E-01 0.  0.
         14    1    1    2    0    0  0.23657396875E-01  0.10446051754E-02  0.58142252546E-02  0.24383782360E-01  0.00000000000E+00 0.  1.
     999901    1    3    3    0    0  0.20813498642E-01  0.11179375166E+00 -0.43723797080E-01  0.88839338982E+00  0.88000000000E+00 0. -1.
        -11    1    4    4    0    0 -0.24519876269E-01 -0.29484647762E-01  0.21229589118E-01  0.43835206867E-01  0.51100000000E-03 0.  1.
         11    1    4    4    0    0 -0.19951019248E-01 -0.83353709075E-01  0.16679982708E-01  0.87317620958E-01  0.51100000000E-03 0. -1.
</event>
<event>
 8    1  0.1086486E+005  0.1043930E+01  0.7957747E-01            NaN
         13   -1    0    0    0    0  0.00000000000E+00  0.00000000000E+00  0.74505805969E-08  0.10566000000E+00  0.10566000000E+00 0. -1.
     999900   -1    0    0    0    0 -0.00000000000E+00 -0.00000000000E+00 -0.74505805969E-08  0.93827000000E+00  0.93827000000E+00 0. -1.
     999902    2    1    2    0    0 -0.23456447806E-01  0.86676414082E-02  0.72919202142E-02  0.10178818705E+01  0.10175485233E+01 0.  0.
     999903    2    3    3    0    0 -0.52393528933E-02  0.10771715872E+00 -0.67925697183E-01  0.12894972493E+00  0.19588111711E-01 0.  0.
         14    1    1    2    0    0  0.23456447806E-01 -0.86676414082E-02 -0.72919202142E-02  0.26048129523E-01  0.00000000000E+00 0. -1.
     999901    1    3    3    0    0 -0.18217094912E-01 -0.99049517307E-01  0.75217617397E-01  0.88893214555E+00  0.88000000000E+00 0.  1.
        -11    1    4    4    0    0 -0.11270125293E-01  0.78018263137E-01 -0.43584889797E-01  0.90076461113E-01  0.51100000000E-03 0.  1.
         11    1    4    4    0    0  0.60307724001E-02  0.29698895579E-01 -0.24340807385E-01  0.38873263813E-01  0.51100000000E-03 0. -1.
</event>
<event>
 8    1  0.1086486E+005  0.1043930E+01  0.7957747E-01            NaN
         13   -1    0    0    0    0  0.00000000000E+00  0.00000000000E+00  0.74505805969E-08  0.10566000000E+00  0.10566000000E+00 0. -1.
     999900   -1    0    0    0    0 -0.00000000000E+00 -0.00000000000E+00 -0.74505805969E-08  0.93827000000E+00  0.93827000000E+00 0. -1.
     999902    2    1    2    0    0 -0.19402464101E-01 -0.11913422384E-01 -0.68941833012E-02  0.10201410318E+01  0.10198636231E+01 0.  0.
     999903    2    3    3    0    0  0.10066145435E+00 -0.43060971462E-01 -0.66087975576E-01  0.12947306930E+00  0.20215823059E-01 0.  0.
         14    1    1    2    0    0  0.19402464101E-01  0.11913422384E-01  0.68941833012E-02  0.23788968231E-01  0.00000000000E+00 0. -1.
     999901    1    3    3    0    0 -0.12006391845E+00  0.31147549078E-01  0.59193792275E-01  0.89066796247E+00  0.88000000000E+00 0.  1.
        -11    1    4    4    0    0  0.39269341896E-01 -0.19441990784E-01 -0.37783447399E-01  0.57861232591E-01  0.51100000000E-03 0. -1.
         11    1    4    4    0    0  0.61392112458E-01 -0.23618980678E-01 -0.28304528177E-01  0.71611836707E-01  0.51100000000E-03 0.  1.
</event>
<event>
 8    1  0.1086486E+005  0.1043930E+01  0.7957747E-01            NaN
         13   -1    0    0    0    0  0.00000000000E+00  0.00000000000E+00  0.74505805969E-08  0.10566000000E+00  0.10566000000E+00 0. -1.
     999900   -1    0    0    0    0 -0.00000000000E+00 -0.00000000000E+00 -0.74505805969E-08  0.93827000000E+00  0.93827000000E+00 0.  1.
     999902    2    1    2    0    0  0.11915807134E-01  0.88389479696E-02  0.18863411661E-01  0.10199312134E+01  0.10196488308E+01 0.  0.
     999903    2    3    3    0    0 -0.57664676491E-01 -0.10926542718E+00 -0.27006578165E-01  0.12813855635E+00  0.20639425059E-01 0.  0.
         14    1    1    2    0    0 -0.11915807134E-01 -0.88389479696E-02 -0.18863411661E-01  0.23998786643E-01  0.00000000000E+00 0.  1.
     999901    1    3    3    0    0  0.69580483625E-01  0.11810437515E+00  0.45869989827E-01  0.89179265701E+00  0.88000000000E+00 0. -1.
        -11    1    4    4    0    0 -0.54339534638E-01 -0.85895922712E-01 -0.22465553188E-01  0.10409542144E+00  0.51100000000E-03 0.  1.
         11    1    4    4    0    0 -0.33251418531E-02 -0.23369504467E-01 -0.45410249773E-02  0.24043134908E-01  0.51100000000E-03 0. -1.
</event>
<event>
 8    1  0.1086486E+005  0.1043930E+01  0.7957747E-01            NaN
         13   -1    0    0    0    0  0.00000000000E+00  0.00000000000E+00  0.74505805969E-08  0.10566000000E+00  0.10566000000E+00 0. -1.
     999900   -1    0    0    0    0 -0.00000000000E+00 -0.00000000000E+00 -0.74505805969E-08  0.93827000000E+00  0.93827000000E+00 0. -1.
     999902    2    1    2    0    0  0.71357924223E-02 -0.39841438932E-02  0.22392759582E-01  0.10200924536E+01  0.10198138974E+01 0.  0.
     999903    2    3    3    0    0  0.35516700812E-01  0.10374192011E+00  0.70353967610E-01  0.13177344655E+00  0.19767104814E-01 0.  0.
         14    1    1    2    0    0 -0.71357924223E-02  0.39841438932E-02 -0.22392759582E-01  0.23837546387E-01  0.00000000000E+00 0.  1.
     999901    1    3    3    0    0 -0.28380908390E-01 -0.10772606401E+00 -0.47961208028E-01  0.88831900706E+00  0.88000000000E+00 0.  1.
        -11    1    4    4    0    0  0.29440423593E-02  0.44818083610E-03  0.28303961320E-02  0.41401104743E-02  0.51100000000E-03 0. -1.
         11    1    4    4    0    0  0.32572658453E-01  0.10329373928E+00  0.67523571478E-01  0.12763333608E+00  0.51100000000E-03 0.  1.
</event>
<event>
 8    1  0.1086486E+005  0.1043930E+01  0.7957747E-01            NaN
         13   -1    0    0    0    0  0.00000000000E+00  0.00000000000E+00  0.74505805969E-08  0.10566000000E+00  0.10566000000E+00 0.  1.
     999900   -1    0    0    0    0 -0.00000000000E+00 -0.00000000000E+00 -0.74505805969E-08  0.93827000000E+00  0.93827000000E+00 0.  1.
     999902    2    1    2    0    0 -0.22319669909E-01  0.70847654583E-02 -0.93545469771E-02  0.10187135547E+01  0.10184014127E+01 0.  0.
     999903    2    3    3    0    0  0.90825143734E-01  0.60559778711E-01 -0.64162340934E-01  0.12817146123E+00  0.19860109438E-01 0.  0.
         14    1    1    2    0    0  0.22319669909E-01 -0.70847654583E-02  0.93545469771E-02  0.25216445341E-01  0.00000000000E+00 0.  1.
     999901    1    3    3    0    0 -0.11314481364E+00 -0.53475013253E-01  0.54807793957E-01  0.89054209343E+00  0.88000000000E+00 0. -1.
        -11    1    4    4    0    0  0.76787795124E-01  0.48932942451E-01 -0.44472948607E-01  0.10133559402E+00  0.51100000000E-03 0.  1.
         11    1    4    4    0    0  0.14037348610E-01  0.11626836260E-01 -0.19689392327E-01  0.26835867205E-01  0.51100000000E-03 0. -1.
</event>
<event>
 8    1  0.1086486E+005  0.1043930E+01  0.7957747E-01            NaN
         13   -1    0    0    0    0  0.00000000000E+00  0.00000000000E+00  0.74505805969E-08  0.10566000000E+00  0.10566000000E+00 0. -1.
     999900   -1    0    0    0    0 -0.00000000000E+00 -0.00000000000E+00 -0.74505805969E-08  0.93827000000E+00  0.93827000000E+00 0. -1.
     999902    2    1    2    0    0 -0.34517468003E-03  0.21690932661E-01 -0.94122878224E-02  0.10202824448E+01  0.10200083629E+01 0.  0.
     999903    2    3    3    0    0  0.37246441397E-01  0.28615299088E-01  0.11957508200E+00  0.13005841792E+00  0.20269659543E-01 0.  0.
         14    1    1    2    0    0  0.34517468003E-03 -0.21690932661E-01  0.94122878224E-02  0.23647555208E-01  0.00000000000E+00 0. -1.
     999901    1    3    3    0    0 -0.37591616077E-01 -0.69243664276E-02 -0.12898736982E+00  0.89022402687E+00  0.88000000000E+00 0. -1.
        -11    1    4    4    0    0 -0.10048766196E-02  0.69878572600E-02  0.20064621717E-01  0.21276515028E-01  0.51100000000E-03 0.  1.
         11    1    4    4    0    0  0.38251318017E-01  0.21627441828E-01  0.99510460282E-01  0.10878190289E+00  0.51100000000E-03 0. -1.
</event>
<event>
 8    1  0.1086486E+005  0.1043930E+01  0.7957747E-01            NaN
         13   -1    0    0    0    0  0.00000000000E+00  0.00000000000E+00  0.74505805969E-08  0.10566000000E+00  0.10566000000E+00 0. -1.
     999900   -1    0    0    0    0 -0.00000000000E+00 -0.00000000000E+00 -0.74505805969E-08  0.93827000000E+00  0.93827000000E+00 0. -1.
     999902    2    1    2    0    0  0.22333123779E-01  0.54688459553E-02 -0.74061023576E-02  0.10197736955E+01  0.10194875492E+01 0.  0.
     999903    2    3    3    0    0 -0.75292975620E-01 -0.38245602310E-01  0.90630698564E-01  0.12789196424E+00  0.31791079252E-01 0.  0.
         14    1    1    2    0    0 -0.22333123779E-01 -0.54688459553E-02  0.74061023576E-02  0.24156304476E-01  0.00000000000E+00 0. -1.
     999901    1    3    3    0    0  0.97626099399E-01  0.43714448266E-01 -0.98036800922E-01  0.89188173129E+00  0.88000000000E+00 0. -1.
        -11    1    4    4    0    0 -0.24972303162E-02 -0.99438781444E-02  0.20477820155E-01  0.22906748157E-01  0.51100000000E-03 0.  1.
         11    1    4    4    0    0 -0.72795745304E-01 -0.28301724166E-01  0.70152878409E-01  0.10498521608E+00  0.51100000000E-03 0. -1.
</event>
<event>
 7    1  0.1086486E+005  0.1043930E+01  0.7957747E-01            NaN
         13   -1    0    0    0    0  0.00000000000E+00  0.00000000000E+00  0.74505805969E-08  0.10566000000E+00  0.10566000000E+00 0.  1.
     999900   -1    0    0    0    0 -0.00000000000E+00 -0.00000000000E+00 -0.74505805969E-08  0.93827000000E+00  0.93827000000E+00 0.  1.
     999903    2    1    2    0    0 -0.11560265859E+00 -0.21294361779E-01  0.19984470233E-02  0.11935808416E+00  0.20613926077E-01 0.  0.
         14    1    1    2    0    0  0.25350128923E-01 -0.23902078008E-01 -0.16795418915E-01  0.38678475487E-01  0.00000000000E+00 0. -1.
     999901    1    1    2    0    0  0.90252529663E-01  0.45196439787E-01  0.14796971891E-01  0.88589344035E+00  0.88000000000E+00 0.  1.
        -11    1    3    3    0    0 -0.22556097340E-01 -0.36684549886E-02  0.86074572697E-02  0.24425079956E-01  0.51100000000E-03 0.  1.
         11    1    3    3    0    0 -0.93046561247E-01 -0.17625906791E-01 -0.66090102464E-02  0.94933004205E-01  0.51100000000E-03 0. -1.
</event>
<event>
 8    1  0.1086486E+005  0.1043930E+01  0.7957747E-01            NaN
         13   -1    0    0    0    0  0.00000000000E+00  0.00000000000E+00  0.74505805969E-08  0.10566000000E+00  0.10566000000E+00 0.  1.
     999900   -1    0    0    0    0 -0.00000000000E+00 -0.00000000000E+00 -0.74505805969E-08  0.93827000000E+00  0.93827000000E+00 0. -1.
     999902    2    1    2    0    0  0.16420205361E-01  0.14557027787E-01  0.89160642347E-02  0.10202440041E+01  0.10199690198E+01 0.  0.
     999903    2    3    3    0    0  0.10379317770E+00  0.80438862627E-01 -0.10018630734E-01  0.13326431144E+00  0.20385518938E-01 0.  0.
         14    1    1    2    0    0 -0.16420205361E-01 -0.14557027787E-01 -0.89160642347E-02  0.23685995937E-01  0.00000000000E+00 0. -1.
     999901    1    3    3    0    0 -0.87372972343E-01 -0.65881834840E-01  0.18934694969E-01  0.88697969263E+00  0.88000000000E+00 0. -1.
        -11    1    4    4    0    0  0.29458247183E-01  0.34673431274E-01 -0.57839127509E-02  0.45866653803E-01  0.51100000000E-03 0. -1.
         11    1    4    4    0    0  0.74334930520E-01  0.45765431353E-01 -0.42347179835E-02  0.87397657633E-01  0.51100000000E-03 0.  1.
</event>
<event>
 8    1  0.1086486E+005  0.1043930E+01  0.7957747E-01            NaN
         13   -1    0    0    0    0  0.00000000000E+00  0.00000000000E+00  0.74505805969E-08  0.10566000000E+00  0.10566000000E+00 0. -1.
     999900   -1    0    0    0    0 -0.00000000000E+00 -0.00000000000E+00 -0.74505805969E-08  0.93827000000E+00  0.93827000000E+00 0. -1.
     999902    2    1    2    0    0 -0.20705667681E-01 -0.72879768018E-02  0.89861308605E-02  0.10202110239E+01  0.10199352643E+01 0.  0.
     999903    2    3    3    0    0 -0.84691120084E-01  0.89945793220E-01  0.41832298659E-01  0.13193887252E+00  0.19876954798E-01 0.  0.
         14    1    1    2    0    0  0.20705667681E-01  0.72879768018E-02 -0.89861308605E-02  0.23718976113E-01  0.00000000000E+00 0. -1.
     999901    1    3    3    0    0  0.63985452403E-01 -0.97233770022E-01 -0.32846167799E-01  0.88827215137E+00  0.88000000000E+00 0. -1.
        -11    1    4    4    0    0 -0.35297237922E-01  0.37376312426E-01  0.27815929744E-01  0.58454005885E-01  0.51100000000E-03 0.  1.
         11    1    4    4    0    0 -0.49393882163E-01  0.52569480795E-01  0.14016368915E-01  0.73484866637E-01  0.51100000000E-03 0. -1.
</event>
<event>
 8    1  0.1086486E+005  0.1043930E+01  0.7957747E-01            NaN
         13   -1    0    0    0    0  0.00000000000E+00  0.00000000000E+00  0.74505805969E-08  0.10566000000E+00  0.10566000000E+00 0. -1.
     999900   -1    0    0    0    0 -0.00000000000E+00 -0.00000000000E+00 -0.74505805969E-08  0.93827000000E+00  0.93827000000E+00 0. -1.
     999902    2    1    2    0    0  0.16673416552E-01  0.75153403510E-02 -0.15435876586E-01  0.10199978157E+01  0.10197170169E+01 0.  0.
     999903    2    3    3    0    0  0.71886089624E-01  0.18296312494E-01 -0.10874036766E+00  0.13327892185E+00  0.20891111017E-01 0.  0.
         14    1    1    2    0    0 -0.16673416552E-01 -0.75153403510E-02  0.15435876586E-01  0.23932184314E-01  0.00000000000E+00 0. -1.
     999901    1    3    3    0    0 -0.55212673072E-01 -0.10780972143E-01  0.93304491071E-01  0.88671889383E+00  0.88000000000E+00 0.  1.
        -11    1    4    4    0    0  0.68125000453E-01  0.22040994878E-01 -0.10300849060E+00  0.12545051374E+00  0.51100000000E-03 0. -1.
         11    1    4    4    0    0  0.37610891712E-02 -0.37446823840E-02 -0.57318770572E-02  0.78284081082E-02  0.51100000000E-03 0.  1.
</event>
<event>
 8    1  0.1086486E+005  0.1043930E+01  0.7957747E-01            NaN
         13   -1    0    0    0    0  0.00000000000E+00  0.00000000000E+00  0.74505805969E-08  0.10566000000E+00  0.10566000000E+00 0.  1.
     999900   -1    0    0    0    0 -0.00000000000E+00 -0.00000000000E+00 -0.74505805969E-08  0.93827000000E+00  0.93827000000E+00 0.  1.
     999902    2    1    2    0    0  0.21912521708E-03  0.60555183625E-02 -0.21774554178E-01  0.10213280415E+01  0.10210779205E+01 0.  0.
     999903    2    3    3    0    0  0.20872753400E-01 -0.10227807088E+00  0.73528321847E-01  0.12933848041E+00  0.20628930706E-01 0.  0.
         14    1    1    2    0    0 -0.21912521708E-03 -0.60555183625E-02  0.21774554178E-01  0.22601958503E-01  0.00000000000E+00 0.  1.
     999901    1    3    3    0    0 -0.20653628183E-01  0.10833358925E+00 -0.95302876026E-01  0.89198956109E+00  0.88000000000E+00 0. -1.
        -11    1    4    4    0    0 -0.36074199771E-02 -0.20651199955E-01  0.11337056648E-01  0.23838530007E-01  0.51100000000E-03 0. -1.
         11    1    4    4    0    0  0.24480173377E-01 -0.81626870928E-01  0.62191265199E-01  0.10549995040E+00  0.51100000000E-03 0.  1.
</event>
<event>
 8    1  0.1086486E+005  0.1043930E+01  0.7957747E-01            NaN
         13   -1    0    0    0    0  0.00000000000E+00  0.00000000000E+00  0.74505805969E-08  0.10566000000E+00  0.10566000000E+00 0.  1.
     999900   -1    0    0    0    0 -0.00000000000E+00 -0.00000000000E+00 -0.74505805969E-08  0.93827000000E+00  0.93827000000E+00 0.  1.
     999902    2    1    2    0    0 -0.18289847947E-02 -0.68015176946E-02 -0.23724132639E-01  0.10191824689E+01  0.10188819679E+01 0.  0.
     999903    2    3    3    0    0  0.12759482054E+00  0.66118758867E-02 -0.85478833495E-02  0.12948546478E+00  0.19216246974E-01 0.  0.
         14    1    1    2    0    0  0.18289847947E-02  0.68015176946E-02  0.23724132639E-01  0.24747531146E-01  0.00000000000E+00 0.  1.
     999901    1    3    3    0    0 -0.12942380534E+00 -0.13413393581E-01 -0.15176249290E-01  0.88969700407E+00  0.88000000000E+00 0. -1.
        -11    1    4    4    0    0  0.45143604071E-02 -0.23960053540E-02 -0.30041135223E-02  0.59503034037E-02  0.51100000000E-03 0. -1.
         11    1    4    4    0    0  0.12308046013E+00  0.90078812407E-02 -0.55437698272E-02  0.12353516138E+00  0.51100000000E-03 0.  1.
</event>
<event>
 8    1  0.1086486E+005  0.1043930E+01  0.7957747E-01            NaN
         13   -1    0    0    0    0  0.00000000000E+00  0.00000000000E+00  0.74505805969E-08  0.10566000000E+00  0.10566000000E+00 0. -1.
     999900   -1    0    0    0    0 -0.00000000000E+00 -0.00000000000E+00 -0.74505805969E-08  0.93827000000E+00  0.93827000000E+00 0. -1.
     999902    2    1    2    0    0  0.16216114663E-01  0.87147392163E-02  0.16482018173E-01  0.10192203667E+01  0.10189207967E+01 0.  0.
     999903    2    3    3    0    0 -0.11996790424E+00 -0.32848618299E-01 -0.16771008817E-01  0.12715570341E+00  0.20395499553E-01 0.  0.
         14    1    1    2    0    0 -0.16216114663E-01 -0.87147392163E-02 -0.16482018173E-01  0.24709633292E-01  0.00000000000E+00 0.  1.
     999901    1    3    3    0    0  0.13618401890E+00  0.41563357515E-01  0.33253026989E-01  0.89206466329E+00  0.88000000000E+00 0.  1.
        -11    1    4    4    0    0 -0.83700790186E-01 -0.30969113028E-01 -0.68746645316E-02  0.89512180026E-01  0.51100000000E-03 0.  1.
         11    1    4    4    0    0 -0.36267114055E-01 -0.18795052711E-02 -0.98963442854E-02  0.37643523389E-01  0.51100000000E-03 0. -1.
</event>
<event>
 8    1  0.1086486E+005  0.1043930E+01  0.7957747E-01            NaN
         13   -1    0    0    0    0  0.00000000000E+00  0.00000000000E+00  0.74505805969E-08  0.10566000000E+00  0.10566000000E+00 0.  1.
     999900   -1    0    0    0    0 -0.00000000000E+00 -0.00000000000E+00 -0.74505805969E-08  0.93827000000E+00  0.93827000000E+00 0.  1.
     999902    2    1    2    0    0 -0.10323407789E-01 -0.20441690443E-01  0.56597579948E-02  0.10203404193E+01  0.10200676953E+01 0.  0.
     999903    2    3    3    0    0 -0.65525709018E-01 -0.90520758164E-01  0.71141718618E-01  0.13340961200E+00  0.15790954514E-01 0.  0.
         14    1    1    2    0    0  0.10323407789E-01  0.20441690443E-01 -0.56597579948E-02  0.23589580690E-01  0.00000000000E+00 0. -1.
     999901    1    3    3    0    0  0.55202301229E-01  0.70079067721E-01 -0.65481960623E-01  0.88693080731E+00  0.88000000000E+00 0.  1.
        -11    1    4    4    0    0 -0.51745337552E-01 -0.76155970245E-01  0.51775723516E-01  0.10563284730E+00  0.51100000000E-03 0.  1.
         11    1    4    4    0    0 -0.13780371466E-01 -0.14364787919E-01  0.19365995103E-01  0.27776764697E-01  0.51100000000E-03 0. -1.
</event>
<event>
 8    1  0.1086486E+005  0.1043930E+01  0.7957747E-01            NaN
         13   -1    0    0    0    0  0.00000000000E+00  0.00000000000E+00  0.74505805969E-08  0.10566000000E+00  0.10566000000E+00 0.  1.
     999900   -1    0    0    0    0 -0.00000000000E+00 -0.00000000000E+00 -0.74505805969E-08  0.93827000000E+00  0.93827000000E+00 0.  1.
     999902    2    1    2    0    0  0.85392091380E-02  0.25239130856E-02 -0.21861170026E-01  0.10203249373E+01  0.10200518510E+01 0.  0.
     999903    2    3    3    0    0 -0.11523100555E+00 -0.16750397413E-01 -0.49103237594E-01  0.13103719122E+00  0.34653384945E-01 0.  0.
         14    1    1    2    0    0 -0.85392091380E-02 -0.25239130856E-02  0.21861170026E-01  0.23605062696E-01  0.00000000000E+00 0.  1.
     999901    1    3    3    0    0  0.12377021468E+00  0.19274310498E-01  0.27242067569E-01  0.88928774608E+00  0.88000000000E+00 0.  1.
        -11    1    4    4    0    0 -0.53058356896E-01  0.67656645878E-02 -0.11670203419E-01  0.54748682382E-01  0.51100000000E-03 0. -1.
         11    1    4    4    0    0 -0.62172648651E-01 -0.23516062000E-01 -0.37433034175E-01  0.76288508839E-01  0.51100000000E-03 0.  1.
</event>
<event>
 8    1  0.1086486E+005  0.1043930E+01  0.7957747E-01            NaN
         13   -1    0    0    0    0  0.00000000000E+00  0.00000000000E+00  0.74505805969E-08  0.10566000000E+00  0.10566000000E+00 0. -1.
     999900   -1    0    0    0    0 -0.00000000000E+00 -0.00000000000E+00 -0.74505805969E-08  0.93827000000E+00  0.93827000000E+00 0.  1.
     999902    2    1    2    0    0  0.89669122298E-02 -0.91723132374E-02 -0.19931489810E-01  0.10202276556E+01  0.10199522872E+01 0.  0.
     999903    2    3    3    0    0 -0.86754972841E-01  0.19732827751E-01  0.89489097396E-01  0.12783141435E+00  0.20414752939E-01 0.  0.
         14    1    1    2    0    0 -0.89669122298E-02  0.91723132374E-02  0.19931489810E-01  0.23702344422E-01  0.00000000000E+00 0. -1.
     999901    1    3    3    0    0  0.95721885071E-01 -0.28905140989E-01 -0.10942058721E+00  0.89239624123E+00  0.88000000000E+00 0. -1.
        -11    1    4    4    0    0 -0.35399747172E-01 -0.19757596877E-02  0.32414052353E-01  0.48041415852E-01  0.51100000000E-03 0. -1.
         11    1    4    4    0    0 -0.51355225670E-01  0.21708587439E-01  0.57075045043E-01  0.79789998495E-01  0.51100000000E-03 0.  1.
</event>
<event>
 8    1  0.1264023E+005  0.1043930E+01  0.7957747E-01            NaN
         13   -1    0    0    0    0  0.00000000000E+00  0.00000000000E+00  0.74505805969E-08  0.10566000000E+00  0.10566000000E+00 0.  1.
     999900   -1    0    0    0    0 -0.00000000000E+00 -0.00000000000E+00 -0.74505805969E-08  0.93827000000E+00  0.93827000000E+00 0.  1.
     999902    2    1    2    0    0 -0.16463845272E-02  0.19472885589E-01 -0.13094828200E-01  0.10204060041E+01  0.10201348121E+01 0.  0.
     999903    2    3    3    0    0 -0.42094960012E-01 -0.10305945936E-01  0.11986460487E+00  0.12900201218E+00  0.19894659195E-01 0.  0.
         14    1    1    2    0    0  0.16463845272E-02 -0.19472885589E-01  0.13094828200E-01  0.23523995850E-01  0.00000000000E+00 0.  1.
     999901    1    3    3    0    0  0.40448575484E-01  0.29778831525E-01 -0.13295943307E+00  0.89140399197E+00  0.88000000000E+00 0.  1.
        -11    1    4    4    0    0 -0.31837073295E-01 -0.85956322727E-02  0.62180950542E-01  0.70386190844E-01  0.51100000000E-03 0. -1.
         11    1    4    4    0    0 -0.10257886717E-01 -0.17103136636E-02  0.57683654328E-01  0.58615821331E-01  0.51100000000E-03 0.  1.
</event>
<event>
 8    1  0.1086486E+005  0.1043930E+01  0.7957747E-01            NaN
         13   -1    0    0    0    0  0.00000000000E+00  0.00000000000E+00  0.74505805969E-08  0.10566000000E+00  0.10566000000E+00 0.  1.
     999900   -1    0    0    0    0 -0.00000000000E+00 -0.00000000000E+00 -0.74505805969E-08  0.93827000000E+00  0.93827000000E+00 0. -1.
     999902    2    1    2    0    0  0.33272378157E-02 -0.19510081208E-02 -0.22091202595E-01  0.10215046087E+01  0.10212584234E+01 0.  0.
     999903    2    3    3    0    0 -0.60514050315E-01  0.49798211510E-01  0.10103851439E+00  0.12913998644E+00  0.18070488457E-01 0.  0.
         14    1    1    2    0    0 -0.33272378157E-02  0.19510081208E-02  0.22091202595E-01  0.22425391330E-01  0.00000000000E+00 0.  1.
     999901    1    3    3    0    0  0.63841288131E-01 -0.51749219631E-01 -0.12312971698E+00  0.89236462223E+00  0.88000000000E+00 0. -1.
        -11    1    4    4    0    0 -0.19814622295E-01  0.61700959053E-02  0.26119250154E-01  0.33364137780E-01  0.51100000000E-03 0.  1.
         11    1    4    4    0    0 -0.40699428020E-01  0.43628115605E-01  0.74919264234E-01  0.95775848661E-01  0.51100000000E-03 0. -1.
</event>
<event>
 7    1  0.1086486E+005  0.1043930E+01  0.7957747E-01            NaN
         13   -1    0    0    0    0  0.00000000000E+00  0.00000000000E+00  0.74505805969E-08  0.10566000000E+00  0.10566000000E+00 0. -1.
     999900   -1    0    0    0    0 -0.00000000000E+00 -0.00000000000E+00 -0.74505805969E-08  0.93827000000E+00  0.93827000000E+00 0.  1.
     999903    2    1    2    0    0  0.26006004161E-01  0.95935958458E-01 -0.46492557320E-01  0.11141966251E+00  0.19307069407E-01 0.  0.
         14    1    1    2    0    0  0.74289548024E-02  0.35681578850E-01 -0.16210297906E-01  0.39889073653E-01  0.00000000000E+00 0. -1.
     999901    1    1    2    0    0 -0.33434958964E-01 -0.13161753731E+00  0.62702855227E-01  0.89262126384E+00  0.88000000000E+00 0. -1.
        -11    1    3    3    0    0  0.20303203795E-01  0.41822594658E-01 -0.16836556247E-01  0.49447752785E-01  0.51100000000E-03 0. -1.
         11    1    3    3    0    0  0.57028003664E-02  0.54113363800E-01 -0.29656001074E-01  0.61971909721E-01  0.51100000000E-03 0.  1.
</event>
<event>
 8    1  0.1086486E+005  0.1043930E+01  0.7957747E-01            NaN
         13   -1    0    0    0    0  0.00000000000E+00  0.00000000000E+00  0.74505805969E-08  0.10566000000E+00  0.10566000000E+00 0.  1.
     999900   -1    0    0    0    0 -0.00000000000E+00 -0.00000000000E+00 -0.74505805969E-08  0.93827000000E+00  0.93827000000E+00 0. -1.
     999902    2    1    2    0    0  0.23512430658E-01 -0.98378908571E-03 -0.73306019735E-03  0.10203855821E+01  0.10201139135E+01 0.  0.
     999903    2    3    3    0    0 -0.54953220269E-01  0.10510643646E+00  0.47178192654E-01  0.12925849663E+00  0.20365600551E-01 0.  0.
         14    1    1    2    0    0 -0.23512430658E-01  0.98378908571E-03  0.73306019735E-03  0.23544417887E-01  0.00000000000E+00 0. -1.
     999901    1    3    3    0    0  0.78465650927E-01 -0.10609022554E+00 -0.47911252852E-01  0.89112708548E+00  0.88000000000E+00 0. -1.
        -11    1    4    4    0    0 -0.48667721518E-01  0.75312206122E-01  0.31801233508E-01  0.95142288612E-01  0.51100000000E-03 0. -1.
         11    1    4    4    0    0 -0.62854987514E-02  0.29794230337E-01  0.15376959146E-01  0.34116208018E-01  0.51100000000E-03 0.  1.
</event>
<event>
 8    1  0.1086486E+005  0.1043930E+01  0.7957747E-01            NaN
         13   -1    0    0    0    0  0.00000000000E+00  0.00000000000E+00  0.74505805969E-08  0.10566000000E+00  0.10566000000E+00 0.  1.
     999900   -1    0    0    0    0 -0.00000000000E+00 -0.00000000000E+00 -0.74505805969E-08  0.93827000000E+00  0.93827000000E+00 0.  1.
     999902    2    1    2    0    0 -0.15892365778E-02 -0.21938097902E-01 -0.58783931853E-02  0.10211624503E+01  0.10209086093E+01 0.  0.
     999903    2    3    3    0    0  0.82361420309E-01 -0.94507109143E-01  0.39161874046E-01  0.13305063311E+00  0.21303083283E-01 0.  0.
         14    1    1    2    0    0  0.15892365778E-02  0.21938097902E-01  0.58783931853E-02  0.22767549690E-01  0.00000000000E+00 0.  1.
     999901    1    3    3    0    0 -0.83950656887E-01  0.72569011241E-01 -0.45040267231E-01  0.88811181720E+00  0.88000000000E+00 0.  1.
        -11    1    4    4    0    0  0.23882858480E-01 -0.43174306658E-01  0.15199976595E-01  0.51630534513E-01  0.51100000000E-03 0. -1.
         11    1    4    4    0    0  0.58478561829E-01 -0.51332802485E-01  0.23961897451E-01  0.81420098594E-01  0.51100000000E-03 0.  1.
</event>
<event>
 8    1  0.1086486E+005  0.1043930E+01  0.7957747E-01            NaN
         13   -1    0    0    0    0  0.00000000000E+00  0.00000000000E+00  0.74505805969E-08  0.10566000000E+00  0.10566000000E+00 0. -1.
     999900   -1    0    0    0    0 -0.00000000000E+00 -0.00000000000E+00 -0.74505805969E-08  0.93827000000E+00  0.93827000000E+00 0. -1.
     999902    2    1    2    0    0 -0.19292185518E-01  0.39508596979E-02  0.13441952417E-01  0.10200871017E+01  0.10198084189E+01 0.  0.
     999903    2    3    3    0    0  0.40456059714E-01 -0.10543865995E-01  0.12277589557E+00  0.13119236046E+00  0.19739529675E-01 0.  0.
         14    1    1    2    0    0  0.19292185518E-01 -0.39508596979E-02 -0.13441952417E-01  0.23842898297E-01  0.00000000000E+00 0.  1.
     999901    1    3    3    0    0 -0.59748245232E-01  0.14494725693E-01 -0.10933394316E+00  0.88889474124E+00  0.88000000000E+00 0.  1.
        -11    1    4    4    0    0  0.37905028841E-01 -0.12804740344E-01  0.93332039054E-01  0.10154744321E+00  0.51100000000E-03 0. -1.
         11    1    4    4    0    0  0.25510308738E-02  0.22608743487E-02  0.29443856520E-01  0.29644917256E-01  0.51100000000E-03 0.  1.
</event>
<event>
 8    1  0.1086486E+005  0.1043930E+01  0.7957747E-01            NaN
         13   -1    0    0    0    0  0.00000000000E+00  0.00000000000E+00  0.74505805969E-08  0.10566000000E+00  0.10566000000E+00 0. -1.
     999900   -1    0    0    0    0 -0.00000000000E+00 -0.00000000000E+00 -0.74505805969E-08  0.93827000000E+00  0.93827000000E+00 0. -1.
     999902    2    1    2    0    0 -0.20583102841E-01 -0.10718836159E-01  0.31624539618E-02  0.10205086703E+01  0.10202398676E+01 0.  0.
     999903    2    3    3    0    0 -0.53574125681E-01 -0.10291866179E+00  0.62150387832E-01  0.13311428682E+00  0.19857108582E-01 0.  0.
         14    1    1    2    0    0  0.20583102841E-01  0.10718836159E-01 -0.31624539618E-02  0.23421329728E-01  0.00000000000E+00 0. -1.
     999901    1    3    3    0    0  0.32991022840E-01  0.92199825632E-01 -0.58987933871E-01  0.88739438345E+00  0.88000000000E+00 0. -1.
        -11    1    4    4    0    0 -0.21539008414E-01 -0.55445906932E-01  0.23185773645E-01  0.63843705246E-01  0.51100000000E-03 0.  1.
         11    1    4    4    0    0 -0.32035117267E-01 -0.47472754859E-01  0.38964614188E-01  0.69270581577E-01  0.51100000000E-03 0. -1.
</event>
<event>
 8    1  0.1086486E+005  0.1043930E+01  0.7957747E-01            NaN
         13   -1    0    0    0    0  0.00000000000E+00  0.00000000000E+00  0.74505805969E-08  0.10566000000E+00  0.10566000000E+00 0.  1.
     999900   -1    0    0    0    0 -0.00000000000E+00 -0.00000000000E+00 -0.74505805969E-08  0.93827000000E+00  0.93827000000E+00 0.  1.
     999902    2    1    2    0    0  0.60626568119E-02  0.41221935917E-02 -0.20718141204E-01  0.10219529742E+01  0.10217166397E+01 0.  0.
     999903    2    3    3    0    0  0.10020817734E+00  0.84622074670E-01 -0.99861479021E-02  0.13321297535E+00  0.21057049280E-01 0.  0.
         14    1    1    2    0    0 -0.60626568119E-02 -0.41221935917E-02  0.20718141204E-01  0.21977025790E-01  0.00000000000E+00 0.  1.
     999901    1    3    3    0    0 -0.94145520530E-01 -0.80499881079E-01 -0.10731993302E-01  0.88873999886E+00  0.88000000000E+00 0. -1.
        -11    1    4    4    0    0  0.79984344651E-01  0.56200900692E-01 -0.10538150653E-01  0.98322684910E-01  0.51100000000E-03 0. -1.
         11    1    4    4    0    0  0.20223832691E-01  0.28421173979E-01  0.55200275141E-03  0.34890290442E-01  0.51100000000E-03 0.  1.
</event>
<event>
 8    1  0.1086486E+005  0.1043930E+01  0.7957747E-01            NaN
         13   -1    0    0    0    0  0.00000000000E+00  0.00000000000E+00  0.74505805969E-08  0.10566000000E+00  0.10566000000E+00 0.  1.
     999900   -1    0    0    0    0 -0.00000000000E+00 -0.00000000000E+00 -0.74505805969E-08  0.93827000000E+00  0.93827000000E+00 0. -1.
     999902    2    1    2    0    0 -0.24576242622E-01 -0.38854662509E-02 -0.23816215184E-03  0.10190473701E+01  0.10187435385E+01 0.  0.
     999903    2    3    3    0    0  0.83719719855E-01  0.42022843357E-01  0.83887992655E-01  0.12724425377E+00  0.19467766928E-01 0.  0.
         14    1    1    2    0    0  0.24576242622E-01  0.38854662509E-02  0.23816215184E-03  0.24882629898E-01  0.00000000000E+00 0. -1.
     999901    1    3    3    0    0 -0.10829596248E+00 -0.45908309608E-01 -0.84126154807E-01  0.89180311633E+00  0.88000000000E+00 0.  1.
        -11    1    4    4    0    0  0.84363974177E-02  0.11620037570E-01  0.14917564906E-01  0.20712144704E-01  0.51100000000E-03 0.  1.
         11    1    4    4    0    0  0.75283322437E-01  0.30402805786E-01  0.68970427749E-01  0.10653210906E+00  0.51100000000E-03 0. -1.
</event>
<event>
 8    1  0.1086486E+005  0.1043930E+01  0.7957747E-01            NaN
         13   -1    0    0    0    0  0.00000000000E+00  0.00000000000E+00  0.74505805969E-08  0.10566000000E+00  0.10566000000E+00 0. -1.
     999900   -1    0    0    0    0 -0.00000000000E+00 -0.00000000000E+00 -0.74505805969E-08  0.93827000000E+00  0.93827000000E+00 0. -1.
     999902    2    1    2    0    0 -0.90807781889E-02 -0.35317871580E-03  0.20141171747E-01  0.10218335734E+01  0.10215946357E+01 0.  0.
     999903    2    3    3    0    0 -0.38428031061E-01 -0.10932230209E+00  0.63373128052E-01  0.13357430208E+00  0.19946466120E-01 0.  0.
         14    1    1    2    0    0  0.90807781889E-02  0.35317871580E-03 -0.20141171747E-01  0.22096426568E-01  0.00000000000E+00 0.  1.
     999901    1    3    3    0    0  0.29347252872E-01  0.10896912338E+00 -0.43231956304E-01  0.88825927135E+00  0.88000000000E+00 0. -1.
        -11    1    4    4    0    0 -0.44443539875E-02 -0.39453364013E-01  0.17962765475E-01  0.43580296910E-01  0.51100000000E-03 0.  1.
         11    1    4    4    0    0 -0.33983677074E-01 -0.69868938079E-01  0.45410362577E-01  0.89994005168E-01  0.51100000000E-03 0. -1.
</event>
<event>
 8    1  0.1086486E+005  0.1043930E+01  0.7957747E-01            NaN
         13   -1    0    0    0    0  0.00000000000E+00  0.00000000000E+00  0.74505805969E-08  0.10566000000E+00  0.10566000000E+00 0. -1.
     999900   -1    0    0    0    0 -0.00000000000E+00 -0.00000000000E+00 -0.74505805969E-08  0.93827000000E+00  0.93827000000E+00 0. -1.
     999902    2    1    2    0    0 -0.15110925518E-01  0.18072054423E-01  0.60163354945E-03  0.10203651706E+01  0.10200930253E+01 0.  0.
     999903    2    3    3    0    0  0.12105813802E+00  0.30219607133E-01 -0.28062433570E-01  0.12934822036E+00  0.19369163511E-01 0.  0.
         14    1    1    2    0    0  0.15110925518E-01 -0.18072054423E-01 -0.60163354945E-03  0.23564829386E-01  0.00000000000E+00 0. -1.
     999901    1    3    3    0    0 -0.13616906354E+00 -0.12147552710E-01  0.28664067119E-01  0.89101695026E+00  0.88000000000E+00 0.  1.
        -11    1    4    4    0    0  0.55642970800E-01  0.45718596076E-02 -0.15755709474E-01  0.58013322623E-01  0.51100000000E-03 0. -1.
         11    1    4    4    0    0  0.65415167221E-01  0.25647747525E-01 -0.12306724096E-01  0.71334897734E-01  0.51100000000E-03 0.  1.
</event>
<event>
 8    1  0.1086486E+005  0.1043930E+01  0.7957747E-01            NaN
         13   -1    0    0    0    0  0.00000000000E+00  0.00000000000E+00  0.74505805969E-08  0.10566000000E+00  0.10566000000E+00 0.  1.
     999900   -1    0    0    0    0 -0.00000000000E+00 -0.00000000000E+00 -0.74505805969E-08  0.93827000000E+00  0.93827000000E+00 0.  1.
     999902    2    1    2    0    0  0.10237742038E-01 -0.21297329363E-01 -0.37804625918E-02  0.10199992771E+01  0.10197185130E+01 0.  0.
     999903    2    3    3    0    0  0.17975429309E-01  0.24621921966E-02  0.12740343592E+00  0.12992422304E+00  0.17874277583E-01 0.  0.
         14    1    1    2    0    0 -0.10237742038E-01  0.21297329363E-01  0.37804625918E-02  0.23930722877E-01  0.00000000000E+00 0.  1.
     999901    1    3    3    0    0 -0.77376872716E-02 -0.23759521559E-01 -0.13118389851E+00  0.89007505408E+00  0.88000000000E+00 0.  1.
        -11    1    4    4    0    0  0.17168488544E-01  0.84737919991E-02  0.88620259924E-01  0.90666276750E-01  0.51100000000E-03 0.  1.
         11    1    4    4    0    0  0.80694076520E-03 -0.60115998025E-02  0.38783175997E-01  0.39257946291E-01  0.51100000000E-03 0. -1.
</event>
<event>
 8    1  0.1086486E+005  0.1043930E+01  0.7957747E-01            NaN
         13   -1    0    0    0    0  0.00000000000E+00  0.00000000000E+00  0.74505805969E-08  0.10566000000E+00  0.10566000000E+00 0.  1.
     999900   -1    0    0    0    0 -0.00000000000E+00 -0.00000000000E+00 -0.74505805969E-08  0.93827000000E+00  0.93827000000E+00 0.  1.
     999902    2    1    2    0    0  0.21590871224E-01  0.13453328691E-02  0.98161434431E-02  0.10201743204E+01  0.10198976967E+01 0.  0.
     999903    2    3    3    0    0 -0.32917519073E-02  0.75006469862E-01  0.10613119389E+00  0.13151145015E+00  0.19865171816E-01 0.  0.
         14    1    1    2    0    0 -0.21590871224E-01 -0.13453328691E-02 -0.98161434431E-02  0.23755679592E-01  0.00000000000E+00 0.  1.
     999901    1    3    3    0    0  0.24882623132E-01 -0.73661136993E-01 -0.96315050449E-01  0.88866287026E+00  0.88000000000E+00 0.  1.
        -11    1    4    4    0    0 -0.50599027742E-02  0.25001077273E-01  0.22318235754E-01  0.33897215949E-01  0.51100000000E-03 0. -1.
         11    1    4    4    0    0  0.17681508669E-02  0.50005392589E-01  0.83812958138E-01  0.97614234199E-01  0.51100000000E-03 0.  1.
</event>
<event>
 8    1  0.1086486E+005  0.1043930E+01  0.7957747E-01            NaN
         13   -1    0    0    0    0  0.00000000000E+00  0.00000000000E+00  0.74505805969E-08  0.10566000000E+00  0.10566000000E+00 0.  1.
     999900   -1    0    0    0    0 -0.00000000000E+00 -0.00000000000E+00 -0.74505805969E-08  0.93827000000E+00  0.93827000000E+00 0.  1.
     999902    2    1    2    0    0  0.14732469539E-01 -0.10510394997E-01  0.57925596458E-02  0.10249282156E+01  0.10247520575E+01 0.  0.
     999903    2    3    3    0    0 -0.10128611510E+00 -0.50362668725E-01 -0.67830212599E-01  0.13337405110E+00  0.19809700991E-01 0.  0.
         14    1    1    2    0    0 -0.14732469539E-01  0.10510394997E-01 -0.57925596458E-02  0.19001784363E-01  0.00000000000E+00 0. -1.
     999901    1    3    3    0    0  0.11601858464E+00  0.39852273728E-01  0.73622772245E-01  0.89155416453E+00  0.88000000000E+00 0. -1.
        -11    1    4    4    0    0 -0.64095222101E-01 -0.35257793823E-01 -0.53954474411E-01  0.90899152644E-01  0.51100000000E-03 0. -1.
         11    1    4    4    0    0 -0.37190893000E-01 -0.15104874902E-01 -0.13875738189E-01  0.42474898460E-01  0.51100000000E-03 0.  1.
</event>
<event>
 8    1  0.1086486E+005  0.1043930E+01  0.7957747E-01            NaN
         13   -1    0    0    0    0  0.00000000000E+00  0.00000000000E+00  0.74505805969E-08  0.10566000000E+00  0.10566000000E+00 0. -1.
     999900   -1    0    0    0    0 -0.00000000000E+00 -0.00000000000E+00 -0.74505805969E-08  0.93827000000E+00  0.93827000000E+00 0.  1.
     999902    2    1    2    0    0  0.23623917821E-02  0.21054121671E-01  0.10002667737E-01  0.10205011653E+01  0.10202321883E+01 0.  0.
     999903    2    3    3    0    0 -0.46081068265E-01 -0.37665877434E-01 -0.11220931713E+00  0.12880021970E+00  0.21363112334E-01 0.  0.
         14    1    1    2    0    0 -0.23623917821E-02 -0.21054121671E-01 -0.10002667737E-01  0.23428834716E-01  0.00000000000E+00 0.  1.
     999901    1    3    3    0    0  0.48443460047E-01  0.58719999106E-01  0.12221198486E+00  0.89170094559E+00  0.88000000000E+00 0.  1.
        -11    1    4    4    0    0 -0.10961087729E-01 -0.56647693548E-02 -0.43803860435E-01  0.45511255377E-01  0.51100000000E-03 0. -1.
         11    1    4    4    0    0 -0.35119980536E-01 -0.32001108080E-01 -0.68405456693E-01  0.83288964320E-01  0.51100000000E-03 0.  1.
</event>
<event>
 8    1  0.1086486E+005  0.1043930E+01  0.7957747E-01            NaN
         13   -1    0    0    0    0  0.00000000000E+00  0.00000000000E+00  0.74505805969E-08  0.10566000000E+00  0.10566000000E+00 0.  1.
     999900   -1    0    0    0    0 -0.00000000000E+00 -0.00000000000E+00 -0.74505805969E-08  0.93827000000E+00  0.93827000000E+00 0. -1.
     999902    2    1    2    0    0  0.70946694534E-02  0.41319174807E-02  0.22424904955E-01  0.10200493920E+01  0.10197698165E+01 0.  0.
     999903    2    3    3    0    0 -0.30233161575E-01  0.11403954169E+00 -0.49085276711E-01  0.12955135218E+00  0.21333713507E-01 0.  0.
         14    1    1    2    0    0 -0.70946694534E-02 -0.41319174807E-02 -0.22424904955E-01  0.23880608011E-01  0.00000000000E+00 0. -1.
     999901    1    3    3    0    0  0.37327831028E-01 -0.10990762421E+00  0.71510181666E-01  0.89049803981E+00  0.88000000000E+00 0.  1.
        -11    1    4    4    0    0 -0.10717129331E-01  0.12859160137E-01 -0.50701176538E-02  0.17498059165E-01  0.51100000000E-03 0.  1.
         11    1    4    4    0    0 -0.19516032244E-01  0.10118038156E+00 -0.44015159057E-01  0.11205329301E+00  0.51100000000E-03 0. -1.
</event>
<event>
 8    1  0.1086486E+005  0.1043930E+01  0.7957747E-01            NaN
         13   -1    0    0    0    0  0.00000000000E+00  0.00000000000E+00  0.74505805969E-08  0.10566000000E+00  0.10566000000E+00 0. -1.
     999900   -1    0    0    0    0 -0.00000000000E+00 -0.00000000000E+00 -0.74505805969E-08  0.93827000000E+00  0.93827000000E+00 0.  1.
     999902    2    1    2    0    0  0.36011422399E-02  0.23284200037E-01  0.75450465140E-02  0.10191903572E+01  0.10188900502E+01 0.  0.
     999903    2    3    3    0    0 -0.11499483293E+00  0.56432480756E-01  0.15930076631E-01  0.13057676148E+00  0.19699919086E-01 0.  0.
         14    1    1    2    0    0 -0.36011422399E-02 -0.23284200037E-01 -0.75450465140E-02  0.24739642756E-01  0.00000000000E+00 0. -1.
     999901    1    3    3    0    0  0.11859597517E+00 -0.33148280719E-01 -0.83850301171E-02  0.88861359576E+00  0.88000000000E+00 0. -1.
        -11    1    4    4    0    0 -0.15058040132E-01  0.15123251928E-01  0.59637698239E-03  0.21355891646E-01  0.51100000000E-03 0. -1.
         11    1    4    4    0    0 -0.99936792803E-01  0.41309228828E-01  0.15333699649E-01  0.10922086984E+00  0.51100000000E-03 0.  1.
</event>
<event>
 8    1  0.1086486E+005  0.1043930E+01  0.7957747E-01            NaN
         13   -1    0    0    0    0  0.00000000000E+00  0.00000000000E+00  0.74505805969E-08  0.10566000000E+00  0.10566000000E+00 0. -1.
     999900   -1    0    0    0    0 -0.00000000000E+00 -0.00000000000E+00 -0.74505805969E-08  0.93827000000E+00  0.93827000000E+00 0. -1.
     999902    2    1    2    0    0 -0.16264687355E-01  0.17076090557E-01 -0.70789241404E-03  0.10203369070E+01  0.10200641009E+01 0.  0.
     999903    2    3    3    0    0  0.11767759677E+00  0.12918339862E-01  0.46676103008E-01  0.12893179971E+00  0.20732826590E-01 0.  0.
         14    1    1    2    0    0  0.16264687355E-01 -0.17076090557E-01  0.70789241404E-03  0.23593092954E-01  0.00000000000E+00 0. -1.
     999901    1    3    3    0    0 -0.13394228412E+00  0.41577506947E-02 -0.47383995422E-01  0.89140510734E+00  0.88000000000E+00 0.  1.
        -11    1    4    4    0    0  0.40895182072E-01  0.38652021357E-02  0.58385231237E-02  0.41493435355E-01  0.51100000000E-03 0. -1.
         11    1    4    4    0    0  0.76782414694E-01  0.90531377267E-02  0.40837579884E-01  0.87438364353E-01  0.51100000000E-03 0.  1.
</event>
<event>
 8    1  0.1086486E+005  0.1043930E+01  0.7957747E-01            NaN
         13   -1    0    0    0    0  0.00000000000E+00  0.00000000000E+00  0.74505805969E-08  0.10566000000E+00  0.10566000000E+00 0. -1.
     999900   -1    0    0    0    0 -0.00000000000E+00 -0.00000000000E+00 -0.74505805969E-08  0.93827000000E+00  0.93827000000E+00 0.  1.
     999902    2    1    2    0    0  0.15523648349E-01 -0.78274457680E-02  0.16489947655E-01  0.10199681357E+01  0.10196866318E+01 0.  0.
     999903    2    3    3    0    0 -0.73289307627E-01 -0.10394199906E+00  0.20884513117E-01  0.13027995401E+00  0.19011621359E-01 0.  0.
         14    1    1    2    0    0 -0.15523648349E-01  0.78274457680E-02 -0.16489947655E-01  0.23961864264E-01  0.00000000000E+00 0.  1.
     999901    1    3    3    0    0  0.88812955977E-01  0.96114553292E-01 -0.43945654624E-02  0.88968818173E+00  0.88000000000E+00 0.  1.
        -11    1    4    4    0    0 -0.71809855937E-01 -0.93176079662E-01  0.17841380256E-01  0.11898324757E+00  0.51100000000E-03 0. -1.
         11    1    4    4    0    0 -0.14794516898E-02 -0.10765919398E-01  0.30431328616E-02  0.11296706440E-01  0.51100000000E-03 0.  1.
</event>
<event>
 8    1  0.1086486E+005  0.1043930E+01  0.7957747E-01            NaN
         13   -1    0    0    0    0  0.00000000000E+00  0.00000000000E+00  0.74505805969E-08  0.10566000000E+00  0.10566000000E+00 0. -1.
     999900   -1    0    0    0    0 -0.00000000000E+00 -0.00000000000E+00 -0.74505805969E-08  0.93827000000E+00  0.93827000000E+00 0. -1.
     999902    2    1    2    0    0 -0.11387867824E-01 -0.85913380667E-02 -0.18183861747E-01  0.10208183698E+01  0.10205567092E+01 0.  0.
     999903    2    3    3    0    0 -0.12057356577E+00  0.38619990831E-02  0.45353190526E-01  0.13171007533E+00  0.27161227049E-01 0.  0.
         14    1    1    2    0    0  0.11387867824E-01  0.85913380667E-02  0.18183861747E-01  0.23111630219E-01  0.00000000000E+00 0. -1.
     999901    1    3    3    0    0  0.10918569794E+00 -0.12453337150E-01 -0.63537052272E-01  0.88910829445E+00  0.88000000000E+00 0.  1.
        -11    1    4    4    0    0 -0.34978315010E-01 -0.92128980808E-02  0.20702840735E-01  0.41680076146E-01  0.51100000000E-03 0. -1.
         11    1    4    4    0    0 -0.85595250758E-01  0.13074897164E-01  0.24650349791E-01  0.90029999189E-01  0.51100000000E-03 0.  1.
</event>
<event>
 7    1  0.1628678E+005  0.1043930E+01  0.7957747E-01            NaN
         13   -1    0    0    0    0  0.00000000000E+00  0.00000000000E+00  0.74505805969E-08  0.10566000000E+00  0.10566000000E+00 0.  1.
     999900   -1    0    0    0    0 -0.00000000000E+00 -0.00000000000E+00 -0.74505805969E-08  0.93827000000E+00  0.93827000000E+00 0.  1.
     999903    2    1    2    0    0 -0.70787326656E-01  0.57045354874E-01 -0.49662774422E-01  0.10547745691E+00  0.19851564787E-01 0.  0.
         14    1    1    2    0    0  0.38170206582E-01 -0.19509364868E-01 -0.31680298681E-01  0.53303107908E-01  0.00000000000E+00 0. -1.
     999901    1    1    2    0    0  0.32617120073E-01 -0.37535990006E-01  0.81343073103E-01  0.88514943519E+00  0.88000000000E+00 0. -1.
        -11    1    3    3    0    0 -0.28424633828E-01  0.26401431530E-01 -0.10627985548E-01  0.40226988365E-01  0.51100000000E-03 0. -1.
         11    1    3    3    0    0 -0.42362692827E-01  0.30643923344E-01 -0.39034788874E-01  0.65250468542E-01  0.51100000000E-03 0.  1.
</event>
<event>
 8    1  0.1086486E+005  0.1043930E+01  0.7957747E-01            NaN
         13   -1    0    0    0    0  0.00000000000E+00  0.00000000000E+00  0.74505805969E-08  0.10566000000E+00  0.10566000000E+00 0. -1.
     999900   -1    0    0    0    0 -0.00000000000E+00 -0.00000000000E+00 -0.74505805969E-08  0.93827000000E+00  0.93827000000E+00 0. -1.
     999902    2    1    2    0    0  0.15852177511E-01 -0.21452767925E-01  0.18552627862E-02  0.10171913616E+01  0.10168398651E+01 0.  0.
     999903    2    3    3    0    0  0.10301969884E+00 -0.72625695308E-01 -0.29051211708E-01  0.13086633350E+00  0.19861378976E-01 0.  0.
         14    1    1    2    0    0 -0.15852177511E-01  0.21452767925E-01 -0.18552627862E-02  0.26738638400E-01  0.00000000000E+00 0. -1.
     999901    1    3    3    0    0 -0.87167521324E-01  0.51172927383E-01  0.30906474494E-01  0.88632502810E+00  0.88000000000E+00 0.  1.
        -11    1    4    4    0    0  0.79953237601E-01 -0.48526612564E-01 -0.15260543401E-01  0.94765487577E-01  0.51100000000E-03 0.  1.
         11    1    4    4    0    0  0.23066461234E-01 -0.24099082744E-01 -0.13790668307E-01  0.36100845922E-01  0.51100000000E-03 0. -1.
</event>
<event>
 8    1  0.1086486E+005  0.1043930E+01  0.7957747E-01            NaN
         13   -1    0    0    0    0  0.00000000000E+00  0.00000000000E+00  0.74505805969E-08  0.10566000000E+00  0.10566000000E+00 0. -1.
     999900   -1    0    0    0    0 -0.00000000000E+00 -0.00000000000E+00 -0.74505805969E-08  0.93827000000E+00  0.93827000000E+00 0.  1.
     999902    2    1    2    0    0 -0.17793064988E-01 -0.14741417899E-01  0.57017462835E-02  0.10201305783E+01  0.10198529229E+01 0.  0.
     999903    2    3    3    0    0  0.93142329531E-01 -0.72932105285E-01 -0.48481585777E-01  0.12960901688E+00  0.21294308275E-01 0.  0.
         14    1    1    2    0    0  0.17793064988E-01  0.14741417899E-01 -0.57017462835E-02  0.23799421716E-01  0.00000000000E+00 0. -1.
     999901    1    3    3    0    0 -0.11093539452E+00  0.58190687386E-01  0.54183332060E-01  0.89052156141E+00  0.88000000000E+00 0. -1.
        -11    1    4    4    0    0  0.35698148879E-01 -0.18472303210E-01 -0.23693454738E-01  0.46660740860E-01  0.51100000000E-03 0.  1.
         11    1    4    4    0    0  0.57444180652E-01 -0.54459802075E-01 -0.24788131039E-01  0.82948276017E-01  0.51100000000E-03 0. -1.
</event>
<event>
 8    1  0.1086486E+005  0.1043930E+01  0.7957747E-01            NaN
         13   -1    0    0    0    0  0.00000000000E+00  0.00000000000E+00  0.74505805969E-08  0.10566000000E+00  0.10566000000E+00 0.  1.
     999900   -1    0    0    0    0 -0.00000000000E+00 -0.00000000000E+00 -0.74505805969E-08  0.93827000000E+00  0.93827000000E+00 0. -1.
     999902    2    1    2    0    0 -0.24373052731E-01 -0.67107811818E-02  0.60740801182E-02  0.10179304859E+01  0.10175983979E+01 0.  0.
     999903    2    3    3    0    0  0.55076318628E-01  0.89830155721E-01 -0.66392196309E-01  0.12614367488E+00  0.20036098221E-01 0.  0.
         14    1    1    2    0    0  0.24373052731E-01  0.67107811818E-02 -0.60740801182E-02  0.25999514087E-01  0.00000000000E+00 0. -1.
     999901    1    3    3    0    0 -0.79449371359E-01 -0.96540936903E-01  0.72466276427E-01  0.89178681103E+00  0.88000000000E+00 0.  1.
        -11    1    4    4    0    0  0.53473445322E-01  0.78219191149E-01 -0.53915934029E-01  0.10901761455E+00  0.51100000000E-03 0.  1.
         11    1    4    4    0    0  0.16028733063E-02  0.11610964572E-01 -0.12476262280E-01  0.17126060335E-01  0.51100000000E-03 0. -1.
</event>
<event>
 8    1  0.1086486E+005  0.1043930E+01  0.7957747E-01            NaN
         13   -1    0    0    0    0  0.00000000000E+00  0.00000000000E+00  0.74505805969E-08  0.10566000000E+00  0.10566000000E+00 0.  1.
     999900   -1    0    0    0    0 -0.00000000000E+00 -0.00000000000E+00 -0.74505805969E-08  0.93827000000E+00  0.93827000000E+00 0. -1.
     999902    2    1    2    0    0 -0.93520215251E-02  0.11081731010E-01 -0.10051852243E-01  0.10262861682E+01  0.10261344913E+01 0.  0.
     999903    2    3    3    0    0 -0.12337249268E+00 -0.44416860714E-01  0.30720949399E-01  0.13626190844E+00  0.20734066017E-01 0.  0.
         14    1    1    2    0    0  0.93520215251E-02 -0.11081731010E-01  0.10051852243E-01  0.17643831848E-01  0.00000000000E+00 0.  1.
     999901    1    3    3    0    0  0.11402047115E+00  0.55498591724E-01 -0.40772801642E-01  0.89002425971E+00  0.88000000000E+00 0.  1.
        -11    1    4    4    0    0 -0.32030613823E-01 -0.11005649246E-01 -0.12054245316E-02  0.33893933182E-01  0.51100000000E-03 0. -1.
         11    1    4    4    0    0 -0.91341878856E-01 -0.33411211468E-01  0.31926373931E-01  0.10236797526E+00  0.51100000000E-03 0.  1.
</event>
<event>
 8    1  0.1086486E+005  0.1043930E+01  0.7957747E-01            NaN
         13   -1    0    0    0    0  0.00000000000E+00  0.00000000000E+00  0.74505805969E-08  0.10566000000E+00  0.10566000000E+00 0. -1.
     999900   -1    0    0    0    0 -0.00000000000E+00 -0.00000000000E+00 -0.74505805969E-08  0.93827000000E+00  0.93827000000E+00 0. -1.
     999902    2    1    2    0    0  0.19015631363E-01  0.12219115562E-01  0.97844791950E-02  0.10192999969E+01  0.10190023781E+01 0.  0.
     999903    2    3    3    0    0 -0.60044898768E-03 -0.44079351392E-02  0.12923453725E+00  0.13085778389E+00  0.20059998874E-01 0.  0.
         14    1    1    2    0    0 -0.19015631363E-01 -0.12219115562E-01 -0.97844791950E-02  0.24630003134E-01  0.00000000000E+00 0.  1.
     999901    1    3    3    0    0  0.19616080351E-01  0.16627050701E-01 -0.11945005806E+00  0.88844221297E+00  0.88000000000E+00 0. -1.
        -11    1    4    4    0    0 -0.76534724648E-02 -0.40906005166E-02  0.11032168713E+00  0.11066365449E+00  0.51100000000E-03 0. -1.
         11    1    4    4    0    0  0.70530234771E-02 -0.31733462253E-03  0.18912850126E-01  0.20194129402E-01  0.51100000000E-03 0.  1.
</event>
<event>
 8    1  0.1086486E+005  0.1043930E+01  0.7957747E-01            NaN
         13   -1    0    0    0    0  0.00000000000E+00  0.00000000000E+00  0.74505805969E-08  0.10566000000E+00  0.10566000000E+00 0.  1.
     999900   -1    0    0    0    0 -0.00000000000E+00 -0.00000000000E+00 -0.74505805969E-08  0.93827000000E+00  0.93827000000E+00 0.  1.
     999902    2    1    2    0    0  0.11641722229E-01 -0.17611737840E-01  0.11162206158E-01  0.10200490902E+01  0.10197695076E+01 0.  0.
     999903    2    3    3    0    0 -0.72827777761E-02  0.76532211162E-01 -0.10013271261E+00  0.12785640991E+00  0.20260385560E-01 0.  0.
         14    1    1    2    0    0 -0.11641722229E-01  0.17611737840E-01 -0.11162206158E-01  0.23880909793E-01  0.00000000000E+00 0.  1.
     999901    1    3    3    0    0  0.18924500006E-01 -0.94143949002E-01  0.11129491877E+00  0.89219268030E+00  0.88000000000E+00 0.  1.
        -11    1    4    4    0    0  0.36924622229E-02  0.45963733967E-01 -0.49076356259E-01  0.67342772308E-01  0.51100000000E-03 0. -1.
         11    1    4    4    0    0 -0.10975239999E-01  0.30568477195E-01 -0.51056356350E-01  0.60513637602E-01  0.51100000000E-03 0.  1.
</event>
<event>
 8    1  0.1086486E+005  0.1043930E+01  0.7957747E-01            NaN
         13   -1    0    0    0    0  0.00000000000E+00  0.00000000000E+00  0.74505805969E-08  0.10566000000E+00  0.10566000000E+00 0. -1.
     999900   -1    0    0    0    0 -0.00000000000E+00 -0.00000000000E+00 -0.74505805969E-08  0.93827000000E+00  0.93827000000E+00 0.  1.
     999902    2    1    2    0    0 -0.14887705102E-01  0.16743802224E-01 -0.72146791267E-02  0.10203917275E+01  0.10201202024E+01 0.  0.
     999903    2    3    3    0    0  0.11625484012E+00 -0.34496681189E-01 -0.37654721530E-01  0.12867958200E+00  0.20864992326E-01 0.  0.
         14    1    1    2    0    0  0.14887705102E-01 -0.16743802224E-01  0.72146791267E-02  0.23538272473E-01  0.00000000000E+00 0. -1.
     999901    1    3    3    0    0 -0.13114254522E+00  0.51240483412E-01  0.30440042403E-01  0.89171214553E+00  0.88000000000E+00 0.  1.
        -11    1    4    4    0    0  0.94087629298E-01 -0.25662658841E-01 -0.21527125581E-01  0.99873581604E-01  0.51100000000E-03 0.  1.
         11    1    4    4    0    0  0.22167210822E-01 -0.88340223476E-02 -0.16127595949E-01  0.28806000391E-01  0.51100000000E-03 0. -1.
</event>
<event>
 8    1  0.1086486E+005  0.1043930E+01  0.7957747E-01            NaN
         13   -1    0    0    0    0  0.00000000000E+00  0.00000000000E+00  0.74505805969E-08  0.10566000000E+00  0.10566000000E+00 0.  1.
     999900   -1    0    0    0    0 -0.00000000000E+00 -0.00000000000E+00 -0.74505805969E-08  0.93827000000E+00  0.93827000000E+00 0.  1.
     999902    2    1    2    0    0  0.14901810604E-01  0.77631856248E-02  0.24446496241E-01  0.10142658434E+01  0.10138319579E+01 0.  0.
     999903    2    3    3    0    0  0.81658907936E-01  0.30896959698E-01  0.92615585971E-01  0.12880624161E+00  0.19763647167E-01 0.  0.
         14    1    1    2    0    0 -0.14901810604E-01 -0.77631856248E-02 -0.24446496241E-01  0.29664156633E-01  0.00000000000E+00 0. -1.
     999901    1    3    3    0    0 -0.66757097331E-01 -0.23133774074E-01 -0.68169089730E-01  0.88545960176E+00  0.88000000000E+00 0.  1.
        -11    1    4    4    0    0  0.17289923644E-01 -0.16615030290E-02  0.18461730500E-01  0.25353474436E-01  0.51100000000E-03 0.  1.
         11    1    4    4    0    0  0.64368984292E-01  0.32558462727E-01  0.74153855471E-01  0.10345276717E+00  0.51100000000E-03 0. -1.
</event>
<event>
 8    1  0.1086486E+005  0.1043930E+01  0.7957747E-01            NaN
         13   -1    0    0    0    0  0.00000000000E+00  0.00000000000E+00  0.74505805969E-08  0.10566000000E+00  0.10566000000E+00 0.  1.
     999900   -1    0    0    0    0 -0.00000000000E+00 -0.00000000000E+00 -0.74505805969E-08  0.93827000000E+00  0.93827000000E+00 0. -1.
     999902    2    1    2    0    0  0.16185098052E-01 -0.16987476142E-01 -0.23924367088E-03  0.10204653674E+01  0.10201955583E+01 0.  0.
     999903    2    3    3    0    0 -0.62871948588E-01 -0.56468522761E-01  0.97736623227E-01  0.13062940492E+00  0.19235850055E-01 0.  0.
         14    1    1    2    0    0 -0.16185098052E-01  0.16987476142E-01  0.23924367088E-03  0.23464632581E-01  0.00000000000E+00 0. -1.
     999901    1    3    3    0    0  0.79057046640E-01  0.39481046619E-01 -0.97975866898E-01  0.88983596250E+00  0.88000000000E+00 0. -1.
        -11    1    4    4    0    0 -0.42396031628E-01 -0.43224305126E-01  0.80650581126E-01  0.10084910217E+00  0.51100000000E-03 0. -1.
         11    1    4    4    0    0 -0.20475916960E-01 -0.13244217635E-01  0.17086042101E-01  0.29780302748E-01  0.51100000000E-03 0.  1.
</event>
<event>
 8    1  0.1086486E+005  0.1043930E+01  0.7957747E-01            NaN
         13   -1    0    0    0    0  0.00000000000E+00  0.00000000000E+00  0.74505805969E-08  0.10566000000E+00  0.10566000000E+00 0. -1.
     999900   -1    0    0    0    0 -0.00000000000E+00 -0.00000000000E+00 -0.74505805969E-08  0.93827000000E+00  0.93827000000E+00 0.  1.
     999902    2    1    2    0    0  0.28254106874E-02 -0.19259109232E-01 -0.13217800776E-01  0.10204011562E+01  0.10201298511E+01 0.  0.
     999903    2    3    3    0    0  0.11793593049E-01 -0.93366838661E-01  0.88342458466E-01  0.13142035205E+00  0.24707560935E-01 0.  0.
         14    1    1    2    0    0 -0.28254106874E-02  0.19259109232E-01  0.13217800776E-01  0.23528843816E-01  0.00000000000E+00 0. -1.
     999901    1    3    3    0    0 -0.89681823614E-02  0.74107729429E-01 -0.10156025924E+00  0.88898080413E+00  0.88000000000E+00 0.  1.
        -11    1    4    4    0    0 -0.27787081185E-02 -0.65821499202E-01  0.64282879336E-01  0.92047491398E-01  0.51100000000E-03 0.  1.
         11    1    4    4    0    0  0.14572301167E-01 -0.27545339459E-01  0.24059579131E-01  0.39372860655E-01  0.51100000000E-03 0. -1.
</event>
<event>
 8    1  0.1086486E+005  0.1043930E+01  0.7957747E-01            NaN
         13   -1    0    0    0    0  0.00000000000E+00  0.00000000000E+00  0.74505805969E-08  0.10566000000E+00  0.10566000000E+00 0. -1.
     999900   -1    0    0    0    0 -0.00000000000E+00 -0.00000000000E+00 -0.74505805969E-08  0.93827000000E+00  0.93827000000E+00 0.  1.
     999902    2    1    2    0    0  0.79186177678E-02 -0.14878755196E-01 -0.16381234526E-01  0.10204262406E+01  0.10201555204E+01 0.  0.
     999903    2    3    3    0    0  0.54286686547E-01  0.11066686046E+00  0.31037474561E-01  0.12904515853E+00  0.22251511704E-01 0.  0.
         14    1    1    2    0    0 -0.79186177678E-02  0.14878755196E-01  0.16381234526E-01  0.23503759446E-01  0.00000000000E+00 0. -1.
     999901    1    3    3    0    0 -0.46368068779E-01 -0.12554561566E+00 -0.47418709087E-01  0.89138108202E+00  0.88000000000E+00 0. -1.
        -11    1    4    4    0    0  0.38256994112E-01  0.66474026384E-01  0.28968274229E-01  0.81986680717E-01  0.51100000000E-03 0.  1.
         11    1    4    4    0    0  0.16029692434E-01  0.44192834077E-01  0.20692003316E-02  0.47058477816E-01  0.51100000000E-03 0. -1.
</event>
<event>
 8    1  0.1086486E+005  0.1043930E+01  0.7957747E-01            NaN
         13   -1    0    0    0    0  0.00000000000E+00  0.00000000000E+00  0.74505805969E-08  0.10566000000E+00  0.10566000000E+00 0.  1.
     999900   -1    0    0    0    0 -0.00000000000E+00 -0.00000000000E+00 -0.74505805969E-08  0.93827000000E+00  0.93827000000E+00 0.  1.
     999902    2    1    2    0    0 -0.37238284998E-02  0.21515066158E-01 -0.11420219837E-01  0.10192888476E+01  0.10189909560E+01 0.  0.
     999903    2    3    3    0    0 -0.10167853149E+00 -0.59014473383E-01  0.47544867016E-01  0.12824619315E+00  0.19113865226E-01 0.  0.
         14    1    1    2    0    0  0.37238284998E-02 -0.21515066158E-01  0.11420219837E-01  0.24641152400E-01  0.00000000000E+00 0. -1.
     999901    1    3    3    0    0  0.97954702991E-01  0.80529539541E-01 -0.58965086853E-01  0.89104265445E+00  0.88000000000E+00 0. -1.
        -11    1    4    4    0    0 -0.45392966393E-01 -0.35097984988E-01  0.16772896356E-01  0.59782782817E-01  0.51100000000E-03 0.  1.
         11    1    4    4    0    0 -0.56285565098E-01 -0.23916488394E-01  0.30771970660E-01  0.68463410336E-01  0.51100000000E-03 0. -1.
</event>
<event>
 8    1  0.1086486E+005  0.1043930E+01  0.7957747E-01            NaN
         13   -1    0    0    0    0  0.00000000000E+00  0.00000000000E+00  0.74505805969E-08  0.10566000000E+00  0.10566000000E+00 0.  1.
     999900   -1    0    0    0    0 -0.00000000000E+00 -0.00000000000E+00 -0.74505805969E-08  0.93827000000E+00  0.93827000000E+00 0. -1.
     999902    2    1    2    0    0 -0.12828849700E-01 -0.17152852777E-01 -0.10127144655E-01  0.10202369883E+01  0.10199618393E+01 0.  0.
     999903    2    3    3    0    0 -0.14832027321E-02  0.98485792982E-01 -0.82743849303E-01  0.12963370634E+00  0.16021919767E-01 0.  0.
         14    1    1    2    0    0  0.12828849700E-01  0.17152852777E-01  0.10127144655E-01  0.23693011667E-01  0.00000000000E+00 0.  1.
     999901    1    3    3    0    0 -0.11345646968E-01 -0.11563864576E+00  0.72616704648E-01  0.89060328199E+00  0.88000000000E+00 0.  1.
        -11    1    4    4    0    0  0.55388675177E-03  0.90535566288E-01 -0.80397167987E-01  0.12108245659E+00  0.51100000000E-03 0. -1.
         11    1    4    4    0    0 -0.20370894839E-02  0.79502266944E-02 -0.23466813155E-02  0.85512497481E-02  0.51100000000E-03 0.  1.
</event>
<event>
 8    1  0.1086486E+005  0.1043930E+01  0.7957747E-01            NaN
         13   -1    0    0    0    0  0.00000000000E+00  0.00000000000E+00  0.74505805969E-08  0.10566000000E+00  0.10566000000E+00 0.  1.
     999900   -1    0    0    0    0 -0.00000000000E+00 -0.00000000000E+00 -0.74505805969E-08  0.93827000000E+00  0.93827000000E+00 0. -1.
     999902    2    1    2    0    0  0.19017654185E-01  0.76022597558E-02 -0.11578772965E-01  0.10204027072E+01  0.10201314383E+01 0.  0.
     999903    2    3    3    0    0 -0.79082913273E-01 -0.95772029804E-01 -0.27339441076E-01  0.12879833094E+00  0.20375871734E-01 0.  0.
         14    1    1    2    0    0 -0.19017654185E-01 -0.76022597558E-02  0.11578772965E-01  0.23527292821E-01  0.00000000000E+00 0. -1.
     999901    1    3    3    0    0  0.98100567459E-01  0.10337428956E+00  0.15760668111E-01  0.89160437624E+00  0.88000000000E+00 0. -1.
        -11    1    4    4    0    0 -0.41094193243E-01 -0.54272430398E-01 -0.49954676439E-02  0.68260129194E-01  0.51100000000E-03 0. -1.
         11    1    4    4    0    0 -0.37988720030E-01 -0.41499599406E-01 -0.22343973432E-01  0.60538201741E-01  0.51100000000E-03 0.  1.
</event>
<event>
 8    1  0.1086486E+005  0.1043930E+01  0.7957747E-01            NaN
         13   -1    0    0    0    0  0.00000000000E+00  0.00000000000E+00  0.74505805969E-08  0.10566000000E+00  0.10566000000E+00 0.  1.
     999900   -1    0    0    0    0 -0.00000000000E+00 -0.00000000000E+00 -0.74505805969E-08  0.93827000000E+00  0.93827000000E+00 0.  1.
     999902    2    1    2    0    0  0.15251967613E-01  0.16330371206E-01 -0.10722258879E-01  0.10191455215E+01  0.10188441115E+01 0.  0.
     999903    2    3    3    0    0  0.77015479491E-01  0.10509185053E+00 -0.14189368141E-01  0.13251969710E+00  0.19607417578E-01 0.  0.
         14    1    1    2    0    0 -0.15251967613E-01 -0.16330371206E-01  0.10722258879E-01  0.24784478515E-01  0.00000000000E+00 0.  1.
     999901    1    3    3    0    0 -0.61763511877E-01 -0.88761479321E-01  0.34671092624E-02  0.88662582438E+00  0.88000000000E+00 0.  1.
        -11    1    4    4    0    0  0.39550028326E-01  0.38154757136E-01 -0.35014189257E-02  0.55068242101E-01  0.51100000000E-03 0. -1.
         11    1    4    4    0    0  0.37465451165E-01  0.66937093392E-01 -0.10687949215E-01  0.77451455003E-01  0.51100000000E-03 0.  1.
</event>
<event>
 8    1  0.1086486E+005  0.1043930E+01  0.7957747E-01            NaN
         13   -1    0    0    0    0  0.00000000000E+00  0.00000000000E+00  0.74505805969E-08  0.10566000000E+00  0.10566000000E+00 0. -1.
     999900   -1    0    0    0    0 -0.00000000000E+00 -0.00000000000E+00 -0.74505805969E-08  0.93827000000E+00  0.93827000000E+00 0. -1.
     999902    2    1    2    0    0  0.11831383567E-01  0.19144932797E-01 -0.42597204624E-02  0.10210246446E+01  0.10207676864E+01 0.  0.
     999903    2    3    3    0    0  0.90520189484E-01  0.83967939365E-02  0.93698509345E-01  0.13203461906E+00  0.19731171403E-01 0.  0.
         14    1    1    2    0    0 -0.11831383567E-01 -0.19144932797E-01  0.42597204624E-02  0.22905355429E-01  0.00000000000E+00 0. -1.
     999901    1    3    3    0    0 -0.78688805917E-01  0.10748138860E-01 -0.97958229808E-01  0.88899002551E+00  0.88000000000E+00 0. -1.
        -11    1    4    4    0    0  0.28613255925E-01  0.11916451706E-01  0.30055350793E-01  0.43177603780E-01  0.51100000000E-03 0.  1.
         11    1    4    4    0    0  0.61906933559E-01 -0.35196577695E-02  0.63643158552E-01  0.88857015283E-01  0.51100000000E-03 0. -1.
</event>
<event>
 8    1  0.1086486E+005  0.1043930E+01  0.7957747E-01            NaN
         13   -1    0    0    0    0  0.00000000000E+00  0.00000000000E+00  0.74505805969E-08  0.10566000000E+00  0.10566000000E+00 0. -1.
     999900   -1    0    0    0    0 -0.00000000000E+00 -0.00000000000E+00 -0.74505805969E-08  0.93827000000E+00  0.93827000000E+00 0.  1.
     999902    2    1    2    0    0  0.59540468620E-03 -0.11854230107E-01  0.20223894797E-01  0.10204804115E+01  0.10202109523E+01 0.  0.
     999903    2    3    3    0    0 -0.92355581394E-02  0.69030546734E-01  0.11024503015E+00  0.13214331349E+00  0.21386367431E-01 0.  0.
         14    1    1    2    0    0 -0.59540468620E-03  0.11854230107E-01 -0.20223894797E-01  0.23449588460E-01  0.00000000000E+00 0.  1.
     999901    1    3    3    0    0  0.98309628256E-02 -0.80884776841E-01 -0.90021135353E-01  0.88833709805E+00  0.88000000000E+00 0.  1.
        -11    1    4    4    0    0 -0.83670803001E-02  0.25229904789E-01  0.59060323785E-01  0.64768349485E-01  0.51100000000E-03 0. -1.
         11    1    4    4    0    0 -0.86847783923E-03  0.43800641946E-01  0.51184706365E-01  0.67374964009E-01  0.51100000000E-03 0.  1.
</event>
<event>
 8    1  0.1086486E+005  0.1043930E+01  0.7957747E-01            NaN
         13   -1    0    0    0    0  0.00000000000E+00  0.00000000000E+00  0.74505805969E-08  0.10566000000E+00  0.10566000000E+00 0.  1.
     999900   -1    0    0    0    0 -0.00000000000E+00 -0.00000000000E+00 -0.74505805969E-08  0.93827000000E+00  0.93827000000E+00 0.  1.
     999902    2    1    2    0    0  0.14832503411E-01  0.16992829349E-01 -0.59978526645E-02  0.10205904704E+01  0.10203235637E+01 0.  0.
     999903    2    3    3    0    0 -0.10226085797E+00  0.61659149619E-01  0.47893068345E-01  0.13007928750E+00  0.19176580464E-01 0.  0.
         14    1    1    2    0    0 -0.14832503411E-01 -0.16992829349E-01  0.59978526645E-02  0.23339529629E-01  0.00000000000E+00 0.  1.
     999901    1    3    3    0    0  0.11709336138E+00 -0.44666320270E-01 -0.53890921009E-01  0.89051118287E+00  0.88000000000E+00 0.  1.
        -11    1    4    4    0    0 -0.72357944536E-01  0.52846834544E-01  0.38427028723E-01  0.97495424078E-01  0.51100000000E-03 0.  1.
         11    1    4    4    0    0 -0.29902913430E-01  0.88123150750E-02  0.94660396222E-02  0.32583863425E-01  0.51100000000E-03 0. -1.
</event>
<event>
 8    1  0.1086486E+005  0.1043930E+01  0.7957747E-01            NaN
         13   -1    0    0    0    0  0.00000000000E+00  0.00000000000E+00  0.74505805969E-08  0.10566000000E+00  0.10566000000E+00 0.  1.
     999900   -1    0    0    0    0 -0.00000000000E+00 -0.00000000000E+00 -0.74505805969E-08  0.93827000000E+00  0.93827000000E+00 0.  1.
     999902    2    1    2    0    0  0.73368195617E-02 -0.22546998818E-01 -0.83562664954E-02  0.10187899271E+01  0.10184796965E+01 0.  0.
     999903    2    3    3    0    0  0.10299861688E+00 -0.26376205049E-02  0.75680584775E-01  0.12940263507E+00  0.20045421663E-01 0.  0.
         14    1    1    2    0    0 -0.73368195617E-02  0.22546998818E-01  0.83562664954E-02  0.25140072926E-01  0.00000000000E+00 0.  1.
     999901    1    3    3    0    0 -0.95661797318E-01 -0.19909378313E-01 -0.84036851271E-01  0.88938729201E+00  0.88000000000E+00 0. -1.
        -11    1    4    4    0    0  0.83378549821E-01 -0.10611255957E-02  0.50682047575E-01  0.97580938841E-01  0.51100000000E-03 0. -1.
         11    1    4    4    0    0  0.19620067058E-01 -0.15764949092E-02  0.24998537201E-01  0.31821696227E-01  0.51100000000E-03 0.  1.
</event>
<event>
 8    1  0.1086486E+005  0.1043930E+01  0.7957747E-01            NaN
         13   -1    0    0    0    0  0.00000000000E+00  0.00000000000E+00  0.74505805969E-08  0.10566000000E+00  0.10566000000E+00 0. -1.
     999900   -1    0    0    0    0 -0.00000000000E+00 -0.00000000000E+00 -0.74505805969E-08  0.93827000000E+00  0.93827000000E+00 0.  1.
     999902    2    1    2    0    0 -0.10311478214E-01 -0.14283854268E-02 -0.21638687379E-01  0.10199175103E+01  0.10196348014E+01 0.  0.
     999903    2    3    3    0    0  0.11384212874E+00  0.36668471821E-01 -0.46955214275E-01  0.13002627251E+00  0.19935703953E-01 0.  0.
         14    1    1    2    0    0  0.10311478214E-01  0.14283854268E-02  0.21638687379E-01  0.24012489654E-01  0.00000000000E+00 0. -1.
     999901    1    3    3    0    0 -0.12415360695E+00 -0.38096857248E-01  0.25316526895E-01  0.88989123784E+00  0.88000000000E+00 0. -1.
        -11    1    4    4    0    0  0.68526151108E-01  0.21926080896E-01 -0.17660729004E-01  0.74086090996E-01  0.51100000000E-03 0.  1.
         11    1    4    4    0    0  0.45315977633E-01  0.14742390925E-01 -0.29294485271E-01  0.55940181509E-01  0.51100000000E-03 0. -1.
</event>
<event>
 8    1  0.1086486E+005  0.1043930E+01  0.7957747E-01            NaN
         13   -1    0    0    0    0  0.00000000000E+00  0.00000000000E+00  0.74505805969E-08  0.10566000000E+00  0.10566000000E+00 0. -1.
     999900   -1    0    0    0    0 -0.00000000000E+00 -0.00000000000E+00 -0.74505805969E-08  0.93827000000E+00  0.93827000000E+00 0. -1.
     999902    2    1    2    0    0 -0.72189898565E-02 -0.24097271122E-02 -0.22269448713E-01  0.10203960045E+01  0.10201245792E+01 0.  0.
     999903    2    3    3    0    0  0.99498851009E-01 -0.56302924933E-01 -0.61670012988E-01  0.13143842461E+00  0.20070581832E-01 0.  0.
         14    1    1    2    0    0  0.72189898565E-02  0.24097271122E-02  0.22269448713E-01  0.23533995523E-01  0.00000000000E+00 0. -1.
     999901    1    3    3    0    0 -0.10671784087E+00  0.53893197820E-01  0.39400564275E-01  0.88895757986E+00  0.88000000000E+00 0. -1.
        -11    1    4    4    0    0  0.28327759782E-01 -0.69420204584E-02 -0.19630717268E-01  0.35160770807E-01  0.51100000000E-03 0. -1.
         11    1    4    4    0    0  0.71171091227E-01 -0.49360904474E-01 -0.42039295720E-01  0.96277653807E-01  0.51100000000E-03 0.  1.
</event>
<event>
 8    1  0.1086486E+005  0.1043930E+01  0.7957747E-01            NaN
         13   -1    0    0    0    0  0.00000000000E+00  0.00000000000E+00  0.74505805969E-08  0.10566000000E+00  0.10566000000E+00 0.  1.
     999900   -1    0    0    0    0 -0.00000000000E+00 -0.00000000000E+00 -0.74505805969E-08  0.93827000000E+00  0.93827000000E+00 0. -1.
     999902    2    1    2    0    0 -0.57237140899E-02  0.51258472129E-02  0.20870860685E-01  0.10216897653E+01  0.10214476729E+01 0.  0.
     999903    2    3    3    0    0 -0.67353914373E-01  0.70701925596E-02  0.11451385769E+00  0.13457586455E+00  0.20265791684E-01 0.  0.
         14    1    1    2    0    0  0.57237140899E-02 -0.51258472129E-02 -0.20870860685E-01  0.22240234674E-01  0.00000000000E+00 0. -1.
     999901    1    3    3    0    0  0.61630200283E-01 -0.19443453467E-02 -0.93642997001E-01  0.88711390078E+00  0.88000000000E+00 0. -1.
        -11    1    4    4    0    0 -0.17282189678E-01 -0.53324729823E-02  0.40498258547E-01  0.44356278186E-01  0.51100000000E-03 0.  1.
         11    1    4    4    0    0 -0.50071724695E-01  0.12402665542E-01  0.74015599139E-01  0.90219586362E-01  0.51100000000E-03 0. -1.
</event>
<event>
 8    1  0.1086486E+005  0.1043930E+01  0.7957747E-01            NaN
         13   -1    0    0    0    0  0.00000000000E+00  0.00000000000E+00  0.74505805969E-08  0.10566000000E+00  0.10566000000E+00 0. -1.
     999900   -1    0    0    0    0 -0.00000000000E+00 -0.00000000000E+00 -0.74505805969E-08  0.93827000000E+00  0.93827000000E+00 0. -1.
     999902    2    1    2    0    0  0.15194981464E-01  0.16327030826E-01  0.77417317258E-02  0.10203208110E+01  0.10200476280E+01 0.  0.
     999903    2    3    3    0    0  0.85586913731E-01 -0.16761887520E-01 -0.95188216441E-01  0.13091400028E+00  0.21716312868E-01 0.  0.
         14    1    1    2    0    0 -0.15194981464E-01 -0.16327030826E-01 -0.77417317258E-02  0.23609189046E-01  0.00000000000E+00 0.  1.
     999901    1    3    3    0    0 -0.70391932267E-01  0.33088918347E-01  0.10292994817E+00  0.88940681068E+00  0.88000000000E+00 0.  1.
        -11    1    4    4    0    0  0.50550475132E-02  0.42731298902E-02 -0.72477029281E-02  0.98287060773E-02  0.51100000000E-03 0. -1.
         11    1    4    4    0    0  0.80531866217E-01 -0.21035017411E-01 -0.87940513513E-01  0.12108529420E+00  0.51100000000E-03 0.  1.
</event>
<event>
 8    1  0.1086486E+005  0.1043930E+01  0.7957747E-01            NaN
         13   -1    0    0    0    0  0.00000000000E+00  0.00000000000E+00  0.74505805969E-08  0.10566000000E+00  0.10566000000E+00 0.  1.
     999900   -1    0    0    0    0 -0.00000000000E+00 -0.00000000000E+00 -0.74505805969E-08  0.93827000000E+00  0.93827000000E+00 0. -1.
     999902    2    1    2    0    0  0.13861002029E-01 -0.65939819481E-02 -0.21637972457E-01  0.10174005856E+01  0.10170546405E+01 0.  0.
     999903    2    3    3    0    0  0.29148934360E-01  0.11328237448E+00 -0.49161142515E-01  0.12871527203E+00  0.21639005934E-01 0.  0.
         14    1    1    2    0    0 -0.13861002029E-01  0.65939819481E-02  0.21637972457E-01  0.26529414378E-01  0.00000000000E+00 0.  1.
     999901    1    3    3    0    0 -0.15287932331E-01 -0.11987635643E+00  0.27523170058E-01  0.88868531359E+00  0.88000000000E+00 0.  1.
        -11    1    4    4    0    0  0.99430395758E-02  0.60370742682E-01 -0.35688171526E-01  0.70833588896E-01  0.51100000000E-03 0. -1.
         11    1    4    4    0    0  0.19205894784E-01  0.52911631799E-01 -0.13472970989E-01  0.57881683133E-01  0.51100000000E-03 0.  1.
</event>
<event>
 8    1  0.1086486E+005  0.1043930E+01  0.7957747E-01            NaN
         13   -1    0    0    0    0  0.00000000000E+00  0.00000000000E+00  0.74505805969E-08  0.10566000000E+00  0.10566000000E+00 0. -1.
     999900   -1    0    0    0    0 -0.00000000000E+00 -0.00000000000E+00 -0.74505805969E-08  0.93827000000E+00  0.93827000000E+00 0.  1.
     999902    2    1    2    0    0  0.27897835720E-02  0.14879355762E-01 -0.11980692754E-01  0.10246241688E+01  0.10244422737E+01 0.  0.
     999903    2    3    3    0    0  0.86562582207E-01  0.99261747872E-01  0.26240368197E-01  0.13580522243E+00  0.20212033225E-01 0.  0.
         14    1    1    2    0    0 -0.27897835720E-02 -0.14879355762E-01  0.11980692754E-01  0.19305831221E-01  0.00000000000E+00 0. -1.
     999901    1    3    3    0    0 -0.83772798635E-01 -0.84382392110E-01 -0.38221060952E-01  0.88881894635E+00  0.88000000000E+00 0. -1.
        -11    1    4    4    0    0  0.23815758110E-01  0.15947990622E-01  0.20753728954E-02  0.28741903780E-01  0.51100000000E-03 0. -1.
         11    1    4    4    0    0  0.62746824096E-01  0.83313757249E-01  0.24164995302E-01  0.10706331865E+00  0.51100000000E-03 0.  1.
</event>
<event>
 8    1  0.1086486E+005  0.1043930E+01  0.7957747E-01            NaN
         13   -1    0    0    0    0  0.00000000000E+00  0.00000000000E+00  0.74505805969E-08  0.10566000000E+00  0.10566000000E+00 0. -1.
     999900   -1    0    0    0    0 -0.00000000000E+00 -0.00000000000E+00 -0.74505805969E-08  0.93827000000E+00  0.93827000000E+00 0. -1.
     999902    2    1    2    0    0  0.17987765508E-01  0.98668106786E-02  0.11740497933E-01  0.10202920442E+01  0.10200181874E+01 0.  0.
     999903    2    3    3    0    0  0.10075154569E+00  0.84680070741E-01 -0.11651998137E-02  0.13315427352E+00  0.20177079237E-01 0.  0.
         14    1    1    2    0    0 -0.17987765508E-01 -0.98668106786E-02 -0.11740497933E-01  0.23637955763E-01  0.00000000000E+00 0.  1.
     999901    1    3    3    0    0 -0.82763780187E-01 -0.74813260062E-01  0.12905697747E-01  0.88713777071E+00  0.88000000000E+00 0. -1.
        -11    1    4    4    0    0  0.20645296152E-01  0.27771243792E-01  0.34622194285E-02  0.34781005151E-01  0.51100000000E-03 0. -1.
         11    1    4    4    0    0  0.80106249543E-01  0.56908826949E-01 -0.46274192422E-02  0.98373268373E-01  0.51100000000E-03 0.  1.
</event>
<event>
 8    1  0.1086486E+005  0.1043930E+01  0.7957747E-01            NaN
         13   -1    0    0    0    0  0.00000000000E+00  0.00000000000E+00  0.74505805969E-08  0.10566000000E+00  0.10566000000E+00 0.  1.
     999900   -1    0    0    0    0 -0.00000000000E+00 -0.00000000000E+00 -0.74505805969E-08  0.93827000000E+00  0.93827000000E+00 0.  1.
     999902    2    1    2    0    0 -0.57617749946E-02  0.22821687092E-01  0.86957850504E-03  0.10203761549E+01  0.10201042662E+01 0.  0.
     999903    2    3    3    0    0  0.12331061974E+00 -0.17276438232E-01  0.34477780641E-01  0.12942326388E+00  0.75947098161E-02 0.  0.
         14    1    1    2    0    0  0.57617749946E-02 -0.22821687092E-01 -0.86957850504E-03  0.23553845113E-01  0.00000000000E+00 0. -1.
     999901    1    3    3    0    0 -0.12907239474E+00  0.40098125324E-01 -0.33608202136E-01  0.89095289100E+00  0.88000000000E+00 0.  1.
        -11    1    4    4    0    0  0.98195070194E-01 -0.11901640953E-01  0.29846158384E-01  0.10331977138E+00  0.51100000000E-03 0. -1.
         11    1    4    4    0    0  0.25115549548E-01 -0.53747972790E-02  0.46316222578E-02  0.26103492499E-01  0.51100000000E-03 0.  1.
</event>
<event>
 8    1  0.1086486E+005  0.1043930E+01  0.7957747E-01            NaN
         13   -1    0    0    0    0  0.00000000000E+00  0.00000000000E+00  0.74505805969E-08  0.10566000000E+00  0.10566000000E+00 0.  1.
     999900   -1    0    0    0    0 -0.00000000000E+00 -0.00000000000E+00 -0.74505805969E-08  0.93827000000E+00  0.93827000000E+00 0. -1.
     999902    2    1    2    0    0 -0.23238786707E-01 -0.16698186108E-02  0.38060432764E-02  0.10203224701E+01  0.10200493260E+01 0.  0.
     999903    2    3    3    0    0 -0.10465798813E+00  0.51993160090E-01 -0.59563957879E-01  0.13267132316E+00  0.19930673240E-01 0.  0.
         14    1    1    2    0    0  0.23238786707E-01  0.16698186108E-02 -0.38060432764E-02  0.23607529884E-01  0.00000000000E+00 0.  1.
     999901    1    3    3    0    0  0.81419201423E-01 -0.53662978700E-01  0.63370001155E-01  0.88765114695E+00  0.88000000000E+00 0.  1.
        -11    1    4    4    0    0 -0.83915115643E-01  0.40677089537E-01 -0.38077497953E-01  0.10072998172E+00  0.51100000000E-03 0. -1.
         11    1    4    4    0    0 -0.20742872486E-01  0.11316070553E-01 -0.21486459925E-01  0.31941341438E-01  0.51100000000E-03 0.  1.
</event>
<event>
 8    1  0.1086486E+005  0.1043930E+01  0.7957747E-01            NaN
         13   -1    0    0    0    0  0.00000000000E+00  0.00000000000E+00  0.74505805969E-08  0.10566000000E+00  0.10566000000E+00 0. -1.
     999900   -1    0    0    0    0 -0.00000000000E+00 -0.00000000000E+00 -0.74505805969E-08  0.93827000000E+00  0.93827000000E+00 0. -1.
     999902    2    1    2    0    0  0.11139810494E-01  0.59688384235E-02 -0.18151907979E-01  0.10218118135E+01  0.10215723998E+01 0.  0.
     999903    2    3    3    0    0  0.12076297906E+00  0.35390232625E-01 -0.42127762328E-01  0.13419832832E+00  0.19956885724E-01 0.  0.
         14    1    1    2    0    0 -0.11139810494E-01 -0.59688384235E-02  0.18151907979E-01  0.22118186482E-01  0.00000000000E+00 0. -1.
     999901    1    3    3    0    0 -0.10962316856E+00 -0.29421394202E-01  0.23975854350E-01  0.88761348520E+00  0.88000000000E+00 0.  1.
        -11    1    4    4    0    0  0.53172185278E-01  0.25923747436E-01 -0.20139697796E-01  0.62491523558E-01  0.51100000000E-03 0. -1.
         11    1    4    4    0    0  0.67590793779E-01  0.94664851891E-02 -0.21988064533E-01  0.71706804757E-01  0.51100000000E-03 0.  1.
</event>
<event>
 8    1  0.1086486E+005  0.1043930E+01  0.7957747E-01            NaN
         13   -1    0    0    0    0  0.00000000000E+00  0.00000000000E+00  0.74505805969E-08  0.10566000000E+00  0.10566000000E+00 0. -1.
     999900   -1    0    0    0    0 -0.00000000000E+00 -0.00000000000E+00 -0.74505805969E-08  0.93827000000E+00  0.93827000000E+00 0.  1.
     999902    2    1    2    0    0 -0.20699958747E-01 -0.11593368725E-01  0.18788191272E-02  0.10201303266E+01  0.10198526653E+01 0.  0.
     999903    2    3    3    0    0 -0.58093124467E-01 -0.27387844351E-01  0.11354731347E+00  0.13214521025E+00  0.21082197889E-01 0.  0.
         14    1    1    2    0    0  0.20699958747E-01  0.11593368725E-01 -0.18788191272E-02  0.23799673356E-01  0.00000000000E+00 0. -1.
     999901    1    3    3    0    0  0.37393165719E-01  0.15794475627E-01 -0.11166849434E+00  0.88798511639E+00  0.88000000000E+00 0.  1.
        -11    1    4    4    0    0 -0.29614809990E-01 -0.24318477975E-02  0.50998160603E-01  0.59025624608E-01  0.51100000000E-03 0.  1.
         11    1    4    4    0    0 -0.28478314476E-01 -0.24955996554E-01  0.62549152869E-01  0.73119585646E-01  0.51100000000E-03 0. -1.
</event>
<event>
 8    1  0.1086486E+005  0.1043930E+01  0.7957747E-01            NaN
         13   -1    0    0    0    0  0.00000000000E+00  0.00000000000E+00  0.74505805969E-08  0.10566000000E+00  0.10566000000E+00 0.  1.
     999900   -1    0    0    0    0 -0.00000000000E+00 -0.00000000000E+00 -0.74505805969E-08  0.93827000000E+00  0.93827000000E+00 0. -1.
     999902    2    1    2    0    0  0.23035566159E-01  0.36870202138E-02 -0.51442920164E-02  0.10200407730E+01  0.10197609933E+01 0.  0.
     999903    2    3    3    0    0  0.18691275041E-01 -0.70560044126E-01  0.10614441538E+00  0.12991905333E+00  0.16859416163E-01 0.  0.
         14    1    1    2    0    0 -0.23035566159E-01 -0.36870202138E-02  0.51442920164E-02  0.23889227000E-01  0.00000000000E+00 0.  1.
     999901    1    3    3    0    0  0.43442911181E-02  0.74247064340E-01 -0.11128870739E+00  0.89012171967E+00  0.88000000000E+00 0. -1.
        -11    1    4    4    0    0  0.42955508562E-02 -0.31670613417E-01  0.59211605448E-01  0.67288593774E-01  0.51100000000E-03 0.  1.
         11    1    4    4    0    0  0.14395724185E-01 -0.38889430709E-01  0.46932809931E-01  0.62630459559E-01  0.51100000000E-03 0. -1.
</event>
<event>
 8    1  0.1086486E+005  0.1043930E+01  0.7957747E-01            NaN
         13   -1    0    0    0    0  0.00000000000E+00  0.00000000000E+00  0.74505805969E-08  0.10566000000E+00  0.10566000000E+00 0. -1.
     999900   -1    0    0    0    0 -0.00000000000E+00 -0.00000000000E+00 -0.74505805969E-08  0.93827000000E+00  0.93827000000E+00 0.  1.
     999902    2    1    2    0    0 -0.17520305386E-01 -0.16299194923E-01 -0.25538523812E-02  0.10198645264E+01  0.10195805536E+01 0.  0.
     999903    2    3    3    0    0 -0.55964153839E-01  0.44387344060E-01  0.10688818235E+00  0.13018011921E+00  0.20483092631E-01 0.  0.
         14    1    1    2    0    0  0.17520305386E-01  0.16299194923E-01  0.25538523812E-02  0.24065473566E-01  0.00000000000E+00 0. -1.
     999901    1    3    3    0    0  0.38443848453E-01 -0.60686538983E-01 -0.10944203473E+00  0.88968440723E+00  0.88000000000E+00 0.  1.
        -11    1    4    4    0    0 -0.42133237142E-01  0.20885759164E-01  0.66856230998E-01  0.81740084121E-01  0.51100000000E-03 0. -1.
         11    1    4    4    0    0 -0.13830916697E-01  0.23501584896E-01  0.40031951349E-01  0.48440035086E-01  0.51100000000E-03 0.  1.
</event>
<event>
 8    1  0.1086486E+005  0.1043930E+01  0.7957747E-01            NaN
         13   -1    0    0    0    0  0.00000000000E+00  0.00000000000E+00  0.74505805969E-08  0.10566000000E+00  0.10566000000E+00 0. -1.
     999900   -1    0    0    0    0 -0.00000000000E+00 -0.00000000000E+00 -0.74505805969E-08  0.93827000000E+00  0.93827000000E+00 0. -1.
     999902    2    1    2    0    0  0.24144746519E-01  0.65353802758E-02 -0.55629049828E-03  0.10189102190E+01  0.10186029870E+01 0.  0.
     999903    2    3    3    0    0 -0.10706896353E+00  0.15687262843E-01 -0.62852715361E-01  0.12695638660E+00  0.21391753191E-01 0.  0.
         14    1    1    2    0    0 -0.24144746519E-01 -0.65353802758E-02  0.55629049828E-03  0.25019780953E-01  0.00000000000E+00 0. -1.
     999901    1    3    3    0    0  0.13121371005E+00 -0.91518825669E-02  0.62296424862E-01  0.89195383244E+00  0.88000000000E+00 0.  1.
        -11    1    4    4    0    0 -0.76664063631E-01  0.20704112645E-02 -0.39494313150E-01  0.86265445848E-01  0.51100000000E-03 0.  1.
         11    1    4    4    0    0 -0.30404899898E-01  0.13616851578E-01 -0.23358402211E-01  0.40690940755E-01  0.51100000000E-03 0. -1.
</event>
<event>
 8    1  0.1086486E+005  0.1043930E+01  0.7957747E-01            NaN
         13   -1    0    0    0    0  0.00000000000E+00  0.00000000000E+00  0.74505805969E-08  0.10566000000E+00  0.10566000000E+00 0. -1.
     999900   -1    0    0    0    0 -0.00000000000E+00 -0.00000000000E+00 -0.74505805969E-08  0.93827000000E+00  0.93827000000E+00 0.  1.
     999902    2    1    2    0    0 -0.21372041505E-01  0.34385347688E-02 -0.98146173929E-02  0.10201620722E+01  0.10198851597E+01 0.  0.
     999903    2    3    3    0    0 -0.12001566486E+00 -0.48061439971E-01  0.21896418418E-01  0.13258762366E+00  0.19656118274E-01 0.  0.
         14    1    1    2    0    0  0.21372041505E-01 -0.34385347688E-02  0.98146173929E-02  0.23767927845E-01  0.00000000000E+00 0. -1.
     999901    1    3    3    0    0  0.98643623352E-01  0.51499974740E-01 -0.31711035811E-01  0.88757444849E+00  0.88000000000E+00 0. -1.
        -11    1    4    4    0    0 -0.53916404283E-01 -0.24246663212E-01  0.43047614659E-03  0.59121280081E-01  0.51100000000E-03 0. -1.
         11    1    4    4    0    0 -0.66099260574E-01 -0.23814776759E-01  0.21465942271E-01  0.73466343580E-01  0.51100000000E-03 0.  1.
</event>
<event>
 8    1  0.1086486E+005  0.1043930E+01  0.7957747E-01            NaN
         13   -1    0    0    0    0  0.00000000000E+00  0.00000000000E+00  0.74505805969E-08  0.10566000000E+00  0.10566000000E+00 0. -1.
     999900   -1    0    0    0    0 -0.00000000000E+00 -0.00000000000E+00 -0.74505805969E-08  0.93827000000E+00  0.93827000000E+00 0. -1.
     999902    2    1    2    0    0  0.15442992717E-01 -0.16723860638E-01  0.76098848591E-02  0.10199282524E+01  0.10196457994E+01 0.  0.
     999903    2    3    3    0    0 -0.29827305344E-01 -0.91012460878E-01  0.88519610388E-01  0.13194481807E+00  0.20019425917E-01 0.  0.
         14    1    1    2    0    0 -0.15442992717E-01  0.16723860638E-01 -0.76098848591E-02  0.24001747567E-01  0.00000000000E+00 0. -1.
     999901    1    3    3    0    0  0.45270298061E-01  0.74288600240E-01 -0.80909725529E-01  0.88798343436E+00  0.88000000000E+00 0. -1.
        -11    1    4    4    0    0 -0.11629726338E-01 -0.50856665527E-01  0.59637935482E-01  0.79237588510E-01  0.51100000000E-03 0.  1.
         11    1    4    4    0    0 -0.18197579006E-01 -0.40155795350E-01  0.28881674906E-01  0.52707229564E-01  0.51100000000E-03 0. -1.
</event>
<event>
 8    1  0.1086486E+005  0.1043930E+01  0.7957747E-01            NaN
         13   -1    0    0    0    0  0.00000000000E+00  0.00000000000E+00  0.74505805969E-08  0.10566000000E+00  0.10566000000E+00 0.  1.
     999900   -1    0    0    0    0 -0.00000000000E+00 -0.00000000000E+00 -0.74505805969E-08  0.93827000000E+00  0.93827000000E+00 0. -1.
     999902    2    1    2    0    0  0.67062502133E-02  0.19411262044E-01 -0.12245064878E-01  0.10200194898E+01  0.10197392054E+01 0.  0.
     999903    2    3    3    0    0 -0.80023364755E-01  0.10040216471E+00 -0.19838929252E-01  0.13202218165E+00  0.23493397996E-01 0.  0.
         14    1    1    2    0    0 -0.67062502133E-02 -0.19411262044E-01  0.12245064878E-01  0.23910510240E-01  0.00000000000E+00 0. -1.
     999901    1    3    3    0    0  0.86729614968E-01 -0.80990902668E-01  0.75938643739E-02  0.88799730811E+00  0.88000000000E+00 0.  1.
        -11    1    4    4    0    0 -0.35620815338E-01  0.62977060501E-01 -0.84985743224E-02  0.72852175817E-01  0.51100000000E-03 0.  1.
         11    1    4    4    0    0 -0.44402549417E-01  0.37425104211E-01 -0.11340354929E-01  0.59170005838E-01  0.51100000000E-03 0. -1.
</event>
<event>
 8    1  0.1086486E+005  0.1043930E+01  0.7957747E-01            NaN
         13   -1    0    0    0    0  0.00000000000E+00  0.00000000000E+00  0.74505805969E-08  0.10566000000E+00  0.10566000000E+00 0.  1.
     999900   -1    0    0    0    0 -0.00000000000E+00 -0.00000000000E+00 -0.74505805969E-08  0.93827000000E+00  0.93827000000E+00 0.  1.
     999902    2    1    2    0    0  0.77314333434E-02  0.21718588394E-01 -0.13168301230E-01  0.10173804934E+01  0.10170340172E+01 0.  0.
     999903    2    3    3    0    0  0.39606173500E-01  0.77281241262E-01  0.92790766656E-01  0.12871265246E+00  0.20390715938E-01 0.  0.
         14    1    1    2    0    0 -0.77314333434E-02 -0.21718588394E-01  0.13168301230E-01  0.26549506600E-01  0.00000000000E+00 0.  1.
     999901    1    3    3    0    0 -0.31874740157E-01 -0.55562652867E-01 -0.10595906789E+00  0.88866784094E+00  0.88000000000E+00 0.  1.
        -11    1    4    4    0    0  0.25360192649E-01  0.53338213283E-01  0.48683294680E-01  0.76540372806E-01  0.51100000000E-03 0.  1.
         11    1    4    4    0    0  0.14245980851E-01  0.23943027979E-01  0.44107471976E-01  0.52172279654E-01  0.51100000000E-03 0. -1.
</event>
<event>
 8    1  0.1086486E+005  0.1043930E+01  0.7957747E-01            NaN
         13   -1    0    0    0    0  0.00000000000E+00  0.00000000000E+00  0.74505805969E-08  0.10566000000E+00  0.10566000000E+00 0. -1.
     999900   -1    0    0    0    0 -0.00000000000E+00 -0.00000000000E+00 -0.74505805969E-08  0.93827000000E+00  0.93827000000E+00 0. -1.
     999902    2    1    2    0    0  0.17086996520E-01 -0.90286949938E-02 -0.13364472008E-01  0.10204333642E+01  0.10201628100E+01 0.  0.
     999903    2    3    3    0    0  0.71621804685E-01 -0.10336108621E+00 -0.39678624506E-01  0.13332284120E+00  0.19682217757E-01 0.  0.
         14    1    1    2    0    0 -0.17086996520E-01  0.90286949938E-02  0.13364472008E-01  0.23496635832E-01  0.00000000000E+00 0. -1.
     999901    1    3    3    0    0 -0.54534808165E-01  0.94332391212E-01  0.26314152498E-01  0.88711052296E+00  0.88000000000E+00 0.  1.
        -11    1    4    4    0    0  0.31701490152E-01 -0.46453464721E-01 -0.28024615927E-01  0.62837481500E-01  0.51100000000E-03 0. -1.
         11    1    4    4    0    0  0.39920314533E-01 -0.56907621486E-01 -0.11654008579E-01  0.70485359703E-01  0.51100000000E-03 0.  1.
</event>
<event>
 8    1  0.1086486E+005  0.1043930E+01  0.7957747E-01            NaN
         13   -1    0    0    0    0  0.00000000000E+00  0.00000000000E+00  0.74505805969E-08  0.10566000000E+00  0.10566000000E+00 0.  1.
     999900   -1    0    0    0    0 -0.00000000000E+00 -0.00000000000E+00 -0.74505805969E-08  0.93827000000E+00  0.93827000000E+00 0.  1.
     999902    2    1    2    0    0 -0.11853484662E-01 -0.86817347038E-02  0.18095572381E-01  0.10206206166E+01  0.10203544069E+01 0.  0.
     999903    2    3    3    0    0  0.16830005860E-01  0.11340185780E+00  0.59579379296E-01  0.13076217141E+00  0.20144790483E-01 0.  0.
         14    1    1    2    0    0  0.11853484662E-01  0.86817347038E-02 -0.18095572381E-01  0.23309383430E-01  0.00000000000E+00 0. -1.
     999901    1    3    3    0    0 -0.28683490522E-01 -0.12208359251E+00 -0.41483806915E-01  0.88985844516E+00  0.88000000000E+00 0.  1.
        -11    1    4    4    0    0  0.13830900187E-01  0.70344436271E-01  0.26708856137E-01  0.76506585543E-01  0.51100000000E-03 0.  1.
         11    1    4    4    0    0  0.29991056726E-02  0.43057421533E-01  0.32870523159E-01  0.54255585866E-01  0.51100000000E-03 0. -1.
</event>
<event>
 8    1  0.1086486E+005  0.1043930E+01  0.7957747E-01            NaN
         13   -1    0    0    0    0  0.00000000000E+00  0.00000000000E+00  0.74505805969E-08  0.10566000000E+00  0.10566000000E+00 0. -1.
     999900   -1    0    0    0    0 -0.00000000000E+00 -0.00000000000E+00 -0.74505805969E-08  0.93827000000E+00  0.93827000000E+00 0. -1.
     999902    2    1    2    0    0 -0.10592047445E-01  0.15884929826E-01 -0.14710322539E-01  0.10198277998E+01  0.10195429492E+01 0.  0.
     999903    2    3    3    0    0 -0.10031197948E+00  0.10062373854E-01  0.79750423652E-01  0.13021754755E+00  0.20802284067E-01 0.  0.
         14    1    1    2    0    0  0.10592047445E-01 -0.15884929826E-01  0.14710322539E-01  0.24102200187E-01  0.00000000000E+00 0. -1.
     999901    1    3    3    0    0  0.89719932034E-01  0.58225559717E-02 -0.94460746191E-01  0.88961025226E+00  0.88000000000E+00 0.  1.
        -11    1    4    4    0    0 -0.26184099072E-01  0.11446342562E-01  0.18488134370E-01  0.34039653872E-01  0.51100000000E-03 0.  1.
         11    1    4    4    0    0 -0.74127880407E-01 -0.13839687080E-02  0.61262289282E-01  0.96177893677E-01  0.51100000000E-03 0. -1.
</event>
<event>
 8    1  0.1086486E+005  0.1043930E+01  0.7957747E-01            NaN
         13   -1    0    0    0    0  0.00000000000E+00  0.00000000000E+00  0.74505805969E-08  0.10566000000E+00  0.10566000000E+00 0. -1.
     999900   -1    0    0    0    0 -0.00000000000E+00 -0.00000000000E+00 -0.74505805969E-08  0.93827000000E+00  0.93827000000E+00 0.  1.
     999902    2    1    2    0    0  0.62114469716E-02  0.14422215780E-01 -0.17647749181E-01  0.10203074381E+01  0.10200339419E+01 0.  0.
     999903    2    3    3    0    0 -0.50166737673E-01 -0.11656479486E+00 -0.87627024195E-02  0.12878343910E+00  0.20108114389E-01 0.  0.
         14    1    1    2    0    0 -0.62114469716E-02 -0.14422215780E-01  0.17647749181E-01  0.23622561941E-01  0.00000000000E+00 0. -1.
     999901    1    3    3    0    0  0.56378184645E-01  0.13098701064E+00 -0.88850467616E-02  0.89152399896E+00  0.88000000000E+00 0. -1.
        -11    1    4    4    0    0 -0.41738894530E-01 -0.11040765203E+00 -0.81050795629E-02  0.11831288340E+00  0.51100000000E-03 0. -1.
         11    1    4    4    0    0 -0.84278431426E-02 -0.61571428293E-02 -0.65762285659E-03  0.10470555701E-01  0.51100000000E-03 0.  1.
</event>
<event>
 8    1  0.1086486E+005  0.1043930E+01  0.7957747E-01            NaN
         13   -1    0    0    0    0  0.00000000000E+00  0.00000000000E+00  0.74505805969E-08  0.10566000000E+00  0.10566000000E+00 0. -1.
     999900   -1    0    0    0    0 -0.00000000000E+00 -0.00000000000E+00 -0.74505805969E-08  0.93827000000E+00  0.93827000000E+00 0. -1.
     999902    2    1    2    0    0 -0.60934352329E-02  0.16656657497E-01  0.16107855852E-01  0.10199709263E+01  0.10196894887E+01 0.  0.
     999903    2    3    3    0    0  0.57619356173E-01 -0.11157897536E+00  0.17896649520E-01  0.12839541234E+00  0.19880490428E-01 0.  0.
         14    1    1    2    0    0  0.60934352329E-02 -0.16656657497E-01 -0.16107855852E-01  0.23959073689E-01  0.00000000000E+00 0.  1.
     999901    1    3    3    0    0 -0.63712791406E-01  0.12823563285E+00 -0.17887936677E-02  0.89157551397E+00  0.88000000000E+00 0. -1.
        -11    1    4    4    0    0  0.34054855434E-01 -0.73604472394E-01  0.25607323197E-02  0.81142898679E-01  0.51100000000E-03 0. -1.
         11    1    4    4    0    0  0.23564500740E-01 -0.37974502962E-01  0.15335917200E-01  0.47252513666E-01  0.51100000000E-03 0.  1.
</event>
<event>
 8    1  0.1086486E+005  0.1043930E+01  0.7957747E-01            NaN
         13   -1    0    0    0    0  0.00000000000E+00  0.00000000000E+00  0.74505805969E-08  0.10566000000E+00  0.10566000000E+00 0. -1.
     999900   -1    0    0    0    0 -0.00000000000E+00 -0.00000000000E+00 -0.74505805969E-08  0.93827000000E+00  0.93827000000E+00 0. -1.
     999902    2    1    2    0    0 -0.91684596352E-02  0.94448530956E-02 -0.19842713726E-01  0.10201182552E+01  0.10198403088E+01 0.  0.
     999903    2    3    3    0    0 -0.15045387117E-01 -0.94270919201E-01  0.82928774745E-01  0.12806810048E+00  0.20270342876E-01 0.  0.
         14    1    1    2    0    0  0.91684596352E-02 -0.94448530956E-02  0.19842713726E-01  0.23811744793E-01  0.00000000000E+00 0. -1.
     999901    1    3    3    0    0  0.58769274821E-02  0.10371577230E+00 -0.10277148847E+00  0.89205015472E+00  0.88000000000E+00 0. -1.
        -11    1    4    4    0    0 -0.55315395647E-02 -0.59928142104E-01  0.39962820564E-01  0.72244503558E-01  0.51100000000E-03 0.  1.
         11    1    4    4    0    0 -0.95138475526E-02 -0.34342777097E-01  0.42965954181E-01  0.55823596925E-01  0.51100000000E-03 0. -1.
</event>
<event>
 8    1  0.1086486E+005  0.1043930E+01  0.7957747E-01            NaN
         13   -1    0    0    0    0  0.00000000000E+00  0.00000000000E+00  0.74505805969E-08  0.10566000000E+00  0.10566000000E+00 0.  1.
     999900   -1    0    0    0    0 -0.00000000000E+00 -0.00000000000E+00 -0.74505805969E-08  0.93827000000E+00  0.93827000000E+00 0.  1.
     999902    2    1    2    0    0  0.78870893387E-02  0.22988589338E-01  0.21721679228E-02  0.10195291858E+01  0.10192371466E+01 0.  0.
     999903    2    3    3    0    0  0.89697903016E-01  0.69641185366E-01 -0.63932322128E-01  0.13203874784E+00  0.21243366327E-01 0.  0.
         14    1    1    2    0    0 -0.78870893387E-02 -0.22988589338E-01 -0.21721679228E-02  0.24400814156E-01  0.00000000000E+00 0. -1.
     999901    1    3    3    0    0 -0.81810813677E-01 -0.46652596028E-01  0.66104490051E-01  0.88749043801E+00  0.88000000000E+00 0. -1.
        -11    1    4    4    0    0  0.37864886167E-01  0.17466098195E-01 -0.18764406828E-01  0.45729402743E-01  0.51100000000E-03 0. -1.
         11    1    4    4    0    0  0.51833016848E-01  0.52175087171E-01 -0.45167915300E-01  0.86309345093E-01  0.51100000000E-03 0.  1.
</event>
<event>
 8    1  0.1086486E+005  0.1043930E+01  0.7957747E-01            NaN
         13   -1    0    0    0    0  0.00000000000E+00  0.00000000000E+00  0.74505805969E-08  0.10566000000E+00  0.10566000000E+00 0.  1.
     999900   -1    0    0    0    0 -0.00000000000E+00 -0.00000000000E+00 -0.74505805969E-08  0.93827000000E+00  0.93827000000E+00 0. -1.
     999902    2    1    2    0    0 -0.13739205221E-01  0.55772996459E-02  0.17884451243E-01  0.10206980042E+01  0.10204335795E+01 0.  0.
     999903    2    3    3    0    0 -0.25385522879E-01  0.11892494966E+00  0.47999314911E-01  0.13284090340E+00  0.23562745179E-01 0.  0.
         14    1    1    2    0    0  0.13739205221E-01 -0.55772996459E-02 -0.17884451243E-01  0.23231995776E-01  0.00000000000E+00 0. -1.
     999901    1    3    3    0    0  0.11646317657E-01 -0.11334765001E+00 -0.30114863668E-01  0.88785710083E+00  0.88000000000E+00 0. -1.
        -11    1    4    4    0    0 -0.65865795835E-02  0.74983138885E-01  0.21961185949E-01  0.78411790931E-01  0.51100000000E-03 0.  1.
         11    1    4    4    0    0 -0.18798943295E-01  0.43941810772E-01  0.26038128961E-01  0.54429112465E-01  0.51100000000E-03 0. -1.
</event>
<event>
 8    1  0.1086486E+005  0.1043930E+01  0.7957747E-01            NaN
         13   -1    0    0    0    0  0.00000000000E+00  0.00000000000E+00  0.74505805969E-08  0.10566000000E+00  0.10566000000E+00 0. -1.
     999900   -1    0    0    0    0 -0.00000000000E+00 -0.00000000000E+00 -0.74505805969E-08  0.93827000000E+00  0.93827000000E+00 0.  1.
     999902    2    1    2    0    0  0.71334850285E-02 -0.68497338886E-02 -0.21787712925E-01  0.10200028209E+01  0.10197221410E+01 0.  0.
     999903    2    3    3    0    0  0.71789742255E-01  0.89481756966E-01  0.55714475253E-01  0.12901080252E+00  0.19466188402E-01 0.  0.
         14    1    1    2    0    0 -0.71334850285E-02  0.68497338886E-02  0.21787712925E-01  0.23927179054E-01  0.00000000000E+00 0. -1.
     999901    1    3    3    0    0 -0.64656257227E-01 -0.96331490855E-01 -0.77502188178E-01  0.89099201843E+00  0.88000000000E+00 0. -1.
        -11    1    4    4    0    0  0.49612455013E-01  0.72025824692E-01  0.47913424256E-01  0.99724984131E-01  0.51100000000E-03 0. -1.
         11    1    4    4    0    0  0.22177287242E-01  0.17455932275E-01  0.78010509973E-02  0.29285818388E-01  0.51100000000E-03 0.  1.
</event>
<event>
 8    1  0.1086486E+005  0.1043930E+01  0.7957747E-01            NaN
         13   -1    0    0    0    0  0.00000000000E+00  0.00000000000E+00  0.74505805969E-08  0.10566000000E+00  0.10566000000E+00 0. -1.
     999900   -1    0    0    0    0 -0.00000000000E+00 -0.00000000000E+00 -0.74505805969E-08  0.93827000000E+00  0.93827000000E+00 0. -1.
     999902    2    1    2    0    0  0.15760031510E-01  0.12502061708E-01  0.11624783101E-01  0.10206960653E+01  0.10204315959E+01 0.  0.
     999903    2    3    3    0    0 -0.20091505785E-01  0.10306452112E+00 -0.75569134830E-01  0.13103901276E+00  0.20846213265E-01 0.  0.
         14    1    1    2    0    0 -0.15760031510E-01 -0.12502061708E-01 -0.11624783101E-01  0.23233934715E-01  0.00000000000E+00 0.  1.
     999901    1    3    3    0    0  0.35851537296E-01 -0.90562459414E-01  0.87193917932E-01  0.88965705252E+00  0.88000000000E+00 0.  1.
        -11    1    4    4    0    0 -0.17217733400E-01  0.39732796823E-01 -0.25524058041E-01  0.50268122570E-01  0.51100000000E-03 0.  1.
         11    1    4    4    0    0 -0.28737723854E-02  0.63331724300E-01 -0.50045076789E-01  0.80770890192E-01  0.51100000000E-03 0. -1.
</event>
<event>
 8    1  0.1086486E+005  0.1043930E+01  0.7957747E-01            NaN
         13   -1    0    0    0    0  0.00000000000E+00  0.00000000000E+00  0.74505805969E-08  0.10566000000E+00  0.10566000000E+00 0.  1.
     999900   -1    0    0    0    0 -0.00000000000E+00 -0.00000000000E+00 -0.74505805969E-08  0.93827000000E+00  0.93827000000E+00 0. -1.
     999902    2    1    2    0    0  0.18389503253E-02  0.21567505986E-01  0.88953329891E-02  0.10205277351E+01  0.10202593749E+01 0.  0.
     999903    2    3    3    0    0 -0.19268774244E-01  0.59109929037E-01 -0.11304827096E+00  0.13107553735E+00  0.23143369534E-01 0.  0.
         14    1    1    2    0    0 -0.18389503253E-02 -0.21567505986E-01 -0.88953329891E-02  0.23402264885E-01  0.00000000000E+00 0. -1.
     999901    1    3    3    0    0  0.21107724569E-01 -0.37542423051E-01  0.12194360395E+00  0.88945219776E+00  0.88000000000E+00 0.  1.
        -11    1    4    4    0    0 -0.49862420169E-02  0.10396493639E-01 -0.43276251799E-01  0.44788891259E-01  0.51100000000E-03 0. -1.
         11    1    4    4    0    0 -0.14282532227E-01  0.48713435399E-01 -0.69772019159E-01  0.86286646091E-01  0.51100000000E-03 0.  1.
</event>
<event>
 8    1  0.1086486E+005  0.1043930E+01  0.7957747E-01            NaN
         13   -1    0    0    0    0  0.00000000000E+00  0.00000000000E+00  0.74505805969E-08  0.10566000000E+00  0.10566000000E+00 0.  1.
     999900   -1    0    0    0    0 -0.00000000000E+00 -0.00000000000E+00 -0.74505805969E-08  0.93827000000E+00  0.93827000000E+00 0.  1.
     999902    2    1    2    0    0 -0.26512650266E-02 -0.22527780153E-01 -0.68598150907E-02  0.10202321700E+01  0.10199569077E+01 0.  0.
     999903    2    3    3    0    0  0.10880711073E-01  0.12555895264E+00  0.56353593212E-02  0.12766904941E+00  0.19600725519E-01 0.  0.
         14    1    1    2    0    0  0.26512650266E-02  0.22527780153E-01  0.68598150907E-02  0.23697830026E-01  0.00000000000E+00 0.  1.
     999901    1    3    3    0    0 -0.13531976100E-01 -0.14808673279E+00 -0.12495174412E-01  0.89256312056E+00  0.88000000000E+00 0.  1.
        -11    1    4    4    0    0  0.27226642352E-03  0.67094683917E-01 -0.50811364146E-02  0.67289299352E-01  0.51100000000E-03 0.  1.
         11    1    4    4    0    0  0.10608444650E-01  0.58464268724E-01  0.10716495736E-01  0.60379750059E-01  0.51100000000E-03 0. -1.
</event>
<event>
 8    1  0.1086486E+005  0.1043930E+01  0.7957747E-01            NaN
         13   -1    0    0    0    0  0.00000000000E+00  0.00000000000E+00  0.74505805969E-08  0.10566000000E+00  0.10566000000E+00 0. -1.
     999900   -1    0    0    0    0 -0.00000000000E+00 -0.00000000000E+00 -0.74505805969E-08  0.93827000000E+00  0.93827000000E+00 0.  1.
     999902    2    1    2    0    0 -0.26454328656E-01  0.41475309157E-03 -0.82227223338E-03  0.10174596457E+01  0.10171152594E+01 0.  0.
     999903    2    3    3    0    0  0.88447034519E-01  0.86238203187E-01  0.11485220071E-01  0.12576493213E+00  0.20615583202E-01 0.  0.
         14    1    1    2    0    0  0.26454328656E-01 -0.41475309157E-03  0.82227223338E-03  0.26470354293E-01  0.00000000000E+00 0. -1.
     999901    1    3    3    0    0 -0.11490136317E+00 -0.85823450095E-01 -0.12307492305E-01  0.89169471357E+00  0.88000000000E+00 0.  1.
        -11    1    4    4    0    0  0.14830323219E-01  0.53143522610E-02  0.29195797471E-02  0.16030155758E-01  0.51100000000E-03 0.  1.
         11    1    4    4    0    0  0.73616711300E-01  0.80923850926E-01  0.85656403243E-02  0.10973477638E+00  0.51100000000E-03 0. -1.
</event>
<event>
 8    1  0.1086486E+005  0.1043930E+01  0.7957747E-01            NaN
         13   -1    0    0    0    0  0.00000000000E+00  0.00000000000E+00  0.74505805969E-08  0.10566000000E+00  0.10566000000E+00 0. -1.
     999900   -1    0    0    0    0 -0.00000000000E+00 -0.00000000000E+00 -0.74505805969E-08  0.93827000000E+00  0.93827000000E+00 0.  1.
     999902    2    1    2    0    0 -0.23930763287E-01  0.82796634073E-02 -0.82894277111E-03  0.10185938321E+01  0.10182786816E+01 0.  0.
     999903    2    3    3    0    0  0.18813255259E-02 -0.11904120088E+00  0.42729927665E-01  0.12799053006E+00  0.19529008543E-01 0.  0.
         14    1    1    2    0    0  0.23930763287E-01 -0.82796634073E-02  0.82894277111E-03  0.25336167898E-01  0.00000000000E+00 0. -1.
     999901    1    3    3    0    0 -0.25812088813E-01  0.12732086429E+00 -0.43558870437E-01  0.89060330204E+00  0.88000000000E+00 0. -1.
        -11    1    4    4    0    0 -0.31837718623E-02 -0.37070723207E-01  0.47745975452E-02  0.37515767686E-01  0.51100000000E-03 0. -1.
         11    1    4    4    0    0  0.50650973882E-02 -0.81970477672E-01  0.37955330120E-01  0.90474762376E-01  0.51100000000E-03 0.  1.
</event>
<event>
 8    1  0.1086486E+005  0.1043930E+01  0.7957747E-01            NaN
         13   -1    0    0    0    0  0.00000000000E+00  0.00000000000E+00  0.74505805969E-08  0.10566000000E+00  0.10566000000E+00 0. -1.
     999900   -1    0    0    0    0 -0.00000000000E+00 -0.00000000000E+00 -0.74505805969E-08  0.93827000000E+00  0.93827000000E+00 0. -1.
     999902    2    1    2    0    0 -0.23293630259E-01 -0.61634586200E-02 -0.14735752419E-02  0.10197897254E+01  0.10195039633E+01 0.  0.
     999903    2    3    3    0    0 -0.20376409397E-01 -0.12784302811E+00  0.11488104848E-01  0.13131776021E+00  0.18797332203E-01 0.  0.
         14    1    1    2    0    0  0.23293630259E-01  0.61634586200E-02  0.14735752419E-02  0.24140274580E-01  0.00000000000E+00 0.  1.
     999901    1    3    3    0    0 -0.29172208619E-02  0.12167956949E+00 -0.12961680090E-01  0.88847196521E+00  0.88000000000E+00 0.  1.
        -11    1    4    4    0    0 -0.94437862475E-02 -0.91001958870E-01  0.15046158162E-01  0.92721031127E-01  0.51100000000E-03 0.  1.
         11    1    4    4    0    0 -0.10932623150E-01 -0.36841069240E-01 -0.35580533143E-02  0.38596729085E-01  0.51100000000E-03 0. -1.
</event>
<event>
 8    1  0.1086486E+005  0.1043930E+01  0.7957747E-01            NaN
         13   -1    0    0    0    0  0.00000000000E+00  0.00000000000E+00  0.74505805969E-08  0.10566000000E+00  0.10566000000E+00 0. -1.
     999900   -1    0    0    0    0 -0.00000000000E+00 -0.00000000000E+00 -0.74505805969E-08  0.93827000000E+00  0.93827000000E+00 0.  1.
     999902    2    1    2    0    0 -0.94245762361E-02  0.34891893500E-02  0.21237264386E-01  0.10204349265E+01  0.10201644087E+01 0.  0.
     999903    2    3    3    0    0  0.12794300273E+00  0.10570951842E-02  0.29920790679E-02  0.12958777149E+00  0.20334910492E-01 0.  0.
         14    1    1    2    0    0  0.94245762361E-02 -0.34891893500E-02 -0.21237264386E-01  0.23495073487E-01  0.00000000000E+00 0.  1.
     999901    1    3    3    0    0 -0.13736757896E+00  0.24320941658E-02  0.18245185318E-01  0.89084715503E+00  0.88000000000E+00 0. -1.
        -11    1    4    4    0    0  0.39994959046E-01  0.47221117260E-02  0.93014015690E-02  0.41336089322E-01  0.51100000000E-03 0. -1.
         11    1    4    4    0    0  0.87948043681E-01 -0.36650165418E-02 -0.63093225010E-02  0.88251682165E-01  0.51100000000E-03 0.  1.
</event>
<event>
 8    1  0.1086486E+005  0.1043930E+01  0.7957747E-01            NaN
         13   -1    0    0    0    0  0.00000000000E+00  0.00000000000E+00  0.74505805969E-08  0.10566000000E+00  0.10566000000E+00 0.  1.
     999900   -1    0    0    0    0 -0.00000000000E+00 -0.00000000000E+00 -0.74505805969E-08  0.93827000000E+00  0.93827000000E+00 0.  1.
     999902    2    1    2    0    0 -0.62444725806E-02  0.22247993636E-01 -0.11693853690E-01  0.10180318751E+01  0.10177024054E+01 0.  0.
     999903    2    3    3    0    0 -0.12539094159E+00  0.26065640612E-01 -0.11304357781E-01  0.12999437184E+00  0.19194852196E-01 0.  0.
         14    1    1    2    0    0  0.62444725806E-02 -0.22247993636E-01  0.11693853690E-01  0.25898124889E-01  0.00000000000E+00 0. -1.
     999901    1    3    3    0    0  0.11914646901E+00 -0.38176469758E-02 -0.38949590999E-03  0.88803750327E+00  0.88000000000E+00 0.  1.
        -11    1    4    4    0    0 -0.94147750644E-01  0.25614690463E-01 -0.14244813642E-01  0.98605715633E-01  0.51100000000E-03 0. -1.
         11    1    4    4    0    0 -0.31243190951E-01  0.45095014872E-03  0.29404558613E-02  0.31388656208E-01  0.51100000000E-03 0.  1.
</event>
<event>
 8    1  0.1086486E+005  0.1043930E+01  0.7957747E-01            NaN
         13   -1    0    0    0    0  0.00000000000E+00  0.00000000000E+00  0.74505805969E-08  0.10566000000E+00  0.10566000000E+00 0. -1.
     999900   -1    0    0    0    0 -0.00000000000E+00 -0.00000000000E+00 -0.74505805969E-08  0.93827000000E+00  0.93827000000E+00 0.  1.
     999902    2    1    2    0    0  0.22217978779E-01 -0.17799807895E-01 -0.12710116570E-02  0.10154328561E+01  0.10150329049E+01 0.  0.
     999903    2    3    3    0    0  0.27397041074E-01  0.11808607514E+00  0.16079351944E-01  0.12481911767E+00  0.25026936999E-01 0.  0.
         14    1    1    2    0    0 -0.22217978779E-01  0.17799807895E-01  0.12710116570E-02  0.28497143941E-01  0.00000000000E+00 0.  1.
     999901    1    3    3    0    0 -0.51790622942E-02 -0.13588588303E+00 -0.17350363601E-01  0.89061373839E+00  0.88000000000E+00 0.  1.
        -11    1    4    4    0    0 -0.46288593091E-02  0.13741625327E-01  0.36692079980E-02  0.14966055374E-01  0.51100000000E-03 0. -1.
         11    1    4    4    0    0  0.32025900383E-01  0.10434444981E+00  0.12410143946E-01  0.10985306229E+00  0.51100000000E-03 0.  1.
</event>
<event>
 8    1  0.1086486E+005  0.1043930E+01  0.7957747E-01            NaN
         13   -1    0    0    0    0  0.00000000000E+00  0.00000000000E+00  0.74505805969E-08  0.10566000000E+00  0.10566000000E+00 0.  1.
     999900   -1    0    0    0    0 -0.00000000000E+00 -0.00000000000E+00 -0.74505805969E-08  0.93827000000E+00  0.93827000000E+00 0. -1.
     999902    2    1    2    0    0  0.17591619597E-01  0.10431706670E-01 -0.12974307424E-01  0.10197097969E+01  0.10194221165E+01 0.  0.
     999903    2    3    3    0    0 -0.97398053300E-01 -0.37805667239E-01 -0.72603635083E-01  0.12892075016E+00  0.20823609964E-01 0.  0.
         14    1    1    2    0    0 -0.17591619597E-01 -0.10431706670E-01  0.12974307424E-01  0.24220203080E-01  0.00000000000E+00 0.  1.
     999901    1    3    3    0    0  0.11498967290E+00  0.48237373910E-01  0.59629327659E-01  0.89078904676E+00  0.88000000000E+00 0.  1.
        -11    1    4    4    0    0 -0.69524806861E-01 -0.31138492212E-01 -0.42008311028E-01  0.86995768764E-01  0.51100000000E-03 0. -1.
         11    1    4    4    0    0 -0.27873246439E-01 -0.66671750276E-02 -0.30595324055E-01  0.41924981394E-01  0.51100000000E-03 0.  1.
</event>
<event>
 8    1  0.1086486E+005  0.1043930E+01  0.7957747E-01            NaN
         13   -1    0    0    0    0  0.00000000000E+00  0.00000000000E+00  0.74505805969E-08  0.10566000000E+00  0.10566000000E+00 0.  1.
     999900   -1    0    0    0    0 -0.00000000000E+00 -0.00000000000E+00 -0.74505805969E-08  0.93827000000E+00  0.93827000000E+00 0.  1.
     999902    2    1    2    0    0  0.17837453075E-01  0.14472251758E-01  0.49948491194E-02  0.10204232069E+01  0.10201524160E+01 0.  0.
     999903    2    3    3    0    0 -0.10064651840E+00  0.74521245503E-01  0.29595212706E-01  0.13011454638E+00  0.19255671025E-01 0.  0.
         14    1    1    2    0    0 -0.17837453075E-01 -0.14472251758E-01 -0.49948491194E-02  0.23506793080E-01  0.00000000000E+00 0. -1.
     999901    1    3    3    0    0  0.11848397148E+00 -0.60048993745E-01 -0.24600363587E-01  0.89030866054E+00  0.88000000000E+00 0. -1.
        -11    1    4    4    0    0 -0.44756669178E-01  0.22317788348E-01  0.15367918039E-01  0.52322816615E-01  0.51100000000E-03 0.  1.
         11    1    4    4    0    0 -0.55889849223E-01  0.52203457155E-01  0.14227294667E-01  0.77791729763E-01  0.51100000000E-03 0. -1.
</event>
<event>
 8    1  0.1086486E+005  0.1043930E+01  0.7957747E-01            NaN
         13   -1    0    0    0    0  0.00000000000E+00  0.00000000000E+00  0.74505805969E-08  0.10566000000E+00  0.10566000000E+00 0. -1.
     999900   -1    0    0    0    0 -0.00000000000E+00 -0.00000000000E+00 -0.74505805969E-08  0.93827000000E+00  0.93827000000E+00 0. -1.
     999902    2    1    2    0    0  0.44575213618E-02  0.18826773231E-01 -0.14397652191E-01  0.10198134232E+01  0.10195282286E+01 0.  0.
     999903    2    3    3    0    0 -0.78325106381E-01 -0.40656923204E-01  0.90223348382E-01  0.12777260164E+00  0.19944358695E-01 0.  0.
         14    1    1    2    0    0 -0.44575213618E-02 -0.18826773231E-01  0.14397652191E-01  0.24116576780E-01  0.00000000000E+00 0. -1.
     999901    1    3    3    0    0  0.82782627742E-01  0.59483696435E-01 -0.10462100057E+00  0.89204082158E+00  0.88000000000E+00 0. -1.
        -11    1    4    4    0    0 -0.60011025519E-01 -0.34476913838E-01  0.58507899936E-01  0.90627899940E-01  0.51100000000E-03 0.  1.
         11    1    4    4    0    0 -0.18314080862E-01 -0.61800093657E-02  0.31715448445E-01  0.37144701704E-01  0.51100000000E-03 0. -1.
</event>
<event>
 8    1  0.1086486E+005  0.1043930E+01  0.7957747E-01            NaN
         13   -1    0    0    0    0  0.00000000000E+00  0.00000000000E+00  0.74505805969E-08  0.10566000000E+00  0.10566000000E+00 0.  1.
     999900   -1    0    0    0    0 -0.00000000000E+00 -0.00000000000E+00 -0.74505805969E-08  0.93827000000E+00  0.93827000000E+00 0.  1.
     999902    2    1    2    0    0  0.52618546849E-02 -0.16881810714E-01 -0.16126726549E-01  0.10199977214E+01  0.10197169204E+01 0.  0.
     999903    2    3    3    0    0 -0.60089635582E-01 -0.93362297578E-01  0.65781385196E-01  0.13048717012E+00  0.19298394069E-01 0.  0.
         14    1    1    2    0    0 -0.52618546849E-02  0.16881810714E-01  0.16126726549E-01  0.23932278556E-01  0.00000000000E+00 0.  1.
     999901    1    3    3    0    0  0.65351490267E-01  0.76480486864E-01 -0.81908111745E-01  0.88951055133E+00  0.88000000000E+00 0.  1.
        -11    1    4    4    0    0 -0.35150626017E-01 -0.40925828809E-01  0.38819115285E-01  0.66465591140E-01  0.51100000000E-03 0.  1.
         11    1    4    4    0    0 -0.24939009565E-01 -0.52436468770E-01  0.26962269911E-01  0.64021578978E-01  0.51100000000E-03 0. -1.
</event>
<event>
 8    1  0.1086486E+005  0.1043930E+01  0.7957747E-01            NaN
         13   -1    0    0    0    0  0.00000000000E+00  0.00000000000E+00  0.74505805969E-08  0.10566000000E+00  0.10566000000E+00 0.  1.
     999900   -1    0    0    0    0 -0.00000000000E+00 -0.00000000000E+00 -0.74505805969E-08  0.93827000000E+00  0.93827000000E+00 0. -1.
     999902    2    1    2    0    0 -0.18529441074E-01 -0.77618189197E-03 -0.15162780520E-01  0.10199747802E+01  0.10196934341E+01 0.  0.
     999903    2    3    3    0    0 -0.11742900010E+00 -0.54365440109E-01 -0.22159325471E-01  0.13278715456E+00  0.19905315037E-01 0.  0.
         14    1    1    2    0    0  0.18529441074E-01  0.77618189197E-03  0.15162780520E-01  0.23955219847E-01  0.00000000000E+00 0.  1.
     999901    1    3    3    0    0  0.98899559027E-01  0.53589258217E-01  0.69965449517E-02  0.88718762560E+00  0.88000000000E+00 0.  1.
        -11    1    4    4    0    0 -0.23653948065E-01 -0.20225295456E-01 -0.50059995429E-02  0.31526068384E-01  0.51100000000E-03 0. -1.
         11    1    4    4    0    0 -0.93775052035E-01 -0.34140144654E-01 -0.17153325928E-01  0.10126108617E+00  0.51100000000E-03 0.  1.
</event>
<event>
 8    1  0.1086486E+005  0.1043930E+01  0.7957747E-01            NaN
         13   -1    0    0    0    0  0.00000000000E+00  0.00000000000E+00  0.74505805969E-08  0.10566000000E+00  0.10566000000E+00 0.  1.
     999900   -1    0    0    0    0 -0.00000000000E+00 -0.00000000000E+00 -0.74505805969E-08  0.93827000000E+00  0.93827000000E+00 0.  1.
     999902    2    1    2    0    0  0.73023141833E-02  0.58076682028E-02 -0.22543522917E-01  0.10195319831E+01  0.10192400117E+01 0.  0.
     999903    2    3    3    0    0  0.18831925294E-01 -0.92986492473E-01 -0.88711197098E-01  0.13146026348E+00  0.20273016306E-01 0.  0.
         14    1    1    2    0    0 -0.73023141833E-02 -0.58076682028E-02  0.22543522917E-01  0.24398016884E-01  0.00000000000E+00 0.  1.
     999901    1    3    3    0    0 -0.11529611111E-01  0.98794160675E-01  0.66167674181E-01  0.88807171964E+00  0.88000000000E+00 0. -1.
        -11    1    4    4    0    0  0.21264981001E-01 -0.57188655993E-01 -0.52733735790E-01  0.80646449411E-01  0.51100000000E-03 0.  1.
         11    1    4    4    0    0 -0.24330557071E-02 -0.35797836480E-01 -0.35977461308E-01  0.50813814066E-01  0.51100000000E-03 0. -1.
</event>
<event>
 8    1  0.1086486E+005  0.1043930E+01  0.7957747E-01            NaN
         13   -1    0    0    0    0  0.00000000000E+00  0.00000000000E+00  0.74505805969E-08  0.10566000000E+00  0.10566000000E+00 0. -1.
     999900   -1    0    0    0    0 -0.00000000000E+00 -0.00000000000E+00 -0.74505805969E-08  0.93827000000E+00  0.93827000000E+00 0.  1.
     999902    2    1    2    0    0  0.17340467118E-01 -0.14459053383E-01 -0.67896665994E-02  0.10203534100E+01  0.10200809898E+01 0.  0.
     999903    2    3    3    0    0 -0.11861974780E+00 -0.40901638337E-01  0.22893222705E-01  0.12902548813E+00  0.19490724863E-01 0.  0.
         14    1    1    2    0    0 -0.17340467118E-01  0.14459053383E-01  0.67896665994E-02  0.23576590023E-01  0.00000000000E+00 0. -1.
     999901    1    3    3    0    0  0.13596021492E+00  0.26442584954E-01 -0.29682889304E-01  0.89132792184E+00  0.88000000000E+00 0.  1.
        -11    1    4    4    0    0 -0.61080715214E-01 -0.21084272546E-01  0.18971661004E-02  0.64647201641E-01  0.51100000000E-03 0.  1.
         11    1    4    4    0    0 -0.57539032586E-01 -0.19817365791E-01  0.20996056604E-01  0.64378286493E-01  0.51100000000E-03 0. -1.
</event>
<event>
 8    1  0.1086486E+005  0.1043930E+01  0.7957747E-01            NaN
         13   -1    0    0    0    0  0.00000000000E+00  0.00000000000E+00  0.74505805969E-08  0.10566000000E+00  0.10566000000E+00 0. -1.
     999900   -1    0    0    0    0 -0.00000000000E+00 -0.00000000000E+00 -0.74505805969E-08  0.93827000000E+00  0.93827000000E+00 0.  1.
     999902    2    1    2    0    0 -0.11531746464E-01  0.16138806810E-01  0.12359129701E-01  0.10205592844E+01  0.10202916556E+01 0.  0.
     999903    2    3    3    0    0 -0.27702036507E-01  0.11561419163E+00  0.57659758431E-01  0.13364949334E+00  0.20087189846E-01 0.  0.
         14    1    1    2    0    0  0.11531746464E-01 -0.16138806810E-01 -0.12359129701E-01  0.23370715623E-01  0.00000000000E+00 0. -1.
     999901    1    3    3    0    0  0.16170290043E-01 -0.99475384821E-01 -0.45300628729E-01  0.88690979103E+00  0.88000000000E+00 0. -1.
        -11    1    4    4    0    0  0.91353788157E-03  0.19613956649E-01  0.41399929648E-02  0.20073427950E-01  0.51100000000E-03 0.  1.
         11    1    4    4    0    0 -0.28615574388E-01  0.96000234982E-01  0.53519765466E-01  0.11357606540E+00  0.51100000000E-03 0. -1.
</event>
<event>
 8    1  0.1086486E+005  0.1043930E+01  0.7957747E-01            NaN
         13   -1    0    0    0    0  0.00000000000E+00  0.00000000000E+00  0.74505805969E-08  0.10566000000E+00  0.10566000000E+00 0. -1.
     999900   -1    0    0    0    0 -0.00000000000E+00 -0.00000000000E+00 -0.74505805969E-08  0.93827000000E+00  0.93827000000E+00 0.  1.
     999902    2    1    2    0    0 -0.15541074340E-01 -0.13063294288E-01  0.13935342628E-01  0.10193054508E+01  0.10190079654E+01 0.  0.
     999903    2    3    3    0    0 -0.18192019907E-01 -0.10917774391E+00 -0.66197194064E-01  0.13044874785E+00  0.19597907003E-01 0.  0.
         14    1    1    2    0    0  0.15541074340E-01  0.13063294288E-01 -0.13935342628E-01  0.24624549203E-01  0.00000000000E+00 0.  1.
     999901    1    3    3    0    0  0.26509455668E-02  0.96114449626E-01  0.80132536692E-01  0.88885670295E+00  0.88000000000E+00 0. -1.
        -11    1    4    4    0    0 -0.16391119731E-02 -0.40875028656E-01 -0.33763351341E-01  0.53044129463E-01  0.51100000000E-03 0.  1.
         11    1    4    4    0    0 -0.16552907934E-01 -0.68302715258E-01 -0.32433842723E-01  0.77404618386E-01  0.51100000000E-03 0. -1.
</event>
<event>
 8    1  0.1086486E+005  0.1043930E+01  0.7957747E-01            NaN
         13   -1    0    0    0    0  0.00000000000E+00  0.00000000000E+00  0.74505805969E-08  0.10566000000E+00  0.10566000000E+00 0. -1.
     999900   -1    0    0    0    0 -0.00000000000E+00 -0.00000000000E+00 -0.74505805969E-08  0.93827000000E+00  0.93827000000E+00 0.  1.
     999902    2    1    2    0    0 -0.56511502384E-02 -0.11208702499E-01 -0.20345128127E-01  0.10200240436E+01  0.10197438673E+01 0.  0.
     999903    2    3    3    0    0 -0.92026469123E-02  0.93066952049E-02  0.12547405656E+00  0.12778151535E+00  0.20324209930E-01 0.  0.
         14    1    1    2    0    0  0.56511502384E-02  0.11208702499E-01  0.20345128127E-01  0.23905956354E-01  0.00000000000E+00 0. -1.
     999901    1    3    3    0    0  0.35514966739E-02 -0.20515397704E-01 -0.14581918469E+00  0.89224252829E+00  0.88000000000E+00 0.  1.
        -11    1    4    4    0    0 -0.79595974389E-02  0.11106042792E-01  0.39897224652E-01  0.42175218242E-01  0.51100000000E-03 0.  1.
         11    1    4    4    0    0 -0.12430494734E-02 -0.17993475868E-02  0.85576831912E-01  0.85606297110E-01  0.51100000000E-03 0. -1.
</event>
<event>
 8    1  0.1086486E+005  0.1043930E+01  0.7957747E-01            NaN
         13   -1    0    0    0    0  0.00000000000E+00  0.00000000000E+00  0.74505805969E-08  0.10566000000E+00  0.10566000000E+00 0. -1.
     999900   -1    0    0    0    0 -0.00000000000E+00 -0.00000000000E+00 -0.74505805969E-08  0.93827000000E+00  0.93827000000E+00 0.  1.
     999902    2    1    2    0    0  0.39959127334E-02  0.22397355466E-01 -0.91208675089E-02  0.10194187970E+01  0.10191240771E+01 0.  0.
     999903    2    3    3    0    0  0.10956093538E+00  0.69956995789E-01 -0.10016923542E-01  0.13183404252E+00  0.19552395987E-01 0.  0.
         14    1    1    2    0    0 -0.39959127334E-02 -0.22397355466E-01  0.91208675089E-02  0.24511203042E-01  0.00000000000E+00 0. -1.
     999901    1    3    3    0    0 -0.10556502265E+00 -0.47559640323E-01  0.89605603269E-03  0.88758475444E+00  0.88000000000E+00 0. -1.
        -11    1    4    4    0    0  0.42753917580E-01  0.16827319491E-01 -0.55956720668E-03  0.45952479651E-01  0.51100000000E-03 0.  1.
         11    1    4    4    0    0  0.66807017800E-01  0.53129676298E-01 -0.94573563349E-02  0.85881562869E-01  0.51100000000E-03 0. -1.
</event>
<event>
 8    1  0.1168325E+005  0.1043930E+01  0.7957747E-01            NaN
         13   -1    0    0    0    0  0.00000000000E+00  0.00000000000E+00  0.74505805969E-08  0.10566000000E+00  0.10566000000E+00 0. -1.
     999900   -1    0    0    0    0 -0.00000000000E+00 -0.00000000000E+00 -0.74505805969E-08  0.93827000000E+00  0.93827000000E+00 0.  1.
     999902    2    1    2    0    0 -0.34893078697E-02  0.23902838311E-01 -0.16103473407E-02  0.10197202051E+01  0.10194327749E+01 0.  0.
     999903    2    3    3    0    0 -0.27838163166E-01 -0.22297072923E-01 -0.12323431874E+00  0.12982150923E+00  0.19869679256E-01 0.  0.
         14    1    1    2    0    0  0.34893078697E-02 -0.23902838311E-01  0.16103473407E-02  0.24209794863E-01  0.00000000000E+00 0.  1.
     999901    1    3    3    0    0  0.24348855296E-01  0.46199911234E-01  0.12162397140E+00  0.88989869590E+00  0.88000000000E+00 0. -1.
        -11    1    4    4    0    0 -0.17931671124E-01 -0.91364680074E-02 -0.37946289881E-01  0.42955813503E-01  0.51100000000E-03 0.  1.
         11    1    4    4    0    0 -0.99064920420E-02 -0.13160604915E-01 -0.85288028863E-01  0.86865695730E-01  0.51100000000E-03 0. -1.
</event>
<event>
 8    1  0.1086486E+005  0.1043930E+01  0.7957747E-01            NaN
         13   -1    0    0    0    0  0.00000000000E+00  0.00000000000E+00  0.74505805969E-08  0.10566000000E+00  0.10566000000E+00 0. -1.
     999900   -1    0    0    0    0 -0.00000000000E+00 -0.00000000000E+00 -0.74505805969E-08  0.93827000000E+00  0.93827000000E+00 0.  1.
     999902    2    1    2    0    0 -0.22640444534E-02 -0.21160395503E-01  0.11902159875E-01  0.10195466113E+01  0.10192549941E+01 0.  0.
     999903    2    3    3    0    0  0.47292835181E-01 -0.29494268470E-02 -0.11788637439E+00  0.12846154951E+00  0.18970004200E-01 0.  0.
         14    1    1    2    0    0  0.22640444534E-02  0.21160395503E-01 -0.11902159875E-01  0.24383388707E-01  0.00000000000E+00 0.  1.
     999901    1    3    3    0    0 -0.49556879635E-01 -0.18210968656E-01  0.12978853426E+00  0.89108506178E+00  0.88000000000E+00 0. -1.
        -11    1    4    4    0    0  0.33544719591E-01  0.34050780581E-02 -0.96717870402E-01  0.10242778112E+00  0.51100000000E-03 0. -1.
         11    1    4    4    0    0  0.13748115590E-01 -0.63545049051E-02 -0.21168503985E-01  0.26033768395E-01  0.51100000000E-03 0.  1.
</event>
<event>
 8    1  0.1086486E+005  0.1043930E+01  0.7957747E-01            NaN
         13   -1    0    0    0    0  0.00000000000E+00  0.00000000000E+00  0.74505805969E-08  0.10566000000E+00  0.10566000000E+00 0. -1.
     999900   -1    0    0    0    0 -0.00000000000E+00 -0.00000000000E+00 -0.74505805969E-08  0.93827000000E+00  0.93827000000E+00 0.  1.
     999902    2    1    2    0    0  0.11065780870E-01  0.28656850247E-02  0.20437121657E-01  0.10205133478E+01  0.10202446538E+01 0.  0.
     999903    2    3    3    0    0  0.87652420551E-01  0.11999779224E-01  0.98156606203E-01  0.13372743042E+00  0.20527171627E-01 0.  0.
         14    1    1    2    0    0 -0.11065780870E-01 -0.28656850247E-02 -0.20437121657E-01  0.23416652163E-01  0.00000000000E+00 0.  1.
     999901    1    3    3    0    0 -0.76586639681E-01 -0.91340941997E-02 -0.77719484546E-01  0.88678591742E+00  0.88000000000E+00 0.  1.
        -11    1    4    4    0    0  0.54457571023E-01 -0.75674568736E-03  0.50597178551E-01  0.74340670592E-01  0.51100000000E-03 0.  1.
         11    1    4    4    0    0  0.33194849528E-01  0.12756524912E-01  0.47559427652E-01  0.59386759826E-01  0.51100000000E-03 0. -1.
</event>
<event>
 8    1  0.1086486E+005  0.1043930E+01  0.7957747E-01            NaN
         13   -1    0    0    0    0  0.00000000000E+00  0.00000000000E+00  0.74505805969E-08  0.10566000000E+00  0.10566000000E+00 0. -1.
     999900   -1    0    0    0    0 -0.00000000000E+00 -0.00000000000E+00 -0.74505805969E-08  0.93827000000E+00  0.93827000000E+00 0.  1.
     999902    2    1    2    0    0  0.45959861858E-02  0.37614946574E-02 -0.25733066836E-01  0.10175204816E+01  0.10171776973E+01 0.  0.
     999903    2    3    3    0    0  0.49520993660E-01 -0.10654854800E+00 -0.49922669182E-01  0.12916711801E+00  0.19671034147E-01 0.  0.
         14    1    1    2    0    0 -0.45959861858E-02 -0.37614946574E-02  0.25733066836E-01  0.26409518358E-01  0.00000000000E+00 0. -1.
     999901    1    3    3    0    0 -0.44925007475E-01  0.11031004266E+00  0.24189602345E-01  0.88835336363E+00  0.88000000000E+00 0. -1.
        -11    1    4    4    0    0  0.37681364969E-02 -0.24414933399E-01 -0.61780570541E-02  0.25469930025E-01  0.51100000000E-03 0. -1.
         11    1    4    4    0    0  0.45752857163E-01 -0.82133614599E-01 -0.43744612128E-01  0.10369718799E+00  0.51100000000E-03 0.  1.
</event>
<event>
 8    1  0.1086486E+005  0.1043930E+01  0.7957747E-01            NaN
         13   -1    0    0    0    0  0.00000000000E+00  0.00000000000E+00  0.74505805969E-08  0.10566000000E+00  0.10566000000E+00 0.  1.
     999900   -1    0    0    0    0 -0.00000000000E+00 -0.00000000000E+00 -0.74505805969E-08  0.93827000000E+00  0.93827000000E+00 0.  1.
     999902    2    1    2    0    0  0.66422197289E-02  0.26381864777E-02  0.22695118253E-01  0.10201361457E+01  0.10198586217E+01 0.  0.
     999903    2    3    3    0    0  0.17574489798E-01 -0.10232940421E+00 -0.73273553553E-01  0.12864991719E+00  0.20040406304E-01 0.  0.
         14    1    1    2    0    0 -0.66422197289E-02 -0.26381864777E-02 -0.22695118253E-01  0.23793854318E-01  0.00000000000E+00 0. -1.
     999901    1    3    3    0    0 -0.10932270069E-01  0.10496759069E+00  0.95968671806E-01  0.89148622849E+00  0.88000000000E+00 0. -1.
        -11    1    4    4    0    0 -0.12196249963E-02 -0.40315263177E-01 -0.34896721775E-01  0.53337137548E-01  0.51100000000E-03 0.  1.
         11    1    4    4    0    0  0.18794114794E-01 -0.62014141033E-01 -0.38376831778E-01  0.75312779641E-01  0.51100000000E-03 0. -1.
</event>
<event>
 8    1  0.1086486E+005  0.1043930E+01  0.7957747E-01            NaN
         13   -1    0    0    0    0  0.00000000000E+00  0.00000000000E+00  0.74505805969E-08  0.10566000000E+00  0.10566000000E+00 0.  1.
     999900   -1    0    0    0    0 -0.00000000000E+00 -0.00000000000E+00 -0.74505805969E-08  0.93827000000E+00  0.93827000000E+00 0. -1.
     999902    2    1    2    0    0  0.10294654871E-01  0.19135050882E-01  0.82743604441E-02  0.10206792982E+01  0.10204144426E+01 0.  0.
     999903    2    3    3    0    0  0.41242759572E-01 -0.11096318726E+00 -0.46781311069E-01  0.12887524818E+00  0.20162945843E-01 0.  0.
         14    1    1    2    0    0 -0.10294654871E-01 -0.19135050882E-01 -0.82743604441E-02  0.23250701751E-01  0.00000000000E+00 0.  1.
     999901    1    3    3    0    0 -0.30948104702E-01  0.13009823814E+00  0.55055671513E-01  0.89180405007E+00  0.88000000000E+00 0.  1.
        -11    1    4    4    0    0  0.34649534286E-01 -0.78324268860E-01 -0.41444408141E-01  0.95148207581E-01  0.51100000000E-03 0. -1.
         11    1    4    4    0    0  0.65932252866E-02 -0.32638918397E-01 -0.53369029280E-02  0.33727040600E-01  0.51100000000E-03 0.  1.
</event>
<event>
 8    1  0.1086486E+005  0.1043930E+01  0.7957747E-01            NaN
         13   -1    0    0    0    0  0.00000000000E+00  0.00000000000E+00  0.74505805969E-08  0.10566000000E+00  0.10566000000E+00 0. -1.
     999900   -1    0    0    0    0 -0.00000000000E+00 -0.00000000000E+00 -0.74505805969E-08  0.93827000000E+00  0.93827000000E+00 0. -1.
     999902    2    1    2    0    0  0.17115147792E-01  0.10613892622E-01  0.99529914154E-02  0.10214656941E+01  0.10212186442E+01 0.  0.
     999903    2    3    3    0    0 -0.15245255923E-01 -0.98162139623E-01 -0.80773641285E-01  0.12955160476E+00  0.19774065991E-01 0.  0.
         14    1    1    2    0    0 -0.17115147792E-01 -0.10613892622E-01 -0.99529914154E-02  0.22464305879E-01  0.00000000000E+00 0.  1.
     999901    1    3    3    0    0  0.32360403714E-01  0.10877603225E+00  0.90726632700E-01  0.89191408936E+00  0.88000000000E+00 0.  1.
        -11    1    4    4    0    0 -0.17002037739E-01 -0.46170488299E-01 -0.41490632065E-01  0.64362387675E-01  0.51100000000E-03 0.  1.
         11    1    4    4    0    0  0.17567818160E-02 -0.51991651324E-01 -0.39283009220E-01  0.65189217085E-01  0.51100000000E-03 0. -1.
</event>
<event>
 8    1  0.1086486E+005  0.1043930E+01  0.7957747E-01            NaN
         13   -1    0    0    0    0  0.00000000000E+00  0.00000000000E+00  0.74505805969E-08  0.10566000000E+00  0.10566000000E+00 0. -1.
     999900   -1    0    0    0    0 -0.00000000000E+00 -0.00000000000E+00 -0.74505805969E-08  0.93827000000E+00  0.93827000000E+00 0. -1.
     999902    2    1    2    0    0  0.71789122986E-02  0.17029614810E-01 -0.14718744208E-01  0.10203040398E+01  0.10200304641E+01 0.  0.
     999903    2    3    3    0    0  0.75408043860E-01  0.31001776334E-02 -0.10722090405E+00  0.13271973782E+00  0.20548050078E-01 0.  0.
         14    1    1    2    0    0 -0.71789122986E-02 -0.17029614810E-01  0.14718744208E-01  0.23625960159E-01  0.00000000000E+00 0. -1.
     999901    1    3    3    0    0 -0.68229131561E-01  0.13929437176E-01  0.92502159844E-01  0.88758430202E+00  0.88000000000E+00 0.  1.
        -11    1    4    4    0    0  0.33202632911E-01 -0.85822467830E-02 -0.43375748535E-01  0.55297255574E-01  0.51100000000E-03 0.  1.
         11    1    4    4    0    0  0.42205410949E-01  0.11682424416E-01 -0.63845155517E-01  0.77422482249E-01  0.51100000000E-03 0. -1.
</event>
<event>
 7    1  0.1086486E+005  0.1043930E+01  0.7957747E-01            NaN
         13   -1    0    0    0    0  0.00000000000E+00  0.00000000000E+00  0.74505805969E-08  0.10566000000E+00  0.10566000000E+00 0. -1.
     999900   -1    0    0    0    0 -0.00000000000E+00 -0.00000000000E+00 -0.74505805969E-08  0.93827000000E+00  0.93827000000E+00 0. -1.
     999903    2    1    2    0    0 -0.78975104657E-01 -0.56293724924E-01  0.18451388794E-01  0.10068841365E+00  0.19790206503E-01 0.  0.
         14    1    1    2    0    0  0.97914156648E-02  0.56755905949E-01 -0.18609263341E-01  0.60526104805E-01  0.00000000000E+00 0. -1.
     999901    1    1    2    0    0  0.69183688992E-01 -0.46218102439E-03  0.15787454706E-03  0.88271548154E+00  0.88000000000E+00 0. -1.
        -11    1    3    3    0    0 -0.23558702659E-01 -0.25026393616E-01 -0.21895169297E-03  0.34375018680E-01  0.51100000000E-03 0. -1.
         11    1    3    3    0    0 -0.55416401998E-01 -0.31267331309E-01  0.18670340487E-01  0.66313394970E-01  0.51100000000E-03 0.  1.
</event>
<event>
 8    1  0.1550717E+005  0.1043930E+01  0.7957747E-01            NaN
         13   -1    0    0    0    0  0.00000000000E+00  0.00000000000E+00  0.74505805969E-08  0.10566000000E+00  0.10566000000E+00 0.  1.
     999900   -1    0    0    0    0 -0.00000000000E+00 -0.00000000000E+00 -0.74505805969E-08  0.93827000000E+00  0.93827000000E+00 0.  1.
     999902    2    1    2    0    0  0.22022326170E-01 -0.52209082111E-02 -0.64773173762E-02  0.10203886242E+01  0.10201170267E+01 0.  0.
     999903    2    3    3    0    0 -0.68389931602E-01 -0.41016503283E-02 -0.10848996790E+00  0.12989313859E+00  0.20202674010E-01 0.  0.
         14    1    1    2    0    0 -0.22022326170E-01  0.52209082111E-02  0.64773173762E-02  0.23541375764E-01  0.00000000000E+00 0.  1.
     999901    1    3    3    0    0  0.90412257772E-01 -0.11192578828E-02  0.10201265052E+00  0.89049548565E+00  0.88000000000E+00 0. -1.
        -11    1    4    4    0    0 -0.31885883553E-01 -0.11048546614E-01 -0.59462752067E-01  0.68372947549E-01  0.51100000000E-03 0.  1.
         11    1    4    4    0    0 -0.36504048049E-01  0.69468962860E-02 -0.49027215833E-01  0.61520191038E-01  0.51100000000E-03 0. -1.
</event>
<event>
 8    1  0.1086486E+005  0.1043930E+01  0.7957747E-01            NaN
         13   -1    0    0    0    0  0.00000000000E+00  0.00000000000E+00  0.74505805969E-08  0.10566000000E+00  0.10566000000E+00 0. -1.
     999900   -1    0    0    0    0 -0.00000000000E+00 -0.00000000000E+00 -0.74505805969E-08  0.93827000000E+00  0.93827000000E+00 0. -1.
     999902    2    1    2    0    0 -0.27909299139E-02  0.44612352359E-02  0.23043803593E-01  0.10202929783E+01  0.10200191434E+01 0.  0.
     999903    2    3    3    0    0 -0.11236802425E-01 -0.12722759652E+00 -0.11672275136E-01  0.12977712372E+00  0.19817486962E-01 0.  0.
         14    1    1    2    0    0  0.27909299139E-02 -0.44612352359E-02 -0.23043803593E-01  0.23637021675E-01  0.00000000000E+00 0.  1.
     999901    1    3    3    0    0  0.84458725111E-02  0.13168883176E+00  0.34716078729E-01  0.89051585460E+00  0.88000000000E+00 0.  1.
        -11    1    4    4    0    0  0.42812960458E-02 -0.31698843447E-01 -0.77462402069E-02  0.32915217303E-01  0.51100000000E-03 0. -1.
         11    1    4    4    0    0 -0.15518098471E-01 -0.95528753077E-01 -0.39260349289E-02  0.96861906422E-01  0.51100000000E-03 0.  1.
</event>
<event>
 8    1  0.1086486E+005  0.1043930E+01  0.7957747E-01            NaN
         13   -1    0    0    0    0  0.00000000000E+00  0.00000000000E+00  0.74505805969E-08  0.10566000000E+00  0.10566000000E+00 0. -1.
     999900   -1    0    0    0    0 -0.00000000000E+00 -0.00000000000E+00 -0.74505805969E-08  0.93827000000E+00  0.93827000000E+00 0.  1.
     999902    2    1    2    0    0  0.17472390793E-01  0.10359950391E-01  0.11258880925E-01  0.10207055428E+01  0.10204412917E+01 0.  0.
     999903    2    3    3    0    0  0.83108886867E-01 -0.99792052219E-01  0.12089335933E-01  0.13141239488E+00  0.16047576849E-01 0.  0.
         14    1    1    2    0    0 -0.17472390793E-01 -0.10359950391E-01 -0.11258880925E-01  0.23224457191E-01  0.00000000000E+00 0. -1.
     999901    1    3    3    0    0 -0.65636496074E-01  0.11015200261E+00 -0.83045500810E-03  0.88929314793E+00  0.88000000000E+00 0. -1.
        -11    1    4    4    0    0  0.62604651235E-01 -0.64989561897E-01  0.48344074726E-02  0.90369342857E-01  0.51100000000E-03 0. -1.
         11    1    4    4    0    0  0.20504235632E-01 -0.34802490322E-01  0.72549284605E-02  0.41043052024E-01  0.51100000000E-03 0.  1.
</event>
<event>
 8    1  0.1086486E+005  0.1043930E+01  0.7957747E-01            NaN
         13   -1    0    0    0    0  0.00000000000E+00  0.00000000000E+00  0.74505805969E-08  0.10566000000E+00  0.10566000000E+00 0.  1.
     999900   -1    0    0    0    0 -0.00000000000E+00 -0.00000000000E+00 -0.74505805969E-08  0.93827000000E+00  0.93827000000E+00 0. -1.
     999902    2    1    2    0    0 -0.13338371664E-01  0.25005776545E-03  0.19347645343E-01  0.10204288071E+01  0.10201581467E+01 0.  0.
     999903    2    3    3    0    0 -0.27055423278E-01  0.12551192290E+00  0.19719567626E-01  0.13145252469E+00  0.20141156396E-01 0.  0.
         14    1    1    2    0    0  0.13338371664E-01 -0.25005776545E-03 -0.19347645343E-01  0.23501192903E-01  0.00000000000E+00 0. -1.
     999901    1    3    3    0    0  0.13717051614E-01 -0.12526186513E+00 -0.37192228294E-03  0.88897628241E+00  0.88000000000E+00 0. -1.
        -11    1    4    4    0    0 -0.12873735046E-01  0.69593094358E-01  0.94121164641E-03  0.70781910378E-01  0.51100000000E-03 0. -1.
         11    1    4    4    0    0 -0.14181688232E-01  0.55918828540E-01  0.18778355980E-01  0.60670614310E-01  0.51100000000E-03 0.  1.
</event>
<event>
 8    1  0.1086486E+005  0.1043930E+01  0.7957747E-01            NaN
         13   -1    0    0    0    0  0.00000000000E+00  0.00000000000E+00  0.74505805969E-08  0.10566000000E+00  0.10566000000E+00 0.  1.
     999900   -1    0    0    0    0 -0.00000000000E+00 -0.00000000000E+00 -0.74505805969E-08  0.93827000000E+00  0.93827000000E+00 0. -1.
     999902    2    1    2    0    0  0.20376850309E-01 -0.13576086453E-02 -0.14576955808E-01  0.10188392294E+01  0.10185302296E+01 0.  0.
     999903    2    3    3    0    0 -0.87224881291E-01 -0.17508686608E-01  0.87487536949E-01  0.12628326439E+00  0.19459180854E-01 0.  0.
         14    1    1    2    0    0 -0.20376850309E-01  0.13576086453E-02  0.14576955808E-01  0.25090770621E-01  0.00000000000E+00 0. -1.
     999901    1    3    3    0    0  0.10760173160E+00  0.16151077963E-01 -0.10206449276E+00  0.89255596499E+00  0.88000000000E+00 0.  1.
        -11    1    4    4    0    0 -0.24834167276E-01  0.24270851524E-02  0.17866852304E-01  0.30693845293E-01  0.51100000000E-03 0.  1.
         11    1    4    4    0    0 -0.62390714015E-01 -0.19935771761E-01  0.69620684645E-01  0.95589419093E-01  0.51100000000E-03 0. -1.
</event>
<event>
 8    1  0.1086486E+005  0.1043930E+01  0.7957747E-01            NaN
         13   -1    0    0    0    0  0.00000000000E+00  0.00000000000E+00  0.74505805969E-08  0.10566000000E+00  0.10566000000E+00 0. -1.
     999900   -1    0    0    0    0 -0.00000000000E+00 -0.00000000000E+00 -0.74505805969E-08  0.93827000000E+00  0.93827000000E+00 0. -1.
     999902    2    1    2    0    0 -0.10626952270E-01  0.18541156380E-01  0.71222789761E-02  0.10214037164E+01  0.10211552862E+01 0.  0.
     999903    2    3    3    0    0 -0.12608743154E+00 -0.70188029611E-03  0.37753926979E-01  0.13312464169E+00  0.19956908409E-01 0.  0.
         14    1    1    2    0    0  0.10626952270E-01 -0.18541156380E-01 -0.71222789761E-02  0.22526283588E-01  0.00000000000E+00 0. -1.
     999901    1    3    3    0    0  0.11546047927E+00  0.19243036676E-01 -0.30631648002E-01  0.88827907472E+00  0.88000000000E+00 0.  1.
        -11    1    4    4    0    0 -0.64561429496E-01  0.26820403497E-03  0.29687739514E-01  0.71062459220E-01  0.51100000000E-03 0. -1.
         11    1    4    4    0    0 -0.61526002046E-01 -0.97008433108E-03  0.80661874649E-02  0.62062182467E-01  0.51100000000E-03 0.  1.
</event>
<event>
 8    1  0.1086486E+005  0.1043930E+01  0.7957747E-01            NaN
         13   -1    0    0    0    0  0.00000000000E+00  0.00000000000E+00  0.74505805969E-08  0.10566000000E+00  0.10566000000E+00 0. -1.
     999900   -1    0    0    0    0 -0.00000000000E+00 -0.00000000000E+00 -0.74505805969E-08  0.93827000000E+00  0.93827000000E+00 0. -1.
     999902    2    1    2    0    0 -0.18778984983E-01  0.37364523037E-02  0.14498050730E-01  0.10199132386E+01  0.10196304279E+01 0.  0.
     999903    2    3    3    0    0 -0.19277362459E-01  0.39117325412E-01 -0.11973899868E+00  0.12903073233E+00  0.20241547083E-01 0.  0.
         14    1    1    2    0    0  0.18778984983E-01 -0.37364523037E-02 -0.14498050730E-01  0.24016761392E-01  0.00000000000E+00 0. -1.
     999901    1    3    3    0    0  0.49837747580E-03 -0.35380873108E-01  0.13423704941E+00  0.89088250628E+00  0.88000000000E+00 0.  1.
        -11    1    4    4    0    0 -0.47663206983E-02  0.31037505217E-01 -0.75305279303E-01  0.81591609587E-01  0.51100000000E-03 0.  1.
         11    1    4    4    0    0 -0.14511041760E-01  0.80798201955E-02 -0.44433719380E-01  0.47439122740E-01  0.51100000000E-03 0. -1.
</event>
<event>
 8    1  0.1086486E+005  0.1043930E+01  0.7957747E-01            NaN
         13   -1    0    0    0    0  0.00000000000E+00  0.00000000000E+00  0.74505805969E-08  0.10566000000E+00  0.10566000000E+00 0.  1.
     999900   -1    0    0    0    0 -0.00000000000E+00 -0.00000000000E+00 -0.74505805969E-08  0.93827000000E+00  0.93827000000E+00 0. -1.
     999902    2    1    2    0    0  0.10027800588E-02  0.78286515471E-02 -0.22694132937E-01  0.10199025777E+01  0.10196195128E+01 0.  0.
     999903    2    3    3    0    0  0.12739144662E+00  0.82112675055E-02 -0.20382651276E-01  0.13086962871E+00  0.20381404775E-01 0.  0.
         14    1    1    2    0    0 -0.10027800588E-02 -0.78286515471E-02  0.22694132937E-01  0.24027422306E-01  0.00000000000E+00 0.  1.
     999901    1    3    3    0    0 -0.12638866656E+00 -0.38261595844E-03 -0.23114816611E-02  0.88903294898E+00  0.88000000000E+00 0. -1.
        -11    1    4    4    0    0  0.64954479800E-01  0.12996657799E-01 -0.15659088500E-01  0.68069565400E-01  0.51100000000E-03 0. -1.
         11    1    4    4    0    0  0.62436966817E-01 -0.47853902935E-02 -0.47235627758E-02  0.62800063311E-01  0.51100000000E-03 0.  1.
</event>
<event>
 8    1  0.1086486E+005  0.1043930E+01  0.7957747E-01            NaN
         13   -1    0    0    0    0  0.00000000000E+00  0.00000000000E+00  0.74505805969E-08  0.10566000000E+00  0.10566000000E+00 0. -1.
     999900   -1    0    0    0    0 -0.00000000000E+00 -0.00000000000E+00 -0.74505805969E-08  0.93827000000E+00  0.93827000000E+00 0.  1.
     999902    2    1    2    0    0  0.16139788117E-01  0.81106931842E-02 -0.15080382373E-01  0.10203992959E+01  0.10201279474E+01 0.  0.
     999903    2    3    3    0    0 -0.10218475212E+00  0.29284396961E-01  0.68598940275E-01  0.12829434039E+00  0.21314870356E-01 0.  0.
         14    1    1    2    0    0 -0.16139788117E-01 -0.81106931842E-02  0.15080382373E-01  0.23530704131E-01  0.00000000000E+00 0. -1.
     999901    1    3    3    0    0  0.11832454023E+00 -0.21173703777E-01 -0.83679322648E-01  0.89210495548E+00  0.88000000000E+00 0.  1.
        -11    1    4    4    0    0 -0.46253366572E-01  0.28708783309E-02  0.33371920717E-01  0.57110087331E-01  0.51100000000E-03 0.  1.
         11    1    4    4    0    0 -0.55931385545E-01  0.26413518630E-01  0.35227019558E-01  0.71184253058E-01  0.51100000000E-03 0. -1.
</event>
<event>
 8    1  0.1086486E+005  0.1043930E+01  0.7957747E-01            NaN
         13   -1    0    0    0    0  0.00000000000E+00  0.00000000000E+00  0.74505805969E-08  0.10566000000E+00  0.10566000000E+00 0.  1.
     999900   -1    0    0    0    0 -0.00000000000E+00 -0.00000000000E+00 -0.74505805969E-08  0.93827000000E+00  0.93827000000E+00 0. -1.
     999902    2    1    2    0    0  0.16242387081E-01  0.22936877748E-02  0.20291930505E-01  0.10178371162E+01  0.10175026076E+01 0.  0.
     999903    2    3    3    0    0  0.85351675720E-01 -0.25423577756E-01  0.94721109746E-01  0.13156173952E+00  0.20127985959E-01 0.  0.
         14    1    1    2    0    0 -0.16242387081E-01 -0.22936877748E-02 -0.20291930505E-01  0.26092883806E-01  0.00000000000E+00 0. -1.
     999901    1    3    3    0    0 -0.69109288639E-01  0.27717265531E-01 -0.74429179241E-01  0.88627537668E+00  0.88000000000E+00 0. -1.
        -11    1    4    4    0    0  0.75489954415E-01 -0.28539779306E-01  0.86810326147E-01  0.11853078110E+00  0.51100000000E-03 0.  1.
         11    1    4    4    0    0  0.98617213044E-02  0.31162015499E-02  0.79107835992E-02  0.13030958420E-01  0.51100000000E-03 0. -1.
</event>
<event>
 8    1  0.1086486E+005  0.1043930E+01  0.7957747E-01            NaN
         13   -1    0    0    0    0  0.00000000000E+00  0.00000000000E+00  0.74505805969E-08  0.10566000000E+00  0.10566000000E+00 0. -1.
     999900   -1    0    0    0    0 -0.00000000000E+00 -0.00000000000E+00 -0.74505805969E-08  0.93827000000E+00  0.93827000000E+00 0.  1.
     999902    2    1    2    0    0  0.13748525771E-01 -0.15871038579E-01 -0.23885067506E-02  0.10227966900E+01  0.10225783355E+01 0.  0.
     999903    2    3    3    0    0  0.39567158367E-01  0.75098778863E-01 -0.99891678548E-01  0.13237601529E+00  0.18430284092E-01 0.  0.
         14    1    1    2    0    0 -0.13748525771E-01  0.15871038579E-01  0.23885067506E-02  0.21133309986E-01  0.00000000000E+00 0. -1.
     999901    1    3    3    0    0 -0.25818632596E-01 -0.90969817442E-01  0.97503171798E-01  0.89042067473E+00  0.88000000000E+00 0. -1.
        -11    1    4    4    0    0  0.24459818953E-01  0.52024557118E-01 -0.54245086589E-01  0.79041937139E-01  0.51100000000E-03 0. -1.
         11    1    4    4    0    0  0.15107339414E-01  0.23074221745E-01 -0.45646591959E-01  0.53334078147E-01  0.51100000000E-03 0.  1.
</event>
<event>
 8    1  0.1086486E+005  0.1043930E+01  0.7957747E-01            NaN
         13   -1    0    0    0    0  0.00000000000E+00  0.00000000000E+00  0.74505805969E-08  0.10566000000E+00  0.10566000000E+00 0. -1.
     999900   -1    0    0    0    0 -0.00000000000E+00 -0.00000000000E+00 -0.74505805969E-08  0.93827000000E+00  0.93827000000E+00 0.  1.
     999902    2    1    2    0    0  0.20761673602E-01  0.10104418336E-01  0.48300853923E-03  0.10208349863E+01  0.10205737061E+01 0.  0.
     999903    2    3    3    0    0 -0.84719417327E-01 -0.65977001724E-01  0.68198357646E-01  0.12870270265E+00  0.19571031021E-01 0.  0.
         14    1    1    2    0    0 -0.20761673602E-01 -0.10104418336E-01 -0.48300853923E-03  0.23095013702E-01  0.00000000000E+00 0.  1.
     999901    1    3    3    0    0  0.10548109093E+00  0.76081420060E-01 -0.67715349107E-01  0.89213228365E+00  0.88000000000E+00 0.  1.
        -11    1    4    4    0    0 -0.53661265494E-01 -0.49836058424E-01  0.53698706180E-01  0.90812864178E-01  0.51100000000E-03 0. -1.
         11    1    4    4    0    0 -0.31058151833E-01 -0.16140943299E-01  0.14499651466E-01  0.37889838473E-01  0.51100000000E-03 0.  1.
</event>
<event>
 8    1  0.1086486E+005  0.1043930E+01  0.7957747E-01            NaN
         13   -1    0    0    0    0  0.00000000000E+00  0.00000000000E+00  0.74505805969E-08  0.10566000000E+00  0.10566000000E+00 0. -1.
     999900   -1    0    0    0    0 -0.00000000000E+00 -0.00000000000E+00 -0.74505805969E-08  0.93827000000E+00  0.93827000000E+00 0. -1.
     999902    2    1    2    0    0  0.18428244657E-01  0.10300865041E-01  0.84194030869E-02  0.10212012875E+01  0.10209483216E+01 0.  0.
     999903    2    3    3    0    0  0.71930826535E-01 -0.50123534165E-02  0.11080568197E+00  0.13351892823E+00  0.18714634571E-01 0.  0.
         14    1    1    2    0    0 -0.18428244657E-01 -0.10300865041E-01 -0.84194030869E-02  0.22728712459E-01  0.00000000000E+00 0.  1.
     999901    1    3    3    0    0 -0.53502581878E-01  0.15313218457E-01 -0.10238627888E+00  0.88768235931E+00  0.88000000000E+00 0. -1.
        -11    1    4    4    0    0  0.54788773454E-01 -0.81889045738E-03  0.68812062265E-01  0.87965000496E-01  0.51100000000E-03 0. -1.
         11    1    4    4    0    0  0.17142053081E-01 -0.41934629592E-02  0.41993619702E-01  0.45553927735E-01  0.51100000000E-03 0.  1.
</event>
<event>
 8    1  0.1086486E+005  0.1043930E+01  0.7957747E-01            NaN
         13   -1    0    0    0    0  0.00000000000E+00  0.00000000000E+00  0.74505805969E-08  0.10566000000E+00  0.10566000000E+00 0.  1.
     999900   -1    0    0    0    0 -0.00000000000E+00 -0.00000000000E+00 -0.74505805969E-08  0.93827000000E+00  0.93827000000E+00 0. -1.
     999902    2    1    2    0    0  0.11188827146E-01  0.97939885591E-02  0.19053469689E-01  0.10197608715E+01  0.10194744177E+01 0.  0.
     999903    2    3    3    0    0  0.65260245906E-01 -0.53112723280E-01  0.10007034660E+00  0.13215470486E+00  0.19259560709E-01 0.  0.
         14    1    1    2    0    0 -0.11188827146E-01 -0.97939885591E-02 -0.19053469689E-01  0.24169128491E-01  0.00000000000E+00 0. -1.
     999901    1    3    3    0    0 -0.54071418759E-01  0.62906711839E-01 -0.81016876914E-01  0.88760616664E+00  0.88000000000E+00 0.  1.
        -11    1    4    4    0    0  0.11564972739E-01 -0.19373407475E-01  0.21347968673E-01  0.31065646607E-01  0.51100000000E-03 0.  1.
         11    1    4    4    0    0  0.53695273167E-01 -0.33739315805E-01  0.78722377930E-01  0.10108905826E+00  0.51100000000E-03 0. -1.
</event>
<event>
 8    1  0.1086486E+005  0.1043930E+01  0.7957747E-01            NaN
         13   -1    0    0    0    0  0.00000000000E+00  0.00000000000E+00  0.74505805969E-08  0.10566000000E+00  0.10566000000E+00 0. -1.
     999900   -1    0    0    0    0 -0.00000000000E+00 -0.00000000000E+00 -0.74505805969E-08  0.93827000000E+00  0.93827000000E+00 0. -1.
     999902    2    1    2    0    0  0.62153726626E-02  0.10283885135E-01  0.20850896755E-01  0.10198644843E+01  0.10195805104E+01 0.  0.
     999903    2    3    3    0    0  0.81523693065E-01  0.49142858676E-01  0.90669366630E-01  0.13304094960E+00  0.20440820329E-01 0.  0.
         14    1    1    2    0    0 -0.62153726626E-02 -0.10283885135E-01 -0.20850896755E-01  0.24065515708E-01  0.00000000000E+00 0.  1.
     999901    1    3    3    0    0 -0.75308320403E-01 -0.38858973541E-01 -0.69818469875E-01  0.88682353469E+00  0.88000000000E+00 0. -1.
        -11    1    4    4    0    0  0.68033777129E-01  0.41186337735E-01  0.63895645939E-01  0.10201874307E+00  0.51100000000E-03 0.  1.
         11    1    4    4    0    0  0.13489915937E-01  0.79565209417E-02  0.26773720691E-01  0.31022206532E-01  0.51100000000E-03 0. -1.
</event>
<event>
 8    1  0.1086486E+005  0.1043930E+01  0.7957747E-01            NaN
         13   -1    0    0    0    0  0.00000000000E+00  0.00000000000E+00  0.74505805969E-08  0.10566000000E+00  0.10566000000E+00 0. -1.
     999900   -1    0    0    0    0 -0.00000000000E+00 -0.00000000000E+00 -0.74505805969E-08  0.93827000000E+00  0.93827000000E+00 0. -1.
     999902    2    1    2    0    0  0.20083152229E-01  0.82624967102E-02  0.38839494981E-02  0.10218690182E+01  0.10216308548E+01 0.  0.
     999903    2    3    3    0    0 -0.32173483981E-01 -0.10912063554E+00  0.61909011778E-01  0.13064712458E+00  0.17131819799E-01 0.  0.
         14    1    1    2    0    0 -0.20083152229E-01 -0.82624967102E-02 -0.38839494981E-02  0.22060981824E-01  0.00000000000E+00 0.  1.
     999901    1    3    3    0    0  0.52256636210E-01  0.11738313225E+00 -0.58025062280E-01  0.89122189359E+00  0.88000000000E+00 0. -1.
        -11    1    4    4    0    0 -0.23716266381E-01 -0.52477234645E-01  0.34734880191E-01  0.67253955051E-01  0.51100000000E-03 0.  1.
         11    1    4    4    0    0 -0.84572175995E-02 -0.56643400899E-01  0.27174131587E-01  0.63393169533E-01  0.51100000000E-03 0. -1.
</event>
<event>
 8    1  0.1086486E+005  0.1043930E+01  0.7957747E-01            NaN
         13   -1    0    0    0    0  0.00000000000E+00  0.00000000000E+00  0.74505805969E-08  0.10566000000E+00  0.10566000000E+00 0. -1.
     999900   -1    0    0    0    0 -0.00000000000E+00 -0.00000000000E+00 -0.74505805969E-08  0.93827000000E+00  0.93827000000E+00 0.  1.
     999902    2    1    2    0    0  0.13060322778E-01  0.11469490658E-01 -0.16017825088E-01  0.10202933343E+01  0.10200195076E+01 0.  0.
     999903    2    3    3    0    0 -0.85870368616E-01  0.41641037999E-01  0.83813877548E-01  0.12862973579E+00  0.20326008190E-01 0.  0.
         14    1    1    2    0    0 -0.13060322778E-01 -0.11469490658E-01  0.16017825088E-01  0.23636665746E-01  0.00000000000E+00 0. -1.
     999901    1    3    3    0    0  0.98930691394E-01 -0.30171547341E-01 -0.99831702636E-01  0.89166359846E+00  0.88000000000E+00 0.  1.
        -11    1    4    4    0    0 -0.62981167720E-01  0.24316653031E-01  0.48561130180E-01  0.83164725620E-01  0.51100000000E-03 0.  1.
         11    1    4    4    0    0 -0.22889200895E-01  0.17324384968E-01  0.35252747368E-01  0.45465010174E-01  0.51100000000E-03 0. -1.
</event>
<event>
 8    1  0.1086486E+005  0.1043930E+01  0.7957747E-01            NaN
         13   -1    0    0    0    0  0.00000000000E+00  0.00000000000E+00  0.74505805969E-08  0.10566000000E+00  0.10566000000E+00 0. -1.
     999900   -1    0    0    0    0 -0.00000000000E+00 -0.00000000000E+00 -0.74505805969E-08  0.93827000000E+00  0.93827000000E+00 0. -1.
     999902    2    1    2    0    0  0.82511582133E-02 -0.62011341809E-02  0.20928595849E-01  0.10205945805E+01  0.10203277689E+01 0.  0.
     999903    2    3    3    0    0  0.98525592073E-01  0.74127893126E-01  0.43204870427E-01  0.13205732277E+00  0.19241591328E-01 0.  0.
         14    1    1    2    0    0 -0.82511582133E-02  0.62011341809E-02 -0.20928595849E-01  0.23335419457E-01  0.00000000000E+00 0.  1.
     999901    1    3    3    0    0 -0.90274433860E-01 -0.80329027307E-01 -0.22276274577E-01  0.88853725777E+00  0.88000000000E+00 0.  1.
        -11    1    4    4    0    0  0.79410204025E-01  0.53556291168E-01  0.26513864301E-01  0.99385627473E-01  0.51100000000E-03 0. -1.
         11    1    4    4    0    0  0.19115388048E-01  0.20571601958E-01  0.16691006125E-01  0.32671695300E-01  0.51100000000E-03 0.  1.
</event>
<event>
 8    1  0.1086486E+005  0.1043930E+01  0.7957747E-01            NaN
         13   -1    0    0    0    0  0.00000000000E+00  0.00000000000E+00  0.74505805969E-08  0.10566000000E+00  0.10566000000E+00 0.  1.
     999900   -1    0    0    0    0 -0.00000000000E+00 -0.00000000000E+00 -0.74505805969E-08  0.93827000000E+00  0.93827000000E+00 0.  1.
     999902    2    1    2    0    0 -0.18453499728E-01  0.11894581924E-01  0.96733512503E-02  0.10199386171E+01  0.10196564108E+01 0.  0.
     999903    2    3    3    0    0 -0.12332504840E+00 -0.10703425952E-01 -0.32969244730E-01  0.13239870095E+00  0.33448677484E-01 0.  0.
         14    1    1    2    0    0  0.18453499728E-01 -0.11894581924E-01 -0.96733512503E-02  0.23991382948E-01  0.00000000000E+00 0. -1.
     999901    1    3    3    0    0  0.10487154867E+00  0.22598007876E-01  0.42642595980E-01  0.88753991610E+00  0.88000000000E+00 0. -1.
        -11    1    4    4    0    0 -0.32399446618E-01  0.10223795227E-01 -0.16028988251E-01  0.37569132481E-01  0.51100000000E-03 0. -1.
         11    1    4    4    0    0 -0.90925601781E-01 -0.20927221179E-01 -0.16940256479E-01  0.94829568470E-01  0.51100000000E-03 0.  1.
</event>
<event>
 8    1  0.1086486E+005  0.1043930E+01  0.7957747E-01            NaN
         13   -1    0    0    0    0  0.00000000000E+00  0.00000000000E+00  0.74505805969E-08  0.10566000000E+00  0.10566000000E+00 0.  1.
     999900   -1    0    0    0    0 -0.00000000000E+00 -0.00000000000E+00 -0.74505805969E-08  0.93827000000E+00  0.93827000000E+00 0. -1.
     999902    2    1    2    0    0 -0.11163211655E-01 -0.17321661783E-01 -0.11130209626E-01  0.10205090942E+01  0.10202403014E+01 0.  0.
     999903    2    3    3    0    0 -0.10232246666E-01 -0.77804468833E-01  0.10315363933E+00  0.13105991929E+00  0.19436946685E-01 0.  0.
         14    1    1    2    0    0  0.11163211655E-01  0.17321661783E-01  0.11130209626E-01  0.23420905783E-01  0.00000000000E+00 0.  1.
     999901    1    3    3    0    0 -0.93096498925E-03  0.60482807050E-01 -0.11428384895E+00  0.88944917493E+00  0.88000000000E+00 0. -1.
        -11    1    4    4    0    0 -0.11431591552E-01 -0.20121113447E-01  0.29391012428E-01  0.37411672300E-01  0.51100000000E-03 0.  1.
         11    1    4    4    0    0  0.11993448863E-02 -0.57683355386E-01  0.73762626897E-01  0.93648246991E-01  0.51100000000E-03 0. -1.
</event>
<event>
 8    1  0.1086486E+005  0.1043930E+01  0.7957747E-01            NaN
         13   -1    0    0    0    0  0.00000000000E+00  0.00000000000E+00  0.74505805969E-08  0.10566000000E+00  0.10566000000E+00 0.  1.
     999900   -1    0    0    0    0 -0.00000000000E+00 -0.00000000000E+00 -0.74505805969E-08  0.93827000000E+00  0.93827000000E+00 0. -1.
     999902    2    1    2    0    0  0.10330851497E-01  0.11624986096E-01  0.16827039745E-01  0.10210167710E+01  0.10207596341E+01 0.  0.
     999903    2    3    3    0    0  0.64078789035E-01  0.11480026999E+00 -0.54609806773E-02  0.13308054820E+00  0.19885090045E-01 0.  0.
         14    1    1    2    0    0 -0.10330851497E-01 -0.11624986096E-01 -0.16827039745E-01  0.22913228951E-01  0.00000000000E+00 0. -1.
     999901    1    3    3    0    0 -0.53747937538E-01 -0.10317528389E+00  0.22288020422E-01  0.88793622285E+00  0.88000000000E+00 0.  1.
        -11    1    4    4    0    0  0.73785516212E-02  0.28990323003E-01  0.17967235543E-02  0.29972840846E-01  0.51100000000E-03 0.  1.
         11    1    4    4    0    0  0.56700237413E-01  0.85809946982E-01 -0.72577042316E-02  0.10310770735E+00  0.51100000000E-03 0. -1.
</event>
<event>
 8    1  0.1086486E+005  0.1043930E+01  0.7957747E-01            NaN
         13   -1    0    0    0    0  0.00000000000E+00  0.00000000000E+00  0.74505805969E-08  0.10566000000E+00  0.10566000000E+00 0. -1.
     999900   -1    0    0    0    0 -0.00000000000E+00 -0.00000000000E+00 -0.74505805969E-08  0.93827000000E+00  0.93827000000E+00 0.  1.
     999902    2    1    2    0    0 -0.14209406123E-01  0.76756353069E-02  0.17306238508E-01  0.10202587412E+01  0.10199841031E+01 0.  0.
     999903    2    3    3    0    0  0.20269523590E-01 -0.42037076976E-01  0.12211966248E+00  0.13197612620E+00  0.18069767434E-01 0.  0.
         14    1    1    2    0    0  0.14209406123E-01 -0.76756353069E-02 -0.17306238508E-01  0.23671258754E-01  0.00000000000E+00 0.  1.
     999901    1    3    3    0    0 -0.34478929712E-01  0.49712712283E-01 -0.10481342397E+00  0.88828261505E+00  0.88000000000E+00 0.  1.
        -11    1    4    4    0    0  0.92351224575E-02 -0.34547576728E-01  0.76552579786E-01  0.84494858646E-01  0.51100000000E-03 0. -1.
         11    1    4    4    0    0  0.11034401132E-01 -0.74895002474E-02  0.45567082690E-01  0.47481267550E-01  0.51100000000E-03 0.  1.
</event>
<event>
 8    1  0.1086486E+005  0.1043930E+01  0.7957747E-01            NaN
         13   -1    0    0    0    0  0.00000000000E+00  0.00000000000E+00  0.74505805969E-08  0.10566000000E+00  0.10566000000E+00 0.  1.
     999900   -1    0    0    0    0 -0.00000000000E+00 -0.00000000000E+00 -0.74505805969E-08  0.93827000000E+00  0.93827000000E+00 0. -1.
     999902    2    1    2    0    0 -0.15449651302E-01 -0.16447808885E-02 -0.17864481549E-01  0.10202543431E+01  0.10199796017E+01 0.  0.
     999903    2    3    3    0    0 -0.22541300361E-01 -0.14539057117E-01 -0.12883749220E+00  0.13316271143E+00  0.20339958627E-01 0.  0.
         14    1    1    2    0    0  0.15449651302E-01  0.16447808885E-02  0.17864481549E-01  0.23675656919E-01  0.00000000000E+00 0.  1.
     999901    1    3    3    0    0  0.70916490596E-02  0.12894276228E-01  0.11097301065E+00  0.88709163165E+00  0.88000000000E+00 0.  1.
        -11    1    4    4    0    0  0.28002665985E-02  0.18478573252E-02 -0.16182380265E-01  0.16534407209E-01  0.51100000000E-03 0.  1.
         11    1    4    4    0    0 -0.25341566960E-01 -0.16386914442E-01 -0.11265511193E+00  0.11662830423E+00  0.51100000000E-03 0. -1.
</event>
<event>
 8    1  0.1086486E+005  0.1043930E+01  0.7957747E-01            NaN
         13   -1    0    0    0    0  0.00000000000E+00  0.00000000000E+00  0.74505805969E-08  0.10566000000E+00  0.10566000000E+00 0.  1.
     999900   -1    0    0    0    0 -0.00000000000E+00 -0.00000000000E+00 -0.74505805969E-08  0.93827000000E+00  0.93827000000E+00 0.  1.
     999902    2    1    2    0    0  0.25484253953E-02  0.22896482604E-01  0.44951843718E-02  0.10204576744E+01  0.10201876862E+01 0.  0.
     999903    2    3    3    0    0 -0.12335257039E+00  0.16416455714E-02  0.37760812562E-01  0.13062093044E+00  0.20430293253E-01 0.  0.
         14    1    1    2    0    0 -0.25484253953E-02 -0.22896482604E-01 -0.44951843718E-02  0.23472325624E-01  0.00000000000E+00 0. -1.
     999901    1    3    3    0    0  0.12590099578E+00  0.21254837033E-01 -0.33265628190E-01  0.88983674393E+00  0.88000000000E+00 0. -1.
        -11    1    4    4    0    0 -0.19983495529E-01  0.73391047797E-02  0.94157443213E-02  0.23283468699E-01  0.51100000000E-03 0.  1.
         11    1    4    4    0    0 -0.10336907486E+00 -0.56974592084E-02  0.28345068240E-01  0.10733746174E+00  0.51100000000E-03 0. -1.
</event>
<event>
 8    1  0.1086486E+005  0.1043930E+01  0.7957747E-01            NaN
         13   -1    0    0    0    0  0.00000000000E+00  0.00000000000E+00  0.74505805969E-08  0.10566000000E+00  0.10566000000E+00 0. -1.
     999900   -1    0    0    0    0 -0.00000000000E+00 -0.00000000000E+00 -0.74505805969E-08  0.93827000000E+00  0.93827000000E+00 0.  1.
     999902    2    1    2    0    0  0.22709631545E-01  0.14920772210E-02  0.53906010644E-02  0.10205417072E+01  0.10202736711E+01 0.  0.
     999903    2    3    3    0    0  0.95187335696E-01  0.54860410467E-01 -0.71475299627E-01  0.13261740680E+00  0.20208033432E-01 0.  0.
         14    1    1    2    0    0 -0.22709631545E-01 -0.14920772210E-02 -0.53906010644E-02  0.23388292780E-01  0.00000000000E+00 0. -1.
     999901    1    3    3    0    0 -0.72477704152E-01 -0.53368333246E-01  0.76865900692E-01  0.88792430042E+00  0.88000000000E+00 0. -1.
        -11    1    4    4    0    0  0.81445773844E-01  0.50341180699E-01 -0.68784119899E-01  0.11789471923E+00  0.51100000000E-03 0.  1.
         11    1    4    4    0    0  0.13741561853E-01  0.45192297681E-02 -0.26911797280E-02  0.14722687566E-01  0.51100000000E-03 0. -1.
</event>
<event>
 8    1  0.1086486E+005  0.1043930E+01  0.7957747E-01            NaN
         13   -1    0    0    0    0  0.00000000000E+00  0.00000000000E+00  0.74505805969E-08  0.10566000000E+00  0.10566000000E+00 0. -1.
     999900   -1    0    0    0    0 -0.00000000000E+00 -0.00000000000E+00 -0.74505805969E-08  0.93827000000E+00  0.93827000000E+00 0.  1.
     999902    2    1    2    0    0 -0.81874776004E-02  0.21385144707E-01  0.67024090339E-02  0.10200703795E+01  0.10197913010E+01 0.  0.
     999903    2    3    3    0    0 -0.12184639891E+00 -0.32134151832E-01  0.29127233114E-01  0.13086537601E+00  0.19955006571E-01 0.  0.
         14    1    1    2    0    0  0.81874776004E-02 -0.21385144707E-01 -0.67024090339E-02  0.23859620501E-01  0.00000000000E+00 0.  1.
     999901    1    3    3    0    0  0.11365892131E+00  0.53519296539E-01 -0.22424824080E-01  0.88920500349E+00  0.88000000000E+00 0.  1.
        -11    1    4    4    0    0 -0.17537539218E-01 -0.10063948309E-01  0.99261660886E-02  0.22530828471E-01  0.51100000000E-03 0.  1.
         11    1    4    4    0    0 -0.10430885969E+00 -0.22070203523E-01  0.19201067026E-01  0.10833454754E+00  0.51100000000E-03 0. -1.
</event>
<event>
 8    1  0.1086486E+005  0.1043930E+01  0.7957747E-01            NaN
         13   -1    0    0    0    0  0.00000000000E+00  0.00000000000E+00  0.74505805969E-08  0.10566000000E+00  0.10566000000E+00 0.  1.
     999900   -1    0    0    0    0 -0.00000000000E+00 -0.00000000000E+00 -0.74505805969E-08  0.93827000000E+00  0.93827000000E+00 0.  1.
     999902    2    1    2    0    0 -0.12523258328E-02 -0.22491153206E-01 -0.12571410936E-01  0.10181334757E+01  0.10178066190E+01 0.  0.
     999903    2    3    3    0    0 -0.33398724252E-01 -0.86075682902E-01 -0.91700279095E-01  0.13171497346E+00  0.20381243330E-01 0.  0.
         14    1    1    2    0    0  0.12523258328E-02  0.22491153206E-01  0.12571410936E-01  0.25796524291E-01  0.00000000000E+00 0.  1.
     999901    1    3    3    0    0  0.32146398420E-01  0.63584529695E-01  0.79128868159E-01  0.88641850225E+00  0.88000000000E+00 0.  1.
        -11    1    4    4    0    0 -0.35459073297E-01 -0.81937151682E-01 -0.89972813274E-01  0.12675334692E+00  0.51100000000E-03 0.  1.
         11    1    4    4    0    0  0.20603490442E-02 -0.41385312192E-02 -0.17274658211E-02  0.49616265477E-02  0.51100000000E-03 0. -1.
</event>
<event>
 8    1  0.1086486E+005  0.1043930E+01  0.7957747E-01            NaN
         13   -1    0    0    0    0  0.00000000000E+00  0.00000000000E+00  0.74505805969E-08  0.10566000000E+00  0.10566000000E+00 0. -1.
     999900   -1    0    0    0    0 -0.00000000000E+00 -0.00000000000E+00 -0.74505805969E-08  0.93827000000E+00  0.93827000000E+00 0.  1.
     999902    2    1    2    0    0 -0.75863231660E-02  0.21716239880E-01 -0.54001516383E-02  0.10203014365E+01  0.10200277998E+01 0.  0.
     999903    2    3    3    0    0 -0.99592070884E-01  0.58474309191E-01  0.60686348133E-01  0.13227911771E+00  0.21842772603E-01 0.  0.
         14    1    1    2    0    0  0.75863231660E-02 -0.21716239880E-01  0.54001516383E-02  0.23628563465E-01  0.00000000000E+00 0. -1.
     999901    1    3    3    0    0  0.92005747718E-01 -0.36758069311E-01 -0.66086499772E-01  0.88802231882E+00  0.88000000000E+00 0.  1.
        -11    1    4    4    0    0 -0.28649899014E-01  0.18999465546E-01  0.74040001876E-02  0.35169258512E-01  0.51100000000E-03 0.  1.
         11    1    4    4    0    0 -0.70942171871E-01  0.39474843645E-01  0.53282347946E-01  0.97109859201E-01  0.51100000000E-03 0. -1.
</event>
<event>
 8    1  0.1086486E+005  0.1043930E+01  0.7957747E-01            NaN
         13   -1    0    0    0    0  0.00000000000E+00  0.00000000000E+00  0.74505805969E-08  0.10566000000E+00  0.10566000000E+00 0.  1.
     999900   -1    0    0    0    0 -0.00000000000E+00 -0.00000000000E+00 -0.74505805969E-08  0.93827000000E+00  0.93827000000E+00 0.  1.
     999902    2    1    2    0    0 -0.21667376369E-01  0.29890923254E-02 -0.92196270803E-02  0.10201937114E+01  0.10199175444E+01 0.  0.
     999903    2    3    3    0    0 -0.12601263918E-01  0.93962680801E-01 -0.89412447703E-01  0.13183045427E+00  0.19922490614E-01 0.  0.
         14    1    1    2    0    0  0.21667376369E-01 -0.29890923254E-02  0.92196270803E-02  0.23736288572E-01  0.00000000000E+00 0.  1.
     999901    1    3    3    0    0 -0.90661124514E-02 -0.90973588476E-01  0.80192820622E-01  0.88836325716E+00  0.88000000000E+00 0.  1.
        -11    1    4    4    0    0  0.59129174785E-03  0.36483574053E-01 -0.45367702319E-01  0.58222764761E-01  0.51100000000E-03 0.  1.
         11    1    4    4    0    0 -0.13192555666E-01  0.57479106748E-01 -0.44044745383E-01  0.73607689506E-01  0.51100000000E-03 0. -1.
</event>
<event>
 8    1  0.1086486E+005  0.1043930E+01  0.7957747E-01            NaN
         13   -1    0    0    0    0  0.00000000000E+00  0.00000000000E+00  0.74505805969E-08  0.10566000000E+00  0.10566000000E+00 0. -1.
     999900   -1    0    0    0    0 -0.00000000000E+00 -0.00000000000E+00 -0.74505805969E-08  0.93827000000E+00  0.93827000000E+00 0. -1.
     999902    2    1    2    0    0 -0.80488500350E-02 -0.17254427500E-01  0.11574206200E-01  0.10216485839E+01  0.10214055842E+01 0.  0.
     999903    2    3    3    0    0 -0.99890127445E-01 -0.45496950919E-02  0.86574339391E-01  0.13360508807E+00  0.18880308039E-01 0.  0.
         14    1    1    2    0    0  0.80488500350E-02  0.17254427500E-01 -0.11574206200E-01  0.22281416122E-01  0.00000000000E+00 0.  1.
     999901    1    3    3    0    0  0.91841277410E-01 -0.12704732408E-01 -0.75000133191E-01  0.88804349580E+00  0.88000000000E+00 0.  1.
        -11    1    4    4    0    0 -0.70197133046E-01 -0.80716376579E-02  0.51073429842E-01  0.87186840630E-01  0.51100000000E-03 0.  1.
         11    1    4    4    0    0 -0.29692994400E-01  0.35219425659E-02  0.35500909550E-01  0.46418247443E-01  0.51100000000E-03 0. -1.
</event>
<event>
 8    1  0.1086486E+005  0.1043930E+01  0.7957747E-01            NaN
         13   -1    0    0    0    0  0.00000000000E+00  0.00000000000E+00  0.74505805969E-08  0.10566000000E+00  0.10566000000E+00 0. -1.
     999900   -1    0    0    0    0 -0.00000000000E+00 -0.00000000000E+00 -0.74505805969E-08  0.93827000000E+00  0.93827000000E+00 0. -1.
     999902    2    1    2    0    0 -0.15413226759E-01  0.17120821389E-01 -0.45117093942E-02  0.10204556394E+01  0.10201856039E+01 0.  0.
     999903    2    3    3    0    0  0.84359312033E-02  0.10143423052E+00 -0.82808854127E-01  0.13264486216E+00  0.19423827667E-01 0.  0.
         14    1    1    2    0    0  0.15413226759E-01 -0.17120821389E-01  0.45117093942E-02  0.23474360605E-01  0.00000000000E+00 0.  1.
     999901    1    3    3    0    0 -0.23849157962E-01 -0.84313409126E-01  0.78297144733E-01  0.88781077723E+00  0.88000000000E+00 0.  1.
        -11    1    4    4    0    0 -0.28368082647E-02  0.99423010428E-02 -0.31776529448E-02  0.10828454663E-01  0.51100000000E-03 0. -1.
         11    1    4    4    0    0  0.11272739468E-01  0.91491929472E-01 -0.79631201182E-01  0.12181640750E+00  0.51100000000E-03 0.  1.
</event>
<event>
 8    1  0.1086486E+005  0.1043930E+01  0.7957747E-01            NaN
         13   -1    0    0    0    0  0.00000000000E+00  0.00000000000E+00  0.74505805969E-08  0.10566000000E+00  0.10566000000E+00 0.  1.
     999900   -1    0    0    0    0 -0.00000000000E+00 -0.00000000000E+00 -0.74505805969E-08  0.93827000000E+00  0.93827000000E+00 0.  1.
     999902    2    1    2    0    0  0.26832667670E-02  0.21241828272E-01  0.99046477298E-02  0.10203393825E+01  0.10200666342E+01 0.  0.
     999903    2    3    3    0    0 -0.34148537654E-01  0.12136761552E+00  0.38339184726E-01  0.13344013341E+00  0.20979880792E-01 0.  0.
         14    1    1    2    0    0 -0.26832667670E-02 -0.21241828272E-01 -0.99046477298E-02  0.23590617532E-01  0.00000000000E+00 0.  1.
     999901    1    3    3    0    0  0.36831804421E-01 -0.10012578725E+00 -0.28434536997E-01  0.88689924906E+00  0.88000000000E+00 0.  1.
        -11    1    4    4    0    0 -0.15938238912E-01  0.63215863457E-01  0.90261394467E-02  0.65817969936E-01  0.51100000000E-03 0.  1.
         11    1    4    4    0    0 -0.18210298742E-01  0.58151752061E-01  0.29313045280E-01  0.67622163472E-01  0.51100000000E-03 0. -1.
</event>
<event>
 8    1  0.1086486E+005  0.1043930E+01  0.7957747E-01            NaN
         13   -1    0    0    0    0  0.00000000000E+00  0.00000000000E+00  0.74505805969E-08  0.10566000000E+00  0.10566000000E+00 0. -1.
     999900   -1    0    0    0    0 -0.00000000000E+00 -0.00000000000E+00 -0.74505805969E-08  0.93827000000E+00  0.93827000000E+00 0. -1.
     999902    2    1    2    0    0  0.21760614912E-01  0.48588211128E-02 -0.69411340513E-03  0.10216227299E+01  0.10213791598E+01 0.  0.
     999903    2    3    3    0    0  0.12809346032E+00  0.34707486493E-01  0.10294270310E-01  0.13465127527E+00  0.20308858521E-01 0.  0.
         14    1    1    2    0    0 -0.21760614912E-01 -0.48588211128E-02  0.69411340513E-03  0.22307270056E-01  0.00000000000E+00 0. -1.
     999901    1    3    3    0    0 -0.10633284541E+00 -0.29848665380E-01 -0.10988383715E-01  0.88697145468E+00  0.88000000000E+00 0.  1.
        -11    1    4    4    0    0  0.11837227183E+00  0.31578580682E-01  0.14939218006E-01  0.12342059331E+00  0.51100000000E-03 0.  1.
         11    1    4    4    0    0  0.97211884857E-02  0.31289058112E-02 -0.46449476957E-02  0.11230681958E-01  0.51100000000E-03 0. -1.
</event>
<event>
 8    1  0.1086486E+005  0.1043930E+01  0.7957747E-01            NaN
         13   -1    0    0    0    0  0.00000000000E+00  0.00000000000E+00  0.74505805969E-08  0.10566000000E+00  0.10566000000E+00 0.  1.
     999900   -1    0    0    0    0 -0.00000000000E+00 -0.00000000000E+00 -0.74505805969E-08  0.93827000000E+00  0.93827000000E+00 0. -1.
     999902    2    1    2    0    0  0.79353043979E-02 -0.50703757548E-02  0.22213403230E-01  0.10198029809E+01  0.10195175363E+01 0.  0.
     999903    2    3    3    0    0 -0.37823781123E-01 -0.11389676369E+00  0.50274098569E-01  0.13147619464E+00  0.18851885102E-01 0.  0.
         14    1    1    2    0    0 -0.79353043979E-02  0.50703757548E-02 -0.22213403230E-01  0.24127019071E-01  0.00000000000E+00 0.  1.
     999901    1    3    3    0    0  0.45759085521E-01  0.10882638794E+00 -0.28060695339E-01  0.88832678629E+00  0.88000000000E+00 0. -1.
        -11    1    4    4    0    0 -0.32606430884E-01 -0.77300368607E-01  0.40901866839E-01  0.93336756713E-01  0.51100000000E-03 0. -1.
         11    1    4    4    0    0 -0.52173502386E-02 -0.36596395084E-01  0.93722317303E-02  0.38139437925E-01  0.51100000000E-03 0.  1.
</event>
<event>
 8    1  0.1086486E+005  0.1043930E+01  0.7957747E-01            NaN
         13   -1    0    0    0    0  0.00000000000E+00  0.00000000000E+00  0.74505805969E-08  0.10566000000E+00  0.10566000000E+00 0. -1.
     999900   -1    0    0    0    0 -0.00000000000E+00 -0.00000000000E+00 -0.74505805969E-08  0.93827000000E+00  0.93827000000E+00 0. -1.
     999902    2    1    2    0    0  0.65801692622E-02  0.16089463932E-01  0.16215229542E-01  0.10201581018E+01  0.10198810957E+01 0.  0.
     999903    2    3    3    0    0  0.10705806991E+00 -0.22274317930E-01  0.71597275918E-01  0.13188181628E+00  0.17580329179E-01 0.  0.
         14    1    1    2    0    0 -0.65801692622E-02 -0.16089463932E-01 -0.16215229542E-01  0.23771898247E-01  0.00000000000E+00 0.  1.
     999901    1    3    3    0    0 -0.10047790065E+00  0.38363781862E-01 -0.55382046376E-01  0.88827628548E+00  0.88000000000E+00 0. -1.
        -11    1    4    4    0    0  0.55572792544E-01 -0.19817941332E-01  0.34197725219E-01  0.68197005806E-01  0.51100000000E-03 0.  1.
         11    1    4    4    0    0  0.51485277365E-01 -0.24563765977E-02  0.37399550699E-01  0.63684810472E-01  0.51100000000E-03 0. -1.
</event>
<event>
 8    1  0.1086486E+005  0.1043930E+01  0.7957747E-01            NaN
         13   -1    0    0    0    0  0.00000000000E+00  0.00000000000E+00  0.74505805969E-08  0.10566000000E+00  0.10566000000E+00 0. -1.
     999900   -1    0    0    0    0 -0.00000000000E+00 -0.00000000000E+00 -0.74505805969E-08  0.93827000000E+00  0.93827000000E+00 0.  1.
     999902    2    1    2    0    0  0.21454705595E-01  0.20972105701E-02 -0.91722903321E-02  0.10205028023E+01  0.10202338633E+01 0.  0.
     999903    2    3    3    0    0 -0.73504816812E-02  0.80511637878E-01 -0.10208769655E+00  0.13167670344E+00  0.19511612610E-01 0.  0.
         14    1    1    2    0    0 -0.21454705595E-01 -0.20972105701E-02  0.91722903321E-02  0.23427197747E-01  0.00000000000E+00 0. -1.
     999901    1    3    3    0    0  0.28805187276E-01 -0.78414427308E-01  0.92915406216E-01  0.88882609882E+00  0.88000000000E+00 0. -1.
        -11    1    4    4    0    0 -0.67558642149E-02  0.76165651226E-02 -0.14423152958E-01  0.17661886304E-01  0.51100000000E-03 0.  1.
         11    1    4    4    0    0 -0.59461746629E-03  0.72895072756E-01 -0.87664543590E-01  0.11401481713E+00  0.51100000000E-03 0. -1.
</event>
<event>
 8    1  0.1086486E+005  0.1043930E+01  0.7957747E-01            NaN
         13   -1    0    0    0    0  0.00000000000E+00  0.00000000000E+00  0.74505805969E-08  0.10566000000E+00  0.10566000000E+00 0. -1.
     999900   -1    0    0    0    0 -0.00000000000E+00 -0.00000000000E+00 -0.74505805969E-08  0.93827000000E+00  0.93827000000E+00 0. -1.
     999902    2    1    2    0    0  0.21015316711E-01 -0.10379133658E-02  0.12018218450E-01  0.10196986489E+01  0.10194107005E+01 0.  0.
     999903    2    3    3    0    0  0.36226540596E-01 -0.97845452386E-01 -0.74724411205E-01  0.13002041228E+00  0.20868042161E-01 0.  0.
         14    1    1    2    0    0 -0.21015316711E-01  0.10379133658E-02 -0.12018218450E-01  0.24231351083E-01  0.00000000000E+00 0.  1.
     999901    1    3    3    0    0 -0.15211223885E-01  0.96807539020E-01  0.86742629655E-01  0.88967823664E+00  0.88000000000E+00 0.  1.
        -11    1    4    4    0    0  0.28206173851E-01 -0.51711515565E-01 -0.34349973756E-01  0.68189815247E-01  0.51100000000E-03 0.  1.
         11    1    4    4    0    0  0.80203667453E-02 -0.46133936821E-01 -0.40374437449E-01  0.61830597034E-01  0.51100000000E-03 0. -1.
</event>
<event>
 8    1  0.1086486E+005  0.1043930E+01  0.7957747E-01            NaN
         13   -1    0    0    0    0  0.00000000000E+00  0.00000000000E+00  0.74505805969E-08  0.10566000000E+00  0.10566000000E+00 0.  1.
     999900   -1    0    0    0    0 -0.00000000000E+00 -0.00000000000E+00 -0.74505805969E-08  0.93827000000E+00  0.93827000000E+00 0.  1.
     999902    2    1    2    0    0  0.21714856718E-01  0.63740915643E-02  0.51843716954E-02  0.10207127272E+01  0.10204486414E+01 0.  0.
     999903    2    3    3    0    0 -0.15733082972E-01  0.12558344802E+00 -0.27814172280E-01  0.13127350908E+00  0.20985082547E-01 0.  0.
         14    1    1    2    0    0 -0.21714856718E-01 -0.63740915643E-02 -0.51843716954E-02  0.23217272782E-01  0.00000000000E+00 0.  1.
     999901    1    3    3    0    0  0.37447939689E-01 -0.11920935646E+00  0.32998543976E-01  0.88943921814E+00  0.88000000000E+00 0. -1.
        -11    1    4    4    0    0 -0.16447026490E-01  0.77523786841E-01 -0.94292610757E-02  0.79809863375E-01  0.51100000000E-03 0.  1.
         11    1    4    4    0    0  0.71394351848E-03  0.48059661183E-01 -0.18384911205E-01  0.51463645706E-01  0.51100000000E-03 0. -1.
</event>
<event>
 8    1  0.1086486E+005  0.1043930E+01  0.7957747E-01            NaN
         13   -1    0    0    0    0  0.00000000000E+00  0.00000000000E+00  0.74505805969E-08  0.10566000000E+00  0.10566000000E+00 0.  1.
     999900   -1    0    0    0    0 -0.00000000000E+00 -0.00000000000E+00 -0.74505805969E-08  0.93827000000E+00  0.93827000000E+00 0. -1.
     999902    2    1    2    0    0  0.19031327577E-01 -0.96431566947E-02  0.89525768340E-02  0.10207927890E+01  0.10205305422E+01 0.  0.
     999903    2    3    3    0    0 -0.52550765477E-01 -0.67772575338E-01  0.97689228193E-01  0.13153623511E+00  0.20097037647E-01 0.  0.
         14    1    1    2    0    0 -0.19031327577E-01  0.96431566947E-02 -0.89525768340E-02  0.23137210989E-01  0.00000000000E+00 0. -1.
     999901    1    3    3    0    0  0.71582093055E-01  0.58129418643E-01 -0.88736651359E-01  0.88925655390E+00  0.88000000000E+00 0. -1.
        -11    1    4    4    0    0 -0.35330134664E-01 -0.53209120705E-01  0.60129510822E-01  0.87722563427E-01  0.51100000000E-03 0. -1.
         11    1    4    4    0    0 -0.17220630814E-01 -0.14563454633E-01  0.37559717371E-01  0.43813671684E-01  0.51100000000E-03 0.  1.
</event>
<event>
 8    1  0.1086486E+005  0.1043930E+01  0.7957747E-01            NaN
         13   -1    0    0    0    0  0.00000000000E+00  0.00000000000E+00  0.74505805969E-08  0.10566000000E+00  0.10566000000E+00 0.  1.
     999900   -1    0    0    0    0 -0.00000000000E+00 -0.00000000000E+00 -0.74505805969E-08  0.93827000000E+00  0.93827000000E+00 0.  1.
     999902    2    1    2    0    0  0.14696755661E-01 -0.48898785870E-02 -0.18823898479E-01  0.10195528654E+01  0.10192613995E+01 0.  0.
     999903    2    3    3    0    0 -0.10575082773E+00  0.21227541625E-01 -0.68670767091E-01  0.12956721924E+00  0.20931888559E-01 0.  0.
         14    1    1    2    0    0 -0.14696755661E-01  0.48898785870E-02  0.18823898479E-01  0.24377134645E-01  0.00000000000E+00 0.  1.
     999901    1    3    3    0    0  0.12044758339E+00 -0.26117420212E-01  0.49846868612E-01  0.88998564612E+00  0.88000000000E+00 0. -1.
        -11    1    4    4    0    0 -0.48078332756E-01  0.19606558862E-01 -0.36898038668E-01  0.63699839949E-01  0.51100000000E-03 0.  1.
         11    1    4    4    0    0 -0.57672494977E-01  0.16209827630E-02 -0.31772728422E-01  0.65867379289E-01  0.51100000000E-03 0. -1.
</event>
<event>
 8    1  0.1086486E+005  0.1043930E+01  0.7957747E-01            NaN
         13   -1    0    0    0    0  0.00000000000E+00  0.00000000000E+00  0.74505805969E-08  0.10566000000E+00  0.10566000000E+00 0.  1.
     999900   -1    0    0    0    0 -0.00000000000E+00 -0.00000000000E+00 -0.74505805969E-08  0.93827000000E+00  0.93827000000E+00 0.  1.
     999902    2    1    2    0    0 -0.14733138329E-02 -0.23205724895E-01 -0.46223984579E-02  0.10202225563E+01  0.10199470679E+01 0.  0.
     999903    2    3    3    0    0  0.62073321756E-01  0.10155560323E+00  0.42647727760E-01  0.12790084929E+00  0.19317368975E-01 0.  0.
         14    1    1    2    0    0  0.14733138329E-02  0.23205724895E-01  0.46223984579E-02  0.23707443748E-01  0.00000000000E+00 0. -1.
     999901    1    3    3    0    0 -0.63546635589E-01 -0.12476132812E+00 -0.47270126218E-01  0.89232170697E+00  0.88000000000E+00 0.  1.
        -11    1    4    4    0    0  0.43696737908E-01  0.54416013286E-01  0.28281081344E-01  0.75303307289E-01  0.51100000000E-03 0.  1.
         11    1    4    4    0    0  0.18376583848E-01  0.47139589942E-01  0.14366646416E-01  0.52597541996E-01  0.51100000000E-03 0. -1.
</event>
<event>
 8    1  0.1086486E+005  0.1043930E+01  0.7957747E-01            NaN
         13   -1    0    0    0    0  0.00000000000E+00  0.00000000000E+00  0.74505805969E-08  0.10566000000E+00  0.10566000000E+00 0. -1.
     999900   -1    0    0    0    0 -0.00000000000E+00 -0.00000000000E+00 -0.74505805969E-08  0.93827000000E+00  0.93827000000E+00 0. -1.
     999902    2    1    2    0    0 -0.12682723327E-01  0.18645018860E-01 -0.45019184664E-02  0.10209353165E+01  0.10206763273E+01 0.  0.
     999903    2    3    3    0    0 -0.10963678001E+00  0.52637040463E-01  0.50223837559E-01  0.13326958267E+00  0.21153398013E-01 0.  0.
         14    1    1    2    0    0  0.12682723327E-01 -0.18645018860E-01  0.45019184664E-02  0.22994683498E-01  0.00000000000E+00 0.  1.
     999901    1    3    3    0    0  0.96954056682E-01 -0.33992021603E-01 -0.54725756025E-01  0.88766573383E+00  0.88000000000E+00 0. -1.
        -11    1    4    4    0    0 -0.41122472296E-01  0.89916262950E-02  0.19823309618E-01  0.46530976740E-01  0.51100000000E-03 0.  1.
         11    1    4    4    0    0 -0.68514307713E-01  0.43645414168E-01  0.30400527941E-01  0.86738605934E-01  0.51100000000E-03 0. -1.
</event>
<event>
 8    1  0.1086486E+005  0.1043930E+01  0.7957747E-01            NaN
         13   -1    0    0    0    0  0.00000000000E+00  0.00000000000E+00  0.74505805969E-08  0.10566000000E+00  0.10566000000E+00 0. -1.
     999900   -1    0    0    0    0 -0.00000000000E+00 -0.00000000000E+00 -0.74505805969E-08  0.93827000000E+00  0.93827000000E+00 0. -1.
     999902    2    1    2    0    0 -0.14397694878E-01  0.17811871596E-01  0.67649034257E-03  0.10210168154E+01  0.10207596795E+01 0.  0.
     999903    2    3    3    0    0 -0.76227822744E-01 -0.80438224957E-01  0.66129857881E-01  0.13098300175E+00  0.22414273354E-01 0.  0.
         14    1    1    2    0    0  0.14397694878E-01 -0.17811871596E-01 -0.67649034257E-03  0.22913184561E-01  0.00000000000E+00 0.  1.
     999901    1    3    3    0    0  0.61830127866E-01  0.98250096553E-01 -0.65453367538E-01  0.89003381369E+00  0.88000000000E+00 0. -1.
        -11    1    4    4    0    0 -0.50849736514E-01 -0.37937160059E-01  0.40071602497E-01  0.75039444725E-01  0.51100000000E-03 0. -1.
         11    1    4    4    0    0 -0.25378086230E-01 -0.42501064899E-01  0.26058255384E-01  0.55943557027E-01  0.51100000000E-03 0.  1.
</event>
<event>
 8    1  0.1086486E+005  0.1043930E+01  0.7957747E-01            NaN
         13   -1    0    0    0    0  0.00000000000E+00  0.00000000000E+00  0.74505805969E-08  0.10566000000E+00  0.10566000000E+00 0.  1.
     999900   -1    0    0    0    0 -0.00000000000E+00 -0.00000000000E+00 -0.74505805969E-08  0.93827000000E+00  0.93827000000E+00 0. -1.
     999902    2    1    2    0    0 -0.19350844408E-01 -0.13210726377E-01 -0.29046173781E-02  0.10203203564E+01  0.10200471628E+01 0.  0.
     999903    2    3    3    0    0 -0.11134559668E+00  0.10795607205E-01  0.67553002436E-01  0.13239940566E+00  0.21255762656E-01 0.  0.
         14    1    1    2    0    0  0.19350844408E-01  0.13210726377E-01  0.29046173781E-02  0.23609643641E-01  0.00000000000E+00 0.  1.
     999901    1    3    3    0    0  0.91994752274E-01 -0.24006333582E-01 -0.70457619814E-01  0.88792095070E+00  0.88000000000E+00 0. -1.
        -11    1    4    4    0    0 -0.40321301979E-01 -0.16754664164E-02  0.34401628920E-01  0.53031573372E-01  0.51100000000E-03 0.  1.
         11    1    4    4    0    0 -0.71024294704E-01  0.12471073621E-01  0.33151373516E-01  0.79367832290E-01  0.51100000000E-03 0. -1.
</event>
<event>
 8    1  0.1086486E+005  0.1043930E+01  0.7957747E-01            NaN
         13   -1    0    0    0    0  0.00000000000E+00  0.00000000000E+00  0.74505805969E-08  0.10566000000E+00  0.10566000000E+00 0.  1.
     999900   -1    0    0    0    0 -0.00000000000E+00 -0.00000000000E+00 -0.74505805969E-08  0.93827000000E+00  0.93827000000E+00 0. -1.
     999902    2    1    2    0    0  0.18714078220E-01 -0.42013543608E-02 -0.12890704558E-01  0.10208207299E+01  0.10205591233E+01 0.  0.
     999903    2    3    3    0    0  0.83758125323E-01 -0.71771842973E-01 -0.72977260598E-01  0.13379936980E+00  0.20247710825E-01 0.  0.
         14    1    1    2    0    0 -0.18714078220E-01  0.42013543608E-02  0.12890704558E-01  0.23109270133E-01  0.00000000000E+00 0. -1.
     999901    1    3    3    0    0 -0.65044047102E-01  0.67570488612E-01  0.60086556040E-01  0.88702136006E+00  0.88000000000E+00 0.  1.
        -11    1    4    4    0    0  0.25087483685E-01 -0.12478447490E-01 -0.25092963430E-01  0.37616637597E-01  0.51100000000E-03 0. -1.
         11    1    4    4    0    0  0.58670641637E-01 -0.59293395483E-01 -0.47884297168E-01  0.96182732204E-01  0.51100000000E-03 0.  1.
</event>
<event>
 8    1  0.1086486E+005  0.1043930E+01  0.7957747E-01            NaN
         13   -1    0    0    0    0  0.00000000000E+00  0.00000000000E+00  0.74505805969E-08  0.10566000000E+00  0.10566000000E+00 0. -1.
     999900   -1    0    0    0    0 -0.00000000000E+00 -0.00000000000E+00 -0.74505805969E-08  0.93827000000E+00  0.93827000000E+00 0. -1.
     999902    2    1    2    0    0 -0.13154906615E-01  0.18492341203E-01  0.42209034978E-02  0.10208467966E+01  0.10205857867E+01 0.  0.
     999903    2    3    3    0    0 -0.12083991347E+00  0.46548652863E-01  0.25891602757E-01  0.13357410094E+00  0.20064983829E-01 0.  0.
         14    1    1    2    0    0  0.13154906615E-01 -0.18492341203E-01 -0.42209034978E-02  0.23083203364E-01  0.00000000000E+00 0.  1.
     999901    1    3    3    0    0  0.10768500686E+00 -0.28056311660E-01 -0.21670699259E-01  0.88727269570E+00  0.88000000000E+00 0. -1.
        -11    1    4    4    0    0 -0.35446919179E-01  0.96381635586E-02  0.15825060384E-01  0.40000899155E-01  0.51100000000E-03 0. -1.
         11    1    4    4    0    0 -0.85392994296E-01  0.36910489304E-01  0.10066542373E-01  0.93573201782E-01  0.51100000000E-03 0.  1.
</event>
<event>
 8    1  0.1086486E+005  0.1043930E+01  0.7957747E-01            NaN
         13   -1    0    0    0    0  0.00000000000E+00  0.00000000000E+00  0.74505805969E-08  0.10566000000E+00  0.10566000000E+00 0.  1.
     999900   -1    0    0    0    0 -0.00000000000E+00 -0.00000000000E+00 -0.74505805969E-08  0.93827000000E+00  0.93827000000E+00 0.  1.
     999902    2    1    2    0    0 -0.16104445690E-01 -0.13391236947E-01  0.10418252496E-01  0.10205373006E+01  0.10202691623E+01 0.  0.
     999903    2    3    3    0    0  0.11790666432E+00  0.30365927888E-01  0.37204792029E-01  0.12891451842E+00  0.20265375478E-01 0.  0.
         14    1    1    2    0    0  0.16104445690E-01  0.13391236947E-01 -0.10418252496E-01  0.23392699353E-01  0.00000000000E+00 0. -1.
     999901    1    3    3    0    0 -0.13401111001E+00 -0.43757164835E-01 -0.26786539534E-01  0.89162278222E+00  0.88000000000E+00 0. -1.
        -11    1    4    4    0    0  0.52172460123E-01  0.19758227155E-01  0.86245609536E-02  0.56453496864E-01  0.51100000000E-03 0. -1.
         11    1    4    4    0    0  0.65734204195E-01  0.10607700733E-01  0.28580231076E-01  0.72461021559E-01  0.51100000000E-03 0.  1.
</event>
<event>
 7    1  0.1086486E+005  0.1043930E+01  0.7957747E-01            NaN
         13   -1    0    0    0    0  0.00000000000E+00  0.00000000000E+00  0.74505805969E-08  0.10566000000E+00  0.10566000000E+00 0. -1.
     999900   -1    0    0    0    0 -0.00000000000E+00 -0.00000000000E+00 -0.74505805969E-08  0.93827000000E+00  0.93827000000E+00 0.  1.
     999902    2    1    2    0    0 -0.58807817187E-02  0.23678298011E-01  0.45586611928E-02  0.10191101132E+01  0.10188078307E+01 0.  0.
         14    1    1    2    0    0  0.58807817187E-02 -0.23678298011E-01 -0.45586611928E-02  0.24819886828E-01  0.00000000000E+00 0.  1.
     999901    1    3    3    0    0  0.11250986478E+00  0.46911525984E-01  0.38332506883E-02  0.88841085921E+00  0.88000000000E+00 0.  1.
        -11    1    3    3    0    0 -0.80464775527E-01 -0.38056751217E-01  0.78501498136E-02  0.89357609564E-01  0.51100000000E-03 0.  1.
         11    1    3    3    0    0 -0.37925870976E-01  0.14823523244E-01 -0.71247393092E-02  0.41341644402E-01  0.51100000000E-03 0. -1.
</event>
<event>
 8    1  0.1086486E+005  0.1043930E+01  0.7957747E-01            NaN
         13   -1    0    0    0    0  0.00000000000E+00  0.00000000000E+00  0.74505805969E-08  0.10566000000E+00  0.10566000000E+00 0.  1.
     999900   -1    0    0    0    0 -0.00000000000E+00 -0.00000000000E+00 -0.74505805969E-08  0.93827000000E+00  0.93827000000E+00 0.  1.
     999902    2    1    2    0    0 -0.42724298274E-02  0.25438567884E-01 -0.10449215945E-01  0.10160990728E+01  0.10157178571E+01 0.  0.
     999903    2    3    3    0    0  0.10807114051E+00 -0.27504630369E-01  0.53177318899E-01  0.12510390115E+00  0.19679500371E-01 0.  0.
         14    1    1    2    0    0  0.42724298274E-02 -0.25438567884E-01  0.10449215945E-01  0.27830927158E-01  0.00000000000E+00 0.  1.
     999901    1    3    3    0    0 -0.11234357034E+00  0.52943198252E-01 -0.63626534844E-01  0.89099517169E+00  0.88000000000E+00 0.  1.
        -11    1    4    4    0    0  0.41308667177E-01 -0.19237892463E-01  0.16396375096E-01  0.48431443585E-01  0.51100000000E-03 0.  1.
         11    1    4    4    0    0  0.66762473335E-01 -0.82667379053E-02  0.36780943803E-01  0.76672457568E-01  0.51100000000E-03 0. -1.
</event>
<event>
 8    1  0.1086486E+005  0.1043930E+01  0.7957747E-01            NaN
         13   -1    0    0    0    0  0.00000000000E+00  0.00000000000E+00  0.74505805969E-08  0.10566000000E+00  0.10566000000E+00 0. -1.
     999900   -1    0    0    0    0 -0.00000000000E+00 -0.00000000000E+00 -0.74505805969E-08  0.93827000000E+00  0.93827000000E+00 0.  1.
     999902    2    1    2    0    0 -0.48199917993E-02 -0.29447370028E-02  0.21170960659E-01  0.10220185105E+01  0.10217835986E+01 0.  0.
     999903    2    3    3    0    0 -0.63206122397E-01 -0.11560253955E+00 -0.18686537436E-02  0.13261896892E+00  0.15011262182E-01 0.  0.
         14    1    1    2    0    0  0.48199917993E-02  0.29447370028E-02 -0.21170960659E-01  0.21911489501E-01  0.00000000000E+00 0.  1.
     999901    1    3    3    0    0  0.58386130597E-01  0.11265780255E+00  0.23039614402E-01  0.88939954157E+00  0.88000000000E+00 0. -1.
        -11    1    4    4    0    0 -0.22842944909E-01 -0.36589694384E-01 -0.71886611035E-02  0.43732640404E-01  0.51100000000E-03 0.  1.
         11    1    4    4    0    0 -0.40363177488E-01 -0.79012845168E-01  0.53200073599E-02  0.88886328520E-01  0.51100000000E-03 0. -1.
</event>
<event>
 8    1  0.1086486E+005  0.1043930E+01  0.7957747E-01            NaN
         13   -1    0    0    0    0  0.00000000000E+00  0.00000000000E+00  0.74505805969E-08  0.10566000000E+00  0.10566000000E+00 0.  1.
     999900   -1    0    0    0    0 -0.00000000000E+00 -0.00000000000E+00 -0.74505805969E-08  0.93827000000E+00  0.93827000000E+00 0.  1.
     999902    2    1    2    0    0 -0.23121370843E-01 -0.52675997064E-02 -0.90417214328E-03  0.10201989460E+01  0.10199229022E+01 0.  0.
     999903    2    3    3    0    0 -0.11587456754E+00 -0.63160655858E-01 -0.38395249801E-02  0.13342762388E+00  0.19287431457E-01 0.  0.
         14    1    1    2    0    0  0.23121370843E-01  0.52675997064E-02  0.90417214328E-03  0.23731053992E-01  0.00000000000E+00 0. -1.
     999901    1    3    3    0    0  0.92753196696E-01  0.57893056151E-01  0.29353528368E-02  0.88677132213E+00  0.88000000000E+00 0.  1.
        -11    1    4    4    0    0 -0.68330536500E-02 -0.46031750318E-02 -0.50001931832E-02  0.96510567000E-02  0.51100000000E-03 0.  1.
         11    1    4    4    0    0 -0.10904151389E+00 -0.58557480826E-01  0.11606682032E-02  0.12377656718E+00  0.51100000000E-03 0. -1.
</event>
<event>
 8    1  0.1086486E+005  0.1043930E+01  0.7957747E-01            NaN
         13   -1    0    0    0    0  0.00000000000E+00  0.00000000000E+00  0.74505805969E-08  0.10566000000E+00  0.10566000000E+00 0. -1.
     999900   -1    0    0    0    0 -0.00000000000E+00 -0.00000000000E+00 -0.74505805969E-08  0.93827000000E+00  0.93827000000E+00 0.  1.
     999902    2    1    2    0    0 -0.23838668109E-01  0.62657102709E-02 -0.40106642080E-02  0.10189574821E+01  0.10186514240E+01 0.  0.
     999903    2    3    3    0    0  0.63575917929E-01  0.69148250747E-01 -0.85484225994E-01  0.12865783310E+00  0.20540379821E-01 0.  0.
         14    1    1    2    0    0  0.23838668109E-01 -0.62657102709E-02  0.40106642080E-02  0.24972517891E-01  0.00000000000E+00 0.  1.
     999901    1    3    3    0    0 -0.87414586038E-01 -0.62882540476E-01  0.81473561786E-01  0.89029964901E+00  0.88000000000E+00 0.  1.
        -11    1    4    4    0    0  0.34017924773E-01  0.40316964191E-01 -0.34433231532E-01  0.62996709138E-01  0.51100000000E-03 0.  1.
         11    1    4    4    0    0  0.29557993156E-01  0.28831286556E-01 -0.51050994462E-01  0.65661123966E-01  0.51100000000E-03 0. -1.
</event>
<event>
 8    1  0.1086486E+005  0.1043930E+01  0.7957747E-01            NaN
         13   -1    0    0    0    0  0.00000000000E+00  0.00000000000E+00  0.74505805969E-08  0.10566000000E+00  0.10566000000E+00 0. -1.
     999900   -1    0    0    0    0 -0.00000000000E+00 -0.00000000000E+00 -0.74505805969E-08  0.93827000000E+00  0.93827000000E+00 0.  1.
     999902    2    1    2    0    0 -0.26496275364E-03 -0.29252733994E-01  0.16755310640E-02  0.10146281220E+01  0.10142049230E+01 0.  0.
     999903    2    3    3    0    0  0.24703250091E-01 -0.83452351334E-01  0.91481152670E-01  0.12804701466E+00  0.21276540180E-01 0.  0.
         14    1    1    2    0    0  0.26496275364E-03  0.29252733994E-01 -0.16755310640E-02  0.29301878024E-01  0.00000000000E+00 0.  1.
     999901    1    3    3    0    0 -0.24968212844E-01  0.54199617341E-01 -0.89805621606E-01  0.88658110731E+00  0.88000000000E+00 0.  1.
        -11    1    4    4    0    0  0.18220881430E-01 -0.75408324960E-01  0.71291669398E-01  0.10536213380E+00  0.51100000000E-03 0.  1.
         11    1    4    4    0    0  0.64823686603E-02 -0.80440263742E-02  0.20189483272E-01  0.22684880858E-01  0.51100000000E-03 0. -1.
</event>
<event>
 8    1  0.1086486E+005  0.1043930E+01  0.7957747E-01            NaN
         13   -1    0    0    0    0  0.00000000000E+00  0.00000000000E+00  0.74505805969E-08  0.10566000000E+00  0.10566000000E+00 0. -1.
     999900   -1    0    0    0    0 -0.00000000000E+00 -0.00000000000E+00 -0.74505805969E-08  0.93827000000E+00  0.93827000000E+00 0.  1.
     999902    2    1    2    0    0  0.88873969736E-02 -0.11919441144E-02 -0.23006202367E-01  0.10192380600E+01  0.10189389241E+01 0.  0.
     999903    2    3    3    0    0 -0.93761321887E-01 -0.82567264535E-01 -0.26974596900E-01  0.12953336152E+00  0.21041012693E-01 0.  0.
         14    1    1    2    0    0 -0.88873969736E-02  0.11919441144E-02  0.23006202367E-01  0.24691940043E-01  0.00000000000E+00 0. -1.
     999901    1    3    3    0    0  0.10264871886E+00  0.81375320421E-01  0.39683945332E-02  0.88970469843E+00  0.88000000000E+00 0. -1.
        -11    1    4    4    0    0 -0.25311844793E-01 -0.20210256590E-01  0.21483494214E-02  0.32465681642E-01  0.51100000000E-03 0. -1.
         11    1    4    4    0    0 -0.68449477094E-01 -0.62357007946E-01 -0.29122946321E-01  0.97067679883E-01  0.51100000000E-03 0.  1.
</event>
<event>
 8    1  0.1086486E+005  0.1043930E+01  0.7957747E-01            NaN
         13   -1    0    0    0    0  0.00000000000E+00  0.00000000000E+00  0.74505805969E-08  0.10566000000E+00  0.10566000000E+00 0.  1.
     999900   -1    0    0    0    0 -0.00000000000E+00 -0.00000000000E+00 -0.74505805969E-08  0.93827000000E+00  0.93827000000E+00 0.  1.
     999902    2    1    2    0    0  0.46733544483E-02  0.21939414719E-01  0.41879622909E-02  0.10211107715E+01  0.10208557638E+01 0.  0.
     999903    2    3    3    0    0 -0.12188613172E+00 -0.27174310305E-01 -0.30552485306E-01  0.13002359272E+00  0.19442429362E-01 0.  0.
         14    1    1    2    0    0 -0.46733544483E-02 -0.21939414719E-01 -0.41879622909E-02  0.22819228474E-01  0.00000000000E+00 0. -1.
     999901    1    3    3    0    0  0.12655948617E+00  0.49113725023E-01  0.34740447597E-01  0.89108717880E+00  0.88000000000E+00 0. -1.
        -11    1    4    4    0    0 -0.29121129919E-01 -0.15126547486E-01 -0.89043980437E-02  0.34005912312E-01  0.51100000000E-03 0.  1.
         11    1    4    4    0    0 -0.92765001804E-01 -0.12047762818E-01 -0.21648087262E-01  0.96017680413E-01  0.51100000000E-03 0. -1.
</event>
<event>
 8    1  0.1086486E+005  0.1043930E+01  0.7957747E-01            NaN
         13   -1    0    0    0    0  0.00000000000E+00  0.00000000000E+00  0.74505805969E-08  0.10566000000E+00  0.10566000000E+00 0. -1.
     999900   -1    0    0    0    0 -0.00000000000E+00 -0.00000000000E+00 -0.74505805969E-08  0.93827000000E+00  0.93827000000E+00 0.  1.
     999902    2    1    2    0    0  0.17661341426E-01 -0.60527200409E-02 -0.15210745521E-01  0.10198483643E+01  0.10195640053E+01 0.  0.
     999903    2    3    3    0    0  0.40020441848E-01  0.87075252407E-01  0.84070034339E-01  0.12910181115E+00  0.20390478665E-01 0.  0.
         14    1    1    2    0    0 -0.17661341426E-01  0.60527200409E-02  0.15210745521E-01  0.24081635745E-01  0.00000000000E+00 0. -1.
     999901    1    3    3    0    0 -0.22359100422E-01 -0.93127972448E-01 -0.99280779860E-01  0.89074655311E+00  0.88000000000E+00 0.  1.
        -11    1    4    4    0    0  0.30842286158E-01  0.78371041304E-01  0.65823317663E-01  0.10689357792E+00  0.51100000000E-03 0. -1.
         11    1    4    4    0    0  0.91781556896E-02  0.87042111036E-02  0.18246716676E-01  0.22208233231E-01  0.51100000000E-03 0.  1.
</event>
<event>
 8    1  0.1086486E+005  0.1043930E+01  0.7957747E-01            NaN
         13   -1    0    0    0    0  0.00000000000E+00  0.00000000000E+00  0.74505805969E-08  0.10566000000E+00  0.10566000000E+00 0. -1.
     999900   -1    0    0    0    0 -0.00000000000E+00 -0.00000000000E+00 -0.74505805969E-08  0.93827000000E+00  0.93827000000E+00 0.  1.
     999902    2    1    2    0    0  0.83023310183E-02 -0.23528924212E-02 -0.12910093143E-01  0.10284014679E+01  0.10282842233E+01 0.  0.
     999903    2    3    3    0    0 -0.32872189577E-01  0.56848933863E-01  0.11760020750E+00  0.13585839561E+00  0.17757047189E-01 0.  0.
         14    1    1    2    0    0 -0.83023310183E-02  0.23528924212E-02  0.12910093143E-01  0.15528532064E-01  0.00000000000E+00 0. -1.
     999901    1    3    3    0    0  0.41174520595E-01 -0.59201826285E-01 -0.13051030064E+00  0.89254307233E+00  0.88000000000E+00 0.  1.
        -11    1    4    4    0    0 -0.17936297273E-01  0.25128119057E-01  0.38633445235E-01  0.49456418581E-01  0.51100000000E-03 0. -1.
         11    1    4    4    0    0 -0.14935892304E-01  0.31720814807E-01  0.78966762266E-01  0.86401977030E-01  0.51100000000E-03 0.  1.
</event>
<event>
 8    1  0.1086486E+005  0.1043930E+01  0.7957747E-01            NaN
         13   -1    0    0    0    0  0.00000000000E+00  0.00000000000E+00  0.74505805969E-08  0.10566000000E+00  0.10566000000E+00 0.  1.
     999900   -1    0    0    0    0 -0.00000000000E+00 -0.00000000000E+00 -0.74505805969E-08  0.93827000000E+00  0.93827000000E+00 0.  1.
     999902    2    1    2    0    0  0.12324192163E-01  0.17339598198E-01  0.83880701497E-02  0.10210628380E+01  0.10208067457E+01 0.  0.
     999903    2    3    3    0    0  0.80407838760E-01 -0.90984241082E-01 -0.42991649288E-01  0.13032757278E+00  0.19835363868E-01 0.  0.
         14    1    1    2    0    0 -0.12324192163E-01 -0.17339598198E-01 -0.83880701497E-02  0.22867162023E-01  0.00000000000E+00 0. -1.
     999901    1    3    3    0    0 -0.68083646596E-01  0.10832383928E+00  0.51379719438E-01  0.89073526519E+00  0.88000000000E+00 0. -1.
        -11    1    4    4    0    0  0.16654576125E-01 -0.29358449104E-01 -0.61748392817E-02  0.34317389190E-01  0.51100000000E-03 0.  1.
         11    1    4    4    0    0  0.63753262635E-01 -0.61625791978E-01 -0.36816810007E-01  0.96010183593E-01  0.51100000000E-03 0. -1.
</event>
<event>
 8    1  0.1086486E+005  0.1043930E+01  0.7957747E-01            NaN
         13   -1    0    0    0    0  0.00000000000E+00  0.00000000000E+00  0.74505805969E-08  0.10566000000E+00  0.10566000000E+00 0.  1.
     999900   -1    0    0    0    0 -0.00000000000E+00 -0.00000000000E+00 -0.74505805969E-08  0.93827000000E+00  0.93827000000E+00 0.  1.
     999902    2    1    2    0    0 -0.18185759202E-01  0.78381862485E-02  0.13805759479E-01  0.10197896190E+01  0.10195038543E+01 0.  0.
     999903    2    3    3    0    0 -0.11878816102E+00 -0.35332577954E-01  0.42738590988E-01  0.13253448832E+00  0.19488077656E-01 0.  0.
         14    1    1    2    0    0  0.18185759202E-01 -0.78381862485E-02 -0.13805759479E-01  0.24140381029E-01  0.00000000000E+00 0. -1.
     999901    1    3    3    0    0  0.10060240182E+00  0.43170764203E-01 -0.28932831508E-01  0.88725513065E+00  0.88000000000E+00 0. -1.
        -11    1    4    4    0    0 -0.47207064688E-01 -0.14790421900E-01  0.71178267702E-02  0.49981877869E-01  0.51100000000E-03 0.  1.
         11    1    4    4    0    0 -0.71581096331E-01 -0.20542156055E-01  0.35620764217E-01  0.82552610448E-01  0.51100000000E-03 0. -1.
</event>
<event>
 8    1  0.1086486E+005  0.1043930E+01  0.7957747E-01            NaN
         13   -1    0    0    0    0  0.00000000000E+00  0.00000000000E+00  0.74505805969E-08  0.10566000000E+00  0.10566000000E+00 0.  1.
     999900   -1    0    0    0    0 -0.00000000000E+00 -0.00000000000E+00 -0.74505805969E-08  0.93827000000E+00  0.93827000000E+00 0. -1.
     999902    2    1    2    0    0  0.16446376476E-01 -0.71919742089E-02  0.15050492413E-01  0.10205051176E+01  0.10202362324E+01 0.  0.
     999903    2    3    3    0    0 -0.88611931008E-01  0.44374293084E-01 -0.78297409883E-01  0.12786288316E+00  0.19931891333E-01 0.  0.
         14    1    1    2    0    0 -0.16446376476E-01  0.71919742089E-02 -0.15050492413E-01  0.23424882371E-01  0.00000000000E+00 0. -1.
     999901    1    3    3    0    0  0.10505830748E+00 -0.51566267293E-01  0.93347902296E-01  0.89264223447E+00  0.88000000000E+00 0.  1.
        -11    1    4    4    0    0 -0.63822671532E-01  0.26356453282E-01 -0.44065673837E-01  0.81914838477E-01  0.51100000000E-03 0.  1.
         11    1    4    4    0    0 -0.24789259477E-01  0.18017839802E-01 -0.34231736046E-01  0.45948044683E-01  0.51100000000E-03 0. -1.
</event>
<event>
 8    1  0.1086486E+005  0.1043930E+01  0.7957747E-01            NaN
         13   -1    0    0    0    0  0.00000000000E+00  0.00000000000E+00  0.74505805969E-08  0.10566000000E+00  0.10566000000E+00 0.  1.
     999900   -1    0    0    0    0 -0.00000000000E+00 -0.00000000000E+00 -0.74505805969E-08  0.93827000000E+00  0.93827000000E+00 0.  1.
     999902    2    1    2    0    0  0.14570111469E-01 -0.15569920571E-01 -0.11284616616E-01  0.10198042224E+01  0.10195188075E+01 0.  0.
     999903    2    3    3    0    0  0.11308228192E+00  0.45317032965E-01  0.42540244587E-01  0.13058603511E+00  0.20045054187E-01 0.  0.
         14    1    1    2    0    0 -0.14570111469E-01  0.15569920571E-01  0.11284616616E-01  0.24125777645E-01  0.00000000000E+00 0.  1.
     999901    1    3    3    0    0 -0.98512170447E-01 -0.60886953536E-01 -0.53824861202E-01  0.88921818724E+00  0.88000000000E+00 0.  1.
        -11    1    4    4    0    0  0.36242208394E-01  0.23744879263E-01  0.10518125378E-01  0.44589337772E-01  0.51100000000E-03 0.  1.
         11    1    4    4    0    0  0.76840073522E-01  0.21572153702E-01  0.32022119208E-01  0.85996697342E-01  0.51100000000E-03 0. -1.
</event>
<event>
 8    1  0.1086486E+005  0.1043930E+01  0.7957747E-01            NaN
         13   -1    0    0    0    0  0.00000000000E+00  0.00000000000E+00  0.74505805969E-08  0.10566000000E+00  0.10566000000E+00 0.  1.
     999900   -1    0    0    0    0 -0.00000000000E+00 -0.00000000000E+00 -0.74505805969E-08  0.93827000000E+00  0.93827000000E+00 0. -1.
     999902    2    1    2    0    0  0.16249810218E-01  0.14022980808E-01  0.75819806207E-02  0.10211662843E+01  0.10209125298E+01 0.  0.
     999903    2    3    3    0    0 -0.42905692255E-01 -0.11531133113E+00  0.34334735774E-01  0.12934654486E+00  0.20348294086E-01 0.  0.
         14    1    1    2    0    0 -0.16249810218E-01 -0.14022980808E-01 -0.75819806207E-02  0.22763715712E-01  0.00000000000E+00 0. -1.
     999901    1    3    3    0    0  0.59155502473E-01  0.12933431194E+00 -0.26752755153E-01  0.89181973942E+00  0.88000000000E+00 0.  1.
        -11    1    4    4    0    0 -0.40415144007E-02 -0.34071711059E-01  0.13740479981E-01  0.36963187691E-01  0.51100000000E-03 0.  1.
         11    1    4    4    0    0 -0.38864177855E-01 -0.81239620073E-01  0.20594255792E-01  0.92383357173E-01  0.51100000000E-03 0. -1.
</event>
<event>
 8    1  0.1086486E+005  0.1043930E+01  0.7957747E-01            NaN
         13   -1    0    0    0    0  0.00000000000E+00  0.00000000000E+00  0.74505805969E-08  0.10566000000E+00  0.10566000000E+00 0. -1.
     999900   -1    0    0    0    0 -0.00000000000E+00 -0.00000000000E+00 -0.74505805969E-08  0.93827000000E+00  0.93827000000E+00 0.  1.
     999902    2    1    2    0    0 -0.90429714073E-02 -0.59631567387E-02 -0.19162845768E-01  0.10219175211E+01  0.10216804151E+01 0.  0.
     999903    2    3    3    0    0  0.83991127498E-02 -0.52343792904E-01 -0.12211301507E+00  0.13453140046E+00  0.19408542176E-01 0.  0.
         14    1    1    2    0    0  0.90429714073E-02  0.59631567387E-02  0.19162845768E-01  0.22012478917E-01  0.00000000000E+00 0. -1.
     999901    1    3    3    0    0 -0.17442084157E-01  0.46380636165E-01  0.10295016931E+00  0.88738612062E+00  0.88000000000E+00 0. -1.
        -11    1    4    4    0    0 -0.30225064559E-02 -0.37855893261E-01 -0.83800791310E-01  0.92005640833E-01  0.51100000000E-03 0.  1.
         11    1    4    4    0    0  0.11421619206E-01 -0.14487899642E-01 -0.38312223763E-01  0.42525759629E-01  0.51100000000E-03 0. -1.
</event>
<event>
 8    1  0.1086486E+005  0.1043930E+01  0.7957747E-01            NaN
         13   -1    0    0    0    0  0.00000000000E+00  0.00000000000E+00  0.74505805969E-08  0.10566000000E+00  0.10566000000E+00 0.  1.
     999900   -1    0    0    0    0 -0.00000000000E+00 -0.00000000000E+00 -0.74505805969E-08  0.93827000000E+00  0.93827000000E+00 0. -1.
     999902    2    1    2    0    0  0.20097646051E-01  0.71624152074E-02 -0.11200344280E-01  0.10198330442E+01  0.10195483190E+01 0.  0.
     999903    2    3    3    0    0 -0.86674498607E-01 -0.75364671947E-01  0.51181342309E-01  0.12736316467E+00  0.20237179339E-01 0.  0.
         14    1    1    2    0    0 -0.20097646051E-01 -0.71624152074E-02  0.11200344280E-01  0.24096955833E-01  0.00000000000E+00 0. -1.
     999901    1    3    3    0    0  0.10677214466E+00  0.82527087154E-01 -0.62381686590E-01  0.89246987950E+00  0.88000000000E+00 0. -1.
        -11    1    4    4    0    0 -0.22215754147E-01 -0.86265388291E-02  0.10888697872E-01  0.26206521456E-01  0.51100000000E-03 0. -1.
         11    1    4    4    0    0 -0.64458744460E-01 -0.66738133118E-01  0.40292644438E-01  0.10115664321E+00  0.51100000000E-03 0.  1.
</event>
<event>
 8    1  0.1086486E+005  0.1043930E+01  0.7957747E-01            NaN
         13   -1    0    0    0    0  0.00000000000E+00  0.00000000000E+00  0.74505805969E-08  0.10566000000E+00  0.10566000000E+00 0.  1.
     999900   -1    0    0    0    0 -0.00000000000E+00 -0.00000000000E+00 -0.74505805969E-08  0.93827000000E+00  0.93827000000E+00 0. -1.
     999902    2    1    2    0    0 -0.66534341377E-02  0.21747806118E-01  0.55493575514E-02  0.10205199460E+01  0.10202514051E+01 0.  0.
     999903    2    3    3    0    0  0.38357512592E-01 -0.32256633457E-01 -0.11738692382E+00  0.12919744880E+00  0.20012539051E-01 0.  0.
         14    1    1    2    0    0  0.66534341377E-02 -0.21747806118E-01 -0.55493575514E-02  0.23410053951E-01  0.00000000000E+00 0. -1.
     999901    1    3    3    0    0 -0.45010946729E-01  0.54004439575E-01  0.12293628137E+00  0.89132249725E+00  0.88000000000E+00 0.  1.
        -11    1    4    4    0    0  0.13554458056E-01 -0.15720695661E-01 -0.27259182551E-01  0.34266423210E-01  0.51100000000E-03 0.  1.
         11    1    4    4    0    0  0.24803054536E-01 -0.16535937797E-01 -0.90127741268E-01  0.94931025593E-01  0.51100000000E-03 0. -1.
</event>
<event>
 8    1  0.1086486E+005  0.1043930E+01  0.7957747E-01            NaN
         13   -1    0    0    0    0  0.00000000000E+00  0.00000000000E+00  0.74505805969E-08  0.10566000000E+00  0.10566000000E+00 0.  1.
     999900   -1    0    0    0    0 -0.00000000000E+00 -0.00000000000E+00 -0.74505805969E-08  0.93827000000E+00  0.93827000000E+00 0. -1.
     999902    2    1    2    0    0  0.19148154033E-01  0.68975351555E-02 -0.11824559083E-01  0.10203917759E+01  0.10201202519E+01 0.  0.
     999903    2    3    3    0    0  0.11141364948E+00  0.53032781351E-01 -0.47332419412E-01  0.13365495437E+00  0.19945217812E-01 0.  0.
         14    1    1    2    0    0 -0.19148154033E-01 -0.68975351555E-02  0.11824559083E-01  0.23538224053E-01  0.00000000000E+00 0.  1.
     999901    1    3    3    0    0 -0.92265495443E-01 -0.46135246195E-01  0.35507860329E-01  0.88673682157E+00  0.88000000000E+00 0.  1.
        -11    1    4    4    0    0  0.58366452428E-01  0.16956183848E-01 -0.25045973669E-01  0.65739766182E-01  0.51100000000E-03 0.  1.
         11    1    4    4    0    0  0.53047197048E-01  0.36076597503E-01 -0.22286445744E-01  0.67915188190E-01  0.51100000000E-03 0. -1.
</event>
<event>
 8    1  0.1086486E+005  0.1043930E+01  0.7957747E-01            NaN
         13   -1    0    0    0    0  0.00000000000E+00  0.00000000000E+00  0.74505805969E-08  0.10566000000E+00  0.10566000000E+00 0. -1.
     999900   -1    0    0    0    0 -0.00000000000E+00 -0.00000000000E+00 -0.74505805969E-08  0.93827000000E+00  0.93827000000E+00 0.  1.
     999902    2    1    2    0    0 -0.14068214059E-01  0.63856042674E-02 -0.12778714683E-01  0.10238804080E+01  0.10236840840E+01 0.  0.
     999903    2    3    3    0    0 -0.80766340471E-02  0.12667699173E+00 -0.42014643813E-01  0.13519561776E+00  0.20008311129E-01 0.  0.
         14    1    1    2    0    0  0.14068214059E-01 -0.63856042674E-02  0.12778714683E-01  0.20049591956E-01  0.00000000000E+00 0.  1.
     999901    1    3    3    0    0 -0.59915800122E-02 -0.12029138747E+00  0.29235929130E-01  0.88868479028E+00  0.88000000000E+00 0.  1.
        -11    1    4    4    0    0 -0.14783452745E-02  0.10253366663E+00 -0.40034677480E-01  0.11008349022E+00  0.51100000000E-03 0.  1.
         11    1    4    4    0    0 -0.65982887726E-02  0.24143325103E-01 -0.19799663330E-02  0.25112127537E-01  0.51100000000E-03 0. -1.
</event>
<event>
 8    1  0.1086486E+005  0.1043930E+01  0.7957747E-01            NaN
         13   -1    0    0    0    0  0.00000000000E+00  0.00000000000E+00  0.74505805969E-08  0.10566000000E+00  0.10566000000E+00 0. -1.
     999900   -1    0    0    0    0 -0.00000000000E+00 -0.00000000000E+00 -0.74505805969E-08  0.93827000000E+00  0.93827000000E+00 0.  1.
     999902    2    1    2    0    0 -0.13370406137E-01 -0.20084960158E-01 -0.22965481428E-02  0.10196926834E+01  0.10194045914E+01 0.  0.
     999903    2    3    3    0    0 -0.11869579977E+00  0.32506929804E-02 -0.52842156393E-01  0.13166517828E+00  0.21075241218E-01 0.  0.
         14    1    1    2    0    0  0.13370406137E-01  0.20084960158E-01  0.22965481428E-02  0.24237316646E-01  0.00000000000E+00 0.  1.
     999901    1    3    3    0    0  0.10532539363E+00 -0.23335653138E-01  0.50545608251E-01  0.88802750507E+00  0.88000000000E+00 0. -1.
        -11    1    4    4    0    0 -0.63001621608E-01  0.73209607383E-02 -0.18356970575E-01  0.66030601096E-01  0.51100000000E-03 0. -1.
         11    1    4    4    0    0 -0.55694178160E-01 -0.40702677579E-02 -0.34485185818E-01  0.65634577186E-01  0.51100000000E-03 0.  1.
</event>
<event>
 8    1  0.1086486E+005  0.1043930E+01  0.7957747E-01            NaN
         13   -1    0    0    0    0  0.00000000000E+00  0.00000000000E+00  0.74505805969E-08  0.10566000000E+00  0.10566000000E+00 0.  1.
     999900   -1    0    0    0    0 -0.00000000000E+00 -0.00000000000E+00 -0.74505805969E-08  0.93827000000E+00  0.93827000000E+00 0. -1.
     999902    2    1    2    0    0  0.42142454244E-02 -0.23939014052E-01  0.73069817743E-03  0.10196118961E+01  0.10193218571E+01 0.  0.
     999903    2    3    3    0    0  0.10344514096E+00  0.71966655234E-01 -0.16718601557E-01  0.12868589125E+00  0.20011254680E-01 0.  0.
         14    1    1    2    0    0 -0.42142454244E-02  0.23939014052E-01 -0.73069817743E-03  0.24318103917E-01  0.00000000000E+00 0. -1.
     999901    1    3    3    0    0 -0.99230895538E-01 -0.95905669286E-01  0.17449299734E-01  0.89092600484E+00  0.88000000000E+00 0.  1.
        -11    1    4    4    0    0  0.59666864673E-01  0.29371441362E-01 -0.93316547300E-02  0.67157704015E-01  0.51100000000E-03 0. -1.
         11    1    4    4    0    0  0.43778276290E-01  0.42595213872E-01 -0.73869468266E-02  0.61528187233E-01  0.51100000000E-03 0.  1.
</event>
<event>
 8    1  0.1086486E+005  0.1043930E+01  0.7957747E-01            NaN
         13   -1    0    0    0    0  0.00000000000E+00  0.00000000000E+00  0.74505805969E-08  0.10566000000E+00  0.10566000000E+00 0. -1.
     999900   -1    0    0    0    0 -0.00000000000E+00 -0.00000000000E+00 -0.74505805969E-08  0.93827000000E+00  0.93827000000E+00 0.  1.
     999902    2    1    2    0    0  0.88203420796E-04 -0.13437686580E-01  0.16860529529E-01  0.10223694653E+01  0.10221420972E+01 0.  0.
     999903    2    3    3    0    0  0.66110230026E-01 -0.11015391043E+00  0.34463994603E-01  0.13443770107E+00  0.19526444825E-01 0.  0.
         14    1    1    2    0    0 -0.88203420796E-04  0.13437686580E-01 -0.16860529529E-01  0.21560534698E-01  0.00000000000E+00 0.  1.
     999901    1    3    3    0    0 -0.66022026606E-01  0.96716223849E-01 -0.17603465073E-01  0.88793176423E+00  0.88000000000E+00 0.  1.
        -11    1    4    4    0    0  0.38280899067E-01 -0.63047427085E-01  0.29699053410E-01  0.79515408506E-01  0.51100000000E-03 0.  1.
         11    1    4    4    0    0  0.27829330959E-01 -0.47106483344E-01  0.47649411923E-02  0.54922292562E-01  0.51100000000E-03 0. -1.
</event>
<event>
 8    1  0.1086486E+005  0.1043930E+01  0.7957747E-01            NaN
         13   -1    0    0    0    0  0.00000000000E+00  0.00000000000E+00  0.74505805969E-08  0.10566000000E+00  0.10566000000E+00 0. -1.
     999900   -1    0    0    0    0 -0.00000000000E+00 -0.00000000000E+00 -0.74505805969E-08  0.93827000000E+00  0.93827000000E+00 0. -1.
     999902    2    1    2    0    0 -0.17721500457E-01  0.11231391564E-02  0.17938239992E-01  0.10186892894E+01  0.10183765388E+01 0.  0.
     999903    2    3    3    0    0  0.31066202138E-01 -0.11967538939E+00  0.31249497684E-01  0.12899849250E+00  0.19410621306E-01 0.  0.
         14    1    1    2    0    0  0.17721500457E-01 -0.11231391564E-02 -0.17938239992E-01  0.25240710648E-01  0.00000000000E+00 0. -1.
     999901    1    3    3    0    0 -0.48787702595E-01  0.12079852855E+00 -0.13311257692E-01  0.88969079685E+00  0.88000000000E+00 0.  1.
        -11    1    4    4    0    0  0.43296064196E-02 -0.50579359843E-01  0.17098034677E-01  0.53568843974E-01  0.51100000000E-03 0. -1.
         11    1    4    4    0    0  0.26736595718E-01 -0.69096029551E-01  0.14151463007E-01  0.75429648525E-01  0.51100000000E-03 0.  1.
</event>
<event>
 8    1  0.1086486E+005  0.1043930E+01  0.7957747E-01            NaN
         13   -1    0    0    0    0  0.00000000000E+00  0.00000000000E+00  0.74505805969E-08  0.10566000000E+00  0.10566000000E+00 0.  1.
     999900   -1    0    0    0    0 -0.00000000000E+00 -0.00000000000E+00 -0.74505805969E-08  0.93827000000E+00  0.93827000000E+00 0.  1.
     999902    2    1    2    0    0  0.33679934357E-02 -0.17343940360E-01 -0.15640744398E-01  0.10203336331E+01  0.10200607503E+01 0.  0.
     999903    2    3    3    0    0 -0.22152434894E-01  0.31944959461E-01 -0.12445533054E+00  0.13189607079E+00  0.19905611870E-01 0.  0.
         14    1    1    2    0    0 -0.33679934357E-02  0.17343940360E-01  0.15640744398E-01  0.23596366930E-01  0.00000000000E+00 0.  1.
     999901    1    3    3    0    0  0.25520428329E-01 -0.49288899821E-01  0.10881458614E+00  0.88843756228E+00  0.88000000000E+00 0. -1.
        -11    1    4    4    0    0 -0.18819608704E-01  0.32328225284E-01 -0.92763825988E-01  0.10002339904E+00  0.51100000000E-03 0.  1.
         11    1    4    4    0    0 -0.33328261891E-02 -0.38326582327E-03 -0.31691504552E-01  0.31872671756E-01  0.51100000000E-03 0. -1.
</event>
<event>
 8    1  0.1086486E+005  0.1043930E+01  0.7957747E-01            NaN
         13   -1    0    0    0    0  0.00000000000E+00  0.00000000000E+00  0.74505805969E-08  0.10566000000E+00  0.10566000000E+00 0. -1.
     999900   -1    0    0    0    0 -0.00000000000E+00 -0.00000000000E+00 -0.74505805969E-08  0.93827000000E+00  0.93827000000E+00 0. -1.
     999902    2    1    2    0    0  0.23062574782E-01  0.22252967496E-02  0.44652229870E-02  0.10203339724E+01  0.10200610976E+01 0.  0.
     999903    2    3    3    0    0  0.10934097257E+00  0.52239215683E-01 -0.50978769688E-01  0.13296742452E+00  0.19927796834E-01 0.  0.
         14    1    1    2    0    0 -0.23062574782E-01 -0.22252967496E-02 -0.44652229870E-02  0.23596027579E-01  0.00000000000E+00 0.  1.
     999901    1    3    3    0    0 -0.86278397787E-01 -0.50013918933E-01  0.55443992675E-01  0.88736654790E+00  0.88000000000E+00 0. -1.
        -11    1    4    4    0    0  0.55127423465E-01  0.21683811623E-01 -0.34639074847E-01  0.68624683108E-01  0.51100000000E-03 0. -1.
         11    1    4    4    0    0  0.54213549105E-01  0.30555404060E-01 -0.16339694841E-01  0.64342741411E-01  0.51100000000E-03 0.  1.
</event>
<event>
 8    1  0.1086486E+005  0.1043930E+01  0.7957747E-01            NaN
         13   -1    0    0    0    0  0.00000000000E+00  0.00000000000E+00  0.74505805969E-08  0.10566000000E+00  0.10566000000E+00 0.  1.
     999900   -1    0    0    0    0 -0.00000000000E+00 -0.00000000000E+00 -0.74505805969E-08  0.93827000000E+00  0.93827000000E+00 0. -1.
     999902    2    1    2    0    0 -0.60829876252E-02  0.22912512554E-01  0.43325828586E-02  0.10198310945E+01  0.10195463227E+01 0.  0.
     999903    2    3    3    0    0  0.96248405608E-01  0.87300995984E-01  0.55967917964E-02  0.13156357343E+00  0.19809853444E-01 0.  0.
         14    1    1    2    0    0  0.60829876252E-02 -0.22912512554E-01 -0.43325828586E-02  0.24098905457E-01  0.00000000000E+00 0.  1.
     999901    1    3    3    0    0 -0.10233139323E+00 -0.64388483430E-01 -0.12642089379E-02  0.88826752111E+00  0.88000000000E+00 0. -1.
        -11    1    4    4    0    0  0.22119093495E-01  0.21326817410E-01 -0.70364417858E-02  0.31525546338E-01  0.51100000000E-03 0. -1.
         11    1    4    4    0    0  0.74129312113E-01  0.65974178574E-01  0.12633233582E-01  0.10003802709E+00  0.51100000000E-03 0.  1.
</event>
<event>
 8    1  0.1086486E+005  0.1043930E+01  0.7957747E-01            NaN
         13   -1    0    0    0    0  0.00000000000E+00  0.00000000000E+00  0.74505805969E-08  0.10566000000E+00  0.10566000000E+00 0. -1.
     999900   -1    0    0    0    0 -0.00000000000E+00 -0.00000000000E+00 -0.74505805969E-08  0.93827000000E+00  0.93827000000E+00 0.  1.
     999902    2    1    2    0    0 -0.10328403934E-01  0.21083136433E-01  0.41482831392E-03  0.10204492280E+01  0.10201790433E+01 0.  0.
     999903    2    3    3    0    0  0.11936505732E+00  0.43936400286E-01 -0.20298448972E-01  0.13040894500E+00  0.20397100941E-01 0.  0.
         14    1    1    2    0    0  0.10328403934E-01 -0.21083136433E-01 -0.41482831392E-03  0.23480771968E-01  0.00000000000E+00 0. -1.
     999901    1    3    3    0    0 -0.12969346125E+00 -0.22853263853E-01  0.20713277285E-01  0.89004028303E+00  0.88000000000E+00 0. -1.
        -11    1    4    4    0    0  0.44527899464E-01  0.26936817539E-01 -0.68206523369E-02  0.52489126389E-01  0.51100000000E-03 0.  1.
         11    1    4    4    0    0  0.74837157856E-01  0.16999582747E-01 -0.13477796635E-01  0.77919818613E-01  0.51100000000E-03 0. -1.
</event>
<event>
 8    1  0.1086486E+005  0.1043930E+01  0.7957747E-01            NaN
         13   -1    0    0    0    0  0.00000000000E+00  0.00000000000E+00  0.74505805969E-08  0.10566000000E+00  0.10566000000E+00 0.  1.
     999900   -1    0    0    0    0 -0.00000000000E+00 -0.00000000000E+00 -0.74505805969E-08  0.93827000000E+00  0.93827000000E+00 0.  1.
     999902    2    1    2    0    0  0.62987355650E-02  0.19433040043E-01  0.96339445771E-02  0.10213439423E+01  0.10210941771E+01 0.  0.
     999903    2    3    3    0    0  0.40826864099E-02 -0.11684075744E+00 -0.50348605752E-01  0.12883435405E+00  0.19871531243E-01 0.  0.
         14    1    1    2    0    0 -0.62987355650E-02 -0.19433040043E-01 -0.96339445771E-02  0.22586057716E-01  0.00000000000E+00 0. -1.
     999901    1    3    3    0    0  0.22160491551E-02  0.13627379748E+00  0.59982550329E-01  0.89250958824E+00  0.88000000000E+00 0. -1.
        -11    1    4    4    0    0 -0.14930347029E-02 -0.52388724731E-01 -0.12503514963E-01  0.53883268637E-01  0.51100000000E-03 0.  1.
         11    1    4    4    0    0  0.55757211128E-02 -0.64452032708E-01 -0.37845090789E-01  0.74951085409E-01  0.51100000000E-03 0. -1.
</event>
<event>
 8    1  0.1086486E+005  0.1043930E+01  0.7957747E-01            NaN
         13   -1    0    0    0    0  0.00000000000E+00  0.00000000000E+00  0.74505805969E-08  0.10566000000E+00  0.10566000000E+00 0. -1.
     999900   -1    0    0    0    0 -0.00000000000E+00 -0.00000000000E+00 -0.74505805969E-08  0.93827000000E+00  0.93827000000E+00 0.  1.
     999902    2    1    2    0    0 -0.17488824216E-01  0.16548570380E-01  0.36342145210E-03  0.10198500035E+01  0.10195656838E+01 0.  0.
     999903    2    3    3    0    0  0.37711799099E-01 -0.73215633053E-01  0.96456123979E-01  0.12836891653E+00  0.19801165694E-01 0.  0.
         14    1    1    2    0    0  0.17488824216E-01 -0.16548570380E-01 -0.36342145210E-03  0.24079996454E-01  0.00000000000E+00 0.  1.
     999901    1    3    3    0    0 -0.55200623314E-01  0.89764203433E-01 -0.96092702527E-01  0.89148108702E+00  0.88000000000E+00 0.  1.
        -11    1    4    4    0    0  0.19995935488E-01 -0.37135411575E-01  0.64259800930E-01  0.76866503533E-01  0.51100000000E-03 0.  1.
         11    1    4    4    0    0  0.17715863610E-01 -0.36080221478E-01  0.32196323049E-01  0.51502412994E-01  0.51100000000E-03 0. -1.
</event>
<event>
 8    1  0.1086486E+005  0.1043930E+01  0.7957747E-01            NaN
         13   -1    0    0    0    0  0.00000000000E+00  0.00000000000E+00  0.74505805969E-08  0.10566000000E+00  0.10566000000E+00 0. -1.
     999900   -1    0    0    0    0 -0.00000000000E+00 -0.00000000000E+00 -0.74505805969E-08  0.93827000000E+00  0.93827000000E+00 0. -1.
     999902    2    1    2    0    0  0.26626634835E-02 -0.22769808125E-01  0.30606596992E-02  0.10208016283E+01  0.10205395841E+01 0.  0.
     999903    2    3    3    0    0 -0.90340938806E-01 -0.93521091860E-01 -0.17969686817E-01  0.13282770434E+00  0.20312792741E-01 0.  0.
         14    1    1    2    0    0 -0.26626634835E-02  0.22769808125E-01 -0.30606596992E-02  0.23128371682E-01  0.00000000000E+00 0. -1.
     999901    1    3    3    0    0  0.93003602290E-01  0.70751283735E-01  0.21030346516E-01  0.88797392398E+00  0.88000000000E+00 0. -1.
        -11    1    4    4    0    0 -0.68353886655E-01 -0.62661445909E-01 -0.53419482539E-02  0.92884380583E-01  0.51100000000E-03 0. -1.
         11    1    4    4    0    0 -0.21987052151E-01 -0.30859645952E-01 -0.12627738563E-01  0.39943323757E-01  0.51100000000E-03 0.  1.
</event>
<event>
 8    1  0.1086486E+005  0.1043930E+01  0.7957747E-01            NaN
         13   -1    0    0    0    0  0.00000000000E+00  0.00000000000E+00  0.74505805969E-08  0.10566000000E+00  0.10566000000E+00 0. -1.
     999900   -1    0    0    0    0 -0.00000000000E+00 -0.00000000000E+00 -0.74505805969E-08  0.93827000000E+00  0.93827000000E+00 0. -1.
     999902    2    1    2    0    0  0.17137863185E-01 -0.12818152929E-01  0.10071926482E-01  0.10202771967E+01  0.10200029917E+01 0.  0.
     999903    2    3    3    0    0  0.71764274931E-01 -0.22688928568E-01  0.10798839733E+00  0.13310804019E+00  0.19782764469E-01 0.  0.
         14    1    1    2    0    0 -0.17137863185E-01  0.12818152929E-01 -0.10071926482E-01  0.23652803261E-01  0.00000000000E+00 0.  1.
     999901    1    3    3    0    0 -0.54626411746E-01  0.98707756391E-02 -0.97916470843E-01  0.88716915655E+00  0.88000000000E+00 0. -1.
        -11    1    4    4    0    0  0.67489571333E-01 -0.25816849471E-01  0.10295711475E+00  0.12578465946E+00  0.51100000000E-03 0.  1.
         11    1    4    4    0    0  0.42747035976E-02  0.31279209029E-02  0.50312825716E-02  0.73233807315E-02  0.51100000000E-03 0. -1.
</event>
<event>
 8    1  0.1086486E+005  0.1043930E+01  0.7957747E-01            NaN
         13   -1    0    0    0    0  0.00000000000E+00  0.00000000000E+00  0.74505805969E-08  0.10566000000E+00  0.10566000000E+00 0.  1.
     999900   -1    0    0    0    0 -0.00000000000E+00 -0.00000000000E+00 -0.74505805969E-08  0.93827000000E+00  0.93827000000E+00 0.  1.
     999902    2    1    2    0    0  0.18115263179E-01 -0.16406460922E-02  0.14128959292E-01  0.10208978058E+01  0.10206379612E+01 0.  0.
     999903    2    3    3    0    0  0.13003613935E+00  0.20086149445E-01  0.11087317848E-01  0.13353790825E+00  0.19914652551E-01 0.  0.
         14    1    1    2    0    0 -0.18115263179E-01  0.16406460922E-02 -0.14128959292E-01  0.23032194214E-01  0.00000000000E+00 0. -1.
     999901    1    3    3    0    0 -0.11192087617E+00 -0.21726795537E-01  0.30416414446E-02  0.88735989753E+00  0.88000000000E+00 0. -1.
        -11    1    4    4    0    0  0.91086379692E-01  0.17952452192E-01 -0.50170390617E-03  0.92841434354E-01  0.51100000000E-03 0. -1.
         11    1    4    4    0    0  0.38949759660E-01  0.21336972528E-02  0.11589021754E-01  0.40696473899E-01  0.51100000000E-03 0.  1.
</event>
<event>
 8    1  0.1086486E+005  0.1043930E+01  0.7957747E-01            NaN
         13   -1    0    0    0    0  0.00000000000E+00  0.00000000000E+00  0.74505805969E-08  0.10566000000E+00  0.10566000000E+00 0. -1.
     999900   -1    0    0    0    0 -0.00000000000E+00 -0.00000000000E+00 -0.74505805969E-08  0.93827000000E+00  0.93827000000E+00 0.  1.
     999902    2    1    2    0    0  0.23809350212E-02 -0.19441892541E-01  0.95933596048E-02  0.10221197138E+01  0.10218869902E+01 0.  0.
     999903    2    3    3    0    0 -0.78789923922E-01  0.10371805108E-01  0.10441183004E+00  0.13281205764E+00  0.20537427989E-01 0.  0.
         14    1    1    2    0    0 -0.23809350212E-02  0.19441892541E-01 -0.95933596048E-02  0.21810286235E-01  0.00000000000E+00 0.  1.
     999901    1    3    3    0    0  0.81170858943E-01 -0.29813697648E-01 -0.94818470439E-01  0.88930765613E+00  0.88000000000E+00 0. -1.
        -11    1    4    4    0    0 -0.42061968401E-01  0.99566523580E-03  0.39902930490E-01  0.57988839597E-01  0.51100000000E-03 0.  1.
         11    1    4    4    0    0 -0.36727955520E-01  0.93761398718E-02  0.64508899553E-01  0.74823218042E-01  0.51100000000E-03 0. -1.
</event>
<event>
 8    1  0.1086486E+005  0.1043930E+01  0.7957747E-01            NaN
         13   -1    0    0    0    0  0.00000000000E+00  0.00000000000E+00  0.74505805969E-08  0.10566000000E+00  0.10566000000E+00 0. -1.
     999900   -1    0    0    0    0 -0.00000000000E+00 -0.00000000000E+00 -0.74505805969E-08  0.93827000000E+00  0.93827000000E+00 0. -1.
     999902    2    1    2    0    0  0.60344885804E-02 -0.18524523403E-01 -0.12333739499E-01  0.10208715059E+01  0.10206110608E+01 0.  0.
     999903    2    3    3    0    0  0.13965333159E-01  0.12438310856E+00  0.21889612745E-01  0.12865139438E+00  0.20145418961E-01 0.  0.
         14    1    1    2    0    0 -0.60344885804E-02  0.18524523403E-01  0.12333739499E-01  0.23058494091E-01  0.00000000000E+00 0. -1.
     999901    1    3    3    0    0 -0.79308445785E-02 -0.14290763197E+00 -0.34223352244E-01  0.89222011152E+00  0.88000000000E+00 0. -1.
        -11    1    4    4    0    0  0.16257970528E-01  0.75915124509E-01  0.19592500554E-01  0.80072185769E-01  0.51100000000E-03 0. -1.
         11    1    4    4    0    0 -0.22926373689E-02  0.48467984053E-01  0.22971121918E-02  0.48579208615E-01  0.51100000000E-03 0.  1.
</event>
<event>
 8    1  0.1086486E+005  0.1043930E+01  0.7957747E-01            NaN
         13   -1    0    0    0    0  0.00000000000E+00  0.00000000000E+00  0.74505805969E-08  0.10566000000E+00  0.10566000000E+00 0. -1.
     999900   -1    0    0    0    0 -0.00000000000E+00 -0.00000000000E+00 -0.74505805969E-08  0.93827000000E+00  0.93827000000E+00 0. -1.
     999902    2    1    2    0    0  0.47511127028E-02  0.17941377162E-01 -0.46361584499E-02  0.10247999176E+01  0.10246213501E+01 0.  0.
     999903    2    3    3    0    0  0.53317663469E-01  0.10263788664E+00 -0.70594345369E-01  0.13694706327E+00  0.19840048604E-01 0.  0.
         14    1    1    2    0    0 -0.47511127028E-02 -0.17941377162E-01  0.46361584499E-02  0.19130082372E-01  0.00000000000E+00 0.  1.
     999901    1    3    3    0    0 -0.48566550767E-01 -0.84696509476E-01  0.65958186919E-01  0.88785285436E+00  0.88000000000E+00 0.  1.
        -11    1    4    4    0    0  0.76750978940E-02  0.19722578017E-01 -0.22079734220E-01  0.30588608918E-01  0.51100000000E-03 0.  1.
         11    1    4    4    0    0  0.45642565575E-01  0.82915308621E-01 -0.48514611149E-01  0.10635845435E+00  0.51100000000E-03 0. -1.
</event>
<event>
 8    1  0.1086486E+005  0.1043930E+01  0.7957747E-01            NaN
         13   -1    0    0    0    0  0.00000000000E+00  0.00000000000E+00  0.74505805969E-08  0.10566000000E+00  0.10566000000E+00 0. -1.
     999900   -1    0    0    0    0 -0.00000000000E+00 -0.00000000000E+00 -0.74505805969E-08  0.93827000000E+00  0.93827000000E+00 0.  1.
     999902    2    1    2    0    0 -0.20797824995E-01  0.53222438504E-02 -0.40470634774E-02  0.10220838441E+01  0.10218503461E+01 0.  0.
     999903    2    3    3    0    0  0.20766246319E-01  0.12809833247E+00 -0.18028623363E-01  0.13247886213E+00  0.19626458771E-01 0.  0.
         14    1    1    2    0    0  0.20797824995E-01 -0.53222438504E-02  0.40470634774E-02  0.21846155885E-01  0.00000000000E+00 0. -1.
     999901    1    3    3    0    0 -0.41564071315E-01 -0.12277608861E+00  0.13981559885E-01  0.88960498199E+00  0.88000000000E+00 0. -1.
        -11    1    4    4    0    0  0.24324868419E-01  0.11275208065E+00 -0.17820631338E-01  0.11671575273E+00  0.51100000000E-03 0.  1.
         11    1    4    4    0    0 -0.35586220994E-02  0.15346251818E-01 -0.20799202474E-03  0.15763109395E-01  0.51100000000E-03 0. -1.
</event>
<event>
 8    1  0.1086486E+005  0.1043930E+01  0.7957747E-01            NaN
         13   -1    0    0    0    0  0.00000000000E+00  0.00000000000E+00  0.74505805969E-08  0.10566000000E+00  0.10566000000E+00 0. -1.
     999900   -1    0    0    0    0 -0.00000000000E+00 -0.00000000000E+00 -0.74505805969E-08  0.93827000000E+00  0.93827000000E+00 0. -1.
     999902    2    1    2    0    0 -0.74464264876E-02 -0.18569322732E-01  0.12720260255E-01  0.10202218994E+01  0.10199463956E+01 0.  0.
     999903    2    3    3    0    0  0.93551392137E-02  0.99360903731E-01  0.80327463228E-01  0.12962627575E+00  0.19757585813E-01 0.  0.
         14    1    1    2    0    0  0.74464264876E-02  0.18569322732E-01 -0.12720260255E-01  0.23708100622E-01  0.00000000000E+00 0.  1.
     999901    1    3    3    0    0 -0.16801565701E-01 -0.11793022646E+00 -0.67607202973E-01  0.89059562362E+00  0.88000000000E+00 0.  1.
        -11    1    4    4    0    0 -0.16491222192E-02  0.19941110182E-01  0.25835365667E-01  0.32681718430E-01  0.51100000000E-03 0. -1.
         11    1    4    4    0    0  0.11004261433E-01  0.79419793550E-01  0.54492097561E-01  0.96944557324E-01  0.51100000000E-03 0.  1.
</event>
<event>
 8    1  0.1086486E+005  0.1043930E+01  0.7957747E-01            NaN
         13   -1    0    0    0    0  0.00000000000E+00  0.00000000000E+00  0.74505805969E-08  0.10566000000E+00  0.10566000000E+00 0. -1.
     999900   -1    0    0    0    0 -0.00000000000E+00 -0.00000000000E+00 -0.74505805969E-08  0.93827000000E+00  0.93827000000E+00 0.  1.
     999902    2    1    2    0    0  0.37948101243E-02 -0.41537131780E-02 -0.15918012111E-01  0.10270469604E+01  0.10269081857E+01 0.  0.
     999903    2    3    3    0    0 -0.11990329728E+00 -0.51613067828E-01  0.31793049262E-01  0.13585115839E+00  0.20100492176E-01 0.  0.
         14    1    1    2    0    0 -0.37948101243E-02  0.41537131780E-02  0.15918012111E-01  0.16883039614E-01  0.00000000000E+00 0. -1.
     999901    1    3    3    0    0  0.12369810740E+00  0.47459354650E-01 -0.47711061373E-01  0.89119580200E+00  0.88000000000E+00 0. -1.
        -11    1    4    4    0    0 -0.21051164789E-01 -0.50500101823E-02  0.12145458133E-01  0.24827956341E-01  0.51100000000E-03 0.  1.
         11    1    4    4    0    0 -0.98852132488E-01 -0.46563057646E-01  0.19647591129E-01  0.11102320205E+00  0.51100000000E-03 0. -1.
</event>
<event>
 8    1  0.1086486E+005  0.1043930E+01  0.7957747E-01            NaN
         13   -1    0    0    0    0  0.00000000000E+00  0.00000000000E+00  0.74505805969E-08  0.10566000000E+00  0.10566000000E+00 0. -1.
     999900   -1    0    0    0    0 -0.00000000000E+00 -0.00000000000E+00 -0.74505805969E-08  0.93827000000E+00  0.93827000000E+00 0.  1.
     999902    2    1    2    0    0 -0.61147354465E-02  0.11728314564E-01 -0.16393749207E-01  0.10228658512E+01  0.10226489384E+01 0.  0.
     999903    2    3    3    0    0  0.12472142825E+00  0.23052010476E-01  0.30335929244E-01  0.13189447641E+00  0.19724463356E-01 0.  0.
         14    1    1    2    0    0  0.61147354465E-02 -0.11728314564E-01  0.16393749207E-01  0.21064148812E-01  0.00000000000E+00 0. -1.
     999901    1    3    3    0    0 -0.13083616369E+00 -0.11323695911E-01 -0.46729678450E-01  0.89097137477E+00  0.88000000000E+00 0.  1.
        -11    1    4    4    0    0  0.88794447236E-01  0.18235276799E-01  0.12547379260E-01  0.91513261482E-01  0.51100000000E-03 0. -1.
         11    1    4    4    0    0  0.35926981011E-01  0.48167336767E-02  0.17788549984E-01  0.40381214932E-01  0.51100000000E-03 0.  1.
</event>
<event>
 8    1  0.1086486E+005  0.1043930E+01  0.7957747E-01            NaN
         13   -1    0    0    0    0  0.00000000000E+00  0.00000000000E+00  0.74505805969E-08  0.10566000000E+00  0.10566000000E+00 0. -1.
     999900   -1    0    0    0    0 -0.00000000000E+00 -0.00000000000E+00 -0.74505805969E-08  0.93827000000E+00  0.93827000000E+00 0.  1.
     999902    2    1    2    0    0  0.16778323035E-01 -0.20533916641E-02  0.15777803601E-01  0.10208071190E+01  0.10205452006E+01 0.  0.
     999903    2    3    3    0    0  0.34245154068E-02  0.12552270689E+00 -0.29271013827E-01  0.13036712600E+00  0.19264424207E-01 0.  0.
         14    1    1    2    0    0 -0.16778323035E-01  0.20533916641E-02 -0.15777803601E-01  0.23122881042E-01  0.00000000000E+00 0.  1.
     999901    1    3    3    0    0  0.13353807628E-01 -0.12757609856E+00  0.45048817429E-01  0.89043999295E+00  0.88000000000E+00 0.  1.
        -11    1    4    4    0    0  0.18615275356E-02  0.93656215685E-01 -0.30261895318E-01  0.98442853730E-01  0.51100000000E-03 0.  1.
         11    1    4    4    0    0  0.15629878712E-02  0.31866491209E-01  0.99088149019E-03  0.31924272273E-01  0.51100000000E-03 0. -1.
</event>
<event>
 8    1  0.1086486E+005  0.1043930E+01  0.7957747E-01            NaN
         13   -1    0    0    0    0  0.00000000000E+00  0.00000000000E+00  0.74505805969E-08  0.10566000000E+00  0.10566000000E+00 0. -1.
     999900   -1    0    0    0    0 -0.00000000000E+00 -0.00000000000E+00 -0.74505805969E-08  0.93827000000E+00  0.93827000000E+00 0. -1.
     999902    2    1    2    0    0  0.22684799747E-01  0.55638371831E-02  0.18643695865E-02  0.10204985618E+01  0.10202295243E+01 0.  0.
     999903    2    3    3    0    0  0.92175524742E-01 -0.40394946171E-01 -0.83675382909E-01  0.13243425110E+00  0.20228250563E-01 0.  0.
         14    1    1    2    0    0 -0.22684799747E-01 -0.55638371831E-02 -0.18643695865E-02  0.23431438234E-01  0.00000000000E+00 0. -1.
     999901    1    3    3    0    0 -0.69490724995E-01  0.45958783354E-01  0.85539752495E-01  0.88806431067E+00  0.88000000000E+00 0.  1.
        -11    1    4    4    0    0  0.56731908592E-02 -0.89469824816E-02 -0.88951704457E-02  0.13842643111E-01  0.51100000000E-03 0.  1.
         11    1    4    4    0    0  0.86502333883E-01 -0.31447963689E-01 -0.74780212463E-01  0.11859160799E+00  0.51100000000E-03 0. -1.
</event>
<event>
 8    1  0.1086486E+005  0.1043930E+01  0.7957747E-01            NaN
         13   -1    0    0    0    0  0.00000000000E+00  0.00000000000E+00  0.74505805969E-08  0.10566000000E+00  0.10566000000E+00 0. -1.
     999900   -1    0    0    0    0 -0.00000000000E+00 -0.00000000000E+00 -0.74505805969E-08  0.93827000000E+00  0.93827000000E+00 0. -1.
     999902    2    1    2    0    0  0.19284455780E-01 -0.21640268125E-02 -0.13523716128E-01  0.10202770056E+01  0.10200027961E+01 0.  0.
     999903    2    3    3    0    0  0.10807002891E+00 -0.64484121062E-01 -0.38979373776E-01  0.13325126602E+00  0.19979371831E-01 0.  0.
         14    1    1    2    0    0 -0.19284455780E-01  0.21640268125E-02  0.13523716128E-01  0.23652994413E-01  0.00000000000E+00 0.  1.
     999901    1    3    3    0    0 -0.88785573131E-01  0.62320094249E-01  0.25455657648E-01  0.88702573956E+00  0.88000000000E+00 0. -1.
        -11    1    4    4    0    0  0.50983726271E-01 -0.41780586183E-01 -0.22331328233E-01  0.69598182936E-01  0.51100000000E-03 0.  1.
         11    1    4    4    0    0  0.57086302640E-01 -0.22703534878E-01 -0.16648045543E-01  0.63653083087E-01  0.51100000000E-03 0. -1.
</event>
<event>
 8    1  0.1086486E+005  0.1043930E+01  0.7957747E-01            NaN
         13   -1    0    0    0    0  0.00000000000E+00  0.00000000000E+00  0.74505805969E-08  0.10566000000E+00  0.10566000000E+00 0.  1.
     999900   -1    0    0    0    0 -0.00000000000E+00 -0.00000000000E+00 -0.74505805969E-08  0.93827000000E+00  0.93827000000E+00 0.  1.
     999902    2    1    2    0    0 -0.57570663891E-02  0.26481423398E-02  0.22900964092E-01  0.10201684633E+01  0.10198917015E+01 0.  0.
     999903    2    3    3    0    0  0.92497862245E-01  0.69402936566E-01  0.58294991577E-01  0.13148237092E+00  0.22730721438E-01 0.  0.
         14    1    1    2    0    0  0.57570663891E-02 -0.26481423398E-02 -0.22900964092E-01  0.23761536726E-01  0.00000000000E+00 0. -1.
     999901    1    3    3    0    0 -0.98254928634E-01 -0.66754794226E-01 -0.35394027486E-01  0.88868609235E+00  0.88000000000E+00 0.  1.
        -11    1    4    4    0    0  0.50505363076E-01  0.33641754859E-01  0.18421090045E-01  0.63420478151E-01  0.51100000000E-03 0. -1.
         11    1    4    4    0    0  0.41992499169E-01  0.35761181707E-01  0.39873901532E-01  0.68061892774E-01  0.51100000000E-03 0.  1.
</event>
<event>
 8    1  0.1086486E+005  0.1043930E+01  0.7957747E-01            NaN
         13   -1    0    0    0    0  0.00000000000E+00  0.00000000000E+00  0.74505805969E-08  0.10566000000E+00  0.10566000000E+00 0. -1.
     999900   -1    0    0    0    0 -0.00000000000E+00 -0.00000000000E+00 -0.74505805969E-08  0.93827000000E+00  0.93827000000E+00 0. -1.
     999902    2    1    2    0    0  0.11692117095E-01 -0.15335793038E-01  0.13795368875E-01  0.10202191512E+01  0.10199435828E+01 0.  0.
     999903    2    3    3    0    0  0.12073282849E+00 -0.15171281956E-01  0.49338538167E-01  0.13277719774E+00  0.19720781415E-01 0.  0.
         14    1    1    2    0    0 -0.11692117095E-01  0.15335793038E-01 -0.13795368875E-01  0.23710848839E-01  0.00000000000E+00 0.  1.
     999901    1    3    3    0    0 -0.10904071140E+00 -0.16451108214E-03 -0.35543169292E-01  0.88744195342E+00  0.88000000000E+00 0. -1.
        -11    1    4    4    0    0  0.85969373609E-01 -0.13953792858E-01  0.26031696561E-01  0.90902980593E-01  0.51100000000E-03 0.  1.
         11    1    4    4    0    0  0.34763454883E-01 -0.12174890979E-02  0.23306841606E-01  0.41874217148E-01  0.51100000000E-03 0. -1.
</event>
<event>
 8    1  0.1086486E+005  0.1043930E+01  0.7957747E-01            NaN
         13   -1    0    0    0    0  0.00000000000E+00  0.00000000000E+00  0.74505805969E-08  0.10566000000E+00  0.10566000000E+00 0. -1.
     999900   -1    0    0    0    0 -0.00000000000E+00 -0.00000000000E+00 -0.74505805969E-08  0.93827000000E+00  0.93827000000E+00 0.  1.
     999902    2    1    2    0    0 -0.17637967078E-01  0.18296435265E-01  0.11725552976E-01  0.10159416807E+01  0.10155560804E+01 0.  0.
     999903    2    3    3    0    0 -0.99124602866E-03 -0.11380121856E+00  0.48718124320E-01  0.12515811897E+00  0.18422790034E-01 0.  0.
         14    1    1    2    0    0  0.17637967078E-01 -0.18296435265E-01 -0.11725552976E-01  0.27988319325E-01  0.00000000000E+00 0.  1.
     999901    1    3    3    0    0 -0.16646721049E-01  0.13209765382E+00 -0.36992571344E-01  0.89078356170E+00  0.88000000000E+00 0. -1.
        -11    1    4    4    0    0 -0.26090089808E-02 -0.70545993913E-01  0.39513200836E-01  0.80901782096E-01  0.51100000000E-03 0. -1.
         11    1    4    4    0    0  0.16177629521E-02 -0.43255224647E-01  0.92049234848E-02  0.44256336875E-01  0.51100000000E-03 0.  1.
</event>
<event>
 8    1  0.1086486E+005  0.1043930E+01  0.7957747E-01            NaN
         13   -1    0    0    0    0  0.00000000000E+00  0.00000000000E+00  0.74505805969E-08  0.10566000000E+00  0.10566000000E+00 0.  1.
     999900   -1    0    0    0    0 -0.00000000000E+00 -0.00000000000E+00 -0.74505805969E-08  0.93827000000E+00  0.93827000000E+00 0. -1.
     999902    2    1    2    0    0 -0.20847529442E-01  0.67805472580E-02 -0.86703540317E-02  0.10203552181E+01  0.10200828401E+01 0.  0.
     999903    2    3    3    0    0  0.98479078199E-01  0.59251363927E-01 -0.57572109690E-01  0.12940998539E+00  0.14951372325E-01 0.  0.
         14    1    1    2    0    0  0.20847529442E-01 -0.67805472580E-02  0.86703540317E-02  0.23574781950E-01  0.00000000000E+00 0. -1.
     999901    1    3    3    0    0 -0.11932660764E+00 -0.52470816669E-01  0.48901755659E-01  0.89094523266E+00  0.88000000000E+00 0.  1.
        -11    1    4    4    0    0  0.78452210257E-01  0.49920409256E-01 -0.52307351071E-01  0.10669168970E+00  0.51100000000E-03 0. -1.
         11    1    4    4    0    0  0.20026867942E-01  0.93309546706E-02 -0.52647586189E-02  0.22718295687E-01  0.51100000000E-03 0.  1.
</event>
<event>
 8    1  0.1086486E+005  0.1043930E+01  0.7957747E-01            NaN
         13   -1    0    0    0    0  0.00000000000E+00  0.00000000000E+00  0.74505805969E-08  0.10566000000E+00  0.10566000000E+00 0. -1.
     999900   -1    0    0    0    0 -0.00000000000E+00 -0.00000000000E+00 -0.74505805969E-08  0.93827000000E+00  0.93827000000E+00 0.  1.
     999902    2    1    2    0    0  0.16951101667E-01  0.13612380533E-01  0.11629951782E-01  0.10192745233E+01  0.10189762811E+01 0.  0.
     999903    2    3    3    0    0  0.35458904063E-01  0.11640220223E+00 -0.45031103410E-01  0.13128873438E+00  0.20053053130E-01 0.  0.
         14    1    1    2    0    0 -0.16951101667E-01 -0.13612380533E-01 -0.11629951782E-01  0.24655476673E-01  0.00000000000E+00 0.  1.
     999901    1    3    3    0    0 -0.18507802396E-01 -0.10278982170E+00  0.56661055192E-01  0.88798578895E+00  0.88000000000E+00 0.  1.
        -11    1    4    4    0    0  0.19066508669E-01  0.48888528335E-01 -0.29110582484E-01  0.60010891421E-01  0.51100000000E-03 0.  1.
         11    1    4    4    0    0  0.16392395393E-01  0.67513673895E-01 -0.15920520926E-01  0.71277842961E-01  0.51100000000E-03 0. -1.
</event>
<event>
 8    1  0.1086486E+005  0.1043930E+01  0.7957747E-01            NaN
         13   -1    0    0    0    0  0.00000000000E+00  0.00000000000E+00  0.74505805969E-08  0.10566000000E+00  0.10566000000E+00 0.  1.
     999900   -1    0    0    0    0 -0.00000000000E+00 -0.00000000000E+00 -0.74505805969E-08  0.93827000000E+00  0.93827000000E+00 0.  1.
     999902    2    1    2    0    0  0.22897206802E-01  0.10626439918E-02 -0.66588300646E-02  0.10200605360E+01  0.10197812245E+01 0.  0.
     999903    2    3    3    0    0 -0.12703659319E-01 -0.11052899320E+00  0.63394541396E-01  0.12953957054E+00  0.19585483355E-01 0.  0.
         14    1    1    2    0    0 -0.22897206802E-01 -0.10626439918E-02  0.66588300646E-02  0.23869463954E-01  0.00000000000E+00 0.  1.
     999901    1    3    3    0    0  0.35600866121E-01  0.11159163719E+00 -0.70053371461E-01  0.89052096551E+00  0.88000000000E+00 0.  1.
        -11    1    4    4    0    0 -0.30232856299E-02 -0.61859207153E-01  0.24980107833E-01  0.66782996893E-01  0.51100000000E-03 0. -1.
         11    1    4    4    0    0 -0.96803736892E-02 -0.48669786046E-01  0.38414433564E-01  0.62756573644E-01  0.51100000000E-03 0.  1.
</event>
<event>
 8    1  0.1086486E+005  0.1043930E+01  0.7957747E-01            NaN
         13   -1    0    0    0    0  0.00000000000E+00  0.00000000000E+00  0.74505805969E-08  0.10566000000E+00  0.10566000000E+00 0.  1.
     999900   -1    0    0    0    0 -0.00000000000E+00 -0.00000000000E+00 -0.74505805969E-08  0.93827000000E+00  0.93827000000E+00 0. -1.
     999902    2    1    2    0    0 -0.20337732291E-01 -0.11571321431E-01 -0.49032698132E-03  0.10205257428E+01  0.10202573364E+01 0.  0.
     999903    2    3    3    0    0 -0.21848866517E-01  0.12434286891E+00  0.21716479655E-01  0.12981361595E+00  0.21010649201E-01 0.  0.
         14    1    1    2    0    0  0.20337732291E-01  0.11571321431E-01  0.49032698132E-03  0.23404257197E-01  0.00000000000E+00 0. -1.
     999901    1    3    3    0    0  0.15111342257E-02 -0.13591419034E+00 -0.22206806637E-01  0.89071212685E+00  0.88000000000E+00 0.  1.
        -11    1    4    4    0    0 -0.20461468070E-01  0.60005846931E-01  0.14664022827E-01  0.65074326950E-01  0.51100000000E-03 0. -1.
         11    1    4    4    0    0 -0.13873984465E-02  0.64337021981E-01  0.70524568281E-02  0.64739288999E-01  0.51100000000E-03 0.  1.
</event>
<event>
 8    1  0.1086486E+005  0.1043930E+01  0.7957747E-01            NaN
         13   -1    0    0    0    0  0.00000000000E+00  0.00000000000E+00  0.74505805969E-08  0.10566000000E+00  0.10566000000E+00 0. -1.
     999900   -1    0    0    0    0 -0.00000000000E+00 -0.00000000000E+00 -0.74505805969E-08  0.93827000000E+00  0.93827000000E+00 0. -1.
     999902    2    1    2    0    0 -0.22468002874E-01  0.41295667614E-02 -0.11525956973E-02  0.10210565885E+01  0.10208003547E+01 0.  0.
     999903    2    3    3    0    0 -0.10896825178E-01  0.99322767040E-01  0.83565828463E-01  0.13180249160E+00  0.20122034068E-01 0.  0.
         14    1    1    2    0    0  0.22468002874E-01 -0.41295667614E-02  0.11525956973E-02  0.22873411455E-01  0.00000000000E+00 0. -1.
     999901    1    3    3    0    0 -0.11571177695E-01 -0.95193200279E-01 -0.84718424160E-01  0.88925409694E+00  0.88000000000E+00 0.  1.
        -11    1    4    4    0    0 -0.11772356500E-02  0.35883538179E-01  0.18435096311E-01  0.40362458956E-01  0.51100000000E-03 0. -1.
         11    1    4    4    0    0 -0.97195895282E-02  0.63439228861E-01  0.65130732152E-01  0.91440032648E-01  0.51100000000E-03 0.  1.
</event>
<event>
 8    1  0.1086486E+005  0.1043930E+01  0.7957747E-01            NaN
         13   -1    0    0    0    0  0.00000000000E+00  0.00000000000E+00  0.74505805969E-08  0.10566000000E+00  0.10566000000E+00 0. -1.
     999900   -1    0    0    0    0 -0.00000000000E+00 -0.00000000000E+00 -0.74505805969E-08  0.93827000000E+00  0.93827000000E+00 0. -1.
     999902    2    1    2    0    0 -0.58060673069E-02  0.24124304134E-01 -0.82133145313E-02  0.10177928425E+01  0.10174571830E+01 0.  0.
     999903    2    3    3    0    0 -0.93864554792E-01 -0.80687989058E-01 -0.22026066049E-01  0.12710170290E+00  0.18670540180E-01 0.  0.
         14    1    1    2    0    0  0.58060673069E-02 -0.24124304134E-01  0.82133145313E-02  0.26137157518E-01  0.00000000000E+00 0.  1.
     999901    1    3    3    0    0  0.88058487485E-01  0.10481229319E+00  0.13812751518E-01  0.89069113958E+00  0.88000000000E+00 0. -1.
        -11    1    4    4    0    0 -0.44501142982E-01 -0.50262387690E-01 -0.99207815546E-02  0.67862672882E-01  0.51100000000E-03 0.  1.
         11    1    4    4    0    0 -0.49363411809E-01 -0.30425601368E-01 -0.12105284494E-01  0.59239030020E-01  0.51100000000E-03 0. -1.
</event>
<event>
 8    1  0.1086486E+005  0.1043930E+01  0.7957747E-01            NaN
         13   -1    0    0    0    0  0.00000000000E+00  0.00000000000E+00  0.74505805969E-08  0.10566000000E+00  0.10566000000E+00 0.  1.
     999900   -1    0    0    0    0 -0.00000000000E+00 -0.00000000000E+00 -0.74505805969E-08  0.93827000000E+00  0.93827000000E+00 0.  1.
     999902    2    1    2    0    0  0.61499706009E-02 -0.36906321122E-02  0.19617049731E-01  0.10230428857E+01  0.10228296410E+01 0.  0.
     999903    2    3    3    0    0 -0.79343177773E-01 -0.96687063985E-01 -0.37748165308E-01  0.13217354474E+00  0.20029821366E-01 0.  0.
         14    1    1    2    0    0 -0.61499706009E-02  0.36906321122E-02 -0.19617049731E-01  0.20887114303E-01  0.00000000000E+00 0. -1.
     999901    1    3    3    0    0  0.85493148374E-01  0.92996431873E-01  0.57365215038E-01  0.89086934096E+00  0.88000000000E+00 0. -1.
        -11    1    4    4    0    0 -0.36332321413E-01 -0.30681160503E-01 -0.18836218310E-01  0.51151103901E-01  0.51100000000E-03 0.  1.
         11    1    4    4    0    0 -0.43010856360E-01 -0.66005903482E-01 -0.18911946997E-01  0.81022440839E-01  0.51100000000E-03 0. -1.
</event>
<event>
 8    1  0.1086486E+005  0.1043930E+01  0.7957747E-01            NaN
         13   -1    0    0    0    0  0.00000000000E+00  0.00000000000E+00  0.74505805969E-08  0.10566000000E+00  0.10566000000E+00 0.  1.
     999900   -1    0    0    0    0 -0.00000000000E+00 -0.00000000000E+00 -0.74505805969E-08  0.93827000000E+00  0.93827000000E+00 0.  1.
     999902    2    1    2    0    0 -0.18916222447E-01 -0.81228277833E-02 -0.18384928882E-01  0.10163291049E+01  0.10159542509E+01 0.  0.
     999903    2    3    3    0    0 -0.12669137689E+00 -0.18271504243E-01 -0.38004504534E-02  0.12957593370E+00  0.19771856871E-01 0.  0.
         14    1    1    2    0    0  0.18916222447E-01  0.81228277833E-02  0.18384928882E-01  0.27600895146E-01  0.00000000000E+00 0.  1.
     999901    1    3    3    0    0  0.10777515444E+00  0.10148676460E-01 -0.14584478429E-01  0.88675317116E+00  0.88000000000E+00 0.  1.
        -11    1    4    4    0    0 -0.60406402133E-01 -0.67220241365E-02  0.78598102380E-02  0.61287492730E-01  0.51100000000E-03 0. -1.
         11    1    4    4    0    0 -0.66284974756E-01 -0.11549480107E-01 -0.11660260691E-01  0.68288440966E-01  0.51100000000E-03 0.  1.
</event>
<event>
 8    1  0.1086486E+005  0.1043930E+01  0.7957747E-01            NaN
         13   -1    0    0    0    0  0.00000000000E+00  0.00000000000E+00  0.74505805969E-08  0.10566000000E+00  0.10566000000E+00 0. -1.
     999900   -1    0    0    0    0 -0.00000000000E+00 -0.00000000000E+00 -0.74505805969E-08  0.93827000000E+00  0.93827000000E+00 0. -1.
     999902    2    1    2    0    0  0.52691308378E-02  0.14050066422E-01  0.18125879121E-01  0.10203988377E+01  0.10201274785E+01 0.  0.
     999903    2    3    3    0    0 -0.65752833984E-01 -0.20152754598E-03  0.11310970607E+00  0.13232837043E+00  0.19837243366E-01 0.  0.
         14    1    1    2    0    0 -0.52691308378E-02 -0.14050066422E-01 -0.18125879121E-01  0.23531162321E-01  0.00000000000E+00 0.  1.
     999901    1    3    3    0    0  0.71021964822E-01  0.14251593968E-01 -0.94983826944E-01  0.88807046725E+00  0.88000000000E+00 0.  1.
        -11    1    4    4    0    0 -0.30094456231E-01  0.96552345264E-02  0.55134744136E-01  0.63553135105E-01  0.51100000000E-03 0. -1.
         11    1    4    4    0    0 -0.35658377753E-01 -0.98567620724E-02  0.57974961929E-01  0.68775235326E-01  0.51100000000E-03 0.  1.
</event>
<event>
 8    1  0.1086486E+005  0.1043930E+01  0.7957747E-01            NaN
         13   -1    0    0    0    0  0.00000000000E+00  0.00000000000E+00  0.74505805969E-08  0.10566000000E+00  0.10566000000E+00 0.  1.
     999900   -1    0    0    0    0 -0.00000000000E+00 -0.00000000000E+00 -0.74505805969E-08  0.93827000000E+00  0.93827000000E+00 0.  1.
     999902    2    1    2    0    0  0.34575618668E-02  0.78769574165E-02 -0.22030781587E-01  0.10202792806E+01  0.10200051244E+01 0.  0.
     999903    2    3    3    0    0 -0.10289256656E+00  0.73922263400E-01  0.23137753957E-01  0.13027224191E+00  0.19598981496E-01 0.  0.
         14    1    1    2    0    0 -0.34575618668E-02 -0.78769574165E-02  0.22030781587E-01  0.23650719429E-01  0.00000000000E+00 0.  1.
     999901    1    3    3    0    0  0.10635012842E+00 -0.66045305984E-01 -0.45168535543E-01  0.89000703866E+00  0.88000000000E+00 0.  1.
        -11    1    4    4    0    0 -0.73772550779E-01  0.45554168117E-01  0.22639010387E-01  0.89612261402E-01  0.51100000000E-03 0. -1.
         11    1    4    4    0    0 -0.29120015778E-01  0.28368095284E-01  0.49874356992E-03  0.40659980510E-01  0.51100000000E-03 0.  1.
</event>
<event>
 8    1  0.1086486E+005  0.1043930E+01  0.7957747E-01            NaN
         13   -1    0    0    0    0  0.00000000000E+00  0.00000000000E+00  0.74505805969E-08  0.10566000000E+00  0.10566000000E+00 0. -1.
     999900   -1    0    0    0    0 -0.00000000000E+00 -0.00000000000E+00 -0.74505805969E-08  0.93827000000E+00  0.93827000000E+00 0. -1.
     999902    2    1    2    0    0  0.68824603594E-02  0.63771652556E-02  0.21508481719E-01  0.10204640399E+01  0.10201941999E+01 0.  0.
     999903    2    3    3    0    0  0.12211936629E-01  0.76225084029E-01  0.10716096527E+00  0.13353479638E+00  0.19714830397E-01 0.  0.
         14    1    1    2    0    0 -0.68824603594E-02 -0.63771652556E-02 -0.21508481719E-01  0.23465960095E-01  0.00000000000E+00 0.  1.
     999901    1    3    3    0    0 -0.53294762692E-02 -0.69847918773E-01 -0.85652483546E-01  0.88692924352E+00  0.88000000000E+00 0. -1.
        -11    1    4    4    0    0  0.99840388715E-02  0.18517197615E-01  0.37939458068E-01  0.43384688996E-01  0.51100000000E-03 0. -1.
         11    1    4    4    0    0  0.22278977571E-02  0.57707886413E-01  0.69221507197E-01  0.90150107389E-01  0.51100000000E-03 0.  1.
</event>
<event>
 8    1  0.1086486E+005  0.1043930E+01  0.7957747E-01            NaN
         13   -1    0    0    0    0  0.00000000000E+00  0.00000000000E+00  0.74505805969E-08  0.10566000000E+00  0.10566000000E+00 0.  1.
     999900   -1    0    0    0    0 -0.00000000000E+00 -0.00000000000E+00 -0.74505805969E-08  0.93827000000E+00  0.93827000000E+00 0. -1.
     999902    2    1    2    0    0  0.69257128761E-02  0.18743200714E-01 -0.12748020430E-01  0.10202279938E+01  0.10199526334E+01 0.  0.
     999903    2    3    3    0    0  0.91950266879E-01  0.86016369732E-01  0.35233383020E-01  0.13227694274E+00  0.20053200733E-01 0.  0.
         14    1    1    2    0    0 -0.69257128761E-02 -0.18743200714E-01  0.12748020430E-01  0.23702006175E-01  0.00000000000E+00 0.  1.
     999901    1    3    3    0    0 -0.85024554003E-01 -0.67273169018E-01 -0.47981403450E-01  0.88795105109E+00  0.88000000000E+00 0. -1.
        -11    1    4    4    0    0  0.27858303809E-01  0.20996763514E-01  0.18383761399E-01  0.39435681474E-01  0.51100000000E-03 0. -1.
         11    1    4    4    0    0  0.64091963070E-01  0.65019606218E-01  0.16849621620E-01  0.92841261262E-01  0.51100000000E-03 0.  1.
</event>
<event>
 8    1  0.1086486E+005  0.1043930E+01  0.7957747E-01            NaN
         13   -1    0    0    0    0  0.00000000000E+00  0.00000000000E+00  0.74505805969E-08  0.10566000000E+00  0.10566000000E+00 0.  1.
     999900   -1    0    0    0    0 -0.00000000000E+00 -0.00000000000E+00 -0.74505805969E-08  0.93827000000E+00  0.93827000000E+00 0. -1.
     999902    2    1    2    0    0  0.11453588549E-01  0.17446687638E-01 -0.92422433624E-02  0.10211047801E+01  0.10208496370E+01 0.  0.
     999903    2    3    3    0    0 -0.16171524220E-01 -0.11559548842E+00 -0.52613047258E-01  0.12962040331E+00  0.20235638695E-01 0.  0.
         14    1    1    2    0    0 -0.11453588549E-01 -0.17446687638E-01  0.92422433624E-02  0.22825219880E-01  0.00000000000E+00 0. -1.
     999901    1    3    3    0    0  0.27625112769E-01  0.13304217606E+00  0.43370803896E-01  0.89148437681E+00  0.88000000000E+00 0.  1.
        -11    1    4    4    0    0 -0.14881092890E-01 -0.79171349976E-01 -0.26591575348E-01  0.84834677952E-01  0.51100000000E-03 0.  1.
         11    1    4    4    0    0 -0.12904313298E-02 -0.36424138445E-01 -0.26021471910E-01  0.44785725358E-01  0.51100000000E-03 0. -1.
</event>
<event>
 8    1  0.1086486E+005  0.1043930E+01  0.7957747E-01            NaN
         13   -1    0    0    0    0  0.00000000000E+00  0.00000000000E+00  0.74505805969E-08  0.10566000000E+00  0.10566000000E+00 0. -1.
     999900   -1    0    0    0    0 -0.00000000000E+00 -0.00000000000E+00 -0.74505805969E-08  0.93827000000E+00  0.93827000000E+00 0.  1.
     999902    2    1    2    0    0 -0.11500481154E-01 -0.43486561176E-02  0.19219819958E-01  0.10211139233E+01  0.10208589868E+01 0.  0.
     999903    2    3    3    0    0 -0.13077419933E+00 -0.12785712462E-01 -0.82900566194E-03  0.13280127610E+00  0.19238659780E-01 0.  0.
         14    1    1    2    0    0  0.11500481154E-01  0.43486561176E-02 -0.19219819958E-01  0.22816076701E-01  0.00000000000E+00 0.  1.
     999901    1    3    3    0    0  0.11927371817E+00  0.84370563442E-02  0.20048825620E-01  0.88831264720E+00  0.88000000000E+00 0.  1.
        -11    1    4    4    0    0 -0.21069070405E-01  0.45468111617E-02  0.23563839963E-02  0.21688542736E-01  0.51100000000E-03 0. -1.
         11    1    4    4    0    0 -0.10970512892E+00 -0.17332523624E-01 -0.31853896582E-02  0.11111273336E+00  0.51100000000E-03 0.  1.
</event>
<event>
 8    1  0.1086486E+005  0.1043930E+01  0.7957747E-01            NaN
         13   -1    0    0    0    0  0.00000000000E+00  0.00000000000E+00  0.74505805969E-08  0.10566000000E+00  0.10566000000E+00 0. -1.
     999900   -1    0    0    0    0 -0.00000000000E+00 -0.00000000000E+00 -0.74505805969E-08  0.93827000000E+00  0.93827000000E+00 0.  1.
     999902    2    1    2    0    0  0.90547674919E-02 -0.18747899963E-01  0.12245385939E-01  0.10197758690E+01  0.10194897748E+01 0.  0.
     999903    2    3    3    0    0 -0.46678008190E-01 -0.11493898174E+00 -0.38259714136E-01  0.13134487470E+00  0.19946538876E-01 0.  0.
         14    1    1    2    0    0 -0.90547674919E-02  0.18747899963E-01 -0.12245385939E-01  0.24154130996E-01  0.00000000000E+00 0.  1.
     999901    1    3    3    0    0  0.55732775682E-01  0.96191081777E-01  0.50505100075E-01  0.88843099430E+00  0.88000000000E+00 0.  1.
        -11    1    4    4    0    0 -0.28361890685E-01 -0.43978933947E-01 -0.14577685132E-01  0.54325992850E-01  0.51100000000E-03 0.  1.
         11    1    4    4    0    0 -0.18316117506E-01 -0.70960047794E-01 -0.23682029004E-01  0.77018881855E-01  0.51100000000E-03 0. -1.
</event>
<event>
 8    1  0.1086486E+005  0.1043930E+01  0.7957747E-01            NaN
         13   -1    0    0    0    0  0.00000000000E+00  0.00000000000E+00  0.74505805969E-08  0.10566000000E+00  0.10566000000E+00 0. -1.
     999900   -1    0    0    0    0 -0.00000000000E+00 -0.00000000000E+00 -0.74505805969E-08  0.93827000000E+00  0.93827000000E+00 0.  1.
     999902    2    1    2    0    0 -0.20463308249E-01 -0.71035134184E-02 -0.11399925714E-01  0.10194521489E+01  0.10191582403E+01 0.  0.
     999903    2    3    3    0    0 -0.17103309990E-01  0.70696732458E-01  0.10401159306E+00  0.12850659137E+00  0.20124148252E-01 0.  0.
         14    1    1    2    0    0  0.20463308249E-01  0.71035134184E-02  0.11399925714E-01  0.24477851084E-01  0.00000000000E+00 0. -1.
     999901    1    3    3    0    0 -0.33599982591E-02 -0.77800245876E-01 -0.11541151877E+00  0.89094555755E+00  0.88000000000E+00 0.  1.
        -11    1    4    4    0    0 -0.52076526287E-03  0.36787144451E-01  0.61377092134E-01  0.71560979263E-01  0.51100000000E-03 0. -1.
         11    1    4    4    0    0 -0.16582544727E-01  0.33909588006E-01  0.42634500922E-01  0.56945612107E-01  0.51100000000E-03 0.  1.
</event>
<event>
 8    1  0.1086486E+005  0.1043930E+01  0.7957747E-01            NaN
         13   -1    0    0    0    0  0.00000000000E+00  0.00000000000E+00  0.74505805969E-08  0.10566000000E+00  0.10566000000E+00 0. -1.
     999900   -1    0    0    0    0 -0.00000000000E+00 -0.00000000000E+00 -0.74505805969E-08  0.93827000000E+00  0.93827000000E+00 0.  1.
     999902    2    1    2    0    0  0.81104246703E-02 -0.43115207851E-02 -0.22032059036E-01  0.10200599387E+01  0.10197806131E+01 0.  0.
     999903    2    3    3    0    0  0.11156973267E+00 -0.27047798416E-01 -0.63431706304E-01  0.13274111354E+00  0.20426287273E-01 0.  0.
         14    1    1    2    0    0 -0.81104246703E-02  0.43115207851E-02  0.22032059036E-01  0.23870061273E-01  0.00000000000E+00 0. -1.
     999901    1    3    3    0    0 -0.10345930800E+00  0.22736277630E-01  0.41399647267E-01  0.88731882518E+00  0.88000000000E+00 0. -1.
        -11    1    4    4    0    0  0.54346849528E-01 -0.17051863718E-01 -0.42202841962E-01  0.70892080662E-01  0.51100000000E-03 0.  1.
         11    1    4    4    0    0  0.57222883146E-01 -0.99959346976E-02 -0.21228864342E-01  0.61849032880E-01  0.51100000000E-03 0. -1.
</event>
<event>
 8    1  0.1086486E+005  0.1043930E+01  0.7957747E-01            NaN
         13   -1    0    0    0    0  0.00000000000E+00  0.00000000000E+00  0.74505805969E-08  0.10566000000E+00  0.10566000000E+00 0. -1.
     999900   -1    0    0    0    0 -0.00000000000E+00 -0.00000000000E+00 -0.74505805969E-08  0.93827000000E+00  0.93827000000E+00 0. -1.
     999902    2    1    2    0    0 -0.14721340552E-02 -0.23742776528E-01 -0.45602493438E-02  0.10197084705E+01  0.10194207583E+01 0.  0.
     999903    2    3    3    0    0  0.62942767965E-01 -0.63071280739E-01 -0.95166882892E-01  0.13184273018E+00  0.19646664034E-01 0.  0.
         14    1    1    2    0    0  0.14721340552E-02  0.23742776528E-01  0.45602493438E-02  0.24221529473E-01  0.00000000000E+00 0.  1.
     999901    1    3    3    0    0 -0.64414902020E-01  0.39328504211E-01  0.90606633548E-01  0.88786574035E+00  0.88000000000E+00 0.  1.
        -11    1    4    4    0    0  0.36252969251E-01 -0.31829911870E-01 -0.37871266068E-01  0.61334451850E-01  0.51100000000E-03 0.  1.
         11    1    4    4    0    0  0.26689798714E-01 -0.31241368870E-01 -0.57295616824E-01  0.70508278326E-01  0.51100000000E-03 0. -1.
</event>
<event>
 8    1  0.1086486E+005  0.1043930E+01  0.7957747E-01            NaN
         13   -1    0    0    0    0  0.00000000000E+00  0.00000000000E+00  0.74505805969E-08  0.10566000000E+00  0.10566000000E+00 0. -1.
     999900   -1    0    0    0    0 -0.00000000000E+00 -0.00000000000E+00 -0.74505805969E-08  0.93827000000E+00  0.93827000000E+00 0. -1.
     999902    2    1    2    0    0 -0.19718945064E-02 -0.23327908704E-01 -0.11634858705E-02  0.10204900044E+01  0.10202207682E+01 0.  0.
     999903    2    3    3    0    0 -0.86369485445E-01 -0.77427094742E-01 -0.61518776546E-01  0.13274429964E+00  0.19540885396E-01 0.  0.
         14    1    1    2    0    0  0.19718945064E-02  0.23327908704E-01  0.11634858705E-02  0.23439995559E-01  0.00000000000E+00 0. -1.
     999901    1    3    3    0    0  0.84397590938E-01  0.54099186038E-01  0.60355290675E-01  0.88774570480E+00  0.88000000000E+00 0.  1.
        -11    1    4    4    0    0 -0.40204719416E-01 -0.24850836385E-01 -0.19534122590E-01  0.51145152250E-01  0.51100000000E-03 0. -1.
         11    1    4    4    0    0 -0.46164766029E-01 -0.52576258358E-01 -0.41984653956E-01  0.81599147387E-01  0.51100000000E-03 0.  1.
</event>
<event>
 8    1  0.1086486E+005  0.1043930E+01  0.7957747E-01            NaN
         13   -1    0    0    0    0  0.00000000000E+00  0.00000000000E+00  0.74505805969E-08  0.10566000000E+00  0.10566000000E+00 0.  1.
     999900   -1    0    0    0    0 -0.00000000000E+00 -0.00000000000E+00 -0.74505805969E-08  0.93827000000E+00  0.93827000000E+00 0. -1.
     999902    2    1    2    0    0 -0.15103580570E-01 -0.13992294080E-01  0.15590340760E-01  0.10181044087E+01  0.10177768055E+01 0.  0.
     999903    2    3    3    0    0 -0.10875513203E+00  0.85958148187E-02  0.70144640676E-01  0.13116754096E+00  0.19572593408E-01 0.  0.
         14    1    1    2    0    0  0.15103580570E-01  0.13992294080E-01 -0.15590340760E-01  0.25825591274E-01  0.00000000000E+00 0. -1.
     999901    1    3    3    0    0  0.93651551457E-01 -0.22588108898E-01 -0.54554299916E-01  0.88693686776E+00  0.88000000000E+00 0.  1.
        -11    1    4    4    0    0 -0.79545221311E-01  0.11156816522E-01  0.59527100517E-01  0.99978265664E-01  0.51100000000E-03 0. -1.
         11    1    4    4    0    0 -0.29209910716E-01 -0.25610017034E-02  0.10617540159E-01  0.31189275301E-01  0.51100000000E-03 0.  1.
</event>
<event>
 8    1  0.1086486E+005  0.1043930E+01  0.7957747E-01            NaN
         13   -1    0    0    0    0  0.00000000000E+00  0.00000000000E+00  0.74505805969E-08  0.10566000000E+00  0.10566000000E+00 0.  1.
     999900   -1    0    0    0    0 -0.00000000000E+00 -0.00000000000E+00 -0.74505805969E-08  0.93827000000E+00  0.93827000000E+00 0.  1.
     999902    2    1    2    0    0  0.13896553672E-01 -0.17355095817E-01  0.74040995077E-02  0.10204963864E+01  0.10202272984E+01 0.  0.
     999903    2    3    3    0    0 -0.55724275264E-01 -0.88937944933E-01  0.77189383626E-01  0.13210393376E+00  0.21865394286E-01 0.  0.
         14    1    1    2    0    0 -0.13896553672E-01  0.17355095817E-01 -0.74040995077E-02  0.23433613556E-01  0.00000000000E+00 0. -1.
     999901    1    3    3    0    0  0.69620828936E-01  0.71582849116E-01 -0.69785284118E-01  0.88839245269E+00  0.88000000000E+00 0.  1.
        -11    1    4    4    0    0 -0.15758099417E-01 -0.25129233761E-01  0.34687107678E-01  0.45642662573E-01  0.51100000000E-03 0. -1.
         11    1    4    4    0    0 -0.39966175847E-01 -0.63808711172E-01  0.42502275947E-01  0.86461271185E-01  0.51100000000E-03 0.  1.
</event>
<event>
 8    1  0.1086486E+005  0.1043930E+01  0.7957747E-01            NaN
         13   -1    0    0    0    0  0.00000000000E+00  0.00000000000E+00  0.74505805969E-08  0.10566000000E+00  0.10566000000E+00 0.  1.
     999900   -1    0    0    0    0 -0.00000000000E+00 -0.00000000000E+00 -0.74505805969E-08  0.93827000000E+00  0.93827000000E+00 0.  1.
     999902    2    1    2    0    0  0.13107418335E-01  0.11921298876E-01  0.16942084175E-01  0.10194155961E+01  0.10191207983E+01 0.  0.
     999903    2    3    3    0    0  0.24239709753E-01 -0.12407507097E+00 -0.10134849023E-01  0.12848793302E+00  0.20597257147E-01 0.  0.
         14    1    1    2    0    0 -0.13107418335E-01 -0.11921298876E-01 -0.16942084175E-01  0.24514403899E-01  0.00000000000E+00 0. -1.
     999901    1    3    3    0    0 -0.11132291417E-01  0.13599636985E+00  0.27076933198E-01  0.89092766308E+00  0.88000000000E+00 0. -1.
        -11    1    4    4    0    0 -0.28690526664E-02 -0.31003324494E-01 -0.30378095873E-02  0.31287809143E-01  0.51100000000E-03 0.  1.
         11    1    4    4    0    0  0.27108762419E-01 -0.93071746481E-01 -0.70970394355E-02  0.97200123882E-01  0.51100000000E-03 0. -1.
</event>
<event>
 8    1  0.1086486E+005  0.1043930E+01  0.7957747E-01            NaN
         13   -1    0    0    0    0  0.00000000000E+00  0.00000000000E+00  0.74505805969E-08  0.10566000000E+00  0.10566000000E+00 0. -1.
     999900   -1    0    0    0    0 -0.00000000000E+00 -0.00000000000E+00 -0.74505805969E-08  0.93827000000E+00  0.93827000000E+00 0.  1.
     999902    2    1    2    0    0  0.67812177432E-02 -0.21088364541E-01  0.14575927090E-01  0.10174128040E+01  0.10170671817E+01 0.  0.
     999903    2    3    3    0    0  0.11195308956E+00  0.47546245883E-01 -0.31382619680E-01  0.12730942776E+00  0.20704632832E-01 0.  0.
         14    1    1    2    0    0 -0.67812177432E-02  0.21088364541E-01 -0.14575927090E-01  0.26517195999E-01  0.00000000000E+00 0.  1.
     999901    1    3    3    0    0 -0.10517187181E+00 -0.68634610424E-01  0.45958546770E-01  0.89010337624E+00  0.88000000000E+00 0. -1.
        -11    1    4    4    0    0  0.73369081775E-01  0.23702200704E-01 -0.27182123710E-01  0.81755400122E-01  0.51100000000E-03 0. -1.
         11    1    4    4    0    0  0.38584007781E-01  0.23844045179E-01 -0.42004959699E-02  0.45554027641E-01  0.51100000000E-03 0.  1.
</event>
<event>
 8    1  0.1086486E+005  0.1043930E+01  0.7957747E-01            NaN
         13   -1    0    0    0    0  0.00000000000E+00  0.00000000000E+00  0.74505805969E-08  0.10566000000E+00  0.10566000000E+00 0.  1.
     999900   -1    0    0    0    0 -0.00000000000E+00 -0.00000000000E+00 -0.74505805969E-08  0.93827000000E+00  0.93827000000E+00 0. -1.
     999902    2    1    2    0    0 -0.18609380599E-01  0.96054976331E-02 -0.54753323914E-02  0.10222838942E+01  0.10220546984E+01 0.  0.
     999903    2    3    3    0    0  0.78352184765E-02  0.84584268436E-01  0.99673641631E-01  0.13246512635E+00  0.19906927151E-01 0.  0.
         14    1    1    2    0    0  0.18609380599E-01 -0.96054976331E-02  0.54753323914E-02  0.21646105790E-01  0.00000000000E+00 0. -1.
     999901    1    3    3    0    0 -0.26444599076E-01 -0.74978770803E-01 -0.10514897402E+00  0.88981876786E+00  0.88000000000E+00 0. -1.
        -11    1    4    4    0    0 -0.19231390360E-02  0.16571070205E-01  0.98703002112E-02  0.19390275365E-01  0.51100000000E-03 0. -1.
         11    1    4    4    0    0  0.97583575125E-02  0.68013198232E-01  0.89803341419E-01  0.11307485099E+00  0.51100000000E-03 0.  1.
</event>
<event>
 8    1  0.1086486E+005  0.1043930E+01  0.7957747E-01            NaN
         13   -1    0    0    0    0  0.00000000000E+00  0.00000000000E+00  0.74505805969E-08  0.10566000000E+00  0.10566000000E+00 0.  1.
     999900   -1    0    0    0    0 -0.00000000000E+00 -0.00000000000E+00 -0.74505805969E-08  0.93827000000E+00  0.93827000000E+00 0.  1.
     999902    2    1    2    0    0  0.17471004534E-02  0.11680549658E-01  0.19603538512E-01  0.10210436215E+01  0.10207870937E+01 0.  0.
     999903    2    3    3    0    0  0.12427000753E+00  0.24896847985E-01  0.32229873433E-01  0.13236710122E+00  0.20479182928E-01 0.  0.
         14    1    1    2    0    0 -0.17471004534E-02 -0.11680549658E-01 -0.19603538512E-01  0.22886378536E-01  0.00000000000E+00 0. -1.
     999901    1    3    3    0    0 -0.12252290707E+00 -0.13216298327E-01 -0.12626334921E-01  0.88867652024E+00  0.88000000000E+00 0. -1.
        -11    1    4    4    0    0  0.29276582548E-01  0.13260806651E-02  0.15211587938E-01  0.33023178287E-01  0.51100000000E-03 0.  1.
         11    1    4    4    0    0  0.94993424980E-01  0.23570767320E-01  0.17018285495E-01  0.99343922933E-01  0.51100000000E-03 0. -1.
</event>
<event>
 8    1  0.1086486E+005  0.1043930E+01  0.7957747E-01            NaN
         13   -1    0    0    0    0  0.00000000000E+00  0.00000000000E+00  0.74505805969E-08  0.10566000000E+00  0.10566000000E+00 0. -1.
     999900   -1    0    0    0    0 -0.00000000000E+00 -0.00000000000E+00 -0.74505805969E-08  0.93827000000E+00  0.93827000000E+00 0. -1.
     999902    2    1    2    0    0 -0.88979842364E-02  0.21281876120E-01 -0.39536574108E-02  0.10205265007E+01  0.10202581118E+01 0.  0.
     999903    2    3    3    0    0 -0.10565374567E+00 -0.31330666473E-01  0.67629304378E-01  0.13077716661E+00  0.19611727674E-01 0.  0.
         14    1    1    2    0    0  0.88979842364E-02 -0.21281876120E-01  0.39536574108E-02  0.23403499345E-01  0.00000000000E+00 0. -1.
     999901    1    3    3    0    0  0.96755761429E-01  0.52612542592E-01 -0.71582961789E-01  0.88974933404E+00  0.88000000000E+00 0. -1.
        -11    1    4    4    0    0 -0.54759386535E-01 -0.63701402539E-02  0.36292050323E-01  0.66004114555E-01  0.51100000000E-03 0.  1.
         11    1    4    4    0    0 -0.50894359130E-01 -0.24960526219E-01  0.31337254055E-01  0.64773052059E-01  0.51100000000E-03 0. -1.
</event>
<event>
 8    1  0.1086486E+005  0.1043930E+01  0.7957747E-01            NaN
         13   -1    0    0    0    0  0.00000000000E+00  0.00000000000E+00  0.74505805969E-08  0.10566000000E+00  0.10566000000E+00 0. -1.
     999900   -1    0    0    0    0 -0.00000000000E+00 -0.00000000000E+00 -0.74505805969E-08  0.93827000000E+00  0.93827000000E+00 0. -1.
     999902    2    1    2    0    0 -0.20545906499E-01 -0.38722819812E-02  0.10751272215E-01  0.10204200299E+01  0.10201491649E+01 0.  0.
     999903    2    3    3    0    0 -0.72070505156E-01  0.10127607542E+00  0.40488344301E-01  0.13216598130E+00  0.19430373712E-01 0.  0.
         14    1    1    2    0    0  0.20545906499E-01  0.38722819812E-02 -0.10751272215E-01  0.23509970137E-01  0.00000000000E+00 0.  1.
     999901    1    3    3    0    0  0.51524598657E-01 -0.10514835740E+00 -0.29737072086E-01  0.88825404856E+00  0.88000000000E+00 0. -1.
        -11    1    4    4    0    0 -0.63835720719E-01  0.77122721013E-01  0.35012471476E-01  0.10606152750E+00  0.51100000000E-03 0.  1.
         11    1    4    4    0    0 -0.82347844368E-02  0.24153354410E-01  0.54758728255E-02  0.26104453799E-01  0.51100000000E-03 0. -1.
</event>
<event>
 8    1  0.1086486E+005  0.1043930E+01  0.7957747E-01            NaN
         13   -1    0    0    0    0  0.00000000000E+00  0.00000000000E+00  0.74505805969E-08  0.10566000000E+00  0.10566000000E+00 0.  1.
     999900   -1    0    0    0    0 -0.00000000000E+00 -0.00000000000E+00 -0.74505805969E-08  0.93827000000E+00  0.93827000000E+00 0. -1.
     999902    2    1    2    0    0  0.18778894049E-01  0.75259324276E-02  0.12153584284E-01  0.10203292345E+01  0.10200562488E+01 0.  0.
     999903    2    3    3    0    0  0.11282236253E+00  0.62858728798E-01 -0.23704892743E-01  0.13286558867E+00  0.20278990114E-01 0.  0.
         14    1    1    2    0    0 -0.18778894049E-01 -0.75259324276E-02 -0.12153584284E-01  0.23600765487E-01  0.00000000000E+00 0. -1.
     999901    1    3    3    0    0 -0.94043468480E-01 -0.55332796370E-01  0.35858477027E-01  0.88746364584E+00  0.88000000000E+00 0.  1.
        -11    1    4    4    0    0  0.56844864688E-01  0.40157500091E-01 -0.19654077786E-01  0.72322246575E-01  0.51100000000E-03 0. -1.
         11    1    4    4    0    0  0.55977497841E-01  0.22701228707E-01 -0.40508149573E-02  0.60543342096E-01  0.51100000000E-03 0.  1.
</event>
<event>
 8    1  0.1086486E+005  0.1043930E+01  0.7957747E-01            NaN
         13   -1    0    0    0    0  0.00000000000E+00  0.00000000000E+00  0.74505805969E-08  0.10566000000E+00  0.10566000000E+00 0.  1.
     999900   -1    0    0    0    0 -0.00000000000E+00 -0.00000000000E+00 -0.74505805969E-08  0.93827000000E+00  0.93827000000E+00 0. -1.
     999902    2    1    2    0    0 -0.18652634101E-01  0.97834002512E-02 -0.10498014324E-01  0.10203961099E+01  0.10201246870E+01 0.  0.
     999903    2    3    3    0    0 -0.11942992523E+00 -0.20100936278E-01  0.49015370937E-01  0.13214446817E+00  0.19801494906E-01 0.  0.
         14    1    1    2    0    0  0.18652634101E-01 -0.97834002512E-02  0.10498014324E-01  0.23533890119E-01  0.00000000000E+00 0. -1.
     999901    1    3    3    0    0  0.10077729113E+00  0.29884336530E-01 -0.59513385261E-01  0.88825164171E+00  0.88000000000E+00 0.  1.
        -11    1    4    4    0    0 -0.55876203736E-01 -0.11404299253E-01  0.33518844523E-01  0.66151207431E-01  0.51100000000E-03 0. -1.
         11    1    4    4    0    0 -0.63553721492E-01 -0.86966370251E-02  0.15496526414E-01  0.65993260739E-01  0.51100000000E-03 0.  1.
</event>
<event>
 8    1  0.1745279E+005  0.1043930E+01  0.7957747E-01            NaN
         13   -1    0    0    0    0  0.00000000000E+00  0.00000000000E+00  0.74505805969E-08  0.10566000000E+00  0.10566000000E+00 0. -1.
     999900   -1    0    0    0    0 -0.00000000000E+00 -0.00000000000E+00 -0.74505805969E-08  0.93827000000E+00  0.93827000000E+00 0.  1.
     999902    2    1    2    0    0 -0.54383147600E-02  0.19747538442E-02 -0.30200936958E-01  0.10131798534E+01  0.10127131104E+01 0.  0.
     999903    2    3    3    0    0  0.17735792445E-01 -0.19996062169E-01 -0.12240857670E+00  0.12778615298E+00  0.25120517651E-01 0.  0.
         14    1    1    2    0    0  0.54383147600E-02 -0.19747538442E-02  0.30200936958E-01  0.30750146557E-01  0.00000000000E+00 0. -1.
     999901    1    3    3    0    0 -0.23174107205E-01  0.21970816013E-01  0.92207639740E-01  0.88539370047E+00  0.88000000000E+00 0. -1.
        -11    1    4    4    0    0 -0.11266520389E-02 -0.61385002414E-02 -0.71257458449E-01  0.71532069980E-01  0.51100000000E-03 0.  1.
         11    1    4    4    0    0  0.18862444484E-01 -0.13857561928E-01 -0.51151118249E-01  0.56254082996E-01  0.51100000000E-03 0. -1.
</event>
<event>
 8    1  0.1086486E+005  0.1043930E+01  0.7957747E-01            NaN
         13   -1    0    0    0    0  0.00000000000E+00  0.00000000000E+00  0.74505805969E-08  0.10566000000E+00  0.10566000000E+00 0. -1.
     999900   -1    0    0    0    0 -0.00000000000E+00 -0.00000000000E+00 -0.74505805969E-08  0.93827000000E+00  0.93827000000E+00 0.  1.
     999902    2    1    2    0    0 -0.13053357914E-01 -0.14416740305E-01 -0.13824240522E-01  0.10200691077E+01  0.10197899992E+01 0.  0.
     999903    2    3    3    0    0  0.64877142342E-01  0.10354690990E+00  0.32178169851E-01  0.12759792758E+00  0.17742332448E-01 0.  0.
         14    1    1    2    0    0  0.13053357914E-01  0.14416740305E-01  0.13824240522E-01  0.23860892269E-01  0.00000000000E+00 0. -1.
     999901    1    3    3    0    0 -0.77930500256E-01 -0.11796365020E+00 -0.46002410372E-01  0.89247118015E+00  0.88000000000E+00 0.  1.
        -11    1    4    4    0    0  0.30172952523E-02  0.15483752267E-01  0.55732078733E-02  0.16738351827E-01  0.51100000000E-03 0.  1.
         11    1    4    4    0    0  0.61859847090E-01  0.88063157628E-01  0.26604961977E-01  0.11085957575E+00  0.51100000000E-03 0. -1.
</event>
<event>
 8    1  0.1086486E+005  0.1043930E+01  0.7957747E-01            NaN
         13   -1    0    0    0    0  0.00000000000E+00  0.00000000000E+00  0.74505805969E-08  0.10566000000E+00  0.10566000000E+00 0. -1.
     999900   -1    0    0    0    0 -0.00000000000E+00 -0.00000000000E+00 -0.74505805969E-08  0.93827000000E+00  0.93827000000E+00 0.  1.
     999902    2    1    2    0    0  0.15234954256E-01  0.99437747659E-02  0.15272349823E-01  0.10201765338E+01  0.10198999622E+01 0.  0.
     999903    2    3    3    0    0 -0.34904584846E-01  0.19343497999E-01 -0.12028266826E+00  0.12833714741E+00  0.20248510150E-01 0.  0.
         14    1    1    2    0    0 -0.15234954256E-01 -0.99437747659E-02 -0.15272349823E-01  0.23753466208E-01  0.00000000000E+00 0.  1.
     999901    1    3    3    0    0  0.50139539102E-01 -0.93997232328E-02  0.13555501808E+00  0.89183938638E+00  0.88000000000E+00 0. -1.
        -11    1    4    4    0    0 -0.32002087554E-01  0.92939367877E-02 -0.10150435334E+00  0.10683588226E+00  0.51100000000E-03 0.  1.
         11    1    4    4    0    0 -0.29024972920E-02  0.10049561211E-01 -0.18778314914E-01  0.21501265151E-01  0.51100000000E-03 0. -1.
</event>
<event>
 8    1  0.1086486E+005  0.1043930E+01  0.7957747E-01            NaN
         13   -1    0    0    0    0  0.00000000000E+00  0.00000000000E+00  0.74505805969E-08  0.10566000000E+00  0.10566000000E+00 0. -1.
     999900   -1    0    0    0    0 -0.00000000000E+00 -0.00000000000E+00 -0.74505805969E-08  0.93827000000E+00  0.93827000000E+00 0.  1.
     999902    2    1    2    0    0 -0.11666424462E-01  0.14391554588E-01  0.14842307103E-01  0.10201915000E+01  0.10199152809E+01 0.  0.
     999903    2    3    3    0    0  0.11659391481E+00  0.27089487548E-01  0.47222192150E-01  0.13021374234E+00  0.19942466146E-01 0.  0.
         14    1    1    2    0    0  0.11666424462E-01 -0.14391554588E-01 -0.14842307103E-01  0.23738500023E-01  0.00000000000E+00 0. -1.
     999901    1    3    3    0    0 -0.12826033927E+00 -0.12697932961E-01 -0.32379885047E-01  0.88997775764E+00  0.88000000000E+00 0.  1.
        -11    1    4    4    0    0  0.62922764054E-01  0.15223641142E-01  0.14854470507E-01  0.66422510498E-01  0.51100000000E-03 0.  1.
         11    1    4    4    0    0  0.53671150759E-01  0.11865846407E-01  0.32367721642E-01  0.63791231843E-01  0.51100000000E-03 0. -1.
</event>
<event>
 8    1  0.1086486E+005  0.1043930E+01  0.7957747E-01            NaN
         13   -1    0    0    0    0  0.00000000000E+00  0.00000000000E+00  0.74505805969E-08  0.10566000000E+00  0.10566000000E+00 0.  1.
     999900   -1    0    0    0    0 -0.00000000000E+00 -0.00000000000E+00 -0.74505805969E-08  0.93827000000E+00  0.93827000000E+00 0. -1.
     999902    2    1    2    0    0 -0.17614225762E-02  0.19198895887E-01  0.13017377318E-01  0.10206673190E+01  0.10204021873E+01 0.  0.
     999903    2    3    3    0    0 -0.20796171771E-01 -0.34178293581E-02 -0.12592858740E+00  0.12927525096E+00  0.20246458184E-01 0.  0.
         14    1    1    2    0    0  0.17614225762E-02 -0.19198895887E-01 -0.13017377318E-01  0.23262680951E-01  0.00000000000E+00 0.  1.
     999901    1    3    3    0    0  0.19034749195E-01  0.22616725245E-01  0.13894596472E+00  0.89139206809E+00  0.88000000000E+00 0.  1.
        -11    1    4    4    0    0 -0.58376318076E-02  0.47171917436E-02 -0.78874380403E-01  0.79232309369E-01  0.51100000000E-03 0. -1.
         11    1    4    4    0    0 -0.14958539964E-01 -0.81350211017E-02 -0.47054206997E-01  0.50042941593E-01  0.51100000000E-03 0.  1.
</event>
<event>
 8    1  0.1086486E+005  0.1043930E+01  0.7957747E-01            NaN
         13   -1    0    0    0    0  0.00000000000E+00  0.00000000000E+00  0.74505805969E-08  0.10566000000E+00  0.10566000000E+00 0. -1.
     999900   -1    0    0    0    0 -0.00000000000E+00 -0.00000000000E+00 -0.74505805969E-08  0.93827000000E+00  0.93827000000E+00 0.  1.
     999902    2    1    2    0    0  0.17611378378E-01 -0.16304081387E-01  0.71636059277E-04  0.10199302323E+01  0.10196478264E+01 0.  0.
     999903    2    3    3    0    0 -0.68030007548E-02 -0.70113431201E-01 -0.11009547220E+00  0.13109487083E+00  0.10133020575E-01 0.  0.
         14    1    1    2    0    0 -0.17611378378E-01  0.16304081387E-01 -0.71636059277E-04  0.23999767707E-01  0.00000000000E+00 0.  1.
     999901    1    3    3    0    0  0.24414379133E-01  0.53809349814E-01  0.11016710826E+00  0.88883536146E+00  0.88000000000E+00 0. -1.
        -11    1    4    4    0    0 -0.65210069711E-02 -0.24557349626E-01 -0.34863682895E-01  0.43143069647E-01  0.51100000000E-03 0.  1.
         11    1    4    4    0    0 -0.28199378370E-03 -0.45556081575E-01 -0.75231789306E-01  0.87951801188E-01  0.51100000000E-03 0. -1.
</event>
<event>
 8    1  0.1086486E+005  0.1043930E+01  0.7957747E-01            NaN
         13   -1    0    0    0    0  0.00000000000E+00  0.00000000000E+00  0.74505805969E-08  0.10566000000E+00  0.10566000000E+00 0.  1.
     999900   -1    0    0    0    0 -0.00000000000E+00 -0.00000000000E+00 -0.74505805969E-08  0.93827000000E+00  0.93827000000E+00 0.  1.
     999902    2    1    2    0    0 -0.75330036990E-02  0.21953940996E-01  0.40118099772E-02  0.10203754614E+01  0.10201035565E+01 0.  0.
     999903    2    3    3    0    0  0.82890961559E-01 -0.11190844923E-01 -0.96580670701E-01  0.12942433057E+00  0.20656351890E-01 0.  0.
         14    1    1    2    0    0  0.75330036990E-02 -0.21953940996E-01 -0.40118099772E-02  0.23554538613E-01  0.00000000000E+00 0. -1.
     999901    1    3    3    0    0 -0.90423965258E-01  0.33144785919E-01  0.10059248068E+00  0.89095113081E+00  0.88000000000E+00 0.  1.
        -11    1    4    4    0    0  0.18820214530E-01 -0.75833143586E-02 -0.13218907835E-01  0.24222051461E-01  0.51100000000E-03 0.  1.
         11    1    4    4    0    0  0.64070747029E-01 -0.36075305647E-02 -0.83361762866E-01  0.10520227911E+00  0.51100000000E-03 0. -1.
</event>
<event>
 7    1  0.1086486E+005  0.1043930E+01  0.7957747E-01            NaN
         13   -1    0    0    0    0  0.00000000000E+00  0.00000000000E+00  0.74505805969E-08  0.10566000000E+00  0.10566000000E+00 0.  1.
     999900   -1    0    0    0    0 -0.00000000000E+00 -0.00000000000E+00 -0.74505805969E-08  0.93827000000E+00  0.93827000000E+00 0. -1.
     999902    2    1    2    0    0  0.11385994329E-01 -0.50275136054E-02 -0.21291007750E-01  0.10192678069E+01  0.10189694001E+01 0.  0.
         14    1    1    2    0    0 -0.11385994329E-01  0.50275136054E-02  0.21291007750E-01  0.24662193149E-01  0.00000000000E+00 0.  1.
     999901    1    3    3    0    0  0.48368929163E-02  0.11823340381E+00 -0.29014427023E-01  0.88839426511E+00  0.88000000000E+00 0. -1.
        -11    1    3    3    0    0  0.95409378942E-02 -0.79047036459E-01 -0.15072549147E-01  0.81036450611E-01  0.51100000000E-03 0.  1.
         11    1    3    3    0    0 -0.29918364817E-02 -0.44213880957E-01  0.22795968420E-01  0.49837091127E-01  0.51100000000E-03 0. -1.
</event>
<event>
 8    1  0.1086486E+005  0.1043930E+01  0.7957747E-01            NaN
         13   -1    0    0    0    0  0.00000000000E+00  0.00000000000E+00  0.74505805969E-08  0.10566000000E+00  0.10566000000E+00 0. -1.
     999900   -1    0    0    0    0 -0.00000000000E+00 -0.00000000000E+00 -0.74505805969E-08  0.93827000000E+00  0.93827000000E+00 0. -1.
     999902    2    1    2    0    0 -0.20299733573E-01 -0.11153221900E-01 -0.57277797288E-02  0.10200703897E+01  0.10197913115E+01 0.  0.
     999903    2    3    3    0    0  0.60143199675E-01  0.11185728087E+00 -0.81851906230E-02  0.12787719979E+00  0.12503004856E-01 0.  0.
         14    1    1    2    0    0  0.20299733573E-01  0.11153221900E-01  0.57277797288E-02  0.23859610275E-01  0.00000000000E+00 0.  1.
     999901    1    3    3    0    0 -0.80442933247E-01 -0.12301050277E+00  0.24574108943E-02  0.89219318994E+00  0.88000000000E+00 0.  1.
        -11    1    4    4    0    0  0.30117915063E-01  0.68748715353E-01 -0.59245050968E-02  0.75291669872E-01  0.51100000000E-03 0. -1.
         11    1    4    4    0    0  0.30025284612E-01  0.43108565513E-01 -0.22606855262E-02  0.52585529917E-01  0.51100000000E-03 0.  1.
</event>
<event>
 8    1  0.1086486E+005  0.1043930E+01  0.7957747E-01            NaN
         13   -1    0    0    0    0  0.00000000000E+00  0.00000000000E+00  0.74505805969E-08  0.10566000000E+00  0.10566000000E+00 0.  1.
     999900   -1    0    0    0    0 -0.00000000000E+00 -0.00000000000E+00 -0.74505805969E-08  0.93827000000E+00  0.93827000000E+00 0.  1.
     999902    2    1    2    0    0 -0.19302559092E-01  0.12393344001E-01 -0.42902082494E-02  0.10205935553E+01  0.10203267200E+01 0.  0.
     999903    2    3    3    0    0 -0.49199310866E-01  0.10773205764E+00  0.57359679524E-01  0.13279628413E+00  0.17831203292E-01 0.  0.
         14    1    1    2    0    0  0.19302559092E-01 -0.12393344001E-01  0.42902082494E-02  0.23336444670E-01  0.00000000000E+00 0.  1.
     999901    1    3    3    0    0  0.29896751775E-01 -0.95338713640E-01 -0.61649887773E-01  0.88779727120E+00  0.88000000000E+00 0.  1.
        -11    1    4    4    0    0 -0.79219158837E-02  0.34702899204E-01  0.12981674196E-01  0.37892386443E-01  0.51100000000E-03 0.  1.
         11    1    4    4    0    0 -0.41277394983E-01  0.73029158436E-01  0.44378005328E-01  0.94903897688E-01  0.51100000000E-03 0. -1.
</event>
<event>
 8    1  0.1098100E+005  0.1043930E+01  0.7957747E-01            NaN
         13   -1    0    0    0    0  0.00000000000E+00  0.00000000000E+00  0.74505805969E-08  0.10566000000E+00  0.10566000000E+00 0. -1.
     999900   -1    0    0    0    0 -0.00000000000E+00 -0.00000000000E+00 -0.74505805969E-08  0.93827000000E+00  0.93827000000E+00 0.  1.
     999902    2    1    2    0    0 -0.71145544576E-02 -0.21741712158E-01 -0.70741108514E-02  0.10199850219E+01  0.10197039192E+01 0.  0.
     999903    2    3    3    0    0 -0.93040125332E-02 -0.13556471645E-01  0.12731237611E+00  0.12974262806E+00  0.18824607622E-01 0.  0.
         14    1    1    2    0    0  0.71145544576E-02  0.21741712158E-01  0.70741108514E-02  0.23944978117E-01  0.00000000000E+00 0. -1.
     999901    1    3    3    0    0  0.21894580756E-02 -0.81852405123E-02 -0.13438648696E+00  0.89024239383E+00  0.88000000000E+00 0.  1.
        -11    1    4    4    0    0 -0.59820120618E-03 -0.14941327935E-01  0.59253703741E-01  0.61113530852E-01  0.51100000000E-03 0. -1.
         11    1    4    4    0    0 -0.87058113270E-02  0.13848562900E-02  0.68058672366E-01  0.68629097204E-01  0.51100000000E-03 0.  1.
</event>
<event>
 8    1  0.1086486E+005  0.1043930E+01  0.7957747E-01            NaN
         13   -1    0    0    0    0  0.00000000000E+00  0.00000000000E+00  0.74505805969E-08  0.10566000000E+00  0.10566000000E+00 0. -1.
     999900   -1    0    0    0    0 -0.00000000000E+00 -0.00000000000E+00 -0.74505805969E-08  0.93827000000E+00  0.93827000000E+00 0. -1.
     999902    2    1    2    0    0 -0.89887095143E-02 -0.20012418253E-01 -0.12481109945E-01  0.10186897169E+01  0.10183769771E+01 0.  0.
     999903    2    3    3    0    0  0.10517856221E+00 -0.71286026968E-01 -0.17257646681E-01  0.12982191790E+00  0.20289810473E-01 0.  0.
         14    1    1    2    0    0  0.89887095143E-02  0.20012418253E-01  0.12481109945E-01  0.25240283052E-01  0.00000000000E+00 0. -1.
     999901    1    3    3    0    0 -0.11416727172E+00  0.51273608715E-01  0.47765367357E-02  0.88886779905E+00  0.88000000000E+00 0. -1.
        -11    1    4    4    0    0  0.65283493397E-01 -0.55689620600E-01 -0.12598914120E-01  0.86730975498E-01  0.51100000000E-03 0. -1.
         11    1    4    4    0    0  0.39895068810E-01 -0.15596406368E-01 -0.46587325607E-02  0.43090942401E-01  0.51100000000E-03 0.  1.
</event>
<event>
 8    1  0.1086486E+005  0.1043930E+01  0.7957747E-01            NaN
         13   -1    0    0    0    0  0.00000000000E+00  0.00000000000E+00  0.74505805969E-08  0.10566000000E+00  0.10566000000E+00 0. -1.
     999900   -1    0    0    0    0 -0.00000000000E+00 -0.00000000000E+00 -0.74505805969E-08  0.93827000000E+00  0.93827000000E+00 0.  1.
     999902    2    1    2    0    0  0.18143525662E-01  0.50432043202E-02  0.13586721762E-01  0.10207088794E+01  0.10204447050E+01 0.  0.
     999903    2    3    3    0    0 -0.49883776683E-01  0.17165207014E-01 -0.11513995011E+00  0.12866335766E+00  0.22671920660E-01 0.  0.
         14    1    1    2    0    0 -0.18143525662E-01 -0.50432043202E-02 -0.13586721762E-01  0.23221120591E-01  0.00000000000E+00 0. -1.
     999901    1    3    3    0    0  0.68027302344E-01 -0.12122002694E-01  0.12872667187E+00  0.89204552174E+00  0.88000000000E+00 0. -1.
        -11    1    4    4    0    0 -0.28257734538E-01  0.13193214684E-01 -0.42172020338E-01  0.52452844492E-01  0.51100000000E-03 0. -1.
         11    1    4    4    0    0 -0.21626042145E-01  0.39719923297E-02 -0.72967929772E-01  0.76210513173E-01  0.51100000000E-03 0.  1.
</event>
<event>
 8    1  0.1086486E+005  0.1043930E+01  0.7957747E-01            NaN
         13   -1    0    0    0    0  0.00000000000E+00  0.00000000000E+00  0.74505805969E-08  0.10566000000E+00  0.10566000000E+00 0. -1.
     999900   -1    0    0    0    0 -0.00000000000E+00 -0.00000000000E+00 -0.74505805969E-08  0.93827000000E+00  0.93827000000E+00 0. -1.
     999902    2    1    2    0    0 -0.22665475068E-01  0.43261653444E-02 -0.38205780800E-02  0.10205411932E+01  0.10202731452E+01 0.  0.
     999903    2    3    3    0    0 -0.27220842889E-01 -0.12135447978E+00 -0.36203073253E-01  0.13101041693E+00  0.19626074046E-01 0.  0.
         14    1    1    2    0    0  0.22665475068E-01 -0.43261653444E-02  0.38205780800E-02  0.23388806800E-01  0.00000000000E+00 0. -1.
     999901    1    3    3    0    0  0.45553678207E-02  0.12568064512E+00  0.32382495173E-01  0.88953077627E+00  0.88000000000E+00 0.  1.
        -11    1    4    4    0    0  0.11511605235E-02 -0.32651819943E-02  0.15492770500E-02  0.38272659151E-02  0.51100000000E-03 0. -1.
         11    1    4    4    0    0 -0.28372003413E-01 -0.11808929778E+00 -0.37752350303E-01  0.12718315102E+00  0.51100000000E-03 0.  1.
</event>
<event>
 8    1  0.1086486E+005  0.1043930E+01  0.7957747E-01            NaN
         13   -1    0    0    0    0  0.00000000000E+00  0.00000000000E+00  0.74505805969E-08  0.10566000000E+00  0.10566000000E+00 0. -1.
     999900   -1    0    0    0    0 -0.00000000000E+00 -0.00000000000E+00 -0.74505805969E-08  0.93827000000E+00  0.93827000000E+00 0. -1.
     999902    2    1    2    0    0 -0.23258114038E-01 -0.12614201989E-02  0.57051732310E-02  0.10199491733E+01  0.10196672183E+01 0.  0.
     999903    2    3    3    0    0 -0.29222383110E-01 -0.88386863851E-01 -0.89773265184E-01  0.13048723049E+00  0.17363548103E-01 0.  0.
         14    1    1    2    0    0  0.23258114038E-01  0.12614201989E-02 -0.57051732310E-02  0.23980826740E-01  0.00000000000E+00 0.  1.
     999901    1    3    3    0    0  0.59642690719E-02  0.87125443652E-01  0.95478438415E-01  0.88946194277E+00  0.88000000000E+00 0.  1.
        -11    1    4    4    0    0 -0.12848058066E-01 -0.58649130293E-01 -0.64795496995E-01  0.88337481467E-01  0.51100000000E-03 0. -1.
         11    1    4    4    0    0 -0.16374325045E-01 -0.29737733558E-01 -0.24977768188E-01  0.42149749021E-01  0.51100000000E-03 0.  1.
</event>
<event>
 8    1  0.1086486E+005  0.1043930E+01  0.7957747E-01            NaN
         13   -1    0    0    0    0  0.00000000000E+00  0.00000000000E+00  0.74505805969E-08  0.10566000000E+00  0.10566000000E+00 0.  1.
     999900   -1    0    0    0    0 -0.00000000000E+00 -0.00000000000E+00 -0.74505805969E-08  0.93827000000E+00  0.93827000000E+00 0. -1.
     999902    2    1    2    0    0 -0.21538721889E-01  0.48423979618E-02  0.83926466496E-02  0.10203121704E+01  0.10200387851E+01 0.  0.
     999903    2    3    3    0    0  0.11758548090E+00 -0.21106132350E-01 -0.40541160847E-01  0.12766252603E+00  0.19553022440E-01 0.  0.
         14    1    1    2    0    0  0.21538721889E-01 -0.48423979618E-02 -0.83926466496E-02  0.23617829630E-01  0.00000000000E+00 0. -1.
     999901    1    3    3    0    0 -0.13912420279E+00  0.25948530312E-01  0.48933807497E-01  0.89264964434E+00  0.88000000000E+00 0.  1.
        -11    1    4    4    0    0  0.31456267940E-01 -0.14188712165E-01 -0.14304987682E-01  0.37359204210E-01  0.51100000000E-03 0.  1.
         11    1    4    4    0    0  0.86129212965E-01 -0.69174201852E-02 -0.26236173165E-01  0.90303321818E-01  0.51100000000E-03 0. -1.
</event>
<event>
 8    1  0.1086486E+005  0.1043930E+01  0.7957747E-01            NaN
         13   -1    0    0    0    0  0.00000000000E+00  0.00000000000E+00  0.74505805969E-08  0.10566000000E+00  0.10566000000E+00 0. -1.
     999900   -1    0    0    0    0 -0.00000000000E+00 -0.00000000000E+00 -0.74505805969E-08  0.93827000000E+00  0.93827000000E+00 0. -1.
     999902    2    1    2    0    0  0.14071854678E-02  0.22126593417E-01 -0.95349943677E-02  0.10197953273E+01  0.10195096994E+01 0.  0.
     999903    2    3    3    0    0 -0.44266031225E-01  0.91135387603E-01 -0.83490056918E-01  0.13282429755E+00  0.20163432774E-01 0.  0.
         14    1    1    2    0    0 -0.14071854678E-02 -0.22126593417E-01  0.95349943677E-02  0.24134672668E-01  0.00000000000E+00 0. -1.
     999901    1    3    3    0    0  0.45673216693E-01 -0.69008794187E-01  0.73955062550E-01  0.88697102978E+00  0.88000000000E+00 0.  1.
        -11    1    4    4    0    0 -0.33505670100E-01  0.79651382375E-01 -0.77177626767E-01  0.11586034627E+00  0.51100000000E-03 0.  1.
         11    1    4    4    0    0 -0.10760361125E-01  0.11484005228E-01 -0.63124301502E-02  0.16963951280E-01  0.51100000000E-03 0. -1.
</event>
<event>
 8    1  0.1086486E+005  0.1043930E+01  0.7957747E-01            NaN
         13   -1    0    0    0    0  0.00000000000E+00  0.00000000000E+00  0.74505805969E-08  0.10566000000E+00  0.10566000000E+00 0. -1.
     999900   -1    0    0    0    0 -0.00000000000E+00 -0.00000000000E+00 -0.74505805969E-08  0.93827000000E+00  0.93827000000E+00 0. -1.
     999902    2    1    2    0    0  0.22288573969E-01 -0.21938119158E-02  0.80388704479E-02  0.10201346900E+01  0.10198571316E+01 0.  0.
     999903    2    3    3    0    0 -0.70744956152E-01 -0.81410770771E-01  0.69789856862E-01  0.12954850740E+00  0.16722118010E-01 0.  0.
         14    1    1    2    0    0 -0.22288573969E-01  0.21938119158E-02 -0.80388704479E-02  0.23795310008E-01  0.00000000000E+00 0. -1.
     999901    1    3    3    0    0  0.93033530121E-01  0.79216958856E-01 -0.61750986414E-01  0.89058618259E+00  0.88000000000E+00 0. -1.
        -11    1    4    4    0    0 -0.17651168206E-01 -0.16116988129E-01  0.82510314109E-02  0.25291533874E-01  0.51100000000E-03 0. -1.
         11    1    4    4    0    0 -0.53093787946E-01 -0.65293782643E-01  0.61538825451E-01  0.10425697353E+00  0.51100000000E-03 0.  1.
</event>
<event>
 8    1  0.1086486E+005  0.1043930E+01  0.7957747E-01            NaN
         13   -1    0    0    0    0  0.00000000000E+00  0.00000000000E+00  0.74505805969E-08  0.10566000000E+00  0.10566000000E+00 0.  1.
     999900   -1    0    0    0    0 -0.00000000000E+00 -0.00000000000E+00 -0.74505805969E-08  0.93827000000E+00  0.93827000000E+00 0. -1.
     999902    2    1    2    0    0  0.19910978056E-01 -0.73620532179E-02  0.29742896170E-03  0.10226994715E+01  0.10224790823E+01 0.  0.
     999903    2    3    3    0    0  0.21923026552E-01 -0.10377815339E+00  0.79313496053E-01  0.13391172884E+00  0.19778681754E-01 0.  0.
         14    1    1    2    0    0 -0.19910978056E-01  0.73620532179E-02 -0.29742896170E-03  0.21230528461E-01  0.00000000000E+00 0.  1.
     999901    1    3    3    0    0 -0.20120484952E-02  0.96416100168E-01 -0.79016067091E-01  0.88878774270E+00  0.88000000000E+00 0. -1.
        -11    1    4    4    0    0  0.16542688150E-01 -0.70772009781E-01  0.42591100925E-01  0.84241325361E-01  0.51100000000E-03 0.  1.
         11    1    4    4    0    0  0.53803384020E-02 -0.33006143605E-01  0.36722395127E-01  0.49670403480E-01  0.51100000000E-03 0. -1.
</event>
<event>
 8    1  0.1086486E+005  0.1043930E+01  0.7957747E-01            NaN
         13   -1    0    0    0    0  0.00000000000E+00  0.00000000000E+00  0.74505805969E-08  0.10566000000E+00  0.10566000000E+00 0. -1.
     999900   -1    0    0    0    0 -0.00000000000E+00 -0.00000000000E+00 -0.74505805969E-08  0.93827000000E+00  0.93827000000E+00 0. -1.
     999902    2    1    2    0    0  0.18252125396E-02  0.46681476157E-03  0.23090077533E-01  0.10207631919E+01  0.10205002660E+01 0.  0.
     999903    2    3    3    0    0  0.38092961957E-01  0.12036361075E+00  0.31803912971E-01  0.13185007902E+00  0.20844229709E-01 0.  0.
         14    1    1    2    0    0 -0.18252125396E-02 -0.46681476157E-03 -0.23090077533E-01  0.23166808096E-01  0.00000000000E+00 0.  1.
     999901    1    3    3    0    0 -0.36267749418E-01 -0.11989679599E+00 -0.87138354374E-02  0.88891311289E+00  0.88000000000E+00 0. -1.
        -11    1    4    4    0    0  0.32377265564E-01  0.73395266590E-01  0.14831081485E-01  0.81580479174E-01  0.51100000000E-03 0.  1.
         11    1    4    4    0    0  0.57156963934E-02  0.46968344163E-01  0.16972831486E-01  0.50269599842E-01  0.51100000000E-03 0. -1.
</event>
<event>
 8    1  0.1086486E+005  0.1043930E+01  0.7957747E-01            NaN
         13   -1    0    0    0    0  0.00000000000E+00  0.00000000000E+00  0.74505805969E-08  0.10566000000E+00  0.10566000000E+00 0. -1.
     999900   -1    0    0    0    0 -0.00000000000E+00 -0.00000000000E+00 -0.74505805969E-08  0.93827000000E+00  0.93827000000E+00 0. -1.
     999902    2    1    2    0    0 -0.15090465786E-02 -0.75718229335E-03 -0.23894642491E-01  0.10199757835E+01  0.10196944614E+01 0.  0.
     999903    2    3    3    0    0 -0.19984915828E-01  0.11150990890E-01  0.12365437194E+00  0.12742109390E+00  0.20542395489E-01 0.  0.
         14    1    1    2    0    0  0.15090465786E-02  0.75718229335E-03  0.23894642491E-01  0.23954216463E-01  0.00000000000E+00 0. -1.
     999901    1    3    3    0    0  0.18475869249E-01 -0.11908173184E-01 -0.14754901443E+00  0.89255468964E+00  0.88000000000E+00 0. -1.
        -11    1    4    4    0    0 -0.19299110270E-01  0.10051853137E-02  0.62391518974E-01  0.65317905781E-01  0.51100000000E-03 0.  1.
         11    1    4    4    0    0 -0.68580555740E-03  0.10145805577E-01  0.61262852965E-01  0.62103188119E-01  0.51100000000E-03 0. -1.
</event>
<event>
 8    1  0.1086486E+005  0.1043930E+01  0.7957747E-01            NaN
         13   -1    0    0    0    0  0.00000000000E+00  0.00000000000E+00  0.74505805969E-08  0.10566000000E+00  0.10566000000E+00 0. -1.
     999900   -1    0    0    0    0 -0.00000000000E+00 -0.00000000000E+00 -0.74505805969E-08  0.93827000000E+00  0.93827000000E+00 0. -1.
     999902    2    1    2    0    0 -0.10978552231E-01 -0.11133786036E-02  0.20355543556E-01  0.10207758130E+01  0.10205131768E+01 0.  0.
     999903    2    3    3    0    0 -0.20581109944E-01  0.25683477936E-01  0.12811741151E+00  0.13374542977E+00  0.19762229768E-01 0.  0.
         14    1    1    2    0    0  0.10978552231E-01  0.11133786036E-02 -0.20355543556E-01  0.23154186975E-01  0.00000000000E+00 0.  1.
     999901    1    3    3    0    0  0.96025577129E-02 -0.26796856539E-01 -0.10776186796E+00  0.88703038326E+00  0.88000000000E+00 0. -1.
        -11    1    4    4    0    0 -0.14321106750E-02  0.16621194713E-01  0.67414269088E-01  0.69449692961E-01  0.51100000000E-03 0.  1.
         11    1    4    4    0    0 -0.19148999269E-01  0.90622832223E-02  0.60703142426E-01  0.64295736807E-01  0.51100000000E-03 0. -1.
</event>
<event>
 8    1  0.1086486E+005  0.1043930E+01  0.7957747E-01            NaN
         13   -1    0    0    0    0  0.00000000000E+00  0.00000000000E+00  0.74505805969E-08  0.10566000000E+00  0.10566000000E+00 0.  1.
     999900   -1    0    0    0    0 -0.00000000000E+00 -0.00000000000E+00 -0.74505805969E-08  0.93827000000E+00  0.93827000000E+00 0.  1.
     999902    2    1    2    0    0 -0.22674767235E-02  0.10821554872E-01  0.16285059471E-01  0.10242462335E+01  0.10240570766E+01 0.  0.
     999903    2    3    3    0    0 -0.24501954056E-01 -0.23532942346E-01 -0.12608511397E+00  0.13186522199E+00  0.18353083615E-01 0.  0.
         14    1    1    2    0    0  0.22674767235E-02 -0.10821554872E-01 -0.16285059471E-01  0.19683766472E-01  0.00000000000E+00 0. -1.
     999901    1    3    3    0    0  0.22234477333E-01  0.34354497218E-01  0.14237017344E+00  0.89238101153E+00  0.88000000000E+00 0. -1.
        -11    1    4    4    0    0 -0.18647711192E-01 -0.55101840675E-02 -0.57059826510E-01  0.60284195139E-01  0.51100000000E-03 0. -1.
         11    1    4    4    0    0 -0.58542428647E-02 -0.18022758279E-01 -0.69025287461E-01  0.71581026855E-01  0.51100000000E-03 0.  1.
</event>
<event>
 8    1  0.1086486E+005  0.1043930E+01  0.7957747E-01            NaN
         13   -1    0    0    0    0  0.00000000000E+00  0.00000000000E+00  0.74505805969E-08  0.10566000000E+00  0.10566000000E+00 0. -1.
     999900   -1    0    0    0    0 -0.00000000000E+00 -0.00000000000E+00 -0.74505805969E-08  0.93827000000E+00  0.93827000000E+00 0.  1.
     999902    2    1    2    0    0 -0.20423124989E-01 -0.98609863989E-02 -0.59071585234E-02  0.10204941811E+01  0.10202250418E+01 0.  0.
     999903    2    3    3    0    0 -0.91669676316E-01  0.73588433096E-01 -0.57269008433E-01  0.13219360338E+00  0.19411914062E-01 0.  0.
         14    1    1    2    0    0  0.20423124989E-01  0.98609863989E-02  0.59071585234E-02  0.23435818930E-01  0.00000000000E+00 0. -1.
     999901    1    3    3    0    0  0.71246551327E-01 -0.83449419495E-01  0.51361849910E-01  0.88830057769E+00  0.88000000000E+00 0. -1.
        -11    1    4    4    0    0 -0.55712225092E-01  0.32341825763E-01 -0.30657111431E-01  0.71343992885E-01  0.51100000000E-03 0.  1.
         11    1    4    4    0    0 -0.35957451224E-01  0.41246607333E-01 -0.26611897002E-01  0.60849610500E-01  0.51100000000E-03 0. -1.
</event>
<event>
 8    1  0.1086486E+005  0.1043930E+01  0.7957747E-01            NaN
         13   -1    0    0    0    0  0.00000000000E+00  0.00000000000E+00  0.74505805969E-08  0.10566000000E+00  0.10566000000E+00 0. -1.
     999900   -1    0    0    0    0 -0.00000000000E+00 -0.00000000000E+00 -0.74505805969E-08  0.93827000000E+00  0.93827000000E+00 0. -1.
     999902    2    1    2    0    0  0.10047990439E-02  0.15541822590E-01  0.17949177764E-01  0.10201659336E+01  0.10198891122E+01 0.  0.
     999903    2    3    3    0    0  0.20438649669E-01  0.42591685691E-01 -0.11831257650E+00  0.12905615621E+00  0.20635784606E-01 0.  0.
         14    1    1    2    0    0 -0.10047990439E-02 -0.15541822590E-01 -0.17949177764E-01  0.23764066423E-01  0.00000000000E+00 0.  1.
     999901    1    3    3    0    0 -0.19433850625E-01 -0.27049863101E-01  0.13626175427E+00  0.89110977737E+00  0.88000000000E+00 0.  1.
        -11    1    4    4    0    0  0.39731595733E-03  0.17116311948E-01 -0.25271667489E-01  0.30529400475E-01  0.51100000000E-03 0. -1.
         11    1    4    4    0    0  0.20041333712E-01  0.25475373742E-01 -0.93040909015E-01  0.98526755735E-01  0.51100000000E-03 0.  1.
</event>
<event>
 8    1  0.1086486E+005  0.1043930E+01  0.7957747E-01            NaN
         13   -1    0    0    0    0  0.00000000000E+00  0.00000000000E+00  0.74505805969E-08  0.10566000000E+00  0.10566000000E+00 0. -1.
     999900   -1    0    0    0    0 -0.00000000000E+00 -0.00000000000E+00 -0.74505805969E-08  0.93827000000E+00  0.93827000000E+00 0. -1.
     999902    2    1    2    0    0 -0.11118371328E-01 -0.23742758958E-01 -0.40493042799E-03  0.10177097644E+01  0.10173719398E+01 0.  0.
     999903    2    3    3    0    0  0.25870319225E-02 -0.76721534225E-01 -0.10318802260E+00  0.13003924407E+00  0.19223694777E-01 0.  0.
         14    1    1    2    0    0  0.11118371328E-01  0.23742758958E-01  0.40493042799E-03  0.26220235555E-01  0.00000000000E+00 0.  1.
     999901    1    3    3    0    0 -0.13705403251E-01  0.52978775267E-01  0.10278309218E+00  0.88767052038E+00  0.88000000000E+00 0.  1.
        -11    1    4    4    0    0 -0.71684316909E-02 -0.26867980915E-01 -0.43834694360E-01  0.51913546999E-01  0.51100000000E-03 0.  1.
         11    1    4    4    0    0  0.97554636134E-02 -0.49853553310E-01 -0.59353328244E-01  0.78125697070E-01  0.51100000000E-03 0. -1.
</event>
<event>
 8    1  0.1086486E+005  0.1043930E+01  0.7957747E-01            NaN
         13   -1    0    0    0    0  0.00000000000E+00  0.00000000000E+00  0.74505805969E-08  0.10566000000E+00  0.10566000000E+00 0. -1.
     999900   -1    0    0    0    0 -0.00000000000E+00 -0.00000000000E+00 -0.74505805969E-08  0.93827000000E+00  0.93827000000E+00 0. -1.
     999902    2    1    2    0    0  0.28171603573E-02  0.23226040509E-01  0.31207757903E-02  0.10203265131E+01  0.10200534637E+01 0.  0.
     999903    2    3    3    0    0 -0.10130830588E+00  0.50793128486E-01  0.64031837810E-01  0.13166897813E+00  0.19832518913E-01 0.  0.
         14    1    1    2    0    0 -0.28171603573E-02 -0.23226040509E-01 -0.31207757903E-02  0.23603486856E-01  0.00000000000E+00 0. -1.
     999901    1    3    3    0    0  0.10412546624E+00 -0.27567087977E-01 -0.60911062019E-01  0.88865753501E+00  0.88000000000E+00 0.  1.
        -11    1    4    4    0    0 -0.73293436854E-01  0.26930194321E-01  0.46733647765E-01  0.91002517583E-01  0.51100000000E-03 0. -1.
         11    1    4    4    0    0 -0.28014869030E-01  0.23862934164E-01  0.17298190044E-01  0.40666460548E-01  0.51100000000E-03 0.  1.
</event>
<event>
 8    1  0.1139813E+005  0.1043930E+01  0.7957747E-01            NaN
         13   -1    0    0    0    0  0.00000000000E+00  0.00000000000E+00  0.74505805969E-08  0.10566000000E+00  0.10566000000E+00 0.  1.
     999900   -1    0    0    0    0 -0.00000000000E+00 -0.00000000000E+00 -0.74505805969E-08  0.93827000000E+00  0.93827000000E+00 0. -1.
     999902    2    1    2    0    0 -0.30654135376E-03  0.28022014854E-01 -0.21934551200E-02  0.10158205971E+01  0.10154316063E+01 0.  0.
     999903    2    3    3    0    0  0.83520475911E-03 -0.10959162633E+00 -0.55418181403E-01  0.12353606331E+00  0.13377667171E-01 0.  0.
         14    1    1    2    0    0  0.30654135376E-03 -0.28022014854E-01  0.21934551200E-02  0.28109402866E-01  0.00000000000E+00 0. -1.
     999901    1    3    3    0    0 -0.11417461129E-02  0.13761364118E+00  0.53224726283E-01  0.89228453383E+00  0.88000000000E+00 0. -1.
        -11    1    4    4    0    0  0.29579844088E-02 -0.59668759531E-01 -0.23261711639E-01  0.64113016503E-01  0.51100000000E-03 0. -1.
         11    1    4    4    0    0 -0.21227796497E-02 -0.49922866795E-01 -0.32156469764E-01  0.59423046802E-01  0.51100000000E-03 0.  1.
</event>
<event>
 8    1  0.1086486E+005  0.1043930E+01  0.7957747E-01            NaN
         13   -1    0    0    0    0  0.00000000000E+00  0.00000000000E+00  0.74505805969E-08  0.10566000000E+00  0.10566000000E+00 0.  1.
     999900   -1    0    0    0    0 -0.00000000000E+00 -0.00000000000E+00 -0.74505805969E-08  0.93827000000E+00  0.93827000000E+00 0. -1.
     999902    2    1    2    0    0 -0.10422451072E-02 -0.21284305507E-01  0.11162415165E-01  0.10198736610E+01  0.10195899062E+01 0.  0.
     999903    2    3    3    0    0 -0.32389805850E-01  0.12143959527E+00 -0.91162762707E-02  0.12759343214E+00  0.20007563809E-01 0.  0.
         14    1    1    2    0    0  0.10422451072E-02  0.21284305507E-01 -0.11162415165E-01  0.24056339042E-01  0.00000000000E+00 0. -1.
     999901    1    3    3    0    0  0.31347560743E-01 -0.14272390078E+00  0.20278691436E-01  0.89228022882E+00  0.88000000000E+00 0. -1.
        -11    1    4    4    0    0 -0.24387212729E-01  0.53208277233E-01 -0.56505274618E-02  0.58805157022E-01  0.51100000000E-03 0. -1.
         11    1    4    4    0    0 -0.80025931207E-02  0.68231318036E-01 -0.34657488089E-02  0.68788275116E-01  0.51100000000E-03 0.  1.
</event>
<event>
 8    1  0.1086486E+005  0.1043930E+01  0.7957747E-01            NaN
         13   -1    0    0    0    0  0.00000000000E+00  0.00000000000E+00  0.74505805969E-08  0.10566000000E+00  0.10566000000E+00 0. -1.
     999900   -1    0    0    0    0 -0.00000000000E+00 -0.00000000000E+00 -0.74505805969E-08  0.93827000000E+00  0.93827000000E+00 0. -1.
     999902    2    1    2    0    0 -0.10229084389E-01  0.10107326192E-01 -0.19044035246E-01  0.10200664821E+01  0.10197873113E+01 0.  0.
     999903    2    3    3    0    0  0.49243915636E-01  0.80593980109E-01 -0.90628308449E-01  0.13235610458E+00  0.19603450458E-01 0.  0.
         14    1    1    2    0    0  0.10229084389E-01 -0.10107326192E-01  0.19044035246E-01  0.23863517944E-01  0.00000000000E+00 0. -1.
     999901    1    3    3    0    0 -0.59473000025E-01 -0.70486653917E-01  0.71584273203E-01  0.88771037748E+00  0.88000000000E+00 0.  1.
        -11    1    4    4    0    0  0.41971314979E-01  0.76856662468E-01 -0.77825198737E-01  0.11715613738E+00  0.51100000000E-03 0. -1.
         11    1    4    4    0    0  0.72726006577E-02  0.37373176405E-02 -0.12803109712E-01  0.15199967197E-01  0.51100000000E-03 0.  1.
</event>
<event>
 8    1  0.1086486E+005  0.1043930E+01  0.7957747E-01            NaN
         13   -1    0    0    0    0  0.00000000000E+00  0.00000000000E+00  0.74505805969E-08  0.10566000000E+00  0.10566000000E+00 0. -1.
     999900   -1    0    0    0    0 -0.00000000000E+00 -0.00000000000E+00 -0.74505805969E-08  0.93827000000E+00  0.93827000000E+00 0.  1.
     999902    2    1    2    0    0 -0.11506834754E-01 -0.15814587744E-02  0.19609264257E-01  0.10211389600E+01  0.10208845891E+01 0.  0.
     999903    2    3    3    0    0  0.37593897024E-02 -0.45201204675E-01  0.12427660743E+00  0.13373206770E+00  0.19552720073E-01 0.  0.
         14    1    1    2    0    0  0.11506834754E-01  0.15814587744E-02 -0.19609264257E-01  0.22791039963E-01  0.00000000000E+00 0.  1.
     999901    1    3    3    0    0 -0.15266224456E-01  0.43619745901E-01 -0.10466734317E+00  0.88740689234E+00  0.88000000000E+00 0.  1.
        -11    1    4    4    0    0  0.11148208236E-01 -0.24583318240E-01  0.77791185352E-01  0.82342891145E-01  0.51100000000E-03 0. -1.
         11    1    4    4    0    0 -0.73888185337E-02 -0.20617886435E-01  0.46485422076E-01  0.51389176555E-01  0.51100000000E-03 0.  1.
</event>
<event>
 8    1  0.1086486E+005  0.1043930E+01  0.7957747E-01            NaN
         13   -1    0    0    0    0  0.00000000000E+00  0.00000000000E+00  0.74505805969E-08  0.10566000000E+00  0.10566000000E+00 0. -1.
     999900   -1    0    0    0    0 -0.00000000000E+00 -0.00000000000E+00 -0.74505805969E-08  0.93827000000E+00  0.93827000000E+00 0.  1.
     999902    2    1    2    0    0 -0.14144651820E-01  0.92233474908E-02  0.14625367521E-01  0.10215907366E+01  0.10213464595E+01 0.  0.
     999903    2    3    3    0    0  0.28549004205E-01 -0.12477718951E+00 -0.11851008653E-01  0.13003036810E+00  0.19571856350E-01 0.  0.
         14    1    1    2    0    0  0.14144651820E-01 -0.92233474908E-02 -0.14625367521E-01  0.22339263398E-01  0.00000000000E+00 0.  1.
     999901    1    3    3    0    0 -0.42693656026E-01  0.13400053700E+00  0.26476376175E-01  0.89156036850E+00  0.88000000000E+00 0. -1.
        -11    1    4    4    0    0  0.13591795485E-02 -0.46849814863E-01 -0.20885169758E-02  0.46918818676E-01  0.51100000000E-03 0. -1.
         11    1    4    4    0    0  0.27189824657E-01 -0.77927374643E-01 -0.97624916775E-02  0.83111549428E-01  0.51100000000E-03 0.  1.
</event>
<event>
 8    1  0.1086486E+005  0.1043930E+01  0.7957747E-01            NaN
         13   -1    0    0    0    0  0.00000000000E+00  0.00000000000E+00  0.74505805969E-08  0.10566000000E+00  0.10566000000E+00 0.  1.
     999900   -1    0    0    0    0 -0.00000000000E+00 -0.00000000000E+00 -0.74505805969E-08  0.93827000000E+00  0.93827000000E+00 0.  1.
     999902    2    1    2    0    0  0.20652672960E-01 -0.19170096097E-02  0.11604546126E-01  0.10201629363E+01  0.10198860443E+01 0.  0.
     999903    2    3    3    0    0  0.53225615455E-01 -0.34284300869E-01 -0.11242018265E+00  0.13028048818E+00  0.18064570437E-01 0.  0.
         14    1    1    2    0    0 -0.20652672960E-01  0.19170096097E-02 -0.11604546126E-01  0.23767063702E-01  0.00000000000E+00 0. -1.
     999901    1    3    3    0    0 -0.32572942495E-01  0.32367291259E-01  0.12402472878E+00  0.88988244812E+00  0.88000000000E+00 0. -1.
        -11    1    4    4    0    0  0.51288764487E-01 -0.29352278095E-01 -0.93367889615E-01  0.11049849557E+00  0.51100000000E-03 0. -1.
         11    1    4    4    0    0  0.19368509685E-02 -0.49320227736E-02 -0.19052293038E-01  0.19781992602E-01  0.51100000000E-03 0.  1.
</event>
<event>
 8    1  0.1086486E+005  0.1043930E+01  0.7957747E-01            NaN
         13   -1    0    0    0    0  0.00000000000E+00  0.00000000000E+00  0.74505805969E-08  0.10566000000E+00  0.10566000000E+00 0. -1.
     999900   -1    0    0    0    0 -0.00000000000E+00 -0.00000000000E+00 -0.74505805969E-08  0.93827000000E+00  0.93827000000E+00 0. -1.
     999902    2    1    2    0    0  0.21442476501E-01 -0.21579585252E-02 -0.98910350722E-02  0.10202177846E+01  0.10199421841E+01 0.  0.
     999903    2    3    3    0    0 -0.53964636281E-01 -0.41050331677E-02  0.11462182741E+00  0.12825731650E+00  0.19563809740E-01 0.  0.
         14    1    1    2    0    0 -0.21442476501E-01  0.21579585252E-02  0.98910350722E-02  0.23712215382E-01  0.00000000000E+00 0. -1.
     999901    1    3    3    0    0  0.75407112782E-01  0.19470746424E-02 -0.12451286248E+00  0.89196046812E+00  0.88000000000E+00 0. -1.
        -11    1    4    4    0    0 -0.66556460334E-03  0.21488858297E-02  0.14280582464E-01  0.14465712671E-01  0.51100000000E-03 0. -1.
         11    1    4    4    0    0 -0.53299071677E-01 -0.62539189974E-02  0.10034124495E+00  0.11379160383E+00  0.51100000000E-03 0.  1.
</event>
<event>
 8    1  0.1086486E+005  0.1043930E+01  0.7957747E-01            NaN
         13   -1    0    0    0    0  0.00000000000E+00  0.00000000000E+00  0.74505805969E-08  0.10566000000E+00  0.10566000000E+00 0. -1.
     999900   -1    0    0    0    0 -0.00000000000E+00 -0.00000000000E+00 -0.74505805969E-08  0.93827000000E+00  0.93827000000E+00 0.  1.
     999902    2    1    2    0    0  0.13056350594E-01 -0.17803113761E-01  0.12838831821E-01  0.10183907214E+01  0.10180704330E+01 0.  0.
     999903    2    3    3    0    0 -0.51087387326E-01 -0.11319651811E+00 -0.31887070589E-01  0.12978803903E+00  0.20119069320E-01 0.  0.
         14    1    1    2    0    0 -0.13056350594E-01  0.17803113761E-01 -0.12838831821E-01  0.25539278630E-01  0.00000000000E+00 0.  1.
     999901    1    3    3    0    0  0.64143737920E-01  0.95393404347E-01  0.44725902409E-01  0.88860268234E+00  0.88000000000E+00 0. -1.
        -11    1    4    4    0    0 -0.24147806818E-01 -0.31073018618E-01 -0.11130877650E-01  0.40899958660E-01  0.51100000000E-03 0.  1.
         11    1    4    4    0    0 -0.26939580508E-01 -0.82123499489E-01 -0.20756192939E-01  0.88888080375E-01  0.51100000000E-03 0. -1.
</event>
<event>
 8    1  0.1086486E+005  0.1043930E+01  0.7957747E-01            NaN
         13   -1    0    0    0    0  0.00000000000E+00  0.00000000000E+00  0.74505805969E-08  0.10566000000E+00  0.10566000000E+00 0.  1.
     999900   -1    0    0    0    0 -0.00000000000E+00 -0.00000000000E+00 -0.74505805969E-08  0.93827000000E+00  0.93827000000E+00 0.  1.
     999902    2    1    2    0    0  0.18659742929E-01  0.68159259401E-02 -0.72530176008E-02  0.10227817349E+01  0.10225630680E+01 0.  0.
     999903    2    3    3    0    0 -0.87882513429E-01 -0.55113843356E-01 -0.78165331085E-01  0.13136987446E+00  0.19681286470E-01 0.  0.
         14    1    1    2    0    0 -0.18659742929E-01 -0.68159259401E-02  0.72530176008E-02  0.21148265104E-01  0.00000000000E+00 0.  1.
     999901    1    3    3    0    0  0.10654225636E+00  0.61929769296E-01  0.70912313484E-01  0.89141186043E+00  0.88000000000E+00 0. -1.
        -11    1    4    4    0    0 -0.15210206816E-01 -0.39238201167E-02 -0.18669230537E-01  0.24403853088E-01  0.51100000000E-03 0. -1.
         11    1    4    4    0    0 -0.72672306613E-01 -0.51190023239E-01 -0.59496100547E-01  0.10696602138E+00  0.51100000000E-03 0.  1.
</event>
<event>
 8    1  0.1086486E+005  0.1043930E+01  0.7957747E-01            NaN
         13   -1    0    0    0    0  0.00000000000E+00  0.00000000000E+00  0.74505805969E-08  0.10566000000E+00  0.10566000000E+00 0.  1.
     999900   -1    0    0    0    0 -0.00000000000E+00 -0.00000000000E+00 -0.74505805969E-08  0.93827000000E+00  0.93827000000E+00 0. -1.
     999902    2    1    2    0    0  0.10578285062E-01 -0.18966251371E-01  0.96265442520E-02  0.10201752287E+01  0.10198986264E+01 0.  0.
     999903    2    3    3    0    0 -0.59094557574E-01  0.33155542091E-01 -0.10670842891E+00  0.12826446390E+00  0.21762977575E-01 0.  0.
         14    1    1    2    0    0 -0.10578285062E-01  0.18966251371E-01 -0.96265442520E-02  0.23754771313E-01  0.00000000000E+00 0. -1.
     999901    1    3    3    0    0  0.69672842636E-01 -0.52121793462E-01  0.11633497317E+00  0.89191076478E+00  0.88000000000E+00 0.  1.
        -11    1    4    4    0    0  0.15692970198E-02 -0.72196340847E-04 -0.49870906287E-02  0.52535796736E-02  0.51100000000E-03 0.  1.
         11    1    4    4    0    0 -0.60663854594E-01  0.33227738432E-01 -0.10172133829E+00  0.12301088423E+00  0.51100000000E-03 0. -1.
</event>
<event>
 8    1  0.1086486E+005  0.1043930E+01  0.7957747E-01            NaN
         13   -1    0    0    0    0  0.00000000000E+00  0.00000000000E+00  0.74505805969E-08  0.10566000000E+00  0.10566000000E+00 0.  1.
     999900   -1    0    0    0    0 -0.00000000000E+00 -0.00000000000E+00 -0.74505805969E-08  0.93827000000E+00  0.93827000000E+00 0. -1.
     999902    2    1    2    0    0 -0.13114767553E-01 -0.18260886142E-01 -0.83834371309E-02  0.10199354358E+01  0.10196531539E+01 0.  0.
     999903    2    3    3    0    0  0.98612145808E-01 -0.74510316810E-01 -0.37029445233E-01  0.13062812372E+00  0.20405496348E-01 0.  0.
         14    1    1    2    0    0  0.13114767553E-01  0.18260886142E-01  0.83834371309E-02  0.23994564151E-01  0.00000000000E+00 0.  1.
     999901    1    3    3    0    0 -0.11172691336E+00  0.56249430668E-01  0.28646008102E-01  0.88930731213E+00  0.88000000000E+00 0. -1.
        -11    1    4    4    0    0  0.51087223816E-01 -0.36723398018E-01 -0.29344386548E-01  0.69425258674E-01  0.51100000000E-03 0. -1.
         11    1    4    4    0    0  0.47524921993E-01 -0.37786918792E-01 -0.76850586857E-02  0.61202865049E-01  0.51100000000E-03 0.  1.
</event>
<event>
 8    1  0.1086486E+005  0.1043930E+01  0.7957747E-01            NaN
         13   -1    0    0    0    0  0.00000000000E+00  0.00000000000E+00  0.74505805969E-08  0.10566000000E+00  0.10566000000E+00 0.  1.
     999900   -1    0    0    0    0 -0.00000000000E+00 -0.00000000000E+00 -0.74505805969E-08  0.93827000000E+00  0.93827000000E+00 0.  1.
     999902    2    1    2    0    0 -0.17832087783E-01 -0.19555849278E-02 -0.14532106705E-01  0.10208434283E+01  0.10205823413E+01 0.  0.
     999903    2    3    3    0    0  0.83919741740E-01  0.24151813269E-01  0.91986869683E-01  0.12821734568E+00  0.18768867906E-01 0.  0.
         14    1    1    2    0    0  0.17832087783E-01  0.19555849278E-02  0.14532106705E-01  0.23086571690E-01  0.00000000000E+00 0.  1.
     999901    1    3    3    0    0 -0.10175182952E+00 -0.26107398197E-01 -0.10651897639E+00  0.89262608263E+00  0.88000000000E+00 0.  1.
        -11    1    4    4    0    0  0.10888350459E-01  0.10179474267E-01  0.13830539222E-01  0.20340177193E-01  0.51100000000E-03 0.  1.
         11    1    4    4    0    0  0.73031391281E-01  0.13972339002E-01  0.78156330461E-01  0.10787716849E+00  0.51100000000E-03 0. -1.
</event>
<event>
 8    1  0.1086486E+005  0.1043930E+01  0.7957747E-01            NaN
         13   -1    0    0    0    0  0.00000000000E+00  0.00000000000E+00  0.74505805969E-08  0.10566000000E+00  0.10566000000E+00 0. -1.
     999900   -1    0    0    0    0 -0.00000000000E+00 -0.00000000000E+00 -0.74505805969E-08  0.93827000000E+00  0.93827000000E+00 0.  1.
     999902    2    1    2    0    0  0.22357166356E-01  0.19244344642E-02 -0.80441679626E-02  0.10200919008E+01  0.10198133315E+01 0.  0.
     999903    2    3    3    0    0  0.82132864198E-01  0.72254545807E-01 -0.73061846055E-01  0.13287898549E+00  0.18768715078E-01 0.  0.
         14    1    1    2    0    0 -0.22357166356E-01 -0.19244344642E-02  0.80441679626E-02  0.23838099205E-01  0.00000000000E+00 0. -1.
     999901    1    3    3    0    0 -0.59775697842E-01 -0.70330111343E-01  0.65017678092E-01  0.88721291530E+00  0.88000000000E+00 0. -1.
        -11    1    4    4    0    0  0.81087557022E-01  0.65936643215E-01 -0.67846327402E-01  0.12460424586E+00  0.51100000000E-03 0. -1.
         11    1    4    4    0    0  0.10453071754E-02  0.63179025919E-02 -0.52155186524E-02  0.82747396373E-02  0.51100000000E-03 0.  1.
</event>
<event>
 8    1  0.1086486E+005  0.1043930E+01  0.7957747E-01            NaN
         13   -1    0    0    0    0  0.00000000000E+00  0.00000000000E+00  0.74505805969E-08  0.10566000000E+00  0.10566000000E+00 0. -1.
     999900   -1    0    0    0    0 -0.00000000000E+00 -0.00000000000E+00 -0.74505805969E-08  0.93827000000E+00  0.93827000000E+00 0. -1.
     999902    2    1    2    0    0 -0.66965004452E-02 -0.13038843936E-02  0.22193395622E-01  0.10207116874E+01  0.10204475776E+01 0.  0.
     999903    2    3    3    0    0 -0.80400512068E-01  0.15579602273E-01 -0.97937743664E-01  0.12933700515E+00  0.20719385117E-01 0.  0.
         14    1    1    2    0    0  0.66965004452E-02  0.13038843936E-02 -0.22193395622E-01  0.23218312643E-01  0.00000000000E+00 0. -1.
     999901    1    3    3    0    0  0.73704011623E-01 -0.16883486666E-01  0.12013113929E+00  0.89137468221E+00  0.88000000000E+00 0.  1.
        -11    1    4    4    0    0 -0.28234041292E-01  0.15111201663E-01 -0.42418315420E-01  0.53151520274E-01  0.51100000000E-03 0.  1.
         11    1    4    4    0    0 -0.52166470777E-01  0.46840060996E-03 -0.55519428244E-01  0.76185484877E-01  0.51100000000E-03 0. -1.
</event>
<event>
 8    1  0.1086486E+005  0.1043930E+01  0.7957747E-01            NaN
         13   -1    0    0    0    0  0.00000000000E+00  0.00000000000E+00  0.74505805969E-08  0.10566000000E+00  0.10566000000E+00 0. -1.
     999900   -1    0    0    0    0 -0.00000000000E+00 -0.00000000000E+00 -0.74505805969E-08  0.93827000000E+00  0.93827000000E+00 0. -1.
     999902    2    1    2    0    0 -0.77364454149E-02  0.73072344896E-02 -0.21122411721E-01  0.10202782656E+01  0.10200040856E+01 0.  0.
     999903    2    3    3    0    0 -0.12289966732E-01  0.11928916878E+00  0.47573452088E-01  0.13051435878E+00  0.19743744188E-01 0.  0.
         14    1    1    2    0    0  0.77364454149E-02 -0.73072344896E-02  0.21122411721E-01  0.23651734407E-01  0.00000000000E+00 0. -1.
     999901    1    3    3    0    0  0.45535213169E-02 -0.11198193429E+00 -0.68695863810E-01  0.88976390681E+00  0.88000000000E+00 0. -1.
        -11    1    4    4    0    0  0.42876080990E-02  0.16411971967E-01  0.32737958790E-02  0.17283381253E-01  0.51100000000E-03 0.  1.
         11    1    4    4    0    0 -0.16577574831E-01  0.10287719681E+00  0.44299656209E-01  0.11323097753E+00  0.51100000000E-03 0. -1.
</event>
<event>
 8    1  0.1086486E+005  0.1043930E+01  0.7957747E-01            NaN
         13   -1    0    0    0    0  0.00000000000E+00  0.00000000000E+00  0.74505805969E-08  0.10566000000E+00  0.10566000000E+00 0.  1.
     999900   -1    0    0    0    0 -0.00000000000E+00 -0.00000000000E+00 -0.74505805969E-08  0.93827000000E+00  0.93827000000E+00 0.  1.
     999902    2    1    2    0    0  0.49485707006E-03  0.55274874542E-02 -0.23161866405E-01  0.10201125682E+01  0.10198344874E+01 0.  0.
     999903    2    3    3    0    0  0.29836328417E-01 -0.12261918317E+00 -0.25606351212E-01  0.13034379678E+00  0.20202711758E-01 0.  0.
         14    1    1    2    0    0 -0.49485707006E-03 -0.55274874542E-02  0.23161866405E-01  0.23817431776E-01  0.00000000000E+00 0.  1.
     999901    1    3    3    0    0 -0.29341471347E-01  0.12814667062E+00  0.24444848077E-02  0.88976877144E+00  0.88000000000E+00 0.  1.
        -11    1    4    4    0    0  0.24813427328E-01 -0.11462730033E+00 -0.19003308873E-01  0.11881292449E+00  0.51100000000E-03 0. -1.
         11    1    4    4    0    0  0.50229010894E-02 -0.79918828400E-02 -0.66030423391E-02  0.11530872292E-01  0.51100000000E-03 0.  1.
</event>
<event>
 7    1  0.1086486E+005  0.1043930E+01  0.7957747E-01            NaN
         13   -1    0    0    0    0  0.00000000000E+00  0.00000000000E+00  0.74505805969E-08  0.10566000000E+00  0.10566000000E+00 0.  1.
     999900   -1    0    0    0    0 -0.00000000000E+00 -0.00000000000E+00 -0.74505805969E-08  0.93827000000E+00  0.93827000000E+00 0. -1.
     999903    2    1    2    0    0  0.81073594610E-01  0.10515936863E-01  0.76864136500E-01  0.11396206429E+00  0.19893314108E-01 0.  0.
         14    1    1    2    0    0 -0.22048723631E-02 -0.89233428161E-02 -0.44931931794E-01  0.45862468358E-01  0.00000000000E+00 0. -1.
     999901    1    1    2    0    0 -0.78868722247E-01 -0.15925940471E-02 -0.31932204706E-01  0.88410546735E+00  0.88000000000E+00 0. -1.
        -11    1    3    3    0    0  0.31686461471E-01 -0.22178543886E-02  0.39740475681E-01  0.50877472883E-01  0.51100000000E-03 0. -1.
         11    1    3    3    0    0  0.49387133138E-01  0.12733791252E-01  0.37123660819E-01  0.63084591406E-01  0.51100000000E-03 0.  1.
</event>
<event>
 8    1  0.1086486E+005  0.1043930E+01  0.7957747E-01            NaN
         13   -1    0    0    0    0  0.00000000000E+00  0.00000000000E+00  0.74505805969E-08  0.10566000000E+00  0.10566000000E+00 0.  1.
     999900   -1    0    0    0    0 -0.00000000000E+00 -0.00000000000E+00 -0.74505805969E-08  0.93827000000E+00  0.93827000000E+00 0. -1.
     999902    2    1    2    0    0  0.44429524751E-02  0.15890491909E-01  0.21300341195E-01  0.10169865018E+01  0.10166295258E+01 0.  0.
     999903    2    3    3    0    0  0.98694510723E-01  0.71887544452E-01  0.39725763679E-01  0.12999240807E+00  0.20284584361E-01 0.  0.
         14    1    1    2    0    0 -0.44429524751E-02 -0.15890491909E-01 -0.21300341195E-01  0.26943498192E-01  0.00000000000E+00 0. -1.
     999901    1    3    3    0    0 -0.94251558248E-01 -0.55997052543E-01 -0.18425422484E-01  0.88699409373E+00  0.88000000000E+00 0. -1.
        -11    1    4    4    0    0  0.76810511856E-01  0.44712283036E-01  0.28367992228E-01  0.93295482688E-01  0.51100000000E-03 0. -1.
         11    1    4    4    0    0  0.21883998867E-01  0.27175261416E-01  0.11357771451E-01  0.36696925386E-01  0.51100000000E-03 0.  1.
</event>
<event>
 8    1  0.1086486E+005  0.1043930E+01  0.7957747E-01            NaN
         13   -1    0    0    0    0  0.00000000000E+00  0.00000000000E+00  0.74505805969E-08  0.10566000000E+00  0.10566000000E+00 0.  1.
     999900   -1    0    0    0    0 -0.00000000000E+00 -0.00000000000E+00 -0.74505805969E-08  0.93827000000E+00  0.93827000000E+00 0. -1.
     999902    2    1    2    0    0  0.21014942400E-01 -0.59867203101E-02  0.84783930896E-02  0.10204917455E+01  0.10202225497E+01 0.  0.
     999903    2    3    3    0    0 -0.11044252033E+00  0.26621643531E-01 -0.55216124606E-01  0.12785443871E+00  0.19790777699E-01 0.  0.
         14    1    1    2    0    0 -0.21014942400E-01  0.59867203101E-02 -0.84783930896E-02  0.23438254490E-01  0.00000000000E+00 0.  1.
     999901    1    3    3    0    0  0.13145746273E+00 -0.32608363841E-01  0.63694517695E-01  0.89263730680E+00  0.88000000000E+00 0.  1.
        -11    1    4    4    0    0 -0.62433769362E-01  0.70107342548E-02 -0.36842274707E-01  0.72833647980E-01  0.51100000000E-03 0.  1.
         11    1    4    4    0    0 -0.48008750966E-01  0.19610909276E-01 -0.18373849899E-01  0.55020790734E-01  0.51100000000E-03 0. -1.
</event>
<event>
 8    1  0.1086486E+005  0.1043930E+01  0.7957747E-01            NaN
         13   -1    0    0    0    0  0.00000000000E+00  0.00000000000E+00  0.74505805969E-08  0.10566000000E+00  0.10566000000E+00 0.  1.
     999900   -1    0    0    0    0 -0.00000000000E+00 -0.00000000000E+00 -0.74505805969E-08  0.93827000000E+00  0.93827000000E+00 0.  1.
     999902    2    1    2    0    0  0.23125281697E-01  0.40821843996E-02 -0.41554431240E-02  0.10200823462E+01  0.10198035509E+01 0.  0.
     999903    2    3    3    0    0  0.10890026857E+00 -0.69746986611E-01 -0.22560056366E-01  0.13264399645E+00  0.19014810415E-01 0.  0.
         14    1    1    2    0    0 -0.23125281697E-01 -0.40821843996E-02  0.41554431240E-02  0.23847653775E-01  0.00000000000E+00 0.  1.
     999901    1    3    3    0    0 -0.85774986871E-01  0.73829171010E-01  0.18404613242E-01  0.88743834978E+00  0.88000000000E+00 0. -1.
        -11    1    4    4    0    0  0.72396757968E-01 -0.36222578434E-01 -0.10493906231E-01  0.81631788794E-01  0.51100000000E-03 0. -1.
         11    1    4    4    0    0  0.36503510600E-01 -0.33524408177E-01 -0.12066150135E-01  0.51012207655E-01  0.51100000000E-03 0.  1.
</event>
<event>
 8    1  0.1086486E+005  0.1043930E+01  0.7957747E-01            NaN
         13   -1    0    0    0    0  0.00000000000E+00  0.00000000000E+00  0.74505805969E-08  0.10566000000E+00  0.10566000000E+00 0.  1.
     999900   -1    0    0    0    0 -0.00000000000E+00 -0.00000000000E+00 -0.74505805969E-08  0.93827000000E+00  0.93827000000E+00 0. -1.
     999902    2    1    2    0    0 -0.18381442759E-03  0.23342691427E-01 -0.10608790832E-02  0.10205624906E+01  0.10202949362E+01 0.  0.
     999903    2    3    3    0    0  0.40621094080E-01 -0.25450310593E-01 -0.11940966089E+00  0.13036462959E+00  0.20939864853E-01 0.  0.
         14    1    1    2    0    0  0.18381442759E-03 -0.23342691427E-01  0.10608790832E-02  0.23367509393E-01  0.00000000000E+00 0.  1.
     999901    1    3    3    0    0 -0.40804908507E-01  0.48793002019E-01  0.11834878181E+00  0.89019786102E+00  0.88000000000E+00 0.  1.
        -11    1    4    4    0    0  0.26607264740E-01 -0.25407657945E-01 -0.71033766272E-01  0.79997204270E-01  0.51100000000E-03 0.  1.
         11    1    4    4    0    0  0.14013829340E-01 -0.42652647821E-04 -0.48375894621E-01  0.50367425320E-01  0.51100000000E-03 0. -1.
</event>
<event>
 8    1  0.1086486E+005  0.1043930E+01  0.7957747E-01            NaN
         13   -1    0    0    0    0  0.00000000000E+00  0.00000000000E+00  0.74505805969E-08  0.10566000000E+00  0.10566000000E+00 0.  1.
     999900   -1    0    0    0    0 -0.00000000000E+00 -0.00000000000E+00 -0.74505805969E-08  0.93827000000E+00  0.93827000000E+00 0.  1.
     999902    2    1    2    0    0  0.21129756502E-01  0.12632449229E-01  0.13531654349E-03  0.10193116391E+01  0.10190143050E+01 0.  0.
     999903    2    3    3    0    0 -0.11975499911E+00  0.39628346679E-01 -0.81615919321E-02  0.12765804518E+00  0.17840942923E-01 0.  0.
         14    1    1    2    0    0 -0.21129756502E-01 -0.12632449229E-01 -0.13531654349E-03  0.24618360911E-01  0.00000000000E+00 0. -1.
     999901    1    3    3    0    0  0.14088475561E+00 -0.26995897451E-01  0.82969084756E-02  0.89165359391E+00  0.88000000000E+00 0. -1.
        -11    1    4    4    0    0 -0.33433899578E-01  0.12156222771E-01  0.56427007768E-02  0.36023611508E-01  0.51100000000E-03 0.  1.
         11    1    4    4    0    0 -0.86321099529E-01  0.27472123908E-01 -0.13804292709E-01  0.91634433671E-01  0.51100000000E-03 0. -1.
</event>
<event>
 8    1  0.1086486E+005  0.1043930E+01  0.7957747E-01            NaN
         13   -1    0    0    0    0  0.00000000000E+00  0.00000000000E+00  0.74505805969E-08  0.10566000000E+00  0.10566000000E+00 0.  1.
     999900   -1    0    0    0    0 -0.00000000000E+00 -0.00000000000E+00 -0.74505805969E-08  0.93827000000E+00  0.93827000000E+00 0. -1.
     999902    2    1    2    0    0  0.81662268958E-02  0.20141639742E-01  0.10623250548E-01  0.10197385477E+01  0.10194515581E+01 0.  0.
     999903    2    3    3    0    0 -0.62066985119E-01  0.10887414581E+00 -0.33830831069E-01  0.13137920199E+00  0.20250415240E-01 0.  0.
         14    1    1    2    0    0 -0.81662268958E-02 -0.20141639742E-01 -0.10623250548E-01  0.24191452322E-01  0.00000000000E+00 0.  1.
     999901    1    3    3    0    0  0.70233212015E-01 -0.88732506064E-01  0.44454081617E-01  0.88835934569E+00  0.88000000000E+00 0. -1.
        -11    1    4    4    0    0 -0.22088970245E-01  0.26607983354E-01 -0.24248574334E-02  0.34670570218E-01  0.51100000000E-03 0. -1.
         11    1    4    4    0    0 -0.39978014874E-01  0.82266162452E-01 -0.31405973636E-01  0.96708631770E-01  0.51100000000E-03 0.  1.
</event>
<event>
 8    1  0.1086486E+005  0.1043930E+01  0.7957747E-01            NaN
         13   -1    0    0    0    0  0.00000000000E+00  0.00000000000E+00  0.74505805969E-08  0.10566000000E+00  0.10566000000E+00 0.  1.
     999900   -1    0    0    0    0 -0.00000000000E+00 -0.00000000000E+00 -0.74505805969E-08  0.93827000000E+00  0.93827000000E+00 0. -1.
     999902    2    1    2    0    0 -0.13230778015E-01  0.19350156503E-01  0.61537698446E-02  0.10196946761E+01  0.10194066320E+01 0.  0.
     999903    2    3    3    0    0  0.76490583449E-01  0.57708668573E-01  0.86586529543E-01  0.13065546039E+00  0.19812179252E-01 0.  0.
         14    1    1    2    0    0  0.13230778015E-01 -0.19350156503E-01 -0.61537698446E-02  0.24235323948E-01  0.00000000000E+00 0.  1.
     999901    1    3    3    0    0 -0.89721361465E-01 -0.38358512070E-01 -0.80432759698E-01  0.88903921566E+00  0.88000000000E+00 0.  1.
        -11    1    4    4    0    0  0.39778563270E-01  0.38529721184E-01  0.58807012489E-01  0.80779943978E-01  0.51100000000E-03 0.  1.
         11    1    4    4    0    0  0.36712020179E-01  0.19178947389E-01  0.27779517054E-01  0.49875516412E-01  0.51100000000E-03 0. -1.
</event>
<event>
 8    1  0.1086486E+005  0.1043930E+01  0.7957747E-01            NaN
         13   -1    0    0    0    0  0.00000000000E+00  0.00000000000E+00  0.74505805969E-08  0.10566000000E+00  0.10566000000E+00 0.  1.
     999900   -1    0    0    0    0 -0.00000000000E+00 -0.00000000000E+00 -0.74505805969E-08  0.93827000000E+00  0.93827000000E+00 0. -1.
     999902    2    1    2    0    0  0.22335506623E-02  0.90919551161E-02 -0.23226335681E-01  0.10188877344E+01  0.10185799430E+01 0.  0.
     999903    2    3    3    0    0 -0.99880218076E-02 -0.11495047427E+00 -0.55326675174E-01  0.12952485970E+00  0.20056823821E-01 0.  0.
         14    1    1    2    0    0 -0.22335506623E-02 -0.90919551161E-02  0.23226335681E-01  0.25042265584E-01  0.00000000000E+00 0.  1.
     999901    1    3    3    0    0  0.12221572470E-01  0.12404242938E+00  0.32100339494E-01  0.88936287471E+00  0.88000000000E+00 0.  1.
        -11    1    4    4    0    0 -0.27479710428E-02 -0.81093786821E-01 -0.47509543274E-01  0.94027503577E-01  0.51100000000E-03 0.  1.
         11    1    4    4    0    0 -0.72400507649E-02 -0.33856687446E-01 -0.78171319005E-02  0.35497356128E-01  0.51100000000E-03 0. -1.
</event>
<event>
 8    1  0.1086486E+005  0.1043930E+01  0.7957747E-01            NaN
         13   -1    0    0    0    0  0.00000000000E+00  0.00000000000E+00  0.74505805969E-08  0.10566000000E+00  0.10566000000E+00 0. -1.
     999900   -1    0    0    0    0 -0.00000000000E+00 -0.00000000000E+00 -0.74505805969E-08  0.93827000000E+00  0.93827000000E+00 0. -1.
     999902    2    1    2    0    0  0.18847750755E-01  0.91052330344E-02  0.95189629763E-02  0.10209353564E+01  0.10206763681E+01 0.  0.
     999903    2    3    3    0    0 -0.92643740717E-01  0.20500585082E-01  0.87115017060E-01  0.13044035120E+00  0.20555348223E-01 0.  0.
         14    1    1    2    0    0 -0.18847750755E-01 -0.91052330344E-02 -0.95189629763E-02  0.22994643578E-01  0.00000000000E+00 0.  1.
     999901    1    3    3    0    0  0.11149149147E+00 -0.11395352048E-01 -0.77596054084E-01  0.89049500522E+00  0.88000000000E+00 0. -1.
        -11    1    4    4    0    0 -0.64659240958E-02 -0.77843108898E-03  0.13959823185E-01  0.15412719219E-01  0.51100000000E-03 0. -1.
         11    1    4    4    0    0 -0.86177816621E-01  0.21279016171E-01  0.73155193875E-01  0.11502763198E+00  0.51100000000E-03 0.  1.
</event>
<event>
 8    1  0.1086486E+005  0.1043930E+01  0.7957747E-01            NaN
         13   -1    0    0    0    0  0.00000000000E+00  0.00000000000E+00  0.74505805969E-08  0.10566000000E+00  0.10566000000E+00 0. -1.
     999900   -1    0    0    0    0 -0.00000000000E+00 -0.00000000000E+00 -0.74505805969E-08  0.93827000000E+00  0.93827000000E+00 0.  1.
     999902    2    1    2    0    0  0.22791303691E-01  0.12330666505E-02 -0.15728356349E-01  0.10162109601E+01  0.10158328457E+01 0.  0.
     999903    2    3    3    0    0 -0.43377280742E-01 -0.69322016859E-01  0.91626238453E-01  0.12442549805E+00  0.19980152285E-01 0.  0.
         14    1    1    2    0    0 -0.22791303691E-01 -0.12330666505E-02  0.15728356349E-01  0.27719039860E-01  0.00000000000E+00 0. -1.
     999901    1    3    3    0    0  0.66168584432E-01  0.70555083510E-01 -0.10735459480E+00  0.89178546209E+00  0.88000000000E+00 0.  1.
        -11    1    4    4    0    0 -0.39907516959E-01 -0.47567867448E-01  0.69524650963E-01  0.93216147399E-01  0.51100000000E-03 0.  1.
         11    1    4    4    0    0 -0.34697637824E-02 -0.21754149412E-01  0.22101587490E-01  0.31209350649E-01  0.51100000000E-03 0. -1.
</event>
<event>
 8    1  0.1086486E+005  0.1043930E+01  0.7957747E-01            NaN
         13   -1    0    0    0    0  0.00000000000E+00  0.00000000000E+00  0.74505805969E-08  0.10566000000E+00  0.10566000000E+00 0.  1.
     999900   -1    0    0    0    0 -0.00000000000E+00 -0.00000000000E+00 -0.74505805969E-08  0.93827000000E+00  0.93827000000E+00 0.  1.
     999902    2    1    2    0    0  0.66115613095E-02  0.17387963917E-01 -0.14117764449E-01  0.10205769423E+01  0.10203097225E+01 0.  0.
     999903    2    3    3    0    0 -0.11629335457E+00  0.46764688068E-01 -0.22134654211E-01  0.13151401942E+00  0.33089485020E-01 0.  0.
         14    1    1    2    0    0 -0.66115613095E-02 -0.17387963917E-01  0.14117764449E-01  0.23353057726E-01  0.00000000000E+00 0.  1.
     999901    1    3    3    0    0  0.12290491588E+00 -0.29376724151E-01  0.80168897616E-02  0.88906292285E+00  0.88000000000E+00 0. -1.
        -11    1    4    4    0    0 -0.38817372852E-01  0.25822839857E-01 -0.21280095247E-01  0.51251449425E-01  0.51100000000E-03 0. -1.
         11    1    4    4    0    0 -0.77475981722E-01  0.20941848211E-01 -0.85455896342E-03  0.80262569996E-01  0.51100000000E-03 0.  1.
</event>
<event>
 8    1  0.1086486E+005  0.1043930E+01  0.7957747E-01            NaN
         13   -1    0    0    0    0  0.00000000000E+00  0.00000000000E+00  0.74505805969E-08  0.10566000000E+00  0.10566000000E+00 0.  1.
     999900   -1    0    0    0    0 -0.00000000000E+00 -0.00000000000E+00 -0.74505805969E-08  0.93827000000E+00  0.93827000000E+00 0.  1.
     999902    2    1    2    0    0  0.13047484293E-01 -0.19609764611E-01 -0.28773996264E-03  0.10203744803E+01  0.10201025525E+01 0.  0.
     999903    2    3    3    0    0  0.69766470696E-01  0.12811912418E-01 -0.10872553842E+00  0.13131488460E+00  0.19769943825E-01 0.  0.
         14    1    1    2    0    0 -0.13047484293E-01  0.19609764611E-01  0.28773996264E-03  0.23555519709E-01  0.00000000000E+00 0. -1.
     999901    1    3    3    0    0 -0.56718986403E-01 -0.32421677029E-01  0.10843779846E+00  0.88905959569E+00  0.88000000000E+00 0. -1.
        -11    1    4    4    0    0  0.24715390876E-01  0.12027142950E-01 -0.52486499895E-01  0.59250286969E-01  0.51100000000E-03 0.  1.
         11    1    4    4    0    0  0.45051079821E-01  0.78476946864E-03 -0.56239038525E-01  0.72064597629E-01  0.51100000000E-03 0. -1.
</event>
<event>
 8    1  0.1086486E+005  0.1043930E+01  0.7957747E-01            NaN
         13   -1    0    0    0    0  0.00000000000E+00  0.00000000000E+00  0.74505805969E-08  0.10566000000E+00  0.10566000000E+00 0. -1.
     999900   -1    0    0    0    0 -0.00000000000E+00 -0.00000000000E+00 -0.74505805969E-08  0.93827000000E+00  0.93827000000E+00 0.  1.
     999902    2    1    2    0    0  0.14837672127E-01  0.14675671948E-01  0.10825658191E-01  0.10204198589E+01  0.10201489899E+01 0.  0.
     999903    2    3    3    0    0  0.57615366864E-01  0.33302591600E-01 -0.11086980076E+00  0.13082069180E+00  0.19832992089E-01 0.  0.
         14    1    1    2    0    0 -0.14837672127E-01 -0.14675671948E-01 -0.10825658191E-01  0.23510141143E-01  0.00000000000E+00 0. -1.
     999901    1    3    3    0    0 -0.42777694737E-01 -0.18626919652E-01  0.12169545895E+00  0.88959916706E+00  0.88000000000E+00 0. -1.
        -11    1    4    4    0    0  0.93807073131E-02  0.15057139474E-01 -0.31834923228E-01  0.36447751327E-01  0.51100000000E-03 0. -1.
         11    1    4    4    0    0  0.48234659551E-01  0.18245452126E-01 -0.79034877535E-01  0.94372940471E-01  0.51100000000E-03 0.  1.
</event>
<event>
 8    1  0.1086486E+005  0.1043930E+01  0.7957747E-01            NaN
         13   -1    0    0    0    0  0.00000000000E+00  0.00000000000E+00  0.74505805969E-08  0.10566000000E+00  0.10566000000E+00 0.  1.
     999900   -1    0    0    0    0 -0.00000000000E+00 -0.00000000000E+00 -0.74505805969E-08  0.93827000000E+00  0.93827000000E+00 0. -1.
     999902    2    1    2    0    0 -0.65320497544E-02 -0.13409350554E-01 -0.16226506191E-01  0.10218896311E+01  0.10216519174E+01 0.  0.
     999903    2    3    3    0    0  0.99291940335E-01  0.80786236616E-01 -0.14893120229E-01  0.13055731184E+00  0.20930867190E-01 0.  0.
         14    1    1    2    0    0  0.65320497544E-02  0.13409350554E-01  0.16226506191E-01  0.22040368859E-01  0.00000000000E+00 0. -1.
     999901    1    3    3    0    0 -0.10582399009E+00 -0.94195587170E-01 -0.13333859622E-02  0.89133231931E+00  0.88000000000E+00 0. -1.
        -11    1    4    4    0    0  0.15830855960E-01  0.12953186682E-01  0.52770078065E-02  0.21130759050E-01  0.51100000000E-03 0. -1.
         11    1    4    4    0    0  0.83461084376E-01  0.67833049934E-01 -0.20170128035E-01  0.10942655279E+00  0.51100000000E-03 0.  1.
</event>
<event>
 8    1  0.1086486E+005  0.1043930E+01  0.7957747E-01            NaN
         13   -1    0    0    0    0  0.00000000000E+00  0.00000000000E+00  0.74505805969E-08  0.10566000000E+00  0.10566000000E+00 0. -1.
     999900   -1    0    0    0    0 -0.00000000000E+00 -0.00000000000E+00 -0.74505805969E-08  0.93827000000E+00  0.93827000000E+00 0.  1.
     999902    2    1    2    0    0  0.42117380268E-02 -0.16550553406E-01 -0.18596442772E-01  0.10186814904E+01  0.10183685441E+01 0.  0.
     999903    2    3    3    0    0  0.71161562534E-01 -0.10887592739E+00  0.38273487558E-02  0.13103906229E+00  0.15448355883E-01 0.  0.
         14    1    1    2    0    0 -0.42117380268E-02  0.16550553406E-01  0.18596442772E-01  0.25248509639E-01  0.00000000000E+00 0. -1.
     999901    1    3    3    0    0 -0.66949824508E-01  0.92325373987E-01 -0.22423791528E-01  0.88764242807E+00  0.88000000000E+00 0.  1.
        -11    1    4    4    0    0  0.56976626204E-01 -0.75064988023E-01  0.79338424996E-03  0.94244251496E-01  0.51100000000E-03 0.  1.
         11    1    4    4    0    0  0.14184936330E-01 -0.33810939370E-01  0.30339645059E-02  0.36794810795E-01  0.51100000000E-03 0. -1.
</event>
<event>
 8    1  0.1086486E+005  0.1043930E+01  0.7957747E-01            NaN
         13   -1    0    0    0    0  0.00000000000E+00  0.00000000000E+00  0.74505805969E-08  0.10566000000E+00  0.10566000000E+00 0.  1.
     999900   -1    0    0    0    0 -0.00000000000E+00 -0.00000000000E+00 -0.74505805969E-08  0.93827000000E+00  0.93827000000E+00 0.  1.
     999902    2    1    2    0    0 -0.75342675614E-02  0.21551035347E-01  0.97586876269E-02  0.10191017037E+01  0.10187992139E+01 0.  0.
     999903    2    3    3    0    0 -0.55957664754E-01  0.11333143787E+00 -0.31145549423E-01  0.13206076650E+00  0.22242431189E-01 0.  0.
         14    1    1    2    0    0  0.75342675614E-02 -0.21551035347E-01 -0.97586876269E-02  0.24828296285E-01  0.00000000000E+00 0. -1.
     999901    1    3    3    0    0  0.48423397193E-01 -0.91780402525E-01  0.40904237050E-01  0.88704093721E+00  0.88000000000E+00 0. -1.
        -11    1    4    4    0    0 -0.18061024358E-01  0.17510092842E-01 -0.37671120957E-02  0.25441230449E-01  0.51100000000E-03 0. -1.
         11    1    4    4    0    0 -0.37896640397E-01  0.95821345030E-01 -0.27378437327E-01  0.10661953605E+00  0.51100000000E-03 0.  1.
</event>
<event>
 8    1  0.1086486E+005  0.1043930E+01  0.7957747E-01            NaN
         13   -1    0    0    0    0  0.00000000000E+00  0.00000000000E+00  0.74505805969E-08  0.10566000000E+00  0.10566000000E+00 0. -1.
     999900   -1    0    0    0    0 -0.00000000000E+00 -0.00000000000E+00 -0.74505805969E-08  0.93827000000E+00  0.93827000000E+00 0.  1.
     999902    2    1    2    0    0 -0.18559171444E-01 -0.13369332776E-01  0.56756093835E-02  0.10203631919E+01  0.10200910003E+01 0.  0.
     999903    2    3    3    0    0  0.10420024837E+00  0.87087372078E-02  0.72989997336E-01  0.12902232377E+00  0.19638901588E-01 0.  0.
         14    1    1    2    0    0  0.18559171444E-01  0.13369332776E-01 -0.56756093835E-02  0.23566808130E-01  0.00000000000E+00 0.  1.
     999901    1    3    3    0    0 -0.12275941981E+00 -0.22078069984E-01 -0.67314387952E-01  0.89134086810E+00  0.88000000000E+00 0. -1.
        -11    1    4    4    0    0  0.53573861192E-01 -0.41669277391E-02  0.31327333290E-01  0.62202771818E-01  0.51100000000E-03 0. -1.
         11    1    4    4    0    0  0.50626387175E-01  0.12875664947E-01  0.41662664045E-01  0.66819551948E-01  0.51100000000E-03 0.  1.
</event>
<event>
 8    1  0.1086486E+005  0.1043930E+01  0.7957747E-01            NaN
         13   -1    0    0    0    0  0.00000000000E+00  0.00000000000E+00  0.74505805969E-08  0.10566000000E+00  0.10566000000E+00 0. -1.
     999900   -1    0    0    0    0 -0.00000000000E+00 -0.00000000000E+00 -0.74505805969E-08  0.93827000000E+00  0.93827000000E+00 0. -1.
     999902    2    1    2    0    0 -0.15565840637E-01  0.15899819666E-01 -0.91526255253E-02  0.10198702782E+01  0.10195864427E+01 0.  0.
     999903    2    3    3    0    0  0.17010951487E-01 -0.12524254239E+00 -0.51871212882E-02  0.12801931587E+00  0.19671606744E-01 0.  0.
         14    1    1    2    0    0  0.15565840637E-01 -0.15899819666E-01  0.91526255253E-02  0.24059721822E-01  0.00000000000E+00 0. -1.
     999901    1    3    3    0    0 -0.32576792124E-01  0.14114236206E+00 -0.39655042371E-02  0.89185096231E+00  0.88000000000E+00 0. -1.
        -11    1    4    4    0    0 -0.33731430071E-02 -0.19188986400E-01 -0.45837247581E-02  0.20021661931E-01  0.51100000000E-03 0. -1.
         11    1    4    4    0    0  0.20384094494E-01 -0.10605355599E+00 -0.60339653008E-03  0.10799765394E+00  0.51100000000E-03 0.  1.
</event>
<event>
 8    1  0.1086486E+005  0.1043930E+01  0.7957747E-01            NaN
         13   -1    0    0    0    0  0.00000000000E+00  0.00000000000E+00  0.74505805969E-08  0.10566000000E+00  0.10566000000E+00 0.  1.
     999900   -1    0    0    0    0 -0.00000000000E+00 -0.00000000000E+00 -0.74505805969E-08  0.93827000000E+00  0.93827000000E+00 0. -1.
     999902    2    1    2    0    0 -0.26361661829E-02 -0.59245790017E-02  0.23716857820E-01  0.10193426180E+01  0.10190460409E+01 0.  0.
     999903    2    3    3    0    0 -0.71809691758E-01 -0.89157471740E-01 -0.56712734671E-01  0.12907209147E+00  0.18373457058E-01 0.  0.
         14    1    1    2    0    0  0.26361661829E-02  0.59245790017E-02 -0.23716857820E-01  0.24587381995E-01  0.00000000000E+00 0. -1.
     999901    1    3    3    0    0  0.69173525575E-01  0.83232892738E-01  0.80429592492E-01  0.89027052654E+00  0.88000000000E+00 0.  1.
        -11    1    4    4    0    0 -0.25470533095E-01 -0.22328726672E-01 -0.23489950694E-01  0.41223282202E-01  0.51100000000E-03 0. -1.
         11    1    4    4    0    0 -0.46339158663E-01 -0.66828745068E-01 -0.33222783978E-01  0.87848809265E-01  0.51100000000E-03 0.  1.
</event>
<event>
 8    1  0.1086486E+005  0.1043930E+01  0.7957747E-01            NaN
         13   -1    0    0    0    0  0.00000000000E+00  0.00000000000E+00  0.74505805969E-08  0.10566000000E+00  0.10566000000E+00 0. -1.
     999900   -1    0    0    0    0 -0.00000000000E+00 -0.00000000000E+00 -0.74505805969E-08  0.93827000000E+00  0.93827000000E+00 0. -1.
     999902    2    1    2    0    0 -0.70423429292E-02 -0.14472675747E-01  0.17750359251E-01  0.10199690278E+01  0.10196875450E+01 0.  0.
     999903    2    3    3    0    0  0.66421076635E-01 -0.82013204162E-01 -0.72607324229E-01  0.12973135839E+00  0.20505529520E-01 0.  0.
         14    1    1    2    0    0  0.70423429292E-02  0.14472675747E-01 -0.17750359251E-01  0.23960972241E-01  0.00000000000E+00 0. -1.
     999901    1    3    3    0    0 -0.73463419565E-01  0.67540528415E-01  0.90357683479E-01  0.89023766937E+00  0.88000000000E+00 0.  1.
        -11    1    4    4    0    0  0.49918873736E-01 -0.48132240120E-01 -0.41128816087E-01  0.80625350404E-01  0.51100000000E-03 0. -1.
         11    1    4    4    0    0  0.16502202900E-01 -0.33880964042E-01 -0.31478508141E-01  0.49106007990E-01  0.51100000000E-03 0.  1.
</event>
<event>
 8    1  0.1086486E+005  0.1043930E+01  0.7957747E-01            NaN
         13   -1    0    0    0    0  0.00000000000E+00  0.00000000000E+00  0.74505805969E-08  0.10566000000E+00  0.10566000000E+00 0.  1.
     999900   -1    0    0    0    0 -0.00000000000E+00 -0.00000000000E+00 -0.74505805969E-08  0.93827000000E+00  0.93827000000E+00 0. -1.
     999902    2    1    2    0    0 -0.21934410855E-01 -0.60391388246E-02 -0.73012883991E-02  0.10200365199E+01  0.10197566394E+01 0.  0.
     999903    2    3    3    0    0 -0.90244884754E-01 -0.83081735181E-01 -0.47557395506E-01  0.13311914123E+00  0.20304825747E-01 0.  0.
         14    1    1    2    0    0  0.21934410855E-01  0.60391388246E-02  0.73012883991E-02  0.23893480064E-01  0.00000000000E+00 0.  1.
     999901    1    3    3    0    0  0.68310473899E-01  0.77042596357E-01  0.40256107107E-01  0.88691737871E+00  0.88000000000E+00 0.  1.
        -11    1    4    4    0    0 -0.44028307506E-01 -0.35116404833E-01 -0.31774325956E-01  0.64664694086E-01  0.51100000000E-03 0.  1.
         11    1    4    4    0    0 -0.46216577248E-01 -0.47965330349E-01 -0.15783069550E-01  0.68454447141E-01  0.51100000000E-03 0. -1.
</event>
<event>
 8    1  0.1086486E+005  0.1043930E+01  0.7957747E-01            NaN
         13   -1    0    0    0    0  0.00000000000E+00  0.00000000000E+00  0.74505805969E-08  0.10566000000E+00  0.10566000000E+00 0.  1.
     999900   -1    0    0    0    0 -0.00000000000E+00 -0.00000000000E+00 -0.74505805969E-08  0.93827000000E+00  0.93827000000E+00 0.  1.
     999902    2    1    2    0    0 -0.34777012180E-02 -0.15713219229E-01 -0.18231547738E-01  0.10196115092E+01  0.10193214609E+01 0.  0.
     999903    2    3    3    0    0 -0.13648667635E-01 -0.10489875203E+00  0.73273164641E-01  0.13032492980E+00  0.20629987079E-01 0.  0.
         14    1    1    2    0    0  0.34777012180E-02  0.15713219229E-01  0.18231547738E-01  0.24318490850E-01  0.00000000000E+00 0.  1.
     999901    1    3    3    0    0  0.10170966417E-01  0.89185532798E-01 -0.91504712378E-01  0.88928657935E+00  0.88000000000E+00 0. -1.
        -11    1    4    4    0    0 -0.98347675621E-02 -0.30389763426E-01  0.31283918365E-01  0.44712470781E-01  0.51100000000E-03 0. -1.
         11    1    4    4    0    0 -0.38139000732E-02 -0.74508988601E-01  0.41989246276E-01  0.85612459023E-01  0.51100000000E-03 0.  1.
</event>
<event>
 8    1  0.1086486E+005  0.1043930E+01  0.7957747E-01            NaN
         13   -1    0    0    0    0  0.00000000000E+00  0.00000000000E+00  0.74505805969E-08  0.10566000000E+00  0.10566000000E+00 0.  1.
     999900   -1    0    0    0    0 -0.00000000000E+00 -0.00000000000E+00 -0.74505805969E-08  0.93827000000E+00  0.93827000000E+00 0.  1.
     999902    2    1    2    0    0  0.15965936068E-01  0.59141364043E-02 -0.16297794791E-01  0.10203608201E+01  0.10200885731E+01 0.  0.
     999903    2    3    3    0    0 -0.11330852240E+00  0.57854296259E-01  0.80139589831E-02  0.12906921400E+00  0.20216271143E-01 0.  0.
         14    1    1    2    0    0 -0.15965936068E-01 -0.59141364043E-02  0.16297794791E-01  0.23569179854E-01  0.00000000000E+00 0.  1.
     999901    1    3    3    0    0  0.12927445847E+00 -0.51940159855E-01 -0.24311753774E-01  0.89129160615E+00  0.88000000000E+00 0. -1.
        -11    1    4    4    0    0 -0.56495672513E-01  0.20159483045E-01 -0.27119768887E-02  0.60048161578E-01  0.51100000000E-03 0. -1.
         11    1    4    4    0    0 -0.56812849889E-01  0.37694813214E-01  0.10725935872E-01  0.69021052419E-01  0.51100000000E-03 0.  1.
</event>
<event>
 8    1  0.1086486E+005  0.1043930E+01  0.7957747E-01            NaN
         13   -1    0    0    0    0  0.00000000000E+00  0.00000000000E+00  0.74505805969E-08  0.10566000000E+00  0.10566000000E+00 0. -1.
     999900   -1    0    0    0    0 -0.00000000000E+00 -0.00000000000E+00 -0.74505805969E-08  0.93827000000E+00  0.93827000000E+00 0. -1.
     999902    2    1    2    0    0 -0.11173004778E-01  0.34210474158E-02 -0.21028044542E-01  0.10198734363E+01  0.10195896762E+01 0.  0.
     999903    2    3    3    0    0  0.47513104770E-01  0.11788179823E+00  0.92927914685E-02  0.13000565057E+00  0.25719637019E-01 0.  0.
         14    1    1    2    0    0  0.11173004778E-01 -0.34210474158E-02  0.21028044542E-01  0.24056563729E-01  0.00000000000E+00 0. -1.
     999901    1    3    3    0    0 -0.58686109547E-01 -0.11446075081E+00 -0.30320836011E-01  0.88986778570E+00  0.88000000000E+00 0. -1.
        -11    1    4    4    0    0  0.33773306217E-01  0.50581859281E-01  0.11410342270E-02  0.60833574458E-01  0.51100000000E-03 0. -1.
         11    1    4    4    0    0  0.13739798553E-01  0.67299938948E-01  0.81517572414E-02  0.69172076113E-01  0.51100000000E-03 0.  1.
</event>
<event>
 8    1  0.1086486E+005  0.1043930E+01  0.7957747E-01            NaN
         13   -1    0    0    0    0  0.00000000000E+00  0.00000000000E+00  0.74505805969E-08  0.10566000000E+00  0.10566000000E+00 0. -1.
     999900   -1    0    0    0    0 -0.00000000000E+00 -0.00000000000E+00 -0.74505805969E-08  0.93827000000E+00  0.93827000000E+00 0.  1.
     999902    2    1    2    0    0 -0.46460726843E-02  0.58400265565E-02  0.19902163362E-01  0.10226746946E+01  0.10224537852E+01 0.  0.
     999903    2    3    3    0    0  0.89651702638E-01 -0.64432936336E-02  0.98256913409E-01  0.13409019256E+00  0.15710343433E-01 0.  0.
         14    1    1    2    0    0  0.46460726843E-02 -0.58400265565E-02 -0.19902163362E-01  0.21255305409E-01  0.00000000000E+00 0.  1.
     999901    1    3    3    0    0 -0.94297775322E-01  0.12283320190E-01 -0.78354750047E-01  0.88858450203E+00  0.88000000000E+00 0.  1.
        -11    1    4    4    0    0  0.82647611970E-01 -0.17644057666E-02  0.91185095702E-01  0.12308015149E+00  0.51100000000E-03 0.  1.
         11    1    4    4    0    0  0.70040906677E-02 -0.46788878670E-02  0.70718177067E-02  0.11010041073E-01  0.51100000000E-03 0. -1.
</event>
<event>
 8    1  0.1086486E+005  0.1043930E+01  0.7957747E-01            NaN
         13   -1    0    0    0    0  0.00000000000E+00  0.00000000000E+00  0.74505805969E-08  0.10566000000E+00  0.10566000000E+00 0. -1.
     999900   -1    0    0    0    0 -0.00000000000E+00 -0.00000000000E+00 -0.74505805969E-08  0.93827000000E+00  0.93827000000E+00 0.  1.
     999902    2    1    2    0    0 -0.11492330408E-02  0.50041221139E-02  0.23491781529E-01  0.10198836744E+01  0.10196001587E+01 0.  0.
     999903    2    3    3    0    0  0.52793162984E-01 -0.23580841918E-01 -0.11182520599E+00  0.12745016464E+00  0.19887021087E-01 0.  0.
         14    1    1    2    0    0  0.11492330408E-02 -0.50041221139E-02 -0.23491781529E-01  0.24046325585E-01  0.00000000000E+00 0.  1.
     999901    1    3    3    0    0 -0.53942396025E-01  0.28584964032E-01  0.13531698752E+00  0.89243350978E+00  0.88000000000E+00 0. -1.
        -11    1    4    4    0    0  0.35653565395E-01 -0.25470459229E-01 -0.82996752586E-01  0.93854371659E-01  0.51100000000E-03 0.  1.
         11    1    4    4    0    0  0.17139597590E-01  0.18896173112E-02 -0.28828453408E-01  0.33595792981E-01  0.51100000000E-03 0. -1.
</event>
<event>
 8    1  0.1086486E+005  0.1043930E+01  0.7957747E-01            NaN
         13   -1    0    0    0    0  0.00000000000E+00  0.00000000000E+00  0.74505805969E-08  0.10566000000E+00  0.10566000000E+00 0. -1.
     999900   -1    0    0    0    0 -0.00000000000E+00 -0.00000000000E+00 -0.74505805969E-08  0.93827000000E+00  0.93827000000E+00 0.  1.
     999902    2    1    2    0    0 -0.84652297750E-02 -0.90188463074E-02 -0.20291922640E-01  0.10201652819E+01  0.10198884451E+01 0.  0.
     999903    2    3    3    0    0  0.10427870448E+00 -0.75106799881E-01 -0.98650971512E-02  0.13045323237E+00  0.20140657817E-01 0.  0.
         14    1    1    2    0    0  0.84652297750E-02  0.90188463074E-02  0.20291922640E-01  0.23764718141E-01  0.00000000000E+00 0.  1.
     999901    1    3    3    0    0 -0.11274393426E+00  0.66087953573E-01 -0.10426825489E-01  0.88971204949E+00  0.88000000000E+00 0. -1.
        -11    1    4    4    0    0  0.70728003881E-01 -0.45310204056E-01 -0.14855189097E-01  0.85301834029E-01  0.51100000000E-03 0. -1.
         11    1    4    4    0    0  0.33550700599E-01 -0.29796595825E-01  0.49900919456E-02  0.45151398340E-01  0.51100000000E-03 0.  1.
</event>
<event>
 8    1  0.1086486E+005  0.1043930E+01  0.7957747E-01            NaN
         13   -1    0    0    0    0  0.00000000000E+00  0.00000000000E+00  0.74505805969E-08  0.10566000000E+00  0.10566000000E+00 0.  1.
     999900   -1    0    0    0    0 -0.00000000000E+00 -0.00000000000E+00 -0.74505805969E-08  0.93827000000E+00  0.93827000000E+00 0. -1.
     999902    2    1    2    0    0 -0.76851926665E-02 -0.14749913509E-01  0.13966063413E-01  0.10222119646E+01  0.10219812266E+01 0.  0.
     999903    2    3    3    0    0  0.67062897902E-01 -0.76656205660E-01  0.84564461947E-01  0.13406569289E+00  0.21186213572E-01 0.  0.
         14    1    1    2    0    0  0.76851926665E-02  0.14749913509E-01 -0.13966063413E-01  0.21718035411E-01  0.00000000000E+00 0. -1.
     999901    1    3    3    0    0 -0.74748090568E-01  0.61906292151E-01 -0.70598398534E-01  0.88814627170E+00  0.88000000000E+00 0. -1.
        -11    1    4    4    0    0  0.44855193453E-01 -0.46166499046E-01  0.40466142542E-01  0.76033570395E-01  0.51100000000E-03 0.  1.
         11    1    4    4    0    0  0.22207704449E-01 -0.30489706614E-01  0.44098319405E-01  0.58032122498E-01  0.51100000000E-03 0. -1.
</event>
<event>
 8    1  0.1086486E+005  0.1043930E+01  0.7957747E-01            NaN
         13   -1    0    0    0    0  0.00000000000E+00  0.00000000000E+00  0.74505805969E-08  0.10566000000E+00  0.10566000000E+00 0. -1.
     999900   -1    0    0    0    0 -0.00000000000E+00 -0.00000000000E+00 -0.74505805969E-08  0.93827000000E+00  0.93827000000E+00 0.  1.
     999902    2    1    2    0    0  0.22099300275E-01  0.96634422665E-02  0.60313905866E-02  0.10190676015E+01  0.10187642698E+01 0.  0.
     999903    2    3    3    0    0 -0.88123621243E-01 -0.63102706927E-01  0.63578478533E-01  0.12735258407E+00  0.20705880670E-01 0.  0.
         14    1    1    2    0    0 -0.22099300275E-01 -0.96634422665E-02 -0.60313905866E-02  0.24862398546E-01  0.00000000000E+00 0. -1.
     999901    1    3    3    0    0  0.11022292152E+00  0.72766149194E-01 -0.57547087946E-01  0.89171501738E+00  0.88000000000E+00 0. -1.
        -11    1    4    4    0    0 -0.25539859089E-01 -0.83491413064E-02  0.11479270028E-01  0.29223745896E-01  0.51100000000E-03 0. -1.
         11    1    4    4    0    0 -0.62583762154E-01 -0.54753565621E-01  0.52099208504E-01  0.98128838174E-01  0.51100000000E-03 0.  1.
</event>
<event>
 8    1  0.1086486E+005  0.1043930E+01  0.7957747E-01            NaN
         13   -1    0    0    0    0  0.00000000000E+00  0.00000000000E+00  0.74505805969E-08  0.10566000000E+00  0.10566000000E+00 0.  1.
     999900   -1    0    0    0    0 -0.00000000000E+00 -0.00000000000E+00 -0.74505805969E-08  0.93827000000E+00  0.93827000000E+00 0.  1.
     999902    2    1    2    0    0  0.15987954475E-01  0.12978704679E-01  0.59865805882E-02  0.10224847066E+01  0.10222597882E+01 0.  0.
     999903    2    3    3    0    0 -0.34436150613E-01 -0.98399884059E-01  0.77150639917E-01  0.13118671838E+00  0.19731907850E-01 0.  0.
         14    1    1    2    0    0 -0.15987954475E-01 -0.12978704679E-01 -0.59865805882E-02  0.21445293436E-01  0.00000000000E+00 0. -1.
     999901    1    3    3    0    0  0.50424105088E-01  0.11137858874E+00 -0.71164059329E-01  0.89129798819E+00  0.88000000000E+00 0. -1.
        -11    1    4    4    0    0 -0.99796242320E-02 -0.57646385469E-01  0.40278896322E-01  0.71030622040E-01  0.51100000000E-03 0.  1.
         11    1    4    4    0    0 -0.24456526381E-01 -0.40753498591E-01  0.36871743595E-01  0.60156096339E-01  0.51100000000E-03 0. -1.
</event>
<event>
 8    1  0.1086486E+005  0.1043930E+01  0.7957747E-01            NaN
         13   -1    0    0    0    0  0.00000000000E+00  0.00000000000E+00  0.74505805969E-08  0.10566000000E+00  0.10566000000E+00 0. -1.
     999900   -1    0    0    0    0 -0.00000000000E+00 -0.00000000000E+00 -0.74505805969E-08  0.93827000000E+00  0.93827000000E+00 0.  1.
     999902    2    1    2    0    0 -0.11945878725E-01  0.47628534705E-02 -0.19717734790E-01  0.10203890175E+01  0.10201174291E+01 0.  0.
     999903    2    3    3    0    0 -0.11636747429E+00  0.46047400547E-01 -0.40235497297E-01  0.13301690727E+00  0.20318715649E-01 0.  0.
         14    1    1    2    0    0  0.11945878725E-01 -0.47628534705E-02  0.19717734790E-01  0.23540982498E-01  0.00000000000E+00 0.  1.
     999901    1    3    3    0    0  0.10442159557E+00 -0.41284547077E-01  0.20517762507E-01  0.88737211024E+00  0.88000000000E+00 0.  1.
        -11    1    4    4    0    0 -0.85210537474E-01  0.34751125554E-01 -0.38711419465E-01  0.99836423924E-01  0.51100000000E-03 0.  1.
         11    1    4    4    0    0 -0.31156936817E-01  0.11296274994E-01 -0.15240778327E-02  0.33180483342E-01  0.51100000000E-03 0. -1.
</event>
<event>
 8    1  0.1086486E+005  0.1043930E+01  0.7957747E-01            NaN
         13   -1    0    0    0    0  0.00000000000E+00  0.00000000000E+00  0.74505805969E-08  0.10566000000E+00  0.10566000000E+00 0.  1.
     999900   -1    0    0    0    0 -0.00000000000E+00 -0.00000000000E+00 -0.74505805969E-08  0.93827000000E+00  0.93827000000E+00 0. -1.
     999902    2    1    2    0    0  0.12153126588E-01  0.20068088789E-01  0.27394719282E-02  0.10203094289E+01  0.10200359794E+01 0.  0.
     999903    2    3    3    0    0 -0.23848691663E-01  0.12759807768E+00 -0.21846997957E-01  0.13269277518E+00  0.16734746575E-01 0.  0.
         14    1    1    2    0    0 -0.12153126588E-01 -0.20068088789E-01 -0.27394719282E-02  0.23620571118E-01  0.00000000000E+00 0. -1.
     999901    1    3    3    0    0  0.36001818251E-01 -0.10752998889E+00  0.24586469885E-01  0.88761665370E+00  0.88000000000E+00 0. -1.
        -11    1    4    4    0    0 -0.14781027159E-01  0.10632901623E+00 -0.21909992881E-01  0.10956572167E+00  0.51100000000E-03 0. -1.
         11    1    4    4    0    0 -0.90676645038E-02  0.21269061448E-01  0.62994923497E-04  0.23127053505E-01  0.51100000000E-03 0.  1.
</event>
<event>
 8    1  0.1086486E+005  0.1043930E+01  0.7957747E-01            NaN
         13   -1    0    0    0    0  0.00000000000E+00  0.00000000000E+00  0.74505805969E-08  0.10566000000E+00  0.10566000000E+00 0.  1.
     999900   -1    0    0    0    0 -0.00000000000E+00 -0.00000000000E+00 -0.74505805969E-08  0.93827000000E+00  0.93827000000E+00 0.  1.
     999902    2    1    2    0    0 -0.21364822454E-01 -0.39728919370E-02 -0.10039206656E-01  0.10199920557E+01  0.10197111201E+01 0.  0.
     999903    2    3    3    0    0  0.10279760592E-01  0.11985333606E+00  0.42463539670E-01  0.12921102042E+00  0.20538742739E-01 0.  0.
         14    1    1    2    0    0  0.21364822454E-01  0.39728919370E-02  0.10039206656E-01  0.23937944338E-01  0.00000000000E+00 0. -1.
     999901    1    3    3    0    0 -0.31644583046E-01 -0.12382622800E+00 -0.52502746326E-01  0.89078103524E+00  0.88000000000E+00 0. -1.
        -11    1    4    4    0    0  0.35891854947E-02  0.55254990359E-01  0.88316892377E-02  0.56073666439E-01  0.51100000000E-03 0.  1.
         11    1    4    4    0    0  0.66905750972E-02  0.64598345704E-01  0.33631850432E-01  0.73137353981E-01  0.51100000000E-03 0. -1.
</event>
<event>
 8    1  0.1086486E+005  0.1043930E+01  0.7957747E-01            NaN
         13   -1    0    0    0    0  0.00000000000E+00  0.00000000000E+00  0.74505805969E-08  0.10566000000E+00  0.10566000000E+00 0.  1.
     999900   -1    0    0    0    0 -0.00000000000E+00 -0.00000000000E+00 -0.74505805969E-08  0.93827000000E+00  0.93827000000E+00 0. -1.
     999902    2    1    2    0    0 -0.43397956226E-02  0.21570163905E-01  0.64880022193E-02  0.10209909510E+01  0.10207332276E+01 0.  0.
     999903    2    3    3    0    0  0.45980841858E-02  0.67960597627E-01  0.11288330657E+00  0.13332439263E+00  0.19823409368E-01 0.  0.
         14    1    1    2    0    0  0.43397956226E-02 -0.21570163905E-01 -0.64880022193E-02  0.22939049015E-01  0.00000000000E+00 0. -1.
     999901    1    3    3    0    0 -0.89378798083E-02 -0.46390433722E-01 -0.10639530435E+00  0.88766655836E+00  0.88000000000E+00 0. -1.
        -11    1    4    4    0    0  0.11984974967E-01  0.47537512149E-01  0.73603389466E-01  0.88437405820E-01  0.51100000000E-03 0.  1.
         11    1    4    4    0    0 -0.73868907812E-02  0.20423085479E-01  0.39279917105E-01  0.44886986808E-01  0.51100000000E-03 0. -1.
</event>
<event>
 8    1  0.1086486E+005  0.1043930E+01  0.7957747E-01            NaN
         13   -1    0    0    0    0  0.00000000000E+00  0.00000000000E+00  0.74505805969E-08  0.10566000000E+00  0.10566000000E+00 0. -1.
     999900   -1    0    0    0    0 -0.00000000000E+00 -0.00000000000E+00 -0.74505805969E-08  0.93827000000E+00  0.93827000000E+00 0.  1.
     999902    2    1    2    0    0  0.15120012245E-01  0.21245794618E-02 -0.17487092212E-01  0.10207151986E+01  0.10204511697E+01 0.  0.
     999903    2    3    3    0    0 -0.59007851566E-01  0.29086872726E-01 -0.11253001155E+00  0.13208982090E+00  0.21371583327E-01 0.  0.
         14    1    1    2    0    0 -0.15120012245E-01 -0.21245794618E-02  0.17487092212E-01  0.23214801360E-01  0.00000000000E+00 0. -1.
     999901    1    3    3    0    0  0.74127863811E-01 -0.26962293264E-01  0.95042919338E-01  0.88862537774E+00  0.88000000000E+00 0. -1.
        -11    1    4    4    0    0 -0.42681874372E-02  0.36139047165E-02 -0.16785791511E-02  0.58614401187E-02  0.51100000000E-03 0. -1.
         11    1    4    4    0    0 -0.54739664129E-01  0.25472968009E-01 -0.11085143240E+00  0.12622838078E+00  0.51100000000E-03 0.  1.
</event>
<event>
 7    1  0.1086486E+005  0.1043930E+01  0.7957747E-01            NaN
         13   -1    0    0    0    0  0.00000000000E+00  0.00000000000E+00  0.74505805969E-08  0.10566000000E+00  0.10566000000E+00 0.  1.
     999900   -1    0    0    0    0 -0.00000000000E+00 -0.00000000000E+00 -0.74505805969E-08  0.93827000000E+00  0.93827000000E+00 0.  1.
     999903    2    1    2    0    0  0.71006633196E-01 -0.45889323251E-01 -0.35970769909E-01  0.93938813996E-01  0.19566106942E-01 0.  0.
         14    1    1    2    0    0  0.32931730626E-01 -0.22495098055E-01 -0.41886114962E-01  0.57835758360E-01  0.00000000000E+00 0.  1.
     999901    1    1    2    0    0 -0.10393836382E+00  0.68384421306E-01  0.77856884871E-01  0.89215542764E+00  0.88000000000E+00 0.  1.
        -11    1    3    3    0    0  0.60670357718E-01 -0.43830002944E-01 -0.25497583633E-01  0.79071798739E-01  0.51100000000E-03 0. -1.
         11    1    3    3    0    0  0.10336275478E-01 -0.20593203073E-02 -0.10473186276E-01  0.14867015257E-01  0.51100000000E-03 0.  1.
</event>
<event>
 8    1  0.1086486E+005  0.1043930E+01  0.7957747E-01            NaN
         13   -1    0    0    0    0  0.00000000000E+00  0.00000000000E+00  0.74505805969E-08  0.10566000000E+00  0.10566000000E+00 0.  1.
     999900   -1    0    0    0    0 -0.00000000000E+00 -0.00000000000E+00 -0.74505805969E-08  0.93827000000E+00  0.93827000000E+00 0.  1.
     999902    2    1    2    0    0  0.18183044114E-01  0.11899928729E-01 -0.66566257066E-02  0.10212024383E+01  0.10209494982E+01 0.  0.
     999903    2    3    3    0    0  0.12517681555E+00 -0.34353155264E-01  0.21808103631E-01  0.13305985076E+00  0.19492461934E-01 0.  0.
         14    1    1    2    0    0 -0.18183044114E-01 -0.11899928729E-01  0.66566257066E-02  0.22727561743E-01  0.00000000000E+00 0.  1.
     999901    1    3    3    0    0 -0.10699377144E+00  0.46253083992E-01 -0.28464729337E-01  0.88814258749E+00  0.88000000000E+00 0. -1.
        -11    1    4    4    0    0  0.79640702241E-01 -0.20980977114E-01  0.42998101834E-02  0.82471766943E-01  0.51100000000E-03 0.  1.
         11    1    4    4    0    0  0.45536113312E-01 -0.13372178150E-01  0.17508293447E-01  0.50588083819E-01  0.51100000000E-03 0. -1.
</event>
<event>
 8    1  0.1086486E+005  0.1043930E+01  0.7957747E-01            NaN
         13   -1    0    0    0    0  0.00000000000E+00  0.00000000000E+00  0.74505805969E-08  0.10566000000E+00  0.10566000000E+00 0. -1.
     999900   -1    0    0    0    0 -0.00000000000E+00 -0.00000000000E+00 -0.74505805969E-08  0.93827000000E+00  0.93827000000E+00 0.  1.
     999902    2    1    2    0    0  0.11754677195E-01  0.10680440414E-01  0.17007726023E-01  0.10206596973E+01  0.10203943898E+01 0.  0.
     999903    2    3    3    0    0 -0.75942615443E-01 -0.10231341197E+00  0.58415549960E-02  0.12904144424E+00  0.19551354346E-01 0.  0.
         14    1    1    2    0    0 -0.11754677195E-01 -0.10680440414E-01 -0.17007726023E-01  0.23270302702E-01  0.00000000000E+00 0.  1.
     999901    1    3    3    0    0  0.87697292639E-01  0.11299385238E+00  0.11166171027E-01  0.89161825306E+00  0.88000000000E+00 0.  1.
        -11    1    4    4    0    0 -0.52074303819E-01 -0.83840775429E-01  0.33907564376E-02  0.98756099017E-01  0.51100000000E-03 0. -1.
         11    1    4    4    0    0 -0.23868311624E-01 -0.18472636542E-01  0.24507985584E-02  0.30285345221E-01  0.51100000000E-03 0.  1.
</event>
<event>
 8    1  0.1086486E+005  0.1043930E+01  0.7957747E-01            NaN
         13   -1    0    0    0    0  0.00000000000E+00  0.00000000000E+00  0.74505805969E-08  0.10566000000E+00  0.10566000000E+00 0. -1.
     999900   -1    0    0    0    0 -0.00000000000E+00 -0.00000000000E+00 -0.74505805969E-08  0.93827000000E+00  0.93827000000E+00 0. -1.
     999902    2    1    2    0    0 -0.46482928454E-02 -0.15174238306E-01  0.18113311927E-01  0.10198477201E+01  0.10195633458E+01 0.  0.
     999903    2    3    3    0    0 -0.38135609775E-01 -0.68699686900E-01 -0.10101843489E+00  0.12957880169E+00  0.20297042854E-01 0.  0.
         14    1    1    2    0    0  0.46482928454E-02  0.15174238306E-01 -0.18113311927E-01  0.24082279865E-01  0.00000000000E+00 0.  1.
     999901    1    3    3    0    0  0.33487316929E-01  0.53525448594E-01  0.11913174681E+00  0.89026891844E+00  0.88000000000E+00 0.  1.
        -11    1    4    4    0    0 -0.36188153235E-03 -0.66584989361E-02 -0.18356727988E-01  0.19537071166E-01  0.51100000000E-03 0. -1.
         11    1    4    4    0    0 -0.37773728242E-01 -0.62041187963E-01 -0.82661706898E-01  0.11004173053E+00  0.51100000000E-03 0.  1.
</event>
<event>
 8    1  0.1086486E+005  0.1043930E+01  0.7957747E-01            NaN
         13   -1    0    0    0    0  0.00000000000E+00  0.00000000000E+00  0.74505805969E-08  0.10566000000E+00  0.10566000000E+00 0. -1.
     999900   -1    0    0    0    0 -0.00000000000E+00 -0.00000000000E+00 -0.74505805969E-08  0.93827000000E+00  0.93827000000E+00 0. -1.
     999902    2    1    2    0    0  0.68602426183E-02  0.16323253221E-01  0.15145827547E-01  0.10206296220E+01  0.10203636203E+01 0.  0.
     999903    2    3    3    0    0 -0.19479683135E-01  0.54304795743E-01  0.11856436965E+00  0.13336878990E+00  0.20031362288E-01 0.  0.
         14    1    1    2    0    0 -0.68602426183E-02 -0.16323253221E-01 -0.15145827547E-01  0.23300378035E-01  0.00000000000E+00 0. -1.
     999901    1    3    3    0    0  0.26339925754E-01 -0.37981542522E-01 -0.10341854210E+00  0.88726083206E+00  0.88000000000E+00 0. -1.
        -11    1    4    4    0    0 -0.17826128170E-01  0.22321710875E-01  0.64201154011E-01  0.70271465897E-01  0.51100000000E-03 0.  1.
         11    1    4    4    0    0 -0.16535549659E-02  0.31983084868E-01  0.54363215635E-01  0.63097324007E-01  0.51100000000E-03 0. -1.
</event>
<event>
 8    1  0.1086486E+005  0.1043930E+01  0.7957747E-01            NaN
         13   -1    0    0    0    0  0.00000000000E+00  0.00000000000E+00  0.74505805969E-08  0.10566000000E+00  0.10566000000E+00 0.  1.
     999900   -1    0    0    0    0 -0.00000000000E+00 -0.00000000000E+00 -0.74505805969E-08  0.93827000000E+00  0.93827000000E+00 0.  1.
     999902    2    1    2    0    0 -0.18671596366E-01  0.95796422082E-02  0.10690840864E-01  0.10203780970E+01  0.10201062537E+01 0.  0.
     999903    2    3    3    0    0  0.16816374120E-01  0.54226332044E-01  0.11760530723E+00  0.13207441804E+00  0.19732158699E-01 0.  0.
         14    1    1    2    0    0  0.18671596366E-01 -0.95796422082E-02 -0.10690840864E-01  0.23551902982E-01  0.00000000000E+00 0.  1.
     999901    1    3    3    0    0 -0.35487970486E-01 -0.44646689836E-01 -0.10691446637E+00  0.88830367898E+00  0.88000000000E+00 0. -1.
        -11    1    4    4    0    0  0.99482298012E-02  0.37271396418E-01  0.57487499702E-01  0.69232925767E-01  0.51100000000E-03 0. -1.
         11    1    4    4    0    0  0.68681443184E-02  0.16954935625E-01  0.60117807528E-01  0.62841492276E-01  0.51100000000E-03 0.  1.
</event>
<event>
 8    1  0.1086486E+005  0.1043930E+01  0.7957747E-01            NaN
         13   -1    0    0    0    0  0.00000000000E+00  0.00000000000E+00  0.74505805969E-08  0.10566000000E+00  0.10566000000E+00 0.  1.
     999900   -1    0    0    0    0 -0.00000000000E+00 -0.00000000000E+00 -0.74505805969E-08  0.93827000000E+00  0.93827000000E+00 0.  1.
     999902    2    1    2    0    0 -0.48969221420E-02  0.23594501329E-01  0.34712854840E-02  0.10195839498E+01  0.10192932357E+01 0.  0.
     999903    2    3    3    0    0 -0.10201888077E+00  0.77155243957E-01  0.27357689456E-01  0.13230046164E+00  0.19854099656E-01 0.  0.
         14    1    1    2    0    0  0.48969221420E-02 -0.23594501329E-01 -0.34712854840E-02  0.24346050241E-01  0.00000000000E+00 0. -1.
     999901    1    3    3    0    0  0.97121958629E-01 -0.53560742629E-01 -0.23886403972E-01  0.88728348812E+00  0.88000000000E+00 0. -1.
        -11    1    4    4    0    0 -0.48018760010E-01  0.24086253698E-01  0.10865787053E-01  0.54811270551E-01  0.51100000000E-03 0. -1.
         11    1    4    4    0    0 -0.54000120761E-01  0.53068990259E-01  0.16491902403E-01  0.77489191087E-01  0.51100000000E-03 0.  1.
</event>
<event>
 8    1  0.1086486E+005  0.1043930E+01  0.7957747E-01            NaN
         13   -1    0    0    0    0  0.00000000000E+00  0.00000000000E+00  0.74505805969E-08  0.10566000000E+00  0.10566000000E+00 0.  1.
     999900   -1    0    0    0    0 -0.00000000000E+00 -0.00000000000E+00 -0.74505805969E-08  0.93827000000E+00  0.93827000000E+00 0.  1.
     999902    2    1    2    0    0 -0.82116334062E-02  0.15851247026E-01 -0.15618583615E-01  0.10202101115E+01  0.10199343305E+01 0.  0.
     999903    2    3    3    0    0  0.91582144041E-01 -0.53889539313E-01 -0.72254615322E-01  0.13002461659E+00  0.19856986906E-01 0.  0.
         14    1    1    2    0    0  0.82116334062E-02 -0.15851247026E-01  0.15618583615E-01  0.23719888482E-01  0.00000000000E+00 0.  1.
     999901    1    3    3    0    0 -0.99793777447E-01  0.69740786339E-01  0.56636031707E-01  0.89018549493E+00  0.88000000000E+00 0. -1.
        -11    1    4    4    0    0  0.62119648952E-01 -0.26543964979E-01 -0.40221546315E-01  0.78622304543E-01  0.51100000000E-03 0. -1.
         11    1    4    4    0    0  0.29462495089E-01 -0.27345574334E-01 -0.32033069007E-01  0.51402312045E-01  0.51100000000E-03 0.  1.
</event>
<event>
 8    1  0.1086486E+005  0.1043930E+01  0.7957747E-01            NaN
         13   -1    0    0    0    0  0.00000000000E+00  0.00000000000E+00  0.74505805969E-08  0.10566000000E+00  0.10566000000E+00 0.  1.
     999900   -1    0    0    0    0 -0.00000000000E+00 -0.00000000000E+00 -0.74505805969E-08  0.93827000000E+00  0.93827000000E+00 0. -1.
     999902    2    1    2    0    0 -0.14262612127E-01 -0.92985263004E-02  0.15923632166E-01  0.10206180555E+01  0.10203517866E+01 0.  0.
     999903    2    3    3    0    0 -0.18508444954E-01 -0.12514641777E+00 -0.30990616374E-01  0.13177627666E+00  0.20009507075E-01 0.  0.
         14    1    1    2    0    0  0.14262612127E-01  0.92985263004E-02 -0.15923632166E-01  0.23311944522E-01  0.00000000000E+00 0. -1.
     999901    1    3    3    0    0  0.42458328277E-02  0.11584789147E+00  0.46914248540E-01  0.88884177882E+00  0.88000000000E+00 0. -1.
        -11    1    4    4    0    0 -0.20164480343E-01 -0.79724485715E-01 -0.15018298352E-01  0.83596712235E-01  0.51100000000E-03 0.  1.
         11    1    4    4    0    0  0.16560353883E-02 -0.45421932050E-01 -0.15972318022E-01  0.48179564427E-01  0.51100000000E-03 0. -1.
</event>
<event>
 8    1  0.1086486E+005  0.1043930E+01  0.7957747E-01            NaN
         13   -1    0    0    0    0  0.00000000000E+00  0.00000000000E+00  0.74505805969E-08  0.10566000000E+00  0.10566000000E+00 0.  1.
     999900   -1    0    0    0    0 -0.00000000000E+00 -0.00000000000E+00 -0.74505805969E-08  0.93827000000E+00  0.93827000000E+00 0.  1.
     999902    2    1    2    0    0  0.19195678718E-01  0.52913879330E-02 -0.13000386796E-01  0.10201501151E+01  0.10198729207E+01 0.  0.
     999903    2    3    3    0    0  0.11842060586E+00 -0.22947302664E-01  0.49538922919E-01  0.13191919072E+00  0.19963702153E-01 0.  0.
         14    1    1    2    0    0 -0.19195678718E-01 -0.52913879330E-02  0.13000386796E-01  0.23779884873E-01  0.00000000000E+00 0.  1.
     999901    1    3    3    0    0 -0.99224927145E-01  0.28238690597E-01 -0.62539309716E-01  0.88823092441E+00  0.88000000000E+00 0.  1.
        -11    1    4    4    0    0  0.10375876780E+00 -0.21126506769E-01  0.50061759339E-01  0.11712664962E+00  0.51100000000E-03 0. -1.
         11    1    4    4    0    0  0.14661838065E-01 -0.18207958950E-02 -0.52283641902E-03  0.14792541096E-01  0.51100000000E-03 0.  1.
</event>
<event>
 8    1  0.1086486E+005  0.1043930E+01  0.7957747E-01            NaN
         13   -1    0    0    0    0  0.00000000000E+00  0.00000000000E+00  0.74505805969E-08  0.10566000000E+00  0.10566000000E+00 0.  1.
     999900   -1    0    0    0    0 -0.00000000000E+00 -0.00000000000E+00 -0.74505805969E-08  0.93827000000E+00  0.93827000000E+00 0. -1.
     999902    2    1    2    0    0  0.81957660097E-02 -0.18657861681E-01  0.35476416132E-02  0.10232449294E+01  0.10230358320E+01 0.  0.
     999903    2    3    3    0    0  0.27316999018E-01 -0.89220664177E-01 -0.95040232847E-01  0.13472689381E+00  0.20301347376E-01 0.  0.
         14    1    1    2    0    0 -0.81957660097E-02  0.18657861681E-01 -0.35476416132E-02  0.20685070559E-01  0.00000000000E+00 0. -1.
     999901    1    3    3    0    0 -0.19121233008E-01  0.70562802495E-01  0.98587874460E-01  0.88851803563E+00  0.88000000000E+00 0.  1.
        -11    1    4    4    0    0  0.85013997343E-02 -0.77538719515E-02 -0.15616930221E-01  0.19404792145E-01  0.51100000000E-03 0.  1.
         11    1    4    4    0    0  0.18815599283E-01 -0.81466792225E-01 -0.79423302626E-01  0.11532210167E+00  0.51100000000E-03 0. -1.
</event>
<event>
 8    1  0.1086486E+005  0.1043930E+01  0.7957747E-01            NaN
         13   -1    0    0    0    0  0.00000000000E+00  0.00000000000E+00  0.74505805969E-08  0.10566000000E+00  0.10566000000E+00 0.  1.
     999900   -1    0    0    0    0 -0.00000000000E+00 -0.00000000000E+00 -0.74505805969E-08  0.93827000000E+00  0.93827000000E+00 0.  1.
     999902    2    1    2    0    0 -0.16151357478E-01 -0.67474351628E-02  0.16977475044E-01  0.10195449864E+01  0.10192533298E+01 0.  0.
     999903    2    3    3    0    0  0.99797130963E-01 -0.32869209476E-01 -0.71179472400E-01  0.12718964997E+00  0.84165009413E-02 0.  0.
         14    1    1    2    0    0  0.16151357478E-01  0.67474351628E-02 -0.16977475044E-01  0.24385013605E-01  0.00000000000E+00 0. -1.
     999901    1    3    3    0    0 -0.11594848844E+00  0.26121774313E-01  0.88156947444E-01  0.89235533643E+00  0.88000000000E+00 0. -1.
        -11    1    4    4    0    0  0.14896157978E-01 -0.27973246438E-02 -0.12889310945E-01  0.19902663271E-01  0.51100000000E-03 0. -1.
         11    1    4    4    0    0  0.84900972985E-01 -0.30071884833E-01 -0.58290161455E-01  0.10728698670E+00  0.51100000000E-03 0.  1.
</event>
<event>
 8    1  0.1086486E+005  0.1043930E+01  0.7957747E-01            NaN
         13   -1    0    0    0    0  0.00000000000E+00  0.00000000000E+00  0.74505805969E-08  0.10566000000E+00  0.10566000000E+00 0.  1.
     999900   -1    0    0    0    0 -0.00000000000E+00 -0.00000000000E+00 -0.74505805969E-08  0.93827000000E+00  0.93827000000E+00 0. -1.
     999902    2    1    2    0    0 -0.22055430414E-01 -0.98303740463E-02 -0.52744770263E-03  0.10197772265E+01  0.10194911649E+01 0.  0.
     999903    2    3    3    0    0 -0.90350252642E-01 -0.12740755481E-01  0.93454297132E-01  0.13213697203E+00  0.20024453124E-01 0.  0.
         14    1    1    2    0    0  0.22055430414E-01  0.98303740463E-02  0.52744770263E-03  0.24152773458E-01  0.00000000000E+00 0.  1.
     999901    1    3    3    0    0  0.68294822228E-01  0.29103814344E-02 -0.93981744834E-01  0.88764025451E+00  0.88000000000E+00 0. -1.
        -11    1    4    4    0    0 -0.57497713810E-01  0.41295154388E-03  0.64504291198E-01  0.86413091174E-01  0.51100000000E-03 0. -1.
         11    1    4    4    0    0 -0.32852538832E-01 -0.13153707025E-01  0.28950005934E-01  0.45723880858E-01  0.51100000000E-03 0.  1.
</event>
<event>
 8    1  0.1086486E+005  0.1043930E+01  0.7957747E-01            NaN
         13   -1    0    0    0    0  0.00000000000E+00  0.00000000000E+00  0.74505805969E-08  0.10566000000E+00  0.10566000000E+00 0.  1.
     999900   -1    0    0    0    0 -0.00000000000E+00 -0.00000000000E+00 -0.74505805969E-08  0.93827000000E+00  0.93827000000E+00 0. -1.
     999902    2    1    2    0    0 -0.10099792410E-01 -0.21172005214E-01 -0.18685444335E-02  0.10203980840E+01  0.10201267072E+01 0.  0.
     999903    2    3    3    0    0 -0.82973995134E-01  0.83847876440E-01  0.50217338676E-01  0.12963842834E+00  0.19214337004E-01 0.  0.
         14    1    1    2    0    0  0.10099792410E-01  0.21172005214E-01  0.18685444335E-02  0.23531915982E-01  0.00000000000E+00 0.  1.
     999901    1    3    3    0    0  0.72874202724E-01 -0.10501988165E+00 -0.52085883110E-01  0.89075965568E+00  0.88000000000E+00 0. -1.
        -11    1    4    4    0    0 -0.11334582256E-01  0.16211266127E-01  0.15640384981E-01  0.25222225669E-01  0.51100000000E-03 0. -1.
         11    1    4    4    0    0 -0.71639412878E-01  0.67636610313E-01  0.34576953695E-01  0.10441620267E+00  0.51100000000E-03 0.  1.
</event>
<event>
 8    1  0.1086486E+005  0.1043930E+01  0.7957747E-01            NaN
         13   -1    0    0    0    0  0.00000000000E+00  0.00000000000E+00  0.74505805969E-08  0.10566000000E+00  0.10566000000E+00 0.  1.
     999900   -1    0    0    0    0 -0.00000000000E+00 -0.00000000000E+00 -0.74505805969E-08  0.93827000000E+00  0.93827000000E+00 0. -1.
     999902    2    1    2    0    0  0.21321284253E-01 -0.85914806647E-02 -0.62731288004E-02  0.10201022253E+01  0.10198239001E+01 0.  0.
     999903    2    3    3    0    0 -0.90803340799E-01 -0.88909417921E-01  0.11825117267E-01  0.12917548920E+00  0.19908347902E-01 0.  0.
         14    1    1    2    0    0 -0.21321284253E-01  0.85914806647E-02  0.62731288004E-02  0.23827774700E-01  0.00000000000E+00 0.  1.
     999901    1    3    3    0    0  0.11212462505E+00  0.80317937256E-01 -0.18098246067E-01  0.89092673610E+00  0.88000000000E+00 0. -1.
        -11    1    4    4    0    0 -0.27780090175E-01 -0.36929380238E-01  0.10865705863E-01  0.47474595520E-01  0.51100000000E-03 0. -1.
         11    1    4    4    0    0 -0.63023250624E-01 -0.51980037683E-01  0.95941140367E-03  0.81700893679E-01  0.51100000000E-03 0.  1.
</event>
<event>
 8    1  0.1086486E+005  0.1043930E+01  0.7957747E-01            NaN
         13   -1    0    0    0    0  0.00000000000E+00  0.00000000000E+00  0.74505805969E-08  0.10566000000E+00  0.10566000000E+00 0.  1.
     999900   -1    0    0    0    0 -0.00000000000E+00 -0.00000000000E+00 -0.74505805969E-08  0.93827000000E+00  0.93827000000E+00 0. -1.
     999902    2    1    2    0    0 -0.14748373226E-02 -0.22053419255E-01  0.69120508020E-02  0.10207717425E+01  0.10205090129E+01 0.  0.
     999903    2    3    3    0    0  0.60436520834E-01  0.79983029608E-01  0.79954164773E-01  0.12971641108E+00  0.19591344102E-01 0.  0.
         14    1    1    2    0    0  0.14748373226E-02  0.22053419255E-01 -0.69120508020E-02  0.23158257539E-01  0.00000000000E+00 0. -1.
     999901    1    3    3    0    0 -0.61911358156E-01 -0.10203644886E+00 -0.73042113971E-01  0.89105533138E+00  0.88000000000E+00 0. -1.
        -11    1    4    4    0    0  0.12974882965E-01  0.20645944312E-01  0.30510191840E-01  0.39060664761E-01  0.51100000000E-03 0. -1.
         11    1    4    4    0    0  0.47461637868E-01  0.59337085296E-01  0.49443972934E-01  0.90655746321E-01  0.51100000000E-03 0.  1.
</event>
<event>
 8    1  0.1086486E+005  0.1043930E+01  0.7957747E-01            NaN
         13   -1    0    0    0    0  0.00000000000E+00  0.00000000000E+00  0.74505805969E-08  0.10566000000E+00  0.10566000000E+00 0. -1.
     999900   -1    0    0    0    0 -0.00000000000E+00 -0.00000000000E+00 -0.74505805969E-08  0.93827000000E+00  0.93827000000E+00 0. -1.
     999902    2    1    2    0    0  0.12116960213E-01 -0.13974862914E-01  0.14946729000E-01  0.10201492888E+01  0.10198720749E+01 0.  0.
     999903    2    3    3    0    0  0.83528418334E-01 -0.10111264631E+00 -0.57148018711E-02  0.13272634086E+00  0.19566774978E-01 0.  0.
         14    1    1    2    0    0 -0.12116960213E-01  0.13974862914E-01 -0.14946729000E-01  0.23780711219E-01  0.00000000000E+00 0.  1.
     999901    1    3    3    0    0 -0.71411458121E-01  0.87137783398E-01  0.20661530871E-01  0.88742294793E+00  0.88000000000E+00 0.  1.
        -11    1    4    4    0    0  0.27529927075E-01 -0.47270317478E-01 -0.60606861003E-02  0.55039738700E-01  0.51100000000E-03 0. -1.
         11    1    4    4    0    0  0.55998491259E-01 -0.53842328834E-01  0.34588422923E-03  0.77686602156E-01  0.51100000000E-03 0.  1.
</event>
<event>
 8    1  0.1086486E+005  0.1043930E+01  0.7957747E-01            NaN
         13   -1    0    0    0    0  0.00000000000E+00  0.00000000000E+00  0.74505805969E-08  0.10566000000E+00  0.10566000000E+00 0. -1.
     999900   -1    0    0    0    0 -0.00000000000E+00 -0.00000000000E+00 -0.74505805969E-08  0.93827000000E+00  0.93827000000E+00 0.  1.
     999902    2    1    2    0    0  0.18847590722E-01 -0.99136521085E-02  0.11145524494E-01  0.10198938836E+01  0.10196106114E+01 0.  0.
     999903    2    3    3    0    0 -0.10149430839E+00 -0.98797768359E-02  0.76649176714E-01  0.12929133350E+00  0.21034448005E-01 0.  0.
         14    1    1    2    0    0 -0.18847590722E-01  0.99136521085E-02 -0.11145524494E-01  0.24036116375E-01  0.00000000000E+00 0.  1.
     999901    1    3    3    0    0  0.12034189911E+00 -0.33875272552E-04 -0.65503652219E-01  0.89060255012E+00  0.88000000000E+00 0.  1.
        -11    1    4    4    0    0 -0.73551005812E-01 -0.16312173744E-01  0.52921305435E-01  0.92069338861E-01  0.51100000000E-03 0. -1.
         11    1    4    4    0    0 -0.27943302575E-01  0.64323969083E-02  0.23727871278E-01  0.37221994643E-01  0.51100000000E-03 0.  1.
</event>
<event>
 8    1  0.1086486E+005  0.1043930E+01  0.7957747E-01            NaN
         13   -1    0    0    0    0  0.00000000000E+00  0.00000000000E+00  0.74505805969E-08  0.10566000000E+00  0.10566000000E+00 0. -1.
     999900   -1    0    0    0    0 -0.00000000000E+00 -0.00000000000E+00 -0.74505805969E-08  0.93827000000E+00  0.93827000000E+00 0. -1.
     999902    2    1    2    0    0 -0.22610024312E-01 -0.30962186299E-03  0.15853895556E-02  0.10212623463E+01  0.10210107528E+01 0.  0.
     999903    2    3    3    0    0  0.45000621436E-01  0.10390047388E+00 -0.61547411445E-01  0.13029843341E+00  0.19215449306E-01 0.  0.
         14    1    1    2    0    0  0.22610024312E-01  0.30962186299E-03 -0.15853895556E-02  0.22667653719E-01  0.00000000000E+00 0. -1.
     999901    1    3    3    0    0 -0.67610645748E-01 -0.10421009574E+00  0.63132801001E-01  0.89096391287E+00  0.88000000000E+00 0.  1.
        -11    1    4    4    0    0  0.39430070399E-01  0.73223790166E-01 -0.39246233218E-01  0.91961849921E-01  0.51100000000E-03 0.  1.
         11    1    4    4    0    0  0.55705510368E-02  0.30676683713E-01 -0.22301178227E-01  0.38336583491E-01  0.51100000000E-03 0. -1.
</event>
<event>
 7    1  0.1086486E+005  0.1043930E+01  0.7957747E-01            NaN
         13   -1    0    0    0    0  0.00000000000E+00  0.00000000000E+00  0.74505805969E-08  0.10566000000E+00  0.10566000000E+00 0. -1.
     999900   -1    0    0    0    0 -0.00000000000E+00 -0.00000000000E+00 -0.74505805969E-08  0.93827000000E+00  0.93827000000E+00 0.  1.
     999902    2    1    2    0    0  0.99229139147E-02  0.21530810180E-01 -0.34920313741E-02  0.10199668138E+01  0.10196852784E+01 0.  0.
         14    1    1    2    0    0 -0.99229139147E-02 -0.21530810180E-01  0.34920313741E-02  0.23963186154E-01  0.00000000000E+00 0. -1.
     999901    1    3    3    0    0 -0.79390355107E-01  0.86743199937E-01  0.48740534782E-01  0.88915850721E+00  0.88000000000E+00 0. -1.
        -11    1    3    3    0    0  0.81580538370E-02 -0.21752280847E-01 -0.26444918453E-01  0.35203840663E-01  0.51100000000E-03 0.  1.
         11    1    3    3    0    0  0.81155215185E-01 -0.43460108910E-01 -0.25787647703E-01  0.95604465969E-01  0.51100000000E-03 0. -1.
</event>
<event>
 8    1  0.1086486E+005  0.1043930E+01  0.7957747E-01            NaN
         13   -1    0    0    0    0  0.00000000000E+00  0.00000000000E+00  0.74505805969E-08  0.10566000000E+00  0.10566000000E+00 0. -1.
     999900   -1    0    0    0    0 -0.00000000000E+00 -0.00000000000E+00 -0.74505805969E-08  0.93827000000E+00  0.93827000000E+00 0. -1.
     999902    2    1    2    0    0 -0.10442138882E-01  0.15427598182E-01 -0.14776465653E-01  0.10201520062E+01  0.10198748565E+01 0.  0.
     999903    2    3    3    0    0  0.10463993292E+00  0.56042337205E-01 -0.51340676710E-01  0.13097801775E+00  0.20715137640E-01 0.  0.
         14    1    1    2    0    0  0.10442138882E-01 -0.15427598182E-01  0.14776465653E-01  0.23777993761E-01  0.00000000000E+00 0. -1.
     999901    1    3    3    0    0 -0.11508207180E+00 -0.40614739024E-01  0.36564211057E-01  0.88917398849E+00  0.88000000000E+00 0.  1.
        -11    1    4    4    0    0  0.54026848403E-01  0.39410449788E-01 -0.33462236712E-01  0.74780119736E-01  0.51100000000E-03 0.  1.
         11    1    4    4    0    0  0.50613084517E-01  0.16631887417E-01 -0.17878439997E-01  0.56197898013E-01  0.51100000000E-03 0. -1.
</event>
<event>
 8    1  0.1086486E+005  0.1043930E+01  0.7957747E-01            NaN
         13   -1    0    0    0    0  0.00000000000E+00  0.00000000000E+00  0.74505805969E-08  0.10566000000E+00  0.10566000000E+00 0. -1.
     999900   -1    0    0    0    0 -0.00000000000E+00 -0.00000000000E+00 -0.74505805969E-08  0.93827000000E+00  0.93827000000E+00 0.  1.
     999902    2    1    2    0    0 -0.95104443313E-02 -0.11047755090E-02 -0.21617830952E-01  0.10202868256E+01  0.10200128464E+01 0.  0.
     999903    2    3    3    0    0  0.66840150741E-01 -0.87207888367E-01 -0.69340458328E-01  0.13151204616E+00  0.20359213648E-01 0.  0.
         14    1    1    2    0    0  0.95104443313E-02  0.11047755090E-02  0.21617830952E-01  0.23643174393E-01  0.00000000000E+00 0. -1.
     999901    1    3    3    0    0 -0.76350595072E-01  0.86103112858E-01  0.47722627376E-01  0.88877477944E+00  0.88000000000E+00 0. -1.
        -11    1    4    4    0    0  0.27980331840E-01 -0.21083867540E-01 -0.20958734285E-01  0.40828398257E-01  0.51100000000E-03 0.  1.
         11    1    4    4    0    0  0.38859818900E-01 -0.66124020827E-01 -0.48381724043E-01  0.90683647906E-01  0.51100000000E-03 0. -1.
</event>
<event>
 8    1  0.1086486E+005  0.1043930E+01  0.7957747E-01            NaN
         13   -1    0    0    0    0  0.00000000000E+00  0.00000000000E+00  0.74505805969E-08  0.10566000000E+00  0.10566000000E+00 0. -1.
     999900   -1    0    0    0    0 -0.00000000000E+00 -0.00000000000E+00 -0.74505805969E-08  0.93827000000E+00  0.93827000000E+00 0. -1.
     999902    2    1    2    0    0  0.88854162307E-02  0.23774152172E-01 -0.58032564374E-02  0.10178946640E+01  0.10175616484E+01 0.  0.
     999903    2    3    3    0    0  0.11601907116E+00  0.56511326542E-01  0.67921139987E-02  0.13070359896E+00  0.19579148832E-01 0.  0.
         14    1    1    2    0    0 -0.88854162307E-02 -0.23774152172E-01  0.58032564374E-02  0.26035335957E-01  0.00000000000E+00 0. -1.
     999901    1    3    3    0    0 -0.10713365493E+00 -0.32737174369E-01 -0.12595370436E-01  0.88719106508E+00  0.88000000000E+00 0. -1.
        -11    1    4    4    0    0  0.68400073304E-01  0.43036686357E-01  0.79007418097E-02  0.81199810608E-01  0.51100000000E-03 0.  1.
         11    1    4    4    0    0  0.47618997855E-01  0.13474640185E-01 -0.11086278111E-02  0.49503788354E-01  0.51100000000E-03 0. -1.
</event>
<event>
 8    1  0.1086486E+005  0.1043930E+01  0.7957747E-01            NaN
         13   -1    0    0    0    0  0.00000000000E+00  0.00000000000E+00  0.74505805969E-08  0.10566000000E+00  0.10566000000E+00 0.  1.
     999900   -1    0    0    0    0 -0.00000000000E+00 -0.00000000000E+00 -0.74505805969E-08  0.93827000000E+00  0.93827000000E+00 0. -1.
     999902    2    1    2    0    0 -0.59528175178E-02  0.16049539829E-01  0.13391876844E-01  0.10221960144E+01  0.10219649337E+01 0.  0.
     999903    2    3    3    0    0  0.12245925654E+00  0.26301806052E-01  0.37332674365E-01  0.13249497948E+00  0.21751701055E-01 0.  0.
         14    1    1    2    0    0  0.59528175178E-02 -0.16049539829E-01 -0.13391876844E-01  0.21733985611E-01  0.00000000000E+00 0. -1.
     999901    1    3    3    0    0 -0.12841207406E+00 -0.10252266223E-01 -0.23940797520E-01  0.88970103491E+00  0.88000000000E+00 0.  1.
        -11    1    4    4    0    0  0.28359805141E-01 -0.31141752418E-02  0.85189515782E-02  0.29779360169E-01  0.51100000000E-03 0.  1.
         11    1    4    4    0    0  0.94099451400E-01  0.29415981294E-01  0.28813722786E-01  0.10271561931E+00  0.51100000000E-03 0. -1.
</event>
<event>
 8    1  0.1086486E+005  0.1043930E+01  0.7957747E-01            NaN
         13   -1    0    0    0    0  0.00000000000E+00  0.00000000000E+00  0.74505805969E-08  0.10566000000E+00  0.10566000000E+00 0.  1.
     999900   -1    0    0    0    0 -0.00000000000E+00 -0.00000000000E+00 -0.74505805969E-08  0.93827000000E+00  0.93827000000E+00 0.  1.
     999902    2    1    2    0    0 -0.72561453626E-02  0.12268021313E-01 -0.17597049281E-01  0.10212846443E+01  0.10210335511E+01 0.  0.
     999903    2    3    3    0    0 -0.52727294153E-01  0.22790969197E-03  0.11695558055E+00  0.12981563200E+00  0.19831061415E-01 0.  0.
         14    1    1    2    0    0  0.72561453626E-02 -0.12268021313E-01  0.17597049281E-01  0.22645355724E-01  0.00000000000E+00 0.  1.
     999901    1    3    3    0    0  0.45471148790E-01  0.12040111621E-01 -0.13455262983E+00  0.89146901228E+00  0.88000000000E+00 0.  1.
        -11    1    4    4    0    0 -0.27693891239E-01  0.98711293200E-03  0.38364538213E-01  0.47328901500E-01  0.51100000000E-03 0. -1.
         11    1    4    4    0    0 -0.25033402913E-01 -0.75920324003E-03  0.78591042339E-01  0.82486730496E-01  0.51100000000E-03 0.  1.
</event>
<event>
 8    1  0.1086486E+005  0.1043930E+01  0.7957747E-01            NaN
         13   -1    0    0    0    0  0.00000000000E+00  0.00000000000E+00  0.74505805969E-08  0.10566000000E+00  0.10566000000E+00 0.  1.
     999900   -1    0    0    0    0 -0.00000000000E+00 -0.00000000000E+00 -0.74505805969E-08  0.93827000000E+00  0.93827000000E+00 0. -1.
     999902    2    1    2    0    0 -0.20157561214E-01  0.36236013663E-02 -0.14131595414E-01  0.10190470792E+01  0.10187432404E+01 0.  0.
     999903    2    3    3    0    0  0.21666654975E-01 -0.11181135722E+00  0.54352484284E-01  0.12788796659E+00  0.20734413666E-01 0.  0.
         14    1    1    2    0    0  0.20157561214E-01 -0.36236013663E-02  0.14131595414E-01  0.24882920847E-01  0.00000000000E+00 0. -1.
     999901    1    3    3    0    0 -0.41824216189E-01  0.11543495859E+00 -0.68484079698E-01  0.89115911256E+00  0.88000000000E+00 0.  1.
        -11    1    4    4    0    0  0.71580656791E-02 -0.37573022069E-01  0.77161531285E-02  0.39022686117E-01  0.51100000000E-03 0. -1.
         11    1    4    4    0    0  0.14508589296E-01 -0.74238335153E-01  0.46636331156E-01  0.88865280477E-01  0.51100000000E-03 0.  1.
</event>
<event>
 8    1  0.1086486E+005  0.1043930E+01  0.7957747E-01            NaN
         13   -1    0    0    0    0  0.00000000000E+00  0.00000000000E+00  0.74505805969E-08  0.10566000000E+00  0.10566000000E+00 0.  1.
     999900   -1    0    0    0    0 -0.00000000000E+00 -0.00000000000E+00 -0.74505805969E-08  0.93827000000E+00  0.93827000000E+00 0. -1.
     999902    2    1    2    0    0  0.22362519462E-01 -0.15310329535E-01  0.98381882395E-03  0.10168107012E+01  0.10164489883E+01 0.  0.
     999903    2    3    3    0    0 -0.86288037160E-01 -0.84178650637E-01 -0.33901163223E-01  0.12677432495E+00  0.19767903729E-01 0.  0.
         14    1    1    2    0    0 -0.22362519462E-01  0.15310329535E-01 -0.98381882395E-03  0.27119298786E-01  0.00000000000E+00 0. -1.
     999901    1    3    3    0    0  0.10865055662E+00  0.68868321102E-01  0.34884982047E-01  0.89003637627E+00  0.88000000000E+00 0.  1.
        -11    1    4    4    0    0 -0.20524852767E-01 -0.13606080754E-01 -0.13814458545E-01  0.28239961057E-01  0.51100000000E-03 0.  1.
         11    1    4    4    0    0 -0.65763184393E-01 -0.70572569883E-01 -0.20086704678E-01  0.98534363890E-01  0.51100000000E-03 0. -1.
</event>
<event>
 8    1  0.1086486E+005  0.1043930E+01  0.7957747E-01            NaN
         13   -1    0    0    0    0  0.00000000000E+00  0.00000000000E+00  0.74505805969E-08  0.10566000000E+00  0.10566000000E+00 0. -1.
     999900   -1    0    0    0    0 -0.00000000000E+00 -0.00000000000E+00 -0.74505805969E-08  0.93827000000E+00  0.93827000000E+00 0. -1.
     999902    2    1    2    0    0  0.19971944077E-01  0.10368768879E-02 -0.10089317040E-01  0.10215302683E+01  0.10212846523E+01 0.  0.
     999903    2    3    3    0    0 -0.73775588963E-02  0.59289027625E-01  0.11421249682E+00  0.13046784098E+00  0.20192719674E-01 0.  0.
         14    1    1    2    0    0 -0.19971944077E-01 -0.10368768879E-02  0.10089317040E-01  0.22399731745E-01  0.00000000000E+00 0. -1.
     999901    1    3    3    0    0  0.27349502973E-01 -0.58252150737E-01 -0.12430181386E+00  0.89106242728E+00  0.88000000000E+00 0. -1.
        -11    1    4    4    0    0  0.11996502979E-02  0.18815507680E-01  0.19584633588E-01  0.27189731221E-01  0.51100000000E-03 0.  1.
         11    1    4    4    0    0 -0.85772091943E-02  0.40473519945E-01  0.94627863230E-01  0.10327810976E+00  0.51100000000E-03 0. -1.
</event>
<event>
 8    1  0.1086486E+005  0.1043930E+01  0.7957747E-01            NaN
         13   -1    0    0    0    0  0.00000000000E+00  0.00000000000E+00  0.74505805969E-08  0.10566000000E+00  0.10566000000E+00 0. -1.
     999900   -1    0    0    0    0 -0.00000000000E+00 -0.00000000000E+00 -0.74505805969E-08  0.93827000000E+00  0.93827000000E+00 0. -1.
     999902    2    1    2    0    0  0.11156728701E-01 -0.21144898029E-01 -0.56348812499E-02  0.10193671990E+01  0.10190712218E+01 0.  0.
     999903    2    3    3    0    0 -0.10982698673E+00  0.29949138148E-01  0.54549850439E-01  0.12758815578E+00  0.18550833503E-01 0.  0.
         14    1    1    2    0    0 -0.11156728701E-01  0.21144898029E-01  0.56348812499E-02  0.24562801034E-01  0.00000000000E+00 0.  1.
     999901    1    3    3    0    0  0.12098371543E+00 -0.51094036176E-01 -0.60184731689E-01  0.89177904318E+00  0.88000000000E+00 0.  1.
        -11    1    4    4    0    0 -0.49550091856E-01  0.10246452481E-01  0.33844849427E-01  0.60876402202E-01  0.51100000000E-03 0.  1.
         11    1    4    4    0    0 -0.60276894872E-01  0.19702685667E-01  0.20705001013E-01  0.66711753581E-01  0.51100000000E-03 0. -1.
</event>
<event>
 8    1  0.1086486E+005  0.1043930E+01  0.7957747E-01            NaN
         13   -1    0    0    0    0  0.00000000000E+00  0.00000000000E+00  0.74505805969E-08  0.10566000000E+00  0.10566000000E+00 0.  1.
     999900   -1    0    0    0    0 -0.00000000000E+00 -0.00000000000E+00 -0.74505805969E-08  0.93827000000E+00  0.93827000000E+00 0. -1.
     999902    2    1    2    0    0  0.16950672903E-01  0.10627938206E-01 -0.10968789463E-01  0.10211134989E+01  0.10208585528E+01 0.  0.
     999903    2    3    3    0    0 -0.65622558745E-01 -0.33101985525E-01  0.10371165910E+00  0.12876701340E+00  0.20561465054E-01 0.  0.
         14    1    1    2    0    0 -0.16950672903E-01 -0.10627938206E-01  0.10968789463E-01  0.22816501148E-01  0.00000000000E+00 0.  1.
     999901    1    3    3    0    0  0.82573231648E-01  0.43729923731E-01 -0.11468044856E+00  0.89234648545E+00  0.88000000000E+00 0. -1.
        -11    1    4    4    0    0 -0.26160037570E-01 -0.12133976661E-01  0.58350564484E-01  0.65089403530E-01  0.51100000000E-03 0. -1.
         11    1    4    4    0    0 -0.39462521175E-01 -0.20968008864E-01  0.45361094614E-01  0.63677609870E-01  0.51100000000E-03 0.  1.
</event>
<event>
 8    1  0.1086486E+005  0.1043930E+01  0.7957747E-01            NaN
         13   -1    0    0    0    0  0.00000000000E+00  0.00000000000E+00  0.74505805969E-08  0.10566000000E+00  0.10566000000E+00 0. -1.
     999900   -1    0    0    0    0 -0.00000000000E+00 -0.00000000000E+00 -0.74505805969E-08  0.93827000000E+00  0.93827000000E+00 0.  1.
     999902    2    1    2    0    0  0.21436753669E-01 -0.62415375163E-03 -0.97079910317E-02  0.10203892042E+01  0.10201176202E+01 0.  0.
     999903    2    3    3    0    0 -0.10298378481E+00 -0.47906750521E-01 -0.57911627650E-01  0.12907573247E+00  0.20151213797E-01 0.  0.
         14    1    1    2    0    0 -0.21436753669E-01  0.62415375163E-03  0.97079910317E-02  0.23540795773E-01  0.00000000000E+00 0.  1.
     999901    1    3    3    0    0  0.12442053847E+00  0.47282596769E-01  0.48203636618E-01  0.89131347176E+00  0.88000000000E+00 0. -1.
        -11    1    4    4    0    0 -0.72318137243E-01 -0.24324730135E-01 -0.33511244628E-01  0.83335887275E-01  0.51100000000E-03 0. -1.
         11    1    4    4    0    0 -0.30665647562E-01 -0.23582020386E-01 -0.24400383022E-01  0.45739845196E-01  0.51100000000E-03 0.  1.
</event>
<event>
 8    1  0.1086486E+005  0.1043930E+01  0.7957747E-01            NaN
         13   -1    0    0    0    0  0.00000000000E+00  0.00000000000E+00  0.74505805969E-08  0.10566000000E+00  0.10566000000E+00 0. -1.
     999900   -1    0    0    0    0 -0.00000000000E+00 -0.00000000000E+00 -0.74505805969E-08  0.93827000000E+00  0.93827000000E+00 0. -1.
     999902    2    1    2    0    0  0.10313712259E-01 -0.11212526396E-01 -0.17878421318E-01  0.10204410375E+01  0.10201706621E+01 0.  0.
     999903    2    3    3    0    0  0.60242606736E-01 -0.72858355839E-01 -0.92409053990E-01  0.13373481900E+00  0.20200417591E-01 0.  0.
         14    1    1    2    0    0 -0.10313712259E-01  0.11212526396E-01  0.17878421318E-01  0.23488962463E-01  0.00000000000E+00 0. -1.
     999901    1    3    3    0    0 -0.49928894476E-01  0.61645829443E-01  0.74530632672E-01  0.88670621854E+00  0.88000000000E+00 0.  1.
        -11    1    4    4    0    0  0.29998157516E-01 -0.27542810952E-01 -0.28266492545E-01  0.49575715943E-01  0.51100000000E-03 0. -1.
         11    1    4    4    0    0  0.30244449220E-01 -0.45315544887E-01 -0.64142561445E-01  0.84159103054E-01  0.51100000000E-03 0.  1.
</event>
<event>
 8    1  0.1086486E+005  0.1043930E+01  0.7957747E-01            NaN
         13   -1    0    0    0    0  0.00000000000E+00  0.00000000000E+00  0.74505805969E-08  0.10566000000E+00  0.10566000000E+00 0.  1.
     999900   -1    0    0    0    0 -0.00000000000E+00 -0.00000000000E+00 -0.74505805969E-08  0.93827000000E+00  0.93827000000E+00 0. -1.
     999902    2    1    2    0    0  0.48607660865E-02  0.22161770994E-02 -0.23712417556E-01  0.10196232677E+01  0.10193335032E+01 0.  0.
     999903    2    3    3    0    0 -0.10632503146E+00  0.20912523026E-01  0.65045565875E-01  0.12800125445E+00  0.20274357368E-01 0.  0.
         14    1    1    2    0    0 -0.48607660865E-02 -0.22161770994E-02  0.23712417556E-01  0.24306732283E-01  0.00000000000E+00 0.  1.
     999901    1    3    3    0    0  0.11118579754E+00 -0.18696345927E-01 -0.88757983431E-01  0.89162201327E+00  0.88000000000E+00 0. -1.
        -11    1    4    4    0    0 -0.41070765532E-01  0.13482583240E-01  0.16260982771E-01  0.46187319839E-01  0.51100000000E-03 0. -1.
         11    1    4    4    0    0 -0.65254265923E-01  0.74299397866E-02  0.48784583104E-01  0.81813934608E-01  0.51100000000E-03 0.  1.
</event>
<event>
 8    1  0.1086486E+005  0.1043930E+01  0.7957747E-01            NaN
         13   -1    0    0    0    0  0.00000000000E+00  0.00000000000E+00  0.74505805969E-08  0.10566000000E+00  0.10566000000E+00 0.  1.
     999900   -1    0    0    0    0 -0.00000000000E+00 -0.00000000000E+00 -0.74505805969E-08  0.93827000000E+00  0.93827000000E+00 0. -1.
     999902    2    1    2    0    0  0.11835970449E-01 -0.24877362286E-01 -0.42791059672E-02  0.10160501847E+01  0.10156676099E+01 0.  0.
     999903    2    3    3    0    0  0.10387103737E+00 -0.39060859127E-01 -0.62939645608E-01  0.12919468127E+00  0.20369672533E-01 0.  0.
         14    1    1    2    0    0 -0.11835970449E-01  0.24877362286E-01  0.42791059672E-02  0.27879815255E-01  0.00000000000E+00 0.  1.
     999901    1    3    3    0    0 -0.92035066926E-01  0.14183496841E-01  0.58660539641E-01  0.88685550347E+00  0.88000000000E+00 0. -1.
        -11    1    4    4    0    0  0.10387737825E-01 -0.65373551656E-02 -0.76838974175E-03  0.12308275812E-01  0.51100000000E-03 0. -1.
         11    1    4    4    0    0  0.93483299549E-01 -0.32523503962E-01 -0.62171255866E-01  0.11688640546E+00  0.51100000000E-03 0.  1.
</event>
<event>
 8    1  0.1086486E+005  0.1043930E+01  0.7957747E-01            NaN
         13   -1    0    0    0    0  0.00000000000E+00  0.00000000000E+00  0.74505805969E-08  0.10566000000E+00  0.10566000000E+00 0.  1.
     999900   -1    0    0    0    0 -0.00000000000E+00 -0.00000000000E+00 -0.74505805969E-08  0.93827000000E+00  0.93827000000E+00 0. -1.
     999902    2    1    2    0    0 -0.13932594733E-01 -0.16654443433E-01 -0.70170820830E-02  0.10211105538E+01  0.10208555412E+01 0.  0.
     999903    2    3    3    0    0  0.47657055500E-03 -0.13164823601E+00  0.71052779153E-02  0.13339965640E+00  0.20334654928E-01 0.  0.
         14    1    1    2    0    0  0.13932594733E-01  0.16654443433E-01  0.70170820830E-02  0.22819446159E-01  0.00000000000E+00 0.  1.
     999901    1    3    3    0    0 -0.14409165288E-01  0.11499379258E+00 -0.14122359998E-01  0.88771089744E+00  0.88000000000E+00 0.  1.
        -11    1    4    4    0    0  0.14868560988E-02 -0.31888777349E-01 -0.68740693107E-02  0.32659130603E-01  0.51100000000E-03 0. -1.
         11    1    4    4    0    0 -0.10102855438E-02 -0.99759458660E-01  0.13979347226E-01  0.10074052580E+00  0.51100000000E-03 0.  1.
</event>
<event>
 8    1  0.1086486E+005  0.1043930E+01  0.7957747E-01            NaN
         13   -1    0    0    0    0  0.00000000000E+00  0.00000000000E+00  0.74505805969E-08  0.10566000000E+00  0.10566000000E+00 0. -1.
     999900   -1    0    0    0    0 -0.00000000000E+00 -0.00000000000E+00 -0.74505805969E-08  0.93827000000E+00  0.93827000000E+00 0. -1.
     999902    2    1    2    0    0  0.98664605100E-02 -0.13203822121E-01  0.18931132402E-01  0.10188286906E+01  0.10185194279E+01 0.  0.
     999903    2    3    3    0    0  0.60246580203E-01 -0.10208957863E+00  0.54898470560E-01  0.13218756610E+00  0.20193515574E-01 0.  0.
         14    1    1    2    0    0 -0.98664605100E-02  0.13203822121E-01 -0.18931132402E-01  0.25101309441E-01  0.00000000000E+00 0.  1.
     999901    1    3    3    0    0 -0.50380119693E-01  0.88885756505E-01 -0.35967338158E-01  0.88664112446E+00  0.88000000000E+00 0.  1.
        -11    1    4    4    0    0  0.68639756988E-02 -0.24985000864E-01  0.68124424284E-02  0.26796173671E-01  0.51100000000E-03 0.  1.
         11    1    4    4    0    0  0.53382604504E-01 -0.77104577762E-01  0.48086028131E-01  0.10539139243E+00  0.51100000000E-03 0. -1.
</event>
<event>
 8    1  0.1086486E+005  0.1043930E+01  0.7957747E-01            NaN
         13   -1    0    0    0    0  0.00000000000E+00  0.00000000000E+00  0.74505805969E-08  0.10566000000E+00  0.10566000000E+00 0. -1.
     999900   -1    0    0    0    0 -0.00000000000E+00 -0.00000000000E+00 -0.74505805969E-08  0.93827000000E+00  0.93827000000E+00 0.  1.
     999902    2    1    2    0    0 -0.57159374529E-02  0.22389874169E-01  0.51304820754E-02  0.10202593377E+01  0.10199847136E+01 0.  0.
     999903    2    3    3    0    0 -0.96108081159E-01 -0.84055029474E-01  0.55123558392E-02  0.12924788831E+00  0.19303350029E-01 0.  0.
         14    1    1    2    0    0  0.57159374529E-02 -0.22389874169E-01 -0.51304820754E-02  0.23670662276E-01  0.00000000000E+00 0. -1.
     999901    1    3    3    0    0  0.90392143706E-01  0.10644490364E+00 -0.38187376381E-03  0.89101144941E+00  0.88000000000E+00 0. -1.
        -11    1    4    4    0    0 -0.44650658369E-01 -0.32185424713E-01  0.10404333552E-01  0.56018694508E-01  0.51100000000E-03 0. -1.
         11    1    4    4    0    0 -0.51457422790E-01 -0.51869604761E-01 -0.48919777129E-02  0.73229193804E-01  0.51100000000E-03 0.  1.
</event>
<event>
 8    1  0.1086486E+005  0.1043930E+01  0.7957747E-01            NaN
         13   -1    0    0    0    0  0.00000000000E+00  0.00000000000E+00  0.74505805969E-08  0.10566000000E+00  0.10566000000E+00 0.  1.
     999900   -1    0    0    0    0 -0.00000000000E+00 -0.00000000000E+00 -0.74505805969E-08  0.93827000000E+00  0.93827000000E+00 0.  1.
     999902    2    1    2    0    0  0.15136090922E-01 -0.18956560916E-01  0.11265056174E-02  0.10196458186E+01  0.10193565980E+01 0.  0.
     999903    2    3    3    0    0  0.12404019291E+00 -0.39801690357E-01  0.14865640352E-01  0.13258134144E+00  0.19664201546E-01 0.  0.
         14    1    1    2    0    0 -0.15136090922E-01  0.18956560916E-01 -0.11265056174E-02  0.24284181375E-01  0.00000000000E+00 0.  1.
     999901    1    3    3    0    0 -0.10890410199E+00  0.20845129441E-01 -0.13739134734E-01  0.88706447718E+00  0.88000000000E+00 0.  1.
        -11    1    4    4    0    0  0.51836324621E-01 -0.18369981268E-01  0.15918281915E-01  0.57254812742E-01  0.51100000000E-03 0.  1.
         11    1    4    4    0    0  0.72203868294E-01 -0.21431709089E-01 -0.10526415629E-02  0.75326528702E-01  0.51100000000E-03 0. -1.
</event>
<event>
 8    1  0.1086486E+005  0.1043930E+01  0.7957747E-01            NaN
         13   -1    0    0    0    0  0.00000000000E+00  0.00000000000E+00  0.74505805969E-08  0.10566000000E+00  0.10566000000E+00 0. -1.
     999900   -1    0    0    0    0 -0.00000000000E+00 -0.00000000000E+00 -0.74505805969E-08  0.93827000000E+00  0.93827000000E+00 0. -1.
     999902    2    1    2    0    0  0.10054293700E-01 -0.11575841802E-02 -0.22491713726E-01  0.10192661396E+01  0.10189676920E+01 0.  0.
     999903    2    3    3    0    0 -0.98091121673E-01 -0.60572831790E-01  0.51087253026E-01  0.12761628296E+00  0.19623255418E-01 0.  0.
         14    1    1    2    0    0 -0.10054293700E-01  0.11575841802E-02  0.22491713726E-01  0.24663860389E-01  0.00000000000E+00 0. -1.
     999901    1    3    3    0    0  0.10814541537E+00  0.59415247610E-01 -0.73578966752E-01  0.89164985665E+00  0.88000000000E+00 0.  1.
        -11    1    4    4    0    0 -0.15305806317E-01 -0.18062795109E-01  0.13418363896E-01  0.27218484249E-01  0.51100000000E-03 0. -1.
         11    1    4    4    0    0 -0.82785315356E-01 -0.42510036681E-01  0.37668889130E-01  0.10039779871E+00  0.51100000000E-03 0.  1.
</event>
<event>
 8    1  0.1086486E+005  0.1043930E+01  0.7957747E-01            NaN
         13   -1    0    0    0    0  0.00000000000E+00  0.00000000000E+00  0.74505805969E-08  0.10566000000E+00  0.10566000000E+00 0. -1.
     999900   -1    0    0    0    0 -0.00000000000E+00 -0.00000000000E+00 -0.74505805969E-08  0.93827000000E+00  0.93827000000E+00 0. -1.
     999902    2    1    2    0    0  0.17139654142E-02 -0.18306175099E-01  0.11500535918E-01  0.10222432287E+01  0.10220131616E+01 0.  0.
     999903    2    3    3    0    0  0.87862454837E-01  0.93901389900E-01  0.14721019663E-01  0.13093942447E+00  0.19777321991E-01 0.  0.
         14    1    1    2    0    0 -0.17139654142E-02  0.18306175099E-01 -0.11500535918E-01  0.21686771327E-01  0.00000000000E+00 0. -1.
     999901    1    3    3    0    0 -0.86148489423E-01 -0.11220756500E+00 -0.32204837447E-02  0.89130380420E+00  0.88000000000E+00 0. -1.
        -11    1    4    4    0    0  0.58903743289E-01  0.72118761075E-01  0.42433156320E-02  0.93214985496E-01  0.51100000000E-03 0. -1.
         11    1    4    4    0    0  0.28958711548E-01  0.21782628825E-01  0.10477704031E-01  0.37724438973E-01  0.51100000000E-03 0.  1.
</event>
<event>
 8    1  0.1086486E+005  0.1043930E+01  0.7957747E-01            NaN
         13   -1    0    0    0    0  0.00000000000E+00  0.00000000000E+00  0.74505805969E-08  0.10566000000E+00  0.10566000000E+00 0.  1.
     999900   -1    0    0    0    0 -0.00000000000E+00 -0.00000000000E+00 -0.74505805969E-08  0.93827000000E+00  0.93827000000E+00 0.  1.
     999902    2    1    2    0    0 -0.79608775615E-02  0.34268857757E-02  0.21818864647E-01  0.10204527350E+01  0.10201826319E+01 0.  0.
     999903    2    3    3    0    0  0.78781230172E-01  0.88053389654E-01  0.54811804767E-01  0.13153520647E+00  0.18365591288E-01 0.  0.
         14    1    1    2    0    0  0.79608775615E-02 -0.34268857757E-02 -0.21818864647E-01  0.23477265006E-01  0.00000000000E+00 0. -1.
     999901    1    3    3    0    0 -0.86742107734E-01 -0.84626503878E-01 -0.32992940120E-01  0.88891752852E+00  0.88000000000E+00 0. -1.
        -11    1    4    4    0    0  0.50194945766E-01  0.44873329358E-01  0.25286427206E-01  0.71922269082E-01  0.51100000000E-03 0.  1.
         11    1    4    4    0    0  0.28586284406E-01  0.43180060296E-01  0.29525377561E-01  0.59612937392E-01  0.51100000000E-03 0. -1.
</event>
<event>
 8    1  0.1086486E+005  0.1043930E+01  0.7957747E-01            NaN
         13   -1    0    0    0    0  0.00000000000E+00  0.00000000000E+00  0.74505805969E-08  0.10566000000E+00  0.10566000000E+00 0. -1.
     999900   -1    0    0    0    0 -0.00000000000E+00 -0.00000000000E+00 -0.74505805969E-08  0.93827000000E+00  0.93827000000E+00 0.  1.
     999902    2    1    2    0    0  0.18691393760E-01 -0.28114382603E-03  0.14020579056E-01  0.10205628461E+01  0.10202952999E+01 0.  0.
     999903    2    3    3    0    0 -0.72984292408E-01  0.58723608884E-01  0.88898307300E-01  0.13067933328E+00  0.19975232810E-01 0.  0.
         14    1    1    2    0    0 -0.18691393760E-01  0.28114382603E-03 -0.14020579056E-01  0.23367153862E-01  0.00000000000E+00 0.  1.
     999901    1    3    3    0    0  0.91675686168E-01 -0.59004752710E-01 -0.74877728244E-01  0.88988351286E+00  0.88000000000E+00 0.  1.
        -11    1    4    4    0    0 -0.13100518081E-01  0.64700079648E-02  0.59041347557E-02  0.15767197128E-01  0.51100000000E-03 0.  1.
         11    1    4    4    0    0 -0.59883774327E-01  0.52253600919E-01  0.82994172545E-01  0.11491213615E+00  0.51100000000E-03 0. -1.
</event>
<event>
 8    1  0.1086486E+005  0.1043930E+01  0.7957747E-01            NaN
         13   -1    0    0    0    0  0.00000000000E+00  0.00000000000E+00  0.74505805969E-08  0.10566000000E+00  0.10566000000E+00 0.  1.
     999900   -1    0    0    0    0 -0.00000000000E+00 -0.00000000000E+00 -0.74505805969E-08  0.93827000000E+00  0.93827000000E+00 0.  1.
     999902    2    1    2    0    0 -0.11716488843E-01  0.15528258334E-01 -0.12386844379E-01  0.10208684122E+01  0.10206078964E+01 0.  0.
     999903    2    3    3    0    0  0.76084892392E-01 -0.10132069878E+00  0.81073385343E-02  0.12857766763E+00  0.20290215014E-01 0.  0.
         14    1    1    2    0    0  0.11716488843E-01 -0.15528258334E-01  0.12386844379E-01  0.23061587789E-01  0.00000000000E+00 0. -1.
     999901    1    3    3    0    0 -0.87801381234E-01  0.11684895711E+00 -0.20494182913E-01  0.89229074458E+00  0.88000000000E+00 0. -1.
        -11    1    4    4    0    0  0.46024898556E-01 -0.46986098990E-01  0.95464911004E-02  0.66463383895E-01  0.51100000000E-03 0. -1.
         11    1    4    4    0    0  0.30059993835E-01 -0.54334599786E-01 -0.14391525661E-02  0.62114283739E-01  0.51100000000E-03 0.  1.
</event>
<event>
 8    1  0.1086486E+005  0.1043930E+01  0.7957747E-01            NaN
         13   -1    0    0    0    0  0.00000000000E+00  0.00000000000E+00  0.74505805969E-08  0.10566000000E+00  0.10566000000E+00 0.  1.
     999900   -1    0    0    0    0 -0.00000000000E+00 -0.00000000000E+00 -0.74505805969E-08  0.93827000000E+00  0.93827000000E+00 0. -1.
     999902    2    1    2    0    0  0.11453731897E-01  0.18835407376E-01 -0.15049568991E-01  0.10172382396E+01  0.10168879909E+01 0.  0.
     999903    2    3    3    0    0 -0.42944146901E-01 -0.11490763864E-01 -0.11935216337E+00  0.12889267787E+00  0.19802679120E-01 0.  0.
         14    1    1    2    0    0 -0.11453731897E-01 -0.18835407376E-01  0.15049568991E-01  0.26691760381E-01  0.00000000000E+00 0.  1.
     999901    1    3    3    0    0  0.54397878798E-01  0.30326171240E-01  0.10430259438E+00  0.88834556175E+00  0.88000000000E+00 0.  1.
        -11    1    4    4    0    0 -0.33927507579E-01 -0.14198437449E-01 -0.74808400996E-01  0.83362037985E-01  0.51100000000E-03 0.  1.
         11    1    4    4    0    0 -0.90166393226E-02  0.27076735859E-02 -0.44543762376E-01  0.45530639888E-01  0.51100000000E-03 0. -1.
</event>
<event>
 8    1  0.1086486E+005  0.1043930E+01  0.7957747E-01            NaN
         13   -1    0    0    0    0  0.00000000000E+00  0.00000000000E+00  0.74505805969E-08  0.10566000000E+00  0.10566000000E+00 0.  1.
     999900   -1    0    0    0    0 -0.00000000000E+00 -0.00000000000E+00 -0.74505805969E-08  0.93827000000E+00  0.93827000000E+00 0. -1.
     999902    2    1    2    0    0  0.53396936072E-02  0.97450069083E-02 -0.19888815993E-01  0.10211474960E+01  0.10208933177E+01 0.  0.
     999903    2    3    3    0    0  0.56795692244E-01  0.76853326844E-01 -0.91956405499E-01  0.13416103394E+00  0.20273579131E-01 0.  0.
         14    1    1    2    0    0 -0.53396936072E-02 -0.97450069083E-02  0.19888815993E-01  0.22782504012E-01  0.00000000000E+00 0.  1.
     999901    1    3    3    0    0 -0.51455998637E-01 -0.67108319936E-01  0.72067589506E-01  0.88698646205E+00  0.88000000000E+00 0.  1.
        -11    1    4    4    0    0  0.37948312830E-01  0.64395381432E-01 -0.65679389209E-01  0.99503180272E-01  0.51100000000E-03 0. -1.
         11    1    4    4    0    0  0.18847379414E-01  0.12457945412E-01 -0.26277016290E-01  0.34657853667E-01  0.51100000000E-03 0.  1.
</event>
<event>
 8    1  0.1086486E+005  0.1043930E+01  0.7957747E-01            NaN
         13   -1    0    0    0    0  0.00000000000E+00  0.00000000000E+00  0.74505805969E-08  0.10566000000E+00  0.10566000000E+00 0. -1.
     999900   -1    0    0    0    0 -0.00000000000E+00 -0.00000000000E+00 -0.74505805969E-08  0.93827000000E+00  0.93827000000E+00 0. -1.
     999902    2    1    2    0    0  0.96383528889E-02  0.20247676908E-01 -0.79653672864E-02  0.10201326610E+01  0.10198550548E+01 0.  0.
     999903    2    3    3    0    0  0.11644374938E+00  0.20036685451E-01  0.54214518607E-01  0.13149675389E+00  0.19788044929E-01 0.  0.
         14    1    1    2    0    0 -0.96383528889E-02 -0.20247676908E-01  0.79653672864E-02  0.23797338981E-01  0.00000000000E+00 0. -1.
     999901    1    3    3    0    0 -0.10680539649E+00  0.21099145640E-03 -0.62179885894E-01  0.88863590713E+00  0.88000000000E+00 0. -1.
        -11    1    4    4    0    0  0.71224315493E-01  0.16828871160E-01  0.42655306029E-01  0.84710390599E-01  0.51100000000E-03 0.  1.
         11    1    4    4    0    0  0.45219433882E-01  0.32078142913E-02  0.11559212579E-01  0.46786363287E-01  0.51100000000E-03 0. -1.
</event>
<event>
 8    1  0.1086486E+005  0.1043930E+01  0.7957747E-01            NaN
         13   -1    0    0    0    0  0.00000000000E+00  0.00000000000E+00  0.74505805969E-08  0.10566000000E+00  0.10566000000E+00 0. -1.
     999900   -1    0    0    0    0 -0.00000000000E+00 -0.00000000000E+00 -0.74505805969E-08  0.93827000000E+00  0.93827000000E+00 0. -1.
     999902    2    1    2    0    0 -0.81780780638E-02  0.18485091363E-01  0.93275859673E-02  0.10216682969E+01  0.10214257318E+01 0.  0.
     999903    2    3    3    0    0 -0.34433835066E-01  0.20669036118E-01  0.12614217347E+00  0.13355806602E+00  0.17692117511E-01 0.  0.
         14    1    1    2    0    0  0.81780780638E-02 -0.18485091363E-01 -0.93275859673E-02  0.22261703068E-01  0.00000000000E+00 0.  1.
     999901    1    3    3    0    0  0.26255757002E-01 -0.21839447547E-02 -0.11681458750E+00  0.88811023091E+00  0.88000000000E+00 0. -1.
        -11    1    4    4    0    0 -0.24162564850E-01  0.69365733690E-02  0.91624253351E-01  0.95011633568E-01  0.51100000000E-03 0.  1.
         11    1    4    4    0    0 -0.10271270216E-01  0.13732462749E-01  0.34517920115E-01  0.38546432456E-01  0.51100000000E-03 0. -1.
</event>
<event>
 8    1  0.1086486E+005  0.1043930E+01  0.7957747E-01            NaN
         13   -1    0    0    0    0  0.00000000000E+00  0.00000000000E+00  0.74505805969E-08  0.10566000000E+00  0.10566000000E+00 0.  1.
     999900   -1    0    0    0    0 -0.00000000000E+00 -0.00000000000E+00 -0.74505805969E-08  0.93827000000E+00  0.93827000000E+00 0. -1.
     999902    2    1    2    0    0 -0.70793780905E-02 -0.11636786871E-01  0.17974668281E-01  0.10213773704E+01  0.10211283522E+01 0.  0.
     999903    2    3    3    0    0  0.93898046140E-01  0.84662323283E-01  0.28503494889E-01  0.13032135923E+00  0.13662188643E-01 0.  0.
         14    1    1    2    0    0  0.70793780905E-02  0.11636786871E-01 -0.17974668281E-01  0.22552629616E-01  0.00000000000E+00 0. -1.
     999901    1    3    3    0    0 -0.10097742423E+00 -0.96299110153E-01 -0.10528826609E-01  0.89105601115E+00  0.88000000000E+00 0. -1.
        -11    1    4    4    0    0  0.34828197642E-01  0.39799343828E-01  0.14417890474E-01  0.54819046023E-01  0.51100000000E-03 0.  1.
         11    1    4    4    0    0  0.59069848498E-01  0.44862979455E-01  0.14085604415E-01  0.75502313209E-01  0.51100000000E-03 0. -1.
</event>
<event>
 8    1  0.1086486E+005  0.1043930E+01  0.7957747E-01            NaN
         13   -1    0    0    0    0  0.00000000000E+00  0.00000000000E+00  0.74505805969E-08  0.10566000000E+00  0.10566000000E+00 0.  1.
     999900   -1    0    0    0    0 -0.00000000000E+00 -0.00000000000E+00 -0.74505805969E-08  0.93827000000E+00  0.93827000000E+00 0.  1.
     999902    2    1    2    0    0  0.21002599847E-02  0.97414367649E-02 -0.22303673342E-01  0.10195013175E+01  0.10192086028E+01 0.  0.
     999903    2    3    3    0    0  0.66283608891E-01 -0.25090553837E-01  0.10413102142E+00  0.12747076768E+00  0.19556949951E-01 0.  0.
         14    1    1    2    0    0 -0.21002599847E-02 -0.97414367649E-02  0.22303673342E-01  0.24428682461E-01  0.00000000000E+00 0. -1.
     999901    1    3    3    0    0 -0.64183348906E-01  0.34831990602E-01 -0.12643469476E+00  0.89203054986E+00  0.88000000000E+00 0.  1.
        -11    1    4    4    0    0  0.22430292689E-01 -0.18271163572E-01  0.36513548786E-01  0.46588129543E-01  0.51100000000E-03 0. -1.
         11    1    4    4    0    0  0.43853316202E-01 -0.68193902654E-02  0.67617472632E-01  0.80882638135E-01  0.51100000000E-03 0.  1.
</event>
<event>
 8    1  0.1086486E+005  0.1043930E+01  0.7957747E-01            NaN
         13   -1    0    0    0    0  0.00000000000E+00  0.00000000000E+00  0.74505805969E-08  0.10566000000E+00  0.10566000000E+00 0. -1.
     999900   -1    0    0    0    0 -0.00000000000E+00 -0.00000000000E+00 -0.74505805969E-08  0.93827000000E+00  0.93827000000E+00 0. -1.
     999902    2    1    2    0    0 -0.63986653929E-02 -0.38125228594E-03  0.19345088803E-01  0.10235505807E+01  0.10233476782E+01 0.  0.
     999903    2    3    3    0    0  0.12147741778E+00  0.48254715567E-01 -0.93909365209E-02  0.13251550325E+00  0.19669476530E-01 0.  0.
         14    1    1    2    0    0  0.63986653929E-02  0.38125228594E-03 -0.19345088803E-01  0.20379419346E-01  0.00000000000E+00 0.  1.
     999901    1    3    3    0    0 -0.12787608317E+00 -0.48635967853E-01  0.28736025324E-01  0.89103507741E+00  0.88000000000E+00 0. -1.
        -11    1    4    4    0    0  0.10882684617E+00  0.48938536154E-01 -0.10507889906E-01  0.11978705956E+00  0.51100000000E-03 0.  1.
         11    1    4    4    0    0  0.12650571615E-01 -0.68382058642E-03  0.11169533850E-02  0.12728443685E-01  0.51100000000E-03 0. -1.
</event>
<event>
 8    1  0.1086486E+005  0.1043930E+01  0.7957747E-01            NaN
         13   -1    0    0    0    0  0.00000000000E+00  0.00000000000E+00  0.74505805969E-08  0.10566000000E+00  0.10566000000E+00 0. -1.
     999900   -1    0    0    0    0 -0.00000000000E+00 -0.00000000000E+00 -0.74505805969E-08  0.93827000000E+00  0.93827000000E+00 0.  1.
     999902    2    1    2    0    0 -0.18912067335E-01  0.14534185312E-01  0.85994342388E-02  0.10185753337E+01  0.10182597170E+01 0.  0.
     999903    2    3    3    0    0 -0.84301768677E-01  0.43606129098E-01  0.89554481583E-01  0.13196678951E+00  0.19670934509E-01 0.  0.
         14    1    1    2    0    0  0.18912067335E-01 -0.14534185312E-01 -0.85994342388E-02  0.25354666292E-01  0.00000000000E+00 0. -1.
     999901    1    3    3    0    0  0.65389701343E-01 -0.29071943786E-01 -0.80955047344E-01  0.88660854420E+00  0.88000000000E+00 0. -1.
        -11    1    4    4    0    0 -0.75998785275E-01  0.44772257911E-01  0.84568445866E-01  0.12219841897E+00  0.51100000000E-03 0.  1.
         11    1    4    4    0    0 -0.83029834027E-02 -0.11661288129E-02  0.49860357171E-02  0.97683705379E-02  0.51100000000E-03 0. -1.
</event>
<event>
 8    1  0.1086486E+005  0.1043930E+01  0.7957747E-01            NaN
         13   -1    0    0    0    0  0.00000000000E+00  0.00000000000E+00  0.74505805969E-08  0.10566000000E+00  0.10566000000E+00 0.  1.
     999900   -1    0    0    0    0 -0.00000000000E+00 -0.00000000000E+00 -0.74505805969E-08  0.93827000000E+00  0.93827000000E+00 0. -1.
     999902    2    1    2    0    0  0.23173653540E-01 -0.17407550813E-02 -0.39109260623E-02  0.10203642666E+01  0.10200921002E+01 0.  0.
     999903    2    3    3    0    0  0.50571500505E-01 -0.94970252699E-01 -0.73994711940E-01  0.13224596466E+00  0.20903401964E-01 0.  0.
         14    1    1    2    0    0 -0.23173653540E-01  0.17407550813E-02  0.39109260623E-02  0.23565733371E-01  0.00000000000E+00 0.  1.
     999901    1    3    3    0    0 -0.27397846965E-01  0.93229497618E-01  0.70083785878E-01  0.88811830197E+00  0.88000000000E+00 0.  1.
        -11    1    4    4    0    0  0.22106315152E-01 -0.48497758813E-01 -0.24643607765E-01  0.58722144921E-01  0.51100000000E-03 0. -1.
         11    1    4    4    0    0  0.28465185353E-01 -0.46472493886E-01 -0.49351104175E-01  0.73523819742E-01  0.51100000000E-03 0.  1.
</event>
<event>
 8    1  0.1086486E+005  0.1043930E+01  0.7957747E-01            NaN
         13   -1    0    0    0    0  0.00000000000E+00  0.00000000000E+00  0.74505805969E-08  0.10566000000E+00  0.10566000000E+00 0. -1.
     999900   -1    0    0    0    0 -0.00000000000E+00 -0.00000000000E+00 -0.74505805969E-08  0.93827000000E+00  0.93827000000E+00 0.  1.
     999902    2    1    2    0    0 -0.89383231724E-02 -0.19611704652E-01 -0.11818218368E-01  0.10193498685E+01  0.10190534684E+01 0.  0.
     999903    2    3    3    0    0 -0.36660415473E-01  0.49950274105E-01  0.10990862455E+00  0.12782039191E+00  0.20472686512E-01 0.  0.
         14    1    1    2    0    0  0.89383231724E-02  0.19611704652E-01  0.11818218368E-01  0.24580131527E-01  0.00000000000E+00 0.  1.
     999901    1    3    3    0    0  0.27722092300E-01 -0.69561978757E-01 -0.12172684291E+00  0.89152947656E+00  0.88000000000E+00 0.  1.
        -11    1    4    4    0    0 -0.19949789649E-01  0.34350872892E-01  0.86027876031E-01  0.94757760373E-01  0.51100000000E-03 0. -1.
         11    1    4    4    0    0 -0.16710625824E-01  0.15599401213E-01  0.23880748515E-01  0.33062631539E-01  0.51100000000E-03 0.  1.
</event>
<event>
 8    1  0.1086486E+005  0.1043930E+01  0.7957747E-01            NaN
         13   -1    0    0    0    0  0.00000000000E+00  0.00000000000E+00  0.74505805969E-08  0.10566000000E+00  0.10566000000E+00 0. -1.
     999900   -1    0    0    0    0 -0.00000000000E+00 -0.00000000000E+00 -0.74505805969E-08  0.93827000000E+00  0.93827000000E+00 0.  1.
     999902    2    1    2    0    0  0.13105191511E-01  0.14804055387E-02 -0.20275683809E-01  0.10197423792E+01  0.10194554816E+01 0.  0.
     999903    2    3    3    0    0  0.86846650185E-01  0.84205370269E-01  0.44663070867E-01  0.13041776786E+00  0.19522275558E-01 0.  0.
         14    1    1    2    0    0 -0.13105191511E-01 -0.14804055387E-02  0.20275683809E-01  0.24187620780E-01  0.00000000000E+00 0. -1.
     999901    1    3    3    0    0 -0.73741458674E-01 -0.82724964731E-01 -0.64938754676E-01  0.88932461136E+00  0.88000000000E+00 0. -1.
        -11    1    4    4    0    0  0.20159808688E-01  0.94726930183E-02  0.10073342056E-01  0.24451649035E-01  0.51100000000E-03 0. -1.
         11    1    4    4    0    0  0.66686841497E-01  0.74732677251E-01  0.34589728811E-01  0.10596611882E+00  0.51100000000E-03 0.  1.
</event>
<event>
 8    1  0.1086486E+005  0.1043930E+01  0.7957747E-01            NaN
         13   -1    0    0    0    0  0.00000000000E+00  0.00000000000E+00  0.74505805969E-08  0.10566000000E+00  0.10566000000E+00 0. -1.
     999900   -1    0    0    0    0 -0.00000000000E+00 -0.00000000000E+00 -0.74505805969E-08  0.93827000000E+00  0.93827000000E+00 0. -1.
     999902    2    1    2    0    0  0.16634374309E-01 -0.16215666039E-01 -0.41313424435E-02  0.10203351229E+01  0.10200622750E+01 0.  0.
     999903    2    3    3    0    0 -0.21046608849E-01 -0.97375785350E-01  0.83611441185E-01  0.13145626867E+00  0.19101679503E-01 0.  0.
         14    1    1    2    0    0 -0.16634374309E-01  0.16215666039E-01  0.41313424435E-02  0.23594877074E-01  0.00000000000E+00 0. -1.
     999901    1    3    3    0    0  0.37680983159E-01  0.81160119311E-01 -0.87742783628E-01  0.88887885425E+00  0.88000000000E+00 0. -1.
        -11    1    4    4    0    0 -0.10834103633E-01 -0.80136480226E-01  0.72103119442E-01  0.10834368564E+00  0.51100000000E-03 0.  1.
         11    1    4    4    0    0 -0.10212505217E-01 -0.17239305124E-01  0.11508321742E-01  0.23112583029E-01  0.51100000000E-03 0. -1.
</event>
<event>
 8    1  0.1086486E+005  0.1043930E+01  0.7957747E-01            NaN
         13   -1    0    0    0    0  0.00000000000E+00  0.00000000000E+00  0.74505805969E-08  0.10566000000E+00  0.10566000000E+00 0.  1.
     999900   -1    0    0    0    0 -0.00000000000E+00 -0.00000000000E+00 -0.74505805969E-08  0.93827000000E+00  0.93827000000E+00 0.  1.
     999902    2    1    2    0    0  0.11714370683E-01  0.12566141392E-01 -0.16032133105E-01  0.10204318366E+01  0.10201612468E+01 0.  0.
     999903    2    3    3    0    0 -0.46238796885E-01 -0.86581409063E-01  0.79691909084E-01  0.12782223627E+00  0.18797791879E-01 0.  0.
         14    1    1    2    0    0 -0.11714370683E-01 -0.12566141392E-01  0.16032133105E-01  0.23498163372E-01  0.00000000000E+00 0.  1.
     999901    1    3    3    0    0  0.57953167568E-01  0.99147550455E-01 -0.95724042189E-01  0.89260960035E+00  0.88000000000E+00 0.  1.
        -11    1    4    4    0    0 -0.20577364784E-01 -0.22197318747E-01  0.29289592301E-01  0.42122324712E-01  0.51100000000E-03 0. -1.
         11    1    4    4    0    0 -0.25661432100E-01 -0.64384090317E-01  0.50402316783E-01  0.85699911561E-01  0.51100000000E-03 0.  1.
</event>
<event>
 8    1  0.1086486E+005  0.1043930E+01  0.7957747E-01            NaN
         13   -1    0    0    0    0  0.00000000000E+00  0.00000000000E+00  0.74505805969E-08  0.10566000000E+00  0.10566000000E+00 0.  1.
     999900   -1    0    0    0    0 -0.00000000000E+00 -0.00000000000E+00 -0.74505805969E-08  0.93827000000E+00  0.93827000000E+00 0.  1.
     999902    2    1    2    0    0  0.74563067082E-02 -0.98351680031E-02  0.20025433574E-01  0.10204067130E+01  0.10201355376E+01 0.  0.
     999903    2    3    3    0    0  0.68370290095E-01  0.37469770482E-01  0.10578974758E+00  0.13287993140E+00  0.19675497681E-01 0.  0.
         14    1    1    2    0    0 -0.74563067082E-02  0.98351680031E-02 -0.20025433574E-01  0.23523286956E-01  0.00000000000E+00 0. -1.
     999901    1    3    3    0    0 -0.60913983386E-01 -0.47304938485E-01 -0.85764314004E-01  0.88752678164E+00  0.88000000000E+00 0.  1.
        -11    1    4    4    0    0  0.87450945919E-02  0.65437611075E-02  0.28249295017E-01  0.30291604098E-01  0.51100000000E-03 0. -1.
         11    1    4    4    0    0  0.59625195503E-01  0.30926009374E-01  0.77540452561E-01  0.10258832730E+00  0.51100000000E-03 0.  1.
</event>
<event>
 8    1  0.1086486E+005  0.1043930E+01  0.7957747E-01            NaN
         13   -1    0    0    0    0  0.00000000000E+00  0.00000000000E+00  0.74505805969E-08  0.10566000000E+00  0.10566000000E+00 0.  1.
     999900   -1    0    0    0    0 -0.00000000000E+00 -0.00000000000E+00 -0.74505805969E-08  0.93827000000E+00  0.93827000000E+00 0.  1.
     999902    2    1    2    0    0  0.18499560742E-01  0.10558116962E-01 -0.96942993356E-02  0.10205272860E+01  0.10202589154E+01 0.  0.
     999903    2    3    3    0    0  0.26735565467E-01 -0.12566635387E+00 -0.33205800251E-02  0.12998500039E+00  0.19448679109E-01 0.  0.
         14    1    1    2    0    0 -0.18499560742E-01 -0.10558116962E-01  0.96942993356E-02  0.23402713967E-01  0.00000000000E+00 0.  1.
     999901    1    3    3    0    0 -0.82360047254E-02  0.13622447083E+00 -0.63737193105E-02  0.89054228565E+00  0.88000000000E+00 0.  1.
        -11    1    4    4    0    0  0.15304452092E-01 -0.44948862178E-01  0.62720201988E-02  0.47898077449E-01  0.51100000000E-03 0.  1.
         11    1    4    4    0    0  0.11431113376E-01 -0.80717491687E-01 -0.95926002239E-02  0.82086922938E-01  0.51100000000E-03 0. -1.
</event>
<event>
 8    1  0.1086486E+005  0.1043930E+01  0.7957747E-01            NaN
         13   -1    0    0    0    0  0.00000000000E+00  0.00000000000E+00  0.74505805969E-08  0.10566000000E+00  0.10566000000E+00 0.  1.
     999900   -1    0    0    0    0 -0.00000000000E+00 -0.00000000000E+00 -0.74505805969E-08  0.93827000000E+00  0.93827000000E+00 0.  1.
     999902    2    1    2    0    0  0.17841390721E-01 -0.39850794399E-02  0.11064181890E-01  0.10225615138E+01  0.10223382206E+01 0.  0.
     999903    2    3    3    0    0 -0.76836238352E-01 -0.10172621340E+00 -0.24689015119E-01  0.13138505889E+00  0.20011402101E-01 0.  0.
         14    1    1    2    0    0 -0.17841390721E-01  0.39850794399E-02 -0.11064181890E-01  0.21368486186E-01  0.00000000000E+00 0. -1.
     999901    1    3    3    0    0  0.94677629073E-01  0.97741133965E-01  0.35753197009E-01  0.89117645492E+00  0.88000000000E+00 0.  1.
        -11    1    4    4    0    0 -0.10899422511E-01 -0.26263446326E-01 -0.12469700445E-02  0.28467210599E-01  0.51100000000E-03 0.  1.
         11    1    4    4    0    0 -0.65936815842E-01 -0.75462767079E-01 -0.23442045075E-01  0.10291784829E+00  0.51100000000E-03 0. -1.
</event>
<event>
 8    1  0.1086486E+005  0.1043930E+01  0.7957747E-01            NaN
         13   -1    0    0    0    0  0.00000000000E+00  0.00000000000E+00  0.74505805969E-08  0.10566000000E+00  0.10566000000E+00 0. -1.
     999900   -1    0    0    0    0 -0.00000000000E+00 -0.00000000000E+00 -0.74505805969E-08  0.93827000000E+00  0.93827000000E+00 0. -1.
     999902    2    1    2    0    0 -0.46611675468E-02 -0.11424355596E-01 -0.19397363319E-01  0.10209408702E+01  0.10206820075E+01 0.  0.
     999903    2    3    3    0    0  0.23869736362E-02  0.62064015898E-01 -0.11557405040E+00  0.13262776542E+00  0.19368100638E-01 0.  0.
         14    1    1    2    0    0  0.46611675468E-02  0.11424355596E-01  0.19397363319E-01  0.22989129766E-01  0.00000000000E+00 0.  1.
     999901    1    3    3    0    0 -0.70481411829E-02 -0.73488371494E-01  0.96176687084E-01  0.88831310481E+00  0.88000000000E+00 0.  1.
        -11    1    4    4    0    0 -0.40289934262E-02  0.53739241496E-01 -0.88986770756E-01  0.10403386639E+00  0.51100000000E-03 0. -1.
         11    1    4    4    0    0  0.64159670624E-02  0.83247744019E-02 -0.26587279647E-01  0.28593899038E-01  0.51100000000E-03 0.  1.
</event>
<event>
 8    1  0.1086486E+005  0.1043930E+01  0.7957747E-01            NaN
         13   -1    0    0    0    0  0.00000000000E+00  0.00000000000E+00  0.74505805969E-08  0.10566000000E+00  0.10566000000E+00 0. -1.
     999900   -1    0    0    0    0 -0.00000000000E+00 -0.00000000000E+00 -0.74505805969E-08  0.93827000000E+00  0.93827000000E+00 0.  1.
     999902    2    1    2    0    0  0.15772292144E-01  0.77848757716E-02  0.14458812162E-01  0.10211610137E+01  0.10209071403E+01 0.  0.
     999903    2    3    3    0    0 -0.61575492544E-01  0.48679724855E-02 -0.11125067337E+00  0.12886394267E+00  0.20346128804E-01 0.  0.
         14    1    1    2    0    0 -0.15772292144E-01 -0.77848757716E-02 -0.14458812162E-01  0.22768986350E-01  0.00000000000E+00 0.  1.
     999901    1    3    3    0    0  0.77347784688E-01  0.29169032860E-02  0.12570948553E+00  0.89229707098E+00  0.88000000000E+00 0. -1.
        -11    1    4    4    0    0 -0.10898059639E-01 -0.24586641399E-02 -0.37109903221E-01  0.38758467092E-01  0.51100000000E-03 0. -1.
         11    1    4    4    0    0 -0.50677432905E-01  0.73266366254E-02 -0.74140770152E-01  0.90105475581E-01  0.51100000000E-03 0.  1.
</event>
<event>
 8    1  0.1086486E+005  0.1043930E+01  0.7957747E-01            NaN
         13   -1    0    0    0    0  0.00000000000E+00  0.00000000000E+00  0.74505805969E-08  0.10566000000E+00  0.10566000000E+00 0. -1.
     999900   -1    0    0    0    0 -0.00000000000E+00 -0.00000000000E+00 -0.74505805969E-08  0.93827000000E+00  0.93827000000E+00 0.  1.
     999902    2    1    2    0    0  0.68892157961E-02  0.20150149042E-01 -0.88960753487E-02  0.10208512228E+01  0.10205903140E+01 0.  0.
     999903    2    3    3    0    0 -0.63768337369E-02  0.13015651998E-02  0.12819467703E+00  0.12993869534E+00  0.20194832194E-01 0.  0.
         14    1    1    2    0    0 -0.68892157961E-02 -0.20150149042E-01  0.88960753487E-02  0.23078777205E-01  0.00000000000E+00 0. -1.
     999901    1    3    3    0    0  0.13266049533E-01  0.18848583842E-01 -0.13709075238E+00  0.89091252745E+00  0.88000000000E+00 0.  1.
        -11    1    4    4    0    0 -0.69266304445E-02  0.87951709534E-02  0.43886032102E-01  0.45294350377E-01  0.51100000000E-03 0. -1.
         11    1    4    4    0    0  0.54979670766E-03 -0.74936057535E-02  0.84308644930E-01  0.84644344965E-01  0.51100000000E-03 0.  1.
</event>
<event>
 8    1  0.1086486E+005  0.1043930E+01  0.7957747E-01            NaN
         13   -1    0    0    0    0  0.00000000000E+00  0.00000000000E+00  0.74505805969E-08  0.10566000000E+00  0.10566000000E+00 0.  1.
     999900   -1    0    0    0    0 -0.00000000000E+00 -0.00000000000E+00 -0.74505805969E-08  0.93827000000E+00  0.93827000000E+00 0. -1.
     999902    2    1    2    0    0 -0.81637048165E-02  0.36662636123E-02 -0.21391245123E-01  0.10207422245E+01  0.10204788170E+01 0.  0.
     999903    2    3    3    0    0  0.93310516990E-01  0.20071091219E-01 -0.89227792503E-01  0.13216587255E+00  0.19912750419E-01 0.  0.
         14    1    1    2    0    0  0.81637048165E-02 -0.36662636123E-02  0.21391245123E-01  0.23187775510E-01  0.00000000000E+00 0.  1.
     999901    1    3    3    0    0 -0.10147422181E+00 -0.16404827607E-01  0.67836547380E-01  0.88857635194E+00  0.88000000000E+00 0.  1.
        -11    1    4    4    0    0  0.74581456106E-01  0.18416113956E-01 -0.80997181164E-01  0.11163490192E+00  0.51100000000E-03 0. -1.
         11    1    4    4    0    0  0.18729060884E-01  0.16549772631E-02 -0.82306113387E-02  0.20530970638E-01  0.51100000000E-03 0.  1.
</event>
<event>
 8    1  0.1086486E+005  0.1043930E+01  0.7957747E-01            NaN
         13   -1    0    0    0    0  0.00000000000E+00  0.00000000000E+00  0.74505805969E-08  0.10566000000E+00  0.10566000000E+00 0.  1.
     999900   -1    0    0    0    0 -0.00000000000E+00 -0.00000000000E+00 -0.74505805969E-08  0.93827000000E+00  0.93827000000E+00 0.  1.
     999902    2    1    2    0    0  0.16684116760E-01 -0.12169538823E-01  0.12002962874E-01  0.10200442606E+01  0.10197645636E+01 0.  0.
     999903    2    3    3    0    0 -0.35596714232E-02  0.67945839231E-01  0.10965287452E+00  0.13079525726E+00  0.21315208238E-01 0.  0.
         14    1    1    2    0    0 -0.16684116760E-01  0.12169538823E-01 -0.12002962874E-01  0.23885739365E-01  0.00000000000E+00 0. -1.
     999901    1    3    3    0    0  0.20243788184E-01 -0.80115378054E-01 -0.97649911644E-01  0.88924900338E+00  0.88000000000E+00 0.  1.
        -11    1    4    4    0    0  0.40563189037E-02  0.31385054013E-01  0.34160489346E-01  0.46569040057E-01  0.51100000000E-03 0. -1.
         11    1    4    4    0    0 -0.76159903269E-02  0.36560785218E-01  0.75492385172E-01  0.84226217203E-01  0.51100000000E-03 0.  1.
</event>
<event>
 8    1  0.1086486E+005  0.1043930E+01  0.7957747E-01            NaN
         13   -1    0    0    0    0  0.00000000000E+00  0.00000000000E+00  0.74505805969E-08  0.10566000000E+00  0.10566000000E+00 0. -1.
     999900   -1    0    0    0    0 -0.00000000000E+00 -0.00000000000E+00 -0.74505805969E-08  0.93827000000E+00  0.93827000000E+00 0.  1.
     999902    2    1    2    0    0 -0.56749999374E-02 -0.13455150114E-01  0.19096592235E-01  0.10198898976E+01  0.10196065303E+01 0.  0.
     999903    2    3    3    0    0 -0.25247872312E-01  0.71322097301E-01 -0.10057922771E+00  0.12753762360E+00  0.20624445901E-01 0.  0.
         14    1    1    2    0    0  0.56749999374E-02  0.13455150114E-01 -0.19096592235E-01  0.24040102410E-01  0.00000000000E+00 0.  1.
     999901    1    3    3    0    0  0.19572872375E-01 -0.84777247415E-01  0.11967581994E+00  0.89235227399E+00  0.88000000000E+00 0.  1.
        -11    1    4    4    0    0 -0.12521236727E-01  0.19092424916E-01 -0.18362020225E-01  0.29304043511E-01  0.51100000000E-03 0. -1.
         11    1    4    4    0    0 -0.12726635585E-01  0.52229672384E-01 -0.82217207481E-01  0.98233580092E-01  0.51100000000E-03 0.  1.
</event>
<event>
 8    1  0.1086486E+005  0.1043930E+01  0.7957747E-01            NaN
         13   -1    0    0    0    0  0.00000000000E+00  0.00000000000E+00  0.74505805969E-08  0.10566000000E+00  0.10566000000E+00 0. -1.
     999900   -1    0    0    0    0 -0.00000000000E+00 -0.00000000000E+00 -0.74505805969E-08  0.93827000000E+00  0.93827000000E+00 0. -1.
     999902    2    1    2    0    0  0.14724448798E-01  0.38518675052E-02 -0.19135505443E-01  0.10194797680E+01  0.10191865303E+01 0.  0.
     999903    2    3    3    0    0 -0.52042470425E-01 -0.71526583836E-01  0.88958762714E-01  0.12716586403E+00  0.20809242853E-01 0.  0.
         14    1    1    2    0    0 -0.14724448798E-01 -0.38518675052E-02  0.19135505443E-01  0.24450231988E-01  0.00000000000E+00 0. -1.
     999901    1    3    3    0    0  0.66766919224E-01  0.75378451341E-01 -0.10809426816E+00  0.89231390398E+00  0.88000000000E+00 0. -1.
        -11    1    4    4    0    0 -0.29251325513E-01 -0.55900559499E-01  0.65046450975E-01  0.90619062576E-01  0.51100000000E-03 0. -1.
         11    1    4    4    0    0 -0.22791144912E-01 -0.15626024336E-01  0.23912311739E-01  0.36546801455E-01  0.51100000000E-03 0.  1.
</event>
<event>
 8    1  0.1086486E+005  0.1043930E+01  0.7957747E-01            NaN
         13   -1    0    0    0    0  0.00000000000E+00  0.00000000000E+00  0.74505805969E-08  0.10566000000E+00  0.10566000000E+00 0.  1.
     999900   -1    0    0    0    0 -0.00000000000E+00 -0.00000000000E+00 -0.74505805969E-08  0.93827000000E+00  0.93827000000E+00 0. -1.
     999902    2    1    2    0    0 -0.81641031755E-02  0.17035468885E-01 -0.13447062210E-01  0.10207420017E+01  0.10204785891E+01 0.  0.
     999903    2    3    3    0    0 -0.45573813089E-01  0.10602416704E+00 -0.64670561357E-01  0.13398255203E+00  0.21235496407E-01 0.  0.
         14    1    1    2    0    0  0.81641031755E-02 -0.17035468885E-01  0.13447062210E-01  0.23187998251E-01  0.00000000000E+00 0. -1.
     999901    1    3    3    0    0  0.37409709913E-01 -0.88988698153E-01  0.51223499147E-01  0.88675944972E+00  0.88000000000E+00 0.  1.
        -11    1    4    4    0    0 -0.43548919812E-04  0.93509804387E-02 -0.10856291511E-01  0.14337465537E-01  0.51100000000E-03 0.  1.
         11    1    4    4    0    0 -0.45530264169E-01  0.96673186599E-01 -0.53814269846E-01  0.11964508650E+00  0.51100000000E-03 0. -1.
</event>
<event>
 8    1  0.1086486E+005  0.1043930E+01  0.7957747E-01            NaN
         13   -1    0    0    0    0  0.00000000000E+00  0.00000000000E+00  0.74505805969E-08  0.10566000000E+00  0.10566000000E+00 0.  1.
     999900   -1    0    0    0    0 -0.00000000000E+00 -0.00000000000E+00 -0.74505805969E-08  0.93827000000E+00  0.93827000000E+00 0. -1.
     999902    2    1    2    0    0  0.24699298570E-01  0.42018624078E-02  0.33140530059E-04  0.10188758168E+01  0.10185677287E+01 0.  0.
     999903    2    3    3    0    0  0.10274573782E+00  0.66531450265E-01 -0.45253530072E-01  0.13206856224E+00  0.20275666044E-01 0.  0.
         14    1    1    2    0    0 -0.24699298570E-01 -0.42018624078E-02 -0.33140530059E-04  0.25054183200E-01  0.00000000000E+00 0. -1.
     999901    1    3    3    0    0 -0.78046439252E-01 -0.62329587857E-01  0.45286670602E-01  0.88680725456E+00  0.88000000000E+00 0.  1.
        -11    1    4    4    0    0  0.71383723854E-01  0.54724600141E-01 -0.38694375210E-01  0.97917994698E-01  0.51100000000E-03 0.  1.
         11    1    4    4    0    0  0.31362013969E-01  0.11806850124E-01 -0.65591548618E-02  0.34150567543E-01  0.51100000000E-03 0. -1.
</event>
<event>
 8    1  0.1086486E+005  0.1043930E+01  0.7957747E-01            NaN
         13   -1    0    0    0    0  0.00000000000E+00  0.00000000000E+00  0.74505805969E-08  0.10566000000E+00  0.10566000000E+00 0.  1.
     999900   -1    0    0    0    0 -0.00000000000E+00 -0.00000000000E+00 -0.74505805969E-08  0.93827000000E+00  0.93827000000E+00 0. -1.
     999902    2    1    2    0    0  0.17898694873E-01  0.13994182101E-02  0.16858489823E-01  0.10193021635E+01  0.10190045978E+01 0.  0.
     999903    2    3    3    0    0 -0.73327859062E-01 -0.54997586815E-02  0.10550692047E+00  0.13012927426E+00  0.19866944694E-01 0.  0.
         14    1    1    2    0    0 -0.17898694873E-01 -0.13994182101E-02 -0.16858489823E-01  0.24627836458E-01  0.00000000000E+00 0.  1.
     999901    1    3    3    0    0  0.91226553935E-01  0.68991768917E-02 -0.88648430646E-01  0.88917288929E+00  0.88000000000E+00 0. -1.
        -11    1    4    4    0    0 -0.14776407452E-01  0.67671347646E-02  0.25139132276E-01  0.29939496033E-01  0.51100000000E-03 0.  1.
         11    1    4    4    0    0 -0.58551451610E-01 -0.12266893446E-01  0.80367788193E-01  0.10018977822E+00  0.51100000000E-03 0. -1.
</event>
<event>
 8    1  0.1086486E+005  0.1043930E+01  0.7957747E-01            NaN
         13   -1    0    0    0    0  0.00000000000E+00  0.00000000000E+00  0.74505805969E-08  0.10566000000E+00  0.10566000000E+00 0.  1.
     999900   -1    0    0    0    0 -0.00000000000E+00 -0.00000000000E+00 -0.74505805969E-08  0.93827000000E+00  0.93827000000E+00 0.  1.
     999902    2    1    2    0    0 -0.53553702376E-02  0.22709761569E-01  0.36600229375E-04  0.10205973062E+01  0.10203305576E+01 0.  0.
     999903    2    3    3    0    0 -0.15858676776E-01 -0.12415185080E+00 -0.18999633951E-01  0.12816185707E+00  0.19982387994E-01 0.  0.
         14    1    1    2    0    0  0.53553702376E-02 -0.22709761569E-01 -0.36600229375E-04  0.23332693811E-01  0.00000000000E+00 0. -1.
     999901    1    3    3    0    0  0.10503306539E-01  0.14686161237E+00  0.19036234180E-01  0.89243544912E+00  0.88000000000E+00 0. -1.
        -11    1    4    4    0    0 -0.17421637024E-01 -0.65308870856E-01 -0.14438875283E-01  0.69119492833E-01  0.51100000000E-03 0. -1.
         11    1    4    4    0    0  0.15629602482E-02 -0.58842979947E-01 -0.45607586675E-02  0.59042364234E-01  0.51100000000E-03 0.  1.
</event>
<event>
 8    1  0.1086486E+005  0.1043930E+01  0.7957747E-01            NaN
         13   -1    0    0    0    0  0.00000000000E+00  0.00000000000E+00  0.74505805969E-08  0.10566000000E+00  0.10566000000E+00 0.  1.
     999900   -1    0    0    0    0 -0.00000000000E+00 -0.00000000000E+00 -0.74505805969E-08  0.93827000000E+00  0.93827000000E+00 0.  1.
     999902    2    1    2    0    0 -0.18262791801E-03 -0.94044511110E-02  0.18159699178E-01  0.10234787964E+01  0.10232744475E+01 0.  0.
     999903    2    3    3    0    0 -0.32254589042E-01 -0.12197200685E+00 -0.40270569802E-01  0.13380797998E+00  0.19113548721E-01 0.  0.
         14    1    1    2    0    0  0.18262791801E-03  0.94044511110E-02 -0.18159699178E-01  0.20451203581E-01  0.00000000000E+00 0. -1.
     999901    1    3    3    0    0  0.32071961124E-01  0.11256755574E+00  0.58430268980E-01  0.88967081644E+00  0.88000000000E+00 0.  1.
        -11    1    4    4    0    0  0.65382555065E-03 -0.25672270089E-01 -0.55408909982E-02  0.26276520573E-01  0.51100000000E-03 0. -1.
         11    1    4    4    0    0 -0.32908414593E-01 -0.96299736759E-01 -0.34729678804E-01  0.10753145940E+00  0.51100000000E-03 0.  1.
</event>
<event>
 8    1  0.1086486E+005  0.1043930E+01  0.7957747E-01            NaN
         13   -1    0    0    0    0  0.00000000000E+00  0.00000000000E+00  0.74505805969E-08  0.10566000000E+00  0.10566000000E+00 0. -1.
     999900   -1    0    0    0    0 -0.00000000000E+00 -0.00000000000E+00 -0.74505805969E-08  0.93827000000E+00  0.93827000000E+00 0. -1.
     999902    2    1    2    0    0  0.97109579680E-02  0.22046338960E-01  0.40483565052E-02  0.10195018818E+01  0.10192091808E+01 0.  0.
     999903    2    3    3    0    0  0.16078913982E-01  0.11298788337E-01  0.12771863872E+00  0.13076660100E+00  0.20041436271E-01 0.  0.
         14    1    1    2    0    0 -0.97109579680E-02 -0.22046338960E-01 -0.40483565052E-02  0.24428118155E-01  0.00000000000E+00 0. -1.
     999901    1    3    3    0    0 -0.63679560141E-02  0.10747550623E-01 -0.12367028222E+00  0.88873528084E+00  0.88000000000E+00 0. -1.
        -11    1    4    4    0    0  0.18564523513E-01  0.10816570641E-01  0.75914659399E-01  0.78898265928E-01  0.51100000000E-03 0.  1.
         11    1    4    4    0    0 -0.24856095313E-02  0.48221769583E-03  0.51803979325E-01  0.51868335076E-01  0.51100000000E-03 0. -1.
</event>
<event>
 8    1  0.1086486E+005  0.1043930E+01  0.7957747E-01            NaN
         13   -1    0    0    0    0  0.00000000000E+00  0.00000000000E+00  0.74505805969E-08  0.10566000000E+00  0.10566000000E+00 0. -1.
     999900   -1    0    0    0    0 -0.00000000000E+00 -0.00000000000E+00 -0.74505805969E-08  0.93827000000E+00  0.93827000000E+00 0. -1.
     999902    2    1    2    0    0  0.56175273320E-02  0.24070017419E-01 -0.10893292386E-02  0.10191891635E+01  0.10188888271E+01 0.  0.
     999903    2    3    3    0    0 -0.11563731250E+00 -0.17143343794E-01  0.49487894986E-01  0.12848195408E+00  0.19816117097E-01 0.  0.
         14    1    1    2    0    0 -0.56175273320E-02 -0.24070017419E-01  0.10893292386E-02  0.24740836487E-01  0.00000000000E+00 0.  1.
     999901    1    3    3    0    0  0.12125483983E+00  0.41213361213E-01 -0.50577224224E-01  0.89070720943E+00  0.88000000000E+00 0. -1.
        -11    1    4    4    0    0 -0.44461959176E-01  0.39142035397E-03  0.25978507938E-01  0.51499155521E-01  0.51100000000E-03 0.  1.
         11    1    4    4    0    0 -0.71175353319E-01 -0.17534764148E-01  0.23509387048E-01  0.76982798560E-01  0.51100000000E-03 0. -1.
</event>
<event>
 8    1  0.1086486E+005  0.1043930E+01  0.7957747E-01            NaN
         13   -1    0    0    0    0  0.00000000000E+00  0.00000000000E+00  0.74505805969E-08  0.10566000000E+00  0.10566000000E+00 0.  1.
     999900   -1    0    0    0    0 -0.00000000000E+00 -0.00000000000E+00 -0.74505805969E-08  0.93827000000E+00  0.93827000000E+00 0.  1.
     999902    2    1    2    0    0  0.80138748006E-02 -0.18233307811E-01  0.12508179293E-01  0.10204112787E+01  0.10201402097E+01 0.  0.
     999903    2    3    3    0    0  0.64651235716E-01 -0.83989166543E-01 -0.75280796423E-01  0.13179520418E+00  0.21652139824E-01 0.  0.
         14    1    1    2    0    0 -0.80138748006E-02  0.18233307811E-01 -0.12508179293E-01  0.23518721315E-01  0.00000000000E+00 0. -1.
     999901    1    3    3    0    0 -0.56637360915E-01  0.65755858732E-01  0.87788975716E-01  0.88861607450E+00  0.88000000000E+00 0. -1.
        -11    1    4    4    0    0  0.39167303237E-01 -0.41977085326E-01 -0.29129646163E-01  0.64381291863E-01  0.51100000000E-03 0. -1.
         11    1    4    4    0    0  0.25483932479E-01 -0.42012081217E-01 -0.46151150261E-01  0.67413912319E-01  0.51100000000E-03 0.  1.
</event>
<event>
 8    1  0.1086486E+005  0.1043930E+01  0.7957747E-01            NaN
         13   -1    0    0    0    0  0.00000000000E+00  0.00000000000E+00  0.74505805969E-08  0.10566000000E+00  0.10566000000E+00 0.  1.
     999900   -1    0    0    0    0 -0.00000000000E+00 -0.00000000000E+00 -0.74505805969E-08  0.93827000000E+00  0.93827000000E+00 0.  1.
     999902    2    1    2    0    0 -0.17963663297E-01 -0.85877693746E-02 -0.11782960516E-01  0.10207938564E+01  0.10205316341E+01 0.  0.
     999903    2    3    3    0    0 -0.49127515120E-01  0.10310496321E+00 -0.61921658102E-01  0.13177173004E+00  0.22030681241E-01 0.  0.
         14    1    1    2    0    0  0.17963663297E-01  0.85877693746E-02  0.11782960516E-01  0.23136143594E-01  0.00000000000E+00 0. -1.
     999901    1    3    3    0    0  0.31163851822E-01 -0.11169273258E+00  0.50138697587E-01  0.88902212637E+00  0.88000000000E+00 0. -1.
        -11    1    4    4    0    0 -0.22391584749E-01  0.65367402154E-01 -0.45303927112E-01  0.82625584807E-01  0.51100000000E-03 0.  1.
         11    1    4    4    0    0 -0.26735930371E-01  0.37737561053E-01 -0.16617730990E-01  0.49146145233E-01  0.51100000000E-03 0. -1.
</event>
<event>
 8    1  0.1086486E+005  0.1043930E+01  0.7957747E-01            NaN
         13   -1    0    0    0    0  0.00000000000E+00  0.00000000000E+00  0.74505805969E-08  0.10566000000E+00  0.10566000000E+00 0.  1.
     999900   -1    0    0    0    0 -0.00000000000E+00 -0.00000000000E+00 -0.74505805969E-08  0.93827000000E+00  0.93827000000E+00 0.  1.
     999902    2    1    2    0    0 -0.99525924405E-03 -0.23564747260E-01 -0.27837116051E-02  0.10201805389E+01  0.10199040616E+01 0.  0.
     999903    2    3    3    0    0 -0.11600911540E+00 -0.11540579318E-01 -0.56292029088E-01  0.13100344302E+00  0.20045191886E-01 0.  0.
         14    1    1    2    0    0  0.99525924405E-03  0.23564747260E-01  0.27837116051E-02  0.23749461145E-01  0.00000000000E+00 0. -1.
     999901    1    3    3    0    0  0.11501385615E+00 -0.12024167942E-01  0.53508317483E-01  0.88917709584E+00  0.88000000000E+00 0. -1.
        -11    1    4    4    0    0 -0.71765162748E-01  0.18143835011E-02 -0.38645667551E-01  0.81530848844E-01  0.51100000000E-03 0. -1.
         11    1    4    4    0    0 -0.44243952648E-01 -0.13354962819E-01 -0.17646361537E-01  0.49472594174E-01  0.51100000000E-03 0.  1.
</event>
<event>
 8    1  0.1086486E+005  0.1043930E+01  0.7957747E-01            NaN
         13   -1    0    0    0    0  0.00000000000E+00  0.00000000000E+00  0.74505805969E-08  0.10566000000E+00  0.10566000000E+00 0. -1.
     999900   -1    0    0    0    0 -0.00000000000E+00 -0.00000000000E+00 -0.74505805969E-08  0.93827000000E+00  0.93827000000E+00 0.  1.
     999902    2    1    2    0    0 -0.19989466040E-01  0.39002708177E-05 -0.13316476204E-01  0.10199111052E+01  0.10196282437E+01 0.  0.
     999903    2    3    3    0    0  0.86498241137E-01  0.14688399205E-01 -0.93326028972E-01  0.12976685016E+00  0.20784439511E-01 0.  0.
         14    1    1    2    0    0  0.19989466040E-01 -0.39002708177E-05  0.13316476204E-01  0.24018894776E-01  0.00000000000E+00 0. -1.
     999901    1    3    3    0    0 -0.10648770718E+00 -0.14684498935E-01  0.80009552768E-01  0.89014425506E+00  0.88000000000E+00 0. -1.
        -11    1    4    4    0    0  0.73264754293E-01  0.58327114167E-02 -0.82576246243E-01  0.11054791861E+00  0.51100000000E-03 0.  1.
         11    1    4    4    0    0  0.13233486844E-01  0.88556877887E-02 -0.10749782729E-01  0.19218931552E-01  0.51100000000E-03 0. -1.
</event>
<event>
 8    1  0.1086486E+005  0.1043930E+01  0.7957747E-01            NaN
         13   -1    0    0    0    0  0.00000000000E+00  0.00000000000E+00  0.74505805969E-08  0.10566000000E+00  0.10566000000E+00 0. -1.
     999900   -1    0    0    0    0 -0.00000000000E+00 -0.00000000000E+00 -0.74505805969E-08  0.93827000000E+00  0.93827000000E+00 0. -1.
     999902    2    1    2    0    0 -0.16002394608E-01  0.45009663355E-02 -0.14401462489E-01  0.10219359678E+01  0.10216992634E+01 0.  0.
     999903    2    3    3    0    0 -0.99697673648E-01  0.39045595755E-01  0.75685956210E-01  0.13271497492E+00  0.20511360773E-01 0.  0.
         14    1    1    2    0    0  0.16002394608E-01 -0.45009663355E-02  0.14401462489E-01  0.21994032213E-01  0.00000000000E+00 0. -1.
     999901    1    3    3    0    0  0.83695279039E-01 -0.34544629420E-01 -0.90087418700E-01  0.88922099287E+00  0.88000000000E+00 0. -1.
        -11    1    4    4    0    0 -0.30365815833E-01  0.19896035291E-01  0.33060844420E-01  0.49104129626E-01  0.51100000000E-03 0.  1.
         11    1    4    4    0    0 -0.69331857815E-01  0.19149560464E-01  0.42625111790E-01  0.83610845290E-01  0.51100000000E-03 0. -1.
</event>
<event>
 8    1  0.1086486E+005  0.1043930E+01  0.7957747E-01            NaN
         13   -1    0    0    0    0  0.00000000000E+00  0.00000000000E+00  0.74505805969E-08  0.10566000000E+00  0.10566000000E+00 0.  1.
     999900   -1    0    0    0    0 -0.00000000000E+00 -0.00000000000E+00 -0.74505805969E-08  0.93827000000E+00  0.93827000000E+00 0.  1.
     999902    2    1    2    0    0  0.18508720552E-01 -0.12300246617E-01  0.98606485579E-02  0.10196174273E+01  0.10193275218E+01 0.  0.
     999903    2    3    3    0    0  0.35260103046E-01  0.10916011693E+00  0.57184970678E-01  0.12985744828E+00  0.20823784625E-01 0.  0.
         14    1    1    2    0    0 -0.18508720552E-01  0.12300246617E-01 -0.98606485579E-02  0.24312572741E-01  0.00000000000E+00 0. -1.
     999901    1    3    3    0    0 -0.16751382494E-01 -0.12146036355E+00 -0.47324322120E-01  0.88975997898E+00  0.88000000000E+00 0.  1.
        -11    1    4    4    0    0 -0.25829320243E-02  0.52328560895E-02  0.16046086246E-02  0.60737311871E-02  0.51100000000E-03 0. -1.
         11    1    4    4    0    0  0.37843035070E-01  0.10392726085E+00  0.55580362054E-01  0.12378371709E+00  0.51100000000E-03 0.  1.
</event>
<event>
 8    1  0.1086486E+005  0.1043930E+01  0.7957747E-01            NaN
         13   -1    0    0    0    0  0.00000000000E+00  0.00000000000E+00  0.74505805969E-08  0.10566000000E+00  0.10566000000E+00 0.  1.
     999900   -1    0    0    0    0 -0.00000000000E+00 -0.00000000000E+00 -0.74505805969E-08  0.93827000000E+00  0.93827000000E+00 0.  1.
     999902    2    1    2    0    0  0.13254790242E-01 -0.20153793295E-01 -0.13212458821E-02  0.10197719674E+01  0.10194857797E+01 0.  0.
     999903    2    3    3    0    0  0.41524856797E-01  0.11711729401E+00 -0.25052072643E-01  0.12836538216E+00  0.20230934345E-01 0.  0.
         14    1    1    2    0    0 -0.13254790242E-01  0.20153793295E-01  0.13212458821E-02  0.24158032602E-01  0.00000000000E+00 0. -1.
     999901    1    3    3    0    0 -0.28270066555E-01 -0.13727108730E+00  0.23730826761E-01  0.89140658524E+00  0.88000000000E+00 0. -1.
        -11    1    4    4    0    0  0.12786532229E-01  0.16373397001E-01 -0.61939178171E-03  0.20790101081E-01  0.51100000000E-03 0.  1.
         11    1    4    4    0    0  0.28738324569E-01  0.10074389701E+00 -0.24432680861E-01  0.10757528108E+00  0.51100000000E-03 0. -1.
</event>
<event>
 8    1  0.1086486E+005  0.1043930E+01  0.7957747E-01            NaN
         13   -1    0    0    0    0  0.00000000000E+00  0.00000000000E+00  0.74505805969E-08  0.10566000000E+00  0.10566000000E+00 0.  1.
     999900   -1    0    0    0    0 -0.00000000000E+00 -0.00000000000E+00 -0.74505805969E-08  0.93827000000E+00  0.93827000000E+00 0.  1.
     999902    2    1    2    0    0 -0.22371905328E-01  0.70849290012E-02 -0.51231584405E-04  0.10204629808E+01  0.10201931161E+01 0.  0.
     999903    2    3    3    0    0 -0.12360045458E+00 -0.24123716269E-01 -0.38567319051E-01  0.13327377450E+00  0.20382218052E-01 0.  0.
         14    1    1    2    0    0  0.22371905328E-01 -0.70849290012E-02  0.51231584405E-04  0.23467019232E-01  0.00000000000E+00 0. -1.
     999901    1    3    3    0    0  0.10122854925E+00  0.31208645270E-01  0.38516087466E-01  0.88718920627E+00  0.88000000000E+00 0. -1.
        -11    1    4    4    0    0 -0.52044750059E-01 -0.62704146997E-02 -0.25790350611E-01  0.58424116723E-01  0.51100000000E-03 0. -1.
         11    1    4    4    0    0 -0.71555704518E-01 -0.17853301569E-01 -0.12776968440E-01  0.74849657778E-01  0.51100000000E-03 0.  1.
</event>
<event>
 8    1  0.1086486E+005  0.1043930E+01  0.7957747E-01            NaN
         13   -1    0    0    0    0  0.00000000000E+00  0.00000000000E+00  0.74505805969E-08  0.10566000000E+00  0.10566000000E+00 0. -1.
     999900   -1    0    0    0    0 -0.00000000000E+00 -0.00000000000E+00 -0.74505805969E-08  0.93827000000E+00  0.93827000000E+00 0. -1.
     999902    2    1    2    0    0 -0.64135081114E-02 -0.15470141910E-01 -0.16178313389E-01  0.10206448931E+01  0.10203792441E+01 0.  0.
     999903    2    3    3    0    0 -0.88239531870E-01 -0.10635571164E-01 -0.97403696853E-01  0.13311098723E+00  0.18213302870E-01 0.  0.
         14    1    1    2    0    0  0.64135081114E-02  0.15470141910E-01  0.16178313389E-01  0.23285106853E-01  0.00000000000E+00 0. -1.
     999901    1    3    3    0    0  0.81826023758E-01 -0.48345707464E-02  0.81225383464E-01  0.88753390592E+00  0.88000000000E+00 0.  1.
        -11    1    4    4    0    0 -0.55028525653E-01 -0.23167549126E-02 -0.48360584425E-01  0.73297429940E-01  0.51100000000E-03 0. -1.
         11    1    4    4    0    0 -0.33211006217E-01 -0.83188162515E-02 -0.49043112428E-01  0.59813557288E-01  0.51100000000E-03 0.  1.
</event>
<event>
 7    1  0.1086486E+005  0.1043930E+01  0.7957747E-01            NaN
         13   -1    0    0    0    0  0.00000000000E+00  0.00000000000E+00  0.74505805969E-08  0.10566000000E+00  0.10566000000E+00 0.  1.
     999900   -1    0    0    0    0 -0.00000000000E+00 -0.00000000000E+00 -0.74505805969E-08  0.93827000000E+00  0.93827000000E+00 0. -1.
     999902    2    1    2    0    0  0.23703693733E-01  0.43883039650E-02 -0.63467420549E-02  0.10190020349E+01  0.10186970814E+01 0.  0.
         14    1    1    2    0    0 -0.23703693733E-01 -0.43883039650E-02  0.63467420549E-02  0.24927965079E-01  0.00000000000E+00 0.  1.
     999901    1    3    3    0    0  0.48258708189E-01  0.57565329372E-01 -0.11974500869E+00  0.89128084080E+00  0.88000000000E+00 0. -1.
        -11    1    3    3    0    0 -0.99395261572E-02 -0.20423907556E-01  0.39220504700E-01  0.45325922936E-01  0.51100000000E-03 0.  1.
         11    1    3    3    0    0 -0.14615488299E-01 -0.32753117851E-01  0.74177761939E-01  0.82395271190E-01  0.51100000000E-03 0. -1.
</event>
<event>
 8    1  0.1086486E+005  0.1043930E+01  0.7957747E-01            NaN
         13   -1    0    0    0    0  0.00000000000E+00  0.00000000000E+00  0.74505805969E-08  0.10566000000E+00  0.10566000000E+00 0. -1.
     999900   -1    0    0    0    0 -0.00000000000E+00 -0.00000000000E+00 -0.74505805969E-08  0.93827000000E+00  0.93827000000E+00 0. -1.
     999902    2    1    2    0    0 -0.11128837070E-01  0.17277022446E-01 -0.12955780844E-01  0.10196359930E+01  0.10193465355E+01 0.  0.
     999903    2    3    3    0    0 -0.96730976618E-01 -0.33463940679E-02 -0.87410055961E-01  0.13211332247E+00  0.21102888461E-01 0.  0.
         14    1    1    2    0    0  0.11128837070E-01 -0.17277022446E-01  0.12955780844E-01  0.24294007006E-01  0.00000000000E+00 0. -1.
     999901    1    3    3    0    0  0.85602139548E-01  0.20623416513E-01  0.74454275116E-01  0.88752267052E+00  0.88000000000E+00 0.  1.
        -11    1    4    4    0    0 -0.16952930532E-01  0.74581286608E-02 -0.17563746756E-01  0.25529822911E-01  0.51100000000E-03 0. -1.
         11    1    4    4    0    0 -0.79778046086E-01 -0.10804522729E-01 -0.69846309204E-01  0.10658349956E+00  0.51100000000E-03 0.  1.
</event>
<event>
 8    1  0.1086486E+005  0.1043930E+01  0.7957747E-01            NaN
         13   -1    0    0    0    0  0.00000000000E+00  0.00000000000E+00  0.74505805969E-08  0.10566000000E+00  0.10566000000E+00 0.  1.
     999900   -1    0    0    0    0 -0.00000000000E+00 -0.00000000000E+00 -0.74505805969E-08  0.93827000000E+00  0.93827000000E+00 0. -1.
     999902    2    1    2    0    0 -0.19333525267E-01 -0.13842428888E-01  0.34304467701E-02  0.10199057206E+01  0.10196227307E+01 0.  0.
     999903    2    3    3    0    0  0.26504248644E-01 -0.12168402804E+00 -0.37134721712E-01  0.13121204730E+00  0.18114522498E-01 0.  0.
         14    1    1    2    0    0  0.19333525267E-01  0.13842428888E-01 -0.34304467701E-02  0.24024279423E-01  0.00000000000E+00 0. -1.
     999901    1    3    3    0    0 -0.45837773911E-01  0.10784159915E+00  0.40565168482E-01  0.88869367327E+00  0.88000000000E+00 0. -1.
        -11    1    4    4    0    0  0.24648956293E-01 -0.10481830507E+00 -0.25573674712E-01  0.11067394492E+00  0.51100000000E-03 0. -1.
         11    1    4    4    0    0  0.18552923510E-02 -0.16865722968E-01 -0.11561047000E-01  0.20538102387E-01  0.51100000000E-03 0.  1.
</event>
<event>
 8    1  0.1086486E+005  0.1043930E+01  0.7957747E-01            NaN
         13   -1    0    0    0    0  0.00000000000E+00  0.00000000000E+00  0.74505805969E-08  0.10566000000E+00  0.10566000000E+00 0.  1.
     999900   -1    0    0    0    0 -0.00000000000E+00 -0.00000000000E+00 -0.74505805969E-08  0.93827000000E+00  0.93827000000E+00 0. -1.
     999902    2    1    2    0    0  0.14063957594E-01  0.14458038628E-01  0.11160556759E-01  0.10208781495E+01  0.10206178562E+01 0.  0.
     999903    2    3    3    0    0 -0.93245170086E-02  0.13081175748E+00 -0.26739883957E-02  0.13280348864E+00  0.20759428434E-01 0.  0.
         14    1    1    2    0    0 -0.14063957594E-01 -0.14458038628E-01 -0.11160556759E-01  0.23051850497E-01  0.00000000000E+00 0. -1.
     999901    1    3    3    0    0  0.23388474602E-01 -0.11635371885E+00  0.13834545154E-01  0.88807466087E+00  0.88000000000E+00 0. -1.
        -11    1    4    4    0    0 -0.61556305638E-02  0.12430247305E-01  0.31576168010E-02  0.14234974554E-01  0.51100000000E-03 0.  1.
         11    1    4    4    0    0 -0.31688864448E-02  0.11838151017E+00 -0.58316051968E-02  0.11856851408E+00  0.51100000000E-03 0. -1.
</event>
<event>
 8    1  0.1086486E+005  0.1043930E+01  0.7957747E-01            NaN
         13   -1    0    0    0    0  0.00000000000E+00  0.00000000000E+00  0.74505805969E-08  0.10566000000E+00  0.10566000000E+00 0. -1.
     999900   -1    0    0    0    0 -0.00000000000E+00 -0.00000000000E+00 -0.74505805969E-08  0.93827000000E+00  0.93827000000E+00 0. -1.
     999902    2    1    2    0    0 -0.37053234683E-03  0.14980012304E-01 -0.25142052614E-01  0.10146612304E+01  0.10142390012E+01 0.  0.
     999903    2    3    3    0    0 -0.85745190094E-01  0.80868258480E-01 -0.45720259475E-01  0.12783906349E+00  0.18988711739E-01 0.  0.
         14    1    1    2    0    0  0.37053234683E-03 -0.14980012304E-01  0.25142052614E-01  0.29268769576E-01  0.00000000000E+00 0. -1.
     999901    1    3    3    0    0  0.85374657747E-01 -0.65888246175E-01  0.20578206861E-01  0.88682216693E+00  0.88000000000E+00 0. -1.
        -11    1    4    4    0    0 -0.18941543583E-01  0.27645724907E-01 -0.79490079347E-02  0.34445841942E-01  0.51100000000E-03 0.  1.
         11    1    4    4    0    0 -0.66803646511E-01  0.53222533573E-01 -0.37771251540E-01  0.93393221547E-01  0.51100000000E-03 0. -1.
</event>
<event>
 8    1  0.1086486E+005  0.1043930E+01  0.7957747E-01            NaN
         13   -1    0    0    0    0  0.00000000000E+00  0.00000000000E+00  0.74505805969E-08  0.10566000000E+00  0.10566000000E+00 0. -1.
     999900   -1    0    0    0    0 -0.00000000000E+00 -0.00000000000E+00 -0.74505805969E-08  0.93827000000E+00  0.93827000000E+00 0.  1.
     999902    2    1    2    0    0 -0.13734388450E-01  0.18524735313E-01 -0.79402769085E-02  0.10195405096E+01  0.10192487447E+01 0.  0.
     999903    2    3    3    0    0  0.34780439927E-01 -0.92722850858E-01  0.77008378392E-01  0.12715831119E+00  0.20778346659E-01 0.  0.
         14    1    1    2    0    0  0.13734388450E-01 -0.18524735313E-01  0.79402769085E-02  0.24389490398E-01  0.00000000000E+00 0. -1.
     999901    1    3    3    0    0 -0.48514828376E-01  0.11124758617E+00 -0.84948655301E-01  0.89238219841E+00  0.88000000000E+00 0.  1.
        -11    1    4    4    0    0  0.23098695410E-01 -0.60406935549E-01  0.62221286757E-01  0.89745736605E-01  0.51100000000E-03 0. -1.
         11    1    4    4    0    0  0.11681744516E-01 -0.32315915309E-01  0.14787091636E-01  0.37412574587E-01  0.51100000000E-03 0.  1.
</event>
<event>
 8    1  0.1086486E+005  0.1043930E+01  0.7957747E-01            NaN
         13   -1    0    0    0    0  0.00000000000E+00  0.00000000000E+00  0.74505805969E-08  0.10566000000E+00  0.10566000000E+00 0.  1.
     999900   -1    0    0    0    0 -0.00000000000E+00 -0.00000000000E+00 -0.74505805969E-08  0.93827000000E+00  0.93827000000E+00 0.  1.
     999902    2    1    2    0    0 -0.11672748212E-01  0.12698412312E-01 -0.79454778515E-02  0.10249396513E+01  0.10247637071E+01 0.  0.
     999903    2    3    3    0    0  0.86075097851E-01 -0.84292042593E-01 -0.53193724783E-01  0.13308249142E+00  0.19165235490E-01 0.  0.
         14    1    1    2    0    0  0.11672748212E-01 -0.12698412312E-01  0.79454778515E-02  0.18990348716E-01  0.00000000000E+00 0.  1.
     999901    1    3    3    0    0 -0.97747846063E-01  0.96990454905E-01  0.45248246932E-01  0.89185715987E+00  0.88000000000E+00 0. -1.
        -11    1    4    4    0    0  0.66938562355E-01 -0.63648036325E-01 -0.31684806219E-01  0.97652607360E-01  0.51100000000E-03 0.  1.
         11    1    4    4    0    0  0.19136535496E-01 -0.20644006268E-01 -0.21508918564E-01  0.35429884058E-01  0.51100000000E-03 0. -1.
</event>
<event>
 8    1  0.1086486E+005  0.1043930E+01  0.7957747E-01            NaN
         13   -1    0    0    0    0  0.00000000000E+00  0.00000000000E+00  0.74505805969E-08  0.10566000000E+00  0.10566000000E+00 0.  1.
     999900   -1    0    0    0    0 -0.00000000000E+00 -0.00000000000E+00 -0.74505805969E-08  0.93827000000E+00  0.93827000000E+00 0. -1.
     999902    2    1    2    0    0 -0.16436980125E-01 -0.12340097346E-01  0.11467935664E-01  0.10203935205E+01  0.10201220372E+01 0.  0.
     999903    2    3    3    0    0  0.56572498734E-01 -0.64019071210E-02  0.11632246416E+00  0.13114658167E+00  0.20665870109E-01 0.  0.
         14    1    1    2    0    0  0.16436980125E-01  0.12340097346E-01 -0.11467935664E-01  0.23536479484E-01  0.00000000000E+00 0. -1.
     999901    1    3    3    0    0 -0.73009478859E-01 -0.59381902247E-02 -0.10485452849E+00  0.88924693885E+00  0.88000000000E+00 0. -1.
        -11    1    4    4    0    0  0.25739712612E-01  0.31783342617E-02  0.70238383804E-01  0.74875405137E-01  0.51100000000E-03 0.  1.
         11    1    4    4    0    0  0.30832786123E-01 -0.95802413827E-02  0.46084080354E-01  0.56271176530E-01  0.51100000000E-03 0. -1.
</event>
<event>
 8    1  0.1086486E+005  0.1043930E+01  0.7957747E-01            NaN
         13   -1    0    0    0    0  0.00000000000E+00  0.00000000000E+00  0.74505805969E-08  0.10566000000E+00  0.10566000000E+00 0. -1.
     999900   -1    0    0    0    0 -0.00000000000E+00 -0.00000000000E+00 -0.74505805969E-08  0.93827000000E+00  0.93827000000E+00 0.  1.
     999902    2    1    2    0    0  0.18236184844E-01  0.69759924169E-02  0.14998076727E-01  0.10193095773E+01  0.10190121929E+01 0.  0.
     999903    2    3    3    0    0 -0.38307752194E-01 -0.29103454876E-01  0.11965977008E+00  0.13057282586E+00  0.20403610264E-01 0.  0.
         14    1    1    2    0    0 -0.18236184844E-01 -0.69759924169E-02 -0.14998076727E-01  0.24620422689E-01  0.00000000000E+00 0.  1.
     999901    1    3    3    0    0  0.56543937038E-01  0.36079447293E-01 -0.10466169335E+00  0.88873675146E+00  0.88000000000E+00 0.  1.
        -11    1    4    4    0    0 -0.14634388968E-01 -0.20705122445E-01  0.76952326288E-01  0.81023385995E-01  0.51100000000E-03 0. -1.
         11    1    4    4    0    0 -0.23673363226E-01 -0.83983324307E-02  0.42707443794E-01  0.49549439860E-01  0.51100000000E-03 0.  1.
</event>
<event>
 8    1  0.1086486E+005  0.1043930E+01  0.7957747E-01            NaN
         13   -1    0    0    0    0  0.00000000000E+00  0.00000000000E+00  0.74505805969E-08  0.10566000000E+00  0.10566000000E+00 0.  1.
     999900   -1    0    0    0    0 -0.00000000000E+00 -0.00000000000E+00 -0.74505805969E-08  0.93827000000E+00  0.93827000000E+00 0.  1.
     999902    2    1    2    0    0 -0.81345174651E-02 -0.23772486853E-02 -0.20822125507E-01  0.10214492839E+01  0.10212018689E+01 0.  0.
     999903    2    3    3    0    0 -0.12371779197E+00  0.42451764326E-01  0.46385460328E-02  0.13239507883E+00  0.19967384580E-01 0.  0.
         14    1    1    2    0    0  0.81345174651E-02  0.23772486853E-02  0.20822125507E-01  0.22480716100E-01  0.00000000000E+00 0.  1.
     999901    1    3    3    0    0  0.11558327450E+00 -0.44829013011E-01 -0.25460671540E-01  0.88905420507E+00  0.88000000000E+00 0. -1.
        -11    1    4    4    0    0 -0.88184221546E-01  0.21245496722E-01 -0.36947699847E-03  0.90709567824E-01  0.51100000000E-03 0.  1.
         11    1    4    4    0    0 -0.35533570419E-01  0.21206267604E-01  0.50080230312E-02  0.41685511009E-01  0.51100000000E-03 0. -1.
</event>
<event>
 8    1  0.1086486E+005  0.1043930E+01  0.7957747E-01            NaN
         13   -1    0    0    0    0  0.00000000000E+00  0.00000000000E+00  0.74505805969E-08  0.10566000000E+00  0.10566000000E+00 0.  1.
     999900   -1    0    0    0    0 -0.00000000000E+00 -0.00000000000E+00 -0.74505805969E-08  0.93827000000E+00  0.93827000000E+00 0. -1.
     999902    2    1    2    0    0 -0.17334977035E-01  0.85116591063E-02  0.13828589683E-01  0.10201775336E+01  0.10199009855E+01 0.  0.
     999903    2    3    3    0    0  0.13858255205E-01  0.58723647332E-02  0.12955254533E+00  0.13204915459E+00  0.20653845175E-01 0.  0.
         14    1    1    2    0    0  0.17334977035E-01 -0.85116591063E-02 -0.13828589683E-01  0.23752466444E-01  0.00000000000E+00 0. -1.
     999901    1    3    3    0    0 -0.31193232241E-01  0.26392943731E-02 -0.11572395565E+00  0.88812837897E+00  0.88000000000E+00 0. -1.
        -11    1    4    4    0    0  0.10609546379E-01  0.13043234581E-01  0.10245186873E+00  0.10382357618E+00  0.51100000000E-03 0. -1.
         11    1    4    4    0    0  0.32487088265E-02 -0.71708698475E-02  0.27100676599E-01  0.28225578410E-01  0.51100000000E-03 0.  1.
</event>
<event>
 8    1  0.1086486E+005  0.1043930E+01  0.7957747E-01            NaN
         13   -1    0    0    0    0  0.00000000000E+00  0.00000000000E+00  0.74505805969E-08  0.10566000000E+00  0.10566000000E+00 0.  1.
     999900   -1    0    0    0    0 -0.00000000000E+00 -0.00000000000E+00 -0.74505805969E-08  0.93827000000E+00  0.93827000000E+00 0. -1.
     999902    2    1    2    0    0 -0.14102178433E-01  0.12950774490E-01  0.12532646213E-01  0.10210463548E+01  0.10207898890E+01 0.  0.
     999903    2    3    3    0    0 -0.75687343175E-01 -0.22854591897E-01 -0.10187047503E+00  0.13078637540E+00  0.21830621162E-01 0.  0.
         14    1    1    2    0    0  0.14102178433E-01 -0.12950774490E-01 -0.12532646213E-01  0.22883645198E-01  0.00000000000E+00 0. -1.
     999901    1    3    3    0    0  0.61585164743E-01  0.35805366388E-01  0.11440312124E+00  0.89025997940E+00  0.88000000000E+00 0.  1.
        -11    1    4    4    0    0 -0.20849271213E-01 -0.14191011991E-01 -0.43087487672E-01  0.49928645549E-01  0.51100000000E-03 0.  1.
         11    1    4    4    0    0 -0.54838071962E-01 -0.86635799069E-02 -0.58782987353E-01  0.80857729850E-01  0.51100000000E-03 0. -1.
</event>
<event>
 8    1  0.1086486E+005  0.1043930E+01  0.7957747E-01            NaN
         13   -1    0    0    0    0  0.00000000000E+00  0.00000000000E+00  0.74505805969E-08  0.10566000000E+00  0.10566000000E+00 0. -1.
     999900   -1    0    0    0    0 -0.00000000000E+00 -0.00000000000E+00 -0.74505805969E-08  0.93827000000E+00  0.93827000000E+00 0. -1.
     999902    2    1    2    0    0  0.16611504445E-04 -0.62047619204E-03 -0.23411301784E-01  0.10205104714E+01  0.10202417106E+01 0.  0.
     999903    2    3    3    0    0  0.47871739679E-01  0.62291580290E-01 -0.10542309331E+00  0.13316951437E+00  0.21169471437E-01 0.  0.
         14    1    1    2    0    0 -0.16611504445E-04  0.62047619204E-03  0.23411301784E-01  0.23419528558E-01  0.00000000000E+00 0. -1.
     999901    1    3    3    0    0 -0.47855128175E-01 -0.62912056482E-01  0.82011791523E-01  0.88734095707E+00  0.88000000000E+00 0.  1.
        -11    1    4    4    0    0  0.36544306860E-01  0.47302052277E-01 -0.93290223634E-01  0.11079845423E+00  0.51100000000E-03 0.  1.
         11    1    4    4    0    0  0.11327432819E-01  0.14989528012E-01 -0.12132869673E-01  0.22371060140E-01  0.51100000000E-03 0. -1.
</event>
<event>
 8    1  0.1086486E+005  0.1043930E+01  0.7957747E-01            NaN
         13   -1    0    0    0    0  0.00000000000E+00  0.00000000000E+00  0.74505805969E-08  0.10566000000E+00  0.10566000000E+00 0. -1.
     999900   -1    0    0    0    0 -0.00000000000E+00 -0.00000000000E+00 -0.74505805969E-08  0.93827000000E+00  0.93827000000E+00 0.  1.
     999902    2    1    2    0    0 -0.41927006509E-03  0.21191158152E-01  0.11962661788E-01  0.10195918356E+01  0.10193013121E+01 0.  0.
     999903    2    3    3    0    0  0.10065480313E+00 -0.75184533485E-01  0.18952783654E-01  0.12855137407E+00  0.19548511437E-01 0.  0.
         14    1    1    2    0    0  0.41927006509E-03 -0.21191158152E-01 -0.11962661788E-01  0.24338164439E-01  0.00000000000E+00 0. -1.
     999901    1    3    3    0    0 -0.10107407319E+00  0.96375691636E-01 -0.69901218661E-02  0.89104046149E+00  0.88000000000E+00 0. -1.
        -11    1    4    4    0    0  0.63537743997E-01 -0.50289573898E-01  0.29811611264E-02  0.81087820280E-01  0.51100000000E-03 0. -1.
         11    1    4    4    0    0  0.37117059129E-01 -0.24894959586E-01  0.15971622528E-01  0.47463553790E-01  0.51100000000E-03 0.  1.
</event>
<event>
 8    1  0.1086486E+005  0.1043930E+01  0.7957747E-01            NaN
         13   -1    0    0    0    0  0.00000000000E+00  0.00000000000E+00  0.74505805969E-08  0.10566000000E+00  0.10566000000E+00 0.  1.
     999900   -1    0    0    0    0 -0.00000000000E+00 -0.00000000000E+00 -0.74505805969E-08  0.93827000000E+00  0.93827000000E+00 0.  1.
     999902    2    1    2    0    0 -0.20298810439E-02 -0.14797991240E-01  0.29916231512E-01  0.10104922688E+01  0.10099388810E+01 0.  0.
     999903    2    3    3    0    0  0.34335147079E-01 -0.76041514928E-01 -0.84198665122E-01  0.12027016497E+00  0.20353944485E-01 0.  0.
         14    1    1    2    0    0  0.20298810439E-02  0.14797991240E-01 -0.29916231512E-01  0.33437731228E-01  0.00000000000E+00 0. -1.
     999901    1    3    3    0    0 -0.36365028123E-01  0.61243523688E-01  0.11411489663E+00  0.89022210380E+00  0.88000000000E+00 0. -1.
        -11    1    4    4    0    0  0.16203047335E-02 -0.26023754229E-01 -0.27120688682E-01  0.37625178368E-01  0.51100000000E-03 0.  1.
         11    1    4    4    0    0  0.32714842346E-01 -0.50017760699E-01 -0.57077976440E-01  0.82644986602E-01  0.51100000000E-03 0. -1.
</event>
<event>
 8    1  0.1086486E+005  0.1043930E+01  0.7957747E-01            NaN
         13   -1    0    0    0    0  0.00000000000E+00  0.00000000000E+00  0.74505805969E-08  0.10566000000E+00  0.10566000000E+00 0. -1.
     999900   -1    0    0    0    0 -0.00000000000E+00 -0.00000000000E+00 -0.74505805969E-08  0.93827000000E+00  0.93827000000E+00 0. -1.
     999902    2    1    2    0    0  0.92333410149E-02 -0.21067971001E-01 -0.75312799538E-02  0.10197259886E+01  0.10194386974E+01 0.  0.
     999903    2    3    3    0    0 -0.82290661943E-01  0.94791402560E-01  0.52600639919E-03  0.12738919268E+00  0.21692549079E-01 0.  0.
         14    1    1    2    0    0 -0.92333410149E-02  0.21067971001E-01  0.75312799538E-02  0.24204011365E-01  0.00000000000E+00 0.  1.
     999901    1    3    3    0    0  0.91524002958E-01 -0.11585937356E+00 -0.80572863530E-02  0.89233679596E+00  0.88000000000E+00 0.  1.
        -11    1    4    4    0    0 -0.42462841277E-01  0.63441336817E-01  0.49837415491E-02  0.76504868520E-01  0.51100000000E-03 0. -1.
         11    1    4    4    0    0 -0.39827820666E-01  0.31350065743E-01 -0.44577351499E-02  0.50884324156E-01  0.51100000000E-03 0.  1.
</event>
<event>
 8    1  0.1086486E+005  0.1043930E+01  0.7957747E-01            NaN
         13   -1    0    0    0    0  0.00000000000E+00  0.00000000000E+00  0.74505805969E-08  0.10566000000E+00  0.10566000000E+00 0.  1.
     999900   -1    0    0    0    0 -0.00000000000E+00 -0.00000000000E+00 -0.74505805969E-08  0.93827000000E+00  0.93827000000E+00 0.  1.
     999902    2    1    2    0    0  0.20517214410E-01  0.11989433980E-01 -0.30765085120E-02  0.10199682071E+01  0.10196867048E+01 0.  0.
     999903    2    3    3    0    0  0.11039090452E+00  0.64558924675E-01 -0.31757000745E-01  0.13336604031E+00  0.20590945941E-01 0.  0.
         14    1    1    2    0    0 -0.20517214410E-01 -0.11989433980E-01  0.30765085120E-02  0.23961792899E-01  0.00000000000E+00 0.  1.
     999901    1    3    3    0    0 -0.89873690113E-01 -0.52569490696E-01  0.28680492233E-01  0.88660216679E+00  0.88000000000E+00 0.  1.
        -11    1    4    4    0    0  0.34422090339E-01  0.13600510733E-01 -0.16894160652E-01  0.40688179864E-01  0.51100000000E-03 0. -1.
         11    1    4    4    0    0  0.75968814184E-01  0.50958413942E-01 -0.14862840093E-01  0.92677860445E-01  0.51100000000E-03 0.  1.
</event>
<event>
 8    1  0.1086486E+005  0.1043930E+01  0.7957747E-01            NaN
         13   -1    0    0    0    0  0.00000000000E+00  0.00000000000E+00  0.74505805969E-08  0.10566000000E+00  0.10566000000E+00 0.  1.
     999900   -1    0    0    0    0 -0.00000000000E+00 -0.00000000000E+00 -0.74505805969E-08  0.93827000000E+00  0.93827000000E+00 0. -1.
     999902    2    1    2    0    0 -0.59369381308E-02 -0.19598851705E-01 -0.11139885892E-01  0.10206177869E+01  0.10203515118E+01 0.  0.
     999903    2    3    3    0    0 -0.32336240136E-01 -0.11265817692E+00 -0.57084731624E-01  0.13412588619E+00  0.31521254863E-01 0.  0.
         14    1    1    2    0    0  0.59369381308E-02  0.19598851705E-01  0.11139885892E-01  0.23312213113E-01  0.00000000000E+00 0.  1.
     999901    1    3    3    0    0  0.26399302005E-01  0.93059325214E-01  0.45944845732E-01  0.88649190070E+00  0.88000000000E+00 0. -1.
        -11    1    4    4    0    0 -0.13334527445E-01 -0.28349130824E-01 -0.30444906099E-01  0.43687941918E-01  0.51100000000E-03 0. -1.
         11    1    4    4    0    0 -0.19001712691E-01 -0.84309046096E-01 -0.26639825525E-01  0.90437944270E-01  0.51100000000E-03 0.  1.
</event>
<event>
 8    1  0.1086486E+005  0.1043930E+01  0.7957747E-01            NaN
         13   -1    0    0    0    0  0.00000000000E+00  0.00000000000E+00  0.74505805969E-08  0.10566000000E+00  0.10566000000E+00 0. -1.
     999900   -1    0    0    0    0 -0.00000000000E+00 -0.00000000000E+00 -0.74505805969E-08  0.93827000000E+00  0.93827000000E+00 0. -1.
     999902    2    1    2    0    0  0.89750775572E-02 -0.21410160189E-01 -0.69545529563E-02  0.10196954630E+01  0.10194074379E+01 0.  0.
     999903    2    3    3    0    0 -0.67432780916E-01 -0.23340356361E-01  0.10591907016E+00  0.12919990362E+00  0.19540048474E-01 0.  0.
         14    1    1    2    0    0 -0.89750775572E-02  0.21410160189E-01  0.69545529563E-02  0.24234536994E-01  0.00000000000E+00 0.  1.
     999901    1    3    3    0    0  0.76407858473E-01  0.19301961718E-02 -0.11287362312E+00  0.89049555939E+00  0.88000000000E+00 0. -1.
        -11    1    4    4    0    0 -0.26949294636E-01 -0.51014128049E-02  0.56200137171E-01  0.62538031892E-01  0.51100000000E-03 0. -1.
         11    1    4    4    0    0 -0.40483486280E-01 -0.18238943556E-01  0.49718932990E-01  0.66661871726E-01  0.51100000000E-03 0.  1.
</event>
<event>
 8    1  0.1086486E+005  0.1043930E+01  0.7957747E-01            NaN
         13   -1    0    0    0    0  0.00000000000E+00  0.00000000000E+00  0.74505805969E-08  0.10566000000E+00  0.10566000000E+00 0. -1.
     999900   -1    0    0    0    0 -0.00000000000E+00 -0.00000000000E+00 -0.74505805969E-08  0.93827000000E+00  0.93827000000E+00 0.  1.
     999902    2    1    2    0    0 -0.77506089790E-02  0.82121206514E-02 -0.19267356818E-01  0.10215974698E+01  0.10213533416E+01 0.  0.
     999903    2    3    3    0    0 -0.12923414153E+00 -0.79974731472E-02  0.18674384799E-01  0.13229404840E+00  0.19686535503E-01 0.  0.
         14    1    1    2    0    0  0.77506089790E-02 -0.82121206514E-02  0.19267356818E-01  0.22332530172E-01  0.00000000000E+00 0. -1.
     999901    1    3    3    0    0  0.12148353255E+00  0.16209593799E-01 -0.37941741617E-01  0.88930342143E+00  0.88000000000E+00 0.  1.
        -11    1    4    4    0    0 -0.64045087493E-01 -0.13576595707E-01  0.71815189463E-02  0.65862982915E-01  0.51100000000E-03 0.  1.
         11    1    4    4    0    0 -0.65189054036E-01  0.55791225599E-02  0.11492865853E-01  0.66431065483E-01  0.51100000000E-03 0. -1.
</event>
<event>
 7    1  0.1086486E+005  0.1043930E+01  0.7957747E-01            NaN
         13   -1    0    0    0    0  0.00000000000E+00  0.00000000000E+00  0.74505805969E-08  0.10566000000E+00  0.10566000000E+00 0. -1.
     999900   -1    0    0    0    0 -0.00000000000E+00 -0.00000000000E+00 -0.74505805969E-08  0.93827000000E+00  0.93827000000E+00 0. -1.
     999903    2    1    2    0    0  0.10316484707E+00 -0.34831531159E-01 -0.10564474433E-01  0.11138595104E+00  0.20952344431E-01 0.  0.
         14    1    1    2    0    0  0.23530962491E-01 -0.50446161380E-02 -0.33776260187E-01  0.41472763351E-01  0.00000000000E+00 0.  1.
     999901    1    1    2    0    0 -0.12669580956E+00  0.39876147297E-01  0.44340734620E-01  0.89107128560E+00  0.88000000000E+00 0.  1.
        -11    1    3    3    0    0  0.29515326832E-01 -0.21564318997E-02 -0.84628855648E-02  0.30784513470E-01  0.51100000000E-03 0. -1.
         11    1    3    3    0    0  0.73649520234E-01 -0.32675099260E-01 -0.21015888679E-02  0.80601437574E-01  0.51100000000E-03 0.  1.
</event>
<event>
 8    1  0.1086486E+005  0.1043930E+01  0.7957747E-01            NaN
         13   -1    0    0    0    0  0.00000000000E+00  0.00000000000E+00  0.74505805969E-08  0.10566000000E+00  0.10566000000E+00 0.  1.
     999900   -1    0    0    0    0 -0.00000000000E+00 -0.00000000000E+00 -0.74505805969E-08  0.93827000000E+00  0.93827000000E+00 0.  1.
     999902    2    1    2    0    0  0.89365927814E-02  0.12114090826E-01  0.19913502082E-01  0.10189667980E+01  0.10186609711E+01 0.  0.
     999903    2    3    3    0    0  0.78906951372E-01  0.29932237082E-02 -0.98806091411E-01  0.12819556861E+00  0.20885251923E-01 0.  0.
         14    1    1    2    0    0 -0.89365927814E-02 -0.12114090826E-01 -0.19913502082E-01  0.24963201963E-01  0.00000000000E+00 0. -1.
     999901    1    3    3    0    0 -0.69970358591E-01  0.91208671179E-02  0.11871959349E+00  0.89077122943E+00  0.88000000000E+00 0. -1.
        -11    1    4    4    0    0  0.63051578290E-01 -0.48369837144E-02 -0.83889941275E-01  0.10505561053E+00  0.51100000000E-03 0. -1.
         11    1    4    4    0    0  0.15855373082E-01  0.78302074226E-02 -0.14916150136E-01  0.23139958075E-01  0.51100000000E-03 0.  1.
</event>
<event>
 8    1  0.1086486E+005  0.1043930E+01  0.7957747E-01            NaN
         13   -1    0    0    0    0  0.00000000000E+00  0.00000000000E+00  0.74505805969E-08  0.10566000000E+00  0.10566000000E+00 0. -1.
     999900   -1    0    0    0    0 -0.00000000000E+00 -0.00000000000E+00 -0.74505805969E-08  0.93827000000E+00  0.93827000000E+00 0.  1.
     999902    2    1    2    0    0 -0.23154892949E-01 -0.55967124637E-02  0.80972803928E-02  0.10187697495E+01  0.10184590145E+01 0.  0.
     999903    2    3    3    0    0 -0.44120091805E-01  0.52862547144E-01 -0.10734355345E+00  0.12905990309E+00  0.19818898207E-01 0.  0.
         14    1    1    2    0    0  0.23154892949E-01  0.55967124637E-02 -0.80972803928E-02  0.25160250548E-01  0.00000000000E+00 0. -1.
     999901    1    3    3    0    0  0.20965198856E-01 -0.58459259607E-01  0.11544083384E+00  0.88970984636E+00  0.88000000000E+00 0.  1.
        -11    1    4    4    0    0 -0.21474129252E-01  0.25313375337E-01 -0.34087183115E-01  0.47582584753E-01  0.51100000000E-03 0. -1.
         11    1    4    4    0    0 -0.22645962554E-01  0.27549171807E-01 -0.73256370337E-01  0.81477318336E-01  0.51100000000E-03 0.  1.
</event>
<event>
 8    1  0.1086486E+005  0.1043930E+01  0.7957747E-01            NaN
         13   -1    0    0    0    0  0.00000000000E+00  0.00000000000E+00  0.74505805969E-08  0.10566000000E+00  0.10566000000E+00 0.  1.
     999900   -1    0    0    0    0 -0.00000000000E+00 -0.00000000000E+00 -0.74505805969E-08  0.93827000000E+00  0.93827000000E+00 0. -1.
     999902    2    1    2    0    0  0.15374623275E-02 -0.12059271679E-01 -0.20902375127E-01  0.10197494477E+01  0.10194627198E+01 0.  0.
     999903    2    3    3    0    0 -0.12645680219E+00 -0.23874198838E-01  0.17455560695E-02  0.13012309183E+00  0.19174771750E-01 0.  0.
         14    1    1    2    0    0 -0.15374623275E-02  0.12059271679E-01  0.20902375127E-01  0.24180552305E-01  0.00000000000E+00 0.  1.
     999901    1    3    3    0    0  0.12799426452E+00  0.11814927159E-01 -0.22647931196E-01  0.88962635586E+00  0.88000000000E+00 0. -1.
        -11    1    4    4    0    0 -0.14882550333E-01  0.74892286394E-04  0.56813949252E-02  0.15938484325E-01  0.51100000000E-03 0. -1.
         11    1    4    4    0    0 -0.11157425186E+00 -0.23949091124E-01 -0.39358388557E-02  0.11418460751E+00  0.51100000000E-03 0.  1.
</event>
<event>
 8    1  0.1086486E+005  0.1043930E+01  0.7957747E-01            NaN
         13   -1    0    0    0    0  0.00000000000E+00  0.00000000000E+00  0.74505805969E-08  0.10566000000E+00  0.10566000000E+00 0. -1.
     999900   -1    0    0    0    0 -0.00000000000E+00 -0.00000000000E+00 -0.74505805969E-08  0.93827000000E+00  0.93827000000E+00 0. -1.
     999902    2    1    2    0    0 -0.19702855392E-01 -0.81419938913E-02 -0.13051195448E-01  0.10189334347E+01  0.10186267796E+01 0.  0.
     999903    2    3    3    0    0  0.11201978438E+00  0.36253240727E-01 -0.44530837612E-01  0.12746680123E+00  0.20051442895E-01 0.  0.
         14    1    1    2    0    0  0.19702855392E-01  0.81419938913E-02  0.13051195448E-01  0.24996565319E-01  0.00000000000E+00 0. -1.
     999901    1    3    3    0    0 -0.13172263977E+00 -0.44395234618E-01  0.31479642163E-01  0.89146663345E+00  0.88000000000E+00 0.  1.
        -11    1    4    4    0    0  0.10738624519E+00  0.38728035932E-01 -0.42555792434E-01  0.12183153538E+00  0.51100000000E-03 0. -1.
         11    1    4    4    0    0  0.46335391918E-02 -0.24747952052E-02 -0.19750451777E-02  0.56352658503E-02  0.51100000000E-03 0.  1.
</event>
<event>
 8    1  0.1086486E+005  0.1043930E+01  0.7957747E-01            NaN
         13   -1    0    0    0    0  0.00000000000E+00  0.00000000000E+00  0.74505805969E-08  0.10566000000E+00  0.10566000000E+00 0. -1.
     999900   -1    0    0    0    0 -0.00000000000E+00 -0.00000000000E+00 -0.74505805969E-08  0.93827000000E+00  0.93827000000E+00 0. -1.
     999902    2    1    2    0    0  0.20361622420E-01 -0.11731900239E-01  0.15259029548E-02  0.10203808699E+01  0.10201090912E+01 0.  0.
     999903    2    3    3    0    0 -0.86721557586E-01  0.91796300661E-01 -0.71421573882E-03  0.12786201070E+00  0.20024842319E-01 0.  0.
         14    1    1    2    0    0 -0.20361622420E-01  0.11731900239E-01 -0.15259029548E-02  0.23549130146E-01  0.00000000000E+00 0.  1.
     999901    1    3    3    0    0  0.10708318001E+00 -0.10352820090E+00  0.22401186936E-02  0.89251885916E+00  0.88000000000E+00 0.  1.
        -11    1    4    4    0    0 -0.20634981775E-01  0.10840926400E-01 -0.13529775812E-02  0.23354225044E-01  0.51100000000E-03 0.  1.
         11    1    4    4    0    0 -0.66086575811E-01  0.80955374261E-01  0.63876184237E-03  0.10450778565E+00  0.51100000000E-03 0. -1.
</event>
<event>
 8    1  0.1086486E+005  0.1043930E+01  0.7957747E-01            NaN
         13   -1    0    0    0    0  0.00000000000E+00  0.00000000000E+00  0.74505805969E-08  0.10566000000E+00  0.10566000000E+00 0. -1.
     999900   -1    0    0    0    0 -0.00000000000E+00 -0.00000000000E+00 -0.74505805969E-08  0.93827000000E+00  0.93827000000E+00 0. -1.
     999902    2    1    2    0    0  0.22649892749E-01  0.56301469195E-02  0.56425141820E-02  0.10199184577E+01  0.10196357714E+01 0.  0.
     999903    2    3    3    0    0 -0.10881470346E+00 -0.18734634335E-01 -0.60506871088E-01  0.12736463650E+00  0.19210491145E-01 0.  0.
         14    1    1    2    0    0 -0.22649892749E-01 -0.56301469195E-02 -0.56425141820E-02  0.24011542270E-01  0.00000000000E+00 0.  1.
     999901    1    3    3    0    0  0.13146459620E+00  0.24364781255E-01  0.66149385270E-01  0.89255382123E+00  0.88000000000E+00 0.  1.
        -11    1    4    4    0    0 -0.64644743979E-01 -0.20634190135E-01 -0.36417368134E-01  0.77014274972E-01  0.51100000000E-03 0.  1.
         11    1    4    4    0    0 -0.44169959476E-01  0.18995558002E-02 -0.24089502955E-01  0.50350361528E-01  0.51100000000E-03 0. -1.
</event>
<event>
 8    1  0.1086486E+005  0.1043930E+01  0.7957747E-01            NaN
         13   -1    0    0    0    0  0.00000000000E+00  0.00000000000E+00  0.74505805969E-08  0.10566000000E+00  0.10566000000E+00 0. -1.
     999900   -1    0    0    0    0 -0.00000000000E+00 -0.00000000000E+00 -0.74505805969E-08  0.93827000000E+00  0.93827000000E+00 0. -1.
     999902    2    1    2    0    0  0.11333856836E-01 -0.15845804503E-01  0.10727220375E-01  0.10216899665E+01  0.10214478786E+01 0.  0.
     999903    2    3    3    0    0  0.69586022702E-01  0.97930865131E-01  0.49810805018E-01  0.13159672875E+00  0.20097607324E-01 0.  0.
         14    1    1    2    0    0 -0.11333856836E-01  0.15845804503E-01 -0.10727220375E-01  0.22240033455E-01  0.00000000000E+00 0. -1.
     999901    1    3    3    0    0 -0.58252165866E-01 -0.11377666963E+00 -0.39083584644E-01  0.89009323780E+00  0.88000000000E+00 0.  1.
        -11    1    4    4    0    0  0.11175867552E-01  0.96510988770E-02  0.12516182882E-01  0.19363875646E-01  0.51100000000E-03 0.  1.
         11    1    4    4    0    0  0.58410155149E-01  0.88279766254E-01  0.37294622136E-01  0.11223285310E+00  0.51100000000E-03 0. -1.
</event>
<event>
 8    1  0.1086486E+005  0.1043930E+01  0.7957747E-01            NaN
         13   -1    0    0    0    0  0.00000000000E+00  0.00000000000E+00  0.74505805969E-08  0.10566000000E+00  0.10566000000E+00 0.  1.
     999900   -1    0    0    0    0 -0.00000000000E+00 -0.00000000000E+00 -0.74505805969E-08  0.93827000000E+00  0.93827000000E+00 0.  1.
     999902    2    1    2    0    0  0.32002658763E-02 -0.22894790717E-01 -0.45193552998E-02  0.10203750066E+01  0.10201030910E+01 0.  0.
     999903    2    3    3    0    0 -0.10010500342E+00 -0.41299760206E-01  0.70802854157E-01  0.13094588808E+00  0.20176707965E-01 0.  0.
         14    1    1    2    0    0 -0.32002658763E-02  0.22894790717E-01  0.45193552998E-02  0.23554993441E-01  0.00000000000E+00 0.  1.
     999901    1    3    3    0    0  0.10330526930E+00  0.18404969489E-01 -0.75322209457E-01  0.88942911848E+00  0.88000000000E+00 0.  1.
        -11    1    4    4    0    0 -0.55449167173E-01 -0.27665897101E-01  0.29616015016E-01  0.68683196409E-01  0.51100000000E-03 0. -1.
         11    1    4    4    0    0 -0.44655836249E-01 -0.13633863105E-01  0.41186839141E-01  0.62262691668E-01  0.51100000000E-03 0.  1.
</event>
<event>
 8    1  0.1086486E+005  0.1043930E+01  0.7957747E-01            NaN
         13   -1    0    0    0    0  0.00000000000E+00  0.00000000000E+00  0.74505805969E-08  0.10566000000E+00  0.10566000000E+00 0. -1.
     999900   -1    0    0    0    0 -0.00000000000E+00 -0.00000000000E+00 -0.74505805969E-08  0.93827000000E+00  0.93827000000E+00 0. -1.
     999902    2    1    2    0    0  0.12441097726E-01  0.30586721249E-02 -0.20680655061E-01  0.10196025283E+01  0.10193122631E+01 0.  0.
     999903    2    3    3    0    0 -0.11743374378E+00 -0.45100440827E-01  0.53862329010E-02  0.12838636073E+00  0.25086095270E-01 0.  0.
         14    1    1    2    0    0 -0.12441097726E-01 -0.30586721249E-02  0.20680655061E-01  0.24327471746E-01  0.00000000000E+00 0. -1.
     999901    1    3    3    0    0  0.12987484150E+00  0.48159112952E-01 -0.26066887962E-01  0.89121616753E+00  0.88000000000E+00 0.  1.
        -11    1    4    4    0    0 -0.27200772193E-01 -0.21583514651E-01  0.53546819426E-02  0.35137783827E-01  0.51100000000E-03 0.  1.
         11    1    4    4    0    0 -0.90232971582E-01 -0.23516926177E-01  0.31550958435E-04  0.93248576899E-01  0.51100000000E-03 0. -1.
</event>
<event>
 7    1  0.1086486E+005  0.1043930E+01  0.7957747E-01            NaN
         13   -1    0    0    0    0  0.00000000000E+00  0.00000000000E+00  0.74505805969E-08  0.10566000000E+00  0.10566000000E+00 0. -1.
     999900   -1    0    0    0    0 -0.00000000000E+00 -0.00000000000E+00 -0.74505805969E-08  0.93827000000E+00  0.93827000000E+00 0. -1.
     999903    2    1    2    0    0 -0.77474048118E-01  0.68163135853E-01 -0.16763643267E-01  0.10627124908E+00  0.19081861118E-01 0.  0.
         14    1    1    2    0    0  0.17617755608E-01 -0.39559666930E-01  0.33899021868E-01  0.54995420209E-01  0.00000000000E+00 0. -1.
     999901    1    1    2    0    0  0.59856292509E-01 -0.28603468923E-01 -0.17135378601E-01  0.88266333071E+00  0.88000000000E+00 0.  1.
        -11    1    3    3    0    0 -0.46286303675E-01  0.31641655451E-01 -0.15715826142E-01  0.58231130676E-01  0.51100000000E-03 0. -1.
         11    1    3    3    0    0 -0.31187744443E-01  0.36521480402E-01 -0.10478171255E-02  0.48040118401E-01  0.51100000000E-03 0.  1.
</event>
<event>
 8    1  0.1086486E+005  0.1043930E+01  0.7957747E-01            NaN
         13   -1    0    0    0    0  0.00000000000E+00  0.00000000000E+00  0.74505805969E-08  0.10566000000E+00  0.10566000000E+00 0.  1.
     999900   -1    0    0    0    0 -0.00000000000E+00 -0.00000000000E+00 -0.74505805969E-08  0.93827000000E+00  0.93827000000E+00 0. -1.
     999902    2    1    2    0    0  0.51092959925E-02  0.14367110793E-01 -0.18035159179E-01  0.10203125119E+01  0.10200391346E+01 0.  0.
     999903    2    3    3    0    0  0.87156665808E-01  0.85639206298E-01 -0.48672149733E-01  0.13309770831E+00  0.20387833345E-01 0.  0.
         14    1    1    2    0    0 -0.51092959925E-02 -0.14367110793E-01  0.18035159179E-01  0.23617488112E-01  0.00000000000E+00 0.  1.
     999901    1    3    3    0    0 -0.82047369816E-01 -0.71272095505E-01  0.30636990554E-01  0.88721480357E+00  0.88000000000E+00 0. -1.
        -11    1    4    4    0    0  0.81167090409E-01  0.72144745415E-01 -0.38754369975E-01  0.11530448027E+00  0.51100000000E-03 0.  1.
         11    1    4    4    0    0  0.59895753992E-02  0.13494460883E-01 -0.99177797584E-02  0.17793228047E-01  0.51100000000E-03 0. -1.
</event>
<event>
 8    1  0.1086486E+005  0.1043930E+01  0.7957747E-01            NaN
         13   -1    0    0    0    0  0.00000000000E+00  0.00000000000E+00  0.74505805969E-08  0.10566000000E+00  0.10566000000E+00 0.  1.
     999900   -1    0    0    0    0 -0.00000000000E+00 -0.00000000000E+00 -0.74505805969E-08  0.93827000000E+00  0.93827000000E+00 0.  1.
     999902    2    1    2    0    0 -0.12601959916E-01  0.13590112282E-03 -0.20770352626E-01  0.10196352390E+01  0.10193457633E+01 0.  0.
     999903    2    3    3    0    0  0.19040338117E-01 -0.11521735703E+00 -0.55671127092E-01  0.13085761034E+00  0.19668908355E-01 0.  0.
         14    1    1    2    0    0  0.12601959916E-01 -0.13590112282E-03  0.20770352626E-01  0.24294760979E-01  0.00000000000E+00 0.  1.
     999901    1    3    3    0    0 -0.31642298033E-01  0.11535325815E+00  0.34900774466E-01  0.88877762868E+00  0.88000000000E+00 0. -1.
        -11    1    4    4    0    0  0.50163543367E-02 -0.36589195920E-01 -0.78326966567E-02  0.37756394516E-01  0.51100000000E-03 0.  1.
         11    1    4    4    0    0  0.14023983780E-01 -0.78628161106E-01 -0.47838430435E-01  0.93101215821E-01  0.51100000000E-03 0. -1.
</event>
<event>
 8    1  0.1086486E+005  0.1043930E+01  0.7957747E-01            NaN
         13   -1    0    0    0    0  0.00000000000E+00  0.00000000000E+00  0.74505805969E-08  0.10566000000E+00  0.10566000000E+00 0.  1.
     999900   -1    0    0    0    0 -0.00000000000E+00 -0.00000000000E+00 -0.74505805969E-08  0.93827000000E+00  0.93827000000E+00 0.  1.
     999902    2    1    2    0    0 -0.21341698554E-01 -0.10157334777E-01  0.42877033338E-02  0.10199086772E+01  0.10196257578E+01 0.  0.
     999903    2    3    3    0    0  0.32519652791E-01 -0.32938601071E-01 -0.11941297021E+00  0.12933476796E+00  0.18042879209E-01 0.  0.
         14    1    1    2    0    0  0.21341698554E-01  0.10157334777E-01 -0.42877033338E-02  0.24021322754E-01  0.00000000000E+00 0. -1.
     999901    1    3    3    0    0 -0.53861351345E-01  0.22781266294E-01  0.12370067355E+00  0.89057390928E+00  0.88000000000E+00 0. -1.
        -11    1    4    4    0    0  0.22569570841E-01 -0.11404326811E-01 -0.51066272310E-01  0.56986572863E-01  0.51100000000E-03 0.  1.
         11    1    4    4    0    0  0.99500819500E-02 -0.21534274260E-01 -0.68346697904E-01  0.72348195099E-01  0.51100000000E-03 0. -1.
</event>
<event>
 8    1  0.1086486E+005  0.1043930E+01  0.7957747E-01            NaN
         13   -1    0    0    0    0  0.00000000000E+00  0.00000000000E+00  0.74505805969E-08  0.10566000000E+00  0.10566000000E+00 0. -1.
     999900   -1    0    0    0    0 -0.00000000000E+00 -0.00000000000E+00 -0.74505805969E-08  0.93827000000E+00  0.93827000000E+00 0. -1.
     999902    2    1    2    0    0 -0.16747685773E-01  0.20912396359E-01  0.62858524222E-02  0.10164104571E+01  0.10160378399E+01 0.  0.
     999903    2    3    3    0    0 -0.47662916707E-02 -0.10478907168E-01 -0.12392872462E+00  0.12619430144E+00  0.20836216045E-01 0.  0.
         14    1    1    2    0    0  0.16747685773E-01 -0.20912396359E-01 -0.62858524222E-02  0.27519542890E-01  0.00000000000E+00 0.  1.
     999901    1    3    3    0    0 -0.11981394102E-01  0.31391303527E-01  0.13021457704E+00  0.89021615567E+00  0.88000000000E+00 0.  1.
        -11    1    4    4    0    0 -0.93457753030E-02  0.74388149292E-03 -0.28722271257E-01  0.30217989060E-01  0.51100000000E-03 0.  1.
         11    1    4    4    0    0  0.45794836323E-02 -0.11222788661E-01 -0.95206453360E-01  0.95976312380E-01  0.51100000000E-03 0. -1.
</event>
<event>
 8    1  0.1145851E+005  0.1043930E+01  0.7957747E-01            NaN
         13   -1    0    0    0    0  0.00000000000E+00  0.00000000000E+00  0.74505805969E-08  0.10566000000E+00  0.10566000000E+00 0. -1.
     999900   -1    0    0    0    0 -0.00000000000E+00 -0.00000000000E+00 -0.74505805969E-08  0.93827000000E+00  0.93827000000E+00 0. -1.
     999902    2    1    2    0    0  0.12855519282E-01  0.72450879651E-02 -0.17101278574E-01  0.10213421846E+01  0.10210923801E+01 0.  0.
     999903    2    3    3    0    0  0.48126532804E-02  0.12941379441E+00 -0.22439002207E-01  0.13284999453E+00  0.19352529820E-01 0.  0.
         14    1    1    2    0    0 -0.12855519282E-01 -0.72450879651E-02  0.17101278574E-01  0.22587815399E-01  0.00000000000E+00 0. -1.
     999901    1    3    3    0    0  0.80428660017E-02 -0.12216870645E+00  0.53377236328E-02  0.88849219007E+00  0.88000000000E+00 0.  1.
        -11    1    4    4    0    0  0.11874699921E-01  0.72558650039E-01 -0.15444562646E-01  0.75130299015E-01  0.51100000000E-03 0. -1.
         11    1    4    4    0    0 -0.70620466405E-02  0.56855144372E-01 -0.69944395603E-02  0.57719695513E-01  0.51100000000E-03 0.  1.
</event>
<event>
 8    1  0.1086486E+005  0.1043930E+01  0.7957747E-01            NaN
         13   -1    0    0    0    0  0.00000000000E+00  0.00000000000E+00  0.74505805969E-08  0.10566000000E+00  0.10566000000E+00 0.  1.
     999900   -1    0    0    0    0 -0.00000000000E+00 -0.00000000000E+00 -0.74505805969E-08  0.93827000000E+00  0.93827000000E+00 0. -1.
     999902    2    1    2    0    0  0.19797702689E-01  0.82052617319E-02 -0.85655776150E-02  0.10208509083E+01  0.10205899924E+01 0.  0.
     999903    2    3    3    0    0 -0.17345369392E-02  0.12760273033E+00 -0.26321221226E-01  0.13234955453E+00  0.23197682864E-01 0.  0.
         14    1    1    2    0    0 -0.19797702689E-01 -0.82052617319E-02  0.85655776150E-02  0.23079091657E-01  0.00000000000E+00 0.  1.
     999901    1    3    3    0    0  0.21532239628E-01 -0.11939746860E+00  0.17755643611E-01  0.88850135382E+00  0.88000000000E+00 0.  1.
        -11    1    4    4    0    0 -0.24769874210E-02  0.55970785174E-01 -0.23207936908E-01  0.60644321385E-01  0.51100000000E-03 0. -1.
         11    1    4    4    0    0  0.74245048187E-03  0.71631945157E-01 -0.31132843181E-02  0.71705233142E-01  0.51100000000E-03 0.  1.
</event>
<event>
 8    1  0.1086486E+005  0.1043930E+01  0.7957747E-01            NaN
         13   -1    0    0    0    0  0.00000000000E+00  0.00000000000E+00  0.74505805969E-08  0.10566000000E+00  0.10566000000E+00 0. -1.
     999900   -1    0    0    0    0 -0.00000000000E+00 -0.00000000000E+00 -0.74505805969E-08  0.93827000000E+00  0.93827000000E+00 0.  1.
     999902    2    1    2    0    0 -0.21097306515E-01  0.92961498075E-02  0.60140277802E-02  0.10201038951E+01  0.10198256094E+01 0.  0.
     999903    2    3    3    0    0  0.11838187290E+00 -0.43006821125E-01 -0.37234806022E-02  0.12753184687E+00  0.19663498260E-01 0.  0.
         14    1    1    2    0    0  0.21097306515E-01 -0.92961498075E-02 -0.60140277802E-02  0.23826104877E-01  0.00000000000E+00 0.  1.
     999901    1    3    3    0    0 -0.13947917941E+00  0.52302970932E-01  0.97375083824E-02  0.89257204826E+00  0.88000000000E+00 0.  1.
        -11    1    4    4    0    0  0.73424959521E-02 -0.83821255079E-02 -0.75004153130E-03  0.11180159128E-01  0.51100000000E-03 0. -1.
         11    1    4    4    0    0  0.11103937694E+00 -0.34624695617E-01 -0.29734390709E-02  0.11635168774E+00  0.51100000000E-03 0.  1.
</event>
<event>
 8    1  0.1086486E+005  0.1043930E+01  0.7957747E-01            NaN
         13   -1    0    0    0    0  0.00000000000E+00  0.00000000000E+00  0.74505805969E-08  0.10566000000E+00  0.10566000000E+00 0.  1.
     999900   -1    0    0    0    0 -0.00000000000E+00 -0.00000000000E+00 -0.74505805969E-08  0.93827000000E+00  0.93827000000E+00 0.  1.
     999902    2    1    2    0    0 -0.44561593520E-02  0.83272863995E-02  0.24570445359E-01  0.10176068573E+01  0.10172663409E+01 0.  0.
     999903    2    3    3    0    0  0.72481035722E-01 -0.18717795014E-01 -0.94924614309E-01  0.12579418771E+00  0.34779862990E-01 0.  0.
         14    1    1    2    0    0  0.44561593520E-02 -0.83272863995E-02 -0.24570445359E-01  0.26323142671E-01  0.00000000000E+00 0.  1.
     999901    1    3    3    0    0 -0.76937195074E-01  0.27045081413E-01  0.11949505967E+00  0.89181266962E+00  0.88000000000E+00 0. -1.
        -11    1    4    4    0    0  0.43347799340E-01  0.24014419884E-02 -0.68685922387E-01  0.81257711551E-01  0.51100000000E-03 0. -1.
         11    1    4    4    0    0  0.29133236381E-01 -0.21119237002E-01 -0.26238691921E-01  0.44536476156E-01  0.51100000000E-03 0.  1.
</event>
<event>
 8    1  0.1086486E+005  0.1043930E+01  0.7957747E-01            NaN
         13   -1    0    0    0    0  0.00000000000E+00  0.00000000000E+00  0.74505805969E-08  0.10566000000E+00  0.10566000000E+00 0.  1.
     999900   -1    0    0    0    0 -0.00000000000E+00 -0.00000000000E+00 -0.74505805969E-08  0.93827000000E+00  0.93827000000E+00 0.  1.
     999902    2    1    2    0    0 -0.73103223196E-02  0.12385154490E-01 -0.18303618076E-01  0.10206522145E+01  0.10203867343E+01 0.  0.
     999903    2    3    3    0    0 -0.12954223198E+00  0.14852197544E-01 -0.45052617982E-02  0.13209320086E+00  0.20652813170E-01 0.  0.
         14    1    1    2    0    0  0.73103223196E-02 -0.12385154490E-01  0.18303618076E-01  0.23277785523E-01  0.00000000000E+00 0.  1.
     999901    1    3    3    0    0  0.12223190966E+00 -0.24670430540E-02 -0.13798356278E-01  0.88855901362E+00  0.88000000000E+00 0.  1.
        -11    1    4    4    0    0 -0.31748697824E-01 -0.49315561786E-02 -0.33818673718E-02  0.32310961109E-01  0.51100000000E-03 0.  1.
         11    1    4    4    0    0 -0.97793534156E-01  0.19783753722E-01 -0.11233944264E-02  0.99782239753E-01  0.51100000000E-03 0. -1.
</event>
<event>
 8    1  0.1086486E+005  0.1043930E+01  0.7957747E-01            NaN
         13   -1    0    0    0    0  0.00000000000E+00  0.00000000000E+00  0.74505805969E-08  0.10566000000E+00  0.10566000000E+00 0.  1.
     999900   -1    0    0    0    0 -0.00000000000E+00 -0.00000000000E+00 -0.74505805969E-08  0.93827000000E+00  0.93827000000E+00 0.  1.
     999902    2    1    2    0    0 -0.21770426250E-01 -0.12897481178E-01 -0.62349160946E-02  0.10178690971E+01  0.10175354187E+01 0.  0.
     999903    2    3    3    0    0 -0.81193885529E-01  0.66969147781E-02 -0.10104642858E+00  0.13056739491E+00  0.14148080010E-01 0.  0.
         14    1    1    2    0    0  0.21770426250E-01  0.12897481178E-01  0.62349160946E-02  0.26060902872E-01  0.00000000000E+00 0.  1.
     999901    1    3    3    0    0  0.59423459280E-01 -0.19594395956E-01  0.94811512489E-01  0.88730170222E+00  0.88000000000E+00 0. -1.
        -11    1    4    4    0    0 -0.25118828245E-01 -0.39846930231E-02 -0.35036479223E-01  0.43297220560E-01  0.51100000000E-03 0.  1.
         11    1    4    4    0    0 -0.56075057285E-01  0.10681607801E-01 -0.66009949361E-01  0.87270174346E-01  0.51100000000E-03 0. -1.
</event>
<event>
 8    1  0.1086486E+005  0.1043930E+01  0.7957747E-01            NaN
         13   -1    0    0    0    0  0.00000000000E+00  0.00000000000E+00  0.74505805969E-08  0.10566000000E+00  0.10566000000E+00 0. -1.
     999900   -1    0    0    0    0 -0.00000000000E+00 -0.00000000000E+00 -0.74505805969E-08  0.93827000000E+00  0.93827000000E+00 0.  1.
     999902    2    1    2    0    0  0.13621238011E-01 -0.38927390332E-02  0.20152382392E-01  0.10192964851E+01  0.10189987804E+01 0.  0.
     999903    2    3    3    0    0  0.57116189973E-01  0.11474286555E+00 -0.74250903224E-02  0.12984343148E+00  0.19390729230E-01 0.  0.
         14    1    1    2    0    0 -0.13621238011E-01  0.38927390332E-02 -0.20152382392E-01  0.24633514938E-01  0.00000000000E+00 0. -1.
     999901    1    3    3    0    0 -0.43494951962E-01 -0.11863560459E+00  0.27577472715E-01  0.88945305358E+00  0.88000000000E+00 0. -1.
        -11    1    4    4    0    0  0.28866519935E-04  0.99537878987E-02 -0.30838801804E-02  0.10433128235E-01  0.51100000000E-03 0.  1.
         11    1    4    4    0    0  0.57087323454E-01  0.10478907765E+00 -0.43412101420E-02  0.11941030325E+00  0.51100000000E-03 0. -1.
</event>
<event>
 8    1  0.1086486E+005  0.1043930E+01  0.7957747E-01            NaN
         13   -1    0    0    0    0  0.00000000000E+00  0.00000000000E+00  0.74505805969E-08  0.10566000000E+00  0.10566000000E+00 0.  1.
     999900   -1    0    0    0    0 -0.00000000000E+00 -0.00000000000E+00 -0.74505805969E-08  0.93827000000E+00  0.93827000000E+00 0. -1.
     999902    2    1    2    0    0  0.56137103554E-02 -0.25663132716E-02 -0.21771209477E-01  0.10213006989E+01  0.10210499656E+01 0.  0.
     999903    2    3    3    0    0  0.57790278681E-01  0.10476529796E+00 -0.53605171389E-01  0.13267486637E+00  0.20337694041E-01 0.  0.
         14    1    1    2    0    0 -0.56137103554E-02  0.25663132716E-02  0.21771209477E-01  0.22629301135E-01  0.00000000000E+00 0.  1.
     999901    1    3    3    0    0 -0.52176568325E-01 -0.10733161123E+00  0.31833961911E-01  0.88862583250E+00  0.88000000000E+00 0.  1.
        -11    1    4    4    0    0  0.25794490745E-01  0.67394753892E-01 -0.31738213895E-01  0.78835169482E-01  0.51100000000E-03 0.  1.
         11    1    4    4    0    0  0.31995787935E-01  0.37370544069E-01 -0.21866957494E-01  0.53839696885E-01  0.51100000000E-03 0. -1.
</event>
<event>
 8    1  0.1086486E+005  0.1043930E+01  0.7957747E-01            NaN
         13   -1    0    0    0    0  0.00000000000E+00  0.00000000000E+00  0.74505805969E-08  0.10566000000E+00  0.10566000000E+00 0.  1.
     999900   -1    0    0    0    0 -0.00000000000E+00 -0.00000000000E+00 -0.74505805969E-08  0.93827000000E+00  0.93827000000E+00 0.  1.
     999902    2    1    2    0    0  0.61144966585E-02  0.21209941493E-01  0.85442339094E-02  0.10202603439E+01  0.10199857434E+01 0.  0.
     999903    2    3    3    0    0  0.89053289196E-01  0.92479501704E-01 -0.27310393844E-01  0.13276738738E+00  0.19959333327E-01 0.  0.
         14    1    1    2    0    0 -0.61144966585E-02 -0.21209941493E-01 -0.85442339094E-02  0.23669656115E-01  0.00000000000E+00 0. -1.
     999901    1    3    3    0    0 -0.82938792538E-01 -0.71269560211E-01  0.35854627754E-01  0.88749295651E+00  0.88000000000E+00 0. -1.
        -11    1    4    4    0    0  0.81167561885E-01  0.78381898686E-01 -0.29039794639E-01  0.11651380149E+00  0.51100000000E-03 0.  1.
         11    1    4    4    0    0  0.78857273115E-02  0.14097603018E-01  0.17294007943E-02  0.16253585887E-01  0.51100000000E-03 0. -1.
</event>
<event>
 8    1  0.1086486E+005  0.1043930E+01  0.7957747E-01            NaN
         13   -1    0    0    0    0  0.00000000000E+00  0.00000000000E+00  0.74505805969E-08  0.10566000000E+00  0.10566000000E+00 0. -1.
     999900   -1    0    0    0    0 -0.00000000000E+00 -0.00000000000E+00 -0.74505805969E-08  0.93827000000E+00  0.93827000000E+00 0. -1.
     999902    2    1    2    0    0  0.22600137176E-01 -0.61085398673E-02  0.36758706305E-02  0.10202320574E+01  0.10199567924E+01 0.  0.
     999903    2    3    3    0    0 -0.13565159178E-02  0.70644395660E-01  0.10783783836E+00  0.13044857256E+00  0.19883659756E-01 0.  0.
         14    1    1    2    0    0 -0.22600137176E-01  0.61085398673E-02 -0.36758706305E-02  0.23697942623E-01  0.00000000000E+00 0. -1.
     999901    1    3    3    0    0  0.23956653094E-01 -0.76752935527E-01 -0.10416196773E+00  0.88978348482E+00  0.88000000000E+00 0. -1.
        -11    1    4    4    0    0 -0.54524762614E-02  0.43972572528E-02  0.99778566026E-02  0.12201807739E-01  0.51100000000E-03 0.  1.
         11    1    4    4    0    0  0.40959603435E-02  0.66247138407E-01  0.97859981760E-01  0.11824676482E+00  0.51100000000E-03 0. -1.
</event>
<event>
 8    1  0.1086486E+005  0.1043930E+01  0.7957747E-01            NaN
         13   -1    0    0    0    0  0.00000000000E+00  0.00000000000E+00  0.74505805969E-08  0.10566000000E+00  0.10566000000E+00 0. -1.
     999900   -1    0    0    0    0 -0.00000000000E+00 -0.00000000000E+00 -0.74505805969E-08  0.93827000000E+00  0.93827000000E+00 0. -1.
     999902    2    1    2    0    0 -0.13732649601E-01 -0.56314384487E-02 -0.18720758209E-01  0.10200392999E+01  0.10197594853E+01 0.  0.
     999903    2    3    3    0    0 -0.31103092891E-01 -0.24457028873E-01 -0.12570070031E+00  0.13319047220E+00  0.19325816348E-01 0.  0.
         14    1    1    2    0    0  0.13732649601E-01  0.56314384487E-02  0.18720758209E-01  0.23890700115E-01  0.00000000000E+00 0.  1.
     999901    1    3    3    0    0  0.17370443291E-01  0.18825590424E-01  0.10697994210E+00  0.88684882769E+00  0.88000000000E+00 0.  1.
        -11    1    4    4    0    0 -0.33707510348E-01 -0.21296494250E-01 -0.11233939360E+00  0.11920628086E+00  0.51100000000E-03 0. -1.
         11    1    4    4    0    0  0.26044174569E-02 -0.31605346232E-02 -0.13361306714E-01  0.13984191343E-01  0.51100000000E-03 0.  1.
</event>
<event>
 8    1  0.1086486E+005  0.1043930E+01  0.7957747E-01            NaN
         13   -1    0    0    0    0  0.00000000000E+00  0.00000000000E+00  0.74505805969E-08  0.10566000000E+00  0.10566000000E+00 0.  1.
     999900   -1    0    0    0    0 -0.00000000000E+00 -0.00000000000E+00 -0.74505805969E-08  0.93827000000E+00  0.93827000000E+00 0. -1.
     999902    2    1    2    0    0 -0.14983922317E-01 -0.18042443583E-01  0.67319050345E-02  0.10195298721E+01  0.10192378495E+01 0.  0.
     999903    2    3    3    0    0 -0.29261916676E-01  0.88709639727E-01  0.86966267487E-01  0.12934032969E+00  0.20979257748E-01 0.  0.
         14    1    1    2    0    0  0.14983922317E-01  0.18042443583E-01 -0.67319050345E-02  0.24400127947E-01  0.00000000000E+00 0. -1.
     999901    1    3    3    0    0  0.14277994358E-01 -0.10675208331E+00 -0.80234362453E-01  0.89018954236E+00  0.88000000000E+00 0.  1.
        -11    1    4    4    0    0  0.25063485384E-02  0.80898396471E-02  0.12370798058E-01  0.15000835114E-01  0.51100000000E-03 0.  1.
         11    1    4    4    0    0 -0.31768265214E-01  0.80619800080E-01  0.74595469429E-01  0.11433949458E+00  0.51100000000E-03 0. -1.
</event>
<event>
 8    1  0.1086486E+005  0.1043930E+01  0.7957747E-01            NaN
         13   -1    0    0    0    0  0.00000000000E+00  0.00000000000E+00  0.74505805969E-08  0.10566000000E+00  0.10566000000E+00 0.  1.
     999900   -1    0    0    0    0 -0.00000000000E+00 -0.00000000000E+00 -0.74505805969E-08  0.93827000000E+00  0.93827000000E+00 0. -1.
     999902    2    1    2    0    0  0.10542198529E-01  0.30445935731E-02 -0.20631302450E-01  0.10205621130E+01  0.10202945498E+01 0.  0.
     999903    2    3    3    0    0  0.11292237722E+00  0.34673815998E-01 -0.59549593380E-01  0.13320832674E+00  0.15638652411E-01 0.  0.
         14    1    1    2    0    0 -0.10542198529E-01 -0.30445935731E-02  0.20631302450E-01  0.23367886953E-01  0.00000000000E+00 0.  1.
     999901    1    3    3    0    0 -0.10238017869E+00 -0.31629222425E-01  0.38918290930E-01  0.88735378630E+00  0.88000000000E+00 0.  1.
        -11    1    4    4    0    0  0.24125080384E-01  0.11879245008E-01 -0.19188548147E-01  0.33039332114E-01  0.51100000000E-03 0.  1.
         11    1    4    4    0    0  0.88797296834E-01  0.22794570990E-01 -0.40361045233E-01  0.10016899463E+00  0.51100000000E-03 0. -1.
</event>
<event>
 8    1  0.1086486E+005  0.1043930E+01  0.7957747E-01            NaN
         13   -1    0    0    0    0  0.00000000000E+00  0.00000000000E+00  0.74505805969E-08  0.10566000000E+00  0.10566000000E+00 0. -1.
     999900   -1    0    0    0    0 -0.00000000000E+00 -0.00000000000E+00 -0.74505805969E-08  0.93827000000E+00  0.93827000000E+00 0. -1.
     999902    2    1    2    0    0  0.17612169644E-01 -0.15289405909E-01  0.27416173194E-03  0.10206055575E+01  0.10203389998E+01 0.  0.
     999903    2    3    3    0    0 -0.81130882400E-01  0.39266425264E-01  0.89751836367E-01  0.12890337444E+00  0.20895348254E-01 0.  0.
         14    1    1    2    0    0 -0.17612169644E-01  0.15289405909E-01 -0.27416173194E-03  0.23324442486E-01  0.00000000000E+00 0.  1.
     999901    1    3    3    0    0  0.98743052044E-01 -0.54555831172E-01 -0.89477674635E-01  0.89170218307E+00  0.88000000000E+00 0. -1.
        -11    1    4    4    0    0 -0.39467145131E-01  0.16300251520E-01  0.56656026408E-01  0.70947305754E-01  0.51100000000E-03 0. -1.
         11    1    4    4    0    0 -0.41663737269E-01  0.22966173743E-01  0.33095809959E-01  0.57956068686E-01  0.51100000000E-03 0.  1.
</event>
<event>
 8    1  0.1086486E+005  0.1043930E+01  0.7957747E-01            NaN
         13   -1    0    0    0    0  0.00000000000E+00  0.00000000000E+00  0.74505805969E-08  0.10566000000E+00  0.10566000000E+00 0. -1.
     999900   -1    0    0    0    0 -0.00000000000E+00 -0.00000000000E+00 -0.74505805969E-08  0.93827000000E+00  0.93827000000E+00 0.  1.
     999902    2    1    2    0    0 -0.14443685960E-01  0.88273202837E-02 -0.15618063071E-01  0.10208981624E+01  0.10206383260E+01 0.  0.
     999903    2    3    3    0    0  0.37922228782E-01  0.12373917212E+00  0.11917008405E-01  0.13145726902E+00  0.19736269553E-01 0.  0.
         14    1    1    2    0    0  0.14443685960E-01 -0.88273202837E-02  0.15618063071E-01  0.23031837564E-01  0.00000000000E+00 0. -1.
     999901    1    3    3    0    0 -0.52365914742E-01 -0.11491185184E+00 -0.27535071476E-01  0.88944089342E+00  0.88000000000E+00 0. -1.
        -11    1    4    4    0    0  0.25472676242E-01  0.65127339066E-01  0.14736959363E-01  0.71469340426E-01  0.51100000000E-03 0.  1.
         11    1    4    4    0    0  0.12449552540E-01  0.58611833055E-01 -0.28199509581E-02  0.59987928593E-01  0.51100000000E-03 0. -1.
</event>
<event>
 8    1  0.1086486E+005  0.1043930E+01  0.7957747E-01            NaN
         13   -1    0    0    0    0  0.00000000000E+00  0.00000000000E+00  0.74505805969E-08  0.10566000000E+00  0.10566000000E+00 0.  1.
     999900   -1    0    0    0    0 -0.00000000000E+00 -0.00000000000E+00 -0.74505805969E-08  0.93827000000E+00  0.93827000000E+00 0.  1.
     999902    2    1    2    0    0 -0.55068873121E-02 -0.12778593940E-01  0.15163502280E-01  0.10233496678E+01  0.10231427039E+01 0.  0.
     999903    2    3    3    0    0 -0.53173130404E-01 -0.50279553141E-01 -0.10865623116E+00  0.13261417451E+00  0.20613768453E-01 0.  0.
         14    1    1    2    0    0  0.55068873121E-02  0.12778593940E-01 -0.15163502280E-01  0.20580332173E-01  0.00000000000E+00 0. -1.
     999901    1    3    3    0    0  0.47666243092E-01  0.37500959201E-01  0.12381973344E+00  0.89073549332E+00  0.88000000000E+00 0. -1.
        -11    1    4    4    0    0 -0.92317335602E-02 -0.14723897471E-01 -0.13821509398E-01  0.22210657449E-01  0.51100000000E-03 0. -1.
         11    1    4    4    0    0 -0.43941396844E-01 -0.35555655670E-01 -0.94834721759E-01  0.11040351706E+00  0.51100000000E-03 0.  1.
</event>
<event>
 8    1  0.1086486E+005  0.1043930E+01  0.7957747E-01            NaN
         13   -1    0    0    0    0  0.00000000000E+00  0.00000000000E+00  0.74505805969E-08  0.10566000000E+00  0.10566000000E+00 0.  1.
     999900   -1    0    0    0    0 -0.00000000000E+00 -0.00000000000E+00 -0.74505805969E-08  0.93827000000E+00  0.93827000000E+00 0. -1.
     999902    2    1    2    0    0 -0.71641065033E-02 -0.13221673501E-01 -0.16721549282E-01  0.10214411743E+01  0.10211935787E+01 0.  0.
     999903    2    3    3    0    0 -0.76800721975E-02 -0.43515859298E-01 -0.12521284638E+00  0.13426116691E+00  0.19879399448E-01 0.  0.
         14    1    1    2    0    0  0.71641065033E-02  0.13221673501E-01  0.16721549282E-01  0.22488825726E-01  0.00000000000E+00 0. -1.
     999901    1    3    3    0    0  0.51596569413E-03  0.30294185797E-01  0.10849129710E+00  0.88718000736E+00  0.88000000000E+00 0.  1.
        -11    1    4    4    0    0  0.56871988000E-02 -0.20649928231E-01 -0.46212884839E-01  0.50937762144E-01  0.51100000000E-03 0.  1.
         11    1    4    4    0    0 -0.13367270997E-01 -0.22865931067E-01 -0.78999961544E-01  0.83323404769E-01  0.51100000000E-03 0. -1.
</event>
<event>
 8    1  0.1086486E+005  0.1043930E+01  0.7957747E-01            NaN
         13   -1    0    0    0    0  0.00000000000E+00  0.00000000000E+00  0.74505805969E-08  0.10566000000E+00  0.10566000000E+00 0. -1.
     999900   -1    0    0    0    0 -0.00000000000E+00 -0.00000000000E+00 -0.74505805969E-08  0.93827000000E+00  0.93827000000E+00 0.  1.
     999902    2    1    2    0    0  0.69741611125E-02  0.12647043967E-01  0.18928842028E-01  0.10201205963E+01  0.10198427052E+01 0.  0.
     999903    2    3    3    0    0 -0.10944679879E+00  0.99177058470E-02 -0.63471622798E-01  0.12863244394E+00  0.20992762496E-01 0.  0.
         14    1    1    2    0    0 -0.69741611125E-02 -0.12647043967E-01 -0.18928842028E-01  0.23809403707E-01  0.00000000000E+00 0.  1.
     999901    1    3    3    0    0  0.11642095990E+00  0.27293381203E-02  0.82400464826E-01  0.89148815236E+00  0.88000000000E+00 0. -1.
        -11    1    4    4    0    0 -0.71068737904E-01 -0.33225029725E-02 -0.43408177759E-01  0.83344679198E-01  0.51100000000E-03 0. -1.
         11    1    4    4    0    0 -0.38378060888E-01  0.13240208819E-01 -0.20063445039E-01  0.45287764737E-01  0.51100000000E-03 0.  1.
</event>
<event>
 8    1  0.1086486E+005  0.1043930E+01  0.7957747E-01            NaN
         13   -1    0    0    0    0  0.00000000000E+00  0.00000000000E+00  0.74505805969E-08  0.10566000000E+00  0.10566000000E+00 0.  1.
     999900   -1    0    0    0    0 -0.00000000000E+00 -0.00000000000E+00 -0.74505805969E-08  0.93827000000E+00  0.93827000000E+00 0. -1.
     999902    2    1    2    0    0  0.88004412142E-02  0.68344601751E-02 -0.20747031788E-01  0.10203801181E+01  0.10201083219E+01 0.  0.
     999903    2    3    3    0    0 -0.11866890930E+00  0.39496678280E-01  0.26612268719E-01  0.12933681992E+00  0.19429423880E-01 0.  0.
         14    1    1    2    0    0 -0.88004412142E-02 -0.68344601751E-02  0.20747031788E-01  0.23549881942E-01  0.00000000000E+00 0.  1.
     999901    1    3    3    0    0  0.12746935051E+00 -0.32662218105E-01 -0.47359300507E-01  0.89104329814E+00  0.88000000000E+00 0.  1.
        -11    1    4    4    0    0 -0.63981886588E-01  0.12638050997E-01  0.19019428399E-01  0.67936749422E-01  0.51100000000E-03 0. -1.
         11    1    4    4    0    0 -0.54687022707E-01  0.26858627284E-01  0.75928403196E-02  0.61400070499E-01  0.51100000000E-03 0.  1.
</event>
<event>
 8    1  0.1086486E+005  0.1043930E+01  0.7957747E-01            NaN
         13   -1    0    0    0    0  0.00000000000E+00  0.00000000000E+00  0.74505805969E-08  0.10566000000E+00  0.10566000000E+00 0.  1.
     999900   -1    0    0    0    0 -0.00000000000E+00 -0.00000000000E+00 -0.74505805969E-08  0.93827000000E+00  0.93827000000E+00 0. -1.
     999902    2    1    2    0    0  0.56030206793E-02  0.93113075054E-03 -0.23311933276E-01  0.10199361033E+01  0.10196538372E+01 0.  0.
     999903    2    3    3    0    0 -0.12466848932E-01  0.12810573233E+00 -0.71896190958E-02  0.13046444638E+00  0.20069383859E-01 0.  0.
         14    1    1    2    0    0 -0.56030206793E-02 -0.93113075054E-03  0.23311933276E-01  0.23993896688E-01  0.00000000000E+00 0.  1.
     999901    1    3    3    0    0  0.18069869611E-01 -0.12717460158E+00 -0.16122314180E-01  0.88947165693E+00  0.88000000000E+00 0.  1.
        -11    1    4    4    0    0 -0.82856496056E-02  0.36848421261E-01 -0.99772830905E-02  0.39067447289E-01  0.51100000000E-03 0. -1.
         11    1    4    4    0    0 -0.41811993265E-02  0.91257311067E-01  0.27876639947E-02  0.91396999089E-01  0.51100000000E-03 0.  1.
</event>
<event>
 8    1  0.1086486E+005  0.1043930E+01  0.7957747E-01            NaN
         13   -1    0    0    0    0  0.00000000000E+00  0.00000000000E+00  0.74505805969E-08  0.10566000000E+00  0.10566000000E+00 0.  1.
     999900   -1    0    0    0    0 -0.00000000000E+00 -0.00000000000E+00 -0.74505805969E-08  0.93827000000E+00  0.93827000000E+00 0. -1.
     999902    2    1    2    0    0 -0.71026052944E-02 -0.21871431093E-01  0.96732231669E-02  0.10189825002E+01  0.10186770626E+01 0.  0.
     999903    2    3    3    0    0  0.10876244099E+00 -0.62407979557E-01 -0.27105169324E-01  0.12970157109E+00  0.19073092502E-01 0.  0.
         14    1    1    2    0    0  0.71026052944E-02  0.21871431093E-01 -0.96732231669E-02  0.24947499804E-01  0.00000000000E+00 0. -1.
     999901    1    3    3    0    0 -0.11586504628E+00  0.40536548464E-01  0.36778392491E-01  0.88928092910E+00  0.88000000000E+00 0. -1.
        -11    1    4    4    0    0  0.85355543065E-01 -0.45483777852E-01 -0.28341578750E-01  0.10078615474E+00  0.51100000000E-03 0. -1.
         11    1    4    4    0    0  0.23406897924E-01 -0.16924201705E-01  0.12364094255E-02  0.28915416356E-01  0.51100000000E-03 0.  1.
</event>
<event>
 8    1  0.1086486E+005  0.1043930E+01  0.7957747E-01            NaN
         13   -1    0    0    0    0  0.00000000000E+00  0.00000000000E+00  0.74505805969E-08  0.10566000000E+00  0.10566000000E+00 0.  1.
     999900   -1    0    0    0    0 -0.00000000000E+00 -0.00000000000E+00 -0.74505805969E-08  0.93827000000E+00  0.93827000000E+00 0.  1.
     999902    2    1    2    0    0 -0.21692079993E-01 -0.84741389194E-02 -0.45118511672E-02  0.10202084030E+01  0.10199325818E+01 0.  0.
     999903    2    3    3    0    0  0.91668314202E-01  0.26416750418E-01  0.82939079419E-01  0.12795528956E+00  0.19817686524E-01 0.  0.
         14    1    1    2    0    0  0.21692079993E-01  0.84741389194E-02  0.45118511672E-02  0.23721597033E-01  0.00000000000E+00 0.  1.
     999901    1    3    3    0    0 -0.11336039420E+00 -0.34890889337E-01 -0.87450930587E-01  0.89225311341E+00  0.88000000000E+00 0.  1.
        -11    1    4    4    0    0  0.85626016252E-01  0.29506798865E-01  0.75943990725E-01  0.11819567118E+00  0.51100000000E-03 0.  1.
         11    1    4    4    0    0  0.60422979503E-02 -0.30900484472E-02  0.69950886940E-02  0.97596183718E-02  0.51100000000E-03 0. -1.
</event>
<event>
 8    1  0.1086486E+005  0.1043930E+01  0.7957747E-01            NaN
         13   -1    0    0    0    0  0.00000000000E+00  0.00000000000E+00  0.74505805969E-08  0.10566000000E+00  0.10566000000E+00 0.  1.
     999900   -1    0    0    0    0 -0.00000000000E+00 -0.00000000000E+00 -0.74505805969E-08  0.93827000000E+00  0.93827000000E+00 0. -1.
     999902    2    1    2    0    0  0.18371315722E-01  0.53258902695E-02  0.14336699647E-01  0.10200257890E+01  0.10197456540E+01 0.  0.
     999903    2    3    3    0    0 -0.84521104427E-01  0.53705725685E-01  0.80904206250E-01  0.13021755595E+00  0.19570365968E-01 0.  0.
         14    1    1    2    0    0 -0.18371315722E-01 -0.53258902695E-02 -0.14336699647E-01  0.23904211037E-01  0.00000000000E+00 0. -1.
     999901    1    3    3    0    0  0.10289242015E+00 -0.48379835416E-01 -0.66567506603E-01  0.88980823301E+00  0.88000000000E+00 0. -1.
        -11    1    4    4    0    0 -0.20742434996E-01  0.40969214986E-02  0.14688345972E-01  0.25749602011E-01  0.51100000000E-03 0.  1.
         11    1    4    4    0    0 -0.63778669431E-01  0.49608804187E-01  0.66215860278E-01  0.10446795394E+00  0.51100000000E-03 0. -1.
</event>
<event>
 8    1  0.1086486E+005  0.1043930E+01  0.7957747E-01            NaN
         13   -1    0    0    0    0  0.00000000000E+00  0.00000000000E+00  0.74505805969E-08  0.10566000000E+00  0.10566000000E+00 0. -1.
     999900   -1    0    0    0    0 -0.00000000000E+00 -0.00000000000E+00 -0.74505805969E-08  0.93827000000E+00  0.93827000000E+00 0. -1.
     999902    2    1    2    0    0 -0.99352336730E-02  0.18351523232E-01 -0.90740418818E-02  0.10211742203E+01  0.10209206447E+01 0.  0.
     999903    2    3    3    0    0  0.44761214449E-01 -0.11303467015E+00  0.36553283417E-01  0.12857358954E+00  0.20362279398E-01 0.  0.
         14    1    1    2    0    0  0.99352336730E-02 -0.18351523232E-01  0.90740418818E-02  0.22755779687E-01  0.00000000000E+00 0. -1.
     999901    1    3    3    0    0 -0.54696448122E-01  0.13138619338E+00 -0.45627325299E-01  0.89260063078E+00  0.88000000000E+00 0. -1.
        -11    1    4    4    0    0  0.30903142651E-01 -0.87209148905E-01  0.35924674771E-01  0.99253630951E-01  0.51100000000E-03 0. -1.
         11    1    4    4    0    0  0.13858071797E-01 -0.25825521248E-01  0.62860864644E-03  0.29319958586E-01  0.51100000000E-03 0.  1.
</event>
<event>
 8    1  0.1086486E+005  0.1043930E+01  0.7957747E-01            NaN
         13   -1    0    0    0    0  0.00000000000E+00  0.00000000000E+00  0.74505805969E-08  0.10566000000E+00  0.10566000000E+00 0.  1.
     999900   -1    0    0    0    0 -0.00000000000E+00 -0.00000000000E+00 -0.74505805969E-08  0.93827000000E+00  0.93827000000E+00 0.  1.
     999902    2    1    2    0    0  0.13613872972E-01  0.99796795823E-02  0.19059973038E-01  0.10184699506E+01  0.10181516715E+01 0.  0.
     999903    2    3    3    0    0 -0.43259954090E-01 -0.63909001259E-01 -0.97419188978E-01  0.12591095283E+00  0.20181317898E-01 0.  0.
         14    1    1    2    0    0 -0.13613872972E-01 -0.99796795823E-02 -0.19059973038E-01  0.25460049373E-01  0.00000000000E+00 0.  1.
     999901    1    3    3    0    0  0.56873827062E-01  0.73888680842E-01  0.11647916202E+00  0.89255899780E+00  0.88000000000E+00 0. -1.
        -11    1    4    4    0    0 -0.15710314118E-01 -0.30352776328E-01 -0.28742537438E-01  0.44659820643E-01  0.51100000000E-03 0.  1.
         11    1    4    4    0    0 -0.27549639971E-01 -0.33556224931E-01 -0.68676651540E-01  0.81251132189E-01  0.51100000000E-03 0. -1.
</event>
<event>
 8    1  0.1086486E+005  0.1043930E+01  0.7957747E-01            NaN
         13   -1    0    0    0    0  0.00000000000E+00  0.00000000000E+00  0.74505805969E-08  0.10566000000E+00  0.10566000000E+00 0.  1.
     999900   -1    0    0    0    0 -0.00000000000E+00 -0.00000000000E+00 -0.74505805969E-08  0.93827000000E+00  0.93827000000E+00 0. -1.
     999902    2    1    2    0    0 -0.17934055505E-03  0.20532281685E-01  0.98136565471E-02  0.10211722627E+01  0.10209186429E+01 0.  0.
     999903    2    3    3    0    0  0.12154735690E+00 -0.25316468798E-01 -0.34459163913E-01  0.13050982411E+00  0.20753232291E-01 0.  0.
         14    1    1    2    0    0  0.17934055505E-03 -0.20532281685E-01 -0.98136565471E-02  0.22757737345E-01  0.00000000000E+00 0. -1.
     999901    1    3    3    0    0 -0.12172669746E+00  0.45848750484E-01  0.44272820460E-01  0.89066243854E+00  0.88000000000E+00 0. -1.
        -11    1    4    4    0    0  0.13708264256E-01 -0.42653129661E-02  0.25062546726E-02  0.14582586776E-01  0.51100000000E-03 0. -1.
         11    1    4    4    0    0  0.10783909265E+00 -0.21051155832E-01 -0.36965418586E-01  0.11592723734E+00  0.51100000000E-03 0.  1.
</event>
<event>
 8    1  0.1086486E+005  0.1043930E+01  0.7957747E-01            NaN
         13   -1    0    0    0    0  0.00000000000E+00  0.00000000000E+00  0.74505805969E-08  0.10566000000E+00  0.10566000000E+00 0. -1.
     999900   -1    0    0    0    0 -0.00000000000E+00 -0.00000000000E+00 -0.74505805969E-08  0.93827000000E+00  0.93827000000E+00 0. -1.
     999902    2    1    2    0    0  0.20273019124E-01 -0.10644137939E-01 -0.14987300052E-02  0.10209835587E+01  0.10207256673E+01 0.  0.
     999903    2    3    3    0    0 -0.10038058574E+00  0.76613225901E-01 -0.12144412007E-01  0.12841172940E+00  0.19905705913E-01 0.  0.
         14    1    1    2    0    0 -0.20273019124E-01  0.10644137939E-01  0.14987300052E-02  0.22946441303E-01  0.00000000000E+00 0. -1.
     999901    1    3    3    0    0  0.12065360486E+00 -0.87257363841E-01  0.10645682002E-01  0.89257182930E+00  0.88000000000E+00 0.  1.
        -11    1    4    4    0    0 -0.48609787190E-01  0.49536665048E-01 -0.71596177754E-02  0.69773303222E-01  0.51100000000E-03 0. -1.
         11    1    4    4    0    0 -0.51770798549E-01  0.27076560853E-01 -0.49847942320E-02  0.58638426177E-01  0.51100000000E-03 0.  1.
</event>
<event>
 8    1  0.1086486E+005  0.1043930E+01  0.7957747E-01            NaN
         13   -1    0    0    0    0  0.00000000000E+00  0.00000000000E+00  0.74505805969E-08  0.10566000000E+00  0.10566000000E+00 0.  1.
     999900   -1    0    0    0    0 -0.00000000000E+00 -0.00000000000E+00 -0.74505805969E-08  0.93827000000E+00  0.93827000000E+00 0.  1.
     999902    2    1    2    0    0 -0.12307494711E-01 -0.12799547585E-01 -0.17396851317E-01  0.10190713339E+01  0.10187680945E+01 0.  0.
     999903    2    3    3    0    0 -0.11002792483E+00  0.65534185386E-01  0.74567280251E-02  0.12985642366E+00  0.20154758163E-01 0.  0.
         14    1    1    2    0    0  0.12307494711E-01  0.12799547585E-01  0.17396851317E-01  0.24858666099E-01  0.00000000000E+00 0.  1.
     999901    1    3    3    0    0  0.97720430121E-01 -0.78333732971E-01 -0.24853579342E-01  0.88921491024E+00  0.88000000000E+00 0.  1.
        -11    1    4    4    0    0 -0.64532008820E-01  0.36559390497E-01 -0.55220426012E-02  0.74375555604E-01  0.51100000000E-03 0. -1.
         11    1    4    4    0    0 -0.45495916012E-01  0.28974794889E-01  0.12978770626E-01  0.55480868059E-01  0.51100000000E-03 0.  1.
</event>
<event>
 8    1  0.1086486E+005  0.1043930E+01  0.7957747E-01            NaN
         13   -1    0    0    0    0  0.00000000000E+00  0.00000000000E+00  0.74505805969E-08  0.10566000000E+00  0.10566000000E+00 0. -1.
     999900   -1    0    0    0    0 -0.00000000000E+00 -0.00000000000E+00 -0.74505805969E-08  0.93827000000E+00  0.93827000000E+00 0.  1.
     999902    2    1    2    0    0 -0.13390234261E-01  0.18309917488E-01 -0.78042141487E-02  0.10199413108E+01  0.10196591687E+01 0.  0.
     999903    2    3    3    0    0  0.60129677065E-01  0.10336933229E+00  0.49146659514E-01  0.13096229898E+00  0.20855039928E-01 0.  0.
         14    1    1    2    0    0  0.13390234261E-01 -0.18309917488E-01  0.78042141487E-02  0.23988689219E-01  0.00000000000E+00 0. -1.
     999901    1    3    3    0    0 -0.73519911326E-01 -0.85059414805E-01 -0.56950873663E-01  0.88897901180E+00  0.88000000000E+00 0. -1.
        -11    1    4    4    0    0  0.50851189055E-01  0.98209410377E-01  0.46729958369E-01  0.12006199168E+00  0.51100000000E-03 0. -1.
         11    1    4    4    0    0  0.92784880103E-02  0.51599219158E-02  0.24167011455E-02  0.10900307306E-01  0.51100000000E-03 0.  1.
</event>
<event>
 8    1  0.1086486E+005  0.1043930E+01  0.7957747E-01            NaN
         13   -1    0    0    0    0  0.00000000000E+00  0.00000000000E+00  0.74505805969E-08  0.10566000000E+00  0.10566000000E+00 0. -1.
     999900   -1    0    0    0    0 -0.00000000000E+00 -0.00000000000E+00 -0.74505805969E-08  0.93827000000E+00  0.93827000000E+00 0.  1.
     999902    2    1    2    0    0 -0.11028084603E-01  0.17003711542E-01 -0.11458170097E-01  0.10206483652E+01  0.10203827963E+01 0.  0.
     999903    2    3    3    0    0 -0.12349088675E+00  0.27792874174E-01 -0.36307738183E-01  0.13307764188E+00  0.19208434359E-01 0.  0.
         14    1    1    2    0    0  0.11028084603E-01 -0.17003711542E-01  0.11458170097E-01  0.23281634783E-01  0.00000000000E+00 0. -1.
     999901    1    3    3    0    0  0.11246280215E+00 -0.10789162632E-01  0.24849568086E-01  0.88757072334E+00  0.88000000000E+00 0.  1.
        -11    1    4    4    0    0 -0.93045277737E-01  0.26178620558E-01 -0.34127925730E-01  0.10250717204E+00  0.51100000000E-03 0. -1.
         11    1    4    4    0    0 -0.30445609012E-01  0.16142536155E-02 -0.21798124532E-02  0.30570469839E-01  0.51100000000E-03 0.  1.
</event>
<event>
 8    1  0.1086486E+005  0.1043930E+01  0.7957747E-01            NaN
         13   -1    0    0    0    0  0.00000000000E+00  0.00000000000E+00  0.74505805969E-08  0.10566000000E+00  0.10566000000E+00 0. -1.
     999900   -1    0    0    0    0 -0.00000000000E+00 -0.00000000000E+00 -0.74505805969E-08  0.93827000000E+00  0.93827000000E+00 0.  1.
     999902    2    1    2    0    0  0.14475274879E-01  0.93120991112E-02  0.16654410252E-01  0.10199796732E+01  0.10196984435E+01 0.  0.
     999903    2    3    3    0    0  0.11570508133E+00  0.60870033246E-01  0.10440542228E-01  0.13265543346E+00  0.19890508103E-01 0.  0.
         14    1    1    2    0    0 -0.14475274879E-01 -0.93120991112E-02 -0.16654410252E-01  0.23950326794E-01  0.00000000000E+00 0.  1.
     999901    1    3    3    0    0 -0.10122980645E+00 -0.51557934134E-01  0.62138680240E-02  0.88732423975E+00  0.88000000000E+00 0.  1.
        -11    1    4    4    0    0  0.13327521336E-01  0.20635508152E-02  0.52311486716E-02  0.14474360240E-01  0.51100000000E-03 0.  1.
         11    1    4    4    0    0  0.10237755999E+00  0.58806482431E-01  0.52093935566E-02  0.11818107322E+00  0.51100000000E-03 0. -1.
</event>
<event>
 8    1  0.1086486E+005  0.1043930E+01  0.7957747E-01            NaN
         13   -1    0    0    0    0  0.00000000000E+00  0.00000000000E+00  0.74505805969E-08  0.10566000000E+00  0.10566000000E+00 0.  1.
     999900   -1    0    0    0    0 -0.00000000000E+00 -0.00000000000E+00 -0.74505805969E-08  0.93827000000E+00  0.93827000000E+00 0.  1.
     999902    2    1    2    0    0  0.17842067225E-01  0.14262971612E-01 -0.54562240012E-02  0.10204450665E+01  0.10201747848E+01 0.  0.
     999903    2    3    3    0    0 -0.93850992494E-01  0.67180863064E-01 -0.57104394015E-01  0.13030846107E+00  0.19952595234E-01 0.  0.
         14    1    1    2    0    0 -0.17842067225E-01 -0.14262971612E-01  0.54562240012E-02  0.23484933520E-01  0.00000000000E+00 0.  1.
     999901    1    3    3    0    0  0.11169305972E+00 -0.52917891451E-01  0.51648170014E-01  0.89013660541E+00  0.88000000000E+00 0. -1.
        -11    1    4    4    0    0 -0.58114234641E-01  0.40437724218E-01 -0.45589688018E-01  0.84208993477E-01  0.51100000000E-03 0. -1.
         11    1    4    4    0    0 -0.35736757853E-01  0.26743138846E-01 -0.11514705997E-01  0.46099467593E-01  0.51100000000E-03 0.  1.
</event>
<event>
 8    1  0.1086486E+005  0.1043930E+01  0.7957747E-01            NaN
         13   -1    0    0    0    0  0.00000000000E+00  0.00000000000E+00  0.74505805969E-08  0.10566000000E+00  0.10566000000E+00 0. -1.
     999900   -1    0    0    0    0 -0.00000000000E+00 -0.00000000000E+00 -0.74505805969E-08  0.93827000000E+00  0.93827000000E+00 0.  1.
     999902    2    1    2    0    0 -0.11828643133E-01 -0.73168561112E-02 -0.17966024717E-01  0.10212092776E+01  0.10209564915E+01 0.  0.
     999903    2    3    3    0    0  0.47478797357E-01  0.70472619317E-01  0.95965139682E-01  0.12848934101E+00  0.89205631621E-02 0.  0.
         14    1    1    2    0    0  0.11828643133E-01  0.73168561112E-02  0.17966024717E-01  0.22720722388E-01  0.00000000000E+00 0.  1.
     999901    1    3    3    0    0 -0.59307440490E-01 -0.77789475429E-01 -0.11393116440E+00  0.89271993660E+00  0.88000000000E+00 0.  1.
        -11    1    4    4    0    0  0.70360093337E-02  0.60282385359E-02  0.12195409517E-01  0.15324301663E-01  0.51100000000E-03 0.  1.
         11    1    4    4    0    0  0.40442788023E-01  0.64444380781E-01  0.83769730165E-01  0.11316503935E+00  0.51100000000E-03 0. -1.
</event>
<event>
 8    1  0.1086486E+005  0.1043930E+01  0.7957747E-01            NaN
         13   -1    0    0    0    0  0.00000000000E+00  0.00000000000E+00  0.74505805969E-08  0.10566000000E+00  0.10566000000E+00 0.  1.
     999900   -1    0    0    0    0 -0.00000000000E+00 -0.00000000000E+00 -0.74505805969E-08  0.93827000000E+00  0.93827000000E+00 0. -1.
     999902    2    1    2    0    0  0.12650836474E-01 -0.31087025909E-01 -0.12847835051E-01  0.10079923636E+01  0.10073515233E+01 0.  0.
     999903    2    3    3    0    0  0.71271857675E-01 -0.57077694248E-01  0.77187564041E-01  0.12107731015E+00  0.19085442476E-01 0.  0.
         14    1    1    2    0    0 -0.12650836474E-01  0.31087025909E-01  0.12847835051E-01  0.35937636384E-01  0.00000000000E+00 0.  1.
     999901    1    3    3    0    0 -0.58621021201E-01  0.25990668340E-01 -0.90035399092E-01  0.88691505346E+00  0.88000000000E+00 0. -1.
        -11    1    4    4    0    0  0.43198858872E-01 -0.23938220078E-01  0.35066754339E-01  0.60573246316E-01  0.51100000000E-03 0. -1.
         11    1    4    4    0    0  0.28072998803E-01 -0.33139474170E-01  0.42120809702E-01  0.60504063839E-01  0.51100000000E-03 0.  1.
</event>
<event>
 8    1  0.1086486E+005  0.1043930E+01  0.7957747E-01            NaN
         13   -1    0    0    0    0  0.00000000000E+00  0.00000000000E+00  0.74505805969E-08  0.10566000000E+00  0.10566000000E+00 0.  1.
     999900   -1    0    0    0    0 -0.00000000000E+00 -0.00000000000E+00 -0.74505805969E-08  0.93827000000E+00  0.93827000000E+00 0. -1.
     999902    2    1    2    0    0  0.25962541424E-01  0.30152015850E-02  0.31572750295E-02  0.10176029534E+01  0.10172623346E+01 0.  0.
     999903    2    3    3    0    0  0.54353501408E-02  0.40676040702E-01  0.11965601210E+00  0.12888946743E+00  0.24715385159E-01 0.  0.
         14    1    1    2    0    0 -0.25962541424E-01 -0.30152015850E-02 -0.31572750295E-02  0.26327046614E-01  0.00000000000E+00 0.  1.
     999901    1    3    3    0    0  0.20527191283E-01 -0.37660839117E-01 -0.11649873707E+00  0.88871348596E+00  0.88000000000E+00 0. -1.
        -11    1    4    4    0    0 -0.12888509050E-02  0.34083372445E-01  0.64813327709E-01  0.73241832198E-01  0.51100000000E-03 0.  1.
         11    1    4    4    0    0  0.67242010458E-02  0.65926682574E-02  0.54842684391E-01  0.55647635230E-01  0.51100000000E-03 0. -1.
</event>
<event>
 8    1  0.1086486E+005  0.1043930E+01  0.7957747E-01            NaN
         13   -1    0    0    0    0  0.00000000000E+00  0.00000000000E+00  0.74505805969E-08  0.10566000000E+00  0.10566000000E+00 0.  1.
     999900   -1    0    0    0    0 -0.00000000000E+00 -0.00000000000E+00 -0.74505805969E-08  0.93827000000E+00  0.93827000000E+00 0.  1.
     999902    2    1    2    0    0  0.96785634306E-02  0.21258611462E-01  0.26336763711E-02  0.10204238433E+01  0.10201530672E+01 0.  0.
     999903    2    3    3    0    0  0.24496543600E-01 -0.12206124722E+00  0.24448834703E-01  0.12843950736E+00  0.19998320239E-01 0.  0.
         14    1    1    2    0    0 -0.96785634306E-02 -0.21258611462E-01 -0.26336763711E-02  0.23506156696E-01  0.00000000000E+00 0. -1.
     999901    1    3    3    0    0 -0.14817980169E-01  0.14331985868E+00 -0.21815158332E-01  0.89198433594E+00  0.88000000000E+00 0.  1.
        -11    1    4    4    0    0  0.21950787438E-01 -0.59627491751E-01  0.14336070138E-01  0.65138766258E-01  0.51100000000E-03 0. -1.
         11    1    4    4    0    0  0.25457561620E-02 -0.62433755469E-01  0.10112764565E-01  0.63300741106E-01  0.51100000000E-03 0.  1.
</event>
<event>
 8    1  0.1086486E+005  0.1043930E+01  0.7957747E-01            NaN
         13   -1    0    0    0    0  0.00000000000E+00  0.00000000000E+00  0.74505805969E-08  0.10566000000E+00  0.10566000000E+00 0. -1.
     999900   -1    0    0    0    0 -0.00000000000E+00 -0.00000000000E+00 -0.74505805969E-08  0.93827000000E+00  0.93827000000E+00 0.  1.
     999902    2    1    2    0    0  0.92594274709E-02 -0.19374603340E-01 -0.97073929257E-02  0.10203642255E+01  0.10200920580E+01 0.  0.
     999903    2    3    3    0    0  0.48403469013E-01  0.78390710136E-01 -0.90513419281E-01  0.13040921178E+00  0.18052262962E-01 0.  0.
         14    1    1    2    0    0 -0.92594274709E-02  0.19374603340E-01  0.97073929257E-02  0.23565774528E-01  0.00000000000E+00 0.  1.
     999901    1    3    3    0    0 -0.39144041542E-01 -0.97765313476E-01  0.80806026355E-01  0.88995501370E+00  0.88000000000E+00 0. -1.
        -11    1    4    4    0    0  0.43357591573E-01  0.61530750400E-01 -0.65261717908E-01  0.99625633936E-01  0.51100000000E-03 0. -1.
         11    1    4    4    0    0  0.50458774404E-02  0.16859959736E-01 -0.25251701373E-01  0.30783577840E-01  0.51100000000E-03 0.  1.
</event>
<event>
 8    1  0.1086486E+005  0.1043930E+01  0.7957747E-01            NaN
         13   -1    0    0    0    0  0.00000000000E+00  0.00000000000E+00  0.74505805969E-08  0.10566000000E+00  0.10566000000E+00 0. -1.
     999900   -1    0    0    0    0 -0.00000000000E+00 -0.00000000000E+00 -0.74505805969E-08  0.93827000000E+00  0.93827000000E+00 0.  1.
     999902    2    1    2    0    0 -0.10490996286E-01  0.20897907468E-01 -0.53879029292E-02  0.10199338954E+01  0.10196515767E+01 0.  0.
     999903    2    3    3    0    0 -0.59020119302E-01 -0.10833721033E+00 -0.30863930602E-01  0.12880774300E+00  0.20457927994E-01 0.  0.
         14    1    1    2    0    0  0.10490996286E-01 -0.20897907468E-01  0.53879029292E-02  0.23996104633E-01  0.00000000000E+00 0. -1.
     999901    1    3    3    0    0  0.48529123016E-01  0.12923511780E+00  0.25476027672E-01  0.89112615237E+00  0.88000000000E+00 0. -1.
        -11    1    4    4    0    0 -0.33748550726E-01 -0.56803534968E-01 -0.26675534891E-01  0.71256238630E-01  0.51100000000E-03 0.  1.
         11    1    4    4    0    0 -0.25271568576E-01 -0.51533675366E-01 -0.41883957112E-02  0.57551504365E-01  0.51100000000E-03 0. -1.
</event>
<event>
 8    1  0.1086486E+005  0.1043930E+01  0.7957747E-01            NaN
         13   -1    0    0    0    0  0.00000000000E+00  0.00000000000E+00  0.74505805969E-08  0.10566000000E+00  0.10566000000E+00 0. -1.
     999900   -1    0    0    0    0 -0.00000000000E+00 -0.00000000000E+00 -0.74505805969E-08  0.93827000000E+00  0.93827000000E+00 0. -1.
     999902    2    1    2    0    0  0.15821577837E-01 -0.11163615369E-01 -0.12856192300E-01  0.10206871449E+01  0.10204224701E+01 0.  0.
     999903    2    3    3    0    0 -0.10193125101E+00 -0.90577132984E-02 -0.78680324847E-01  0.13040461673E+00  0.18513466539E-01 0.  0.
         14    1    1    2    0    0 -0.15821577837E-01  0.11163615369E-01  0.12856192300E-01  0.23242855113E-01  0.00000000000E+00 0. -1.
     999901    1    3    3    0    0  0.11775282884E+00 -0.21059020706E-02  0.65824132547E-01  0.89028252816E+00  0.88000000000E+00 0. -1.
        -11    1    4    4    0    0 -0.86290605659E-02 -0.15628072403E-02 -0.11452543519E-02  0.88586557248E-02  0.51100000000E-03 0.  1.
         11    1    4    4    0    0 -0.93302190441E-01 -0.74949060582E-02 -0.77535070495E-01  0.12154596100E+00  0.51100000000E-03 0. -1.
</event>
<event>
 8    1  0.1086486E+005  0.1043930E+01  0.7957747E-01            NaN
         13   -1    0    0    0    0  0.00000000000E+00  0.00000000000E+00  0.74505805969E-08  0.10566000000E+00  0.10566000000E+00 0. -1.
     999900   -1    0    0    0    0 -0.00000000000E+00 -0.00000000000E+00 -0.74505805969E-08  0.93827000000E+00  0.93827000000E+00 0.  1.
     999902    2    1    2    0    0 -0.11791221655E-03  0.13695331156E-01 -0.23929034015E-01  0.10163587347E+01  0.10159846963E+01 0.  0.
     999903    2    3    3    0    0  0.16513689143E-01 -0.10078405096E+00 -0.73459908254E-01  0.12740685382E+00  0.20149973287E-01 0.  0.
         14    1    1    2    0    0  0.11791221655E-03 -0.13695331156E-01  0.23929034015E-01  0.27571265253E-01  0.00000000000E+00 0. -1.
     999901    1    3    3    0    0 -0.16631601360E-01  0.11447938212E+00  0.49530874239E-01  0.88895188092E+00  0.88000000000E+00 0. -1.
        -11    1    4    4    0    0  0.91553202530E-02 -0.16051381020E-01 -0.83045129880E-02  0.20265556458E-01  0.51100000000E-03 0.  1.
         11    1    4    4    0    0  0.73583688904E-02 -0.84732669941E-01 -0.65155395266E-01  0.10714129737E+00  0.51100000000E-03 0. -1.
</event>
<event>
 8    1  0.1086486E+005  0.1043930E+01  0.7957747E-01            NaN
         13   -1    0    0    0    0  0.00000000000E+00  0.00000000000E+00  0.74505805969E-08  0.10566000000E+00  0.10566000000E+00 0.  1.
     999900   -1    0    0    0    0 -0.00000000000E+00 -0.00000000000E+00 -0.74505805969E-08  0.93827000000E+00  0.93827000000E+00 0. -1.
     999902    2    1    2    0    0 -0.47934729035E-02 -0.17551400856E-02 -0.23542317273E-01  0.10198406123E+01  0.10195560680E+01 0.  0.
     999903    2    3    3    0    0  0.11641852101E+00 -0.48367367264E-01  0.20050059346E-01  0.12924230635E+00  0.20221142897E-01 0.  0.
         14    1    1    2    0    0  0.47934729035E-02  0.17551400856E-02  0.23542317273E-01  0.24089387742E-01  0.00000000000E+00 0.  1.
     999901    1    3    3    0    0 -0.12121199391E+00  0.46612227178E-01 -0.43592376619E-01  0.89059830591E+00  0.88000000000E+00 0.  1.
        -11    1    4    4    0    0  0.81928439712E-01 -0.38333265967E-01  0.22579033141E-01  0.93229729013E-01  0.51100000000E-03 0.  1.
         11    1    4    4    0    0  0.34490081299E-01 -0.10034101296E-01 -0.25289737950E-02  0.36012577334E-01  0.51100000000E-03 0. -1.
</event>
<event>
 8    1  0.1086486E+005  0.1043930E+01  0.7957747E-01            NaN
         13   -1    0    0    0    0  0.00000000000E+00  0.00000000000E+00  0.74505805969E-08  0.10566000000E+00  0.10566000000E+00 0. -1.
     999900   -1    0    0    0    0 -0.00000000000E+00 -0.00000000000E+00 -0.74505805969E-08  0.93827000000E+00  0.93827000000E+00 0.  1.
     999902    2    1    2    0    0  0.20064261745E-01 -0.92675267304E-02  0.60904333153E-02  0.10210050130E+01  0.10207476091E+01 0.  0.
     999903    2    3    3    0    0  0.98631543726E-01  0.85759667635E-01  0.70606510929E-02  0.13240840779E+00  0.19980781984E-01 0.  0.
         14    1    1    2    0    0 -0.20064261745E-01  0.92675267304E-02 -0.60904333153E-02  0.22924987002E-01  0.00000000000E+00 0. -1.
     999901    1    3    3    0    0 -0.78567281981E-01 -0.95027194365E-01 -0.97021777758E-03  0.88859660521E+00  0.88000000000E+00 0.  1.
        -11    1    4    4    0    0  0.58373878088E-01  0.45888178592E-01  0.13188936013E-01  0.75415142588E-01  0.51100000000E-03 0.  1.
         11    1    4    4    0    0  0.40257665638E-01  0.39871489043E-01 -0.61282849197E-02  0.56993265200E-01  0.51100000000E-03 0. -1.
</event>
<event>
 8    1  0.1086486E+005  0.1043930E+01  0.7957747E-01            NaN
         13   -1    0    0    0    0  0.00000000000E+00  0.00000000000E+00  0.74505805969E-08  0.10566000000E+00  0.10566000000E+00 0. -1.
     999900   -1    0    0    0    0 -0.00000000000E+00 -0.00000000000E+00 -0.74505805969E-08  0.93827000000E+00  0.93827000000E+00 0. -1.
     999902    2    1    2    0    0  0.19437921092E-01  0.13740902977E-01  0.35790169209E-02  0.10198581377E+01  0.10195740123E+01 0.  0.
     999903    2    3    3    0    0 -0.65210764606E-02 -0.67359599116E-01  0.10852918871E+00  0.12954038572E+00  0.20549615509E-01 0.  0.
         14    1    1    2    0    0 -0.19437921092E-01 -0.13740902977E-01 -0.35790169209E-02  0.24071862269E-01  0.00000000000E+00 0. -1.
     999901    1    3    3    0    0  0.25958997552E-01  0.81100502093E-01 -0.10495017179E+00  0.89031775201E+00  0.88000000000E+00 0. -1.
        -11    1    4    4    0    0  0.57862903334E-02 -0.40089777463E-01  0.68190355713E-01  0.79314923855E-01  0.51100000000E-03 0. -1.
         11    1    4    4    0    0 -0.12307366794E-01 -0.27269821653E-01  0.40338833000E-01  0.50225461861E-01  0.51100000000E-03 0.  1.
</event>
<event>
 8    1  0.1086486E+005  0.1043930E+01  0.7957747E-01            NaN
         13   -1    0    0    0    0  0.00000000000E+00  0.00000000000E+00  0.74505805969E-08  0.10566000000E+00  0.10566000000E+00 0. -1.
     999900   -1    0    0    0    0 -0.00000000000E+00 -0.00000000000E+00 -0.74505805969E-08  0.93827000000E+00  0.93827000000E+00 0. -1.
     999902    2    1    2    0    0  0.40896799264E-02  0.11787332908E-01 -0.19698746018E-01  0.10206124681E+01  0.10203460701E+01 0.  0.
     999903    2    3    3    0    0  0.79577119569E-01 -0.99282859450E-01  0.15908912613E-01  0.12971244760E+00  0.19560711224E-01 0.  0.
         14    1    1    2    0    0 -0.40896799264E-02 -0.11787332908E-01  0.19698746018E-01  0.23317531895E-01  0.00000000000E+00 0. -1.
     999901    1    3    3    0    0 -0.75487439642E-01  0.11107019236E+00 -0.35607658631E-01  0.89090002050E+00  0.88000000000E+00 0.  1.
        -11    1    4    4    0    0  0.35868642933E-01 -0.32820181074E-01  0.11937119485E-01  0.50064755808E-01  0.51100000000E-03 0. -1.
         11    1    4    4    0    0  0.43708476636E-01 -0.66462678376E-01  0.39717931279E-02  0.79647691796E-01  0.51100000000E-03 0.  1.
</event>
<event>
 8    1  0.1086486E+005  0.1043930E+01  0.7957747E-01            NaN
         13   -1    0    0    0    0  0.00000000000E+00  0.00000000000E+00  0.74505805969E-08  0.10566000000E+00  0.10566000000E+00 0. -1.
     999900   -1    0    0    0    0 -0.00000000000E+00 -0.00000000000E+00 -0.74505805969E-08  0.93827000000E+00  0.93827000000E+00 0.  1.
     999902    2    1    2    0    0  0.35249475573E-02  0.16991284048E-01 -0.18346345873E-01  0.10186769329E+01  0.10183638723E+01 0.  0.
     999903    2    3    3    0    0 -0.48979740689E-01  0.35463622705E-01 -0.11519461987E+00  0.13161574128E+00  0.19905259872E-01 0.  0.
         14    1    1    2    0    0 -0.35249475573E-02 -0.16991284048E-01  0.18346345873E-01  0.25253067057E-01  0.00000000000E+00 0. -1.
     999901    1    3    3    0    0  0.52504688246E-01 -0.18472338657E-01  0.96848274001E-01  0.88706119167E+00  0.88000000000E+00 0. -1.
        -11    1    4    4    0    0 -0.51392070881E-02  0.89862491095E-02 -0.90486898056E-02  0.13758780133E-01  0.51100000000E-03 0. -1.
         11    1    4    4    0    0 -0.43840533601E-01  0.26477373595E-01 -0.10614593007E+00  0.11785696114E+00  0.51100000000E-03 0.  1.
</event>
<event>
 8    1  0.1086486E+005  0.1043930E+01  0.7957747E-01            NaN
         13   -1    0    0    0    0  0.00000000000E+00  0.00000000000E+00  0.74505805969E-08  0.10566000000E+00  0.10566000000E+00 0. -1.
     999900   -1    0    0    0    0 -0.00000000000E+00 -0.00000000000E+00 -0.74505805969E-08  0.93827000000E+00  0.93827000000E+00 0. -1.
     999902    2    1    2    0    0  0.13220507422E-01 -0.11757720626E-01 -0.16596918306E-01  0.10196713210E+01  0.10193827148E+01 0.  0.
     999903    2    3    3    0    0 -0.30423825760E-01  0.63523641708E-01  0.10402503386E+00  0.12719063957E+00  0.19884388216E-01 0.  0.
         14    1    1    2    0    0 -0.13220507422E-01  0.11757720626E-01  0.16596918306E-01  0.24258679026E-01  0.00000000000E+00 0.  1.
     999901    1    3    3    0    0  0.43644333182E-01 -0.75281362333E-01 -0.12062195217E+00  0.89248068140E+00  0.88000000000E+00 0. -1.
        -11    1    4    4    0    0 -0.17080869388E-01  0.23656090955E-01  0.28726708041E-01  0.40949378679E-01  0.51100000000E-03 0. -1.
         11    1    4    4    0    0 -0.13342956372E-01  0.39867550753E-01  0.75298325821E-01  0.86241260892E-01  0.51100000000E-03 0.  1.
</event>
<event>
 8    1  0.1086486E+005  0.1043930E+01  0.7957747E-01            NaN
         13   -1    0    0    0    0  0.00000000000E+00  0.00000000000E+00  0.74505805969E-08  0.10566000000E+00  0.10566000000E+00 0. -1.
     999900   -1    0    0    0    0 -0.00000000000E+00 -0.00000000000E+00 -0.74505805969E-08  0.93827000000E+00  0.93827000000E+00 0.  1.
     999902    2    1    2    0    0 -0.23099015606E-01 -0.91548770795E-03  0.47502284087E-02  0.10203298451E+01  0.10200568737E+01 0.  0.
     999903    2    3    3    0    0  0.11805820776E+00 -0.30849765211E-01 -0.32278422327E-01  0.12780951279E+00  0.20097924741E-01 0.  0.
         14    1    1    2    0    0  0.23099015606E-01  0.91548770795E-03 -0.47502284087E-02  0.23600154865E-01  0.00000000000E+00 0.  1.
     999901    1    3    3    0    0 -0.14115722336E+00  0.29934277503E-01  0.37028650736E-01  0.89252033235E+00  0.88000000000E+00 0. -1.
        -11    1    4    4    0    0  0.72622152924E-01 -0.11158272239E-01 -0.25756051655E-01  0.77859613745E-01  0.51100000000E-03 0.  1.
         11    1    4    4    0    0  0.45436054833E-01 -0.19691492972E-01 -0.65223706725E-02  0.49949899043E-01  0.51100000000E-03 0. -1.
</event>
<event>
 8    1  0.1086486E+005  0.1043930E+01  0.7957747E-01            NaN
         13   -1    0    0    0    0  0.00000000000E+00  0.00000000000E+00  0.74505805969E-08  0.10566000000E+00  0.10566000000E+00 0. -1.
     999900   -1    0    0    0    0 -0.00000000000E+00 -0.00000000000E+00 -0.74505805969E-08  0.93827000000E+00  0.93827000000E+00 0. -1.
     999902    2    1    2    0    0  0.80629279309E-02  0.13202732737E-01  0.17792973556E-01  0.10203521955E+01  0.10200797468E+01 0.  0.
     999903    2    3    3    0    0 -0.34605818554E-01 -0.87035303196E-01  0.89060398785E-01  0.13077514334E+00  0.19941835520E-01 0.  0.
         14    1    1    2    0    0 -0.80629279309E-02 -0.13202732737E-01 -0.17792973556E-01  0.23577804531E-01  0.00000000000E+00 0.  1.
     999901    1    3    3    0    0  0.42668746485E-01  0.10023803593E+00 -0.71267425229E-01  0.88957705213E+00  0.88000000000E+00 0. -1.
        -11    1    4    4    0    0 -0.12243283466E-01 -0.34443881022E-01  0.22009079905E-01  0.42672469452E-01  0.51100000000E-03 0. -1.
         11    1    4    4    0    0 -0.22362535088E-01 -0.52591422175E-01  0.67051318879E-01  0.88102673889E-01  0.51100000000E-03 0.  1.
</event>
<event>
 8    1  0.1086486E+005  0.1043930E+01  0.7957747E-01            NaN
         13   -1    0    0    0    0  0.00000000000E+00  0.00000000000E+00  0.74505805969E-08  0.10566000000E+00  0.10566000000E+00 0. -1.
     999900   -1    0    0    0    0 -0.00000000000E+00 -0.00000000000E+00 -0.74505805969E-08  0.93827000000E+00  0.93827000000E+00 0.  1.
     999902    2    1    2    0    0 -0.79951501651E-02  0.21071563042E-01  0.27015558887E-04  0.10213926105E+01  0.10211439325E+01 0.  0.
     999903    2    3    3    0    0  0.10661351000E+00 -0.60764744621E-01  0.35432660260E-01  0.12949245583E+00  0.21307932847E-01 0.  0.
         14    1    1    2    0    0  0.79951501651E-02 -0.21071563042E-01 -0.27015558887E-04  0.22537389490E-01  0.00000000000E+00 0. -1.
     999901    1    3    3    0    0 -0.11460866016E+00  0.81836307663E-01 -0.35405644701E-01  0.89190015468E+00  0.88000000000E+00 0. -1.
        -11    1    4    4    0    0  0.64517561935E-01 -0.29925259798E-01  0.29399551192E-01  0.76958636314E-01  0.51100000000E-03 0. -1.
         11    1    4    4    0    0  0.42095948060E-01 -0.30839484823E-01  0.60331090687E-02  0.52533819519E-01  0.51100000000E-03 0.  1.
</event>
<event>
 8    1  0.1086486E+005  0.1043930E+01  0.7957747E-01            NaN
         13   -1    0    0    0    0  0.00000000000E+00  0.00000000000E+00  0.74505805969E-08  0.10566000000E+00  0.10566000000E+00 0. -1.
     999900   -1    0    0    0    0 -0.00000000000E+00 -0.00000000000E+00 -0.74505805969E-08  0.93827000000E+00  0.93827000000E+00 0.  1.
     999902    2    1    2    0    0 -0.11896532770E-02  0.20130665499E-01 -0.13198496267E-01  0.10198289778E+01  0.10195441553E+01 0.  0.
     999903    2    3    3    0    0  0.10662954470E+00  0.74376654124E-01  0.13233251497E-02  0.13147179172E+00  0.19527783974E-01 0.  0.
         14    1    1    2    0    0  0.11896532770E-02 -0.20130665499E-01  0.13198496267E-01  0.24101022220E-01  0.00000000000E+00 0. -1.
     999901    1    3    3    0    0 -0.10781919797E+00 -0.54245988625E-01 -0.14521821417E-01  0.88835718606E+00  0.88000000000E+00 0.  1.
        -11    1    4    4    0    0  0.95446138991E-02  0.11551214922E-01  0.49067743257E-02  0.15775543602E-01  0.51100000000E-03 0. -1.
         11    1    4    4    0    0  0.97084930796E-01  0.62825439203E-01 -0.35834491760E-02  0.11569624811E+00  0.51100000000E-03 0.  1.
</event>
<event>
 8    1  0.1086486E+005  0.1043930E+01  0.7957747E-01            NaN
         13   -1    0    0    0    0  0.00000000000E+00  0.00000000000E+00  0.74505805969E-08  0.10566000000E+00  0.10566000000E+00 0. -1.
     999900   -1    0    0    0    0 -0.00000000000E+00 -0.00000000000E+00 -0.74505805969E-08  0.93827000000E+00  0.93827000000E+00 0.  1.
     999902    2    1    2    0    0  0.18947829400E-01  0.13037239092E-01  0.56333804272E-02  0.10202503713E+01  0.10199755366E+01 0.  0.
     999903    2    3    3    0    0  0.11641257144E+00 -0.21156975792E-01 -0.55139198087E-01  0.13212767334E+00  0.20442271924E-01 0.  0.
         14    1    1    2    0    0 -0.18947829400E-01 -0.13037239092E-01 -0.56333804272E-02  0.23679628737E-01  0.00000000000E+00 0.  1.
     999901    1    3    3    0    0 -0.97464742041E-01  0.34194214884E-01  0.60772578515E-01  0.88812269793E+00  0.88000000000E+00 0. -1.
        -11    1    4    4    0    0  0.56938166565E-01 -0.13155528076E-01 -0.38026738234E-01  0.69723143019E-01  0.51100000000E-03 0.  1.
         11    1    4    4    0    0  0.59474404876E-01 -0.80014477163E-02 -0.17112459854E-01  0.62404530318E-01  0.51100000000E-03 0. -1.
</event>
<event>
 8    1  0.1086486E+005  0.1043930E+01  0.7957747E-01            NaN
         13   -1    0    0    0    0  0.00000000000E+00  0.00000000000E+00  0.74505805969E-08  0.10566000000E+00  0.10566000000E+00 0. -1.
     999900   -1    0    0    0    0 -0.00000000000E+00 -0.00000000000E+00 -0.74505805969E-08  0.93827000000E+00  0.93827000000E+00 0. -1.
     999902    2    1    2    0    0 -0.20260697363E-01  0.68154349603E-02  0.10570942533E-01  0.10200827604E+01  0.10198039749E+01 0.  0.
     999903    2    3    3    0    0 -0.12099851599E+00  0.19806986234E-02 -0.49544157238E-01  0.13228474957E+00  0.20001685285E-01 0.  0.
         14    1    1    2    0    0  0.20260697363E-01 -0.68154349603E-02 -0.10570942533E-01  0.23847239617E-01  0.00000000000E+00 0. -1.
     999901    1    3    3    0    0  0.10073781863E+00  0.48347363369E-02  0.60115099771E-01  0.88779801081E+00  0.88000000000E+00 0.  1.
        -11    1    4    4    0    0 -0.15725452890E-01 -0.47550163753E-02 -0.19374749549E-02  0.16550377021E-01  0.51100000000E-03 0. -1.
         11    1    4    4    0    0 -0.10527306310E+00  0.67357149987E-02 -0.47606682283E-01  0.11573437255E+00  0.51100000000E-03 0.  1.
</event>
<event>
 8    1  0.1086486E+005  0.1043930E+01  0.7957747E-01            NaN
         13   -1    0    0    0    0  0.00000000000E+00  0.00000000000E+00  0.74505805969E-08  0.10566000000E+00  0.10566000000E+00 0. -1.
     999900   -1    0    0    0    0 -0.00000000000E+00 -0.00000000000E+00 -0.74505805969E-08  0.93827000000E+00  0.93827000000E+00 0.  1.
     999902    2    1    2    0    0 -0.17639791429E-01 -0.15782911701E-01 -0.24086974878E-01  0.10101595262E+01  0.10095948808E+01 0.  0.
     999903    2    3    3    0    0  0.15768447575E-01 -0.51367956813E-01  0.10516909277E+00  0.11937922953E+00  0.17422727760E-01 0.  0.
         14    1    1    2    0    0  0.17639791429E-01  0.15782911701E-01  0.24086974878E-01  0.33770473822E-01  0.00000000000E+00 0. -1.
     999901    1    3    3    0    0 -0.33408239004E-01  0.35585045111E-01 -0.12925606765E+00  0.89078029665E+00  0.88000000000E+00 0.  1.
        -11    1    4    4    0    0 -0.18925481953E-02 -0.14067314706E-01  0.37702451281E-01  0.40289043614E-01  0.51100000000E-03 0. -1.
         11    1    4    4    0    0  0.17660995770E-01 -0.37300642106E-01  0.67466641493E-01  0.79090185917E-01  0.51100000000E-03 0.  1.
</event>
<event>
 8    1  0.1086486E+005  0.1043930E+01  0.7957747E-01            NaN
         13   -1    0    0    0    0  0.00000000000E+00  0.00000000000E+00  0.74505805969E-08  0.10566000000E+00  0.10566000000E+00 0. -1.
     999900   -1    0    0    0    0 -0.00000000000E+00 -0.00000000000E+00 -0.74505805969E-08  0.93827000000E+00  0.93827000000E+00 0.  1.
     999902    2    1    2    0    0  0.16215084113E-01  0.11963550083E-01  0.13193642490E-01  0.10198441601E+01  0.10195597006E+01 0.  0.
     999903    2    3    3    0    0 -0.10033191380E+00  0.27335850424E-01  0.75171798606E-01  0.12986618158E+00  0.20017096911E-01 0.  0.
         14    1    1    2    0    0 -0.16215084113E-01 -0.11963550083E-01 -0.13193642490E-01  0.24085839938E-01  0.00000000000E+00 0.  1.
     999901    1    3    3    0    0  0.11654699791E+00 -0.15372300341E-01 -0.61978156116E-01  0.88997797848E+00  0.88000000000E+00 0.  1.
        -11    1    4    4    0    0 -0.20462557673E-01  0.62538286999E-04  0.79137295200E-02  0.21945578450E-01  0.51100000000E-03 0. -1.
         11    1    4    4    0    0 -0.79869356124E-01  0.27273312137E-01  0.67258069086E-01  0.10792060313E+00  0.51100000000E-03 0.  1.
</event>
<event>
 8    1  0.1086486E+005  0.1043930E+01  0.7957747E-01            NaN
         13   -1    0    0    0    0  0.00000000000E+00  0.00000000000E+00  0.74505805969E-08  0.10566000000E+00  0.10566000000E+00 0. -1.
     999900   -1    0    0    0    0 -0.00000000000E+00 -0.00000000000E+00 -0.74505805969E-08  0.93827000000E+00  0.93827000000E+00 0. -1.
     999902    2    1    2    0    0 -0.11062099378E-01 -0.95657247667E-02 -0.17922698104E-01  0.10207978527E+01  0.10205357219E+01 0.  0.
     999903    2    3    3    0    0  0.30927056457E-01  0.32193927360E-01  0.11868949595E+00  0.12829023403E+00  0.19448802493E-01 0.  0.
         14    1    1    2    0    0  0.11062099378E-01  0.95657247667E-02  0.17922698104E-01  0.23132147334E-01  0.00000000000E+00 0. -1.
     999901    1    3    3    0    0 -0.41989155836E-01 -0.41759652127E-01 -0.13661219406E+00  0.89250761863E+00  0.88000000000E+00 0. -1.
        -11    1    4    4    0    0  0.18688993391E-01  0.73521194891E-02  0.62422707043E-01  0.65575815744E-01  0.51100000000E-03 0. -1.
         11    1    4    4    0    0  0.12238063066E-01  0.24841807871E-01  0.56266788911E-01  0.62714418288E-01  0.51100000000E-03 0.  1.
</event>
<event>
 8    1  0.1086486E+005  0.1043930E+01  0.7957747E-01            NaN
         13   -1    0    0    0    0  0.00000000000E+00  0.00000000000E+00  0.74505805969E-08  0.10566000000E+00  0.10566000000E+00 0. -1.
     999900   -1    0    0    0    0 -0.00000000000E+00 -0.00000000000E+00 -0.74505805969E-08  0.93827000000E+00  0.93827000000E+00 0.  1.
     999902    2    1    2    0    0  0.31235237669E-02  0.73708268307E-02 -0.22409558021E-01  0.10201334923E+01  0.10198559057E+01 0.  0.
     999903    2    3    3    0    0  0.11007201360E+00  0.68138685457E-01  0.12243658906E-01  0.13090261250E+00  0.15061810716E-01 0.  0.
         14    1    1    2    0    0 -0.31235237669E-02 -0.73708268307E-02  0.22409558021E-01  0.23796507718E-01  0.00000000000E+00 0. -1.
     999901    1    3    3    0    0 -0.10694848983E+00 -0.60767858626E-01 -0.34653216927E-01  0.88923087978E+00  0.88000000000E+00 0.  1.
        -11    1    4    4    0    0  0.34628010233E-01  0.17087344129E-01  0.94862389336E-02  0.39765893328E-01  0.51100000000E-03 0. -1.
         11    1    4    4    0    0  0.75444003365E-01  0.51051341327E-01  0.27574199722E-02  0.91136719169E-01  0.51100000000E-03 0.  1.
</event>
<event>
 8    1  0.1086486E+005  0.1043930E+01  0.7957747E-01            NaN
         13   -1    0    0    0    0  0.00000000000E+00  0.00000000000E+00  0.74505805969E-08  0.10566000000E+00  0.10566000000E+00 0.  1.
     999900   -1    0    0    0    0 -0.00000000000E+00 -0.00000000000E+00 -0.74505805969E-08  0.93827000000E+00  0.93827000000E+00 0. -1.
     999902    2    1    2    0    0  0.17934552042E-01 -0.14743405523E-01 -0.46796478163E-02  0.10202463502E+01  0.10199714211E+01 0.  0.
     999903    2    3    3    0    0 -0.11599050733E+00  0.46920988462E-01  0.16939954591E-01  0.12771857685E+00  0.19227476748E-01 0.  0.
         14    1    1    2    0    0 -0.17934552042E-01  0.14743405523E-01  0.46796478163E-02  0.23683649783E-01  0.00000000000E+00 0. -1.
     999901    1    3    3    0    0  0.13392505938E+00 -0.61664393985E-01 -0.21619602407E-01  0.89252777336E+00  0.88000000000E+00 0.  1.
        -11    1    4    4    0    0 -0.62194793390E-01  0.23772898553E-01  0.18579227039E-01  0.69128806071E-01  0.51100000000E-03 0. -1.
         11    1    4    4    0    0 -0.53795713945E-01  0.23148089909E-01 -0.16392724483E-02  0.58589770784E-01  0.51100000000E-03 0.  1.
</event>
<event>
 8    1  0.1086486E+005  0.1043930E+01  0.7957747E-01            NaN
         13   -1    0    0    0    0  0.00000000000E+00  0.00000000000E+00  0.74505805969E-08  0.10566000000E+00  0.10566000000E+00 0. -1.
     999900   -1    0    0    0    0 -0.00000000000E+00 -0.00000000000E+00 -0.74505805969E-08  0.93827000000E+00  0.93827000000E+00 0.  1.
     999902    2    1    2    0    0 -0.82612785262E-02 -0.37039292563E-02  0.33441215726E-01  0.10092849033E+01  0.10086901077E+01 0.  0.
     999903    2    3    3    0    0 -0.97992238477E-01 -0.69986713150E-01  0.10196126946E-01  0.12193751544E+00  0.16253548809E-01 0.  0.
         14    1    1    2    0    0  0.82612785262E-02  0.37039292563E-02 -0.33441215726E-01  0.34645096681E-01  0.00000000000E+00 0.  1.
     999901    1    3    3    0    0  0.89730959951E-01  0.66282783894E-01  0.23245088780E-01  0.88734738787E+00  0.88000000000E+00 0.  1.
        -11    1    4    4    0    0 -0.44433861519E-01 -0.41160466320E-01  0.24414498675E-02  0.60619912865E-01  0.51100000000E-03 0. -1.
         11    1    4    4    0    0 -0.53558376958E-01 -0.28826246830E-01  0.77546770783E-02  0.61317602580E-01  0.51100000000E-03 0.  1.
</event>
<event>
 8    1  0.1086486E+005  0.1043930E+01  0.7957747E-01            NaN
         13   -1    0    0    0    0  0.00000000000E+00  0.00000000000E+00  0.74505805969E-08  0.10566000000E+00  0.10566000000E+00 0. -1.
     999900   -1    0    0    0    0 -0.00000000000E+00 -0.00000000000E+00 -0.74505805969E-08  0.93827000000E+00  0.93827000000E+00 0. -1.
     999902    2    1    2    0    0 -0.36112863581E-03 -0.23823288111E-01  0.20064292294E-03  0.10201031301E+01  0.10198248263E+01 0.  0.
     999903    2    3    3    0    0  0.15383599488E-01 -0.96201685606E-01 -0.87781586818E-01  0.13261938287E+00  0.19770540791E-01 0.  0.
         14    1    1    2    0    0  0.36112863581E-03  0.23823288111E-01 -0.20064292294E-03  0.23826869872E-01  0.00000000000E+00 0.  1.
     999901    1    3    3    0    0 -0.15744728124E-01  0.72378397495E-01  0.87982229741E-01  0.88748374725E+00  0.88000000000E+00 0. -1.
        -11    1    4    4    0    0  0.22153361016E-02 -0.25343627331E-01 -0.35064689134E-01  0.43324366186E-01  0.51100000000E-03 0.  1.
         11    1    4    4    0    0  0.13168263386E-01 -0.70858058275E-01 -0.52716897684E-01  0.89295016689E-01  0.51100000000E-03 0. -1.
</event>
<event>
 8    1  0.1086486E+005  0.1043930E+01  0.7957747E-01            NaN
         13   -1    0    0    0    0  0.00000000000E+00  0.00000000000E+00  0.74505805969E-08  0.10566000000E+00  0.10566000000E+00 0. -1.
     999900   -1    0    0    0    0 -0.00000000000E+00 -0.00000000000E+00 -0.74505805969E-08  0.93827000000E+00  0.93827000000E+00 0.  1.
     999902    2    1    2    0    0  0.12958796932E-01  0.90756957646E-02  0.14766139033E-01  0.10222888925E+01  0.10220598036E+01 0.  0.
     999903    2    3    3    0    0  0.12697111598E-01 -0.65869310491E-01 -0.10990022121E+00  0.13034801789E+00  0.20311682303E-01 0.  0.
         14    1    1    2    0    0 -0.12958796932E-01 -0.90756957646E-02 -0.14766139033E-01  0.21641107492E-01  0.00000000000E+00 0.  1.
     999901    1    3    3    0    0  0.26168533347E-03  0.74945006256E-01  0.12466636024E+00  0.89194087462E+00  0.88000000000E+00 0. -1.
        -11    1    4    4    0    0 -0.42758849575E-02 -0.22580245159E-01 -0.44703575247E-01  0.50267498689E-01  0.51100000000E-03 0. -1.
         11    1    4    4    0    0  0.16972996556E-01 -0.43289065332E-01 -0.65196645962E-01  0.80080519199E-01  0.51100000000E-03 0.  1.
</event>
<event>
 8    1  0.1086486E+005  0.1043930E+01  0.7957747E-01            NaN
         13   -1    0    0    0    0  0.00000000000E+00  0.00000000000E+00  0.74505805969E-08  0.10566000000E+00  0.10566000000E+00 0.  1.
     999900   -1    0    0    0    0 -0.00000000000E+00 -0.00000000000E+00 -0.74505805969E-08  0.93827000000E+00  0.93827000000E+00 0. -1.
     999902    2    1    2    0    0 -0.16628741414E-01  0.93940928140E-02  0.15875847747E-01  0.10190944094E+01  0.10187917396E+01 0.  0.
     999903    2    3    3    0    0 -0.89692753176E-02 -0.11156321360E+00 -0.58082517004E-01  0.12771391983E+00  0.20260010075E-01 0.  0.
         14    1    1    2    0    0  0.16628741414E-01 -0.93940928140E-02 -0.15875847747E-01  0.24835590641E-01  0.00000000000E+00 0. -1.
     999901    1    3    3    0    0 -0.76594660963E-02  0.12095730641E+00  0.73958364751E-01  0.89138048953E+00  0.88000000000E+00 0.  1.
        -11    1    4    4    0    0  0.64678157730E-02 -0.36156910369E-01 -0.17272503549E-01  0.40592552373E-01  0.51100000000E-03 0.  1.
         11    1    4    4    0    0 -0.15437091091E-01 -0.75406303232E-01 -0.40810013454E-01  0.87121367457E-01  0.51100000000E-03 0. -1.
</event>
<event>
 8    1  0.1086486E+005  0.1043930E+01  0.7957747E-01            NaN
         13   -1    0    0    0    0  0.00000000000E+00  0.00000000000E+00  0.74505805969E-08  0.10566000000E+00  0.10566000000E+00 0.  1.
     999900   -1    0    0    0    0 -0.00000000000E+00 -0.00000000000E+00 -0.74505805969E-08  0.93827000000E+00  0.93827000000E+00 0.  1.
     999902    2    1    2    0    0 -0.12783851992E-01 -0.48620419065E-03  0.19795551181E-01  0.10203603773E+01  0.10200881200E+01 0.  0.
     999903    2    3    3    0    0 -0.11831041632E+00 -0.20024455307E-01  0.52589966024E-01  0.13323407703E+00  0.24233888151E-01 0.  0.
         14    1    1    2    0    0  0.12783851992E-01  0.48620419065E-03 -0.19795551181E-01  0.23569622670E-01  0.00000000000E+00 0. -1.
     999901    1    3    3    0    0  0.10552656433E+00  0.19538251116E-01 -0.32794414844E-01  0.88712630030E+00  0.88000000000E+00 0.  1.
        -11    1    4    4    0    0 -0.90546855894E-01 -0.71401461338E-02  0.46430850885E-01  0.10200882233E+00  0.51100000000E-03 0.  1.
         11    1    4    4    0    0 -0.27763560430E-01 -0.12884309173E-01  0.61591151393E-02  0.31225254697E-01  0.51100000000E-03 0. -1.
</event>
<event>
 8    1  0.1086486E+005  0.1043930E+01  0.7957747E-01            NaN
         13   -1    0    0    0    0  0.00000000000E+00  0.00000000000E+00  0.74505805969E-08  0.10566000000E+00  0.10566000000E+00 0.  1.
     999900   -1    0    0    0    0 -0.00000000000E+00 -0.00000000000E+00 -0.74505805969E-08  0.93827000000E+00  0.93827000000E+00 0. -1.
     999902    2    1    2    0    0 -0.13592113950E-01 -0.17986041765E-02  0.19220849257E-01  0.10203202227E+01  0.10200470260E+01 0.  0.
     999903    2    3    3    0    0  0.21550062698E-01  0.12682166998E+00  0.52083691355E-02  0.13016602419E+00  0.19181385945E-01 0.  0.
         14    1    1    2    0    0  0.13592113950E-01  0.17986041765E-02 -0.19220849257E-01  0.23609777313E-01  0.00000000000E+00 0. -1.
     999901    1    3    3    0    0 -0.35142176648E-01 -0.12862027415E+00  0.14012480121E-01  0.89015419850E+00  0.88000000000E+00 0. -1.
        -11    1    4    4    0    0  0.63618094255E-02  0.83041311433E-01  0.84272271008E-02  0.83711476521E-01  0.51100000000E-03 0.  1.
         11    1    4    4    0    0  0.15188253272E-01  0.43780358542E-01 -0.32188579653E-02  0.46454547669E-01  0.51100000000E-03 0. -1.
</event>
<event>
 8    1  0.1086486E+005  0.1043930E+01  0.7957747E-01            NaN
         13   -1    0    0    0    0  0.00000000000E+00  0.00000000000E+00  0.74505805969E-08  0.10566000000E+00  0.10566000000E+00 0.  1.
     999900   -1    0    0    0    0 -0.00000000000E+00 -0.00000000000E+00 -0.74505805969E-08  0.93827000000E+00  0.93827000000E+00 0.  1.
     999902    2    1    2    0    0  0.10719847676E-01 -0.17177608686E-01  0.10977783070E-01  0.10208974774E+01  0.10206376254E+01 0.  0.
     999903    2    3    3    0    0  0.12408046977E+00  0.28181438258E-02  0.42937284510E-01  0.13282548121E+00  0.19876950055E-01 0.  0.
         14    1    1    2    0    0 -0.10719847676E-01  0.17177608686E-01 -0.10977783070E-01  0.23032522561E-01  0.00000000000E+00 0.  1.
     999901    1    3    3    0    0 -0.11336062209E+00 -0.19995752512E-01 -0.31959501441E-01  0.88807199623E+00  0.88000000000E+00 0. -1.
        -11    1    4    4    0    0  0.86315298898E-01  0.99512439247E-02  0.34413461669E-01  0.93455366590E-01  0.51100000000E-03 0. -1.
         11    1    4    4    0    0  0.37765170873E-01 -0.71331000989E-02  0.85238228416E-02  0.39370114617E-01  0.51100000000E-03 0.  1.
</event>
<event>
 8    1  0.1086486E+005  0.1043930E+01  0.7957747E-01            NaN
         13   -1    0    0    0    0  0.00000000000E+00  0.00000000000E+00  0.74505805969E-08  0.10566000000E+00  0.10566000000E+00 0.  1.
     999900   -1    0    0    0    0 -0.00000000000E+00 -0.00000000000E+00 -0.74505805969E-08  0.93827000000E+00  0.93827000000E+00 0. -1.
     999902    2    1    2    0    0  0.23784364825E-01 -0.16982349302E-03  0.33516382767E-02  0.10199100431E+01  0.10196271562E+01 0.  0.
     999903    2    3    3    0    0  0.11340068588E+00 -0.95106392515E-02 -0.65507163600E-01  0.13263338364E+00  0.18715185123E-01 0.  0.
         14    1    1    2    0    0 -0.23784364825E-01  0.16982349302E-03 -0.33516382767E-02  0.24019956896E-01  0.00000000000E+00 0.  1.
     999901    1    3    3    0    0 -0.89616321059E-01  0.93408157585E-02  0.68858801877E-01  0.88727665947E+00  0.88000000000E+00 0.  1.
        -11    1    4    4    0    0  0.25458403174E-01  0.56594412400E-02 -0.14849998951E-01  0.30015715170E-01  0.51100000000E-03 0. -1.
         11    1    4    4    0    0  0.87942282710E-01 -0.15170080491E-01 -0.50657164649E-01  0.10261766847E+00  0.51100000000E-03 0.  1.
</event>
<event>
 8    1  0.1086486E+005  0.1043930E+01  0.7957747E-01            NaN
         13   -1    0    0    0    0  0.00000000000E+00  0.00000000000E+00  0.74505805969E-08  0.10566000000E+00  0.10566000000E+00 0. -1.
     999900   -1    0    0    0    0 -0.00000000000E+00 -0.00000000000E+00 -0.74505805969E-08  0.93827000000E+00  0.93827000000E+00 0.  1.
     999902    2    1    2    0    0  0.18103373469E-01 -0.91766281786E-03 -0.14844338865E-01  0.10205007740E+01  0.10202317879E+01 0.  0.
     999903    2    3    3    0    0 -0.42965150306E-01  0.11496576540E+00 -0.38751178909E-01  0.13048399293E+00  0.21477597380E-01 0.  0.
         14    1    1    2    0    0 -0.18103373469E-01  0.91766281786E-03  0.14844338865E-01  0.23429226030E-01  0.00000000000E+00 0.  1.
     999901    1    3    3    0    0  0.61068523775E-01 -0.11588342822E+00  0.23906840043E-01  0.89001678104E+00  0.88000000000E+00 0.  1.
        -11    1    4    4    0    0 -0.31251864946E-01  0.62293078801E-01 -0.13867032462E-01  0.71060976910E-01  0.51100000000E-03 0. -1.
         11    1    4    4    0    0 -0.11713285360E-01  0.52672686600E-01 -0.24884146447E-01  0.59423016021E-01  0.51100000000E-03 0.  1.
</event>
<event>
 8    1  0.1086486E+005  0.1043930E+01  0.7957747E-01            NaN
         13   -1    0    0    0    0  0.00000000000E+00  0.00000000000E+00  0.74505805969E-08  0.10566000000E+00  0.10566000000E+00 0. -1.
     999900   -1    0    0    0    0 -0.00000000000E+00 -0.00000000000E+00 -0.74505805969E-08  0.93827000000E+00  0.93827000000E+00 0. -1.
     999902    2    1    2    0    0  0.13000118226E-01 -0.19276728129E-01  0.49670864707E-02  0.10201546500E+01  0.10198775625E+01 0.  0.
     999903    2    3    3    0    0 -0.73843720388E-01 -0.76903823489E-01  0.74336275187E-01  0.13129312038E+00  0.18571713537E-01 0.  0.
         14    1    1    2    0    0 -0.13000118226E-01  0.19276728129E-01 -0.49670864707E-02  0.23775350035E-01  0.00000000000E+00 0.  1.
     999901    1    3    3    0    0  0.86843838614E-01  0.57627095359E-01 -0.69369188717E-01  0.88886152958E+00  0.88000000000E+00 0. -1.
        -11    1    4    4    0    0 -0.37626398784E-01 -0.51916044126E-01  0.46825924025E-01  0.79397416866E-01  0.51100000000E-03 0. -1.
         11    1    4    4    0    0 -0.36217321604E-01 -0.24987779362E-01  0.27510351162E-01  0.51895703519E-01  0.51100000000E-03 0.  1.
</event>
<event>
 8    1  0.1086486E+005  0.1043930E+01  0.7957747E-01            NaN
         13   -1    0    0    0    0  0.00000000000E+00  0.00000000000E+00  0.74505805969E-08  0.10566000000E+00  0.10566000000E+00 0. -1.
     999900   -1    0    0    0    0 -0.00000000000E+00 -0.00000000000E+00 -0.74505805969E-08  0.93827000000E+00  0.93827000000E+00 0. -1.
     999902    2    1    2    0    0 -0.94891445191E-02 -0.22100091660E-01 -0.16874116650E-02  0.10198197268E+01  0.10195346830E+01 0.  0.
     999903    2    3    3    0    0  0.26821495097E-01  0.84062171577E-01  0.89807624605E-01  0.12799001754E+00  0.23025938900E-01 0.  0.
         14    1    1    2    0    0  0.94891445191E-02  0.22100091660E-01  0.16874116650E-02  0.24110273188E-01  0.00000000000E+00 0. -1.
     999901    1    3    3    0    0 -0.36310639616E-01 -0.10616226324E+00 -0.91495036270E-01  0.89182970928E+00  0.88000000000E+00 0. -1.
        -11    1    4    4    0    0  0.87827825195E-02  0.52351127859E-02  0.83757573415E-02  0.13227173043E-01  0.51100000000E-03 0. -1.
         11    1    4    4    0    0  0.18038712577E-01  0.78827058791E-01  0.81431867264E-01  0.11476284449E+00  0.51100000000E-03 0.  1.
</event>
<event>
 8    1  0.1086486E+005  0.1043930E+01  0.7957747E-01            NaN
         13   -1    0    0    0    0  0.00000000000E+00  0.00000000000E+00  0.74505805969E-08  0.10566000000E+00  0.10566000000E+00 0.  1.
     999900   -1    0    0    0    0 -0.00000000000E+00 -0.00000000000E+00 -0.74505805969E-08  0.93827000000E+00  0.93827000000E+00 0.  1.
     999902    2    1    2    0    0  0.13403139152E-02 -0.91852767077E-02  0.22390685648E-01  0.10196914243E+01  0.10194033020E+01 0.  0.
     999903    2    3    3    0    0  0.30624774117E-02  0.11531722772E+00  0.57253005475E-01  0.13024259449E+00  0.19436692271E-01 0.  0.
         14    1    1    2    0    0 -0.13403139152E-02  0.91852767077E-02 -0.22390685648E-01  0.24238575729E-01  0.00000000000E+00 0. -1.
     999901    1    3    3    0    0 -0.17221634965E-02 -0.12450250443E+00 -0.34862319827E-01  0.88944882978E+00  0.88000000000E+00 0.  1.
        -11    1    4    4    0    0  0.11332194958E-01  0.70548662570E-01  0.35092371683E-01  0.79606960149E-01  0.51100000000E-03 0.  1.
         11    1    4    4    0    0 -0.82697175462E-02  0.44768565151E-01  0.22160633792E-01  0.50635634340E-01  0.51100000000E-03 0. -1.
</event>
<event>
 8    1  0.1086486E+005  0.1043930E+01  0.7957747E-01            NaN
         13   -1    0    0    0    0  0.00000000000E+00  0.00000000000E+00  0.74505805969E-08  0.10566000000E+00  0.10566000000E+00 0.  1.
     999900   -1    0    0    0    0 -0.00000000000E+00 -0.00000000000E+00 -0.74505805969E-08  0.93827000000E+00  0.93827000000E+00 0. -1.
     999902    2    1    2    0    0  0.19508456016E-01 -0.13405182422E-02  0.14270591775E-01  0.10197220130E+01  0.10194346262E+01 0.  0.
     999903    2    3    3    0    0  0.61333227575E-01 -0.10459664051E+00 -0.44619528757E-01  0.13074553153E+00  0.20031716265E-01 0.  0.
         14    1    1    2    0    0 -0.19508456016E-01  0.13405182422E-02 -0.14270591775E-01  0.24207987006E-01  0.00000000000E+00 0. -1.
     999901    1    3    3    0    0 -0.41824771559E-01  0.10325612227E+00  0.58890120533E-01  0.88897648147E+00  0.88000000000E+00 0. -1.
        -11    1    4    4    0    0  0.29350079288E-01 -0.44063699816E-01 -0.29578630999E-01  0.60648110675E-01  0.51100000000E-03 0.  1.
         11    1    4    4    0    0  0.31983148287E-01 -0.60532940698E-01 -0.15040897758E-01  0.70097420853E-01  0.51100000000E-03 0. -1.
</event>
<event>
 8    1  0.1086486E+005  0.1043930E+01  0.7957747E-01            NaN
         13   -1    0    0    0    0  0.00000000000E+00  0.00000000000E+00  0.74505805969E-08  0.10566000000E+00  0.10566000000E+00 0. -1.
     999900   -1    0    0    0    0 -0.00000000000E+00 -0.00000000000E+00 -0.74505805969E-08  0.93827000000E+00  0.93827000000E+00 0. -1.
     999902    2    1    2    0    0  0.18281958481E-01 -0.12217766141E-01  0.90947214815E-02  0.10201346691E+01  0.10198571102E+01 0.  0.
     999903    2    3    3    0    0 -0.40743435747E-01 -0.18447817562E-01 -0.11916195175E+00  0.12885885040E+00  0.20116735633E-01 0.  0.
         14    1    1    2    0    0 -0.18281958481E-01  0.12217766141E-01 -0.90947214815E-02  0.23795330933E-01  0.00000000000E+00 0.  1.
     999901    1    3    3    0    0  0.59025394228E-01  0.62300514203E-02  0.12825667323E+00  0.89127581866E+00  0.88000000000E+00 0.  1.
        -11    1    4    4    0    0 -0.14628011971E-01 -0.10791049349E-01 -0.25486616811E-01  0.31309012085E-01  0.51100000000E-03 0. -1.
         11    1    4    4    0    0 -0.26115423776E-01 -0.76567682125E-02 -0.93675334943E-01  0.97549838319E-01  0.51100000000E-03 0.  1.
</event>
<event>
 8    1  0.1086486E+005  0.1043930E+01  0.7957747E-01            NaN
         13   -1    0    0    0    0  0.00000000000E+00  0.00000000000E+00  0.74505805969E-08  0.10566000000E+00  0.10566000000E+00 0. -1.
     999900   -1    0    0    0    0 -0.00000000000E+00 -0.00000000000E+00 -0.74505805969E-08  0.93827000000E+00  0.93827000000E+00 0. -1.
     999902    2    1    2    0    0  0.46784328511E-02 -0.14235455549E-01 -0.17999333456E-01  0.10205096684E+01  0.10202408889E+01 0.  0.
     999903    2    3    3    0    0  0.46084816777E-01  0.11703873855E+00  0.20823945092E-01  0.12896345554E+00  0.19392253998E-01 0.  0.
         14    1    1    2    0    0 -0.46784328511E-02  0.14235455549E-01  0.17999333456E-01  0.23420331626E-01  0.00000000000E+00 0. -1.
     999901    1    3    3    0    0 -0.41406383926E-01 -0.13127419410E+00 -0.38823278548E-01  0.89154621284E+00  0.88000000000E+00 0. -1.
        -11    1    4    4    0    0  0.16515428598E-01  0.48022408791E-01  0.17807809396E-01  0.53817193575E-01  0.51100000000E-03 0. -1.
         11    1    4    4    0    0  0.29569388179E-01  0.69016329763E-01  0.30161356964E-02  0.75146261961E-01  0.51100000000E-03 0.  1.
</event>
<event>
 8    1  0.1086486E+005  0.1043930E+01  0.7957747E-01            NaN
         13   -1    0    0    0    0  0.00000000000E+00  0.00000000000E+00  0.74505805969E-08  0.10566000000E+00  0.10566000000E+00 0. -1.
     999900   -1    0    0    0    0 -0.00000000000E+00 -0.00000000000E+00 -0.74505805969E-08  0.93827000000E+00  0.93827000000E+00 0. -1.
     999902    2    1    2    0    0 -0.30887646850E-02 -0.22930781937E-01 -0.27375209631E-02  0.10206307458E+01  0.10203647700E+01 0.  0.
     999903    2    3    3    0    0 -0.34291928268E-01  0.11314675416E+00 -0.46178661019E-01  0.12856692186E+00  0.20466077836E-01 0.  0.
         14    1    1    2    0    0  0.30887646850E-02  0.22930781937E-01  0.27375209631E-02  0.23299254249E-01  0.00000000000E+00 0.  1.
     999901    1    3    3    0    0  0.31203163583E-01 -0.13607753609E+00  0.43441140056E-01  0.89206382389E+00  0.88000000000E+00 0. -1.
        -11    1    4    4    0    0 -0.13023975853E-01  0.74066879294E-01 -0.24687265666E-01  0.79153324393E-01  0.51100000000E-03 0.  1.
         11    1    4    4    0    0 -0.21267952416E-01  0.39079874863E-01 -0.21491395354E-01  0.49413597466E-01  0.51100000000E-03 0. -1.
</event>
<event>
 8    1  0.1086486E+005  0.1043930E+01  0.7957747E-01            NaN
         13   -1    0    0    0    0  0.00000000000E+00  0.00000000000E+00  0.74505805969E-08  0.10566000000E+00  0.10566000000E+00 0. -1.
     999900   -1    0    0    0    0 -0.00000000000E+00 -0.00000000000E+00 -0.74505805969E-08  0.93827000000E+00  0.93827000000E+00 0.  1.
     999902    2    1    2    0    0 -0.20791520309E-01  0.11182378437E-01 -0.21930665320E-02  0.10202204567E+01  0.10199449190E+01 0.  0.
     999903    2    3    3    0    0  0.93939330271E-01  0.83664981284E-01 -0.23838204596E-01  0.12955474620E+00  0.19792559229E-01 0.  0.
         14    1    1    2    0    0  0.20791520309E-01 -0.11182378437E-01  0.21930665320E-02  0.23709543334E-01  0.00000000000E+00 0. -1.
     999901    1    3    3    0    0 -0.11473085058E+00 -0.72482602847E-01  0.21645138064E-01  0.89066571046E+00  0.88000000000E+00 0.  1.
        -11    1    4    4    0    0  0.88663519276E-01  0.77423715933E-01 -0.27015685287E-01  0.12077151904E+00  0.51100000000E-03 0. -1.
         11    1    4    4    0    0  0.52758109944E-02  0.62412653507E-02  0.31774806919E-02  0.87832271617E-02  0.51100000000E-03 0.  1.
</event>
<event>
 8    1  0.1086486E+005  0.1043930E+01  0.7957747E-01            NaN
         13   -1    0    0    0    0  0.00000000000E+00  0.00000000000E+00  0.74505805969E-08  0.10566000000E+00  0.10566000000E+00 0.  1.
     999900   -1    0    0    0    0 -0.00000000000E+00 -0.00000000000E+00 -0.74505805969E-08  0.93827000000E+00  0.93827000000E+00 0.  1.
     999902    2    1    2    0    0  0.20069771848E-01 -0.33868844493E-02  0.11888646574E-01  0.10203586902E+01  0.10200863934E+01 0.  0.
     999903    2    3    3    0    0  0.10549746544E+00  0.42265866375E-01 -0.62974222943E-01  0.13188442849E+00  0.22619262756E-01 0.  0.
         14    1    1    2    0    0 -0.20069771848E-01  0.33868844493E-02 -0.11888646574E-01  0.23571309800E-01  0.00000000000E+00 0. -1.
     999901    1    3    3    0    0 -0.85427693594E-01 -0.45652750824E-01  0.74862869516E-01  0.88847426171E+00  0.88000000000E+00 0. -1.
        -11    1    4    4    0    0  0.58982356267E-01  0.11468196892E-01 -0.32582368463E-01  0.68354295742E-01  0.51100000000E-03 0. -1.
         11    1    4    4    0    0  0.46515109175E-01  0.30797669483E-01 -0.30391854480E-01  0.63530132747E-01  0.51100000000E-03 0.  1.
</event>
<event>
 8    1  0.1086486E+005  0.1043930E+01  0.7957747E-01            NaN
         13   -1    0    0    0    0  0.00000000000E+00  0.00000000000E+00  0.74505805969E-08  0.10566000000E+00  0.10566000000E+00 0. -1.
     999900   -1    0    0    0    0 -0.00000000000E+00 -0.00000000000E+00 -0.74505805969E-08  0.93827000000E+00  0.93827000000E+00 0.  1.
     999902    2    1    2    0    0 -0.12265143564E-01  0.10357361522E-01  0.17068988086E-01  0.10204979912E+01  0.10202289404E+01 0.  0.
     999903    2    3    3    0    0  0.64480758690E-01 -0.93284807930E-01 -0.56713555232E-01  0.12804323236E+00  0.17855485802E-01 0.  0.
         14    1    1    2    0    0  0.12265143564E-01 -0.10357361522E-01 -0.17068988086E-01  0.23432008847E-01  0.00000000000E+00 0.  1.
     999901    1    3    3    0    0 -0.76745902254E-01  0.10364216945E+00  0.73782543318E-01  0.89245475880E+00  0.88000000000E+00 0. -1.
        -11    1    4    4    0    0  0.14336476415E-01 -0.30304682643E-01 -0.10103064801E-01  0.35017729587E-01  0.51100000000E-03 0.  1.
         11    1    4    4    0    0  0.50144282275E-01 -0.62980125288E-01 -0.46610490431E-01  0.93025502769E-01  0.51100000000E-03 0. -1.
</event>
<event>
 8    1  0.1086486E+005  0.1043930E+01  0.7957747E-01            NaN
         13   -1    0    0    0    0  0.00000000000E+00  0.00000000000E+00  0.74505805969E-08  0.10566000000E+00  0.10566000000E+00 0. -1.
     999900   -1    0    0    0    0 -0.00000000000E+00 -0.00000000000E+00 -0.74505805969E-08  0.93827000000E+00  0.93827000000E+00 0.  1.
     999902    2    1    2    0    0  0.10403496294E-01  0.38364587174E-02  0.17667268529E-01  0.10230713441E+01  0.10228586860E+01 0.  0.
     999903    2    3    3    0    0  0.55339039464E-01  0.10956246719E+00  0.52238241330E-01  0.13493152169E+00  0.20281473870E-01 0.  0.
         14    1    1    2    0    0 -0.10403496294E-01 -0.38364587174E-02 -0.17667268529E-01  0.20858655947E-01  0.00000000000E+00 0.  1.
     999901    1    3    3    0    0 -0.44935543170E-01 -0.10572600847E+00 -0.34570972801E-01  0.88813982236E+00  0.88000000000E+00 0.  1.
        -11    1    4    4    0    0  0.76071203879E-02  0.32215846676E-01  0.18892095759E-01  0.38116944537E-01  0.51100000000E-03 0.  1.
         11    1    4    4    0    0  0.47731919076E-01  0.77346620516E-01  0.33346145571E-01  0.96814577153E-01  0.51100000000E-03 0. -1.
</event>
<event>
 8    1  0.1086486E+005  0.1043930E+01  0.7957747E-01            NaN
         13   -1    0    0    0    0  0.00000000000E+00  0.00000000000E+00  0.74505805969E-08  0.10566000000E+00  0.10566000000E+00 0. -1.
     999900   -1    0    0    0    0 -0.00000000000E+00 -0.00000000000E+00 -0.74505805969E-08  0.93827000000E+00  0.93827000000E+00 0. -1.
     999902    2    1    2    0    0  0.64310814034E-03 -0.14782989296E-01  0.18148155656E-01  0.10205140671E+01  0.10202453897E+01 0.  0.
     999903    2    3    3    0    0 -0.43134105801E-01  0.21393942528E-01 -0.11725959321E+00  0.12834789797E+00  0.20127564546E-01 0.  0.
         14    1    1    2    0    0 -0.64310814034E-03  0.14782989296E-01 -0.18148155656E-01  0.23415932916E-01  0.00000000000E+00 0.  1.
     999901    1    3    3    0    0  0.43777213941E-01 -0.36176931824E-01  0.13540774886E+00  0.89216616911E+00  0.88000000000E+00 0.  1.
        -11    1    4    4    0    0 -0.30720921056E-01  0.23459095816E-01 -0.76910652081E-01  0.86079112981E-01  0.51100000000E-03 0.  1.
         11    1    4    4    0    0 -0.12413184745E-01 -0.20651532881E-02 -0.40348941126E-01  0.42268784991E-01  0.51100000000E-03 0. -1.
</event>
<event>
 8    1  0.1086486E+005  0.1043930E+01  0.7957747E-01            NaN
         13   -1    0    0    0    0  0.00000000000E+00  0.00000000000E+00  0.74505805969E-08  0.10566000000E+00  0.10566000000E+00 0. -1.
     999900   -1    0    0    0    0 -0.00000000000E+00 -0.00000000000E+00 -0.74505805969E-08  0.93827000000E+00  0.93827000000E+00 0.  1.
     999902    2    1    2    0    0  0.18065381655E-01 -0.59811697827E-02 -0.14505614498E-01  0.10200020820E+01  0.10197213845E+01 0.  0.
     999903    2    3    3    0    0 -0.54207068124E-01 -0.93232326045E-01  0.67217055606E-01  0.12898318993E+00  0.22087504767E-01 0.  0.
         14    1    1    2    0    0 -0.18065381655E-01  0.59811697827E-02  0.14505614498E-01  0.23927917968E-01  0.00000000000E+00 0.  1.
     999901    1    3    3    0    0  0.72272449779E-01  0.87251156263E-01 -0.81722670104E-01  0.89101889210E+00  0.88000000000E+00 0.  1.
        -11    1    4    4    0    0 -0.10196776261E-02 -0.17267225233E-01  0.11915862936E-01  0.21010609706E-01  0.51100000000E-03 0.  1.
         11    1    4    4    0    0 -0.53187390498E-01 -0.75965100812E-01  0.55301192669E-01  0.10797258023E+00  0.51100000000E-03 0. -1.
</event>
<event>
 8    1  0.1086486E+005  0.1043930E+01  0.7957747E-01            NaN
         13   -1    0    0    0    0  0.00000000000E+00  0.00000000000E+00  0.74505805969E-08  0.10566000000E+00  0.10566000000E+00 0. -1.
     999900   -1    0    0    0    0 -0.00000000000E+00 -0.00000000000E+00 -0.74505805969E-08  0.93827000000E+00  0.93827000000E+00 0.  1.
     999902    2    1    2    0    0 -0.16296238255E-01  0.15383230951E-01 -0.45393175920E-02  0.10210648173E+01  0.10208087698E+01 0.  0.
     999903    2    3    3    0    0 -0.19581148306E-01  0.13069219068E+00 -0.16991639825E-02  0.13353171183E+00  0.19077757516E-01 0.  0.
         14    1    1    2    0    0  0.16296238255E-01 -0.15383230951E-01  0.45393175920E-02  0.22865182701E-01  0.00000000000E+00 0. -1.
     999901    1    3    3    0    0  0.32849100507E-02 -0.11530895973E+00 -0.28401536095E-02  0.88753310547E+00  0.88000000000E+00 0.  1.
        -11    1    4    4    0    0 -0.25035994117E-02  0.26700656158E-01 -0.79056278514E-02  0.27963424719E-01  0.51100000000E-03 0. -1.
         11    1    4    4    0    0 -0.17077548894E-01  0.10399153452E+00  0.62064638689E-02  0.10556828711E+00  0.51100000000E-03 0.  1.
</event>
<event>
 8    1  0.1086486E+005  0.1043930E+01  0.7957747E-01            NaN
         13   -1    0    0    0    0  0.00000000000E+00  0.00000000000E+00  0.74505805969E-08  0.10566000000E+00  0.10566000000E+00 0. -1.
     999900   -1    0    0    0    0 -0.00000000000E+00 -0.00000000000E+00 -0.74505805969E-08  0.93827000000E+00  0.93827000000E+00 0.  1.
     999902    2    1    2    0    0  0.20535178754E-01  0.89860586045E-02 -0.57969414714E-02  0.10207773037E+01  0.10205147017E+01 0.  0.
     999903    2    3    3    0    0  0.12952517766E+00 -0.87105420812E-02 -0.24219747234E-01  0.13368576991E+00  0.20800089695E-01 0.  0.
         14    1    1    2    0    0 -0.20535178754E-01 -0.89860586045E-02  0.57969414714E-02  0.23152696303E-01  0.00000000000E+00 0. -1.
     999901    1    3    3    0    0 -0.10898999890E+00  0.17696600686E-01  0.18422805763E-01  0.88709153378E+00  0.88000000000E+00 0.  1.
        -11    1    4    4    0    0  0.35824034691E-01  0.35873933895E-03  0.22343689562E-02  0.35899076327E-01  0.51100000000E-03 0. -1.
         11    1    4    4    0    0  0.93701142965E-01 -0.90692814202E-02 -0.26454116190E-01  0.97786693587E-01  0.51100000000E-03 0.  1.
</event>
<event>
 8    1  0.1086486E+005  0.1043930E+01  0.7957747E-01            NaN
         13   -1    0    0    0    0  0.00000000000E+00  0.00000000000E+00  0.74505805969E-08  0.10566000000E+00  0.10566000000E+00 0.  1.
     999900   -1    0    0    0    0 -0.00000000000E+00 -0.00000000000E+00 -0.74505805969E-08  0.93827000000E+00  0.93827000000E+00 0. -1.
     999902    2    1    2    0    0 -0.13512359927E-01  0.10295272060E-01 -0.22802878522E-01  0.10154950256E+01  0.10150968423E+01 0.  0.
     999903    2    3    3    0    0  0.88456168597E-01 -0.78220386466E-01 -0.36056443494E-01  0.12509721590E+00  0.20157472245E-01 0.  0.
         14    1    1    2    0    0  0.13512359927E-01 -0.10295272060E-01  0.22802878522E-01  0.28434974353E-01  0.00000000000E+00 0.  1.
     999901    1    3    3    0    0 -0.10196852852E+00  0.88515658526E-01  0.13253564972E-01  0.89039780974E+00  0.88000000000E+00 0.  1.
        -11    1    4    4    0    0  0.80805225523E-01 -0.73828600009E-01 -0.27633610892E-01  0.11288943362E+00  0.51100000000E-03 0. -1.
         11    1    4    4    0    0  0.76509430736E-02 -0.43917864566E-02 -0.84228326019E-02  0.12207782282E-01  0.51100000000E-03 0.  1.
</event>
<event>
 8    1  0.1086486E+005  0.1043930E+01  0.7957747E-01            NaN
         13   -1    0    0    0    0  0.00000000000E+00  0.00000000000E+00  0.74505805969E-08  0.10566000000E+00  0.10566000000E+00 0. -1.
     999900   -1    0    0    0    0 -0.00000000000E+00 -0.00000000000E+00 -0.74505805969E-08  0.93827000000E+00  0.93827000000E+00 0. -1.
     999902    2    1    2    0    0  0.25802427400E-01  0.13820314015E-01 -0.13655751990E-01  0.10116306826E+01  0.10111149253E+01 0.  0.
     999903    2    3    3    0    0 -0.11429463303E+00  0.17841885327E-01 -0.25323156676E-01  0.12046319687E+00  0.22102568270E-01 0.  0.
         14    1    1    2    0    0 -0.25802427400E-01 -0.13820314015E-01  0.13655751990E-01  0.32299317356E-01  0.00000000000E+00 0. -1.
     999901    1    3    3    0    0  0.14009706043E+00 -0.40215713119E-02  0.11667404686E-01  0.89116748578E+00  0.88000000000E+00 0.  1.
        -11    1    4    4    0    0 -0.26310385968E-01  0.13660974008E-01 -0.50791736872E-02  0.30081850790E-01  0.51100000000E-03 0. -1.
         11    1    4    4    0    0 -0.87984247060E-01  0.41809113187E-02 -0.20243982989E-01  0.90381346076E-01  0.51100000000E-03 0.  1.
</event>
<event>
 8    1  0.1086486E+005  0.1043930E+01  0.7957747E-01            NaN
         13   -1    0    0    0    0  0.00000000000E+00  0.00000000000E+00  0.74505805969E-08  0.10566000000E+00  0.10566000000E+00 0. -1.
     999900   -1    0    0    0    0 -0.00000000000E+00 -0.00000000000E+00 -0.74505805969E-08  0.93827000000E+00  0.93827000000E+00 0. -1.
     999902    2    1    2    0    0 -0.17296064371E-01  0.48466518127E-02  0.14999370585E-01  0.10205286113E+01  0.10202602714E+01 0.  0.
     999903    2    3    3    0    0 -0.70899393820E-02 -0.10125137855E+00  0.81325417770E-01  0.13161910993E+00  0.20190533089E-01 0.  0.
         14    1    1    2    0    0  0.17296064371E-01 -0.48466518127E-02 -0.14999370585E-01  0.23401388729E-01  0.00000000000E+00 0.  1.
     999901    1    3    3    0    0 -0.10206124989E-01  0.10609803036E+00 -0.66326047185E-01  0.88890950134E+00  0.88000000000E+00 0. -1.
        -11    1    4    4    0    0 -0.92936106622E-02 -0.39455117284E-01  0.41800079264E-01  0.58228731967E-01  0.51100000000E-03 0.  1.
         11    1    4    4    0    0  0.22036712802E-02 -0.61796261261E-01  0.39525338505E-01  0.73390377966E-01  0.51100000000E-03 0. -1.
</event>
<event>
 8    1  0.1086486E+005  0.1043930E+01  0.7957747E-01            NaN
         13   -1    0    0    0    0  0.00000000000E+00  0.00000000000E+00  0.74505805969E-08  0.10566000000E+00  0.10566000000E+00 0. -1.
     999900   -1    0    0    0    0 -0.00000000000E+00 -0.00000000000E+00 -0.74505805969E-08  0.93827000000E+00  0.93827000000E+00 0.  1.
     999902    2    1    2    0    0 -0.15423335301E-01 -0.10661617304E-01 -0.13788478009E-01  0.10206561632E+01  0.10203907741E+01 0.  0.
     999903    2    3    3    0    0  0.31574171918E-01  0.12307011473E+00 -0.43828255105E-02  0.12926320372E+00  0.23379161761E-01 0.  0.
         14    1    1    2    0    0  0.15423335301E-01  0.10661617304E-01  0.13788478009E-01  0.23273836838E-01  0.00000000000E+00 0.  1.
     999901    1    3    3    0    0 -0.46997507219E-01 -0.13373173204E+00 -0.94056524985E-02  0.89139295944E+00  0.88000000000E+00 0. -1.
        -11    1    4    4    0    0 -0.32241637670E-02  0.21136988472E-01  0.10745467802E-02  0.21414557793E-01  0.51100000000E-03 0.  1.
         11    1    4    4    0    0  0.34798335685E-01  0.10193312626E+00 -0.54573722907E-02  0.10784864593E+00  0.51100000000E-03 0. -1.
</event>
<event>
 8    1  0.1086486E+005  0.1043930E+01  0.7957747E-01            NaN
         13   -1    0    0    0    0  0.00000000000E+00  0.00000000000E+00  0.74505805969E-08  0.10566000000E+00  0.10566000000E+00 0.  1.
     999900   -1    0    0    0    0 -0.00000000000E+00 -0.00000000000E+00 -0.74505805969E-08  0.93827000000E+00  0.93827000000E+00 0.  1.
     999902    2    1    2    0    0 -0.11511667247E-01 -0.16965199097E-01  0.11012942127E-01  0.10206572400E+01  0.10203918758E+01 0.  0.
     999903    2    3    3    0    0 -0.94872805898E-01 -0.84674966603E-01 -0.33572100290E-01  0.13300780580E+00  0.19831571219E-01 0.  0.
         14    1    1    2    0    0  0.11511667247E-01  0.16965199097E-01 -0.11012942127E-01  0.23272759989E-01  0.00000000000E+00 0.  1.
     999901    1    3    3    0    0  0.83361138651E-01  0.67709767506E-01  0.44585042417E-01  0.88764943421E+00  0.88000000000E+00 0. -1.
        -11    1    4    4    0    0 -0.26279332603E-01 -0.35449292469E-01 -0.14481693575E-01  0.46446057189E-01  0.51100000000E-03 0.  1.
         11    1    4    4    0    0 -0.68593473295E-01 -0.49225674134E-01 -0.19090406715E-01  0.86561748608E-01  0.51100000000E-03 0. -1.
</event>
<event>
 8    1  0.1086486E+005  0.1043930E+01  0.7957747E-01            NaN
         13   -1    0    0    0    0  0.00000000000E+00  0.00000000000E+00  0.74505805969E-08  0.10566000000E+00  0.10566000000E+00 0.  1.
     999900   -1    0    0    0    0 -0.00000000000E+00 -0.00000000000E+00 -0.74505805969E-08  0.93827000000E+00  0.93827000000E+00 0.  1.
     999902    2    1    2    0    0  0.20606900648E-01 -0.11464161290E-01  0.57233936810E-03  0.10203418903E+01  0.10200692006E+01 0.  0.
     999903    2    3    3    0    0 -0.55302695041E-01  0.95013164636E-01 -0.63310342103E-01  0.12838859292E+00  0.19736814385E-01 0.  0.
         14    1    1    2    0    0 -0.20606900648E-01  0.11464161290E-01 -0.57233936810E-03  0.23588109733E-01  0.00000000000E+00 0. -1.
     999901    1    3    3    0    0  0.75909595689E-01 -0.10647732593E+00  0.63882681471E-01  0.89195329735E+00  0.88000000000E+00 0. -1.
        -11    1    4    4    0    0 -0.17398274348E-01  0.16773070049E-01 -0.85475533757E-02  0.25638986307E-01  0.51100000000E-03 0. -1.
         11    1    4    4    0    0 -0.37904420693E-01  0.78240094587E-01 -0.54762788728E-01  0.10274960661E+00  0.51100000000E-03 0.  1.
</event>
<event>
 8    1  0.1086486E+005  0.1043930E+01  0.7957747E-01            NaN
         13   -1    0    0    0    0  0.00000000000E+00  0.00000000000E+00  0.74505805969E-08  0.10566000000E+00  0.10566000000E+00 0. -1.
     999900   -1    0    0    0    0 -0.00000000000E+00 -0.00000000000E+00 -0.74505805969E-08  0.93827000000E+00  0.93827000000E+00 0. -1.
     999902    2    1    2    0    0  0.95590185675E-02  0.20955388693E-01 -0.10583405056E-01  0.10185821872E+01  0.10182667433E+01 0.  0.
     999903    2    3    3    0    0  0.10577643956E+00  0.32986333373E-01 -0.68685150127E-01  0.13135146832E+00  0.16087418294E-01 0.  0.
         14    1    1    2    0    0 -0.95590185675E-02 -0.20955388693E-01  0.10583405056E-01  0.25347812801E-01  0.00000000000E+00 0. -1.
     999901    1    3    3    0    0 -0.96217420995E-01 -0.12030944680E-01  0.58101745070E-01  0.88723071887E+00  0.88000000000E+00 0.  1.
        -11    1    4    4    0    0  0.58348040818E-01  0.26251743425E-01 -0.36943900488E-01  0.73883427130E-01  0.51100000000E-03 0.  1.
         11    1    4    4    0    0  0.47428398744E-01  0.67345899475E-02 -0.31741249639E-01  0.57468041195E-01  0.51100000000E-03 0. -1.
</event>
<event>
 8    1  0.1086486E+005  0.1043930E+01  0.7957747E-01            NaN
         13   -1    0    0    0    0  0.00000000000E+00  0.00000000000E+00  0.74505805969E-08  0.10566000000E+00  0.10566000000E+00 0. -1.
     999900   -1    0    0    0    0 -0.00000000000E+00 -0.00000000000E+00 -0.74505805969E-08  0.93827000000E+00  0.93827000000E+00 0. -1.
     999902    2    1    2    0    0 -0.62404379141E-02  0.14364329651E-01  0.17904612232E-01  0.10201423526E+01  0.10198649750E+01 0.  0.
     999903    2    3    3    0    0  0.12208468284E+00  0.39673421946E-01 -0.79533273465E-02  0.13009936494E+00  0.19594365234E-01 0.  0.
         14    1    1    2    0    0  0.62404379141E-02 -0.14364329651E-01 -0.17904612232E-01  0.23787647443E-01  0.00000000000E+00 0.  1.
     999901    1    3    3    0    0 -0.12832512075E+00 -0.25309092295E-01  0.25857939579E-01  0.89004298762E+00  0.88000000000E+00 0.  1.
        -11    1    4    4    0    0  0.21262411667E-01  0.16566392544E-04  0.16488074537E-02  0.21332372380E-01  0.51100000000E-03 0. -1.
         11    1    4    4    0    0  0.10082227117E+00  0.39656855553E-01 -0.96021348002E-02  0.10876699256E+00  0.51100000000E-03 0.  1.
</event>
<event>
 8    1  0.1086486E+005  0.1043930E+01  0.7957747E-01            NaN
         13   -1    0    0    0    0  0.00000000000E+00  0.00000000000E+00  0.74505805969E-08  0.10566000000E+00  0.10566000000E+00 0. -1.
     999900   -1    0    0    0    0 -0.00000000000E+00 -0.00000000000E+00 -0.74505805969E-08  0.93827000000E+00  0.93827000000E+00 0. -1.
     999902    2    1    2    0    0  0.20913012079E-01  0.12772296553E-01  0.25306818349E-02  0.10192948628E+01  0.10189971184E+01 0.  0.
     999903    2    3    3    0    0 -0.90371177888E-01  0.85774247353E-01  0.26704019479E-01  0.12895908009E+00  0.19828473943E-01 0.  0.
         14    1    1    2    0    0 -0.20913012079E-01 -0.12772296553E-01 -0.25306818349E-02  0.24635137182E-01  0.00000000000E+00 0.  1.
     999901    1    3    3    0    0  0.11128418997E+00 -0.73001950800E-01 -0.24173337644E-01  0.89033578273E+00  0.88000000000E+00 0.  1.
        -11    1    4    4    0    0 -0.46961453283E-01  0.31130333441E-01  0.13310856011E-01  0.57895731824E-01  0.51100000000E-03 0.  1.
         11    1    4    4    0    0 -0.43409724605E-01  0.54643913911E-01  0.13393163468E-01  0.71063348264E-01  0.51100000000E-03 0. -1.
</event>
<event>
 8    1  0.1086486E+005  0.1043930E+01  0.7957747E-01            NaN
         13   -1    0    0    0    0  0.00000000000E+00  0.00000000000E+00  0.74505805969E-08  0.10566000000E+00  0.10566000000E+00 0. -1.
     999900   -1    0    0    0    0 -0.00000000000E+00 -0.00000000000E+00 -0.74505805969E-08  0.93827000000E+00  0.93827000000E+00 0.  1.
     999902    2    1    2    0    0 -0.32902740271E-02  0.22922277035E-01  0.61866496520E-02  0.10199606170E+01  0.10196789342E+01 0.  0.
     999903    2    3    3    0    0  0.53529778543E-01 -0.10191103873E+00  0.52536968332E-01  0.12813090952E+00  0.20151921147E-01 0.  0.
         14    1    1    2    0    0  0.32902740271E-02 -0.22922277035E-01 -0.61866496520E-02  0.23969383004E-01  0.00000000000E+00 0. -1.
     999901    1    3    3    0    0 -0.56820052570E-01  0.12483331577E+00 -0.46350318680E-01  0.89182970748E+00  0.88000000000E+00 0. -1.
        -11    1    4    4    0    0  0.42126049180E-01 -0.60093007846E-01  0.35901659036E-01  0.81700451982E-01  0.51100000000E-03 0. -1.
         11    1    4    4    0    0  0.11403729363E-01 -0.41818030887E-01  0.16635309296E-01  0.46430457536E-01  0.51100000000E-03 0.  1.
</event>
<event>
 8    1  0.1086486E+005  0.1043930E+01  0.7957747E-01            NaN
         13   -1    0    0    0    0  0.00000000000E+00  0.00000000000E+00  0.74505805969E-08  0.10566000000E+00  0.10566000000E+00 0.  1.
     999900   -1    0    0    0    0 -0.00000000000E+00 -0.00000000000E+00 -0.74505805969E-08  0.93827000000E+00  0.93827000000E+00 0.  1.
     999902    2    1    2    0    0 -0.23454051533E-01  0.82431717428E-03 -0.11123402644E-02  0.10204351211E+01  0.10201646078E+01 0.  0.
     999903    2    3    3    0    0  0.90766408437E-01  0.86983860106E-01 -0.18231166094E-01  0.12871608774E+00  0.20753867274E-01 0.  0.
         14    1    1    2    0    0  0.23454051533E-01 -0.82431717428E-03  0.11123402644E-02  0.23494878868E-01  0.00000000000E+00 0. -1.
     999901    1    3    3    0    0 -0.11422045997E+00 -0.86159542932E-01  0.17118825830E-01  0.89171903339E+00  0.88000000000E+00 0.  1.
        -11    1    4    4    0    0  0.28923864960E-01  0.40472920840E-01 -0.11362070445E-01  0.51029452783E-01  0.51100000000E-03 0.  1.
         11    1    4    4    0    0  0.61842543477E-01  0.46510939267E-01 -0.68690956492E-02  0.77686634959E-01  0.51100000000E-03 0. -1.
</event>
<event>
 8    1  0.1086486E+005  0.1043930E+01  0.7957747E-01            NaN
         13   -1    0    0    0    0  0.00000000000E+00  0.00000000000E+00  0.74505805969E-08  0.10566000000E+00  0.10566000000E+00 0.  1.
     999900   -1    0    0    0    0 -0.00000000000E+00 -0.00000000000E+00 -0.74505805969E-08  0.93827000000E+00  0.93827000000E+00 0.  1.
     999902    2    1    2    0    0 -0.76583298737E-02 -0.76480175034E-02  0.21100878459E-01  0.10202152523E+01  0.10199395922E+01 0.  0.
     999903    2    3    3    0    0 -0.12284718699E+00 -0.27958696528E-01 -0.30206985105E-01  0.13099452975E+00  0.19338686985E-01 0.  0.
         14    1    1    2    0    0  0.76583298737E-02  0.76480175034E-02 -0.21100878459E-01  0.23714747731E-01  0.00000000000E+00 0. -1.
     999901    1    3    3    0    0  0.11518885711E+00  0.20310679025E-01  0.51307863564E-01  0.88922072251E+00  0.88000000000E+00 0.  1.
        -11    1    4    4    0    0 -0.48088627498E-01 -0.61200475197E-02 -0.20004665943E-01  0.52444435899E-01  0.51100000000E-03 0.  1.
         11    1    4    4    0    0 -0.74758559489E-01 -0.21838649008E-01 -0.10202319161E-01  0.78550093855E-01  0.51100000000E-03 0. -1.
</event>
<event>
 8    1  0.1086486E+005  0.1043930E+01  0.7957747E-01            NaN
         13   -1    0    0    0    0  0.00000000000E+00  0.00000000000E+00  0.74505805969E-08  0.10566000000E+00  0.10566000000E+00 0.  1.
     999900   -1    0    0    0    0 -0.00000000000E+00 -0.00000000000E+00 -0.74505805969E-08  0.93827000000E+00  0.93827000000E+00 0. -1.
     999902    2    1    2    0    0  0.88131679029E-02 -0.20083844043E-01 -0.10152649153E-01  0.10197616528E+01  0.10194752177E+01 0.  0.
     999903    2    3    3    0    0  0.34266499977E-01 -0.12576798036E+00  0.13426014153E-01  0.13275941938E+00  0.21284446726E-01 0.  0.
         14    1    1    2    0    0 -0.88131679029E-02  0.20083844043E-01  0.10152649153E-01  0.24168347169E-01  0.00000000000E+00 0. -1.
     999901    1    3    3    0    0 -0.25453332074E-01  0.10568413632E+00 -0.23578663306E-01  0.88700223345E+00  0.88000000000E+00 0. -1.
        -11    1    4    4    0    0  0.12045495815E-01 -0.34629560214E-01 -0.54456132766E-02  0.37070422644E-01  0.51100000000E-03 0.  1.
         11    1    4    4    0    0  0.22221004162E-01 -0.91138420151E-01  0.18871627429E-01  0.95688996736E-01  0.51100000000E-03 0. -1.
</event>
<event>
 8    1  0.1086486E+005  0.1043930E+01  0.7957747E-01            NaN
         13   -1    0    0    0    0  0.00000000000E+00  0.00000000000E+00  0.74505805969E-08  0.10566000000E+00  0.10566000000E+00 0. -1.
     999900   -1    0    0    0    0 -0.00000000000E+00 -0.00000000000E+00 -0.74505805969E-08  0.93827000000E+00  0.93827000000E+00 0. -1.
     999902    2    1    2    0    0 -0.19568073819E-01  0.10161984003E-02 -0.14025447125E-01  0.10198332089E+01  0.10195484877E+01 0.  0.
     999903    2    3    3    0    0  0.42128591655E-01 -0.11984067185E+00  0.10528951197E-01  0.12909431337E+00  0.20442066082E-01 0.  0.
         14    1    1    2    0    0  0.19568073819E-01 -0.10161984003E-02  0.14025447125E-01  0.24096791057E-01  0.00000000000E+00 0.  1.
     999901    1    3    3    0    0 -0.61696665474E-01  0.12085687025E+00 -0.24554398323E-01  0.89073889558E+00  0.88000000000E+00 0.  1.
        -11    1    4    4    0    0  0.29614890343E-01 -0.10504949954E+00  0.67947634158E-02  0.10935661395E+00  0.51100000000E-03 0.  1.
         11    1    4    4    0    0  0.12513701313E-01 -0.14791172308E-01  0.37341877814E-02  0.19737699415E-01  0.51100000000E-03 0. -1.
</event>
<event>
 8    1  0.1086486E+005  0.1043930E+01  0.7957747E-01            NaN
         13   -1    0    0    0    0  0.00000000000E+00  0.00000000000E+00  0.74505805969E-08  0.10566000000E+00  0.10566000000E+00 0. -1.
     999900   -1    0    0    0    0 -0.00000000000E+00 -0.00000000000E+00 -0.74505805969E-08  0.93827000000E+00  0.93827000000E+00 0. -1.
     999902    2    1    2    0    0  0.22566506454E-01  0.63856514561E-02 -0.27548054481E-02  0.10203161754E+01  0.10200428840E+01 0.  0.
     999903    2    3    3    0    0  0.26877730754E-01  0.12478682496E+00 -0.27929634747E-01  0.13201938011E+00  0.18838474815E-01 0.  0.
         14    1    1    2    0    0 -0.22566506454E-01 -0.63856514561E-02  0.27548054481E-02  0.23613824576E-01  0.00000000000E+00 0.  1.
     999901    1    3    3    0    0 -0.43112243007E-02 -0.11840117350E+00  0.25174829299E-01  0.88829679532E+00  0.88000000000E+00 0. -1.
        -11    1    4    4    0    0  0.65503758857E-02  0.60124597785E-01 -0.60148044616E-02  0.60780866042E-01  0.51100000000E-03 0.  1.
         11    1    4    4    0    0  0.20327354869E-01  0.64662227171E-01 -0.21914830285E-01  0.71238514065E-01  0.51100000000E-03 0. -1.
</event>
<event>
 8    1  0.1086486E+005  0.1043930E+01  0.7957747E-01            NaN
         13   -1    0    0    0    0  0.00000000000E+00  0.00000000000E+00  0.74505805969E-08  0.10566000000E+00  0.10566000000E+00 0.  1.
     999900   -1    0    0    0    0 -0.00000000000E+00 -0.00000000000E+00 -0.74505805969E-08  0.93827000000E+00  0.93827000000E+00 0. -1.
     999902    2    1    2    0    0 -0.19672338108E-01 -0.12438932464E-01 -0.45767699289E-02  0.10202092338E+01  0.10199334321E+01 0.  0.
     999903    2    3    3    0    0  0.25375323858E-01  0.69175201881E-01  0.10310569044E+00  0.12875779312E+00  0.22774333605E-01 0.  0.
         14    1    1    2    0    0  0.19672338108E-01  0.12438932464E-01  0.45767699289E-02  0.23720766229E-01  0.00000000000E+00 0. -1.
     999901    1    3    3    0    0 -0.45047661966E-01 -0.81614134346E-01 -0.10768246037E+00  0.89145144065E+00  0.88000000000E+00 0. -1.
        -11    1    4    4    0    0  0.27133364263E-02  0.32609603151E-01  0.56782690165E-01  0.65538411910E-01  0.51100000000E-03 0. -1.
         11    1    4    4    0    0  0.22661987431E-01  0.36565598730E-01  0.46323000274E-01  0.63219381207E-01  0.51100000000E-03 0.  1.
</event>
<event>
 8    1  0.1086486E+005  0.1043930E+01  0.7957747E-01            NaN
         13   -1    0    0    0    0  0.00000000000E+00  0.00000000000E+00  0.74505805969E-08  0.10566000000E+00  0.10566000000E+00 0.  1.
     999900   -1    0    0    0    0 -0.00000000000E+00 -0.00000000000E+00 -0.74505805969E-08  0.93827000000E+00  0.93827000000E+00 0. -1.
     999902    2    1    2    0    0 -0.99471535779E-02  0.45103649274E-02  0.21242698370E-01  0.10200439897E+01  0.10197642862E+01 0.  0.
     999903    2    3    3    0    0 -0.48125072543E-01 -0.40275281720E-01  0.11579982133E+00  0.13302405913E+00  0.18646199727E-01 0.  0.
         14    1    1    2    0    0  0.99471535779E-02 -0.45103649274E-02 -0.21242698370E-01  0.23886010344E-01  0.00000000000E+00 0. -1.
     999901    1    3    3    0    0  0.38177918965E-01  0.44785646647E-01 -0.94557122957E-01  0.88701993052E+00  0.88000000000E+00 0. -1.
        -11    1    4    4    0    0 -0.22890922469E-01 -0.13256782173E-01  0.32646494085E-01  0.42021319615E-01  0.51100000000E-03 0.  1.
         11    1    4    4    0    0 -0.25234150073E-01 -0.27018499547E-01  0.83153327242E-01  0.91002739519E-01  0.51100000000E-03 0. -1.
</event>
<event>
 8    1  0.1086486E+005  0.1043930E+01  0.7957747E-01            NaN
         13   -1    0    0    0    0  0.00000000000E+00  0.00000000000E+00  0.74505805969E-08  0.10566000000E+00  0.10566000000E+00 0. -1.
     999900   -1    0    0    0    0 -0.00000000000E+00 -0.00000000000E+00 -0.74505805969E-08  0.93827000000E+00  0.93827000000E+00 0.  1.
     999902    2    1    2    0    0 -0.15116257738E-01  0.15217690587E-01  0.95041227482E-02  0.10204692305E+01  0.10201995113E+01 0.  0.
     999903    2    3    3    0    0 -0.77637117692E-01 -0.10290938518E+00  0.41796982275E-02  0.13036181372E+00  0.18943837993E-01 0.  0.
         14    1    1    2    0    0  0.15116257738E-01 -0.15217690587E-01 -0.95041227482E-02  0.23460769468E-01  0.00000000000E+00 0.  1.
     999901    1    3    3    0    0  0.62520859954E-01  0.11812707577E+00  0.53244245208E-02  0.89010741681E+00  0.88000000000E+00 0.  1.
        -11    1    4    4    0    0 -0.58141617513E-01 -0.89110332219E-01  0.30978685747E-02  0.10644696758E+00  0.51100000000E-03 0.  1.
         11    1    4    4    0    0 -0.19495500179E-01 -0.13799052964E-01  0.10818296527E-02  0.23914846149E-01  0.51100000000E-03 0. -1.
</event>
<event>
 8    1  0.1086486E+005  0.1043930E+01  0.7957747E-01            NaN
         13   -1    0    0    0    0  0.00000000000E+00  0.00000000000E+00  0.74505805969E-08  0.10566000000E+00  0.10566000000E+00 0. -1.
     999900   -1    0    0    0    0 -0.00000000000E+00 -0.00000000000E+00 -0.74505805969E-08  0.93827000000E+00  0.93827000000E+00 0. -1.
     999902    2    1    2    0    0 -0.25000817996E-01 -0.16526059429E-02 -0.15246378012E-01  0.10146004236E+01  0.10141764125E+01 0.  0.
     999903    2    3    3    0    0 -0.38436341520E-02 -0.10223969664E+00  0.68423901283E-01  0.12467564880E+00  0.19860967876E-01 0.  0.
         14    1    1    2    0    0  0.25000817996E-01  0.16526059429E-02  0.15246378012E-01  0.29329576358E-01  0.00000000000E+00 0.  1.
     999901    1    3    3    0    0 -0.21157183844E-01  0.10058709069E+00 -0.83670279295E-01  0.88992477484E+00  0.88000000000E+00 0.  1.
        -11    1    4    4    0    0  0.42354553719E-02 -0.64929474046E-01  0.51171437782E-01  0.82780147667E-01  0.51100000000E-03 0.  1.
         11    1    4    4    0    0 -0.80790895239E-02 -0.37310222589E-01  0.17252463501E-01  0.41895501131E-01  0.51100000000E-03 0. -1.
</event>
<event>
 7    1  0.1086486E+005  0.1043930E+01  0.7957747E-01            NaN
         13   -1    0    0    0    0  0.00000000000E+00  0.00000000000E+00  0.74505805969E-08  0.10566000000E+00  0.10566000000E+00 0. -1.
     999900   -1    0    0    0    0 -0.00000000000E+00 -0.00000000000E+00 -0.74505805969E-08  0.93827000000E+00  0.93827000000E+00 0. -1.
     999903    2    1    2    0    0  0.96342993688E-01  0.10740552317E-01 -0.44572979252E-01  0.10865346212E+00  0.20530281425E-01 0.  0.
         14    1    1    2    0    0 -0.70354110819E-02 -0.45478088587E-01  0.18766580903E-01  0.49698471902E-01  0.00000000000E+00 0. -1.
     999901    1    1    2    0    0 -0.89307582606E-01  0.34737536270E-01  0.25806398349E-01  0.88557806597E+00  0.88000000000E+00 0.  1.
        -11    1    3    3    0    0  0.88690512306E-01  0.53452613743E-02 -0.44271749546E-01  0.99271484935E-01  0.51100000000E-03 0. -1.
         11    1    3    3    0    0  0.76524813819E-02  0.53952909426E-02 -0.30122970628E-03  0.93819771898E-02  0.51100000000E-03 0.  1.
</event>
<event>
 8    1  0.1086486E+005  0.1043930E+01  0.7957747E-01            NaN
         13   -1    0    0    0    0  0.00000000000E+00  0.00000000000E+00  0.74505805969E-08  0.10566000000E+00  0.10566000000E+00 0.  1.
     999900   -1    0    0    0    0 -0.00000000000E+00 -0.00000000000E+00 -0.74505805969E-08  0.93827000000E+00  0.93827000000E+00 0.  1.
     999902    2    1    2    0    0 -0.45996672299E-02  0.22670044030E-01 -0.20480155789E-02  0.10207075496E+01  0.10204433446E+01 0.  0.
     999903    2    3    3    0    0 -0.34458591411E-01  0.44229020189E-01 -0.11808814664E+00  0.13232606801E+00  0.20537213772E-01 0.  0.
         14    1    1    2    0    0  0.45996672299E-02 -0.22670044030E-01  0.20480155789E-02  0.23222450404E-01  0.00000000000E+00 0. -1.
     999901    1    3    3    0    0  0.29858924181E-01 -0.21558976159E-01  0.11604013106E+00  0.88838148158E+00  0.88000000000E+00 0. -1.
        -11    1    4    4    0    0 -0.19920043511E-01  0.19407115295E-01 -0.37029704228E-01  0.46313112331E-01  0.51100000000E-03 0.  1.
         11    1    4    4    0    0 -0.14538547900E-01  0.24821904895E-01 -0.81058442412E-01  0.86012955681E-01  0.51100000000E-03 0. -1.
</event>
<event>
 8    1  0.1086486E+005  0.1043930E+01  0.7957747E-01            NaN
         13   -1    0    0    0    0  0.00000000000E+00  0.00000000000E+00  0.74505805969E-08  0.10566000000E+00  0.10566000000E+00 0.  1.
     999900   -1    0    0    0    0 -0.00000000000E+00 -0.00000000000E+00 -0.74505805969E-08  0.93827000000E+00  0.93827000000E+00 0. -1.
     999902    2    1    2    0    0 -0.23161982327E-01 -0.44603854084E-03  0.43062495866E-02  0.10203668898E+01  0.10200947847E+01 0.  0.
     999903    2    3    3    0    0  0.42055940492E-01 -0.83287979109E-01 -0.87397180152E-01  0.12934181520E+00  0.19632841543E-01 0.  0.
         14    1    1    2    0    0  0.23161982327E-01  0.44603854084E-03 -0.43062495866E-02  0.23563110177E-01  0.00000000000E+00 0.  1.
     999901    1    3    3    0    0 -0.65217922819E-01  0.82841940568E-01  0.91703429739E-01  0.89102507462E+00  0.88000000000E+00 0. -1.
        -11    1    4    4    0    0  0.24855830062E-01 -0.63079558464E-01 -0.53975815553E-01  0.86663099240E-01  0.51100000000E-03 0.  1.
         11    1    4    4    0    0  0.17200110430E-01 -0.20208420644E-01 -0.33421364599E-01  0.42678715965E-01  0.51100000000E-03 0. -1.
</event>
<event>
 8    1  0.1086486E+005  0.1043930E+01  0.7957747E-01            NaN
         13   -1    0    0    0    0  0.00000000000E+00  0.00000000000E+00  0.74505805969E-08  0.10566000000E+00  0.10566000000E+00 0. -1.
     999900   -1    0    0    0    0 -0.00000000000E+00 -0.00000000000E+00 -0.74505805969E-08  0.93827000000E+00  0.93827000000E+00 0.  1.
     999902    2    1    2    0    0 -0.19498222673E-01 -0.66564793571E-02 -0.10806458606E-01  0.10206648124E+01  0.10203996229E+01 0.  0.
     999903    2    3    3    0    0 -0.43764699022E-01 -0.12352474474E+00 -0.28010981285E-02  0.13257070755E+00  0.19835193648E-01 0.  0.
         14    1    1    2    0    0  0.19498222673E-01  0.66564793571E-02  0.10806458606E-01  0.23265187565E-01  0.00000000000E+00 0. -1.
     999901    1    3    3    0    0  0.24266476349E-01  0.11686826538E+00 -0.80053604772E-02  0.88809410488E+00  0.88000000000E+00 0. -1.
        -11    1    4    4    0    0 -0.78215274576E-02 -0.10418627720E-01 -0.47433239240E-02  0.13873872501E-01  0.51100000000E-03 0. -1.
         11    1    4    4    0    0 -0.35943171564E-01 -0.11310611702E+00  0.19422257954E-02  0.11869683505E+00  0.51100000000E-03 0.  1.
</event>
<event>
 8    1  0.1086486E+005  0.1043930E+01  0.7957747E-01            NaN
         13   -1    0    0    0    0  0.00000000000E+00  0.00000000000E+00  0.74505805969E-08  0.10566000000E+00  0.10566000000E+00 0.  1.
     999900   -1    0    0    0    0 -0.00000000000E+00 -0.00000000000E+00 -0.74505805969E-08  0.93827000000E+00  0.93827000000E+00 0.  1.
     999902    2    1    2    0    0 -0.28860337465E-02 -0.18481365515E-01  0.22004216970E-01  0.10150496325E+01  0.10146386947E+01 0.  0.
     999903    2    3    3    0    0 -0.26723841923E-01  0.70670301176E-01  0.10022842503E+00  0.12677304974E+00  0.17810495787E-01 0.  0.
         14    1    1    2    0    0  0.28860337465E-02  0.18481365515E-01 -0.22004216970E-01  0.28880367494E-01  0.00000000000E+00 0.  1.
     999901    1    3    3    0    0  0.23837808177E-01 -0.89151666691E-01 -0.78224208058E-01  0.88827658277E+00  0.88000000000E+00 0.  1.
        -11    1    4    4    0    0 -0.11609831820E-01  0.28127108329E-01  0.26685004862E-01  0.40475585522E-01  0.51100000000E-03 0.  1.
         11    1    4    4    0    0 -0.15114010103E-01  0.42543192847E-01  0.73543420166E-01  0.86297464214E-01  0.51100000000E-03 0. -1.
</event>
<event>
 8    1  0.1086486E+005  0.1043930E+01  0.7957747E-01            NaN
         13   -1    0    0    0    0  0.00000000000E+00  0.00000000000E+00  0.74505805969E-08  0.10566000000E+00  0.10566000000E+00 0. -1.
     999900   -1    0    0    0    0 -0.00000000000E+00 -0.00000000000E+00 -0.74505805969E-08  0.93827000000E+00  0.93827000000E+00 0. -1.
     999902    2    1    2    0    0 -0.48137956104E-02  0.21512993918E-01  0.97913494902E-02  0.10198083902E+01  0.10195230751E+01 0.  0.
     999903    2    3    3    0    0 -0.40764807558E-01 -0.72123082623E-01  0.98044654966E-01  0.12972477837E+00  0.18768462180E-01 0.  0.
         14    1    1    2    0    0  0.48137956104E-02 -0.21512993918E-01 -0.97913494902E-02  0.24121609821E-01  0.00000000000E+00 0. -1.
     999901    1    3    3    0    0  0.35951011948E-01  0.93636076541E-01 -0.88253305476E-01  0.89008361181E+00  0.88000000000E+00 0. -1.
        -11    1    4    4    0    0 -0.52566490194E-02 -0.15731337660E-01  0.31183171436E-01  0.35323627296E-01  0.51100000000E-03 0.  1.
         11    1    4    4    0    0 -0.35508158539E-01 -0.56391744962E-01  0.66861483530E-01  0.94401151071E-01  0.51100000000E-03 0. -1.
</event>
<event>
 8    1  0.1086486E+005  0.1043930E+01  0.7957747E-01            NaN
         13   -1    0    0    0    0  0.00000000000E+00  0.00000000000E+00  0.74505805969E-08  0.10566000000E+00  0.10566000000E+00 0. -1.
     999900   -1    0    0    0    0 -0.00000000000E+00 -0.00000000000E+00 -0.74505805969E-08  0.93827000000E+00  0.93827000000E+00 0. -1.
     999902    2    1    2    0    0  0.14704843286E-01 -0.17488339295E-01  0.12396803881E-01  0.10179347086E+01  0.10176027299E+01 0.  0.
     999903    2    3    3    0    0  0.50299582254E-01 -0.11897939705E+00 -0.94154224799E-02  0.13111838409E+00  0.20426344937E-01 0.  0.
         14    1    1    2    0    0 -0.14704843286E-01  0.17488339295E-01 -0.12396803881E-01  0.25995291378E-01  0.00000000000E+00 0. -1.
     999901    1    3    3    0    0 -0.35594738969E-01  0.10149105775E+00  0.21812226361E-01  0.88681632454E+00  0.88000000000E+00 0.  1.
        -11    1    4    4    0    0  0.41541098901E-01 -0.75375469248E-01 -0.99338762777E-02  0.86637562761E-01  0.51100000000E-03 0.  1.
         11    1    4    4    0    0  0.87584833537E-02 -0.43603927801E-01  0.51845379784E-03  0.44480821324E-01  0.51100000000E-03 0. -1.
</event>
<event>
 8    1  0.1086486E+005  0.1043930E+01  0.7957747E-01            NaN
         13   -1    0    0    0    0  0.00000000000E+00  0.00000000000E+00  0.74505805969E-08  0.10566000000E+00  0.10566000000E+00 0. -1.
     999900   -1    0    0    0    0 -0.00000000000E+00 -0.00000000000E+00 -0.74505805969E-08  0.93827000000E+00  0.93827000000E+00 0. -1.
     999902    2    1    2    0    0  0.56521130300E-02  0.15158223011E-01 -0.16074897711E-01  0.10211238508E+01  0.10208691386E+01 0.  0.
     999903    2    3    3    0    0  0.63512920703E-02 -0.58044837542E-01  0.11284133600E+00  0.12872339568E+00  0.20664060786E-01 0.  0.
         14    1    1    2    0    0 -0.56521130300E-02 -0.15158223011E-01  0.16074897711E-01  0.22806149236E-01  0.00000000000E+00 0. -1.
     999901    1    3    3    0    0 -0.69917904027E-03  0.73203060553E-01 -0.12891623371E+00  0.89240045509E+00  0.88000000000E+00 0. -1.
        -11    1    4    4    0    0  0.11693515715E-01 -0.19531141733E-01  0.47754741624E-01  0.52905389856E-01  0.51100000000E-03 0. -1.
         11    1    4    4    0    0 -0.53422236447E-02 -0.38513695809E-01  0.65086594376E-01  0.75818005822E-01  0.51100000000E-03 0.  1.
</event>
<event>
 8    1  0.1086486E+005  0.1043930E+01  0.7957747E-01            NaN
         13   -1    0    0    0    0  0.00000000000E+00  0.00000000000E+00  0.74505805969E-08  0.10566000000E+00  0.10566000000E+00 0. -1.
     999900   -1    0    0    0    0 -0.00000000000E+00 -0.00000000000E+00 -0.74505805969E-08  0.93827000000E+00  0.93827000000E+00 0.  1.
     999902    2    1    2    0    0  0.11192187290E-01 -0.20651185150E-01 -0.95177315218E-03  0.10204216530E+01  0.10201508259E+01 0.  0.
     999903    2    3    3    0    0 -0.39100665321E-01  0.12000065859E+00  0.36026707270E-02  0.12782260805E+00  0.19915315728E-01 0.  0.
         14    1    1    2    0    0 -0.11192187290E-01  0.20651185150E-01  0.95177315218E-03  0.23508346955E-01  0.00000000000E+00 0. -1.
     999901    1    3    3    0    0  0.50292852611E-01 -0.14065184374E+00 -0.45544438791E-02  0.89259904500E+00  0.88000000000E+00 0.  1.
        -11    1    4    4    0    0 -0.19537531479E-01  0.31403095332E-01  0.26727003259E-02  0.37084686607E-01  0.51100000000E-03 0.  1.
         11    1    4    4    0    0 -0.19563133843E-01  0.88597563259E-01  0.92997040104E-03  0.90737921439E-01  0.51100000000E-03 0. -1.
</event>
<event>
 8    1  0.1086486E+005  0.1043930E+01  0.7957747E-01            NaN
         13   -1    0    0    0    0  0.00000000000E+00  0.00000000000E+00  0.74505805969E-08  0.10566000000E+00  0.10566000000E+00 0. -1.
     999900   -1    0    0    0    0 -0.00000000000E+00 -0.00000000000E+00 -0.74505805969E-08  0.93827000000E+00  0.93827000000E+00 0. -1.
     999902    2    1    2    0    0  0.11068630483E-01 -0.15673939132E-01 -0.15601184608E-01  0.10191997774E+01  0.10188997018E+01 0.  0.
     999903    2    3    3    0    0  0.86176796096E-01 -0.26337597094E-01 -0.94923211880E-01  0.13238134381E+00  0.19856858499E-01 0.  0.
         14    1    1    2    0    0 -0.11068630483E-01  0.15673939132E-01  0.15601184608E-01  0.24730222600E-01  0.00000000000E+00 0. -1.
     999901    1    3    3    0    0 -0.75108165614E-01  0.10663657962E-01  0.79322027271E-01  0.88681843359E+00  0.88000000000E+00 0.  1.
        -11    1    4    4    0    0  0.37116837165E-01 -0.21583607972E-01 -0.42204367530E-01  0.60207819208E-01  0.51100000000E-03 0.  1.
         11    1    4    4    0    0  0.49059958932E-01 -0.47539891212E-02 -0.52718844350E-01  0.72173524602E-01  0.51100000000E-03 0. -1.
</event>
<event>
 8    1  0.1086486E+005  0.1043930E+01  0.7957747E-01            NaN
         13   -1    0    0    0    0  0.00000000000E+00  0.00000000000E+00  0.74505805969E-08  0.10566000000E+00  0.10566000000E+00 0. -1.
     999900   -1    0    0    0    0 -0.00000000000E+00 -0.00000000000E+00 -0.74505805969E-08  0.93827000000E+00  0.93827000000E+00 0. -1.
     999902    2    1    2    0    0  0.10605902216E-01 -0.18065580719E-01  0.78120407200E-02  0.10215720406E+01  0.10213273500E+01 0.  0.
     999903    2    3    3    0    0  0.63061026051E-01  0.21426976781E-02 -0.11366064974E+00  0.13145096509E+00  0.19476364255E-01 0.  0.
         14    1    1    2    0    0 -0.10605902216E-01  0.18065580719E-01 -0.78120407200E-02  0.22357959404E-01  0.00000000000E+00 0.  1.
     999901    1    3    3    0    0 -0.52455123835E-01 -0.20208278397E-01  0.12147269046E+00  0.89012107551E+00  0.88000000000E+00 0.  1.
        -11    1    4    4    0    0  0.29909179737E-01 -0.80252072309E-02 -0.46593103638E-01  0.55947666719E-01  0.51100000000E-03 0.  1.
         11    1    4    4    0    0  0.33151846314E-01  0.10167904909E-01 -0.67067546098E-01  0.75503298371E-01  0.51100000000E-03 0. -1.
</event>
<event>
 8    1  0.1086486E+005  0.1043930E+01  0.7957747E-01            NaN
         13   -1    0    0    0    0  0.00000000000E+00  0.00000000000E+00  0.74505805969E-08  0.10566000000E+00  0.10566000000E+00 0. -1.
     999900   -1    0    0    0    0 -0.00000000000E+00 -0.00000000000E+00 -0.74505805969E-08  0.93827000000E+00  0.93827000000E+00 0.  1.
     999902    2    1    2    0    0 -0.86277383200E-02  0.76608502395E-02  0.20268778201E-01  0.10206072672E+01  0.10203407490E+01 0.  0.
     999903    2    3    3    0    0  0.80956342156E-01 -0.76699229506E-01  0.65417897482E-01  0.13089924010E+00  0.20455038668E-01 0.  0.
         14    1    1    2    0    0  0.86277383200E-02 -0.76608502395E-02 -0.20268778201E-01  0.23322732787E-01  0.00000000000E+00 0.  1.
     999901    1    3    3    0    0 -0.89584080476E-01  0.84360079745E-01 -0.45149119281E-01  0.88970802711E+00  0.88000000000E+00 0.  1.
        -11    1    4    4    0    0  0.65804606966E-01 -0.67556113134E-01  0.47073656472E-01  0.10540524168E+00  0.51100000000E-03 0. -1.
         11    1    4    4    0    0  0.15151735190E-01 -0.91431163722E-02  0.18344241010E-01  0.25493998421E-01  0.51100000000E-03 0.  1.
</event>
<event>
 8    1  0.1086486E+005  0.1043930E+01  0.7957747E-01            NaN
         13   -1    0    0    0    0  0.00000000000E+00  0.00000000000E+00  0.74505805969E-08  0.10566000000E+00  0.10566000000E+00 0.  1.
     999900   -1    0    0    0    0 -0.00000000000E+00 -0.00000000000E+00 -0.74505805969E-08  0.93827000000E+00  0.93827000000E+00 0. -1.
     999902    2    1    2    0    0  0.19309998974E-01 -0.30937025008E-02 -0.12349468379E-01  0.10208008750E+01  0.10205388135E+01 0.  0.
     999903    2    3    3    0    0  0.11447249881E+00 -0.42576714010E-01  0.47812079174E-01  0.13275007609E+00  0.20490442352E-01 0.  0.
         14    1    1    2    0    0 -0.19309998974E-01  0.30937025008E-02  0.12349468379E-01  0.23129125033E-01  0.00000000000E+00 0.  1.
     999901    1    3    3    0    0 -0.95162499839E-01  0.39483011509E-01 -0.60161547552E-01  0.88805079887E+00  0.88000000000E+00 0. -1.
        -11    1    4    4    0    0  0.95097854209E-01 -0.42862495413E-01  0.37942838219E-01  0.11099871838E+00  0.51100000000E-03 0. -1.
         11    1    4    4    0    0  0.19374644604E-01  0.28578140292E-03  0.98692409544E-02  0.21751357718E-01  0.51100000000E-03 0.  1.
</event>
<event>
 8    1  0.1086486E+005  0.1043930E+01  0.7957747E-01            NaN
         13   -1    0    0    0    0  0.00000000000E+00  0.00000000000E+00  0.74505805969E-08  0.10566000000E+00  0.10566000000E+00 0. -1.
     999900   -1    0    0    0    0 -0.00000000000E+00 -0.00000000000E+00 -0.74505805969E-08  0.93827000000E+00  0.93827000000E+00 0. -1.
     999902    2    1    2    0    0 -0.24255898876E-01 -0.45491391655E-02 -0.48394390965E-02  0.10187811736E+01  0.10184707243E+01 0.  0.
     999903    2    3    3    0    0  0.11819713054E+00 -0.27602499674E-01 -0.29963808765E-01  0.12667380510E+00  0.20395180932E-01 0.  0.
         14    1    1    2    0    0  0.24255898876E-01  0.45491391655E-02  0.48394390965E-02  0.25148826378E-01  0.00000000000E+00 0.  1.
     999901    1    3    3    0    0 -0.14245302942E+00  0.23053360508E-01  0.25124369668E-01  0.89210736852E+00  0.88000000000E+00 0. -1.
        -11    1    4    4    0    0  0.51468203627E-01 -0.10445413854E-01 -0.23282968329E-01  0.57449459444E-01  0.51100000000E-03 0.  1.
         11    1    4    4    0    0  0.66728926917E-01 -0.17157085820E-01 -0.66808404355E-02  0.69224345655E-01  0.51100000000E-03 0. -1.
</event>
<event>
 8    1  0.1086486E+005  0.1043930E+01  0.7957747E-01            NaN
         13   -1    0    0    0    0  0.00000000000E+00  0.00000000000E+00  0.74505805969E-08  0.10566000000E+00  0.10566000000E+00 0.  1.
     999900   -1    0    0    0    0 -0.00000000000E+00 -0.00000000000E+00 -0.74505805969E-08  0.93827000000E+00  0.93827000000E+00 0. -1.
     999902    2    1    2    0    0 -0.16235759390E-01 -0.83196084199E-02 -0.14479605788E-01  0.10206389126E+01  0.10203731255E+01 0.  0.
     999903    2    3    3    0    0 -0.11077441798E+00 -0.39917285645E-01 -0.60306824374E-01  0.13382658460E+00  0.20205947351E-01 0.  0.
         14    1    1    2    0    0  0.16235759390E-01  0.83196084199E-02  0.14479605788E-01  0.23291087373E-01  0.00000000000E+00 0.  1.
     999901    1    3    3    0    0  0.94538658590E-01  0.31597677225E-01  0.45827218586E-01  0.88681232803E+00  0.88000000000E+00 0. -1.
        -11    1    4    4    0    0 -0.70361277614E-01 -0.15208730916E-01 -0.33560784997E-01  0.79426710206E-01  0.51100000000E-03 0. -1.
         11    1    4    4    0    0 -0.40413140366E-01 -0.24708554729E-01 -0.26746039377E-01  0.54399874397E-01  0.51100000000E-03 0.  1.
</event>
<event>
 8    1  0.1086486E+005  0.1043930E+01  0.7957747E-01            NaN
         13   -1    0    0    0    0  0.00000000000E+00  0.00000000000E+00  0.74505805969E-08  0.10566000000E+00  0.10566000000E+00 0.  1.
     999900   -1    0    0    0    0 -0.00000000000E+00 -0.00000000000E+00 -0.74505805969E-08  0.93827000000E+00  0.93827000000E+00 0.  1.
     999902    2    1    2    0    0  0.14524487650E-01 -0.14863180300E-02  0.18977298740E-01  0.10199861542E+01  0.10197050785E+01 0.  0.
     999903    2    3    3    0    0  0.77801637087E-01  0.89037032719E-01 -0.49734995719E-01  0.13042454642E+00  0.23586109939E-01 0.  0.
         14    1    1    2    0    0 -0.14524487650E-01  0.14863180300E-02 -0.18977298740E-01  0.23943845770E-01  0.00000000000E+00 0. -1.
     999901    1    3    3    0    0 -0.63277149437E-01 -0.90523350749E-01  0.68712294459E-01  0.88956160781E+00  0.88000000000E+00 0. -1.
        -11    1    4    4    0    0  0.53504143120E-01  0.75687390888E-01 -0.40997069166E-01  0.10135233234E+00  0.51100000000E-03 0. -1.
         11    1    4    4    0    0  0.24297493967E-01  0.13349641831E-01 -0.87379265526E-02  0.29072214080E-01  0.51100000000E-03 0.  1.
</event>
<event>
 8    1  0.1086486E+005  0.1043930E+01  0.7957747E-01            NaN
         13   -1    0    0    0    0  0.00000000000E+00  0.00000000000E+00  0.74505805969E-08  0.10566000000E+00  0.10566000000E+00 0. -1.
     999900   -1    0    0    0    0 -0.00000000000E+00 -0.00000000000E+00 -0.74505805969E-08  0.93827000000E+00  0.93827000000E+00 0.  1.
     999902    2    1    2    0    0  0.55581942819E-02 -0.22576410753E-01 -0.48680449588E-02  0.10201753014E+01  0.10198987007E+01 0.  0.
     999903    2    3    3    0    0  0.24576929746E-01  0.12134232013E+00  0.25286040154E-01  0.12777203923E+00  0.18929502134E-01 0.  0.
         14    1    1    2    0    0 -0.55581942819E-02  0.22576410753E-01  0.48680449588E-02  0.23754698649E-01  0.00000000000E+00 0. -1.
     999901    1    3    3    0    0 -0.19018735464E-01 -0.14391873089E+00 -0.30154085113E-01  0.89240326212E+00  0.88000000000E+00 0.  1.
        -11    1    4    4    0    0  0.18043815359E-02  0.69528277883E-02 -0.29262299800E-02  0.77731299923E-02  0.51100000000E-03 0.  1.
         11    1    4    4    0    0  0.22772548210E-01  0.11438949234E+00  0.28212270134E-01  0.11999890924E+00  0.51100000000E-03 0. -1.
</event>
<event>
 8    1  0.1086486E+005  0.1043930E+01  0.7957747E-01            NaN
         13   -1    0    0    0    0  0.00000000000E+00  0.00000000000E+00  0.74505805969E-08  0.10566000000E+00  0.10566000000E+00 0. -1.
     999900   -1    0    0    0    0 -0.00000000000E+00 -0.00000000000E+00 -0.74505805969E-08  0.93827000000E+00  0.93827000000E+00 0.  1.
     999902    2    1    2    0    0  0.22639919987E-01 -0.12222089544E-01 -0.18141402602E-01  0.10124489591E+01  0.10119594057E+01 0.  0.
     999903    2    3    3    0    0  0.10819048203E+00 -0.56464866790E-01  0.25164822219E-01  0.12613538526E+00  0.19580744485E-01 0.  0.
         14    1    1    2    0    0 -0.22639919987E-01  0.12222089544E-01  0.18141402602E-01  0.31481040932E-01  0.00000000000E+00 0. -1.
     999901    1    3    3    0    0 -0.85550562042E-01  0.44242777246E-01 -0.43306224821E-01  0.88631357381E+00  0.88000000000E+00 0. -1.
        -11    1    4    4    0    0  0.51106962193E-01 -0.20647834040E-01  0.19641926465E-01  0.58517698445E-01  0.51100000000E-03 0. -1.
         11    1    4    4    0    0  0.57083519836E-01 -0.35817032750E-01  0.55228957546E-02  0.67617686817E-01  0.51100000000E-03 0.  1.
</event>
<event>
 8    1  0.1086486E+005  0.1043930E+01  0.7957747E-01            NaN
         13   -1    0    0    0    0  0.00000000000E+00  0.00000000000E+00  0.74505805969E-08  0.10566000000E+00  0.10566000000E+00 0. -1.
     999900   -1    0    0    0    0 -0.00000000000E+00 -0.00000000000E+00 -0.74505805969E-08  0.93827000000E+00  0.93827000000E+00 0. -1.
     999902    2    1    2    0    0 -0.83281712811E-02  0.58463027028E-03 -0.21968315231E-01  0.10204287851E+01  0.10201581242E+01 0.  0.
     999903    2    3    3    0    0 -0.41791259884E-01 -0.15567794187E-01 -0.12443770540E+00  0.13370410680E+00  0.20079343418E-01 0.  0.
         14    1    1    2    0    0  0.83281712811E-02 -0.58463027028E-03  0.21968315231E-01  0.23501214937E-01  0.00000000000E+00 0. -1.
     999901    1    3    3    0    0  0.33463088603E-01  0.16152424457E-01  0.10246939017E+00  0.88672467826E+00  0.88000000000E+00 0.  1.
        -11    1    4    4    0    0 -0.98520509387E-02 -0.13313261319E-01 -0.49882996894E-01  0.52563108116E-01  0.51100000000E-03 0. -1.
         11    1    4    4    0    0 -0.31939208945E-01 -0.22545328683E-02 -0.74554708506E-01  0.81140998687E-01  0.51100000000E-03 0.  1.
</event>
<event>
 8    1  0.1086486E+005  0.1043930E+01  0.7957747E-01            NaN
         13   -1    0    0    0    0  0.00000000000E+00  0.00000000000E+00  0.74505805969E-08  0.10566000000E+00  0.10566000000E+00 0.  1.
     999900   -1    0    0    0    0 -0.00000000000E+00 -0.00000000000E+00 -0.74505805969E-08  0.93827000000E+00  0.93827000000E+00 0.  1.
     999902    2    1    2    0    0 -0.55381097503E-02 -0.94498252625E-03  0.22662815559E-01  0.10205811915E+01  0.10203140700E+01 0.  0.
     999903    2    3    3    0    0  0.32198651344E-01  0.70406456707E-01 -0.10033253991E+00  0.12836880167E+00  0.20447698711E-01 0.  0.
         14    1    1    2    0    0  0.55381097503E-02  0.94498252625E-03 -0.22662815559E-01  0.23348808549E-01  0.00000000000E+00 0. -1.
     999901    1    3    3    0    0 -0.37736761094E-01 -0.71351439234E-01  0.12299535547E+00  0.89221238978E+00  0.88000000000E+00 0. -1.
        -11    1    4    4    0    0  0.11248021581E-01  0.47754494316E-01 -0.65389083553E-01  0.81749636609E-01  0.51100000000E-03 0. -1.
         11    1    4    4    0    0  0.20950629763E-01  0.22651962391E-01 -0.34943456354E-01  0.46619165057E-01  0.51100000000E-03 0.  1.
</event>
<event>
 8    1  0.1086486E+005  0.1043930E+01  0.7957747E-01            NaN
         13   -1    0    0    0    0  0.00000000000E+00  0.00000000000E+00  0.74505805969E-08  0.10566000000E+00  0.10566000000E+00 0. -1.
     999900   -1    0    0    0    0 -0.00000000000E+00 -0.00000000000E+00 -0.74505805969E-08  0.93827000000E+00  0.93827000000E+00 0. -1.
     999902    2    1    2    0    0  0.41908446503E-02 -0.14297994571E-01  0.17963129104E-01  0.10205918374E+01  0.10203249623E+01 0.  0.
     999903    2    3    3    0    0  0.75852555455E-01 -0.80169371200E-01  0.72608007210E-01  0.13354025953E+00  0.19502306429E-01 0.  0.
         14    1    1    2    0    0 -0.41908446503E-02  0.14297994571E-01 -0.17963129104E-01  0.23338162628E-01  0.00000000000E+00 0.  1.
     999901    1    3    3    0    0 -0.71661710804E-01  0.65871376629E-01 -0.54644878106E-01  0.88705157785E+00  0.88000000000E+00 0. -1.
        -11    1    4    4    0    0  0.23952810548E-01 -0.39225504177E-01  0.29162281609E-01  0.54434153808E-01  0.51100000000E-03 0.  1.
         11    1    4    4    0    0  0.51899744907E-01 -0.40943867022E-01  0.43445725601E-01  0.79106105720E-01  0.51100000000E-03 0. -1.
</event>
<event>
 8    1  0.1086486E+005  0.1043930E+01  0.7957747E-01            NaN
         13   -1    0    0    0    0  0.00000000000E+00  0.00000000000E+00  0.74505805969E-08  0.10566000000E+00  0.10566000000E+00 0.  1.
     999900   -1    0    0    0    0 -0.00000000000E+00 -0.00000000000E+00 -0.74505805969E-08  0.93827000000E+00  0.93827000000E+00 0. -1.
     999902    2    1    2    0    0 -0.17647327673E-01  0.15938261292E-01  0.63713566889E-02  0.10193119064E+01  0.10190145789E+01 0.  0.
     999903    2    3    3    0    0 -0.11485078873E+00 -0.44571861647E-01  0.42394538141E-01  0.13116346304E+00  0.15139440212E-01 0.  0.
         14    1    1    2    0    0  0.17647327673E-01 -0.15938261292E-01 -0.63713566889E-02  0.24618093612E-01  0.00000000000E+00 0. -1.
     999901    1    3    3    0    0  0.97203461056E-01  0.60510122939E-01 -0.36023181452E-01  0.88814844335E+00  0.88000000000E+00 0. -1.
        -11    1    4    4    0    0 -0.30315767823E-01 -0.10093677007E-01  0.17941910224E-01  0.36648347271E-01  0.51100000000E-03 0. -1.
         11    1    4    4    0    0 -0.84535020907E-01 -0.34478184640E-01  0.24452627918E-01  0.94515115769E-01  0.51100000000E-03 0.  1.
</event>
<event>
 8    1  0.1086486E+005  0.1043930E+01  0.7957747E-01            NaN
         13   -1    0    0    0    0  0.00000000000E+00  0.00000000000E+00  0.74505805969E-08  0.10566000000E+00  0.10566000000E+00 0.  1.
     999900   -1    0    0    0    0 -0.00000000000E+00 -0.00000000000E+00 -0.74505805969E-08  0.93827000000E+00  0.93827000000E+00 0. -1.
     999902    2    1    2    0    0 -0.65475300821E-02  0.10335409886E-01  0.18787665095E-01  0.10215097590E+01  0.10212636880E+01 0.  0.
     999903    2    3    3    0    0  0.43454050149E-01  0.12125383343E+00  0.26558422535E-01  0.13310476160E+00  0.20512950936E-01 0.  0.
         14    1    1    2    0    0  0.65475300821E-02 -0.10335409886E-01 -0.18787665095E-01  0.22420241020E-01  0.00000000000E+00 0. -1.
     999901    1    3    3    0    0 -0.50001580231E-01 -0.11091842354E+00 -0.77707574404E-02  0.88840499738E+00  0.88000000000E+00 0.  1.
        -11    1    4    4    0    0  0.12703057266E-01  0.53986563150E-01  0.19553424667E-01  0.58809133660E-01  0.51100000000E-03 0.  1.
         11    1    4    4    0    0  0.30750992883E-01  0.67267270280E-01  0.70049978681E-02  0.74295627935E-01  0.51100000000E-03 0. -1.
</event>
<event>
 8    1  0.1086486E+005  0.1043930E+01  0.7957747E-01            NaN
         13   -1    0    0    0    0  0.00000000000E+00  0.00000000000E+00  0.74505805969E-08  0.10566000000E+00  0.10566000000E+00 0. -1.
     999900   -1    0    0    0    0 -0.00000000000E+00 -0.00000000000E+00 -0.74505805969E-08  0.93827000000E+00  0.93827000000E+00 0. -1.
     999902    2    1    2    0    0 -0.20618727641E-01  0.59010635340E-02  0.52702725851E-02  0.10218453842E+01  0.10216067047E+01 0.  0.
     999903    2    3    3    0    0 -0.11117884178E+00 -0.59843197686E-01  0.40223566078E-01  0.13406997633E+00  0.20368606112E-01 0.  0.
         14    1    1    2    0    0  0.20618727641E-01 -0.59010635340E-02 -0.52702725851E-02  0.22084615765E-01  0.00000000000E+00 0. -1.
     999901    1    3    3    0    0  0.90560114143E-01  0.65744261220E-01 -0.34953293493E-01  0.88777540791E+00  0.88000000000E+00 0. -1.
        -11    1    4    4    0    0 -0.38122864494E-01 -0.10533381748E-01  0.15931134161E-01  0.42642315661E-01  0.51100000000E-03 0.  1.
         11    1    4    4    0    0 -0.73055977290E-01 -0.49309815938E-01  0.24292431917E-01  0.91427660667E-01  0.51100000000E-03 0. -1.
</event>
<event>
 8    1  0.1086486E+005  0.1043930E+01  0.7957747E-01            NaN
         13   -1    0    0    0    0  0.00000000000E+00  0.00000000000E+00  0.74505805969E-08  0.10566000000E+00  0.10566000000E+00 0. -1.
     999900   -1    0    0    0    0 -0.00000000000E+00 -0.00000000000E+00 -0.74505805969E-08  0.93827000000E+00  0.93827000000E+00 0. -1.
     999902    2    1    2    0    0  0.14822503273E-01  0.72094824546E-02 -0.16825845966E-01  0.10203759699E+01  0.10201040769E+01 0.  0.
     999903    2    3    3    0    0  0.90328609111E-01 -0.60888992958E-01 -0.72555592905E-01  0.13276998804E+00  0.22289651756E-01 0.  0.
         14    1    1    2    0    0 -0.14822503273E-01 -0.72094824546E-02  0.16825845966E-01  0.23554030080E-01  0.00000000000E+00 0. -1.
     999901    1    3    3    0    0 -0.75506105838E-01  0.68098475413E-01  0.55729746939E-01  0.88760598188E+00  0.88000000000E+00 0.  1.
        -11    1    4    4    0    0  0.41683563237E-01 -0.16927597798E-01 -0.36541452515E-01  0.57962072809E-01  0.51100000000E-03 0. -1.
         11    1    4    4    0    0  0.48645045874E-01 -0.43961395160E-01 -0.36014140390E-01  0.74807915233E-01  0.51100000000E-03 0.  1.
</event>
<event>
 8    1  0.1086486E+005  0.1043930E+01  0.7957747E-01            NaN
         13   -1    0    0    0    0  0.00000000000E+00  0.00000000000E+00  0.74505805969E-08  0.10566000000E+00  0.10566000000E+00 0.  1.
     999900   -1    0    0    0    0 -0.00000000000E+00 -0.00000000000E+00 -0.74505805969E-08  0.93827000000E+00  0.93827000000E+00 0. -1.
     999902    2    1    2    0    0  0.27525202856E-02  0.75795256678E-02 -0.22111677482E-01  0.10203938181E+01  0.10201223418E+01 0.  0.
     999903    2    3    3    0    0 -0.12307793315E+00 -0.36317900417E-01  0.29962415648E-02  0.13000587196E+00  0.20624785124E-01 0.  0.
         14    1    1    2    0    0 -0.27525202856E-02 -0.75795256678E-02  0.22111677482E-01  0.23536181898E-01  0.00000000000E+00 0.  1.
     999901    1    3    3    0    0  0.12583045344E+00  0.43897426085E-01 -0.25107919047E-01  0.89038794614E+00  0.88000000000E+00 0.  1.
        -11    1    4    4    0    0 -0.10648709435E+00 -0.32697217704E-01 -0.43879331221E-02  0.11148149796E+00  0.51100000000E-03 0. -1.
         11    1    4    4    0    0 -0.16590838802E-01 -0.36206827128E-02  0.73841746869E-02  0.18524374005E-01  0.51100000000E-03 0.  1.
</event>
<event>
 8    1  0.1086486E+005  0.1043930E+01  0.7957747E-01            NaN
         13   -1    0    0    0    0  0.00000000000E+00  0.00000000000E+00  0.74505805969E-08  0.10566000000E+00  0.10566000000E+00 0. -1.
     999900   -1    0    0    0    0 -0.00000000000E+00 -0.00000000000E+00 -0.74505805969E-08  0.93827000000E+00  0.93827000000E+00 0. -1.
     999902    2    1    2    0    0 -0.16626758461E-01  0.56266815694E-02  0.15631279058E-01  0.10204258402E+01  0.10201551107E+01 0.  0.
     999903    2    3    3    0    0 -0.38529613764E-01 -0.88059531487E-01 -0.84529294705E-01  0.12953360087E+00  0.19868061493E-01 0.  0.
         14    1    1    2    0    0  0.16626758461E-01 -0.56266815694E-02 -0.15631279058E-01  0.23504159789E-01  0.00000000000E+00 0. -1.
     999901    1    3    3    0    0  0.21902855304E-01  0.93686213057E-01  0.10016057376E+00  0.89089223934E+00  0.88000000000E+00 0.  1.
        -11    1    4    4    0    0 -0.26233972413E-01 -0.35694699210E-01 -0.40416488545E-01  0.59967378862E-01  0.51100000000E-03 0. -1.
         11    1    4    4    0    0 -0.12295641351E-01 -0.52364832278E-01 -0.44112806160E-01  0.69566222005E-01  0.51100000000E-03 0.  1.
</event>
<event>
 8    1  0.1086486E+005  0.1043930E+01  0.7957747E-01            NaN
         13   -1    0    0    0    0  0.00000000000E+00  0.00000000000E+00  0.74505805969E-08  0.10566000000E+00  0.10566000000E+00 0.  1.
     999900   -1    0    0    0    0 -0.00000000000E+00 -0.00000000000E+00 -0.74505805969E-08  0.93827000000E+00  0.93827000000E+00 0. -1.
     999902    2    1    2    0    0 -0.23027015205E-01 -0.20351015164E-02  0.25511433187E-02  0.10206728850E+01  0.10204078815E+01 0.  0.
     999903    2    3    3    0    0  0.12199466110E+00  0.33569990206E-01 -0.22408306172E-02  0.12808004824E+00  0.19744261360E-01 0.  0.
         14    1    1    2    0    0  0.23027015205E-01  0.20351015164E-02 -0.25511433187E-02  0.23257115034E-01  0.00000000000E+00 0.  1.
     999901    1    3    3    0    0 -0.14502167631E+00 -0.35605091723E-01  0.47919739358E-02  0.89259283672E+00  0.88000000000E+00 0.  1.
        -11    1    4    4    0    0  0.84408254491E-01  0.32454547819E-01 -0.55163777408E-03  0.90435703821E-01  0.51100000000E-03 0.  1.
         11    1    4    4    0    0  0.37586406609E-01  0.11154423877E-02 -0.16891928431E-02  0.37644344422E-01  0.51100000000E-03 0. -1.
</event>
<event>
 8    1  0.1086486E+005  0.1043930E+01  0.7957747E-01            NaN
         13   -1    0    0    0    0  0.00000000000E+00  0.00000000000E+00  0.74505805969E-08  0.10566000000E+00  0.10566000000E+00 0. -1.
     999900   -1    0    0    0    0 -0.00000000000E+00 -0.00000000000E+00 -0.74505805969E-08  0.93827000000E+00  0.93827000000E+00 0. -1.
     999902    2    1    2    0    0 -0.88356661264E-02 -0.90952903218E-02 -0.19946498301E-01  0.10202940931E+01  0.10200202842E+01 0.  0.
     999903    2    3    3    0    0  0.65821763806E-01 -0.55993731324E-01  0.92874816110E-01  0.12872141258E+00  0.21809815474E-01 0.  0.
         14    1    1    2    0    0  0.88356661264E-02  0.90952903218E-02  0.19946498301E-01  0.23635906930E-01  0.00000000000E+00 0.  1.
     999901    1    3    3    0    0 -0.74657429932E-01  0.46898441002E-01 -0.11282131441E+00  0.89157268049E+00  0.88000000000E+00 0. -1.
        -11    1    4    4    0    0  0.12564739681E-01 -0.20759360339E-01  0.34635898541E-01  0.42293383805E-01  0.51100000000E-03 0. -1.
         11    1    4    4    0    0  0.53257024124E-01 -0.35234370985E-01  0.58238917569E-01  0.86428028775E-01  0.51100000000E-03 0.  1.
</event>
<event>
 8    1  0.1086486E+005  0.1043930E+01  0.7957747E-01            NaN
         13   -1    0    0    0    0  0.00000000000E+00  0.00000000000E+00  0.74505805969E-08  0.10566000000E+00  0.10566000000E+00 0.  1.
     999900   -1    0    0    0    0 -0.00000000000E+00 -0.00000000000E+00 -0.74505805969E-08  0.93827000000E+00  0.93827000000E+00 0. -1.
     999902    2    1    2    0    0  0.38904470616E-02  0.23402310400E-01  0.80362451180E-02  0.10188823465E+01  0.10185744210E+01 0.  0.
     999903    2    3    3    0    0 -0.12075611106E+00  0.19269827817E-01 -0.35506713490E-01  0.12902290192E+00  0.20804275868E-01 0.  0.
         14    1    1    2    0    0 -0.38904470616E-02 -0.23402310400E-01 -0.80362451180E-02  0.25047653502E-01  0.00000000000E+00 0.  1.
     999901    1    3    3    0    0  0.12464655812E+00  0.41324825828E-02  0.43542958609E-01  0.88985944458E+00  0.88000000000E+00 0.  1.
        -11    1    4    4    0    0 -0.12664170196E-01 -0.43217957881E-02 -0.44010488867E-02  0.14095725518E-01  0.51100000000E-03 0.  1.
         11    1    4    4    0    0 -0.10809194086E+00  0.23591623605E-01 -0.31105664604E-01  0.11492717640E+00  0.51100000000E-03 0. -1.
</event>
<event>
 8    1  0.1086486E+005  0.1043930E+01  0.7957747E-01            NaN
         13   -1    0    0    0    0  0.00000000000E+00  0.00000000000E+00  0.74505805969E-08  0.10566000000E+00  0.10566000000E+00 0. -1.
     999900   -1    0    0    0    0 -0.00000000000E+00 -0.00000000000E+00 -0.74505805969E-08  0.93827000000E+00  0.93827000000E+00 0. -1.
     999902    2    1    2    0    0 -0.14289950426E-01  0.15597186596E-01 -0.10650214845E-01  0.10202466305E+01  0.10199717080E+01 0.  0.
     999903    2    3    3    0    0  0.16806830667E-01  0.98723493323E-01  0.81877284674E-01  0.13095571591E+00  0.20413527223E-01 0.  0.
         14    1    1    2    0    0  0.14289950426E-01 -0.15597186596E-01  0.10650214845E-01  0.23683369464E-01  0.00000000000E+00 0. -1.
     999901    1    3    3    0    0 -0.31096781093E-01 -0.83126306727E-01 -0.92527499519E-01  0.88929091462E+00  0.88000000000E+00 0. -1.
        -11    1    4    4    0    0  0.11956807104E-01  0.26923426562E-01  0.31358952934E-01  0.43028841305E-01  0.51100000000E-03 0. -1.
         11    1    4    4    0    0  0.48500235631E-02  0.71800066762E-01  0.50518331740E-01  0.87926874608E-01  0.51100000000E-03 0.  1.
</event>
<event>
 8    1  0.1086486E+005  0.1043930E+01  0.7957747E-01            NaN
         13   -1    0    0    0    0  0.00000000000E+00  0.00000000000E+00  0.74505805969E-08  0.10566000000E+00  0.10566000000E+00 0.  1.
     999900   -1    0    0    0    0 -0.00000000000E+00 -0.00000000000E+00 -0.74505805969E-08  0.93827000000E+00  0.93827000000E+00 0.  1.
     999902    2    1    2    0    0 -0.10497846695E-01  0.10734003181E-01 -0.17612190232E-01  0.10207866888E+01  0.10205243021E+01 0.  0.
     999903    2    3    3    0    0 -0.69877954597E-01 -0.10693723164E+00 -0.22693259820E-01  0.13095618021E+00  0.17777430725E-01 0.  0.
         14    1    1    2    0    0  0.10497846695E-01 -0.10734003181E-01  0.17612190232E-01  0.23143311221E-01  0.00000000000E+00 0.  1.
     999901    1    3    3    0    0  0.59380107902E-01  0.11767123482E+00  0.50810695880E-02  0.88983050857E+00  0.88000000000E+00 0. -1.
        -11    1    4    4    0    0 -0.47953099480E-01 -0.82562173026E-01 -0.22814940356E-01  0.98167177757E-01  0.51100000000E-03 0.  1.
         11    1    4    4    0    0 -0.21924855117E-01 -0.24375058616E-01  0.12168053609E-03  0.32789002449E-01  0.51100000000E-03 0. -1.
</event>
<event>
 8    1  0.1086486E+005  0.1043930E+01  0.7957747E-01            NaN
         13   -1    0    0    0    0  0.00000000000E+00  0.00000000000E+00  0.74505805969E-08  0.10566000000E+00  0.10566000000E+00 0. -1.
     999900   -1    0    0    0    0 -0.00000000000E+00 -0.00000000000E+00 -0.74505805969E-08  0.93827000000E+00  0.93827000000E+00 0. -1.
     999902    2    1    2    0    0  0.18002357218E-01  0.31471281253E-02  0.16363513014E-01  0.10193993286E+01  0.10191041347E+01 0.  0.
     999903    2    3    3    0    0  0.56069627456E-01  0.11642456523E+00  0.12902869899E-01  0.13131550887E+00  0.19462690157E-01 0.  0.
         14    1    1    2    0    0 -0.18002357218E-01 -0.31471281253E-02 -0.16363513014E-01  0.24530671394E-01  0.00000000000E+00 0.  1.
     999901    1    3    3    0    0 -0.38067270238E-01 -0.11327743710E+00  0.34606431154E-02  0.88808381973E+00  0.88000000000E+00 0. -1.
        -11    1    4    4    0    0  0.45643225785E-01  0.84039908562E-01  0.22546381755E-02  0.95662713768E-01  0.51100000000E-03 0. -1.
         11    1    4    4    0    0  0.10426401671E-01  0.32384656664E-01  0.10648231723E-01  0.35652795107E-01  0.51100000000E-03 0.  1.
</event>
<event>
 8    1  0.1086486E+005  0.1043930E+01  0.7957747E-01            NaN
         13   -1    0    0    0    0  0.00000000000E+00  0.00000000000E+00  0.74505805969E-08  0.10566000000E+00  0.10566000000E+00 0. -1.
     999900   -1    0    0    0    0 -0.00000000000E+00 -0.00000000000E+00 -0.74505805969E-08  0.93827000000E+00  0.93827000000E+00 0.  1.
     999902    2    1    2    0    0  0.23688892778E-01  0.92340560443E-02  0.78383987848E-02  0.10173241373E+01  0.10169761691E+01 0.  0.
     999903    2    3    3    0    0 -0.34852901688E-01  0.54459476122E-01 -0.10720325988E+00  0.12675855102E+00  0.19865347498E-01 0.  0.
         14    1    1    2    0    0 -0.23688892778E-01 -0.92340560443E-02 -0.78383987848E-02  0.26605862655E-01  0.00000000000E+00 0. -1.
     999901    1    3    3    0    0  0.58541794467E-01 -0.45225420078E-01  0.11504165867E+00  0.89056558633E+00  0.88000000000E+00 0. -1.
        -11    1    4    4    0    0 -0.86235764559E-02  0.28240724366E-01 -0.58587674582E-01  0.65610070245E-01  0.51100000000E-03 0.  1.
         11    1    4    4    0    0 -0.26229325232E-01  0.26218751757E-01 -0.48615585301E-01  0.61148480774E-01  0.51100000000E-03 0. -1.
</event>
<event>
 8    1  0.1086486E+005  0.1043930E+01  0.7957747E-01            NaN
         13   -1    0    0    0    0  0.00000000000E+00  0.00000000000E+00  0.74505805969E-08  0.10566000000E+00  0.10566000000E+00 0. -1.
     999900   -1    0    0    0    0 -0.00000000000E+00 -0.00000000000E+00 -0.74505805969E-08  0.93827000000E+00  0.93827000000E+00 0. -1.
     999902    2    1    2    0    0  0.18681856380E-01  0.39060006948E-02  0.13897678026E-01  0.10203203822E+01  0.10200471892E+01 0.  0.
     999903    2    3    3    0    0 -0.78470282434E-01 -0.98305845543E-01  0.20992951382E-01  0.12906500772E+00  0.19885867285E-01 0.  0.
         14    1    1    2    0    0 -0.18681856380E-01 -0.39060006948E-02 -0.13897678026E-01  0.23609617823E-01  0.00000000000E+00 0.  1.
     999901    1    3    3    0    0  0.97152138814E-01  0.10221184624E+00 -0.70952733552E-02  0.89125537445E+00  0.88000000000E+00 0.  1.
        -11    1    4    4    0    0 -0.73061216073E-01 -0.80423779055E-01  0.18069580669E-01  0.11014851973E+00  0.51100000000E-03 0. -1.
         11    1    4    4    0    0 -0.54090663612E-02 -0.17882066488E-01  0.29233707128E-02  0.18916487996E-01  0.51100000000E-03 0.  1.
</event>
<event>
 8    1  0.1086486E+005  0.1043930E+01  0.7957747E-01            NaN
         13   -1    0    0    0    0  0.00000000000E+00  0.00000000000E+00  0.74505805969E-08  0.10566000000E+00  0.10566000000E+00 0.  1.
     999900   -1    0    0    0    0 -0.00000000000E+00 -0.00000000000E+00 -0.74505805969E-08  0.93827000000E+00  0.93827000000E+00 0. -1.
     999902    2    1    2    0    0  0.16282959458E-01  0.11701045841E-01  0.95451656074E-02  0.10217228068E+01  0.10214814411E+01 0.  0.
     999903    2    3    3    0    0 -0.11014863952E+00  0.41199792896E-01  0.54511269210E-01  0.13106177378E+00  0.19379482817E-01 0.  0.
         14    1    1    2    0    0 -0.16282959458E-01 -0.11701045841E-01 -0.95451656074E-02  0.22207193180E-01  0.00000000000E+00 0.  1.
     999901    1    3    3    0    0  0.12643159897E+00 -0.29498747055E-01 -0.44966103603E-01  0.89066103304E+00  0.88000000000E+00 0. -1.
        -11    1    4    4    0    0 -0.23953295803E-01  0.16425444932E-01  0.18354098209E-01  0.34361165043E-01  0.51100000000E-03 0.  1.
         11    1    4    4    0    0 -0.86195343713E-01  0.24774347964E-01  0.36157171001E-01  0.96700608740E-01  0.51100000000E-03 0. -1.
</event>
<event>
 8    1  0.1086486E+005  0.1043930E+01  0.7957747E-01            NaN
         13   -1    0    0    0    0  0.00000000000E+00  0.00000000000E+00  0.74505805969E-08  0.10566000000E+00  0.10566000000E+00 0.  1.
     999900   -1    0    0    0    0 -0.00000000000E+00 -0.00000000000E+00 -0.74505805969E-08  0.93827000000E+00  0.93827000000E+00 0.  1.
     999902    2    1    2    0    0 -0.14063434896E-01 -0.19966384073E-01 -0.15902142530E-02  0.10194562288E+01  0.10191624194E+01 0.  0.
     999903    2    3    3    0    0 -0.54018410935E-01 -0.19163603036E-01 -0.11674154753E+00  0.13105492642E+00  0.16173200625E-01 0.  0.
         14    1    1    2    0    0  0.14063434896E-01  0.19966384073E-01  0.15902142530E-02  0.24473771173E-01  0.00000000000E+00 0. -1.
     999901    1    3    3    0    0  0.39954976039E-01 -0.80278103757E-03  0.11515133327E+00  0.88840130241E+00  0.88000000000E+00 0. -1.
        -11    1    4    4    0    0 -0.20583951640E-02 -0.51308208029E-02 -0.82262364273E-02  0.99244344686E-02  0.51100000000E-03 0.  1.
         11    1    4    4    0    0 -0.51960015771E-01 -0.14032782233E-01 -0.10851531110E+00  0.12113049195E+00  0.51100000000E-03 0. -1.
</event>
<event>
 8    1  0.1104500E+005  0.1043930E+01  0.7957747E-01            NaN
         13   -1    0    0    0    0  0.00000000000E+00  0.00000000000E+00  0.74505805969E-08  0.10566000000E+00  0.10566000000E+00 0.  1.
     999900   -1    0    0    0    0 -0.00000000000E+00 -0.00000000000E+00 -0.74505805969E-08  0.93827000000E+00  0.93827000000E+00 0.  1.
     999902    2    1    2    0    0  0.11361464931E-01 -0.85971273967E-02 -0.23159936048E-01  0.10167385285E+01  0.10163748616E+01 0.  0.
     999903    2    3    3    0    0  0.49415617253E-01  0.20748671159E-01  0.11143993410E+00  0.12520814794E+00  0.19642067525E-01 0.  0.
         14    1    1    2    0    0 -0.11361464931E-01  0.85971273967E-02  0.23159936048E-01  0.27191471505E-01  0.00000000000E+00 0.  1.
     999901    1    3    3    0    0 -0.38054152322E-01 -0.29345798556E-01 -0.13459987015E+00  0.89153038055E+00  0.88000000000E+00 0.  1.
        -11    1    4    4    0    0  0.16327215390E-01  0.10046030770E-01  0.60970579361E-01  0.63915360949E-01  0.51100000000E-03 0.  1.
         11    1    4    4    0    0  0.33088401863E-01  0.10702640390E-01  0.50469354736E-01  0.61292786995E-01  0.51100000000E-03 0. -1.
</event>
<event>
 8    1  0.1086486E+005  0.1043930E+01  0.7957747E-01            NaN
         13   -1    0    0    0    0  0.00000000000E+00  0.00000000000E+00  0.74505805969E-08  0.10566000000E+00  0.10566000000E+00 0. -1.
     999900   -1    0    0    0    0 -0.00000000000E+00 -0.00000000000E+00 -0.74505805969E-08  0.93827000000E+00  0.93827000000E+00 0.  1.
     999902    2    1    2    0    0 -0.16404354975E-01  0.24319450844E-02 -0.11365751754E-01  0.10238253356E+01  0.10236279208E+01 0.  0.
     999903    2    3    3    0    0  0.10935952751E-01  0.87941067178E-01  0.96710376083E-01  0.13268014437E+00  0.19947368461E-01 0.  0.
         14    1    1    2    0    0  0.16404354975E-01 -0.24319450844E-02  0.11365751754E-01  0.20104664433E-01  0.00000000000E+00 0. -1.
     999901    1    3    3    0    0 -0.27340307727E-01 -0.85509122094E-01 -0.10807612784E+00  0.89114519120E+00  0.88000000000E+00 0.  1.
        -11    1    4    4    0    0  0.74419851428E-02  0.33256707596E-01  0.50891759762E-01  0.61250502656E-01  0.51100000000E-03 0. -1.
         11    1    4    4    0    0  0.34939676085E-02  0.54684359582E-01  0.45818616321E-01  0.71429641712E-01  0.51100000000E-03 0.  1.
</event>
<event>
 8    1  0.1086486E+005  0.1043930E+01  0.7957747E-01            NaN
         13   -1    0    0    0    0  0.00000000000E+00  0.00000000000E+00  0.74505805969E-08  0.10566000000E+00  0.10566000000E+00 0.  1.
     999900   -1    0    0    0    0 -0.00000000000E+00 -0.00000000000E+00 -0.74505805969E-08  0.93827000000E+00  0.93827000000E+00 0. -1.
     999902    2    1    2    0    0 -0.20348719937E-02 -0.20049575807E-01  0.15008302787E-01  0.10188028166E+01  0.10184929080E+01 0.  0.
     999903    2    3    3    0    0  0.61320321063E-01 -0.11441972547E+00  0.49504204230E-02  0.13143549318E+00  0.19968146001E-01 0.  0.
         14    1    1    2    0    0  0.20348719937E-02  0.20049575807E-01 -0.15008302787E-01  0.25127183420E-01  0.00000000000E+00 0. -1.
     999901    1    3    3    0    0 -0.63355193057E-01  0.94370149661E-01  0.10057882363E-01  0.88736732340E+00  0.88000000000E+00 0.  1.
        -11    1    4    4    0    0  0.46874745690E-01 -0.67138639826E-01  0.20829144789E-02  0.81911161602E-01  0.51100000000E-03 0.  1.
         11    1    4    4    0    0  0.14445575373E-01 -0.47281085642E-01  0.28675059441E-02  0.49524331582E-01  0.51100000000E-03 0. -1.
</event>
<event>
 8    1  0.1086486E+005  0.1043930E+01  0.7957747E-01            NaN
         13   -1    0    0    0    0  0.00000000000E+00  0.00000000000E+00  0.74505805969E-08  0.10566000000E+00  0.10566000000E+00 0.  1.
     999900   -1    0    0    0    0 -0.00000000000E+00 -0.00000000000E+00 -0.74505805969E-08  0.93827000000E+00  0.93827000000E+00 0. -1.
     999902    2    1    2    0    0  0.81439972598E-02 -0.21467546226E-01  0.84261476740E-02  0.10194722774E+01  0.10191788578E+01 0.  0.
     999903    2    3    3    0    0  0.62023704622E-01  0.10811432454E+00  0.22752075192E-01  0.12823733847E+00  0.19786635509E-01 0.  0.
         14    1    1    2    0    0 -0.81439972598E-02  0.21467546226E-01 -0.84261476740E-02  0.24457722645E-01  0.00000000000E+00 0. -1.
     999901    1    3    3    0    0 -0.53879707362E-01 -0.12958187077E+00 -0.14325927518E-01  0.89123493889E+00  0.88000000000E+00 0.  1.
        -11    1    4    4    0    0  0.51068018183E-01  0.86120154928E-01  0.10205866816E-01  0.10064315379E+00  0.51100000000E-03 0. -1.
         11    1    4    4    0    0  0.10955686439E-01  0.21994169616E-01  0.12546208376E-01  0.27594184678E-01  0.51100000000E-03 0.  1.
</event>
<event>
 8    1  0.1086486E+005  0.1043930E+01  0.7957747E-01            NaN
         13   -1    0    0    0    0  0.00000000000E+00  0.00000000000E+00  0.74505805969E-08  0.10566000000E+00  0.10566000000E+00 0. -1.
     999900   -1    0    0    0    0 -0.00000000000E+00 -0.00000000000E+00 -0.74505805969E-08  0.93827000000E+00  0.93827000000E+00 0.  1.
     999902    2    1    2    0    0  0.12133333055E-01 -0.20434174284E-01  0.15068054203E-04  0.10201650368E+01  0.10198881943E+01 0.  0.
     999903    2    3    3    0    0 -0.88754863144E-01  0.65505859396E-01 -0.62103266106E-01  0.12807602499E+00  0.19447600609E-01 0.  0.
         14    1    1    2    0    0 -0.12133333055E-01  0.20434174284E-01 -0.15068054203E-04  0.23764963217E-01  0.00000000000E+00 0. -1.
     999901    1    3    3    0    0  0.10088819620E+00 -0.85940033680E-01  0.62118334160E-01  0.89208901179E+00  0.88000000000E+00 0. -1.
        -11    1    4    4    0    0 -0.25409919761E-01  0.10241798249E-01 -0.20865122688E-01  0.34440861189E-01  0.51100000000E-03 0.  1.
         11    1    4    4    0    0 -0.63344943384E-01  0.55264061147E-01 -0.41238143418E-01  0.93635163802E-01  0.51100000000E-03 0. -1.
</event>
<event>
 8    1  0.1086486E+005  0.1043930E+01  0.7957747E-01            NaN
         13   -1    0    0    0    0  0.00000000000E+00  0.00000000000E+00  0.74505805969E-08  0.10566000000E+00  0.10566000000E+00 0. -1.
     999900   -1    0    0    0    0 -0.00000000000E+00 -0.00000000000E+00 -0.74505805969E-08  0.93827000000E+00  0.93827000000E+00 0. -1.
     999902    2    1    2    0    0 -0.18941308295E-02  0.22280874762E-01  0.84934905928E-02  0.10200100398E+01  0.10197295312E+01 0.  0.
     999903    2    3    3    0    0  0.10198069335E-01 -0.80285513500E-01 -0.96908327287E-01  0.12772329864E+00  0.19293854499E-01 0.  0.
         14    1    1    2    0    0  0.18941308295E-02 -0.22280874762E-01 -0.84934905928E-02  0.23919960163E-01  0.00000000000E+00 0. -1.
     999901    1    3    3    0    0 -0.12092200164E-01  0.10256638826E+00  0.10540181788E+00  0.89228674120E+00  0.88000000000E+00 0.  1.
        -11    1    4    4    0    0  0.14315579225E-01 -0.36433542901E-01 -0.45115996594E-01  0.59733182793E-01  0.51100000000E-03 0.  1.
         11    1    4    4    0    0 -0.41175098904E-02 -0.43851970599E-01 -0.51792330693E-01  0.67990115846E-01  0.51100000000E-03 0. -1.
</event>
<event>
 8    1  0.1086486E+005  0.1043930E+01  0.7957747E-01            NaN
         13   -1    0    0    0    0  0.00000000000E+00  0.00000000000E+00  0.74505805969E-08  0.10566000000E+00  0.10566000000E+00 0. -1.
     999900   -1    0    0    0    0 -0.00000000000E+00 -0.00000000000E+00 -0.74505805969E-08  0.93827000000E+00  0.93827000000E+00 0.  1.
     999902    2    1    2    0    0  0.51568784016E-03  0.10524922966E-01  0.21597147312E-01  0.10198992549E+01  0.10196161108E+01 0.  0.
     999903    2    3    3    0    0  0.10981635749E+00 -0.63128951161E-01  0.21886230134E-01  0.13008376105E+00  0.19946953953E-01 0.  0.
         14    1    1    2    0    0 -0.51568784016E-03 -0.10524922966E-01 -0.21597147312E-01  0.24030745086E-01  0.00000000000E+00 0.  1.
     999901    1    3    3    0    0 -0.10930066965E+00  0.73653874127E-01 -0.28908282202E-03  0.88981549387E+00  0.88000000000E+00 0.  1.
        -11    1    4    4    0    0  0.37411588088E-01 -0.11012686233E-01  0.75755796423E-02  0.39731054721E-01  0.51100000000E-03 0. -1.
         11    1    4    4    0    0  0.72404769399E-01 -0.52116264928E-01  0.14310650492E-01  0.90352706325E-01  0.51100000000E-03 0.  1.
</event>
<event>
 8    1  0.1086486E+005  0.1043930E+01  0.7957747E-01            NaN
         13   -1    0    0    0    0  0.00000000000E+00  0.00000000000E+00  0.74505805969E-08  0.10566000000E+00  0.10566000000E+00 0. -1.
     999900   -1    0    0    0    0 -0.00000000000E+00 -0.00000000000E+00 -0.74505805969E-08  0.93827000000E+00  0.93827000000E+00 0.  1.
     999902    2    1    2    0    0 -0.22714159004E-01  0.92999833016E-02  0.89955508305E-03  0.10193692201E+01  0.10190732923E+01 0.  0.
     999903    2    3    3    0    0  0.56406767989E-01  0.70196074047E-01  0.90736666302E-01  0.12917870034E+00  0.18568298916E-01 0.  0.
         14    1    1    2    0    0  0.22714159004E-01 -0.92999833016E-02 -0.89955508305E-03  0.24560779874E-01  0.00000000000E+00 0. -1.
     999901    1    3    3    0    0 -0.79120926993E-01 -0.60896090745E-01 -0.89837111219E-01  0.89019051978E+00  0.88000000000E+00 0.  1.
        -11    1    4    4    0    0  0.48968769425E-01  0.55182468617E-01  0.81893128490E-01  0.11022608964E+00  0.51100000000E-03 0. -1.
         11    1    4    4    0    0  0.74379985641E-02  0.15013605429E-01  0.88435378124E-02  0.18952610708E-01  0.51100000000E-03 0.  1.
</event>
<event>
 8    1  0.1086486E+005  0.1043930E+01  0.7957747E-01            NaN
         13   -1    0    0    0    0  0.00000000000E+00  0.00000000000E+00  0.74505805969E-08  0.10566000000E+00  0.10566000000E+00 0. -1.
     999900   -1    0    0    0    0 -0.00000000000E+00 -0.00000000000E+00 -0.74505805969E-08  0.93827000000E+00  0.93827000000E+00 0. -1.
     999902    2    1    2    0    0  0.22774257568E-01 -0.26186285319E-02  0.74258873966E-02  0.10198329498E+01  0.10195482224E+01 0.  0.
     999903    2    3    3    0    0 -0.16738540519E-01  0.10604171399E+00 -0.68769207339E-01  0.12900523152E+00  0.19700813118E-01 0.  0.
         14    1    1    2    0    0 -0.22774257568E-01  0.26186285319E-02 -0.74258873966E-02  0.24097050168E-01  0.00000000000E+00 0. -1.
     999901    1    3    3    0    0  0.39512798087E-01 -0.10866034252E+00  0.76195094735E-01  0.89082771831E+00  0.88000000000E+00 0.  1.
        -11    1    4    4    0    0 -0.16196383838E-01  0.62932167919E-01 -0.32478148225E-01  0.72648963114E-01  0.51100000000E-03 0.  1.
         11    1    4    4    0    0 -0.54215668123E-03  0.43109546070E-01 -0.36291059114E-01  0.56356268408E-01  0.51100000000E-03 0. -1.
</event>
<event>
 8    1  0.1086486E+005  0.1043930E+01  0.7957747E-01            NaN
         13   -1    0    0    0    0  0.00000000000E+00  0.00000000000E+00  0.74505805969E-08  0.10566000000E+00  0.10566000000E+00 0. -1.
     999900   -1    0    0    0    0 -0.00000000000E+00 -0.00000000000E+00 -0.74505805969E-08  0.93827000000E+00  0.93827000000E+00 0. -1.
     999902    2    1    2    0    0  0.11705994638E-01  0.17487079960E-01 -0.11453476588E-01  0.10199714858E+01  0.10196900615E+01 0.  0.
     999903    2    3    3    0    0 -0.60868360205E-01  0.11233163680E+00  0.22284614471E-01  0.13126411793E+00  0.20256127786E-01 0.  0.
         14    1    1    2    0    0 -0.11705994638E-01 -0.17487079960E-01  0.11453476588E-01  0.23958514185E-01  0.00000000000E+00 0. -1.
     999901    1    3    3    0    0  0.72574354843E-01 -0.94844556845E-01 -0.33738091059E-01  0.88870736788E+00  0.88000000000E+00 0. -1.
        -11    1    4    4    0    0 -0.42324159873E-01  0.58641971142E-01  0.85731048801E-02  0.72828391007E-01  0.51100000000E-03 0.  1.
         11    1    4    4    0    0 -0.18544200332E-01  0.53689665662E-01  0.13711509591E-01  0.58435726924E-01  0.51100000000E-03 0. -1.
</event>
<event>
 8    1  0.1086486E+005  0.1043930E+01  0.7957747E-01            NaN
         13   -1    0    0    0    0  0.00000000000E+00  0.00000000000E+00  0.74505805969E-08  0.10566000000E+00  0.10566000000E+00 0.  1.
     999900   -1    0    0    0    0 -0.00000000000E+00 -0.00000000000E+00 -0.74505805969E-08  0.93827000000E+00  0.93827000000E+00 0.  1.
     999902    2    1    2    0    0  0.11040754460E-01 -0.18040300634E-01 -0.39969441855E-02  0.10224049850E+01  0.10221783735E+01 0.  0.
     999903    2    3    3    0    0 -0.79586165996E-01  0.30610150476E-03  0.10238363071E+00  0.13118859387E+00  0.19849126106E-01 0.  0.
         14    1    1    2    0    0 -0.11040754460E-01  0.18040300634E-01  0.39969441855E-02  0.21525014955E-01  0.00000000000E+00 0.  1.
     999901    1    3    3    0    0  0.90626920456E-01 -0.18346402138E-01 -0.10638057490E+00  0.89121639117E+00  0.88000000000E+00 0.  1.
        -11    1    4    4    0    0 -0.23191784173E-01 -0.59623750997E-02  0.20277378613E-01  0.31382191994E-01  0.51100000000E-03 0.  1.
         11    1    4    4    0    0 -0.56394381823E-01  0.62684766044E-02  0.82106252102E-01  0.99806401876E-01  0.51100000000E-03 0. -1.
</event>
<event>
 8    1  0.1086486E+005  0.1043930E+01  0.7957747E-01            NaN
         13   -1    0    0    0    0  0.00000000000E+00  0.00000000000E+00  0.74505805969E-08  0.10566000000E+00  0.10566000000E+00 0.  1.
     999900   -1    0    0    0    0 -0.00000000000E+00 -0.00000000000E+00 -0.74505805969E-08  0.93827000000E+00  0.93827000000E+00 0. -1.
     999902    2    1    2    0    0 -0.42463332003E-03 -0.20322340725E-01 -0.59749206996E-02  0.10227432701E+01  0.10225237988E+01 0.  0.
     999903    2    3    3    0    0  0.87942111724E-01 -0.44052451531E-02  0.96641556981E-01  0.13224218811E+00  0.19879249983E-01 0.  0.
         14    1    1    2    0    0  0.42463332003E-03  0.20322340725E-01  0.59749206996E-02  0.21186729889E-01  0.00000000000E+00 0. -1.
     999901    1    3    3    0    0 -0.88366745044E-01 -0.15917095572E-01 -0.10261647768E+00  0.89050108201E+00  0.88000000000E+00 0.  1.
        -11    1    4    4    0    0  0.65934387239E-01 -0.90823851378E-02  0.62191607687E-01  0.91092756727E-01  0.51100000000E-03 0.  1.
         11    1    4    4    0    0  0.22007724485E-01  0.46771399848E-02  0.34449949294E-01  0.41149431379E-01  0.51100000000E-03 0. -1.
</event>
<event>
 8    1  0.1086486E+005  0.1043930E+01  0.7957747E-01            NaN
         13   -1    0    0    0    0  0.00000000000E+00  0.00000000000E+00  0.74505805969E-08  0.10566000000E+00  0.10566000000E+00 0. -1.
     999900   -1    0    0    0    0 -0.00000000000E+00 -0.00000000000E+00 -0.74505805969E-08  0.93827000000E+00  0.93827000000E+00 0.  1.
     999902    2    1    2    0    0 -0.66310367755E-02  0.12940383254E-01  0.19649061089E-01  0.10194859870E+01  0.10191929003E+01 0.  0.
     999903    2    3    3    0    0 -0.17214898316E-01 -0.12568362721E+00 -0.13907544999E-02  0.12832309047E+00  0.19291305733E-01 0.  0.
         14    1    1    2    0    0  0.66310367755E-02 -0.12940383254E-01 -0.19649061089E-01  0.24444012951E-01  0.00000000000E+00 0.  1.
     999901    1    3    3    0    0  0.10583861540E-01  0.13862401046E+00  0.21039815588E-01  0.89116289658E+00  0.88000000000E+00 0. -1.
        -11    1    4    4    0    0 -0.52700498906E-02 -0.25591195192E-01  0.73325465768E-02  0.27142403311E-01  0.51100000000E-03 0. -1.
         11    1    4    4    0    0 -0.11944848425E-01 -0.10009243202E+00 -0.87233010767E-02  0.10118068716E+00  0.51100000000E-03 0.  1.
</event>
<event>
 8    1  0.1086486E+005  0.1043930E+01  0.7957747E-01            NaN
         13   -1    0    0    0    0  0.00000000000E+00  0.00000000000E+00  0.74505805969E-08  0.10566000000E+00  0.10566000000E+00 0.  1.
     999900   -1    0    0    0    0 -0.00000000000E+00 -0.00000000000E+00 -0.74505805969E-08  0.93827000000E+00  0.93827000000E+00 0. -1.
     999902    2    1    2    0    0 -0.62381564218E-02 -0.59301628357E-02  0.16245241584E-01  0.10255455147E+01  0.10253807163E+01 0.  0.
     999903    2    3    3    0    0  0.12454393265E+00 -0.20483883347E-01 -0.39905947634E-01  0.13399140994E+00  0.20746870747E-01 0.  0.
         14    1    1    2    0    0  0.62381564218E-02  0.59301628357E-02 -0.16245241584E-01  0.18384485332E-01  0.00000000000E+00 0. -1.
     999901    1    3    3    0    0 -0.13078208907E+00  0.14553720512E-01  0.56151189219E-01  0.89155410473E+00  0.88000000000E+00 0. -1.
        -11    1    4    4    0    0  0.49236608845E-01  0.20026382081E-02 -0.16938711438E-01  0.52109838577E-01  0.51100000000E-03 0. -1.
         11    1    4    4    0    0  0.75307323802E-01 -0.22486521555E-01 -0.22967236197E-01  0.81881571366E-01  0.51100000000E-03 0.  1.
</event>
<event>
 8    1  0.1086486E+005  0.1043930E+01  0.7957747E-01            NaN
         13   -1    0    0    0    0  0.00000000000E+00  0.00000000000E+00  0.74505805969E-08  0.10566000000E+00  0.10566000000E+00 0.  1.
     999900   -1    0    0    0    0 -0.00000000000E+00 -0.00000000000E+00 -0.74505805969E-08  0.93827000000E+00  0.93827000000E+00 0.  1.
     999902    2    1    2    0    0 -0.10303751530E-01  0.13030739554E-01 -0.15697102696E-01  0.10210746614E+01  0.10208188369E+01 0.  0.
     999903    2    3    3    0    0  0.12422104740E+00 -0.35859634367E-02  0.30112298243E-01  0.12951897748E+00  0.20607941894E-01 0.  0.
         14    1    1    2    0    0  0.10303751530E-01 -0.13030739554E-01  0.15697102696E-01  0.22855338588E-01  0.00000000000E+00 0. -1.
     999901    1    3    3    0    0 -0.13452479893E+00  0.16616702990E-01 -0.45809400939E-01  0.89155568394E+00  0.88000000000E+00 0.  1.
        -11    1    4    4    0    0  0.87353643609E-01 -0.71777382624E-03  0.11483152595E-01  0.88109580441E-01  0.51100000000E-03 0.  1.
         11    1    4    4    0    0  0.36867403794E-01 -0.28681896104E-02  0.18629145648E-01  0.41409397034E-01  0.51100000000E-03 0. -1.
</event>
<event>
 8    1  0.1086486E+005  0.1043930E+01  0.7957747E-01            NaN
         13   -1    0    0    0    0  0.00000000000E+00  0.00000000000E+00  0.74505805969E-08  0.10566000000E+00  0.10566000000E+00 0.  1.
     999900   -1    0    0    0    0 -0.00000000000E+00 -0.00000000000E+00 -0.74505805969E-08  0.93827000000E+00  0.93827000000E+00 0. -1.
     999902    2    1    2    0    0  0.20285972046E-02 -0.22653746794E-01  0.82242732559E-02  0.10197443406E+01  0.10194574901E+01 0.  0.
     999903    2    3    3    0    0  0.48568522228E-01  0.14013209777E-01 -0.11687903383E+00  0.12892378191E+00  0.20133593621E-01 0.  0.
         14    1    1    2    0    0 -0.20285972046E-02  0.22653746794E-01 -0.82242732559E-02  0.24185659409E-01  0.00000000000E+00 0. -1.
     999901    1    3    3    0    0 -0.46539925023E-01 -0.36666956571E-01  0.12510330709E+00  0.89082055868E+00  0.88000000000E+00 0.  1.
        -11    1    4    4    0    0  0.38034995545E-01  0.17704512644E-01 -0.79254335651E-01  0.89675088484E-01  0.51100000000E-03 0.  1.
         11    1    4    4    0    0  0.10533526683E-01 -0.36913028674E-02 -0.37624698183E-01  0.39248693426E-01  0.51100000000E-03 0. -1.
</event>
<event>
 8    1  0.1086486E+005  0.1043930E+01  0.7957747E-01            NaN
         13   -1    0    0    0    0  0.00000000000E+00  0.00000000000E+00  0.74505805969E-08  0.10566000000E+00  0.10566000000E+00 0.  1.
     999900   -1    0    0    0    0 -0.00000000000E+00 -0.00000000000E+00 -0.74505805969E-08  0.93827000000E+00  0.93827000000E+00 0. -1.
     999902    2    1    2    0    0 -0.17562886666E-01 -0.14452322980E-01 -0.26970828944E-02  0.10210258763E+01  0.10207689460E+01 0.  0.
     999903    2    3    3    0    0 -0.38184053631E-01  0.63564980502E-01 -0.10644849783E+00  0.13126394841E+00  0.20010316443E-01 0.  0.
         14    1    1    2    0    0  0.17562886666E-01  0.14452322980E-01  0.26970828944E-02  0.22904123727E-01  0.00000000000E+00 0. -1.
     999901    1    3    3    0    0  0.20621166965E-01 -0.78017303481E-01  0.10375141494E+00  0.88976192786E+00  0.88000000000E+00 0.  1.
        -11    1    4    4    0    0 -0.33657860666E-01  0.44444403522E-01 -0.66790621131E-01  0.87002326297E-01  0.51100000000E-03 0. -1.
         11    1    4    4    0    0 -0.45261929643E-02  0.19120576980E-01 -0.39657876702E-01  0.44261622115E-01  0.51100000000E-03 0.  1.
</event>
<event>
 8    1  0.1086486E+005  0.1043930E+01  0.7957747E-01            NaN
         13   -1    0    0    0    0  0.00000000000E+00  0.00000000000E+00  0.74505805969E-08  0.10566000000E+00  0.10566000000E+00 0. -1.
     999900   -1    0    0    0    0 -0.00000000000E+00 -0.00000000000E+00 -0.74505805969E-08  0.93827000000E+00  0.93827000000E+00 0.  1.
     999902    2    1    2    0    0  0.18401034052E-01  0.15929262912E-03 -0.13210811578E-01  0.10212772083E+01  0.10210259484E+01 0.  0.
     999903    2    3    3    0    0  0.97480003760E-01  0.78034511278E-01 -0.43840037574E-01  0.13377724628E+00  0.19561867124E-01 0.  0.
         14    1    1    2    0    0 -0.18401034052E-01 -0.15929262912E-03  0.13210811578E-01  0.22652791680E-01  0.00000000000E+00 0.  1.
     999901    1    3    3    0    0 -0.79078969708E-01 -0.77875218649E-01  0.30629225995E-01  0.88749996204E+00  0.88000000000E+00 0. -1.
        -11    1    4    4    0    0  0.66782662438E-01  0.42896409814E-01 -0.22743515278E-01  0.82568484214E-01  0.51100000000E-03 0.  1.
         11    1    4    4    0    0  0.30697341322E-01  0.35138101464E-01 -0.21096522295E-01  0.51208762070E-01  0.51100000000E-03 0. -1.
</event>
<event>
 8    1  0.1086486E+005  0.1043930E+01  0.7957747E-01            NaN
         13   -1    0    0    0    0  0.00000000000E+00  0.00000000000E+00  0.74505805969E-08  0.10566000000E+00  0.10566000000E+00 0. -1.
     999900   -1    0    0    0    0 -0.00000000000E+00 -0.00000000000E+00 -0.74505805969E-08  0.93827000000E+00  0.93827000000E+00 0. -1.
     999902    2    1    2    0    0 -0.13461891868E-01 -0.23213353866E-01 -0.66865677162E-02  0.10162751176E+01  0.10158987756E+01 0.  0.
     999903    2    3    3    0    0  0.18138728910E-01  0.12075411680E+00  0.22564483965E-02  0.12397180073E+00  0.21291914109E-01 0.  0.
         14    1    1    2    0    0  0.13461891868E-01  0.23213353866E-01  0.66865677162E-02  0.27654882358E-01  0.00000000000E+00 0. -1.
     999901    1    3    3    0    0 -0.31600620778E-01 -0.14396747066E+00 -0.89430161127E-02  0.89230331692E+00  0.88000000000E+00 0. -1.
        -11    1    4    4    0    0  0.30826447439E-02  0.82410237546E-01 -0.24563446245E-02  0.82506028270E-01  0.51100000000E-03 0. -1.
         11    1    4    4    0    0  0.15056084166E-01  0.38343879249E-01  0.47127930210E-02  0.41465772456E-01  0.51100000000E-03 0.  1.
</event>
<event>
 8    1  0.1086486E+005  0.1043930E+01  0.7957747E-01            NaN
         13   -1    0    0    0    0  0.00000000000E+00  0.00000000000E+00  0.74505805969E-08  0.10566000000E+00  0.10566000000E+00 0.  1.
     999900   -1    0    0    0    0 -0.00000000000E+00 -0.00000000000E+00 -0.74505805969E-08  0.93827000000E+00  0.93827000000E+00 0.  1.
     999902    2    1    2    0    0 -0.37614440058E-02 -0.96927379552E-02 -0.20666986354E-01  0.10207951355E+01  0.10205329425E+01 0.  0.
     999903    2    3    3    0    0 -0.83048972705E-01 -0.36751556787E-01  0.90701270338E-01  0.12982848042E+00  0.19516790035E-01 0.  0.
         14    1    1    2    0    0  0.37614440058E-02  0.96927379552E-02  0.20666986354E-01  0.23134864492E-01  0.00000000000E+00 0.  1.
     999901    1    3    3    0    0  0.79287528699E-01  0.27058818832E-01 -0.11136825669E+00  0.89096665509E+00  0.88000000000E+00 0.  1.
        -11    1    4    4    0    0 -0.83147449865E-01 -0.33917094968E-01  0.86156665488E-01  0.12444717706E+00  0.51100000000E-03 0.  1.
         11    1    4    4    0    0  0.98477160312E-04 -0.28344618189E-02  0.45446048497E-02  0.53813033546E-02  0.51100000000E-03 0. -1.
</event>
<event>
 8    1  0.1086486E+005  0.1043930E+01  0.7957747E-01            NaN
         13   -1    0    0    0    0  0.00000000000E+00  0.00000000000E+00  0.74505805969E-08  0.10566000000E+00  0.10566000000E+00 0. -1.
     999900   -1    0    0    0    0 -0.00000000000E+00 -0.00000000000E+00 -0.74505805969E-08  0.93827000000E+00  0.93827000000E+00 0. -1.
     999902    2    1    2    0    0 -0.16557888212E-01 -0.13734609963E-01  0.13564399101E-01  0.10184978138E+01  0.10181802397E+01 0.  0.
     999903    2    3    3    0    0  0.47948198797E-01 -0.11811062635E+00  0.15286469124E-01  0.12998312421E+00  0.20317150812E-01 0.  0.
         14    1    1    2    0    0  0.16557888212E-01  0.13734609963E-01 -0.13564399101E-01  0.25432186219E-01  0.00000000000E+00 0. -1.
     999901    1    3    3    0    0 -0.64506087009E-01  0.10437601639E+00 -0.17220700229E-02  0.88851468957E+00  0.88000000000E+00 0. -1.
        -11    1    4    4    0    0  0.26361424071E-01 -0.86130207802E-01  0.58892899692E-02  0.90267836090E-01  0.51100000000E-03 0.  1.
         11    1    4    4    0    0  0.21586774725E-01 -0.31980418546E-01  0.93971791549E-02  0.39715288120E-01  0.51100000000E-03 0. -1.
</event>
<event>
 8    1  0.1086486E+005  0.1043930E+01  0.7957747E-01            NaN
         13   -1    0    0    0    0  0.00000000000E+00  0.00000000000E+00  0.74505805969E-08  0.10566000000E+00  0.10566000000E+00 0.  1.
     999900   -1    0    0    0    0 -0.00000000000E+00 -0.00000000000E+00 -0.74505805969E-08  0.93827000000E+00  0.93827000000E+00 0.  1.
     999902    2    1    2    0    0  0.75422683637E-02  0.14451758396E-01 -0.17548028081E-01  0.10199785403E+01  0.10196972836E+01 0.  0.
     999903    2    3    3    0    0 -0.10775071068E+00  0.70199068886E-01  0.79871291765E-02  0.13034250353E+00  0.19678645032E-01 0.  0.
         14    1    1    2    0    0 -0.75422683637E-02 -0.14451758396E-01  0.17548028081E-01  0.23951459712E-01  0.00000000000E+00 0.  1.
     999901    1    3    3    0    0  0.11529297904E+00 -0.55747310490E-01 -0.25535157257E-01  0.88963603676E+00  0.88000000000E+00 0.  1.
        -11    1    4    4    0    0 -0.79828597473E-01  0.41402711243E-01  0.37638031356E-02  0.90006759790E-01  0.51100000000E-03 0. -1.
         11    1    4    4    0    0 -0.27922113202E-01  0.28796357643E-01  0.42233260409E-02  0.40335743740E-01  0.51100000000E-03 0.  1.
</event>
<event>
 8    1  0.1086486E+005  0.1043930E+01  0.7957747E-01            NaN
         13   -1    0    0    0    0  0.00000000000E+00  0.00000000000E+00  0.74505805969E-08  0.10566000000E+00  0.10566000000E+00 0.  1.
     999900   -1    0    0    0    0 -0.00000000000E+00 -0.00000000000E+00 -0.74505805969E-08  0.93827000000E+00  0.93827000000E+00 0. -1.
     999902    2    1    2    0    0  0.10186943873E-01  0.24765114037E-02  0.21227735199E-01  0.10202546188E+01  0.10199798839E+01 0.  0.
     999903    2    3    3    0    0 -0.46865696897E-01  0.62267464505E-01 -0.10057978104E+00  0.12802873208E+00  0.14192716466E-01 0.  0.
         14    1    1    2    0    0 -0.10186943873E-01 -0.24765114037E-02 -0.21227735199E-01  0.23675381219E-01  0.00000000000E+00 0. -1.
     999901    1    3    3    0    0  0.57052640771E-01 -0.59790953101E-01  0.12180751624E+00  0.89222588670E+00  0.88000000000E+00 0.  1.
        -11    1    4    4    0    0 -0.14616352340E-01  0.16835812119E-01 -0.39451650587E-01  0.45318607442E-01  0.51100000000E-03 0.  1.
         11    1    4    4    0    0 -0.32249344557E-01  0.45431652386E-01 -0.61128130457E-01  0.82710124635E-01  0.51100000000E-03 0. -1.
</event>
<event>
 8    1  0.1086486E+005  0.1043930E+01  0.7957747E-01            NaN
         13   -1    0    0    0    0  0.00000000000E+00  0.00000000000E+00  0.74505805969E-08  0.10566000000E+00  0.10566000000E+00 0.  1.
     999900   -1    0    0    0    0 -0.00000000000E+00 -0.00000000000E+00 -0.74505805969E-08  0.93827000000E+00  0.93827000000E+00 0.  1.
     999902    2    1    2    0    0  0.13546172987E-01  0.11811016592E-01 -0.15923289340E-01  0.10199185432E+01  0.10196358588E+01 0.  0.
     999903    2    3    3    0    0 -0.61586416106E-01  0.41421797712E-01 -0.10726346591E+00  0.13151281821E+00  0.16778505883E-01 0.  0.
         14    1    1    2    0    0 -0.13546172987E-01 -0.11811016592E-01  0.15923289340E-01  0.24011456826E-01  0.00000000000E+00 0. -1.
     999901    1    3    3    0    0  0.75132589093E-01 -0.29610781120E-01  0.91340176566E-01  0.88840572497E+00  0.88000000000E+00 0. -1.
        -11    1    4    4    0    0 -0.48097549257E-01  0.28769578669E-01 -0.68092648306E-01  0.88192589120E-01  0.51100000000E-03 0. -1.
         11    1    4    4    0    0 -0.13488866849E-01  0.12652219042E-01 -0.39170817599E-01  0.43320229085E-01  0.51100000000E-03 0.  1.
</event>
<event>
 8    1  0.1086486E+005  0.1043930E+01  0.7957747E-01            NaN
         13   -1    0    0    0    0  0.00000000000E+00  0.00000000000E+00  0.74505805969E-08  0.10566000000E+00  0.10566000000E+00 0.  1.
     999900   -1    0    0    0    0 -0.00000000000E+00 -0.00000000000E+00 -0.74505805969E-08  0.93827000000E+00  0.93827000000E+00 0. -1.
     999902    2    1    2    0    0 -0.91552723169E-02 -0.11950400993E-01  0.18961983118E-01  0.10197186824E+01  0.10194312156E+01 0.  0.
     999903    2    3    3    0    0  0.17101473269E-02  0.41572296112E-01  0.12289255348E+00  0.13192123936E+00  0.23863220351E-01 0.  0.
         14    1    1    2    0    0  0.91552723169E-02  0.11950400993E-01 -0.18961983118E-01  0.24211317578E-01  0.00000000000E+00 0. -1.
     999901    1    3    3    0    0 -0.10865419644E-01 -0.53522697105E-01 -0.10393057036E+00  0.88779744306E+00  0.88000000000E+00 0. -1.
        -11    1    4    4    0    0  0.86119545492E-02  0.17069796360E-01  0.29800392780E-01  0.35410001973E-01  0.51100000000E-03 0. -1.
         11    1    4    4    0    0 -0.69018072223E-02  0.24502499752E-01  0.93092160702E-01  0.96511237388E-01  0.51100000000E-03 0.  1.
</event>
<event>
 8    1  0.1086486E+005  0.1043930E+01  0.7957747E-01            NaN
         13   -1    0    0    0    0  0.00000000000E+00  0.00000000000E+00  0.74505805969E-08  0.10566000000E+00  0.10566000000E+00 0.  1.
     999900   -1    0    0    0    0 -0.00000000000E+00 -0.00000000000E+00 -0.74505805969E-08  0.93827000000E+00  0.93827000000E+00 0. -1.
     999902    2    1    2    0    0  0.18669130759E-01  0.61461111581E-02  0.13963233258E-01  0.10198201885E+01  0.10195351558E+01 0.  0.
     999903    2    3    3    0    0 -0.19941855567E-01  0.25704465198E-01  0.12615500410E+00  0.13164209214E+00  0.18872154822E-01 0.  0.
         14    1    1    2    0    0 -0.18669130759E-01 -0.61461111581E-02 -0.13963233258E-01  0.24109811461E-01  0.00000000000E+00 0. -1.
     999901    1    3    3    0    0  0.38610986326E-01 -0.19558354039E-01 -0.11219177085E+00  0.88817809640E+00  0.88000000000E+00 0. -1.
        -11    1    4    4    0    0 -0.23475147269E-02  0.14985376582E-01  0.34366806886E-01  0.37568748625E-01  0.51100000000E-03 0. -1.
         11    1    4    4    0    0 -0.17594340840E-01  0.10719088616E-01  0.91788197219E-01  0.94073343515E-01  0.51100000000E-03 0.  1.
</event>
<event>
 8    1  0.1086486E+005  0.1043930E+01  0.7957747E-01            NaN
         13   -1    0    0    0    0  0.00000000000E+00  0.00000000000E+00  0.74505805969E-08  0.10566000000E+00  0.10566000000E+00 0.  1.
     999900   -1    0    0    0    0 -0.00000000000E+00 -0.00000000000E+00 -0.74505805969E-08  0.93827000000E+00  0.93827000000E+00 0.  1.
     999902    2    1    2    0    0  0.13336153927E-02  0.21748553172E-02  0.23115150718E-01  0.10206744906E+01  0.10204095242E+01 0.  0.
     999903    2    3    3    0    0 -0.12064010977E+00 -0.42829282797E-01  0.19620587034E-01  0.13111551330E+00  0.20443259138E-01 0.  0.
         14    1    1    2    0    0 -0.13336153927E-02 -0.21748553172E-02 -0.23115150718E-01  0.23255509420E-01  0.00000000000E+00 0. -1.
     999901    1    3    3    0    0  0.12197372516E+00  0.45004138114E-01  0.34945636839E-02  0.88955897728E+00  0.88000000000E+00 0.  1.
        -11    1    4    4    0    0 -0.62818517303E-01 -0.12297405939E-01  0.13665779718E-01  0.65455381485E-01  0.51100000000E-03 0. -1.
         11    1    4    4    0    0 -0.57821592463E-01 -0.30531876858E-01  0.59548073160E-02  0.65660131820E-01  0.51100000000E-03 0.  1.
</event>
<event>
 8    1  0.1086486E+005  0.1043930E+01  0.7957747E-01            NaN
         13   -1    0    0    0    0  0.00000000000E+00  0.00000000000E+00  0.74505805969E-08  0.10566000000E+00  0.10566000000E+00 0. -1.
     999900   -1    0    0    0    0 -0.00000000000E+00 -0.00000000000E+00 -0.74505805969E-08  0.93827000000E+00  0.93827000000E+00 0.  1.
     999902    2    1    2    0    0 -0.20558003197E-01  0.93298749865E-02 -0.70279003630E-02  0.10202853506E+01  0.10200113368E+01 0.  0.
     999903    2    3    3    0    0  0.96359687801E-02  0.12667530688E+00 -0.28252466010E-01  0.13172915736E+00  0.20368696432E-01 0.  0.
         14    1    1    2    0    0  0.20558003197E-01 -0.93298749865E-02  0.70279003630E-02  0.23644649421E-01  0.00000000000E+00 0.  1.
     999901    1    3    3    0    0 -0.30193971977E-01 -0.11734543189E+00  0.21224565647E-01  0.88855619322E+00  0.88000000000E+00 0. -1.
        -11    1    4    4    0    0  0.95543399598E-02  0.61006249342E-01 -0.45795796310E-02  0.61921575734E-01  0.51100000000E-03 0. -1.
         11    1    4    4    0    0  0.81628820312E-04  0.65669057538E-01 -0.23672886379E-01  0.69807581621E-01  0.51100000000E-03 0.  1.
</event>
<event>
 8    1  0.1086486E+005  0.1043930E+01  0.7957747E-01            NaN
         13   -1    0    0    0    0  0.00000000000E+00  0.00000000000E+00  0.74505805969E-08  0.10566000000E+00  0.10566000000E+00 0. -1.
     999900   -1    0    0    0    0 -0.00000000000E+00 -0.00000000000E+00 -0.74505805969E-08  0.93827000000E+00  0.93827000000E+00 0.  1.
     999902    2    1    2    0    0 -0.19029840146E-01 -0.20507675315E-02  0.17943067719E-01  0.10176946395E+01  0.10173564199E+01 0.  0.
     999903    2    3    3    0    0 -0.86882402558E-01 -0.42430877193E-01  0.86790374286E-01  0.13148107880E+00  0.20143827821E-01 0.  0.
         14    1    1    2    0    0  0.19029840146E-01  0.20507675315E-02 -0.17943067719E-01  0.26235360539E-01  0.00000000000E+00 0.  1.
     999901    1    3    3    0    0  0.67852562412E-01  0.40380109662E-01 -0.68847306567E-01  0.88621356066E+00  0.88000000000E+00 0.  1.
        -11    1    4    4    0    0 -0.57617612335E-01 -0.17383327186E-01  0.55092142257E-01  0.81592736041E-01  0.51100000000E-03 0.  1.
         11    1    4    4    0    0 -0.29264790223E-01 -0.25047550007E-01  0.31698232029E-01  0.49888342756E-01  0.51100000000E-03 0. -1.
</event>
<event>
 8    1  0.1086486E+005  0.1043930E+01  0.7957747E-01            NaN
         13   -1    0    0    0    0  0.00000000000E+00  0.00000000000E+00  0.74505805969E-08  0.10566000000E+00  0.10566000000E+00 0. -1.
     999900   -1    0    0    0    0 -0.00000000000E+00 -0.00000000000E+00 -0.74505805969E-08  0.93827000000E+00  0.93827000000E+00 0.  1.
     999902    2    1    2    0    0  0.14327691723E-01 -0.38551979166E-02  0.23688125104E-01  0.10159787465E+01  0.10155941811E+01 0.  0.
     999903    2    3    3    0    0 -0.26017667285E-01  0.45402958610E-01 -0.11008952782E+00  0.12359397837E+00  0.20430851469E-01 0.  0.
         14    1    1    2    0    0 -0.14327691723E-01  0.38551979166E-02 -0.23688125104E-01  0.27951253497E-01  0.00000000000E+00 0.  1.
     999901    1    3    3    0    0  0.40345359008E-01 -0.49258156527E-01  0.13377765292E+00  0.89238476814E+00  0.88000000000E+00 0. -1.
        -11    1    4    4    0    0 -0.22337629561E-01  0.40742152276E-01 -0.76706405627E-01  0.89682921739E-01  0.51100000000E-03 0. -1.
         11    1    4    4    0    0 -0.36800377241E-02  0.46608063339E-02 -0.33383122193E-01  0.33911056629E-01  0.51100000000E-03 0.  1.
</event>
<event>
 8    1  0.1086486E+005  0.1043930E+01  0.7957747E-01            NaN
         13   -1    0    0    0    0  0.00000000000E+00  0.00000000000E+00  0.74505805969E-08  0.10566000000E+00  0.10566000000E+00 0. -1.
     999900   -1    0    0    0    0 -0.00000000000E+00 -0.00000000000E+00 -0.74505805969E-08  0.93827000000E+00  0.93827000000E+00 0.  1.
     999902    2    1    2    0    0  0.21645047600E-01 -0.58376422524E-02  0.93944328444E-02  0.10196227681E+01  0.10193329916E+01 0.  0.
     999903    2    3    3    0    0 -0.42651332131E-01  0.92753449760E-01 -0.74355181801E-01  0.12784464224E+00  0.19829798605E-01 0.  0.
         14    1    1    2    0    0 -0.21645047600E-01  0.58376422524E-02 -0.93944328444E-02  0.24307231870E-01  0.00000000000E+00 0.  1.
     999901    1    3    3    0    0  0.64296379731E-01 -0.98591092013E-01  0.83749614646E-01  0.89177812589E+00  0.88000000000E+00 0. -1.
        -11    1    4    4    0    0 -0.16935188192E-01  0.46844542439E-01 -0.25161574796E-01  0.55808401901E-01  0.51100000000E-03 0.  1.
         11    1    4    4    0    0 -0.25716143939E-01  0.45908907321E-01 -0.49193607005E-01  0.72036240335E-01  0.51100000000E-03 0. -1.
</event>
<event>
 8    1  0.1086486E+005  0.1043930E+01  0.7957747E-01            NaN
         13   -1    0    0    0    0  0.00000000000E+00  0.00000000000E+00  0.74505805969E-08  0.10566000000E+00  0.10566000000E+00 0.  1.
     999900   -1    0    0    0    0 -0.00000000000E+00 -0.00000000000E+00 -0.74505805969E-08  0.93827000000E+00  0.93827000000E+00 0.  1.
     999902    2    1    2    0    0 -0.18963383396E-01  0.12106127207E-01 -0.45570260319E-02  0.10209749415E+01  0.10207168542E+01 0.  0.
     999903    2    3    3    0    0 -0.13122877928E+00 -0.13950532677E-01 -0.28942560537E-02  0.13345861292E+00  0.19677773531E-01 0.  0.
         14    1    1    2    0    0  0.18963383396E-01 -0.12106127207E-01  0.45570260319E-02  0.22955058528E-01  0.00000000000E+00 0. -1.
     999901    1    3    3    0    0  0.11226539589E+00  0.26056659884E-01 -0.16627699782E-02  0.88751632855E+00  0.88000000000E+00 0.  1.
        -11    1    4    4    0    0 -0.11321967878E+00 -0.51921223651E-02 -0.10896807819E-02  0.11334505866E+00  0.51100000000E-03 0. -1.
         11    1    4    4    0    0 -0.18009100501E-01 -0.87584103122E-02 -0.18045752717E-02  0.20113554260E-01  0.51100000000E-03 0.  1.
</event>
<event>
 8    1  0.1086486E+005  0.1043930E+01  0.7957747E-01            NaN
         13   -1    0    0    0    0  0.00000000000E+00  0.00000000000E+00  0.74505805969E-08  0.10566000000E+00  0.10566000000E+00 0. -1.
     999900   -1    0    0    0    0 -0.00000000000E+00 -0.00000000000E+00 -0.74505805969E-08  0.93827000000E+00  0.93827000000E+00 0. -1.
     999902    2    1    2    0    0 -0.14928123106E-01 -0.18254172031E-01  0.71818193651E-02  0.10192796007E+01  0.10189814828E+01 0.  0.
     999903    2    3    3    0    0 -0.58643433517E-01  0.81143004595E-01 -0.77986376043E-01  0.12852461273E+00  0.20333758652E-01 0.  0.
         14    1    1    2    0    0  0.14928123106E-01  0.18254172031E-01 -0.71818193651E-02  0.24650399295E-01  0.00000000000E+00 0. -1.
     999901    1    3    3    0    0  0.43715310411E-01 -0.99397176625E-01  0.85168195408E-01  0.89075498797E+00  0.88000000000E+00 0.  1.
        -11    1    4    4    0    0 -0.31553583274E-01  0.28329526446E-01 -0.26988881692E-01  0.50267798262E-01  0.51100000000E-03 0. -1.
         11    1    4    4    0    0 -0.27089850243E-01  0.52813478148E-01 -0.50997494351E-01  0.78256814473E-01  0.51100000000E-03 0.  1.
</event>
<event>
 7    1  0.1086486E+005  0.1043930E+01  0.7957747E-01            NaN
         13   -1    0    0    0    0  0.00000000000E+00  0.00000000000E+00  0.74505805969E-08  0.10566000000E+00  0.10566000000E+00 0. -1.
     999900   -1    0    0    0    0 -0.00000000000E+00 -0.00000000000E+00 -0.74505805969E-08  0.93827000000E+00  0.93827000000E+00 0. -1.
     999903    2    1    2    0    0 -0.41635575619E-01  0.85740975470E-01 -0.43442079050E-01  0.10668125256E+00  0.20214830809E-01 0.  0.
         14    1    1    2    0    0 -0.38454388216E-01 -0.70220171315E-03 -0.26611007300E-01  0.46769421312E-01  0.00000000000E+00 0.  1.
     999901    1    1    2    0    0  0.80089963835E-01 -0.85038773756E-01  0.70053086350E-01  0.89047932613E+00  0.88000000000E+00 0.  1.
        -11    1    3    3    0    0 -0.27250585277E-01  0.73602360146E-01 -0.32914312625E-01  0.85108841571E-01  0.51100000000E-03 0. -1.
         11    1    3    3    0    0 -0.14384990342E-01  0.12138615324E-01 -0.10527766425E-01  0.21572410992E-01  0.51100000000E-03 0.  1.
</event>
<event>
 8    1  0.1086486E+005  0.1043930E+01  0.7957747E-01            NaN
         13   -1    0    0    0    0  0.00000000000E+00  0.00000000000E+00  0.74505805969E-08  0.10566000000E+00  0.10566000000E+00 0. -1.
     999900   -1    0    0    0    0 -0.00000000000E+00 -0.00000000000E+00 -0.74505805969E-08  0.93827000000E+00  0.93827000000E+00 0.  1.
     999902    2    1    2    0    0 -0.20611600840E-01 -0.13266960076E-01 -0.12391180607E-01  0.10164638085E+01  0.10160926544E+01 0.  0.
     999903    2    3    3    0    0 -0.11112832263E-01  0.52933060484E-01 -0.11436477079E+00  0.12805439701E+00  0.19829872955E-01 0.  0.
         14    1    1    2    0    0  0.20611600840E-01  0.13266960076E-01  0.12391180607E-01  0.27466191503E-01  0.00000000000E+00 0. -1.
     999901    1    3    3    0    0 -0.94987685769E-02 -0.66200020560E-01  0.10197359019E+00  0.88840941149E+00  0.88000000000E+00 0. -1.
        -11    1    4    4    0    0 -0.13881517904E-01  0.19376019345E-01 -0.50994738238E-01  0.56292549364E-01  0.51100000000E-03 0.  1.
         11    1    4    4    0    0  0.27686856414E-02  0.33557041139E-01 -0.63370032555E-01  0.71761847644E-01  0.51100000000E-03 0. -1.
</event>
<event>
 8    1  0.1086486E+005  0.1043930E+01  0.7957747E-01            NaN
         13   -1    0    0    0    0  0.00000000000E+00  0.00000000000E+00  0.74505805969E-08  0.10566000000E+00  0.10566000000E+00 0.  1.
     999900   -1    0    0    0    0 -0.00000000000E+00 -0.00000000000E+00 -0.74505805969E-08  0.93827000000E+00  0.93827000000E+00 0.  1.
     999902    2    1    2    0    0  0.18874420772E-01 -0.38082442761E-03  0.13591486550E-01  0.10206680720E+01  0.10204029576E+01 0.  0.
     999903    2    3    3    0    0 -0.10605547789E+00  0.34945206784E-01  0.63068346765E-01  0.12976775899E+00  0.19827330652E-01 0.  0.
         14    1    1    2    0    0 -0.18874420772E-01  0.38082442761E-03 -0.13591486550E-01  0.23261927980E-01  0.00000000000E+00 0. -1.
     999901    1    3    3    0    0  0.12492989867E+00 -0.35326031212E-01 -0.49476860215E-01  0.89090031303E+00  0.88000000000E+00 0.  1.
        -11    1    4    4    0    0 -0.55243611063E-01  0.13125868543E-01  0.22048771726E-01  0.60914320516E-01  0.51100000000E-03 0. -1.
         11    1    4    4    0    0 -0.50811866831E-01  0.21819338241E-01  0.41019575040E-01  0.68853438473E-01  0.51100000000E-03 0.  1.
</event>
<event>
 8    1  0.1086486E+005  0.1043930E+01  0.7957747E-01            NaN
         13   -1    0    0    0    0  0.00000000000E+00  0.00000000000E+00  0.74505805969E-08  0.10566000000E+00  0.10566000000E+00 0.  1.
     999900   -1    0    0    0    0 -0.00000000000E+00 -0.00000000000E+00 -0.74505805969E-08  0.93827000000E+00  0.93827000000E+00 0.  1.
     999902    2    1    2    0    0  0.17106398728E-01  0.21731396515E-01  0.58893457196E-02  0.10156533866E+01  0.10152596884E+01 0.  0.
     999903    2    3    3    0    0  0.91301337396E-01 -0.70306824349E-01 -0.47373098601E-01  0.12615194704E+00  0.19776741635E-01 0.  0.
         14    1    1    2    0    0 -0.17106398728E-01 -0.21731396515E-01 -0.58893457196E-02  0.28276613393E-01  0.00000000000E+00 0. -1.
     999901    1    3    3    0    0 -0.74194938668E-01  0.92038220864E-01  0.53262444320E-01  0.88950143957E+00  0.88000000000E+00 0. -1.
        -11    1    4    4    0    0  0.59317129814E-01 -0.54272141563E-01 -0.26134985188E-01  0.84541621767E-01  0.51100000000E-03 0. -1.
         11    1    4    4    0    0  0.31984207583E-01 -0.16034682786E-01 -0.21238113413E-01  0.41610325270E-01  0.51100000000E-03 0.  1.
</event>
<event>
 8    1  0.1086486E+005  0.1043930E+01  0.7957747E-01            NaN
         13   -1    0    0    0    0  0.00000000000E+00  0.00000000000E+00  0.74505805969E-08  0.10566000000E+00  0.10566000000E+00 0.  1.
     999900   -1    0    0    0    0 -0.00000000000E+00 -0.00000000000E+00 -0.74505805969E-08  0.93827000000E+00  0.93827000000E+00 0. -1.
     999902    2    1    2    0    0 -0.18242023373E-01  0.14948219302E-01 -0.32429907046E-02  0.10201237473E+01  0.10198459306E+01 0.  0.
     999903    2    3    3    0    0 -0.74548033546E-02 -0.91773238444E-01  0.87941038480E-01  0.12893332951E+00  0.20304576356E-01 0.  0.
         14    1    1    2    0    0  0.18242023373E-01 -0.14948219302E-01  0.32429907046E-02  0.23806252661E-01  0.00000000000E+00 0.  1.
     999901    1    3    3    0    0 -0.10787220019E-01  0.10672145775E+00 -0.91184029184E-01  0.89119041783E+00  0.88000000000E+00 0. -1.
        -11    1    4    4    0    0  0.21305109381E-02 -0.28182021310E-01  0.16175378709E-01  0.32567919789E-01  0.51100000000E-03 0.  1.
         11    1    4    4    0    0 -0.95853142927E-02 -0.63591217134E-01  0.71765659770E-01  0.96365409717E-01  0.51100000000E-03 0. -1.
</event>
<event>
 8    1  0.1086486E+005  0.1043930E+01  0.7957747E-01            NaN
         13   -1    0    0    0    0  0.00000000000E+00  0.00000000000E+00  0.74505805969E-08  0.10566000000E+00  0.10566000000E+00 0.  1.
     999900   -1    0    0    0    0 -0.00000000000E+00 -0.00000000000E+00 -0.74505805969E-08  0.93827000000E+00  0.93827000000E+00 0.  1.
     999902    2    1    2    0    0 -0.17030385812E-01  0.24231577763E-03 -0.16142653202E-01  0.10204634704E+01  0.10201936171E+01 0.  0.
     999903    2    3    3    0    0 -0.41485062991E-01 -0.14319272816E-01  0.12013054859E+00  0.12951989386E+00  0.20445101474E-01 0.  0.
         14    1    1    2    0    0  0.17030385812E-01 -0.24231577763E-03  0.16142653202E-01  0.23466529574E-01  0.00000000000E+00 0.  1.
     999901    1    3    3    0    0  0.24454677179E-01  0.14561588593E-01 -0.13627320180E+00  0.89094357657E+00  0.88000000000E+00 0.  1.
        -11    1    4    4    0    0 -0.13403637377E-01 -0.69075384855E-04  0.16809663127E-01  0.21505537933E-01  0.51100000000E-03 0. -1.
         11    1    4    4    0    0 -0.28081425615E-01 -0.14250197431E-01  0.10332088547E+00  0.10801435593E+00  0.51100000000E-03 0.  1.
</event>
<event>
 8    1  0.1086486E+005  0.1043930E+01  0.7957747E-01            NaN
         13   -1    0    0    0    0  0.00000000000E+00  0.00000000000E+00  0.74505805969E-08  0.10566000000E+00  0.10566000000E+00 0. -1.
     999900   -1    0    0    0    0 -0.00000000000E+00 -0.00000000000E+00 -0.74505805969E-08  0.93827000000E+00  0.93827000000E+00 0.  1.
     999902    2    1    2    0    0  0.18959582703E-01 -0.13663472508E-01  0.58475827869E-02  0.10198395355E+01  0.10195549655E+01 0.  0.
     999903    2    3    3    0    0  0.61539004777E-02 -0.24475683995E-02  0.12918033728E+00  0.13107592778E+00  0.21200901465E-01 0.  0.
         14    1    1    2    0    0 -0.18959582703E-01  0.13663472508E-01 -0.58475827869E-02  0.24090464539E-01  0.00000000000E+00 0.  1.
     999901    1    3    3    0    0  0.12805682226E-01 -0.11215904109E-01 -0.12333275449E+00  0.88876360768E+00  0.88000000000E+00 0.  1.
        -11    1    4    4    0    0  0.95818453923E-02  0.67049641132E-02  0.53517622427E-01  0.54782892732E-01  0.51100000000E-03 0. -1.
         11    1    4    4    0    0 -0.34279449146E-02 -0.91525325127E-02  0.75662714850E-01  0.76293035051E-01  0.51100000000E-03 0.  1.
</event>
<event>
 8    1  0.1086486E+005  0.1043930E+01  0.7957747E-01            NaN
         13   -1    0    0    0    0  0.00000000000E+00  0.00000000000E+00  0.74505805969E-08  0.10566000000E+00  0.10566000000E+00 0.  1.
     999900   -1    0    0    0    0 -0.00000000000E+00 -0.00000000000E+00 -0.74505805969E-08  0.93827000000E+00  0.93827000000E+00 0. -1.
     999902    2    1    2    0    0  0.23457243215E-01  0.19945078103E-02 -0.22709768714E-02  0.10202788339E+01  0.10200046673E+01 0.  0.
     999903    2    3    3    0    0 -0.92346034136E-02 -0.10268669810E+00 -0.77161364664E-01  0.13031508079E+00  0.19957660669E-01 0.  0.
         14    1    1    2    0    0 -0.23457243215E-01 -0.19945078103E-02  0.22709768714E-02  0.23651166072E-01  0.00000000000E+00 0.  1.
     999901    1    3    3    0    0  0.32691846628E-01  0.10468120591E+00  0.74890387792E-01  0.88996375313E+00  0.88000000000E+00 0.  1.
        -11    1    4    4    0    0 -0.59354102520E-02 -0.34731870815E-01 -0.15512677836E-01  0.38502418623E-01  0.51100000000E-03 0. -1.
         11    1    4    4    0    0 -0.32991931617E-02 -0.67954827283E-01 -0.61648686827E-01  0.91812662172E-01  0.51100000000E-03 0.  1.
</event>
<event>
 8    1  0.1086486E+005  0.1043930E+01  0.7957747E-01            NaN
         13   -1    0    0    0    0  0.00000000000E+00  0.00000000000E+00  0.74505805969E-08  0.10566000000E+00  0.10566000000E+00 0. -1.
     999900   -1    0    0    0    0 -0.00000000000E+00 -0.00000000000E+00 -0.74505805969E-08  0.93827000000E+00  0.93827000000E+00 0.  1.
     999902    2    1    2    0    0  0.13485995841E-02  0.16760216976E-01 -0.16092485054E-01  0.10206557295E+01  0.10203903304E+01 0.  0.
     999903    2    3    3    0    0  0.26831378021E-01 -0.14095488177E-01 -0.12767696375E+00  0.13270722734E+00  0.19778662250E-01 0.  0.
         14    1    1    2    0    0 -0.13485995841E-02 -0.16760216976E-01  0.16092485054E-01  0.23274270539E-01  0.00000000000E+00 0. -1.
     999901    1    3    3    0    0 -0.25482778437E-01  0.30855705153E-01  0.11158447870E+00  0.88794850212E+00  0.88000000000E+00 0. -1.
        -11    1    4    4    0    0  0.21893297918E-01 -0.13342727193E-01 -0.65701171648E-01  0.70528362660E-01  0.51100000000E-03 0.  1.
         11    1    4    4    0    0  0.49380801039E-02 -0.75276098346E-03 -0.61975792107E-01  0.62178864677E-01  0.51100000000E-03 0. -1.
</event>
<event>
 8    1  0.1086486E+005  0.1043930E+01  0.7957747E-01            NaN
         13   -1    0    0    0    0  0.00000000000E+00  0.00000000000E+00  0.74505805969E-08  0.10566000000E+00  0.10566000000E+00 0.  1.
     999900   -1    0    0    0    0 -0.00000000000E+00 -0.00000000000E+00 -0.74505805969E-08  0.93827000000E+00  0.93827000000E+00 0. -1.
     999902    2    1    2    0    0 -0.62534298556E-02 -0.22947699978E-01  0.19923995607E-03  0.10201446681E+01  0.10198673452E+01 0.  0.
     999903    2    3    3    0    0  0.89953018542E-01 -0.90732964371E-01 -0.25361773993E-01  0.13194205141E+00  0.21011163257E-01 0.  0.
         14    1    1    2    0    0  0.62534298556E-02  0.22947699978E-01 -0.19923995607E-03  0.23785331946E-01  0.00000000000E+00 0.  1.
     999901    1    3    3    0    0 -0.96206448398E-01  0.67785264393E-01  0.25561013949E-01  0.88820261665E+00  0.88000000000E+00 0.  1.
        -11    1    4    4    0    0  0.90617593513E-02 -0.19239238869E-01 -0.72550935494E-02  0.22475793605E-01  0.51100000000E-03 0. -1.
         11    1    4    4    0    0  0.80891259191E-01 -0.71493725502E-01 -0.18106680443E-01  0.10946625780E+00  0.51100000000E-03 0.  1.
</event>
<event>
 8    1  0.1086486E+005  0.1043930E+01  0.7957747E-01            NaN
         13   -1    0    0    0    0  0.00000000000E+00  0.00000000000E+00  0.74505805969E-08  0.10566000000E+00  0.10566000000E+00 0. -1.
     999900   -1    0    0    0    0 -0.00000000000E+00 -0.00000000000E+00 -0.74505805969E-08  0.93827000000E+00  0.93827000000E+00 0. -1.
     999902    2    1    2    0    0 -0.11174673539E-02 -0.80841678570E-02  0.21497416829E-01  0.10209356217E+01  0.10206766394E+01 0.  0.
     999903    2    3    3    0    0 -0.10300825542E-01 -0.66337686953E-01  0.11563704073E+00  0.13395192661E+00  0.80248201350E-02 0.  0.
         14    1    1    2    0    0  0.11174673539E-02  0.80841678570E-02 -0.21497416829E-01  0.22994378303E-01  0.00000000000E+00 0.  1.
     999901    1    3    3    0    0  0.91833581877E-02  0.58253519096E-01 -0.94139623899E-01  0.88698369508E+00  0.88000000000E+00 0. -1.
        -11    1    4    4    0    0 -0.82676552427E-02 -0.27700903786E-01  0.50184128659E-01  0.57917200244E-01  0.51100000000E-03 0. -1.
         11    1    4    4    0    0 -0.20331702989E-02 -0.38636783167E-01  0.65452912069E-01  0.76034726370E-01  0.51100000000E-03 0.  1.
</event>
<event>
 8    1  0.1086486E+005  0.1043930E+01  0.7957747E-01            NaN
         13   -1    0    0    0    0  0.00000000000E+00  0.00000000000E+00  0.74505805969E-08  0.10566000000E+00  0.10566000000E+00 0. -1.
     999900   -1    0    0    0    0 -0.00000000000E+00 -0.00000000000E+00 -0.74505805969E-08  0.93827000000E+00  0.93827000000E+00 0.  1.
     999902    2    1    2    0    0 -0.21671984642E-01 -0.38887777918E-02 -0.66312225773E-02  0.10209349870E+01  0.10206759902E+01 0.  0.
     999903    2    3    3    0    0  0.24305830011E-01 -0.87148632261E-01  0.92434984741E-01  0.13028338493E+00  0.15616545904E-01 0.  0.
         14    1    1    2    0    0  0.21671984642E-01  0.38887777918E-02  0.66312225773E-02  0.22995013022E-01  0.00000000000E+00 0. -1.
     999901    1    3    3    0    0 -0.45977814652E-01  0.83259854470E-01 -0.99066207318E-01  0.89065160205E+00  0.88000000000E+00 0.  1.
        -11    1    4    4    0    0  0.48220407252E-02 -0.38419357623E-01  0.46723561331E-01  0.60684853311E-01  0.51100000000E-03 0. -1.
         11    1    4    4    0    0  0.19483789285E-01 -0.48729274639E-01  0.45711423410E-01  0.69598531615E-01  0.51100000000E-03 0.  1.
</event>
<event>
 8    1  0.1086486E+005  0.1043930E+01  0.7957747E-01            NaN
         13   -1    0    0    0    0  0.00000000000E+00  0.00000000000E+00  0.74505805969E-08  0.10566000000E+00  0.10566000000E+00 0.  1.
     999900   -1    0    0    0    0 -0.00000000000E+00 -0.00000000000E+00 -0.74505805969E-08  0.93827000000E+00  0.93827000000E+00 0. -1.
     999902    2    1    2    0    0 -0.91993563254E-02  0.17979146145E-01 -0.12378628215E-01  0.10202422756E+01  0.10199672507E+01 0.  0.
     999903    2    3    3    0    0 -0.32370330788E-01  0.12728232640E+00  0.29206032681E-02  0.13304548467E+00  0.21069934498E-01 0.  0.
         14    1    1    2    0    0  0.91993563254E-02 -0.17979146145E-01  0.12378628215E-01  0.23687724445E-01  0.00000000000E+00 0.  1.
     999901    1    3    3    0    0  0.23170974463E-01 -0.10930318025E+00 -0.15299231483E-01  0.88719679088E+00  0.88000000000E+00 0. -1.
        -11    1    4    4    0    0 -0.29151711811E-01  0.89766796653E-01 -0.51880764951E-02  0.94525538039E-01  0.51100000000E-03 0.  1.
         11    1    4    4    0    0 -0.32186189769E-02  0.37515529743E-01  0.81086797632E-02  0.38519946632E-01  0.51100000000E-03 0. -1.
</event>
<event>
 8    1  0.1086486E+005  0.1043930E+01  0.7957747E-01            NaN
         13   -1    0    0    0    0  0.00000000000E+00  0.00000000000E+00  0.74505805969E-08  0.10566000000E+00  0.10566000000E+00 0. -1.
     999900   -1    0    0    0    0 -0.00000000000E+00 -0.00000000000E+00 -0.74505805969E-08  0.93827000000E+00  0.93827000000E+00 0.  1.
     999902    2    1    2    0    0 -0.20905422309E-01 -0.20794557245E-02  0.90457908942E-02  0.10210567153E+01  0.10208004843E+01 0.  0.
     999903    2    3    3    0    0 -0.66528170901E-01 -0.98853326994E-01  0.56781852753E-01  0.13329247358E+00  0.18566823385E-01 0.  0.
         14    1    1    2    0    0  0.20905422309E-01  0.20794557245E-02 -0.90457908942E-02  0.22873284655E-01  0.00000000000E+00 0.  1.
     999901    1    3    3    0    0  0.45622748592E-01  0.96773871269E-01 -0.47736061859E-01  0.88776424176E+00  0.88000000000E+00 0.  1.
        -11    1    4    4    0    0 -0.48595330449E-01 -0.76041454409E-01  0.51141944804E-01  0.10372834024E+00  0.51100000000E-03 0. -1.
         11    1    4    4    0    0 -0.17932840452E-01 -0.22811872585E-01  0.56399079488E-02  0.29564133340E-01  0.51100000000E-03 0.  1.
</event>
<event>
 8    1  0.1086486E+005  0.1043930E+01  0.7957747E-01            NaN
         13   -1    0    0    0    0  0.00000000000E+00  0.00000000000E+00  0.74505805969E-08  0.10566000000E+00  0.10566000000E+00 0.  1.
     999900   -1    0    0    0    0 -0.00000000000E+00 -0.00000000000E+00 -0.74505805969E-08  0.93827000000E+00  0.93827000000E+00 0. -1.
     999902    2    1    2    0    0  0.98679017073E-02  0.87795448596E-02  0.20270464789E-01  0.10197360414E+01  0.10194489916E+01 0.  0.
     999903    2    3    3    0    0  0.52396005539E-01  0.11841803599E+00  0.11841212031E-01  0.13187327569E+00  0.21958458391E-01 0.  0.
         14    1    1    2    0    0 -0.98679017073E-02 -0.87795448596E-02 -0.20270464789E-01  0.24193958643E-01  0.00000000000E+00 0. -1.
     999901    1    3    3    0    0 -0.42528103831E-01 -0.10963849113E+00  0.84292527581E-02  0.88786276567E+00  0.88000000000E+00 0.  1.
        -11    1    4    4    0    0  0.19642777084E-01  0.50658127915E-01 -0.55787146478E-02  0.54621129552E-01  0.51100000000E-03 0.  1.
         11    1    4    4    0    0  0.32753228455E-01  0.67759908076E-01  0.17419926679E-01  0.77252146139E-01  0.51100000000E-03 0. -1.
</event>
<event>
 8    1  0.1086486E+005  0.1043930E+01  0.7957747E-01            NaN
         13   -1    0    0    0    0  0.00000000000E+00  0.00000000000E+00  0.74505805969E-08  0.10566000000E+00  0.10566000000E+00 0. -1.
     999900   -1    0    0    0    0 -0.00000000000E+00 -0.00000000000E+00 -0.74505805969E-08  0.93827000000E+00  0.93827000000E+00 0. -1.
     999902    2    1    2    0    0  0.10863722073E-01  0.24483903393E-01  0.43101970642E-02  0.10167995783E+01  0.10164375646E+01 0.  0.
     999903    2    3    3    0    0  0.31598363911E-01  0.12326142158E+00  0.22946717274E-01  0.13083443037E+00  0.19981533586E-01 0.  0.
         14    1    1    2    0    0 -0.10863722073E-01 -0.24483903393E-01 -0.43101970642E-02  0.27130421695E-01  0.00000000000E+00 0. -1.
     999901    1    3    3    0    0 -0.20734641838E-01 -0.98777518188E-01 -0.18636520210E-01  0.88596514794E+00  0.88000000000E+00 0.  1.
        -11    1    4    4    0    0  0.32559702176E-01  0.94599250409E-01  0.15949260780E-01  0.10131037669E+00  0.51100000000E-03 0. -1.
         11    1    4    4    0    0 -0.96133826530E-03  0.28662171171E-01  0.69974564936E-02  0.29524053683E-01  0.51100000000E-03 0.  1.
</event>
<event>
 8    1  0.1086486E+005  0.1043930E+01  0.7957747E-01            NaN
         13   -1    0    0    0    0  0.00000000000E+00  0.00000000000E+00  0.74505805969E-08  0.10566000000E+00  0.10566000000E+00 0. -1.
     999900   -1    0    0    0    0 -0.00000000000E+00 -0.00000000000E+00 -0.74505805969E-08  0.93827000000E+00  0.93827000000E+00 0.  1.
     999902    2    1    2    0    0 -0.21302962786E-01 -0.10204031979E-01 -0.13050834950E-02  0.10202732518E+01  0.10199989542E+01 0.  0.
     999903    2    3    3    0    0 -0.73871393699E-01 -0.23566049076E-02 -0.10776878926E+00  0.13226450034E+00  0.20426691311E-01 0.  0.
         14    1    1    2    0    0  0.21302962786E-01  0.10204031979E-01  0.13050834950E-02  0.23656748192E-01  0.00000000000E+00 0.  1.
     999901    1    3    3    0    0  0.52568430914E-01 -0.78474270714E-02  0.10646370576E+00  0.88800875147E+00  0.88000000000E+00 0. -1.
        -11    1    4    4    0    0 -0.25606972956E-01 -0.10103476098E-01 -0.33684600582E-01  0.43505295432E-01  0.51100000000E-03 0.  1.
         11    1    4    4    0    0 -0.48264420743E-01  0.77468711901E-02 -0.74084188677E-01  0.88759204908E-01  0.51100000000E-03 0. -1.
</event>
<event>
 8    1  0.1086486E+005  0.1043930E+01  0.7957747E-01            NaN
         13   -1    0    0    0    0  0.00000000000E+00  0.00000000000E+00  0.74505805969E-08  0.10566000000E+00  0.10566000000E+00 0.  1.
     999900   -1    0    0    0    0 -0.00000000000E+00 -0.00000000000E+00 -0.74505805969E-08  0.93827000000E+00  0.93827000000E+00 0. -1.
     999902    2    1    2    0    0 -0.72800276094E-02  0.21711551236E-01  0.75453724633E-02  0.10198193612E+01  0.10195343087E+01 0.  0.
     999903    2    3    3    0    0  0.12319489824E+00  0.87332250542E-02  0.33696681055E-01  0.12972047107E+00  0.20944739878E-01 0.  0.
         14    1    1    2    0    0  0.72800276094E-02 -0.21711551236E-01 -0.75453724633E-02  0.24110638828E-01  0.00000000000E+00 0. -1.
     999901    1    3    3    0    0 -0.13047492585E+00  0.12978326182E-01 -0.26151308592E-01  0.89009889010E+00  0.88000000000E+00 0. -1.
        -11    1    4    4    0    0  0.64302218143E-01  0.10511599699E-01  0.26579483214E-01  0.70370441489E-01  0.51100000000E-03 0.  1.
         11    1    4    4    0    0  0.58892680093E-01 -0.17783746452E-02  0.71171978416E-02  0.59350029579E-01  0.51100000000E-03 0. -1.
</event>
<event>
 8    1  0.1086486E+005  0.1043930E+01  0.7957747E-01            NaN
         13   -1    0    0    0    0  0.00000000000E+00  0.00000000000E+00  0.74505805969E-08  0.10566000000E+00  0.10566000000E+00 0.  1.
     999900   -1    0    0    0    0 -0.00000000000E+00 -0.00000000000E+00 -0.74505805969E-08  0.93827000000E+00  0.93827000000E+00 0. -1.
     999902    2    1    2    0    0  0.17753363475E-01  0.34994176410E-02  0.14034133360E-01  0.10210305516E+01  0.10207737274E+01 0.  0.
     999903    2    3    3    0    0 -0.10912181347E+00 -0.42994224798E-01 -0.48465156821E-01  0.12852557648E+00  0.20344012494E-01 0.  0.
         14    1    1    2    0    0 -0.17753363475E-01 -0.34994176410E-02 -0.14034133360E-01  0.22899448414E-01  0.00000000000E+00 0. -1.
     999901    1    3    3    0    0  0.12687517694E+00  0.46493642438E-01  0.62499290181E-01  0.89250497510E+00  0.88000000000E+00 0.  1.
        -11    1    4    4    0    0 -0.12234603076E-01 -0.16172497402E-02 -0.11495832049E-01  0.16873538001E-01  0.51100000000E-03 0. -1.
         11    1    4    4    0    0 -0.96887210390E-01 -0.41376975057E-01 -0.36969324772E-01  0.11165203848E+00  0.51100000000E-03 0.  1.
</event>
<event>
 8    1  0.1086486E+005  0.1043930E+01  0.7957747E-01            NaN
         13   -1    0    0    0    0  0.00000000000E+00  0.00000000000E+00  0.74505805969E-08  0.10566000000E+00  0.10566000000E+00 0. -1.
     999900   -1    0    0    0    0 -0.00000000000E+00 -0.00000000000E+00 -0.74505805969E-08  0.93827000000E+00  0.93827000000E+00 0. -1.
     999902    2    1    2    0    0 -0.14120854914E-02 -0.19209351751E-03 -0.24789147347E-01  0.10190999232E+01  0.10187973895E+01 0.  0.
     999903    2    3    3    0    0 -0.38880090372E-01  0.91263854761E-01  0.77690413762E-01  0.12765721487E+00  0.20489302227E-01 0.  0.
         14    1    1    2    0    0  0.14120854914E-02  0.19209351751E-03  0.24789147347E-01  0.24830076753E-01  0.00000000000E+00 0. -1.
     999901    1    3    3    0    0  0.37468004880E-01 -0.91455948279E-01 -0.10247956111E+00  0.89144270837E+00  0.88000000000E+00 0. -1.
        -11    1    4    4    0    0 -0.10676104283E-01  0.22999028290E-01  0.93556374235E-02  0.27031899259E-01  0.51100000000E-03 0. -1.
         11    1    4    4    0    0 -0.28203986088E-01  0.68264826471E-01  0.68334776339E-01  0.10062531562E+00  0.51100000000E-03 0.  1.
</event>
<event>
 8    1  0.1086486E+005  0.1043930E+01  0.7957747E-01            NaN
         13   -1    0    0    0    0  0.00000000000E+00  0.00000000000E+00  0.74505805969E-08  0.10566000000E+00  0.10566000000E+00 0. -1.
     999900   -1    0    0    0    0 -0.00000000000E+00 -0.00000000000E+00 -0.74505805969E-08  0.93827000000E+00  0.93827000000E+00 0.  1.
     999902    2    1    2    0    0  0.28395506017E-02  0.31634046632E-02  0.23326983940E-01  0.10202188559E+01  0.10199432805E+01 0.  0.
     999903    2    3    3    0    0 -0.36365711953E-01 -0.58537226974E-01 -0.10574112735E+00  0.12780493962E+00  0.20095885882E-01 0.  0.
         14    1    1    2    0    0 -0.28395506017E-02 -0.31634046632E-02 -0.23326983940E-01  0.23711144140E-01  0.00000000000E+00 0.  1.
     999901    1    3    3    0    0  0.39205262555E-01  0.61700631637E-01  0.12906811129E+00  0.89241391625E+00  0.88000000000E+00 0. -1.
        -11    1    4    4    0    0 -0.91803747178E-02 -0.99713864765E-02 -0.36675178611E-01  0.39102911342E-01  0.51100000000E-03 0.  1.
         11    1    4    4    0    0 -0.27185337235E-01 -0.48565840497E-01 -0.69065948738E-01  0.88702028274E-01  0.51100000000E-03 0. -1.
</event>
<event>
 8    1  0.1086486E+005  0.1043930E+01  0.7957747E-01            NaN
         13   -1    0    0    0    0  0.00000000000E+00  0.00000000000E+00  0.74505805969E-08  0.10566000000E+00  0.10566000000E+00 0.  1.
     999900   -1    0    0    0    0 -0.00000000000E+00 -0.00000000000E+00 -0.74505805969E-08  0.93827000000E+00  0.93827000000E+00 0.  1.
     999902    2    1    2    0    0  0.84054903338E-02  0.21652036187E-01 -0.45343481258E-03  0.10206992329E+01  0.10204348364E+01 0.  0.
     999903    2    3    3    0    0 -0.43617207920E-01 -0.69853781932E-01 -0.97417496037E-01  0.12913784683E+00  0.20109780548E-01 0.  0.
         14    1    1    2    0    0 -0.84054903338E-02 -0.21652036187E-01  0.45343481258E-03  0.23230767141E-01  0.00000000000E+00 0. -1.
     999901    1    3    3    0    0  0.52022698254E-01  0.91505818119E-01  0.96964061225E-01  0.89156138603E+00  0.88000000000E+00 0. -1.
        -11    1    4    4    0    0 -0.42909910019E-01 -0.58425828664E-01 -0.77221000700E-01  0.10591591903E+00  0.51100000000E-03 0. -1.
         11    1    4    4    0    0 -0.70729790130E-03 -0.11427953268E-01 -0.20196495337E-01  0.23221927808E-01  0.51100000000E-03 0.  1.
</event>
<event>
 8    1  0.1086486E+005  0.1043930E+01  0.7957747E-01            NaN
         13   -1    0    0    0    0  0.00000000000E+00  0.00000000000E+00  0.74505805969E-08  0.10566000000E+00  0.10566000000E+00 0. -1.
     999900   -1    0    0    0    0 -0.00000000000E+00 -0.00000000000E+00 -0.74505805969E-08  0.93827000000E+00  0.93827000000E+00 0.  1.
     999902    2    1    2    0    0  0.21422620572E-01  0.86216819073E-02  0.87149831838E-02  0.10192477594E+01  0.10189488613E+01 0.  0.
     999903    2    3    3    0    0 -0.67173499535E-01 -0.61500215450E-01 -0.86059900150E-01  0.12697614629E+00  0.20544580104E-01 0.  0.
         14    1    1    2    0    0 -0.21422620572E-01 -0.86216819073E-02 -0.87149831838E-02  0.24682240639E-01  0.00000000000E+00 0.  1.
     999901    1    3    3    0    0  0.88596120107E-01  0.70121897357E-01  0.94774883334E-01  0.89227161307E+00  0.88000000000E+00 0. -1.
        -11    1    4    4    0    0 -0.63632434422E-01 -0.57494340971E-01 -0.86211106308E-01  0.12160305064E+00  0.51100000000E-03 0.  1.
         11    1    4    4    0    0 -0.35410651131E-02 -0.40058744786E-02  0.15120615772E-03  0.53730956418E-02  0.51100000000E-03 0. -1.
</event>
<event>
 8    1  0.1086486E+005  0.1043930E+01  0.7957747E-01            NaN
         13   -1    0    0    0    0  0.00000000000E+00  0.00000000000E+00  0.74505805969E-08  0.10566000000E+00  0.10566000000E+00 0.  1.
     999900   -1    0    0    0    0 -0.00000000000E+00 -0.00000000000E+00 -0.74505805969E-08  0.93827000000E+00  0.93827000000E+00 0. -1.
     999902    2    1    2    0    0 -0.13315461499E-01  0.17295662353E-01 -0.80104620774E-02  0.10206790010E+01  0.10204141386E+01 0.  0.
     999903    2    3    3    0    0  0.74700009716E-01 -0.49847795315E-01 -0.91416527400E-01  0.12983022663E+00  0.20832957464E-01 0.  0.
         14    1    1    2    0    0  0.13315461499E-01 -0.17295662353E-01  0.80104620774E-02  0.23250998986E-01  0.00000000000E+00 0. -1.
     999901    1    3    3    0    0 -0.88015471215E-01  0.67143457668E-01  0.83406065322E-01  0.89084877438E+00  0.88000000000E+00 0.  1.
        -11    1    4    4    0    0  0.71174707503E-01 -0.39962211023E-01 -0.79535310125E-01  0.11396904832E+00  0.51100000000E-03 0.  1.
         11    1    4    4    0    0  0.35253022129E-02 -0.98855842917E-02 -0.11881217275E-01  0.15861178311E-01  0.51100000000E-03 0. -1.
</event>
<event>
 8    1  0.1086486E+005  0.1043930E+01  0.7957747E-01            NaN
         13   -1    0    0    0    0  0.00000000000E+00  0.00000000000E+00  0.74505805969E-08  0.10566000000E+00  0.10566000000E+00 0.  1.
     999900   -1    0    0    0    0 -0.00000000000E+00 -0.00000000000E+00 -0.74505805969E-08  0.93827000000E+00  0.93827000000E+00 0. -1.
     999902    2    1    2    0    0 -0.20892528189E-01 -0.15503019771E-01  0.68202723659E-02  0.10170346943E+01  0.10166790112E+01 0.  0.
     999903    2    3    3    0    0 -0.83454634665E-01  0.19449308620E-01 -0.93259249032E-01  0.12846753695E+00  0.21532971644E-01 0.  0.
         14    1    1    2    0    0  0.20892528189E-01  0.15503019771E-01 -0.68202723659E-02  0.26895305749E-01  0.00000000000E+00 0. -1.
     999901    1    3    3    0    0  0.62562106477E-01 -0.34952328392E-01  0.10007952140E+00  0.88856715730E+00  0.88000000000E+00 0.  1.
        -11    1    4    4    0    0 -0.37119859986E-01 -0.21112661213E-02 -0.41694091147E-01  0.55865909172E-01  0.51100000000E-03 0. -1.
         11    1    4    4    0    0 -0.46334774679E-01  0.21560574742E-01 -0.51565157885E-01  0.72601627781E-01  0.51100000000E-03 0.  1.
</event>
<event>
 8    1  0.1086486E+005  0.1043930E+01  0.7957747E-01            NaN
         13   -1    0    0    0    0  0.00000000000E+00  0.00000000000E+00  0.74505805969E-08  0.10566000000E+00  0.10566000000E+00 0. -1.
     999900   -1    0    0    0    0 -0.00000000000E+00 -0.00000000000E+00 -0.74505805969E-08  0.93827000000E+00  0.93827000000E+00 0. -1.
     999902    2    1    2    0    0 -0.12280567406E-01  0.55727232894E-02 -0.18710343485E-01  0.10208660772E+01  0.10206055081E+01 0.  0.
     999903    2    3    3    0    0  0.31632209384E-01  0.79930733795E-01 -0.99321886599E-01  0.13297212715E+00  0.20669556485E-01 0.  0.
         14    1    1    2    0    0  0.12280567406E-01 -0.55727232894E-02  0.18710343485E-01  0.23063922780E-01  0.00000000000E+00 0.  1.
     999901    1    3    3    0    0 -0.43912776790E-01 -0.74358010505E-01  0.80611543114E-01  0.88789395007E+00  0.88000000000E+00 0.  1.
        -11    1    4    4    0    0  0.23930542001E-01  0.65218349052E-01 -0.90714735651E-01  0.11426079064E+00  0.51100000000E-03 0. -1.
         11    1    4    4    0    0  0.77016673837E-02  0.14712384743E-01 -0.86071509475E-02  0.18711336503E-01  0.51100000000E-03 0.  1.
</event>
<event>
 8    1  0.1095468E+005  0.1043930E+01  0.7957747E-01            NaN
         13   -1    0    0    0    0  0.00000000000E+00  0.00000000000E+00  0.74505805969E-08  0.10566000000E+00  0.10566000000E+00 0.  1.
     999900   -1    0    0    0    0 -0.00000000000E+00 -0.00000000000E+00 -0.74505805969E-08  0.93827000000E+00  0.93827000000E+00 0.  1.
     999902    2    1    2    0    0 -0.46042667511E-02 -0.21620314993E-01  0.98836874593E-02  0.10197158601E+01  0.10194283255E+01 0.  0.
     999903    2    3    3    0    0  0.10900960954E+00  0.63429713194E-01 -0.10519449177E-01  0.12811173935E+00  0.19888073328E-01 0.  0.
         14    1    1    2    0    0  0.46042667511E-02  0.21620314993E-01 -0.98836874593E-02  0.24214139888E-01  0.00000000000E+00 0. -1.
     999901    1    3    3    0    0 -0.11361387629E+00 -0.85050028187E-01  0.20403136636E-01  0.89160412076E+00  0.88000000000E+00 0.  1.
        -11    1    4    4    0    0  0.67698951927E-01  0.41621162959E-01  0.28404778465E-02  0.79522315946E-01  0.51100000000E-03 0.  1.
         11    1    4    4    0    0  0.41310657609E-01  0.21808550235E-01 -0.13359927023E-01  0.48589423402E-01  0.51100000000E-03 0. -1.
</event>
<event>
 8    1  0.1086486E+005  0.1043930E+01  0.7957747E-01            NaN
         13   -1    0    0    0    0  0.00000000000E+00  0.00000000000E+00  0.74505805969E-08  0.10566000000E+00  0.10566000000E+00 0. -1.
     999900   -1    0    0    0    0 -0.00000000000E+00 -0.00000000000E+00 -0.74505805969E-08  0.93827000000E+00  0.93827000000E+00 0. -1.
     999902    2    1    2    0    0 -0.14876983525E-01 -0.24129028989E-01  0.61754068243E-02  0.10149184449E+01  0.10145037109E+01 0.  0.
     999903    2    3    3    0    0  0.70016157246E-01 -0.42685531935E-01  0.93848169478E-01  0.12630283485E+00  0.20508785044E-01 0.  0.
         14    1    1    2    0    0  0.14876983525E-01  0.24129028989E-01 -0.61754068243E-02  0.29011555081E-01  0.00000000000E+00 0.  1.
     999901    1    3    3    0    0 -0.84893140772E-01  0.18556502946E-01 -0.87672762654E-01  0.88861561007E+00  0.88000000000E+00 0. -1.
        -11    1    4    4    0    0 -0.12794424461E-02 -0.18521121493E-02  0.33827379346E-02  0.40952813481E-02  0.51100000000E-03 0.  1.
         11    1    4    4    0    0  0.71295599692E-01 -0.40833419786E-01  0.90465431543E-01  0.12220755350E+00  0.51100000000E-03 0. -1.
</event>
<event>
 8    1  0.1086486E+005  0.1043930E+01  0.7957747E-01            NaN
         13   -1    0    0    0    0  0.00000000000E+00  0.00000000000E+00  0.74505805969E-08  0.10566000000E+00  0.10566000000E+00 0. -1.
     999900   -1    0    0    0    0 -0.00000000000E+00 -0.00000000000E+00 -0.74505805969E-08  0.93827000000E+00  0.93827000000E+00 0. -1.
     999902    2    1    2    0    0  0.20590969726E-01  0.83643796227E-03 -0.96638799440E-02  0.10211686679E+01  0.10209149671E+01 0.  0.
     999903    2    3    3    0    0  0.43725483139E-01 -0.22610980486E-01 -0.12234564074E+00  0.13337242645E+00  0.19914166162E-01 0.  0.
         14    1    1    2    0    0 -0.20590969726E-01 -0.83643796227E-03  0.96638799440E-02  0.22761332085E-01  0.00000000000E+00 0. -1.
     999901    1    3    3    0    0 -0.23134513413E-01  0.23447418449E-01  0.11268176080E+00  0.88779624147E+00  0.88000000000E+00 0.  1.
        -11    1    4    4    0    0  0.25169080091E-01 -0.16207633542E-01 -0.48820319759E-01  0.57270015890E-01  0.51100000000E-03 0. -1.
         11    1    4    4    0    0  0.18556403048E-01 -0.64033469442E-02 -0.73525320984E-01  0.76102410559E-01  0.51100000000E-03 0.  1.
</event>
<event>
 8    1  0.1086486E+005  0.1043930E+01  0.7957747E-01            NaN
         13   -1    0    0    0    0  0.00000000000E+00  0.00000000000E+00  0.74505805969E-08  0.10566000000E+00  0.10566000000E+00 0. -1.
     999900   -1    0    0    0    0 -0.00000000000E+00 -0.00000000000E+00 -0.74505805969E-08  0.93827000000E+00  0.93827000000E+00 0.  1.
     999902    2    1    2    0    0 -0.13992712156E-01 -0.18954279951E-01  0.66081216940E-03  0.10203610078E+01  0.10200887651E+01 0.  0.
     999903    2    3    3    0    0  0.60201471505E-01 -0.13896002738E-02 -0.11314307435E+00  0.12976310779E+00  0.20272165923E-01 0.  0.
         14    1    1    2    0    0  0.13992712156E-01  0.18954279951E-01 -0.66081216940E-03  0.23568992229E-01  0.00000000000E+00 0.  1.
     999901    1    3    3    0    0 -0.74194183661E-01 -0.17564679678E-01  0.11380388651E+00  0.89059789998E+00  0.88000000000E+00 0.  1.
        -11    1    4    4    0    0  0.49950393504E-01  0.55369990208E-03 -0.10577935994E+00  0.11698240255E+00  0.51100000000E-03 0.  1.
         11    1    4    4    0    0  0.10251078001E-01 -0.19433001759E-02 -0.73637144027E-02  0.12780705245E-01  0.51100000000E-03 0. -1.
</event>
<event>
 8    1  0.1086486E+005  0.1043930E+01  0.7957747E-01            NaN
         13   -1    0    0    0    0  0.00000000000E+00  0.00000000000E+00  0.74505805969E-08  0.10566000000E+00  0.10566000000E+00 0.  1.
     999900   -1    0    0    0    0 -0.00000000000E+00 -0.00000000000E+00 -0.74505805969E-08  0.93827000000E+00  0.93827000000E+00 0. -1.
     999902    2    1    2    0    0  0.12408428953E-01  0.58982961924E-02  0.19720832148E-01  0.10198952288E+01  0.10196119887E+01 0.  0.
     999903    2    3    3    0    0  0.55893550356E-01  0.11330956350E+00 -0.27851549847E-01  0.13102444646E+00  0.20701463480E-01 0.  0.
         14    1    1    2    0    0 -0.12408428953E-01 -0.58982961924E-02 -0.19720832148E-01  0.24034771222E-01  0.00000000000E+00 0. -1.
     999901    1    3    3    0    0 -0.43485121403E-01 -0.10741126731E+00  0.47572381995E-01  0.88887078232E+00  0.88000000000E+00 0. -1.
        -11    1    4    4    0    0  0.40024931620E-01  0.90504839768E-01 -0.13904858357E-01  0.99933614863E-01  0.51100000000E-03 0. -1.
         11    1    4    4    0    0  0.15868618737E-01  0.22804723730E-01 -0.13946691490E-01  0.31090831599E-01  0.51100000000E-03 0.  1.
</event>
<event>
 7    1  0.1086486E+005  0.1043930E+01  0.7957747E-01            NaN
         13   -1    0    0    0    0  0.00000000000E+00  0.00000000000E+00  0.74505805969E-08  0.10566000000E+00  0.10566000000E+00 0.  1.
     999900   -1    0    0    0    0 -0.00000000000E+00 -0.00000000000E+00 -0.74505805969E-08  0.93827000000E+00  0.93827000000E+00 0.  1.
     999903    2    1    2    0    0 -0.43886489336E-01  0.78526073366E-01  0.36406870378E-01  0.99062723410E-01  0.19889565460E-01 0.  0.
         14    1    1    2    0    0  0.70446615982E-02 -0.60764212234E-01  0.12983464929E-01  0.62533887669E-01  0.00000000000E+00 0.  1.
     999901    1    1    2    0    0  0.36841827737E-01 -0.17761861132E-01 -0.49390335307E-01  0.88233338892E+00  0.88000000000E+00 0.  1.
        -11    1    3    3    0    0 -0.88134346943E-02  0.21934658182E-01  0.18761113294E-01  0.30183544419E-01  0.51100000000E-03 0. -1.
         11    1    3    3    0    0 -0.35073054641E-01  0.56591415185E-01  0.17645757084E-01  0.68879178991E-01  0.51100000000E-03 0.  1.
</event>
<event>
 8    1  0.1086486E+005  0.1043930E+01  0.7957747E-01            NaN
         13   -1    0    0    0    0  0.00000000000E+00  0.00000000000E+00  0.74505805969E-08  0.10566000000E+00  0.10566000000E+00 0. -1.
     999900   -1    0    0    0    0 -0.00000000000E+00 -0.00000000000E+00 -0.74505805969E-08  0.93827000000E+00  0.93827000000E+00 0. -1.
     999902    2    1    2    0    0  0.82963365870E-02  0.14716020852E-02  0.21824210330E-01  0.10205357492E+01  0.10202675749E+01 0.  0.
     999903    2    3    3    0    0  0.87124414449E-01 -0.65148675306E-01  0.73893845499E-01  0.13297539964E+00  0.19675950301E-01 0.  0.
         14    1    1    2    0    0 -0.82963365870E-02 -0.14716020852E-02 -0.21824210330E-01  0.23394250789E-01  0.00000000000E+00 0.  1.
     999901    1    3    3    0    0 -0.78828077862E-01  0.66620277392E-01 -0.52069635169E-01  0.88756034957E+00  0.88000000000E+00 0. -1.
        -11    1    4    4    0    0  0.52578707715E-01 -0.35973793764E-01  0.31839227974E-01  0.71222411514E-01  0.51100000000E-03 0. -1.
         11    1    4    4    0    0  0.34545706733E-01 -0.29174881542E-01  0.42054617525E-01  0.61752988129E-01  0.51100000000E-03 0.  1.
</event>
<event>
 8    1  0.1086486E+005  0.1043930E+01  0.7957747E-01            NaN
         13   -1    0    0    0    0  0.00000000000E+00  0.00000000000E+00  0.74505805969E-08  0.10566000000E+00  0.10566000000E+00 0. -1.
     999900   -1    0    0    0    0 -0.00000000000E+00 -0.00000000000E+00 -0.74505805969E-08  0.93827000000E+00  0.93827000000E+00 0. -1.
     999902    2    1    2    0    0  0.12737518499E-01  0.21633222399E-02  0.19086029128E-01  0.10208822051E+01  0.10206220044E+01 0.  0.
     999903    2    3    3    0    0 -0.26125922264E-01  0.91256849236E-01 -0.85584574381E-01  0.12936442133E+00  0.20001444656E-01 0.  0.
         14    1    1    2    0    0 -0.12737518499E-01 -0.21633222399E-02 -0.19086029128E-01  0.23047794873E-01  0.00000000000E+00 0.  1.
     999901    1    3    3    0    0  0.38863440763E-01 -0.89093526996E-01  0.10467060351E+00  0.89151778379E+00  0.88000000000E+00 0.  1.
        -11    1    4    4    0    0 -0.16098582027E-01  0.80827996786E-01 -0.70492739373E-01  0.10845191023E+00  0.51100000000E-03 0. -1.
         11    1    4    4    0    0 -0.10027340236E-01  0.10428852450E-01 -0.15091835008E-01  0.20912511101E-01  0.51100000000E-03 0.  1.
</event>
<event>
 8    1  0.1086486E+005  0.1043930E+01  0.7957747E-01            NaN
         13   -1    0    0    0    0  0.00000000000E+00  0.00000000000E+00  0.74505805969E-08  0.10566000000E+00  0.10566000000E+00 0. -1.
     999900   -1    0    0    0    0 -0.00000000000E+00 -0.00000000000E+00 -0.74505805969E-08  0.93827000000E+00  0.93827000000E+00 0.  1.
     999902    2    1    2    0    0  0.72099234182E-02 -0.17945103140E-01  0.13169668131E-01  0.10205323531E+01  0.10202641000E+01 0.  0.
     999903    2    3    3    0    0  0.56823731332E-01 -0.38862838570E-01 -0.10893922780E+00  0.13047074620E+00  0.20386358102E-01 0.  0.
         14    1    1    2    0    0 -0.72099234182E-02  0.17945103140E-01 -0.13169668131E-01  0.23397646913E-01  0.00000000000E+00 0.  1.
     999901    1    3    3    0    0 -0.49613807914E-01  0.20917735430E-01  0.12210889593E+00  0.89006160689E+00  0.88000000000E+00 0. -1.
        -11    1    4    4    0    0  0.18636120336E-01 -0.15181873391E-01 -0.56552326430E-01  0.61450964243E-01  0.51100000000E-03 0.  1.
         11    1    4    4    0    0  0.38187610997E-01 -0.23680965179E-01 -0.52386901367E-01  0.69019781956E-01  0.51100000000E-03 0. -1.
</event>
<event>
 8    1  0.1086486E+005  0.1043930E+01  0.7957747E-01            NaN
         13   -1    0    0    0    0  0.00000000000E+00  0.00000000000E+00  0.74505805969E-08  0.10566000000E+00  0.10566000000E+00 0.  1.
     999900   -1    0    0    0    0 -0.00000000000E+00 -0.00000000000E+00 -0.74505805969E-08  0.93827000000E+00  0.93827000000E+00 0.  1.
     999902    2    1    2    0    0  0.10267335494E-01  0.12446001392E-01  0.20377477888E-01  0.10179384103E+01  0.10176065273E+01 0.  0.
     999903    2    3    3    0    0 -0.86978885319E-01 -0.87351091074E-01 -0.18179521831E-01  0.12614082715E+00  0.19633483061E-01 0.  0.
         14    1    1    2    0    0 -0.10267335494E-01 -0.12446001392E-01 -0.20377477888E-01  0.25991589676E-01  0.00000000000E+00 0. -1.
     999901    1    3    3    0    0  0.97246220813E-01  0.99797092466E-01  0.38556999719E-01  0.89179758317E+00  0.88000000000E+00 0.  1.
        -11    1    4    4    0    0 -0.75446945540E-01 -0.74560384772E-01 -0.85873201073E-02  0.10642131251E+00  0.51100000000E-03 0.  1.
         11    1    4    4    0    0 -0.11531939778E-01 -0.12790706302E-01 -0.95922017234E-02  0.19719514640E-01  0.51100000000E-03 0. -1.
</event>
<event>
 8    1  0.1086486E+005  0.1043930E+01  0.7957747E-01            NaN
         13   -1    0    0    0    0  0.00000000000E+00  0.00000000000E+00  0.74505805969E-08  0.10566000000E+00  0.10566000000E+00 0.  1.
     999900   -1    0    0    0    0 -0.00000000000E+00 -0.00000000000E+00 -0.74505805969E-08  0.93827000000E+00  0.93827000000E+00 0.  1.
     999902    2    1    2    0    0 -0.20037905819E-01  0.12100120831E-01  0.39810103572E-02  0.10201859684E+01  0.10199096191E+01 0.  0.
     999903    2    3    3    0    0 -0.53708708362E-01  0.11609232265E+00  0.30739530246E-01  0.13301962583E+00  0.19678653468E-01 0.  0.
         14    1    1    2    0    0  0.20037905819E-01 -0.12100120831E-01 -0.39810103572E-02  0.23744031613E-01  0.00000000000E+00 0.  1.
     999901    1    3    3    0    0  0.33670802543E-01 -0.10399220182E+00 -0.26758519889E-01  0.88716634256E+00  0.88000000000E+00 0.  1.
        -11    1    4    4    0    0 -0.28592474853E-01  0.42241262296E-01  0.17292369204E-01  0.53862241063E-01  0.51100000000E-03 0. -1.
         11    1    4    4    0    0 -0.25116233509E-01  0.73851060358E-01  0.13447161042E-01  0.79157384765E-01  0.51100000000E-03 0.  1.
</event>
<event>
 8    1  0.1086486E+005  0.1043930E+01  0.7957747E-01            NaN
         13   -1    0    0    0    0  0.00000000000E+00  0.00000000000E+00  0.74505805969E-08  0.10566000000E+00  0.10566000000E+00 0. -1.
     999900   -1    0    0    0    0 -0.00000000000E+00 -0.00000000000E+00 -0.74505805969E-08  0.93827000000E+00  0.93827000000E+00 0. -1.
     999902    2    1    2    0    0  0.17213969785E-01 -0.22251436563E-01  0.35040903579E-02  0.10155799412E+01  0.10151841661E+01 0.  0.
     999903    2    3    3    0    0  0.59683119500E-01  0.10254551430E-01 -0.11026704329E+00  0.12664566984E+00  0.14597063923E-01 0.  0.
         14    1    1    2    0    0 -0.17213969785E-01  0.22251436563E-01 -0.35040903579E-02  0.28350058803E-01  0.00000000000E+00 0.  1.
     999901    1    3    3    0    0 -0.42469149715E-01 -0.32505987993E-01  0.11377113365E+00  0.88893427135E+00  0.88000000000E+00 0.  1.
        -11    1    4    4    0    0  0.29229162126E-01  0.85975062654E-02 -0.68059046512E-01  0.74569135477E-01  0.51100000000E-03 0. -1.
         11    1    4    4    0    0  0.30453957373E-01  0.16570451646E-02 -0.42207996782E-01  0.52076534368E-01  0.51100000000E-03 0.  1.
</event>
<event>
 8    1  0.1086486E+005  0.1043930E+01  0.7957747E-01            NaN
         13   -1    0    0    0    0  0.00000000000E+00  0.00000000000E+00  0.74505805969E-08  0.10566000000E+00  0.10566000000E+00 0.  1.
     999900   -1    0    0    0    0 -0.00000000000E+00 -0.00000000000E+00 -0.74505805969E-08  0.93827000000E+00  0.93827000000E+00 0.  1.
     999902    2    1    2    0    0 -0.26727778698E-01 -0.15822076926E-02  0.11840410178E-01  0.10146541935E+01  0.10142317583E+01 0.  0.
     999903    2    3    3    0    0 -0.82634276993E-01 -0.32529969631E-01 -0.88096124710E-01  0.12669551676E+00  0.20104828275E-01 0.  0.
         14    1    1    2    0    0  0.26727778698E-01  0.15822076926E-02 -0.11840410178E-01  0.29275806539E-01  0.00000000000E+00 0.  1.
     999901    1    3    3    0    0  0.55906498295E-01  0.30947761939E-01  0.99936534889E-01  0.88795867670E+00  0.88000000000E+00 0. -1.
        -11    1    4    4    0    0 -0.46821872846E-01 -0.17104384582E-01 -0.62933928869E-01  0.80285666670E-01  0.51100000000E-03 0.  1.
         11    1    4    4    0    0 -0.35812404148E-01 -0.15425585049E-01 -0.25162195841E-01  0.46409850091E-01  0.51100000000E-03 0. -1.
</event>
<event>
 8    1  0.1086486E+005  0.1043930E+01  0.7957747E-01            NaN
         13   -1    0    0    0    0  0.00000000000E+00  0.00000000000E+00  0.74505805969E-08  0.10566000000E+00  0.10566000000E+00 0.  1.
     999900   -1    0    0    0    0 -0.00000000000E+00 -0.00000000000E+00 -0.74505805969E-08  0.93827000000E+00  0.93827000000E+00 0. -1.
     999902    2    1    2    0    0  0.18961175276E-01 -0.13661184836E-01  0.54474495740E-02  0.10199335660E+01  0.10196512395E+01 0.  0.
     999903    2    3    3    0    0 -0.96386115860E-01  0.27916151997E-01 -0.76394858522E-01  0.12767136466E+00  0.19854673806E-01 0.  0.
         14    1    1    2    0    0 -0.18961175276E-01  0.13661184836E-01 -0.54474495740E-02  0.23996434023E-01  0.00000000000E+00 0. -1.
     999901    1    3    3    0    0  0.11534729114E+00 -0.41577336833E-01  0.81842308096E-01  0.89226220132E+00  0.88000000000E+00 0. -1.
        -11    1    4    4    0    0 -0.49163985120E-01  0.24505297133E-01 -0.41906714317E-01  0.69094434265E-01  0.51100000000E-03 0. -1.
         11    1    4    4    0    0 -0.47222130739E-01  0.34108548633E-02 -0.34488144204E-01  0.58576930392E-01  0.51100000000E-03 0.  1.
</event>
<event>
 8    1  0.1086486E+005  0.1043930E+01  0.7957747E-01            NaN
         13   -1    0    0    0    0  0.00000000000E+00  0.00000000000E+00  0.74505805969E-08  0.10566000000E+00  0.10566000000E+00 0. -1.
     999900   -1    0    0    0    0 -0.00000000000E+00 -0.00000000000E+00 -0.74505805969E-08  0.93827000000E+00  0.93827000000E+00 0. -1.
     999902    2    1    2    0    0  0.21405410611E-01 -0.19278372387E-02  0.70754758361E-02  0.10213032345E+01  0.10210525580E+01 0.  0.
     999903    2    3    3    0    0  0.10448101346E+00 -0.73980080566E-01 -0.32186609673E-01  0.13359010913E+00  0.20518404440E-01 0.  0.
         14    1    1    2    0    0 -0.21405410611E-01  0.19278372387E-02 -0.70754758361E-02  0.22626765526E-01  0.00000000000E+00 0.  1.
     999901    1    3    3    0    0 -0.83075602845E-01  0.72052243327E-01  0.39262085509E-01  0.88771312535E+00  0.88000000000E+00 0.  1.
        -11    1    4    4    0    0  0.83564271863E-01 -0.57992681610E-01 -0.16808748306E-01  0.10309672057E+00  0.51100000000E-03 0. -1.
         11    1    4    4    0    0  0.20916741593E-01 -0.15987398956E-01 -0.15377861366E-01  0.30493388553E-01  0.51100000000E-03 0.  1.
</event>
<event>
 8    1  0.1086486E+005  0.1043930E+01  0.7957747E-01            NaN
         13   -1    0    0    0    0  0.00000000000E+00  0.00000000000E+00  0.74505805969E-08  0.10566000000E+00  0.10566000000E+00 0. -1.
     999900   -1    0    0    0    0 -0.00000000000E+00 -0.00000000000E+00 -0.74505805969E-08  0.93827000000E+00  0.93827000000E+00 0. -1.
     999902    2    1    2    0    0 -0.38763479145E-02 -0.16451130754E-01 -0.16696146941E-01  0.10201723255E+01  0.10198956547E+01 0.  0.
     999903    2    3    3    0    0  0.39388052736E-02  0.12093948516E+00  0.36578548759E-01  0.12788568366E+00  0.19361936807E-01 0.  0.
         14    1    1    2    0    0  0.38763479145E-02  0.16451130754E-01  0.16696146941E-01  0.23757674527E-01  0.00000000000E+00 0. -1.
     999901    1    3    3    0    0 -0.78151531881E-02 -0.13739061592E+00 -0.53274695700E-01  0.89228664182E+00  0.88000000000E+00 0. -1.
        -11    1    4    4    0    0 -0.18179207674E-02  0.42036616589E-01  0.38013632160E-02  0.42250366311E-01  0.51100000000E-03 0.  1.
         11    1    4    4    0    0  0.57567260410E-02  0.78902868574E-01  0.32777185543E-01  0.85635317346E-01  0.51100000000E-03 0. -1.
</event>
<event>
 8    1  0.1086486E+005  0.1043930E+01  0.7957747E-01            NaN
         13   -1    0    0    0    0  0.00000000000E+00  0.00000000000E+00  0.74505805969E-08  0.10566000000E+00  0.10566000000E+00 0. -1.
     999900   -1    0    0    0    0 -0.00000000000E+00 -0.00000000000E+00 -0.74505805969E-08  0.93827000000E+00  0.93827000000E+00 0.  1.
     999902    2    1    2    0    0  0.10711230013E-01 -0.13274986586E-01  0.15865292176E-01  0.10206348672E+01  0.10203689866E+01 0.  0.
     999903    2    3    3    0    0  0.12417222663E+00 -0.39449857783E-01 -0.12806504843E-01  0.13250166007E+00  0.20436492099E-01 0.  0.
         14    1    1    2    0    0 -0.10711230013E-01  0.13274986586E-01 -0.15865292176E-01  0.23295132820E-01  0.00000000000E+00 0.  1.
     999901    1    3    3    0    0 -0.11346099661E+00  0.26174871197E-01  0.28671797019E-01  0.88813320711E+00  0.88000000000E+00 0. -1.
        -11    1    4    4    0    0  0.44372491908E-01 -0.75189178255E-02 -0.11858240960E-01  0.46543862786E-01  0.51100000000E-03 0.  1.
         11    1    4    4    0    0  0.79799734719E-01 -0.31930939958E-01 -0.94826388319E-03  0.85957797280E-01  0.51100000000E-03 0. -1.
</event>
<event>
 8    1  0.1086486E+005  0.1043930E+01  0.7957747E-01            NaN
         13   -1    0    0    0    0  0.00000000000E+00  0.00000000000E+00  0.74505805969E-08  0.10566000000E+00  0.10566000000E+00 0.  1.
     999900   -1    0    0    0    0 -0.00000000000E+00 -0.00000000000E+00 -0.74505805969E-08  0.93827000000E+00  0.93827000000E+00 0. -1.
     999902    2    1    2    0    0 -0.18314384892E-01 -0.17353357394E-01  0.76498167832E-02  0.10175657173E+01  0.10172241216E+01 0.  0.
     999903    2    3    3    0    0  0.48971477955E-01 -0.11687698053E+00  0.16062725133E-01  0.12936353538E+00  0.20456757202E-01 0.  0.
         14    1    1    2    0    0  0.18314384892E-01  0.17353357394E-01 -0.76498167832E-02  0.26364282725E-01  0.00000000000E+00 0. -1.
     999901    1    3    3    0    0 -0.67285862847E-01  0.99523623138E-01 -0.84129083501E-02  0.88820218190E+00  0.88000000000E+00 0.  1.
        -11    1    4    4    0    0  0.44760186811E-01 -0.92144351017E-01  0.69900638423E-02  0.10267997790E+00  0.51100000000E-03 0. -1.
         11    1    4    4    0    0  0.42112911442E-02 -0.24732629515E-01  0.90726612910E-02  0.26683557479E-01  0.51100000000E-03 0.  1.
</event>
<event>
 8    1  0.1086486E+005  0.1043930E+01  0.7957747E-01            NaN
         13   -1    0    0    0    0  0.00000000000E+00  0.00000000000E+00  0.74505805969E-08  0.10566000000E+00  0.10566000000E+00 0. -1.
     999900   -1    0    0    0    0 -0.00000000000E+00 -0.00000000000E+00 -0.74505805969E-08  0.93827000000E+00  0.93827000000E+00 0.  1.
     999902    2    1    2    0    0 -0.18050249593E-01  0.10270356921E-01 -0.12044169945E-01  0.10199226309E+01  0.10196400440E+01 0.  0.
     999903    2    3    3    0    0  0.10791328712E+00 -0.64370257349E-01 -0.12907505395E-01  0.12782466586E+00  0.19589128068E-01 0.  0.
         14    1    1    2    0    0  0.18050249593E-01 -0.10270356921E-01  0.12044169945E-01  0.24007369104E-01  0.00000000000E+00 0.  1.
     999901    1    3    3    0    0 -0.12596353671E+00  0.74640614270E-01  0.86333545077E-03  0.89209796504E+00  0.88000000000E+00 0.  1.
        -11    1    4    4    0    0  0.57895955532E-01 -0.26378306079E-01 -0.13356041042E-01  0.65010781043E-01  0.51100000000E-03 0.  1.
         11    1    4    4    0    0  0.50017331584E-01 -0.37991951270E-01  0.44853564718E-03  0.62813884813E-01  0.51100000000E-03 0. -1.
</event>
<event>
 8    1  0.1086486E+005  0.1043930E+01  0.7957747E-01            NaN
         13   -1    0    0    0    0  0.00000000000E+00  0.00000000000E+00  0.74505805969E-08  0.10566000000E+00  0.10566000000E+00 0.  1.
     999900   -1    0    0    0    0 -0.00000000000E+00 -0.00000000000E+00 -0.74505805969E-08  0.93827000000E+00  0.93827000000E+00 0.  1.
     999902    2    1    2    0    0  0.14804933689E-02 -0.11919886700E-01  0.20284987730E-01  0.10203555162E+01  0.10200831452E+01 0.  0.
     999903    2    3    3    0    0  0.76107061677E-01 -0.72622987463E-01 -0.73762579940E-01  0.13013142299E+00  0.20661217388E-01 0.  0.
         14    1    1    2    0    0 -0.14804933689E-02  0.11919886700E-01 -0.20284987730E-01  0.23574483807E-01  0.00000000000E+00 0. -1.
     999901    1    3    3    0    0 -0.74626568308E-01  0.60703100763E-01  0.94047567671E-01  0.89022409321E+00  0.88000000000E+00 0.  1.
        -11    1    4    4    0    0  0.55966855855E-01 -0.61395206557E-01 -0.64902120183E-01  0.10542393783E+00  0.51100000000E-03 0.  1.
         11    1    4    4    0    0  0.20140205822E-01 -0.11227780906E-01 -0.88604597574E-02  0.24707485156E-01  0.51100000000E-03 0. -1.
</event>
<event>
 8    1  0.1086486E+005  0.1043930E+01  0.7957747E-01            NaN
         13   -1    0    0    0    0  0.00000000000E+00  0.00000000000E+00  0.74505805969E-08  0.10566000000E+00  0.10566000000E+00 0. -1.
     999900   -1    0    0    0    0 -0.00000000000E+00 -0.00000000000E+00 -0.74505805969E-08  0.93827000000E+00  0.93827000000E+00 0. -1.
     999902    2    1    2    0    0  0.22821807733E-01  0.35548286954E-02 -0.15130462637E-02  0.10207834879E+01  0.10205210277E+01 0.  0.
     999903    2    3    3    0    0 -0.93664469211E-01  0.85288602940E-01  0.14703604067E-01  0.12920486412E+00  0.20749032621E-01 0.  0.
         14    1    1    2    0    0 -0.22821807733E-01 -0.35548286954E-02  0.15130462637E-02  0.23146512140E-01  0.00000000000E+00 0. -1.
     999901    1    3    3    0    0  0.11648627694E+00 -0.81733774245E-01 -0.16216650331E-01  0.89157862374E+00  0.88000000000E+00 0. -1.
        -11    1    4    4    0    0 -0.50100982132E-01  0.38944826799E-01  0.16513676286E-01  0.65572635836E-01  0.51100000000E-03 0.  1.
         11    1    4    4    0    0 -0.43563487080E-01  0.46343776141E-01 -0.18100722186E-02  0.63632228281E-01  0.51100000000E-03 0. -1.
</event>
<event>
 8    1  0.1086486E+005  0.1043930E+01  0.7957747E-01            NaN
         13   -1    0    0    0    0  0.00000000000E+00  0.00000000000E+00  0.74505805969E-08  0.10566000000E+00  0.10566000000E+00 0. -1.
     999900   -1    0    0    0    0 -0.00000000000E+00 -0.00000000000E+00 -0.74505805969E-08  0.93827000000E+00  0.93827000000E+00 0. -1.
     999902    2    1    2    0    0 -0.12440110839E-01 -0.20135322518E-01 -0.41654880562E-02  0.10198979618E+01  0.10196147869E+01 0.  0.
     999903    2    3    3    0    0 -0.74255981178E-01 -0.10661030915E+00 -0.22545483164E-01  0.13331071319E+00  0.19589249139E-01 0.  0.
         14    1    1    2    0    0  0.12440110839E-01  0.20135322518E-01  0.41654880562E-02  0.24032038226E-01  0.00000000000E+00 0.  1.
     999901    1    3    3    0    0  0.61815870340E-01  0.86474986629E-01  0.18379995108E-01  0.88658724859E+00  0.88000000000E+00 0.  1.
        -11    1    4    4    0    0 -0.20616632894E-01 -0.17746626718E-01 -0.58260249154E-03  0.27213762298E-01  0.51100000000E-03 0. -1.
         11    1    4    4    0    0 -0.53639348284E-01 -0.88863682429E-01 -0.21962880672E-01  0.10609695089E+00  0.51100000000E-03 0.  1.
</event>
<event>
 8    1  0.1086486E+005  0.1043930E+01  0.7957747E-01            NaN
         13   -1    0    0    0    0  0.00000000000E+00  0.00000000000E+00  0.74505805969E-08  0.10566000000E+00  0.10566000000E+00 0.  1.
     999900   -1    0    0    0    0 -0.00000000000E+00 -0.00000000000E+00 -0.74505805969E-08  0.93827000000E+00  0.93827000000E+00 0.  1.
     999902    2    1    2    0    0  0.15284790379E-01 -0.17062431316E-01  0.46561942302E-02  0.10205541252E+01  0.10202863769E+01 0.  0.
     999903    2    3    3    0    0  0.15659010019E-01  0.61879602367E-01 -0.11102174335E+00  0.12947984658E+00  0.19102706348E-01 0.  0.
         14    1    1    2    0    0 -0.15284790379E-01  0.17062431316E-01 -0.46561942302E-02  0.23375874830E-01  0.00000000000E+00 0. -1.
     999901    1    3    3    0    0 -0.37421963962E-03 -0.78942033683E-01  0.11567793758E+00  0.89107427859E+00  0.88000000000E+00 0. -1.
        -11    1    4    4    0    0  0.57198920970E-03  0.36314933442E-01 -0.52251910469E-01  0.63636662634E-01  0.51100000000E-03 0. -1.
         11    1    4    4    0    0  0.15087020809E-01  0.25564668924E-01 -0.58769832882E-01  0.65843183946E-01  0.51100000000E-03 0.  1.
</event>
<event>
 8    1  0.1086486E+005  0.1043930E+01  0.7957747E-01            NaN
         13   -1    0    0    0    0  0.00000000000E+00  0.00000000000E+00  0.74505805969E-08  0.10566000000E+00  0.10566000000E+00 0.  1.
     999900   -1    0    0    0    0 -0.00000000000E+00 -0.00000000000E+00 -0.74505805969E-08  0.93827000000E+00  0.93827000000E+00 0. -1.
     999902    2    1    2    0    0 -0.48402792491E-02 -0.45559333229E-02 -0.21739626581E-01  0.10211968481E+01  0.10209437822E+01 0.  0.
     999903    2    3    3    0    0  0.57495089616E-01 -0.16784613252E-01 -0.11768104953E+00  0.13370600563E+00  0.21001379721E-01 0.  0.
         14    1    1    2    0    0  0.48402792491E-02  0.45559333229E-02  0.21739626581E-01  0.22733151905E-01  0.00000000000E+00 0.  1.
     999901    1    3    3    0    0 -0.62335368865E-01  0.12228679929E-01  0.95941422951E-01  0.88749084247E+00  0.88000000000E+00 0. -1.
        -11    1    4    4    0    0  0.14063310904E-01 -0.36019630908E-02 -0.12558699097E-01  0.19202419006E-01  0.51100000000E-03 0. -1.
         11    1    4    4    0    0  0.43431778713E-01 -0.13182650161E-01 -0.10512235043E+00  0.11450358662E+00  0.51100000000E-03 0.  1.
</event>
<event>
 8    1  0.1086486E+005  0.1043930E+01  0.7957747E-01            NaN
         13   -1    0    0    0    0  0.00000000000E+00  0.00000000000E+00  0.74505805969E-08  0.10566000000E+00  0.10566000000E+00 0. -1.
     999900   -1    0    0    0    0 -0.00000000000E+00 -0.00000000000E+00 -0.74505805969E-08  0.93827000000E+00  0.93827000000E+00 0.  1.
     999902    2    1    2    0    0 -0.15603383323E-02  0.11368695483E-01 -0.20169237593E-01  0.10207248273E+01  0.10204610199E+01 0.  0.
     999903    2    3    3    0    0 -0.61258373505E-01 -0.11261929927E+00 -0.96484492995E-02  0.12996808994E+00  0.19050378902E-01 0.  0.
         14    1    1    2    0    0  0.15603383323E-02 -0.11368695483E-01  0.20169237593E-01  0.23205172651E-01  0.00000000000E+00 0. -1.
     999901    1    3    3    0    0  0.59698035172E-01  0.12398799476E+00 -0.10520788293E-01  0.89075673741E+00  0.88000000000E+00 0. -1.
        -11    1    4    4    0    0 -0.20055335119E-01 -0.54148484252E-01 -0.89363628460E-02  0.58432820533E-01  0.51100000000E-03 0. -1.
         11    1    4    4    0    0 -0.41203038385E-01 -0.58470815022E-01 -0.71208645348E-03  0.71535269411E-01  0.51100000000E-03 0.  1.
</event>
<event>
 8    1  0.1086486E+005  0.1043930E+01  0.7957747E-01            NaN
         13   -1    0    0    0    0  0.00000000000E+00  0.00000000000E+00  0.74505805969E-08  0.10566000000E+00  0.10566000000E+00 0.  1.
     999900   -1    0    0    0    0 -0.00000000000E+00 -0.00000000000E+00 -0.74505805969E-08  0.93827000000E+00  0.93827000000E+00 0. -1.
     999902    2    1    2    0    0  0.10450137428E-01  0.96885459327E-02  0.19405845783E-01  0.10198538677E+01  0.10195696403E+01 0.  0.
     999903    2    3    3    0    0 -0.19532307342E-01 -0.69769112382E-01  0.10780453145E+00  0.13135693803E+00  0.19585405118E-01 0.  0.
         14    1    1    2    0    0 -0.10450137428E-01 -0.96885459327E-02 -0.19405845783E-01  0.24076132270E-01  0.00000000000E+00 0.  1.
     999901    1    3    3    0    0  0.29982444770E-01  0.79457658314E-01 -0.88398685672E-01  0.88849692970E+00  0.88000000000E+00 0. -1.
        -11    1    4    4    0    0 -0.15010704855E-01 -0.52305529747E-01  0.64173118985E-01  0.84140596763E-01  0.51100000000E-03 0. -1.
         11    1    4    4    0    0 -0.45216024873E-02 -0.17463582635E-01  0.43631412469E-01  0.47216341266E-01  0.51100000000E-03 0.  1.
</event>
<event>
 8    1  0.1086486E+005  0.1043930E+01  0.7957747E-01            NaN
         13   -1    0    0    0    0  0.00000000000E+00  0.00000000000E+00  0.74505805969E-08  0.10566000000E+00  0.10566000000E+00 0. -1.
     999900   -1    0    0    0    0 -0.00000000000E+00 -0.00000000000E+00 -0.74505805969E-08  0.93827000000E+00  0.93827000000E+00 0. -1.
     999902    2    1    2    0    0 -0.21628245047E-01  0.10518305178E-01 -0.35389585487E-02  0.10196207434E+01  0.10193309180E+01 0.  0.
     999903    2    3    3    0    0 -0.54515869314E-01 -0.10750797179E+00  0.44019583735E-01  0.12986031902E+00  0.19900620606E-01 0.  0.
         14    1    1    2    0    0  0.21628245047E-01 -0.10518305178E-01  0.35389585487E-02  0.24309256575E-01  0.00000000000E+00 0.  1.
     999901    1    3    3    0    0  0.32887624267E-01  0.11802627696E+00 -0.47558542283E-01  0.88976042440E+00  0.88000000000E+00 0. -1.
        -11    1    4    4    0    0 -0.18261155674E-02 -0.13343717300E-01  0.97850983840E-02  0.16655292277E-01  0.51100000000E-03 0. -1.
         11    1    4    4    0    0 -0.52689753747E-01 -0.94164254485E-01  0.34234485351E-01  0.11320502675E+00  0.51100000000E-03 0.  1.
</event>
<event>
 8    1  0.1086486E+005  0.1043930E+01  0.7957747E-01            NaN
         13   -1    0    0    0    0  0.00000000000E+00  0.00000000000E+00  0.74505805969E-08  0.10566000000E+00  0.10566000000E+00 0. -1.
     999900   -1    0    0    0    0 -0.00000000000E+00 -0.00000000000E+00 -0.74505805969E-08  0.93827000000E+00  0.93827000000E+00 0.  1.
     999902    2    1    2    0    0  0.14696584746E-01 -0.17806008493E-01  0.60894211278E-02  0.10200527181E+01  0.10197732214E+01 0.  0.
     999903    2    3    3    0    0  0.45086166745E-01 -0.11169004366E+00  0.54060941024E-01  0.13323875481E+00  0.17959737016E-01 0.  0.
         14    1    1    2    0    0 -0.14696584746E-01  0.17806008493E-01 -0.60894211278E-02  0.23877281908E-01  0.00000000000E+00 0. -1.
     999901    1    3    3    0    0 -0.30389582000E-01  0.93884035169E-01 -0.47971519896E-01  0.88681396328E+00  0.88000000000E+00 0. -1.
        -11    1    4    4    0    0  0.14084773008E-01 -0.58642599631E-01  0.28039931193E-01  0.66511910095E-01  0.51100000000E-03 0. -1.
         11    1    4    4    0    0  0.31001393738E-01 -0.53047444030E-01  0.26021009831E-01  0.66726844714E-01  0.51100000000E-03 0.  1.
</event>
<event>
 8    1  0.1086486E+005  0.1043930E+01  0.7957747E-01            NaN
         13   -1    0    0    0    0  0.00000000000E+00  0.00000000000E+00  0.74505805969E-08  0.10566000000E+00  0.10566000000E+00 0.  1.
     999900   -1    0    0    0    0 -0.00000000000E+00 -0.00000000000E+00 -0.74505805969E-08  0.93827000000E+00  0.93827000000E+00 0. -1.
     999902    2    1    2    0    0 -0.23716874214E-01  0.10554553485E-01 -0.14055468103E-01  0.10144097543E+01  0.10139801303E+01 0.  0.
     999903    2    3    3    0    0  0.47627923717E-01 -0.22127161124E-01  0.10863796735E+00  0.12243898474E+00  0.20762144826E-01 0.  0.
         14    1    1    2    0    0  0.23716874214E-01 -0.10554553485E-01  0.14055468103E-01  0.29520245686E-01  0.00000000000E+00 0.  1.
     999901    1    3    3    0    0 -0.71344797931E-01  0.32681714609E-01 -0.12269343546E+00  0.89197076957E+00  0.88000000000E+00 0. -1.
        -11    1    4    4    0    0  0.25705551953E-01 -0.21178543850E-01  0.77375200311E-01  0.84240660402E-01  0.51100000000E-03 0. -1.
         11    1    4    4    0    0  0.21922371763E-01 -0.94861727418E-03  0.31262767042E-01  0.38198324343E-01  0.51100000000E-03 0.  1.
</event>
<event>
 8    1  0.1086486E+005  0.1043930E+01  0.7957747E-01            NaN
         13   -1    0    0    0    0  0.00000000000E+00  0.00000000000E+00  0.74505805969E-08  0.10566000000E+00  0.10566000000E+00 0.  1.
     999900   -1    0    0    0    0 -0.00000000000E+00 -0.00000000000E+00 -0.74505805969E-08  0.93827000000E+00  0.93827000000E+00 0. -1.
     999902    2    1    2    0    0  0.50490033568E-02  0.18103220802E-01  0.14833998949E-01  0.10199870143E+01  0.10197059590E+01 0.  0.
     999903    2    3    3    0    0  0.59844844087E-01 -0.43771852619E-01  0.10661310732E+00  0.13136194513E+00  0.19804684517E-01 0.  0.
         14    1    1    2    0    0 -0.50490033568E-02 -0.18103220802E-01 -0.14833998949E-01  0.23942985677E-01  0.00000000000E+00 0. -1.
     999901    1    3    3    0    0 -0.54795840731E-01  0.61875073422E-01 -0.91779108373E-01  0.88862506920E+00  0.88000000000E+00 0. -1.
        -11    1    4    4    0    0  0.86079071813E-02  0.13483814266E-03  0.18207627054E-01  0.20146787617E-01  0.51100000000E-03 0.  1.
         11    1    4    4    0    0  0.51236936906E-01 -0.43906690762E-01  0.88405480268E-01  0.11121515751E+00  0.51100000000E-03 0. -1.
</event>
<event>
 8    1  0.1086486E+005  0.1043930E+01  0.7957747E-01            NaN
         13   -1    0    0    0    0  0.00000000000E+00  0.00000000000E+00  0.74505805969E-08  0.10566000000E+00  0.10566000000E+00 0.  1.
     999900   -1    0    0    0    0 -0.00000000000E+00 -0.00000000000E+00 -0.74505805969E-08  0.93827000000E+00  0.93827000000E+00 0. -1.
     999902    2    1    2    0    0 -0.23052478997E-01  0.42230747755E-02 -0.22503029456E-02  0.10203861046E+01  0.10201144482E+01 0.  0.
     999903    2    3    3    0    0  0.91572258988E-01  0.78473803200E-01 -0.41205189259E-01  0.12899983342E+00  0.19986820570E-01 0.  0.
         14    1    1    2    0    0  0.23052478997E-01 -0.42230747755E-02  0.22503029456E-02  0.23543895425E-01  0.00000000000E+00 0. -1.
     999901    1    3    3    0    0 -0.11462473798E+00 -0.74250728424E-01  0.38954886314E-01  0.89138627115E+00  0.88000000000E+00 0. -1.
        -11    1    4    4    0    0  0.30761449733E-01  0.16117274462E-01 -0.70402214336E-02  0.35438103287E-01  0.51100000000E-03 0.  1.
         11    1    4    4    0    0  0.60810809254E-01  0.62356528738E-01 -0.34164967826E-01  0.93561730136E-01  0.51100000000E-03 0. -1.
</event>
<event>
 8    1  0.1086486E+005  0.1043930E+01  0.7957747E-01            NaN
         13   -1    0    0    0    0  0.00000000000E+00  0.00000000000E+00  0.74505805969E-08  0.10566000000E+00  0.10566000000E+00 0.  1.
     999900   -1    0    0    0    0 -0.00000000000E+00 -0.00000000000E+00 -0.74505805969E-08  0.93827000000E+00  0.93827000000E+00 0. -1.
     999902    2    1    2    0    0 -0.78853611304E-03  0.50870834861E-02 -0.22859738682E-01  0.10204978029E+01  0.10202287478E+01 0.  0.
     999903    2    3    3    0    0 -0.16315762630E-01  0.12671664557E+00  0.20237920704E-01  0.13095170890E+00  0.20382940293E-01 0.  0.
         14    1    1    2    0    0  0.78853611304E-03 -0.50870834861E-02  0.22859738682E-01  0.23432197085E-01  0.00000000000E+00 0.  1.
     999901    1    3    3    0    0  0.15527226517E-01 -0.12162956208E+00 -0.43097659386E-01  0.88954609402E+00  0.88000000000E+00 0. -1.
        -11    1    4    4    0    0 -0.18377886291E-02  0.57099583722E-01  0.41879273301E-03  0.57132971537E-01  0.51100000000E-03 0. -1.
         11    1    4    4    0    0 -0.14477974001E-01  0.69617061845E-01  0.19819127971E-01  0.73818737362E-01  0.51100000000E-03 0.  1.
</event>
<event>
 8    1  0.1086486E+005  0.1043930E+01  0.7957747E-01            NaN
         13   -1    0    0    0    0  0.00000000000E+00  0.00000000000E+00  0.74505805969E-08  0.10566000000E+00  0.10566000000E+00 0.  1.
     999900   -1    0    0    0    0 -0.00000000000E+00 -0.00000000000E+00 -0.74505805969E-08  0.93827000000E+00  0.93827000000E+00 0.  1.
     999902    2    1    2    0    0 -0.78520306707E-02  0.12992485288E-01  0.18079262777E-01  0.10203223995E+01  0.10200492538E+01 0.  0.
     999903    2    3    3    0    0 -0.97244136624E-01 -0.44055019138E-01  0.74784946836E-01  0.13214398217E+00  0.21725030096E-01 0.  0.
         14    1    1    2    0    0  0.78520306707E-02 -0.12992485288E-01 -0.18079262777E-01  0.23607600517E-01  0.00000000000E+00 0. -1.
     999901    1    3    3    0    0  0.89392105953E-01  0.57047504426E-01 -0.56705684059E-01  0.88817841731E+00  0.88000000000E+00 0.  1.
        -11    1    4    4    0    0 -0.34955802459E-01 -0.27306062779E-01  0.27944498766E-01  0.52427905950E-01  0.51100000000E-03 0.  1.
         11    1    4    4    0    0 -0.62288334165E-01 -0.16748956359E-01  0.46840448070E-01  0.79716076224E-01  0.51100000000E-03 0. -1.
</event>
<event>
 8    1  0.1086486E+005  0.1043930E+01  0.7957747E-01            NaN
         13   -1    0    0    0    0  0.00000000000E+00  0.00000000000E+00  0.74505805969E-08  0.10566000000E+00  0.10566000000E+00 0.  1.
     999900   -1    0    0    0    0 -0.00000000000E+00 -0.00000000000E+00 -0.74505805969E-08  0.93827000000E+00  0.93827000000E+00 0.  1.
     999902    2    1    2    0    0  0.41675634213E-02 -0.23643568580E-01  0.38178488442E-02  0.10196202717E+01  0.10193304349E+01 0.  0.
     999903    2    3    3    0    0  0.69628378516E-01 -0.34729796882E-02  0.10879543987E+00  0.13073767789E+00  0.19892712256E-01 0.  0.
         14    1    1    2    0    0 -0.41675634213E-02  0.23643568580E-01 -0.38178488442E-02  0.24309728297E-01  0.00000000000E+00 0.  1.
     999901    1    3    3    0    0 -0.65460815095E-01 -0.20170588892E-01 -0.10497759102E+00  0.88888259381E+00  0.88000000000E+00 0.  1.
        -11    1    4    4    0    0  0.26848820693E-02  0.42361346775E-02  0.91094919073E-02  0.10411406847E-01  0.51100000000E-03 0.  1.
         11    1    4    4    0    0  0.66943496447E-01 -0.77091143657E-02  0.99685947961E-01  0.12032627104E+00  0.51100000000E-03 0. -1.
</event>
<event>
 8    1  0.1086486E+005  0.1043930E+01  0.7957747E-01            NaN
         13   -1    0    0    0    0  0.00000000000E+00  0.00000000000E+00  0.74505805969E-08  0.10566000000E+00  0.10566000000E+00 0.  1.
     999900   -1    0    0    0    0 -0.00000000000E+00 -0.00000000000E+00 -0.74505805969E-08  0.93827000000E+00  0.93827000000E+00 0.  1.
     999902    2    1    2    0    0 -0.27178501647E-02 -0.14431574314E-01 -0.18878908945E-01  0.10200120099E+01  0.10197315481E+01 0.  0.
     999903    2    3    3    0    0  0.36454743044E-01  0.73003904727E-01 -0.10053734880E+00  0.13105331805E+00  0.20216213072E-01 0.  0.
         14    1    1    2    0    0  0.27178501647E-02  0.14431574314E-01  0.18878908945E-01  0.23917990083E-01  0.00000000000E+00 0.  1.
     999901    1    3    3    0    0 -0.39172593209E-01 -0.87435479041E-01  0.81658439856E-01  0.88895869187E+00  0.88000000000E+00 0. -1.
        -11    1    4    4    0    0  0.17386232202E-01  0.48231897157E-01 -0.49931436885E-01  0.71568194639E-01  0.51100000000E-03 0. -1.
         11    1    4    4    0    0  0.19068510842E-01  0.24772007570E-01 -0.50605911916E-01  0.59485123406E-01  0.51100000000E-03 0.  1.
</event>
<event>
 8    1  0.1086486E+005  0.1043930E+01  0.7957747E-01            NaN
         13   -1    0    0    0    0  0.00000000000E+00  0.00000000000E+00  0.74505805969E-08  0.10566000000E+00  0.10566000000E+00 0. -1.
     999900   -1    0    0    0    0 -0.00000000000E+00 -0.00000000000E+00 -0.74505805969E-08  0.93827000000E+00  0.93827000000E+00 0. -1.
     999902    2    1    2    0    0 -0.18942217856E-01 -0.15271771402E-01  0.61598829679E-02  0.10188306220E+01  0.10185214075E+01 0.  0.
     999903    2    3    3    0    0 -0.25777906218E-01  0.67548094792E-01  0.10548241956E+00  0.12935278462E+00  0.19451387976E-01 0.  0.
         14    1    1    2    0    0  0.18942217856E-01  0.15271771402E-01 -0.61598829679E-02  0.25099378025E-01  0.00000000000E+00 0.  1.
     999901    1    3    3    0    0  0.68356883626E-02 -0.82819866194E-01 -0.99322536589E-01  0.88947783736E+00  0.88000000000E+00 0. -1.
        -11    1    4    4    0    0 -0.59134904760E-02  0.25859212300E-01  0.24426757646E-01  0.36063774628E-01  0.51100000000E-03 0. -1.
         11    1    4    4    0    0 -0.19864415742E-01  0.41688882492E-01  0.81055661912E-01  0.93289009991E-01  0.51100000000E-03 0.  1.
</event>
<event>
 8    1  0.1086486E+005  0.1043930E+01  0.7957747E-01            NaN
         13   -1    0    0    0    0  0.00000000000E+00  0.00000000000E+00  0.74505805969E-08  0.10566000000E+00  0.10566000000E+00 0.  1.
     999900   -1    0    0    0    0 -0.00000000000E+00 -0.00000000000E+00 -0.74505805969E-08  0.93827000000E+00  0.93827000000E+00 0. -1.
     999902    2    1    2    0    0 -0.31707616291E-02 -0.21135110066E-01 -0.53549455508E-02  0.10218977044E+01  0.10216601667E+01 0.  0.
     999903    2    3    3    0    0 -0.27282370116E-01  0.11749515785E+00 -0.43789392356E-01  0.12989045806E+00  0.20114183435E-01 0.  0.
         14    1    1    2    0    0  0.31707616291E-02  0.21135110066E-01  0.53549455508E-02  0.22032295583E-01  0.00000000000E+00 0.  1.
     999901    1    3    3    0    0  0.24111608487E-01 -0.13863026792E+00  0.38434446805E-01  0.89200724635E+00  0.88000000000E+00 0. -1.
        -11    1    4    4    0    0 -0.21833625862E-01  0.63878761059E-01 -0.32055261235E-01  0.74732885844E-01  0.51100000000E-03 0. -1.
         11    1    4    4    0    0 -0.54487442543E-02  0.53616396792E-01 -0.11734131121E-01  0.55157572219E-01  0.51100000000E-03 0.  1.
</event>
<event>
 8    1  0.1086486E+005  0.1043930E+01  0.7957747E-01            NaN
         13   -1    0    0    0    0  0.00000000000E+00  0.00000000000E+00  0.74505805969E-08  0.10566000000E+00  0.10566000000E+00 0. -1.
     999900   -1    0    0    0    0 -0.00000000000E+00 -0.00000000000E+00 -0.74505805969E-08  0.93827000000E+00  0.93827000000E+00 0.  1.
     999902    2    1    2    0    0 -0.37744695035E-02  0.43512937889E-02  0.22052996522E-01  0.10211371276E+01  0.10208827152E+01 0.  0.
     999903    2    3    3    0    0  0.20176248751E-01 -0.12641918032E+00 -0.15058019971E-01  0.13037802358E+00  0.19565145067E-01 0.  0.
         14    1    1    2    0    0  0.37744695035E-02 -0.43512937889E-02 -0.22052996522E-01  0.22792872422E-01  0.00000000000E+00 0.  1.
     999901    1    3    3    0    0 -0.23950718254E-01  0.13077047411E+00  0.37111016492E-01  0.89075910399E+00  0.88000000000E+00 0.  1.
        -11    1    4    4    0    0  0.42495042103E-02 -0.67354116153E-01 -0.49524797055E-03  0.67491789429E-01  0.51100000000E-03 0.  1.
         11    1    4    4    0    0  0.15926744541E-01 -0.59065064167E-01 -0.14562772000E-01  0.62886234154E-01  0.51100000000E-03 0. -1.
</event>
<event>
 8    1  0.1086486E+005  0.1043930E+01  0.7957747E-01            NaN
         13   -1    0    0    0    0  0.00000000000E+00  0.00000000000E+00  0.74505805969E-08  0.10566000000E+00  0.10566000000E+00 0. -1.
     999900   -1    0    0    0    0 -0.00000000000E+00 -0.00000000000E+00 -0.74505805969E-08  0.93827000000E+00  0.93827000000E+00 0. -1.
     999902    2    1    2    0    0 -0.15751017165E-01 -0.31868344612E-02 -0.17318387690E-01  0.10203042300E+01  0.10200306587E+01 0.  0.
     999903    2    3    3    0    0 -0.51985182331E-01  0.73527629225E-01 -0.95530767095E-01  0.13277101938E+00  0.19830398010E-01 0.  0.
         14    1    1    2    0    0  0.15751017165E-01  0.31868344612E-02  0.17318387690E-01  0.23625769994E-01  0.00000000000E+00 0. -1.
     999901    1    3    3    0    0  0.36234165165E-01 -0.76714463686E-01  0.78212379405E-01  0.88753321062E+00  0.88000000000E+00 0. -1.
        -11    1    4    4    0    0 -0.18812966227E-01  0.43407283650E-01 -0.51914668635E-01  0.70238977161E-01  0.51100000000E-03 0. -1.
         11    1    4    4    0    0 -0.33172216103E-01  0.30120345575E-01 -0.43616098460E-01  0.62532042223E-01  0.51100000000E-03 0.  1.
</event>
<event>
 8    1  0.1086486E+005  0.1043930E+01  0.7957747E-01            NaN
         13   -1    0    0    0    0  0.00000000000E+00  0.00000000000E+00  0.74505805969E-08  0.10566000000E+00  0.10566000000E+00 0.  1.
     999900   -1    0    0    0    0 -0.00000000000E+00 -0.00000000000E+00 -0.74505805969E-08  0.93827000000E+00  0.93827000000E+00 0.  1.
     999902    2    1    2    0    0  0.21602048254E-01 -0.99361201981E-02  0.38752600210E-02  0.10198386610E+01  0.10195540701E+01 0.  0.
     999903    2    3    3    0    0 -0.50072764312E-01  0.11122548017E+00  0.33801599747E-01  0.12814757216E+00  0.20021561834E-01 0.  0.
         14    1    1    2    0    0 -0.21602048254E-01  0.99361201981E-02 -0.38752600210E-02  0.24091338975E-01  0.00000000000E+00 0. -1.
     999901    1    3    3    0    0  0.71674812567E-01 -0.12116160037E+00 -0.29926339726E-01  0.89169108887E+00  0.88000000000E+00 0.  1.
        -11    1    4    4    0    0 -0.47423462019E-01  0.10612978881E+00  0.27203549457E-01  0.11938513746E+00  0.51100000000E-03 0. -1.
         11    1    4    4    0    0 -0.26493022930E-02  0.50956913594E-02  0.65980502902E-02  0.87624346903E-02  0.51100000000E-03 0.  1.
</event>
<event>
 8    1  0.1086486E+005  0.1043930E+01  0.7957747E-01            NaN
         13   -1    0    0    0    0  0.00000000000E+00  0.00000000000E+00  0.74505805969E-08  0.10566000000E+00  0.10566000000E+00 0.  1.
     999900   -1    0    0    0    0 -0.00000000000E+00 -0.00000000000E+00 -0.74505805969E-08  0.93827000000E+00  0.93827000000E+00 0.  1.
     999902    2    1    2    0    0 -0.24362528105E-01  0.82311389131E-02 -0.36935556129E-02  0.10179506471E+01  0.10176190806E+01 0.  0.
     999903    2    3    3    0    0 -0.10241460260E+00 -0.20605574509E-01  0.75370234043E-01  0.13049655522E+00  0.20864760216E-01 0.  0.
         14    1    1    2    0    0  0.24362528105E-01 -0.82311389131E-02  0.36935556129E-02  0.25979352890E-01  0.00000000000E+00 0.  1.
     999901    1    3    3    0    0  0.78052074494E-01  0.28836713422E-01 -0.79063789656E-01  0.88745409189E+00  0.88000000000E+00 0. -1.
        -11    1    4    4    0    0 -0.41248472754E-01 -0.58564260911E-02  0.42460221054E-01  0.59488366292E-01  0.51100000000E-03 0.  1.
         11    1    4    4    0    0 -0.61166129846E-01 -0.14749148418E-01  0.32910012988E-01  0.71008188931E-01  0.51100000000E-03 0. -1.
</event>
<event>
 8    1  0.1086486E+005  0.1043930E+01  0.7957747E-01            NaN
         13   -1    0    0    0    0  0.00000000000E+00  0.00000000000E+00  0.74505805969E-08  0.10566000000E+00  0.10566000000E+00 0. -1.
     999900   -1    0    0    0    0 -0.00000000000E+00 -0.00000000000E+00 -0.74505805969E-08  0.93827000000E+00  0.93827000000E+00 0.  1.
     999902    2    1    2    0    0  0.15685908920E-01  0.13137529674E-01 -0.12389317891E-01  0.10200106015E+01  0.10197301063E+01 0.  0.
     999903    2    3    3    0    0 -0.29632792185E-01  0.12437724726E+00  0.22136561722E-01  0.13117985512E+00  0.19243830558E-01 0.  0.
         14    1    1    2    0    0 -0.15685908920E-01 -0.13137529674E-01  0.12389317891E-01  0.23919398454E-01  0.00000000000E+00 0.  1.
     999901    1    3    3    0    0  0.45318701105E-01 -0.11123971759E+00 -0.34525879613E-01  0.88883074643E+00  0.88000000000E+00 0.  1.
        -11    1    4    4    0    0 -0.86207016584E-02  0.67264297202E-01  0.52316677472E-02  0.68017892085E-01  0.51100000000E-03 0.  1.
         11    1    4    4    0    0 -0.21012090526E-01  0.57112950057E-01  0.16904893975E-01  0.63161963030E-01  0.51100000000E-03 0. -1.
</event>
<event>
 8    1  0.1086486E+005  0.1043930E+01  0.7957747E-01            NaN
         13   -1    0    0    0    0  0.00000000000E+00  0.00000000000E+00  0.74505805969E-08  0.10566000000E+00  0.10566000000E+00 0.  1.
     999900   -1    0    0    0    0 -0.00000000000E+00 -0.00000000000E+00 -0.74505805969E-08  0.93827000000E+00  0.93827000000E+00 0.  1.
     999902    2    1    2    0    0  0.10801609565E-01 -0.11913270250E-02  0.21042120067E-01  0.10202474147E+01  0.10199725106E+01 0.  0.
     999903    2    3    3    0    0  0.41276123474E-01  0.67823688345E-01  0.10494665509E+00  0.13304296288E+00  0.19566769979E-01 0.  0.
         14    1    1    2    0    0 -0.10801609565E-01  0.11913270250E-02 -0.21042120067E-01  0.23682585293E-01  0.00000000000E+00 0. -1.
     999901    1    3    3    0    0 -0.30474513909E-01 -0.69015015370E-01 -0.83904535024E-01  0.88720445183E+00  0.88000000000E+00 0.  1.
        -11    1    4    4    0    0  0.13503856790E-01  0.78058998471E-02  0.18601333615E-01  0.24280793930E-01  0.51100000000E-03 0. -1.
         11    1    4    4    0    0  0.27772266684E-01  0.60017788498E-01  0.86345321475E-01  0.10876216895E+00  0.51100000000E-03 0.  1.
</event>
<event>
 8    1  0.1086486E+005  0.1043930E+01  0.7957747E-01            NaN
         13   -1    0    0    0    0  0.00000000000E+00  0.00000000000E+00  0.74505805969E-08  0.10566000000E+00  0.10566000000E+00 0.  1.
     999900   -1    0    0    0    0 -0.00000000000E+00 -0.00000000000E+00 -0.74505805969E-08  0.93827000000E+00  0.93827000000E+00 0.  1.
     999902    2    1    2    0    0 -0.16157117244E-01  0.68214342547E-02 -0.14835767944E-01  0.10209586175E+01  0.10207001588E+01 0.  0.
     999903    2    3    3    0    0 -0.51827649137E-01  0.19617849759E-01  0.11652053263E+00  0.13040226736E+00  0.18887868173E-01 0.  0.
         14    1    1    2    0    0  0.16157117244E-01 -0.68214342547E-02  0.14835767944E-01  0.22971382488E-01  0.00000000000E+00 0.  1.
     999901    1    3    3    0    0  0.35670531893E-01 -0.12796415504E-01 -0.13135630057E+00  0.89055635015E+00  0.88000000000E+00 0.  1.
        -11    1    4    4    0    0 -0.31224654283E-01  0.17372645050E-01  0.89309229629E-01  0.96193489640E-01  0.51100000000E-03 0. -1.
         11    1    4    4    0    0 -0.20602994854E-01  0.22452047088E-02  0.27211303001E-01  0.34208777721E-01  0.51100000000E-03 0.  1.
</event>
<event>
 8    1  0.1086486E+005  0.1043930E+01  0.7957747E-01            NaN
         13   -1    0    0    0    0  0.00000000000E+00  0.00000000000E+00  0.74505805969E-08  0.10566000000E+00  0.10566000000E+00 0.  1.
     999900   -1    0    0    0    0 -0.00000000000E+00 -0.00000000000E+00 -0.74505805969E-08  0.93827000000E+00  0.93827000000E+00 0.  1.
     999902    2    1    2    0    0 -0.14562048802E-01  0.17670562839E-01  0.54889964278E-02  0.10203836385E+01  0.10201119246E+01 0.  0.
     999903    2    3    3    0    0  0.89732159160E-01 -0.88305833249E-01 -0.90236802785E-02  0.12779252491E+00  0.19993049882E-01 0.  0.
         14    1    1    2    0    0  0.14562048802E-01 -0.17670562839E-01 -0.54889964278E-02  0.23546361463E-01  0.00000000000E+00 0. -1.
     999901    1    3    3    0    0 -0.10429420796E+00  0.10597639609E+00  0.14512676706E-01  0.89259111363E+00  0.88000000000E+00 0. -1.
        -11    1    4    4    0    0  0.36515021267E-01 -0.46908146268E-01  0.19569808806E-02  0.59479507897E-01  0.51100000000E-03 0.  1.
         11    1    4    4    0    0  0.53217137892E-01 -0.41397686980E-01 -0.10980661159E-01  0.68313017012E-01  0.51100000000E-03 0. -1.
</event>
<event>
 8    1  0.1086486E+005  0.1043930E+01  0.7957747E-01            NaN
         13   -1    0    0    0    0  0.00000000000E+00  0.00000000000E+00  0.74505805969E-08  0.10566000000E+00  0.10566000000E+00 0.  1.
     999900   -1    0    0    0    0 -0.00000000000E+00 -0.00000000000E+00 -0.74505805969E-08  0.93827000000E+00  0.93827000000E+00 0.  1.
     999902    2    1    2    0    0  0.17190770893E-01  0.15250872744E-01 -0.50839453922E-02  0.10203936829E+01  0.10201222034E+01 0.  0.
     999903    2    3    3    0    0  0.13476928863E-01 -0.74558155639E-01 -0.10412205587E+00  0.13028807030E+00  0.19825048795E-01 0.  0.
         14    1    1    2    0    0 -0.17190770893E-01 -0.15250872744E-01  0.50839453922E-02  0.23536317131E-01  0.00000000000E+00 0.  1.
     999901    1    3    3    0    0  0.37138420299E-02  0.89809028382E-01  0.99038110478E-01  0.89010561257E+00  0.88000000000E+00 0. -1.
        -11    1    4    4    0    0  0.13519508103E-01 -0.38297642675E-01 -0.67299763016E-01  0.78606652116E-01  0.51100000000E-03 0. -1.
         11    1    4    4    0    0 -0.42579239493E-04 -0.36260512964E-01 -0.36822292854E-01  0.51681418183E-01  0.51100000000E-03 0.  1.
</event>
<event>
 8    1  0.1086486E+005  0.1043930E+01  0.7957747E-01            NaN
         13   -1    0    0    0    0  0.00000000000E+00  0.00000000000E+00  0.74505805969E-08  0.10566000000E+00  0.10566000000E+00 0.  1.
     999900   -1    0    0    0    0 -0.00000000000E+00 -0.00000000000E+00 -0.74505805969E-08  0.93827000000E+00  0.93827000000E+00 0.  1.
     999902    2    1    2    0    0 -0.79111549720E-03 -0.21734212634E-01  0.65942923347E-02  0.10212036595E+01  0.10209507469E+01 0.  0.
     999903    2    3    3    0    0 -0.82824457579E-02 -0.87038915878E-01 -0.97575238172E-01  0.13262495424E+00  0.20593193016E-01 0.  0.
         14    1    1    2    0    0  0.79111549720E-03  0.21734212634E-01 -0.65942923347E-02  0.22726340532E-01  0.00000000000E+00 0. -1.
     999901    1    3    3    0    0  0.74913302607E-02  0.65304703244E-01  0.10416953051E+00  0.88857870523E+00  0.88000000000E+00 0. -1.
        -11    1    4    4    0    0  0.39613653857E-02 -0.42142429259E-01 -0.36896179446E-01  0.56153948554E-01  0.51100000000E-03 0. -1.
         11    1    4    4    0    0 -0.12243811144E-01 -0.44896486620E-01 -0.60679058726E-01  0.76471005688E-01  0.51100000000E-03 0.  1.
</event>
<event>
 8    1  0.1086486E+005  0.1043930E+01  0.7957747E-01            NaN
         13   -1    0    0    0    0  0.00000000000E+00  0.00000000000E+00  0.74505805969E-08  0.10566000000E+00  0.10566000000E+00 0. -1.
     999900   -1    0    0    0    0 -0.00000000000E+00 -0.00000000000E+00 -0.74505805969E-08  0.93827000000E+00  0.93827000000E+00 0.  1.
     999902    2    1    2    0    0  0.22235100424E-01  0.49354436430E-02 -0.75711289316E-02  0.10199283274E+01  0.10196458761E+01 0.  0.
     999903    2    3    3    0    0 -0.15624537646E-01 -0.12448214348E+00  0.17327682346E-01  0.12930932082E+00  0.26090643044E-01 0.  0.
         14    1    1    2    0    0 -0.22235100424E-01 -0.49354436430E-02  0.75711289316E-02  0.24001672611E-01  0.00000000000E+00 0.  1.
     999901    1    3    3    0    0  0.37859638070E-01  0.12941758712E+00 -0.24898811278E-01  0.89061900656E+00  0.88000000000E+00 0. -1.
        -11    1    4    4    0    0 -0.36180947239E-02 -0.23020948535E-01 -0.68935589437E-02  0.24307137980E-01  0.51100000000E-03 0. -1.
         11    1    4    4    0    0 -0.12006442922E-01 -0.10146119495E+00  0.24221241290E-01  0.10500218284E+00  0.51100000000E-03 0.  1.
</event>
<event>
 8    1  0.1086486E+005  0.1043930E+01  0.7957747E-01            NaN
         13   -1    0    0    0    0  0.00000000000E+00  0.00000000000E+00  0.74505805969E-08  0.10566000000E+00  0.10566000000E+00 0.  1.
     999900   -1    0    0    0    0 -0.00000000000E+00 -0.00000000000E+00 -0.74505805969E-08  0.93827000000E+00  0.93827000000E+00 0. -1.
     999902    2    1    2    0    0  0.19232354628E-01  0.12127518226E-01  0.80601963437E-02  0.10198068384E+01  0.10195214861E+01 0.  0.
     999903    2    3    3    0    0 -0.87079304965E-01 -0.90683445128E-01 -0.63850103281E-02  0.12734903703E+00  0.19253994418E-01 0.  0.
         14    1    1    2    0    0 -0.19232354628E-01 -0.12127518226E-01 -0.80601963437E-02  0.24123161649E-01  0.00000000000E+00 0.  1.
     999901    1    3    3    0    0  0.10631165959E+00  0.10281096335E+00  0.14445206672E-01  0.89245780133E+00  0.88000000000E+00 0.  1.
        -11    1    4    4    0    0 -0.39187080324E-01 -0.40312856014E-01 -0.12429465651E-01  0.57580433844E-01  0.51100000000E-03 0.  1.
         11    1    4    4    0    0 -0.47892224640E-01 -0.50370589114E-01  0.60444553227E-02  0.69768603181E-01  0.51100000000E-03 0. -1.
</event>
<event>
 8    1  0.1086486E+005  0.1043930E+01  0.7957747E-01            NaN
         13   -1    0    0    0    0  0.00000000000E+00  0.00000000000E+00  0.74505805969E-08  0.10566000000E+00  0.10566000000E+00 0.  1.
     999900   -1    0    0    0    0 -0.00000000000E+00 -0.00000000000E+00 -0.74505805969E-08  0.93827000000E+00  0.93827000000E+00 0. -1.
     999902    2    1    2    0    0  0.90924624768E-02 -0.14826489013E-03 -0.19541623677E-01  0.10223761161E+01  0.10221488897E+01 0.  0.
     999903    2    3    3    0    0 -0.72494869396E-01  0.92595549809E-01  0.54971113410E-01  0.13063060536E+00  0.14597596187E-01 0.  0.
         14    1    1    2    0    0 -0.90924624768E-02  0.14826489013E-03  0.19541623677E-01  0.21553883926E-01  0.00000000000E+00 0.  1.
     999901    1    3    3    0    0  0.81587331872E-01 -0.92743814700E-01 -0.74512737087E-01  0.89174551071E+00  0.88000000000E+00 0. -1.
        -11    1    4    4    0    0 -0.12004464414E-01  0.22791094315E-01  0.78312737032E-02  0.26928258666E-01  0.51100000000E-03 0.  1.
         11    1    4    4    0    0 -0.60490404981E-01  0.69804455494E-01  0.47139839706E-01  0.10370234670E+00  0.51100000000E-03 0. -1.
</event>
<event>
 8    1  0.1086486E+005  0.1043930E+01  0.7957747E-01            NaN
         13   -1    0    0    0    0  0.00000000000E+00  0.00000000000E+00  0.74505805969E-08  0.10566000000E+00  0.10566000000E+00 0.  1.
     999900   -1    0    0    0    0 -0.00000000000E+00 -0.00000000000E+00 -0.74505805969E-08  0.93827000000E+00  0.93827000000E+00 0. -1.
     999902    2    1    2    0    0  0.29379311395E-02  0.53833489379E-02  0.23621096535E-01  0.10195257363E+01  0.10192336135E+01 0.  0.
     999903    2    3    3    0    0 -0.92128606428E-01 -0.41066669760E-01  0.81594572772E-01  0.13129368624E+00  0.20154559146E-01 0.  0.
         14    1    1    2    0    0 -0.29379311395E-02 -0.53833489379E-02 -0.23621096535E-01  0.24404263698E-01  0.00000000000E+00 0. -1.
     999901    1    3    3    0    0  0.95066537567E-01  0.46450018698E-01 -0.57973476237E-01  0.88823205006E+00  0.88000000000E+00 0. -1.
        -11    1    4    4    0    0 -0.76082329074E-01 -0.25281665655E-01  0.60488433104E-01  0.10043303777E+00  0.51100000000E-03 0. -1.
         11    1    4    4    0    0 -0.16046277354E-01 -0.15785004105E-01  0.21106139668E-01  0.30860648473E-01  0.51100000000E-03 0.  1.
</event>
<event>
 8    1  0.1086486E+005  0.1043930E+01  0.7957747E-01            NaN
         13   -1    0    0    0    0  0.00000000000E+00  0.00000000000E+00  0.74505805969E-08  0.10566000000E+00  0.10566000000E+00 0.  1.
     999900   -1    0    0    0    0 -0.00000000000E+00 -0.00000000000E+00 -0.74505805969E-08  0.93827000000E+00  0.93827000000E+00 0. -1.
     999902    2    1    2    0    0  0.22969691631E-01  0.56174235271E-02  0.77996344040E-03  0.10202705299E+01  0.10199961685E+01 0.  0.
     999903    2    3    3    0    0 -0.74403467252E-01 -0.89038472577E-01  0.51267279529E-01  0.12842399615E+00  0.20016575616E-01 0.  0.
         14    1    1    2    0    0 -0.22969691631E-01 -0.56174235271E-02 -0.77996344040E-03  0.23659470063E-01  0.00000000000E+00 0.  1.
     999901    1    3    3    0    0  0.97373158883E-01  0.94655896104E-01 -0.50487316089E-01  0.89184653378E+00  0.88000000000E+00 0.  1.
        -11    1    4    4    0    0 -0.11919859121E-01 -0.24467380355E-01  0.62791264518E-02  0.27936075116E-01  0.51100000000E-03 0.  1.
         11    1    4    4    0    0 -0.62483608131E-01 -0.64571092222E-01  0.44988153077E-01  0.10048792104E+00  0.51100000000E-03 0. -1.
</event>
<event>
 8    1  0.1086486E+005  0.1043930E+01  0.7957747E-01            NaN
         13   -1    0    0    0    0  0.00000000000E+00  0.00000000000E+00  0.74505805969E-08  0.10566000000E+00  0.10566000000E+00 0. -1.
     999900   -1    0    0    0    0 -0.00000000000E+00 -0.00000000000E+00 -0.74505805969E-08  0.93827000000E+00  0.93827000000E+00 0.  1.
     999902    2    1    2    0    0  0.17595240211E-01 -0.14081684143E-01 -0.76057008218E-02  0.10201448578E+01  0.10198675394E+01 0.  0.
     999903    2    3    3    0    0  0.60816326997E-01 -0.10186631452E-01 -0.11555501556E+00  0.13248710371E+00  0.19936848720E-01 0.  0.
         14    1    1    2    0    0 -0.17595240211E-01  0.14081684143E-01  0.76057008218E-02  0.23785142240E-01  0.00000000000E+00 0. -1.
     999901    1    3    3    0    0 -0.43221086786E-01 -0.38950526902E-02  0.10794931474E+00  0.88765775405E+00  0.88000000000E+00 0. -1.
        -11    1    4    4    0    0  0.43355636987E-02 -0.41736253267E-02 -0.23955073801E-01  0.24704714990E-01  0.51100000000E-03 0.  1.
         11    1    4    4    0    0  0.56480763298E-01 -0.60130061257E-02 -0.91599941763E-01  0.10778238872E+00  0.51100000000E-03 0. -1.
</event>
<event>
 8    1  0.1086486E+005  0.1043930E+01  0.7957747E-01            NaN
         13   -1    0    0    0    0  0.00000000000E+00  0.00000000000E+00  0.74505805969E-08  0.10566000000E+00  0.10566000000E+00 0. -1.
     999900   -1    0    0    0    0 -0.00000000000E+00 -0.00000000000E+00 -0.74505805969E-08  0.93827000000E+00  0.93827000000E+00 0. -1.
     999902    2    1    2    0    0  0.99085246501E-04  0.28417635961E-01 -0.53652954462E-03  0.10155071269E+01  0.10151092873E+01 0.  0.
     999903    2    3    3    0    0 -0.49158557526E-01  0.99619711696E-01 -0.64347916795E-01  0.12895879539E+00  0.12209249572E-01 0.  0.
         14    1    1    2    0    0 -0.99085246501E-04 -0.28417635961E-01  0.53652954462E-03  0.28422873103E-01  0.00000000000E+00 0. -1.
     999901    1    3    3    0    0  0.49257642772E-01 -0.71202075735E-01  0.63811387251E-01  0.88654833151E+00  0.88000000000E+00 0.  1.
        -11    1    4    4    0    0 -0.10918680598E-01  0.12476377640E-01 -0.99595519835E-02  0.19347645380E-01  0.51100000000E-03 0. -1.
         11    1    4    4    0    0 -0.38239876927E-01  0.87143334056E-01 -0.54388364812E-01  0.10961115001E+00  0.51100000000E-03 0.  1.
</event>
<event>
 8    1  0.1086486E+005  0.1043930E+01  0.7957747E-01            NaN
         13   -1    0    0    0    0  0.00000000000E+00  0.00000000000E+00  0.74505805969E-08  0.10566000000E+00  0.10566000000E+00 0.  1.
     999900   -1    0    0    0    0 -0.00000000000E+00 -0.00000000000E+00 -0.74505805969E-08  0.93827000000E+00  0.93827000000E+00 0. -1.
     999902    2    1    2    0    0  0.12542710230E-02  0.45308220900E-03 -0.19935865200E-01  0.10239495796E+01  0.10237546211E+01 0.  0.
     999903    2    3    3    0    0  0.65945578523E-01 -0.10777695549E+00 -0.38717854484E-01  0.13476373316E+00  0.26410226415E-01 0.  0.
         14    1    1    2    0    0 -0.12542710230E-02 -0.45308220900E-03  0.19935865200E-01  0.19980420430E-01  0.00000000000E+00 0.  1.
     999901    1    3    3    0    0 -0.64691307500E-01  0.10823003770E+00  0.18781989284E-01  0.88918584641E+00  0.88000000000E+00 0.  1.
        -11    1    4    4    0    0  0.15431875162E-01 -0.13870855288E-01 -0.14774496722E-01  0.25477250084E-01  0.51100000000E-03 0. -1.
         11    1    4    4    0    0  0.50513703362E-01 -0.93906100200E-01 -0.23943357762E-01  0.10928648308E+00  0.51100000000E-03 0.  1.
</event>
<event>
 8    1  0.1086486E+005  0.1043930E+01  0.7957747E-01            NaN
         13   -1    0    0    0    0  0.00000000000E+00  0.00000000000E+00  0.74505805969E-08  0.10566000000E+00  0.10566000000E+00 0.  1.
     999900   -1    0    0    0    0 -0.00000000000E+00 -0.00000000000E+00 -0.74505805969E-08  0.93827000000E+00  0.93827000000E+00 0.  1.
     999902    2    1    2    0    0  0.12461746550E-01 -0.88290630611E-02  0.15864107021E-01  0.10219091605E+01  0.10216718724E+01 0.  0.
     999903    2    3    3    0    0  0.12318337343E+00  0.31869682907E-01  0.36432162311E-01  0.13379953240E+00  0.19626315062E-01 0.  0.
         14    1    1    2    0    0 -0.12461746550E-01  0.88290630611E-02 -0.15864107021E-01  0.22020839521E-01  0.00000000000E+00 0. -1.
     999901    1    3    3    0    0 -0.11072162688E+00 -0.40698745968E-01 -0.20568055290E-01  0.88810962808E+00  0.88000000000E+00 0.  1.
        -11    1    4    4    0    0  0.10768995425E+00  0.26564839207E-01  0.24668035251E-01  0.11362917765E+00  0.51100000000E-03 0.  1.
         11    1    4    4    0    0  0.15493419176E-01  0.53048437000E-02  0.11764127060E-01  0.20170354754E-01  0.51100000000E-03 0. -1.
</event>
<event>
 8    1  0.1086486E+005  0.1043930E+01  0.7957747E-01            NaN
         13   -1    0    0    0    0  0.00000000000E+00  0.00000000000E+00  0.74505805969E-08  0.10566000000E+00  0.10566000000E+00 0. -1.
     999900   -1    0    0    0    0 -0.00000000000E+00 -0.00000000000E+00 -0.74505805969E-08  0.93827000000E+00  0.93827000000E+00 0. -1.
     999902    2    1    2    0    0  0.12147432635E-01 -0.19135983905E-01  0.79956303830E-02  0.10198951065E+01  0.10196118635E+01 0.  0.
     999903    2    3    3    0    0  0.74842960680E-01  0.31287178257E-01  0.10129744112E+00  0.13131283547E+00  0.20038285763E-01 0.  0.
         14    1    1    2    0    0 -0.12147432635E-01  0.19135983905E-01 -0.79956303830E-02  0.24034893486E-01  0.00000000000E+00 0.  1.
     999901    1    3    3    0    0 -0.62695528045E-01 -0.50423162162E-01 -0.93301810737E-01  0.88858227104E+00  0.88000000000E+00 0. -1.
        -11    1    4    4    0    0  0.19937351985E-01  0.25178825608E-02  0.36304300381E-01  0.41498205792E-01  0.51100000000E-03 0. -1.
         11    1    4    4    0    0  0.54905608695E-01  0.28769295696E-01  0.64993140739E-01  0.89814629683E-01  0.51100000000E-03 0.  1.
</event>
<event>
 8    1  0.1086486E+005  0.1043930E+01  0.7957747E-01            NaN
         13   -1    0    0    0    0  0.00000000000E+00  0.00000000000E+00  0.74505805969E-08  0.10566000000E+00  0.10566000000E+00 0.  1.
     999900   -1    0    0    0    0 -0.00000000000E+00 -0.00000000000E+00 -0.74505805969E-08  0.93827000000E+00  0.93827000000E+00 0. -1.
     999902    2    1    2    0    0 -0.34245315945E-02  0.11938539094E-01  0.21125737545E-01  0.10194238188E+01  0.10191292211E+01 0.  0.
     999903    2    3    3    0    0 -0.66146505596E-02 -0.30883837420E-01 -0.12106863123E+00  0.12697596521E+00  0.21626771768E-01 0.  0.
         14    1    1    2    0    0  0.34245315945E-02 -0.11938539094E-01 -0.21125737545E-01  0.24506181244E-01  0.00000000000E+00 0. -1.
     999901    1    3    3    0    0  0.31901189650E-02  0.42822376514E-01  0.14219436877E+00  0.89244785355E+00  0.88000000000E+00 0.  1.
        -11    1    4    4    0    0  0.71558479416E-02 -0.16289771307E-01 -0.47754013267E-01  0.50963415438E-01  0.51100000000E-03 0. -1.
         11    1    4    4    0    0 -0.13770498501E-01 -0.14594066113E-01 -0.73314617963E-01  0.76012549771E-01  0.51100000000E-03 0.  1.
</event>
<event>
 8    1  0.1086486E+005  0.1043930E+01  0.7957747E-01            NaN
         13   -1    0    0    0    0  0.00000000000E+00  0.00000000000E+00  0.74505805969E-08  0.10566000000E+00  0.10566000000E+00 0.  1.
     999900   -1    0    0    0    0 -0.00000000000E+00 -0.00000000000E+00 -0.74505805969E-08  0.93827000000E+00  0.93827000000E+00 0. -1.
     999902    2    1    2    0    0  0.53312628320E-02 -0.48798823147E-04  0.23461740857E-01  0.10198701158E+01  0.10195862764E+01 0.  0.
     999903    2    3    3    0    0 -0.54460560975E-01 -0.77546562646E-02 -0.11312361203E+00  0.12729518836E+00  0.19519886953E-01 0.  0.
         14    1    1    2    0    0 -0.53312628320E-02  0.48798823147E-04 -0.23461740857E-01  0.24059884221E-01  0.00000000000E+00 0. -1.
     999901    1    3    3    0    0  0.59791823807E-01  0.77058574415E-02  0.13658535288E+00  0.89257492742E+00  0.88000000000E+00 0.  1.
        -11    1    4    4    0    0 -0.43011550241E-01  0.42186042411E-03 -0.95483351711E-01  0.10472584683E+00  0.51100000000E-03 0.  1.
         11    1    4    4    0    0 -0.11449010734E-01 -0.81765166887E-02 -0.17640260315E-01  0.22569341526E-01  0.51100000000E-03 0. -1.
</event>
<event>
 8    1  0.1086486E+005  0.1043930E+01  0.7957747E-01            NaN
         13   -1    0    0    0    0  0.00000000000E+00  0.00000000000E+00  0.74505805969E-08  0.10566000000E+00  0.10566000000E+00 0.  1.
     999900   -1    0    0    0    0 -0.00000000000E+00 -0.00000000000E+00 -0.74505805969E-08  0.93827000000E+00  0.93827000000E+00 0.  1.
     999902    2    1    2    0    0 -0.34736629444E-02 -0.19321177303E-01 -0.11229145733E-01  0.10213143430E+01  0.10210639154E+01 0.  0.
     999903    2    3    3    0    0  0.45107186252E-01 -0.10878518672E+00 -0.63516798613E-01  0.13390355509E+00  0.51868350895E-02 0.  0.
         14    1    1    2    0    0  0.34736629444E-02  0.19321177303E-01  0.11229145733E-01  0.22615656978E-01  0.00000000000E+00 0.  1.
     999901    1    3    3    0    0 -0.48580849197E-01  0.89464009421E-01  0.52287652880E-01  0.88741078793E+00  0.88000000000E+00 0. -1.
        -11    1    4    4    0    0  0.14879888974E-01 -0.35545119052E-01 -0.18105197398E-01  0.42578467306E-01  0.51100000000E-03 0.  1.
         11    1    4    4    0    0  0.30227297278E-01 -0.73240067672E-01 -0.45411601216E-01  0.91325087787E-01  0.51100000000E-03 0. -1.
</event>
<event>
 8    1  0.1086486E+005  0.1043930E+01  0.7957747E-01            NaN
         13   -1    0    0    0    0  0.00000000000E+00  0.00000000000E+00  0.74505805969E-08  0.10566000000E+00  0.10566000000E+00 0. -1.
     999900   -1    0    0    0    0 -0.00000000000E+00 -0.00000000000E+00 -0.74505805969E-08  0.93827000000E+00  0.93827000000E+00 0.  1.
     999902    2    1    2    0    0 -0.92016665214E-02 -0.24407878133E-01 -0.17565940135E-01  0.10124819884E+01  0.10119934779E+01 0.  0.
     999903    2    3    3    0    0  0.10879500939E+00 -0.14271826962E-01 -0.53490730471E-01  0.12382201651E+00  0.20750768963E-01 0.  0.
         14    1    1    2    0    0  0.92016665214E-02  0.24407878133E-01  0.17565940135E-01  0.31448011616E-01  0.00000000000E+00 0. -1.
     999901    1    3    3    0    0 -0.11799667591E+00 -0.10136051171E-01  0.35924790336E-01  0.88865997188E+00  0.88000000000E+00 0.  1.
        -11    1    4    4    0    0  0.23943071388E-01 -0.11821049279E-01 -0.14770061289E-01  0.30519235001E-01  0.51100000000E-03 0.  1.
         11    1    4    4    0    0  0.84851938000E-01 -0.24507776834E-02 -0.38720669182E-01  0.93302781505E-01  0.51100000000E-03 0. -1.
</event>
<event>
 8    1  0.1086486E+005  0.1043930E+01  0.7957747E-01            NaN
         13   -1    0    0    0    0  0.00000000000E+00  0.00000000000E+00  0.74505805969E-08  0.10566000000E+00  0.10566000000E+00 0.  1.
     999900   -1    0    0    0    0 -0.00000000000E+00 -0.00000000000E+00 -0.74505805969E-08  0.93827000000E+00  0.93827000000E+00 0. -1.
     999902    2    1    2    0    0  0.62143302945E-02 -0.21778812181E-01  0.75468467880E-02  0.10200576424E+01  0.10197782623E+01 0.  0.
     999903    2    3    3    0    0  0.99328540485E-01  0.78194247558E-01 -0.17117258392E-01  0.12917426793E+00  0.20309890585E-01 0.  0.
         14    1    1    2    0    0 -0.62143302945E-02  0.21778812181E-01 -0.75468467880E-02  0.23872357602E-01  0.00000000000E+00 0.  1.
     999901    1    3    3    0    0 -0.93114210190E-01 -0.99973059738E-01  0.24664105180E-01  0.89088337446E+00  0.88000000000E+00 0.  1.
        -11    1    4    4    0    0  0.18692652374E-01  0.14004532697E-01  0.46833968109E-02  0.23827243137E-01  0.51100000000E-03 0. -1.
         11    1    4    4    0    0  0.80635888110E-01  0.64189714861E-01 -0.21800655203E-01  0.10534702480E+00  0.51100000000E-03 0.  1.
</event>
<event>
 8    1  0.1086486E+005  0.1043930E+01  0.7957747E-01            NaN
         13   -1    0    0    0    0  0.00000000000E+00  0.00000000000E+00  0.74505805969E-08  0.10566000000E+00  0.10566000000E+00 0. -1.
     999900   -1    0    0    0    0 -0.00000000000E+00 -0.00000000000E+00 -0.74505805969E-08  0.93827000000E+00  0.93827000000E+00 0. -1.
     999902    2    1    2    0    0 -0.12807436178E-01 -0.18884460439E-01  0.49023113137E-02  0.10205914927E+01  0.10203246096E+01 0.  0.
     999903    2    3    3    0    0  0.81012837318E-01 -0.74009143039E-01 -0.68488292797E-01  0.13085717553E+00  0.19812144602E-01 0.  0.
         14    1    1    2    0    0  0.12807436178E-01  0.18884460439E-01 -0.49023113137E-02  0.23338507316E-01  0.00000000000E+00 0.  1.
     999901    1    3    3    0    0 -0.93820273496E-01  0.55124682599E-01  0.73390604111E-01  0.88973431715E+00  0.88000000000E+00 0.  1.
        -11    1    4    4    0    0  0.51854584489E-01 -0.52341658149E-01 -0.35510999345E-01  0.81791437851E-01  0.51100000000E-03 0.  1.
         11    1    4    4    0    0  0.29158252829E-01 -0.21667484890E-01 -0.32977293452E-01  0.49065737678E-01  0.51100000000E-03 0. -1.
</event>
<event>
 8    1  0.1086486E+005  0.1043930E+01  0.7957747E-01            NaN
         13   -1    0    0    0    0  0.00000000000E+00  0.00000000000E+00  0.74505805969E-08  0.10566000000E+00  0.10566000000E+00 0. -1.
     999900   -1    0    0    0    0 -0.00000000000E+00 -0.00000000000E+00 -0.74505805969E-08  0.93827000000E+00  0.93827000000E+00 0. -1.
     999902    2    1    2    0    0 -0.17726767337E-01  0.14332203552E-01  0.14714333743E-02  0.10210867197E+01  0.10208311681E+01 0.  0.
     999903    2    3    3    0    0 -0.10875117483E+00 -0.26175108711E-01 -0.67469816324E-01  0.13278543015E+00  0.23829393634E-01 0.  0.
         14    1    1    2    0    0  0.17726767337E-01 -0.14332203552E-01 -0.14714333743E-02  0.22843280305E-01  0.00000000000E+00 0. -1.
     999901    1    3    3    0    0  0.91024407493E-01  0.40507312264E-01  0.68941249699E-01  0.88830128955E+00  0.88000000000E+00 0.  1.
        -11    1    4    4    0    0 -0.85707294144E-01 -0.26744337074E-01 -0.44376641271E-01  0.10015261977E+00  0.51100000000E-03 0.  1.
         11    1    4    4    0    0 -0.23043880686E-01  0.56922836313E-03 -0.23093175054E-01  0.32632810376E-01  0.51100000000E-03 0. -1.
</event>
<event>
 8    1  0.1086486E+005  0.1043930E+01  0.7957747E-01            NaN
         13   -1    0    0    0    0  0.00000000000E+00  0.00000000000E+00  0.74505805969E-08  0.10566000000E+00  0.10566000000E+00 0.  1.
     999900   -1    0    0    0    0 -0.00000000000E+00 -0.00000000000E+00 -0.74505805969E-08  0.93827000000E+00  0.93827000000E+00 0. -1.
     999902    2    1    2    0    0  0.19786124242E-01 -0.10121761811E-01  0.83008151536E-02  0.10202056600E+01  0.10199297743E+01 0.  0.
     999903    2    3    3    0    0  0.69513363171E-01 -0.47454097167E-01  0.10135308142E+00  0.13311760025E+00  0.19074836454E-01 0.  0.
         14    1    1    2    0    0 -0.19786124242E-01  0.10121761811E-01 -0.83008151536E-02  0.23724339968E-01  0.00000000000E+00 0. -1.
     999901    1    3    3    0    0 -0.49727238929E-01  0.37332335356E-01 -0.93052266264E-01  0.88708805978E+00  0.88000000000E+00 0. -1.
        -11    1    4    4    0    0  0.69762895815E-01 -0.43306521020E-01  0.96275747793E-01  0.12653693978E+00  0.51100000000E-03 0. -1.
         11    1    4    4    0    0 -0.24953264372E-03 -0.41475761470E-02  0.50773336245E-02  0.65806604661E-02  0.51100000000E-03 0.  1.
</event>
<event>
 8    1  0.1086486E+005  0.1043930E+01  0.7957747E-01            NaN
         13   -1    0    0    0    0  0.00000000000E+00  0.00000000000E+00  0.74505805969E-08  0.10566000000E+00  0.10566000000E+00 0.  1.
     999900   -1    0    0    0    0 -0.00000000000E+00 -0.00000000000E+00 -0.74505805969E-08  0.93827000000E+00  0.93827000000E+00 0. -1.
     999902    2    1    2    0    0 -0.19091367379E-01  0.12042329190E-01  0.76121896756E-02  0.10201089288E+01  0.10198307620E+01 0.  0.
     999903    2    3    3    0    0 -0.12791457112E+00  0.16498829817E-01 -0.24922811143E-01  0.13279789183E+00  0.19488064797E-01 0.  0.
         14    1    1    2    0    0  0.19091367379E-01 -0.12042329190E-01 -0.76121896756E-02  0.23821071184E-01  0.00000000000E+00 0.  1.
     999901    1    3    3    0    0  0.10882320374E+00 -0.44565006275E-02  0.32535000818E-01  0.88731103698E+00  0.88000000000E+00 0.  1.
        -11    1    4    4    0    0 -0.54885853097E-01  0.94412950369E-02 -0.20311189397E-01  0.59282378983E-01  0.51100000000E-03 0. -1.
         11    1    4    4    0    0 -0.73028718026E-01  0.70575347802E-02 -0.46116217454E-02  0.73515512851E-01  0.51100000000E-03 0.  1.
</event>
<event>
 8    1  0.1086486E+005  0.1043930E+01  0.7957747E-01            NaN
         13   -1    0    0    0    0  0.00000000000E+00  0.00000000000E+00  0.74505805969E-08  0.10566000000E+00  0.10566000000E+00 0. -1.
     999900   -1    0    0    0    0 -0.00000000000E+00 -0.00000000000E+00 -0.74505805969E-08  0.93827000000E+00  0.93827000000E+00 0.  1.
     999902    2    1    2    0    0  0.11048694585E-01 -0.14257189143E-01  0.16524241160E-01  0.10194679551E+01  0.10191744305E+01 0.  0.
     999903    2    3    3    0    0  0.10777906401E+00  0.69822907150E-01 -0.91031710519E-03  0.13001295862E+00  0.20272536341E-01 0.  0.
         14    1    1    2    0    0 -0.11048694585E-01  0.14257189143E-01 -0.16524241160E-01  0.24462044890E-01  0.00000000000E+00 0.  1.
     999901    1    3    3    0    0 -0.96730369425E-01 -0.84080096292E-01  0.17434558265E-01  0.88945499649E+00  0.88000000000E+00 0. -1.
        -11    1    4    4    0    0  0.50581754241E-01  0.23599555767E-01  0.60353961727E-02  0.56143922400E-01  0.51100000000E-03 0. -1.
         11    1    4    4    0    0  0.57197309769E-01  0.46223351383E-01 -0.69457132779E-02  0.73869036218E-01  0.51100000000E-03 0.  1.
</event>
<event>
 8    1  0.1086486E+005  0.1043930E+01  0.7957747E-01            NaN
         13   -1    0    0    0    0  0.00000000000E+00  0.00000000000E+00  0.74505805969E-08  0.10566000000E+00  0.10566000000E+00 0.  1.
     999900   -1    0    0    0    0 -0.00000000000E+00 -0.00000000000E+00 -0.74505805969E-08  0.93827000000E+00  0.93827000000E+00 0.  1.
     999902    2    1    2    0    0  0.93280652877E-02 -0.15766632689E-01 -0.15147350281E-01  0.10201593936E+01  0.10198824180E+01 0.  0.
     999903    2    3    3    0    0 -0.46161776239E-01 -0.82023556588E-01  0.87118266967E-01  0.13003167301E+00  0.21444582675E-01 0.  0.
         14    1    1    2    0    0 -0.93280652877E-02  0.15766632689E-01  0.15147350281E-01  0.23770606406E-01  0.00000000000E+00 0.  1.
     999901    1    3    3    0    0  0.55489841527E-01  0.66256923899E-01 -0.10226561725E+00  0.89012772058E+00  0.88000000000E+00 0. -1.
        -11    1    4    4    0    0 -0.45912726964E-01 -0.76569373570E-01  0.74529122421E-01  0.11630003730E+00  0.51100000000E-03 0.  1.
         11    1    4    4    0    0 -0.24904927553E-03 -0.54541830184E-02  0.12589144546E-01  0.13731635712E-01  0.51100000000E-03 0. -1.
</event>
<event>
 8    1  0.1086486E+005  0.1043930E+01  0.7957747E-01            NaN
         13   -1    0    0    0    0  0.00000000000E+00  0.00000000000E+00  0.74505805969E-08  0.10566000000E+00  0.10566000000E+00 0. -1.
     999900   -1    0    0    0    0 -0.00000000000E+00 -0.00000000000E+00 -0.74505805969E-08  0.93827000000E+00  0.93827000000E+00 0. -1.
     999902    2    1    2    0    0 -0.82889070597E-02 -0.20036118806E-01  0.88055438710E-02  0.10205272301E+01  0.10202588582E+01 0.  0.
     999903    2    3    3    0    0 -0.25087144231E-01 -0.30150828892E-01  0.12518717493E+00  0.13264819993E+00  0.19628522319E-01 0.  0.
         14    1    1    2    0    0  0.82889070597E-02  0.20036118806E-01 -0.88055438710E-02  0.23402769920E-01  0.00000000000E+00 0.  1.
     999901    1    3    3    0    0  0.16798237172E-01  0.10114710086E-01 -0.11638163106E+00  0.88787903015E+00  0.88000000000E+00 0. -1.
        -11    1    4    4    0    0 -0.18520834960E-01 -0.72234111668E-02  0.61815342290E-01  0.64935326748E-01  0.51100000000E-03 0. -1.
         11    1    4    4    0    0 -0.65663092716E-02 -0.22927417725E-01  0.63371832643E-01  0.67712873182E-01  0.51100000000E-03 0.  1.
</event>
<event>
 8    1  0.1086486E+005  0.1043930E+01  0.7957747E-01            NaN
         13   -1    0    0    0    0  0.00000000000E+00  0.00000000000E+00  0.74505805969E-08  0.10566000000E+00  0.10566000000E+00 0.  1.
     999900   -1    0    0    0    0 -0.00000000000E+00 -0.00000000000E+00 -0.74505805969E-08  0.93827000000E+00  0.93827000000E+00 0.  1.
     999902    2    1    2    0    0 -0.10520715308E-01 -0.22086817407E-01 -0.59636192552E-02  0.10187491003E+01  0.10184378487E+01 0.  0.
     999903    2    3    3    0    0  0.16944224531E-02 -0.12608378254E+00  0.32318952978E-01  0.13171464007E+00  0.20105730528E-01 0.  0.
         14    1    1    2    0    0  0.10520715308E-01  0.22086817407E-01  0.59636192552E-02  0.25180899674E-01  0.00000000000E+00 0.  1.
     999901    1    3    3    0    0 -0.12215137761E-01  0.10399696513E+00 -0.38282572233E-01  0.88703446026E+00  0.88000000000E+00 0. -1.
        -11    1    4    4    0    0  0.24543981516E-02 -0.29113819498E-01  0.16194306571E-01  0.33408909625E-01  0.51100000000E-03 0.  1.
         11    1    4    4    0    0 -0.75997569857E-03 -0.96969963041E-01  0.16124646407E-01  0.98305730443E-01  0.51100000000E-03 0. -1.
</event>
<event>
 8    1  0.1086486E+005  0.1043930E+01  0.7957747E-01            NaN
         13   -1    0    0    0    0  0.00000000000E+00  0.00000000000E+00  0.74505805969E-08  0.10566000000E+00  0.10566000000E+00 0. -1.
     999900   -1    0    0    0    0 -0.00000000000E+00 -0.00000000000E+00 -0.74505805969E-08  0.93827000000E+00  0.93827000000E+00 0. -1.
     999902    2    1    2    0    0  0.21187991925E-01  0.93296768841E-02 -0.63587539170E-02  0.10199215093E+01  0.10196388957E+01 0.  0.
     999903    2    3    3    0    0 -0.11625590721E+00  0.21448039588E-01  0.44018659896E-01  0.12774688296E+00  0.20153642927E-01 0.  0.
         14    1    1    2    0    0 -0.21187991925E-01 -0.93296768841E-02  0.63587539170E-02  0.24008490663E-01  0.00000000000E+00 0. -1.
     999901    1    3    3    0    0  0.13744389914E+00 -0.12118362704E-01 -0.50377413813E-01  0.89217462637E+00  0.88000000000E+00 0. -1.
        -11    1    4    4    0    0 -0.71596902450E-01  0.67705990036E-02  0.18516975687E-01  0.74263698810E-01  0.51100000000E-03 0.  1.
         11    1    4    4    0    0 -0.44659004764E-01  0.14677440584E-01  0.25501684208E-01  0.53483184152E-01  0.51100000000E-03 0. -1.
</event>
<event>
 8    1  0.1086486E+005  0.1043930E+01  0.7957747E-01            NaN
         13   -1    0    0    0    0  0.00000000000E+00  0.00000000000E+00  0.74505805969E-08  0.10566000000E+00  0.10566000000E+00 0. -1.
     999900   -1    0    0    0    0 -0.00000000000E+00 -0.00000000000E+00 -0.74505805969E-08  0.93827000000E+00  0.93827000000E+00 0. -1.
     999902    2    1    2    0    0 -0.18314608654E-01 -0.16609604880E-01  0.22895884982E-02  0.10190996541E+01  0.10187971137E+01 0.  0.
     999903    2    3    3    0    0  0.75064396192E-01 -0.44717076457E-01 -0.92320182400E-01  0.12867240983E+00  0.19982303925E-01 0.  0.
         14    1    1    2    0    0  0.18314608654E-01  0.16609604880E-01 -0.22895884982E-02  0.24830345949E-01  0.00000000000E+00 0.  1.
     999901    1    3    3    0    0 -0.93379004847E-01  0.28107471577E-01  0.94609770898E-01  0.89042724422E+00  0.88000000000E+00 0.  1.
        -11    1    4    4    0    0  0.24017002680E-01 -0.14726453502E-01 -0.44005616241E-01  0.52253614537E-01  0.51100000000E-03 0. -1.
         11    1    4    4    0    0  0.51047393512E-01 -0.29990622955E-01 -0.48314566159E-01  0.76418795291E-01  0.51100000000E-03 0.  1.
</event>
<event>
 8    1  0.1086486E+005  0.1043930E+01  0.7957747E-01            NaN
         13   -1    0    0    0    0  0.00000000000E+00  0.00000000000E+00  0.74505805969E-08  0.10566000000E+00  0.10566000000E+00 0. -1.
     999900   -1    0    0    0    0 -0.00000000000E+00 -0.00000000000E+00 -0.74505805969E-08  0.93827000000E+00  0.93827000000E+00 0.  1.
     999902    2    1    2    0    0  0.20210221500E-01 -0.72271913459E-02 -0.94882197969E-02  0.10204627534E+01  0.10201928834E+01 0.  0.
     999903    2    3    3    0    0 -0.56783351761E-01 -0.68815958185E-01  0.91387939234E-01  0.12922923407E+00  0.19709245621E-01 0.  0.
         14    1    1    2    0    0 -0.20210221500E-01  0.72271913459E-02  0.94882197969E-02  0.23467246595E-01  0.00000000000E+00 0. -1.
     999901    1    3    3    0    0  0.76993573261E-01  0.61588766839E-01 -0.10087615903E+00  0.89123351933E+00  0.88000000000E+00 0.  1.
        -11    1    4    4    0    0 -0.11884362629E-01 -0.24476944801E-01  0.18963765064E-01  0.33169932293E-01  0.51100000000E-03 0.  1.
         11    1    4    4    0    0 -0.44898989132E-01 -0.44339013384E-01  0.72424174170E-01  0.96059301778E-01  0.51100000000E-03 0. -1.
</event>
<event>
 8    1  0.1086486E+005  0.1043930E+01  0.7957747E-01            NaN
         13   -1    0    0    0    0  0.00000000000E+00  0.00000000000E+00  0.74505805969E-08  0.10566000000E+00  0.10566000000E+00 0. -1.
     999900   -1    0    0    0    0 -0.00000000000E+00 -0.00000000000E+00 -0.74505805969E-08  0.93827000000E+00  0.93827000000E+00 0. -1.
     999902    2    1    2    0    0  0.17246278450E-01 -0.15886319851E-01 -0.37322529428E-02  0.10201868117E+01  0.10199104822E+01 0.  0.
     999903    2    3    3    0    0  0.21468328835E-01 -0.12725759251E+00  0.23729486618E-01  0.13273228710E+00  0.19984681862E-01 0.  0.
         14    1    1    2    0    0 -0.17246278450E-01  0.15886319851E-01  0.37322529428E-02  0.23743188304E-01  0.00000000000E+00 0. -1.
     999901    1    3    3    0    0 -0.42220503848E-02  0.11137127266E+00 -0.27461739561E-01  0.88745452459E+00  0.88000000000E+00 0. -1.
        -11    1    4    4    0    0  0.13190604112E-01 -0.28306872868E-01  0.39284672551E-02  0.31479597589E-01  0.51100000000E-03 0.  1.
         11    1    4    4    0    0  0.82777247232E-02 -0.98950719645E-01  0.19801019363E-01  0.10125268951E+00  0.51100000000E-03 0. -1.
</event>
<event>
 8    1  0.1086486E+005  0.1043930E+01  0.7957747E-01            NaN
         13   -1    0    0    0    0  0.00000000000E+00  0.00000000000E+00  0.74505805969E-08  0.10566000000E+00  0.10566000000E+00 0.  1.
     999900   -1    0    0    0    0 -0.00000000000E+00 -0.00000000000E+00 -0.74505805969E-08  0.93827000000E+00  0.93827000000E+00 0.  1.
     999902    2    1    2    0    0  0.10681340574E-01  0.21535568601E-01  0.43910803663E-02  0.10194932789E+01  0.10192003691E+01 0.  0.
     999903    2    3    3    0    0 -0.10746052190E+00 -0.36178836751E-01 -0.55155702604E-01  0.12773419057E+00  0.20425472224E-01 0.  0.
         14    1    1    2    0    0 -0.10681340574E-01 -0.21535568601E-01 -0.43910803663E-02  0.24436721102E-01  0.00000000000E+00 0. -1.
     999901    1    3    3    0    0  0.11814186247E+00  0.57714405352E-01  0.59546782970E-01  0.89175908833E+00  0.88000000000E+00 0.  1.
        -11    1    4    4    0    0 -0.79456156472E-01 -0.28000665951E-01 -0.30713813128E-01  0.89671163329E-01  0.51100000000E-03 0. -1.
         11    1    4    4    0    0 -0.28004365426E-01 -0.81781708003E-02 -0.24441889476E-01  0.38063027240E-01  0.51100000000E-03 0.  1.
</event>
<event>
 7    1  0.1086486E+005  0.1043930E+01  0.7957747E-01            NaN
         13   -1    0    0    0    0  0.00000000000E+00  0.00000000000E+00  0.74505805969E-08  0.10566000000E+00  0.10566000000E+00 0. -1.
     999900   -1    0    0    0    0 -0.00000000000E+00 -0.00000000000E+00 -0.74505805969E-08  0.93827000000E+00  0.93827000000E+00 0. -1.
     999903    2    1    2    0    0 -0.78626247910E-01 -0.17815387860E-01 -0.65146485193E-01  0.10566007077E+00  0.20506367709E-01 0.  0.
         14    1    1    2    0    0  0.76202778186E-02  0.16410330520E-01 -0.45060004208E-01  0.48556889944E-01  0.00000000000E+00 0.  1.
     999901    1    1    2    0    0  0.71005970091E-01  0.14050573398E-02  0.11020648940E+00  0.88971303929E+00  0.88000000000E+00 0. -1.
        -11    1    3    3    0    0 -0.38407454143E-01 -0.25028457345E-02 -0.41301648743E-01  0.56457807966E-01  0.51100000000E-03 0. -1.
         11    1    3    3    0    0 -0.40218793767E-01 -0.15312542125E-01 -0.23844836450E-01  0.49202262801E-01  0.51100000000E-03 0.  1.
</event>
<event>
 8    1  0.1086486E+005  0.1043930E+01  0.7957747E-01            NaN
         13   -1    0    0    0    0  0.00000000000E+00  0.00000000000E+00  0.74505805969E-08  0.10566000000E+00  0.10566000000E+00 0. -1.
     999900   -1    0    0    0    0 -0.00000000000E+00 -0.00000000000E+00 -0.74505805969E-08  0.93827000000E+00  0.93827000000E+00 0.  1.
     999902    2    1    2    0    0  0.33290933842E-02 -0.15960544149E-01 -0.19173388016E-01  0.10187617533E+01  0.10184508184E+01 0.  0.
     999903    2    3    3    0    0  0.49644625390E-01  0.10610185079E+00  0.44593769818E-01  0.12684774000E+00  0.19482126835E-01 0.  0.
         14    1    1    2    0    0 -0.33290933842E-02  0.15960544149E-01  0.19173388016E-01  0.25168246667E-01  0.00000000000E+00 0. -1.
     999901    1    3    3    0    0 -0.46315532006E-01 -0.12206239494E+00 -0.63767157834E-01  0.89191401333E+00  0.88000000000E+00 0.  1.
        -11    1    4    4    0    0  0.14796319957E-01  0.31700081199E-01  0.40258939793E-02  0.35217824686E-01  0.51100000000E-03 0.  1.
         11    1    4    4    0    0  0.34848305433E-01  0.74401769587E-01  0.40567875839E-01  0.91629915313E-01  0.51100000000E-03 0. -1.
</event>
<event>
 8    1  0.1086486E+005  0.1043930E+01  0.7957747E-01            NaN
         13   -1    0    0    0    0  0.00000000000E+00  0.00000000000E+00  0.74505805969E-08  0.10566000000E+00  0.10566000000E+00 0.  1.
     999900   -1    0    0    0    0 -0.00000000000E+00 -0.00000000000E+00 -0.74505805969E-08  0.93827000000E+00  0.93827000000E+00 0.  1.
     999902    2    1    2    0    0  0.23578003863E-01 -0.13978606045E-01 -0.22906548961E-02  0.10164241680E+01  0.10160519271E+01 0.  0.
     999903    2    3    3    0    0 -0.52858487572E-01 -0.38107716231E-01 -0.10665069937E+00  0.12664005372E+00  0.20423363720E-01 0.  0.
         14    1    1    2    0    0 -0.23578003863E-01  0.13978606045E-01  0.22906548961E-02  0.27505831981E-01  0.00000000000E+00 0.  1.
     999901    1    3    3    0    0  0.76436491435E-01  0.24129110186E-01  0.10436004447E+00  0.88978411430E+00  0.88000000000E+00 0. -1.
        -11    1    4    4    0    0 -0.39068405833E-01 -0.34436745389E-01 -0.94451708619E-01  0.10785924230E+00  0.51100000000E-03 0. -1.
         11    1    4    4    0    0 -0.13790081739E-01 -0.36709708417E-02 -0.12198990747E-01  0.18780811418E-01  0.51100000000E-03 0.  1.
</event>
<event>
 8    1  0.1086486E+005  0.1043930E+01  0.7957747E-01            NaN
         13   -1    0    0    0    0  0.00000000000E+00  0.00000000000E+00  0.74505805969E-08  0.10566000000E+00  0.10566000000E+00 0.  1.
     999900   -1    0    0    0    0 -0.00000000000E+00 -0.00000000000E+00 -0.74505805969E-08  0.93827000000E+00  0.93827000000E+00 0.  1.
     999902    2    1    2    0    0 -0.63050449695E-02 -0.12086133683E-01  0.19345492456E-01  0.10202640688E+01  0.10199895558E+01 0.  0.
     999903    2    3    3    0    0  0.20419866214E-01  0.56346822786E-01 -0.11042988546E+00  0.12771774560E+00  0.22915661961E-01 0.  0.
         14    1    1    2    0    0  0.63050449695E-02  0.12086133683E-01 -0.19345492456E-01  0.23665931164E-01  0.00000000000E+00 0. -1.
     999901    1    3    3    0    0 -0.26724911183E-01 -0.68432956469E-01  0.12977537792E+00  0.89254632324E+00  0.88000000000E+00 0. -1.
        -11    1    4    4    0    0  0.10321185736E-01  0.22342533933E-01 -0.24399763023E-01  0.34660139268E-01  0.51100000000E-03 0.  1.
         11    1    4    4    0    0  0.10098680478E-01  0.34004288853E-01 -0.86030122442E-01  0.93057606331E-01  0.51100000000E-03 0. -1.
</event>
<event>
 8    1  0.1086486E+005  0.1043930E+01  0.7957747E-01            NaN
         13   -1    0    0    0    0  0.00000000000E+00  0.00000000000E+00  0.74505805969E-08  0.10566000000E+00  0.10566000000E+00 0.  1.
     999900   -1    0    0    0    0 -0.00000000000E+00 -0.00000000000E+00 -0.74505805969E-08  0.93827000000E+00  0.93827000000E+00 0. -1.
     999902    2    1    2    0    0 -0.20261972205E-01  0.41772101439E-02  0.13991203163E-01  0.10189550051E+01  0.10186488856E+01 0.  0.
     999903    2    3    3    0    0  0.84856024713E-02  0.10265586387E+00  0.77952751797E-01  0.13068953357E+00  0.19821474060E-01 0.  0.
         14    1    1    2    0    0  0.20261972205E-01 -0.41772101439E-02 -0.13991203163E-01  0.24974994858E-01  0.00000000000E+00 0.  1.
     999901    1    3    3    0    0 -0.28747574676E-01 -0.98478653730E-01 -0.63961548634E-01  0.88826547158E+00  0.88000000000E+00 0. -1.
        -11    1    4    4    0    0  0.50850148345E-02  0.21169917442E-01  0.26317452030E-01  0.34159803611E-01  0.51100000000E-03 0.  1.
         11    1    4    4    0    0  0.34005876368E-02  0.81485946432E-01  0.51635299767E-01  0.96529729955E-01  0.51100000000E-03 0. -1.
</event>
<event>
 8    1  0.1086486E+005  0.1043930E+01  0.7957747E-01            NaN
         13   -1    0    0    0    0  0.00000000000E+00  0.00000000000E+00  0.74505805969E-08  0.10566000000E+00  0.10566000000E+00 0. -1.
     999900   -1    0    0    0    0 -0.00000000000E+00 -0.00000000000E+00 -0.74505805969E-08  0.93827000000E+00  0.93827000000E+00 0.  1.
     999902    2    1    2    0    0 -0.68294946055E-03 -0.20346430541E-01  0.13698161595E-01  0.10193926145E+01  0.10190972570E+01 0.  0.
     999903    2    3    3    0    0  0.15319296891E-01  0.11899212230E+00  0.36694275527E-01  0.12798915622E+00  0.25316955316E-01 0.  0.
         14    1    1    2    0    0  0.68294946055E-03  0.20346430541E-01 -0.13698161595E-01  0.24537385492E-01  0.00000000000E+00 0.  1.
     999901    1    3    3    0    0 -0.16002246352E-01 -0.13933855284E+00 -0.22996113933E-01  0.89140345829E+00  0.88000000000E+00 0. -1.
        -11    1    4    4    0    0 -0.16719638042E-02  0.52008261799E-01  0.25611893012E-01  0.57999008121E-01  0.51100000000E-03 0.  1.
         11    1    4    4    0    0  0.16991260695E-01  0.66983860499E-01  0.11082382515E-01  0.69990148097E-01  0.51100000000E-03 0. -1.
</event>
<event>
 8    1  0.1086486E+005  0.1043930E+01  0.7957747E-01            NaN
         13   -1    0    0    0    0  0.00000000000E+00  0.00000000000E+00  0.74505805969E-08  0.10566000000E+00  0.10566000000E+00 0. -1.
     999900   -1    0    0    0    0 -0.00000000000E+00 -0.00000000000E+00 -0.74505805969E-08  0.93827000000E+00  0.93827000000E+00 0. -1.
     999902    2    1    2    0    0  0.15739961910E-01 -0.15471553469E-01  0.89049478448E-02  0.10201305575E+01  0.10198529016E+01 0.  0.
     999903    2    3    3    0    0 -0.12300913774E+00 -0.32100435892E-01 -0.42462902442E-02  0.12900722851E+00  0.21520875358E-01 0.  0.
         14    1    1    2    0    0 -0.15739961910E-01  0.15471553469E-01 -0.89049478448E-02  0.23799442510E-01  0.00000000000E+00 0.  1.
     999901    1    3    3    0    0  0.13874909965E+00  0.16628882423E-01  0.13151238089E-01  0.89112332898E+00  0.88000000000E+00 0. -1.
        -11    1    4    4    0    0 -0.48930935120E-01 -0.92150822166E-02  0.82491837998E-02  0.50472411339E-01  0.51100000000E-03 0. -1.
         11    1    4    4    0    0 -0.74078202618E-01 -0.22885353675E-01 -0.12495474044E-01  0.78534817174E-01  0.51100000000E-03 0.  1.
</event>
<event>
 8    1  0.1086486E+005  0.1043930E+01  0.7957747E-01            NaN
         13   -1    0    0    0    0  0.00000000000E+00  0.00000000000E+00  0.74505805969E-08  0.10566000000E+00  0.10566000000E+00 0.  1.
     999900   -1    0    0    0    0 -0.00000000000E+00 -0.00000000000E+00 -0.74505805969E-08  0.93827000000E+00  0.93827000000E+00 0.  1.
     999902    2    1    2    0    0 -0.22920506914E-01 -0.15794623995E-02 -0.89538889035E-03  0.10209376956E+01  0.10206787606E+01 0.  0.
     999903    2    3    3    0    0  0.49767724603E-01 -0.11254533329E+00 -0.37900351561E-01  0.13022653552E+00  0.19473968443E-01 0.  0.
         14    1    1    2    0    0  0.22920506914E-01  0.15794623995E-02  0.89538889035E-03  0.22992304363E-01  0.00000000000E+00 0.  1.
     999901    1    3    3    0    0 -0.72688231517E-01  0.11096587089E+00  0.37004962670E-01  0.89071116012E+00  0.88000000000E+00 0. -1.
        -11    1    4    4    0    0  0.25438964028E-01 -0.53287272403E-01 -0.28193051622E-01  0.65435338861E-01  0.51100000000E-03 0. -1.
         11    1    4    4    0    0  0.24328760574E-01 -0.59258060884E-01 -0.97072999384E-02  0.64791196654E-01  0.51100000000E-03 0.  1.
</event>
<event>
 8    1  0.1086486E+005  0.1043930E+01  0.7957747E-01            NaN
         13   -1    0    0    0    0  0.00000000000E+00  0.00000000000E+00  0.74505805969E-08  0.10566000000E+00  0.10566000000E+00 0.  1.
     999900   -1    0    0    0    0 -0.00000000000E+00 -0.00000000000E+00 -0.74505805969E-08  0.93827000000E+00  0.93827000000E+00 0.  1.
     999902    2    1    2    0    0  0.20487099234E-01  0.98176793646E-02 -0.19088406192E-02  0.10211319357E+01  0.10208774061E+01 0.  0.
     999903    2    3    3    0    0 -0.29980932808E-01 -0.75913181380E-01 -0.99374091901E-01  0.13017948021E+00  0.20243998808E-01 0.  0.
         14    1    1    2    0    0 -0.20487099234E-01 -0.98176793646E-02  0.19088406192E-02  0.22798064296E-01  0.00000000000E+00 0. -1.
     999901    1    3    3    0    0  0.50468032042E-01  0.85730860744E-01  0.97465251281E-01  0.89095245549E+00  0.88000000000E+00 0.  1.
        -11    1    4    4    0    0 -0.13937398438E-01 -0.33795989382E-01 -0.60350528687E-01  0.70561089896E-01  0.51100000000E-03 0.  1.
         11    1    4    4    0    0 -0.16043534370E-01 -0.42117191998E-01 -0.39023563214E-01  0.59618390315E-01  0.51100000000E-03 0. -1.
</event>
<event>
 8    1  0.1086486E+005  0.1043930E+01  0.7957747E-01            NaN
         13   -1    0    0    0    0  0.00000000000E+00  0.00000000000E+00  0.74505805969E-08  0.10566000000E+00  0.10566000000E+00 0. -1.
     999900   -1    0    0    0    0 -0.00000000000E+00 -0.00000000000E+00 -0.74505805969E-08  0.93827000000E+00  0.93827000000E+00 0.  1.
     999902    2    1    2    0    0 -0.20666710246E-01 -0.43633614883E-02 -0.11232950044E-01  0.10200065596E+01  0.10197259684E+01 0.  0.
     999903    2    3    3    0    0  0.93671707512E-01 -0.73424154714E-01  0.43348643169E-01  0.12825445429E+00  0.20114792982E-01 0.  0.
         14    1    1    2    0    0  0.20666710246E-01  0.43633614883E-02  0.11232950044E-01  0.23923440441E-01  0.00000000000E+00 0.  1.
     999901    1    3    3    0    0 -0.11433841776E+00  0.69060793226E-01 -0.54581593212E-01  0.89175210527E+00  0.88000000000E+00 0.  1.
        -11    1    4    4    0    0  0.26309461202E-01 -0.11781748787E-01  0.52099115224E-02  0.29298492321E-01  0.51100000000E-03 0. -1.
         11    1    4    4    0    0  0.67362246310E-01 -0.61642405927E-01  0.38138731646E-01  0.98955961968E-01  0.51100000000E-03 0.  1.
</event>
<event>
 8    1  0.1086486E+005  0.1043930E+01  0.7957747E-01            NaN
         13   -1    0    0    0    0  0.00000000000E+00  0.00000000000E+00  0.74505805969E-08  0.10566000000E+00  0.10566000000E+00 0. -1.
     999900   -1    0    0    0    0 -0.00000000000E+00 -0.00000000000E+00 -0.74505805969E-08  0.93827000000E+00  0.93827000000E+00 0.  1.
     999902    2    1    2    0    0  0.18451158862E-01 -0.16561388223E-01  0.17950821739E-02  0.10190714569E+01  0.10187682205E+01 0.  0.
     999903    2    3    3    0    0  0.90737789266E-01 -0.78239066844E-01  0.52212030827E-01  0.13252119796E+00  0.21933393827E-01 0.  0.
         14    1    1    2    0    0 -0.18451158862E-01  0.16561388223E-01 -0.17950821739E-02  0.24858543063E-01  0.00000000000E+00 0.  1.
     999901    1    3    3    0    0 -0.72286630404E-01  0.61677678621E-01 -0.50416948653E-01  0.88655025897E+00  0.88000000000E+00 0.  1.
        -11    1    4    4    0    0  0.37040014532E-01 -0.20563644058E-01  0.11919156437E-01  0.44013106510E-01  0.51100000000E-03 0.  1.
         11    1    4    4    0    0  0.53697774734E-01 -0.57675422786E-01  0.40292874391E-01  0.88508091452E-01  0.51100000000E-03 0. -1.
</event>
<event>
 8    1  0.1086486E+005  0.1043930E+01  0.7957747E-01            NaN
         13   -1    0    0    0    0  0.00000000000E+00  0.00000000000E+00  0.74505805969E-08  0.10566000000E+00  0.10566000000E+00 0. -1.
     999900   -1    0    0    0    0 -0.00000000000E+00 -0.00000000000E+00 -0.74505805969E-08  0.93827000000E+00  0.93827000000E+00 0.  1.
     999902    2    1    2    0    0  0.22277677017E-01  0.23335527253E-02  0.79592635230E-02  0.10201583733E+01  0.10198813736E+01 0.  0.
     999903    2    3    3    0    0  0.16077855052E-01  0.80208655330E-01  0.10157854112E+00  0.13175106886E+00  0.18660608671E-01 0.  0.
         14    1    1    2    0    0 -0.22277677017E-01 -0.23335527253E-02 -0.79592635230E-02  0.23771626730E-01  0.00000000000E+00 0.  1.
     999901    1    3    3    0    0  0.61998219651E-02 -0.77875102605E-01 -0.93619277596E-01  0.88840730441E+00  0.88000000000E+00 0.  1.
        -11    1    4    4    0    0  0.15093412526E-01  0.52331725437E-01  0.54662170614E-01  0.77166278944E-01  0.51100000000E-03 0. -1.
         11    1    4    4    0    0  0.98444252557E-03  0.27876929893E-01  0.46916370505E-01  0.54584789912E-01  0.51100000000E-03 0.  1.
</event>
<event>
 8    1  0.1086486E+005  0.1043930E+01  0.7957747E-01            NaN
         13   -1    0    0    0    0  0.00000000000E+00  0.00000000000E+00  0.74505805969E-08  0.10566000000E+00  0.10566000000E+00 0.  1.
     999900   -1    0    0    0    0 -0.00000000000E+00 -0.00000000000E+00 -0.74505805969E-08  0.93827000000E+00  0.93827000000E+00 0. -1.
     999902    2    1    2    0    0 -0.12161780671E-01  0.20635226915E-01 -0.29695900265E-02  0.10197941353E+01  0.10195084789E+01 0.  0.
     999903    2    3    3    0    0  0.13336432250E-02 -0.50714948580E-01 -0.11704944082E+00  0.12946431645E+00  0.22060213618E-01 0.  0.
         14    1    1    2    0    0  0.12161780671E-01 -0.20635226915E-01  0.29695900265E-02  0.24135864680E-01  0.00000000000E+00 0.  1.
     999901    1    3    3    0    0 -0.13495423896E-01  0.71350175495E-01  0.11407985079E+00  0.89032981887E+00  0.88000000000E+00 0.  1.
        -11    1    4    4    0    0 -0.39942434753E-02 -0.18825988905E-01 -0.68334900176E-01  0.70995010686E-01  0.51100000000E-03 0.  1.
         11    1    4    4    0    0  0.53278867003E-02 -0.31888959675E-01 -0.48714540641E-01  0.58469305766E-01  0.51100000000E-03 0. -1.
</event>
<event>
 8    1  0.1086486E+005  0.1043930E+01  0.7957747E-01            NaN
         13   -1    0    0    0    0  0.00000000000E+00  0.00000000000E+00  0.74505805969E-08  0.10566000000E+00  0.10566000000E+00 0. -1.
     999900   -1    0    0    0    0 -0.00000000000E+00 -0.00000000000E+00 -0.74505805969E-08  0.93827000000E+00  0.93827000000E+00 0.  1.
     999902    2    1    2    0    0 -0.29079804497E-02 -0.22375869057E-01  0.16335766748E-01  0.10160733465E+01  0.10156914159E+01 0.  0.
     999903    2    3    3    0    0  0.44432296492E-01 -0.11940831636E+00 -0.68088569100E-02  0.12917308651E+00  0.20168062831E-01 0.  0.
         14    1    1    2    0    0  0.29079804497E-02  0.22375869057E-01 -0.16335766748E-01  0.27856653453E-01  0.00000000000E+00 0. -1.
     999901    1    3    3    0    0 -0.47340276942E-01  0.97032447303E-01  0.23144623658E-01  0.88690026004E+00  0.88000000000E+00 0. -1.
        -11    1    4    4    0    0  0.35466178173E-01 -0.10433143003E+00  0.41165318839E-03  0.11019676795E+00  0.51100000000E-03 0. -1.
         11    1    4    4    0    0  0.89661183190E-02 -0.15076886326E-01 -0.72205100984E-02  0.18976318560E-01  0.51100000000E-03 0.  1.
</event>
<event>
 8    1  0.1086486E+005  0.1043930E+01  0.7957747E-01            NaN
         13   -1    0    0    0    0  0.00000000000E+00  0.00000000000E+00  0.74505805969E-08  0.10566000000E+00  0.10566000000E+00 0. -1.
     999900   -1    0    0    0    0 -0.00000000000E+00 -0.00000000000E+00 -0.74505805969E-08  0.93827000000E+00  0.93827000000E+00 0.  1.
     999902    2    1    2    0    0 -0.41504896867E-02  0.22097947786E-01  0.67348654249E-02  0.10204586499E+01  0.10201886845E+01 0.  0.
     999903    2    3    3    0    0  0.34646158725E-01 -0.95610521442E-01  0.76809919768E-01  0.12901545103E+00  0.20087177628E-01 0.  0.
         14    1    1    2    0    0  0.41504896867E-02 -0.22097947786E-01 -0.67348654249E-02  0.23471350052E-01  0.00000000000E+00 0.  1.
     999901    1    3    3    0    0 -0.38796648412E-01  0.11770846923E+00 -0.70075054343E-01  0.89144319892E+00  0.88000000000E+00 0. -1.
        -11    1    4    4    0    0  0.36266561210E-01 -0.84596545695E-01  0.64401556892E-01  0.11233726299E+00  0.51100000000E-03 0.  1.
         11    1    4    4    0    0 -0.16204024852E-02 -0.11013975747E-01  0.12408362876E-01  0.16678188038E-01  0.51100000000E-03 0. -1.
</event>
<event>
 8    1  0.1086486E+005  0.1043930E+01  0.7957747E-01            NaN
         13   -1    0    0    0    0  0.00000000000E+00  0.00000000000E+00  0.74505805969E-08  0.10566000000E+00  0.10566000000E+00 0.  1.
     999900   -1    0    0    0    0 -0.00000000000E+00 -0.00000000000E+00 -0.74505805969E-08  0.93827000000E+00  0.93827000000E+00 0. -1.
     999902    2    1    2    0    0  0.17633993943E-01  0.15330311150E-01  0.44110314374E-02  0.10201511569E+01  0.10198739871E+01 0.  0.
     999903    2    3    3    0    0  0.12483606999E+00  0.22411882207E-01  0.35091511904E-01  0.13308648863E+00  0.19856042250E-01 0.  0.
         14    1    1    2    0    0 -0.17633993943E-01 -0.15330311150E-01 -0.44110314374E-02  0.23778843132E-01  0.00000000000E+00 0. -1.
     999901    1    3    3    0    0 -0.10720207605E+00 -0.70815710571E-02 -0.30680480466E-01  0.88706466824E+00  0.88000000000E+00 0. -1.
        -11    1    4    4    0    0  0.28011382922E-01  0.48667546975E-02 -0.51358353832E-03  0.28440249006E-01  0.51100000000E-03 0.  1.
         11    1    4    4    0    0  0.96824687066E-01  0.17545127509E-01  0.35605095442E-01  0.10464623962E+00  0.51100000000E-03 0. -1.
</event>
<event>
 8    1  0.1086486E+005  0.1043930E+01  0.7957747E-01            NaN
         13   -1    0    0    0    0  0.00000000000E+00  0.00000000000E+00  0.74505805969E-08  0.10566000000E+00  0.10566000000E+00 0. -1.
     999900   -1    0    0    0    0 -0.00000000000E+00 -0.00000000000E+00 -0.74505805969E-08  0.93827000000E+00  0.93827000000E+00 0. -1.
     999902    2    1    2    0    0 -0.40165966601E-02  0.18579920129E-01 -0.15069441436E-01  0.10196723302E+01  0.10193837483E+01 0.  0.
     999903    2    3    3    0    0 -0.32766811896E-01 -0.89286375497E-01  0.82530120607E-01  0.12726693623E+00  0.18437229693E-01 0.  0.
         14    1    1    2    0    0  0.40165966601E-02 -0.18579920129E-01  0.15069441436E-01  0.24257669837E-01  0.00000000000E+00 0. -1.
     999901    1    3    3    0    0  0.28750215236E-01  0.10786629563E+00 -0.97599562043E-01  0.89240539393E+00  0.88000000000E+00 0. -1.
        -11    1    4    4    0    0 -0.95851191084E-02 -0.41509105646E-01  0.27050709628E-01  0.50466646136E-01  0.51100000000E-03 0.  1.
         11    1    4    4    0    0 -0.23181692788E-01 -0.47777269851E-01  0.55479410980E-01  0.76800290095E-01  0.51100000000E-03 0. -1.
</event>
<event>
 8    1  0.1086486E+005  0.1043930E+01  0.7957747E-01            NaN
         13   -1    0    0    0    0  0.00000000000E+00  0.00000000000E+00  0.74505805969E-08  0.10566000000E+00  0.10566000000E+00 0. -1.
     999900   -1    0    0    0    0 -0.00000000000E+00 -0.00000000000E+00 -0.74505805969E-08  0.93827000000E+00  0.93827000000E+00 0.  1.
     999902    2    1    2    0    0 -0.41527245750E-04 -0.12900115336E-01 -0.20622653377E-01  0.10196049402E+01  0.10193147333E+01 0.  0.
     999903    2    3    3    0    0  0.14201590300E-02  0.47498126643E-01 -0.12116682409E+00  0.13182162522E+00  0.20915370653E-01 0.  0.
         14    1    1    2    0    0  0.41527245750E-04  0.12900115336E-01  0.20622653377E-01  0.24325059764E-01  0.00000000000E+00 0. -1.
     999901    1    3    3    0    0 -0.14616862757E-02 -0.60398241980E-01  0.10054417071E+00  0.88778331502E+00  0.88000000000E+00 0. -1.
        -11    1    4    4    0    0 -0.76699975179E-02  0.30066007760E-01 -0.87389797192E-01  0.92736354570E-01  0.51100000000E-03 0. -1.
         11    1    4    4    0    0  0.90901565479E-02  0.17432118883E-01 -0.33777026894E-01  0.39085270648E-01  0.51100000000E-03 0.  1.
</event>
<event>
 8    1  0.1086486E+005  0.1043930E+01  0.7957747E-01            NaN
         13   -1    0    0    0    0  0.00000000000E+00  0.00000000000E+00  0.74505805969E-08  0.10566000000E+00  0.10566000000E+00 0.  1.
     999900   -1    0    0    0    0 -0.00000000000E+00 -0.00000000000E+00 -0.74505805969E-08  0.93827000000E+00  0.93827000000E+00 0. -1.
     999902    2    1    2    0    0 -0.12522213575E-01 -0.91765004215E-02  0.17139968603E-01  0.10208044186E+01  0.10205424383E+01 0.  0.
     999903    2    3    3    0    0 -0.83451624080E-01  0.85528909276E-01  0.53185402857E-01  0.13215411095E+00  0.18885287408E-01 0.  0.
         14    1    1    2    0    0  0.12522213575E-01  0.91765004215E-02 -0.17139968603E-01  0.23125581431E-01  0.00000000000E+00 0. -1.
     999901    1    3    3    0    0  0.70929410505E-01 -0.94705409698E-01 -0.36045434254E-01  0.88865030762E+00  0.88000000000E+00 0. -1.
        -11    1    4    4    0    0 -0.73424737124E-01  0.66022901264E-01  0.39860690294E-01  0.10648639004E+00  0.51100000000E-03 0. -1.
         11    1    4    4    0    0 -0.10026886955E-01  0.19506008013E-01  0.13324712562E-01  0.25667720906E-01  0.51100000000E-03 0.  1.
</event>
<event>
 8    1  0.1086486E+005  0.1043930E+01  0.7957747E-01            NaN
         13   -1    0    0    0    0  0.00000000000E+00  0.00000000000E+00  0.74505805969E-08  0.10566000000E+00  0.10566000000E+00 0. -1.
     999900   -1    0    0    0    0 -0.00000000000E+00 -0.00000000000E+00 -0.74505805969E-08  0.93827000000E+00  0.93827000000E+00 0. -1.
     999902    2    1    2    0    0  0.22876960646E-01 -0.42557577517E-02 -0.46450064927E-02  0.10202014752E+01  0.10199254910E+01 0.  0.
     999903    2    3    3    0    0  0.29396613062E-01 -0.12153769772E+00 -0.36532732248E-01  0.13182408562E+00  0.20183562575E-01 0.  0.
         14    1    1    2    0    0 -0.22876960646E-01  0.42557577517E-02  0.46450064927E-02  0.23728524770E-01  0.00000000000E+00 0.  1.
     999901    1    3    3    0    0 -0.65196524158E-02  0.11728193997E+00  0.31887725756E-01  0.88837738961E+00  0.88000000000E+00 0.  1.
        -11    1    4    4    0    0  0.26748498090E-01 -0.68454877019E-01 -0.22112167973E-01  0.76751295958E-01  0.51100000000E-03 0.  1.
         11    1    4    4    0    0  0.26481149720E-02 -0.53082820702E-01 -0.14420564275E-01  0.55072789666E-01  0.51100000000E-03 0. -1.
</event>
<event>
 8    1  0.1086486E+005  0.1043930E+01  0.7957747E-01            NaN
         13   -1    0    0    0    0  0.00000000000E+00  0.00000000000E+00  0.74505805969E-08  0.10566000000E+00  0.10566000000E+00 0. -1.
     999900   -1    0    0    0    0 -0.00000000000E+00 -0.00000000000E+00 -0.74505805969E-08  0.93827000000E+00  0.93827000000E+00 0. -1.
     999902    2    1    2    0    0 -0.64616675703E-02  0.22839419086E-01  0.12032098235E-02  0.10201636388E+01  0.10198867633E+01 0.  0.
     999903    2    3    3    0    0  0.51878269645E-02 -0.26894355242E-01  0.12536483015E+00  0.12998092326E+00  0.20699755610E-01 0.  0.
         14    1    1    2    0    0  0.64616675703E-02 -0.22839419086E-01 -0.12032098235E-02  0.23766361225E-01  0.00000000000E+00 0. -1.
     999901    1    3    3    0    0 -0.11649494535E-01  0.49733774328E-01 -0.12416162032E+00  0.89018271551E+00  0.88000000000E+00 0. -1.
        -11    1    4    4    0    0 -0.72586546746E-02 -0.40984429069E-02  0.29733429383E-01  0.30884028976E-01  0.51100000000E-03 0. -1.
         11    1    4    4    0    0  0.12446481639E-01 -0.22795912335E-01  0.95631400765E-01  0.99096894289E-01  0.51100000000E-03 0.  1.
</event>
<event>
 8    1  0.1086486E+005  0.1043930E+01  0.7957747E-01            NaN
         13   -1    0    0    0    0  0.00000000000E+00  0.00000000000E+00  0.74505805969E-08  0.10566000000E+00  0.10566000000E+00 0.  1.
     999900   -1    0    0    0    0 -0.00000000000E+00 -0.00000000000E+00 -0.74505805969E-08  0.93827000000E+00  0.93827000000E+00 0. -1.
     999902    2    1    2    0    0 -0.15434582544E-01  0.31153783414E-02  0.17749919786E-01  0.10202025565E+01  0.10199265978E+01 0.  0.
     999903    2    3    3    0    0  0.37320847576E-01  0.11456558102E+00 -0.42339788001E-01  0.12957634086E+00  0.21891835127E-01 0.  0.
         14    1    1    2    0    0  0.15434582544E-01 -0.31153783414E-02 -0.17749919786E-01  0.23727443456E-01  0.00000000000E+00 0. -1.
     999901    1    3    3    0    0 -0.52755430120E-01 -0.11145020267E+00  0.60089707787E-01  0.89062621568E+00  0.88000000000E+00 0.  1.
        -11    1    4    4    0    0  0.34960771778E-01  0.95391795982E-01 -0.42801590584E-01  0.11024557851E+00  0.51100000000E-03 0. -1.
         11    1    4    4    0    0  0.23600757979E-02  0.19173785034E-01  0.46180258261E-03  0.19330762347E-01  0.51100000000E-03 0.  1.
</event>
<event>
 8    1  0.1086486E+005  0.1043930E+01  0.7957747E-01            NaN
         13   -1    0    0    0    0  0.00000000000E+00  0.00000000000E+00  0.74505805969E-08  0.10566000000E+00  0.10566000000E+00 0. -1.
     999900   -1    0    0    0    0 -0.00000000000E+00 -0.00000000000E+00 -0.74505805969E-08  0.93827000000E+00  0.93827000000E+00 0. -1.
     999902    2    1    2    0    0 -0.46410712644E-02 -0.15886300023E-01  0.16957733134E-01  0.10202344565E+01  0.10199592479E+01 0.  0.
     999903    2    3    3    0    0  0.12102293043E+00  0.37800766487E-01  0.18782641777E-01  0.12968570836E+00  0.19752156490E-01 0.  0.
         14    1    1    2    0    0  0.46410712644E-02  0.15886300023E-01 -0.16957733134E-01  0.23695543546E-01  0.00000000000E+00 0. -1.
     999901    1    3    3    0    0 -0.12566400169E+00 -0.53687066511E-01 -0.18249086425E-02  0.89054874809E+00  0.88000000000E+00 0. -1.
        -11    1    4    4    0    0  0.58709917566E-01  0.25177074102E-01  0.19415233128E-02  0.63912206304E-01  0.51100000000E-03 0. -1.
         11    1    4    4    0    0  0.62313012860E-01  0.12623692385E-01  0.16841118464E-01  0.65773502060E-01  0.51100000000E-03 0.  1.
</event>
<event>
 8    1  0.1086486E+005  0.1043930E+01  0.7957747E-01            NaN
         13   -1    0    0    0    0  0.00000000000E+00  0.00000000000E+00  0.74505805969E-08  0.10566000000E+00  0.10566000000E+00 0.  1.
     999900   -1    0    0    0    0 -0.00000000000E+00 -0.00000000000E+00 -0.74505805969E-08  0.93827000000E+00  0.93827000000E+00 0. -1.
     999902    2    1    2    0    0  0.12264812171E-01  0.19631655696E-01 -0.21401084268E-02  0.10206833317E+01  0.10204185690E+01 0.  0.
     999903    2    3    3    0    0 -0.92919492098E-01  0.90713763687E-01 -0.29701921499E-02  0.13157305003E+00  0.20967272537E-01 0.  0.
         14    1    1    2    0    0 -0.12264812171E-01 -0.19631655696E-01  0.21401084268E-02  0.23246668299E-01  0.00000000000E+00 0. -1.
     999901    1    3    3    0    0  0.10518430427E+00 -0.71082107991E-01  0.83008372317E-03  0.88911028167E+00  0.88000000000E+00 0.  1.
        -11    1    4    4    0    0 -0.44769173915E-01  0.34762215879E-01  0.68821385529E-02  0.57099172830E-01  0.51100000000E-03 0.  1.
         11    1    4    4    0    0 -0.48150318183E-01  0.55951547808E-01 -0.98523307029E-02  0.74473877195E-01  0.51100000000E-03 0. -1.
</event>
<event>
 8    1  0.1086486E+005  0.1043930E+01  0.7957747E-01            NaN
         13   -1    0    0    0    0  0.00000000000E+00  0.00000000000E+00  0.74505805969E-08  0.10566000000E+00  0.10566000000E+00 0.  1.
     999900   -1    0    0    0    0 -0.00000000000E+00 -0.00000000000E+00 -0.74505805969E-08  0.93827000000E+00  0.93827000000E+00 0.  1.
     999902    2    1    2    0    0 -0.14587700181E-02 -0.22760274238E-01  0.82573614504E-02  0.10196742355E+01  0.10193856995E+01 0.  0.
     999903    2    3    3    0    0  0.55998303004E-02 -0.55457227984E-01  0.11803059588E+00  0.13222334806E+00  0.21093363217E-01 0.  0.
         14    1    1    2    0    0  0.14587700181E-02  0.22760274238E-01 -0.82573614504E-02  0.24255764500E-01  0.00000000000E+00 0.  1.
     999901    1    3    3    0    0 -0.70586003185E-02  0.32696953745E-01 -0.10977323443E+00  0.88745088744E+00  0.88000000000E+00 0.  1.
        -11    1    4    4    0    0  0.14636935764E-02 -0.15584209996E-02  0.21286875248E-01  0.21400076022E-01  0.51100000000E-03 0. -1.
         11    1    4    4    0    0  0.41361367240E-02 -0.53898806984E-01  0.96743720636E-01  0.11082327204E+00  0.51100000000E-03 0.  1.
</event>
<event>
 8    1  0.1086486E+005  0.1043930E+01  0.7957747E-01            NaN
         13   -1    0    0    0    0  0.00000000000E+00  0.00000000000E+00  0.74505805969E-08  0.10566000000E+00  0.10566000000E+00 0. -1.
     999900   -1    0    0    0    0 -0.00000000000E+00 -0.00000000000E+00 -0.74505805969E-08  0.93827000000E+00  0.93827000000E+00 0. -1.
     999902    2    1    2    0    0 -0.32902944656E-02  0.22644017268E-01 -0.85755421404E-02  0.10194940126E+01  0.10192011206E+01 0.  0.
     999903    2    3    3    0    0 -0.11066423245E+00  0.15703437604E-01 -0.65521041085E-01  0.13111339372E+00  0.20113301377E-01 0.  0.
         14    1    1    2    0    0  0.32902944656E-02 -0.22644017268E-01  0.85755421404E-02  0.24435987369E-01  0.00000000000E+00 0.  1.
     999901    1    3    3    0    0  0.10737393798E+00  0.69405796638E-02  0.56945498945E-01  0.88838061891E+00  0.88000000000E+00 0.  1.
        -11    1    4    4    0    0 -0.48868609769E-01  0.16207583371E-01 -0.34371786196E-01  0.61907249873E-01  0.51100000000E-03 0.  1.
         11    1    4    4    0    0 -0.61795622679E-01 -0.50414576670E-03 -0.31149254889E-01  0.69206143848E-01  0.51100000000E-03 0. -1.
</event>
<event>
 8    1  0.1086486E+005  0.1043930E+01  0.7957747E-01            NaN
         13   -1    0    0    0    0  0.00000000000E+00  0.00000000000E+00  0.74505805969E-08  0.10566000000E+00  0.10566000000E+00 0.  1.
     999900   -1    0    0    0    0 -0.00000000000E+00 -0.00000000000E+00 -0.74505805969E-08  0.93827000000E+00  0.93827000000E+00 0.  1.
     999902    2    1    2    0    0  0.36380175682E-02  0.89720792976E-02  0.21848485801E-01  0.10200325166E+01  0.10197525412E+01 0.  0.
     999903    2    3    3    0    0  0.11972304698E+00  0.44696714262E-01 -0.18372397788E-01  0.13078018852E+00  0.20844866667E-01 0.  0.
         14    1    1    2    0    0 -0.36380175682E-02 -0.89720792976E-02 -0.21848485801E-01  0.23897483352E-01  0.00000000000E+00 0.  1.
     999901    1    3    3    0    0 -0.11608502941E+00 -0.35724634965E-01  0.40220883588E-01  0.88925232812E+00  0.88000000000E+00 0.  1.
        -11    1    4    4    0    0  0.92636394905E-01  0.34691744527E-01 -0.52526678729E-02  0.99059933576E-01  0.51100000000E-03 0. -1.
         11    1    4    4    0    0  0.27086652074E-01  0.10004969735E-01 -0.13119729915E-01  0.31720254949E-01  0.51100000000E-03 0.  1.
</event>
<event>
 8    1  0.1086486E+005  0.1043930E+01  0.7957747E-01            NaN
         13   -1    0    0    0    0  0.00000000000E+00  0.00000000000E+00  0.74505805969E-08  0.10566000000E+00  0.10566000000E+00 0. -1.
     999900   -1    0    0    0    0 -0.00000000000E+00 -0.00000000000E+00 -0.74505805969E-08  0.93827000000E+00  0.93827000000E+00 0.  1.
     999902    2    1    2    0    0 -0.13101031504E-01  0.30691577295E-02 -0.19605151974E-01  0.10201514647E+01  0.10198743022E+01 0.  0.
     999903    2    3    3    0    0 -0.73435698832E-01 -0.10644328705E+00 -0.11183430382E-01  0.13127342302E+00  0.19612935905E-01 0.  0.
         14    1    1    2    0    0  0.13101031504E-01 -0.30691577295E-02  0.19605151974E-01  0.23778535270E-01  0.00000000000E+00 0. -1.
     999901    1    3    3    0    0  0.60334667328E-01  0.10951244478E+00 -0.84217215925E-02  0.88887804171E+00  0.88000000000E+00 0.  1.
        -11    1    4    4    0    0 -0.69799330739E-01 -0.98607643864E-01 -0.55342285558E-02  0.12093925255E+00  0.51100000000E-03 0. -1.
         11    1    4    4    0    0 -0.36363680929E-02 -0.78356431867E-02 -0.56492018260E-02  0.10334170471E-01  0.51100000000E-03 0.  1.
</event>
<event>
 8    1  0.1086486E+005  0.1043930E+01  0.7957747E-01            NaN
         13   -1    0    0    0    0  0.00000000000E+00  0.00000000000E+00  0.74505805969E-08  0.10566000000E+00  0.10566000000E+00 0. -1.
     999900   -1    0    0    0    0 -0.00000000000E+00 -0.00000000000E+00 -0.74505805969E-08  0.93827000000E+00  0.93827000000E+00 0.  1.
     999902    2    1    2    0    0  0.45299792102E-02 -0.10112444653E-01  0.20809794342E-01  0.10203539573E+01  0.10200815499E+01 0.  0.
     999903    2    3    3    0    0 -0.11018428933E-01 -0.12425181643E+00  0.40024447896E-01  0.13263848932E+00  0.20762773410E-01 0.  0.
         14    1    1    2    0    0 -0.45299792102E-02  0.10112444653E-01 -0.20809794342E-01  0.23576042693E-01  0.00000000000E+00 0.  1.
     999901    1    3    3    0    0  0.15548408143E-01  0.11413937177E+00 -0.19214653554E-01  0.88771546798E+00  0.88000000000E+00 0.  1.
        -11    1    4    4    0    0  0.34424232381E-02 -0.31922198377E-01  0.35129451642E-02  0.32302924507E-01  0.51100000000E-03 0. -1.
         11    1    4    4    0    0 -0.14460852171E-01 -0.92329618048E-01  0.36511502732E-01  0.10033556482E+00  0.51100000000E-03 0.  1.
</event>
<event>
 8    1  0.1086486E+005  0.1043930E+01  0.7957747E-01            NaN
         13   -1    0    0    0    0  0.00000000000E+00  0.00000000000E+00  0.74505805969E-08  0.10566000000E+00  0.10566000000E+00 0.  1.
     999900   -1    0    0    0    0 -0.00000000000E+00 -0.00000000000E+00 -0.74505805969E-08  0.93827000000E+00  0.93827000000E+00 0.  1.
     999902    2    1    2    0    0 -0.98181839593E-02  0.87906444555E-02 -0.18946161748E-01  0.10208512390E+01  0.10205903306E+01 0.  0.
     999903    2    3    3    0    0  0.12098006210E+00 -0.41666516888E-01 -0.55567186021E-02  0.12965351483E+00  0.20171334420E-01 0.  0.
         14    1    1    2    0    0  0.98181839593E-02 -0.87906444555E-02  0.18946161748E-01  0.23078761041E-01  0.00000000000E+00 0.  1.
     999901    1    3    3    0    0 -0.13079824606E+00  0.50457161344E-01 -0.13389443146E-01  0.89119772413E+00  0.88000000000E+00 0.  1.
        -11    1    4    4    0    0  0.87401084302E-01 -0.39199561155E-01 -0.22327201571E-02  0.95816498017E-01  0.51100000000E-03 0.  1.
         11    1    4    4    0    0  0.33578977794E-01 -0.24669557333E-02 -0.33239984450E-02  0.33837016815E-01  0.51100000000E-03 0. -1.
</event>
<event>
 8    1  0.1086486E+005  0.1043930E+01  0.7957747E-01            NaN
         13   -1    0    0    0    0  0.00000000000E+00  0.00000000000E+00  0.74505805969E-08  0.10566000000E+00  0.10566000000E+00 0. -1.
     999900   -1    0    0    0    0 -0.00000000000E+00 -0.00000000000E+00 -0.74505805969E-08  0.93827000000E+00  0.93827000000E+00 0. -1.
     999902    2    1    2    0    0  0.60057991817E-02 -0.23025297792E-01 -0.36828059043E-04  0.10201343004E+01  0.10198567329E+01 0.  0.
     999903    2    3    3    0    0 -0.97967755777E-01  0.74216286060E-01 -0.30288075190E-01  0.12818051030E+00  0.20177646855E-01 0.  0.
         14    1    1    2    0    0 -0.60057991817E-02  0.23025297792E-01  0.36828059043E-04  0.23795699581E-01  0.00000000000E+00 0.  1.
     999901    1    3    3    0    0  0.10397355496E+00 -0.97241583852E-01  0.30251247131E-01  0.89195379012E+00  0.88000000000E+00 0. -1.
        -11    1    4    4    0    0 -0.82257686551E-01  0.58464574544E-01 -0.17230366390E-01  0.10237958840E+00  0.51100000000E-03 0.  1.
         11    1    4    4    0    0 -0.15710069227E-01  0.15751711516E-01 -0.13057708801E-01  0.25800921901E-01  0.51100000000E-03 0. -1.
</event>
<event>
 8    1  0.1086486E+005  0.1043930E+01  0.7957747E-01            NaN
         13   -1    0    0    0    0  0.00000000000E+00  0.00000000000E+00  0.74505805969E-08  0.10566000000E+00  0.10566000000E+00 0.  1.
     999900   -1    0    0    0    0 -0.00000000000E+00 -0.00000000000E+00 -0.74505805969E-08  0.93827000000E+00  0.93827000000E+00 0. -1.
     999902    2    1    2    0    0  0.41999787441E-02  0.23044385533E-01 -0.40168584148E-02  0.10201640858E+01  0.10198872209E+01 0.  0.
     999903    2    3    3    0    0 -0.83798799414E-01  0.99989116889E-01 -0.11617518722E-01  0.13240170393E+00  0.19369620075E-01 0.  0.
         14    1    1    2    0    0 -0.41999787441E-02 -0.23044385533E-01  0.40168584148E-02  0.23765914196E-01  0.00000000000E+00 0.  1.
     999901    1    3    3    0    0  0.87998778158E-01 -0.76944731355E-01  0.76006603068E-02  0.88776238188E+00  0.88000000000E+00 0. -1.
        -11    1    4    4    0    0 -0.54439181404E-01  0.63985141453E-01 -0.16729412280E-01  0.85661293213E-01  0.51100000000E-03 0. -1.
         11    1    4    4    0    0 -0.29359618010E-01  0.36003975436E-01  0.51118935583E-02  0.46740410713E-01  0.51100000000E-03 0.  1.
</event>
<event>
 8    1  0.1086486E+005  0.1043930E+01  0.7957747E-01            NaN
         13   -1    0    0    0    0  0.00000000000E+00  0.00000000000E+00  0.74505805969E-08  0.10566000000E+00  0.10566000000E+00 0. -1.
     999900   -1    0    0    0    0 -0.00000000000E+00 -0.00000000000E+00 -0.74505805969E-08  0.93827000000E+00  0.93827000000E+00 0.  1.
     999902    2    1    2    0    0 -0.41277924882E-02 -0.15649589810E-01  0.16455796934E-01  0.10208488045E+01  0.10205878405E+01 0.  0.
     999903    2    3    3    0    0 -0.56821900914E-01  0.63178024702E-01 -0.94546229863E-01  0.12882194852E+00  0.20878544259E-01 0.  0.
         14    1    1    2    0    0  0.41277924882E-02  0.15649589810E-01 -0.16455796934E-01  0.23081195480E-01  0.00000000000E+00 0.  1.
     999901    1    3    3    0    0  0.52694108426E-01 -0.78827614512E-01  0.11100202680E+00  0.89202685600E+00  0.88000000000E+00 0. -1.
        -11    1    4    4    0    0 -0.37301393726E-01  0.32960107073E-01 -0.41955667334E-01  0.65102240933E-01  0.51100000000E-03 0. -1.
         11    1    4    4    0    0 -0.19520507188E-01  0.30217917629E-01 -0.52590562529E-01  0.63719707586E-01  0.51100000000E-03 0.  1.
</event>
<event>
 8    1  0.1086486E+005  0.1043930E+01  0.7957747E-01            NaN
         13   -1    0    0    0    0  0.00000000000E+00  0.00000000000E+00  0.74505805969E-08  0.10566000000E+00  0.10566000000E+00 0. -1.
     999900   -1    0    0    0    0 -0.00000000000E+00 -0.00000000000E+00 -0.74505805969E-08  0.93827000000E+00  0.93827000000E+00 0. -1.
     999902    2    1    2    0    0 -0.20501914902E-01  0.13989953750E-01 -0.14790495654E-01  0.10150369890E+01  0.10146256862E+01 0.  0.
     999903    2    3    3    0    0  0.14513583680E-03 -0.12081538887E+00 -0.52866305757E-02  0.12448148569E+00  0.29518004085E-01 0.  0.
         14    1    1    2    0    0  0.20501914902E-01 -0.13989953750E-01  0.14790495654E-01  0.28893010958E-01  0.00000000000E+00 0.  1.
     999901    1    3    3    0    0 -0.20647050739E-01  0.13480534261E+00 -0.95038650779E-02  0.89055550335E+00  0.88000000000E+00 0. -1.
        -11    1    4    4    0    0 -0.72175157746E-02 -0.38536352621E-01  0.10011151126E-01  0.40467607727E-01  0.51100000000E-03 0. -1.
         11    1    4    4    0    0  0.73626516114E-02 -0.82279036245E-01 -0.15297781702E-01  0.84013877961E-01  0.51100000000E-03 0.  1.
</event>
<event>
 8    1  0.1086486E+005  0.1043930E+01  0.7957747E-01            NaN
         13   -1    0    0    0    0  0.00000000000E+00  0.00000000000E+00  0.74505805969E-08  0.10566000000E+00  0.10566000000E+00 0. -1.
     999900   -1    0    0    0    0 -0.00000000000E+00 -0.00000000000E+00 -0.74505805969E-08  0.93827000000E+00  0.93827000000E+00 0. -1.
     999902    2    1    2    0    0 -0.23982861891E-03  0.13708523971E-01  0.19857460369E-01  0.10197991094E+01  0.10195135721E+01 0.  0.
     999903    2    3    3    0    0  0.99780043862E-01  0.66924447239E-01 -0.45983724020E-01  0.13009636641E+00  0.19380992934E-01 0.  0.
         14    1    1    2    0    0  0.23982861891E-03 -0.13708523971E-01 -0.19857460369E-01  0.24130890567E-01  0.00000000000E+00 0.  1.
     999901    1    3    3    0    0 -0.10001987248E+00 -0.53215923267E-01  0.65841184390E-01  0.88970274302E+00  0.88000000000E+00 0.  1.
        -11    1    4    4    0    0  0.54914603013E-01  0.27035513862E-01 -0.28812692441E-01  0.67653270435E-01  0.51100000000E-03 0.  1.
         11    1    4    4    0    0  0.44865440848E-01  0.39888933377E-01 -0.17171031580E-01  0.62443095975E-01  0.51100000000E-03 0. -1.
</event>
<event>
 8    1  0.1086486E+005  0.1043930E+01  0.7957747E-01            NaN
         13   -1    0    0    0    0  0.00000000000E+00  0.00000000000E+00  0.74505805969E-08  0.10566000000E+00  0.10566000000E+00 0. -1.
     999900   -1    0    0    0    0 -0.00000000000E+00 -0.00000000000E+00 -0.74505805969E-08  0.93827000000E+00  0.93827000000E+00 0.  1.
     999902    2    1    2    0    0 -0.81420338884E-02 -0.10137243546E-01  0.16923996156E-01  0.10225880678E+01  0.10223653351E+01 0.  0.
     999903    2    3    3    0    0  0.31886927638E-01 -0.11130176889E+00 -0.61158331302E-01  0.13245693772E+00  0.19990971724E-01 0.  0.
         14    1    1    2    0    0  0.81420338884E-02  0.10137243546E-01 -0.16923996156E-01  0.21341932163E-01  0.00000000000E+00 0.  1.
     999901    1    3    3    0    0 -0.40028961527E-01  0.10116452534E+00  0.78082327458E-01  0.89013113012E+00  0.88000000000E+00 0. -1.
        -11    1    4    4    0    0  0.26539050468E-01 -0.63588398987E-01 -0.42410184354E-01  0.80911621807E-01  0.51100000000E-03 0.  1.
         11    1    4    4    0    0  0.53478771700E-02 -0.47713369898E-01 -0.18748146948E-01  0.51545315910E-01  0.51100000000E-03 0. -1.
</event>
<event>
 8    1  0.1214582E+005  0.1043930E+01  0.7957747E-01            NaN
         13   -1    0    0    0    0  0.00000000000E+00  0.00000000000E+00  0.74505805969E-08  0.10566000000E+00  0.10566000000E+00 0. -1.
     999900   -1    0    0    0    0 -0.00000000000E+00 -0.00000000000E+00 -0.74505805969E-08  0.93827000000E+00  0.93827000000E+00 0.  1.
     999902    2    1    2    0    0  0.23854435220E-02 -0.12395804768E-01 -0.20958147859E-01  0.10194638953E+01  0.10191702721E+01 0.  0.
     999903    2    3    3    0    0 -0.28106406843E-01  0.29054695720E-01 -0.12401359931E+00  0.13195709365E+00  0.19978896431E-01 0.  0.
         14    1    1    2    0    0 -0.23854435220E-02  0.12395804768E-01  0.20958147859E-01  0.24466104682E-01  0.00000000000E+00 0. -1.
     999901    1    3    3    0    0  0.30491850365E-01 -0.41450500487E-01  0.10305545145E+00  0.88750680167E+00  0.88000000000E+00 0. -1.
        -11    1    4    4    0    0 -0.22203173278E-01  0.10610342781E-01 -0.54611977940E-01  0.59902333285E-01  0.51100000000E-03 0.  1.
         11    1    4    4    0    0 -0.59032335656E-02  0.18444352939E-01 -0.69401621370E-01  0.72054760367E-01  0.51100000000E-03 0. -1.
</event>
<event>
 8    1  0.1187392E+005  0.1043930E+01  0.7957747E-01            NaN
         13   -1    0    0    0    0  0.00000000000E+00  0.00000000000E+00  0.74505805969E-08  0.10566000000E+00  0.10566000000E+00 0. -1.
     999900   -1    0    0    0    0 -0.00000000000E+00 -0.00000000000E+00 -0.74505805969E-08  0.93827000000E+00  0.93827000000E+00 0. -1.
     999902    2    1    2    0    0 -0.15116565409E-02 -0.68463892466E-02  0.21437476714E-01  0.10213750990E+01  0.10211260301E+01 0.  0.
     999903    2    3    3    0    0 -0.38931411463E-01  0.19726251452E-01 -0.11972501553E+00  0.12894404143E+00  0.19690268741E-01 0.  0.
         14    1    1    2    0    0  0.15116565409E-02  0.68463892466E-02 -0.21437476714E-01  0.22554900999E-01  0.00000000000E+00 0.  1.
     999901    1    3    3    0    0  0.37419754922E-01 -0.26572640698E-01  0.14116249224E+00  0.89243105757E+00  0.88000000000E+00 0.  1.
        -11    1    4    4    0    0 -0.18540145079E-01 -0.12628503435E-02 -0.44616489317E-01  0.48334501244E-01  0.51100000000E-03 0. -1.
         11    1    4    4    0    0 -0.20391266385E-01  0.20989101795E-01 -0.75108526212E-01  0.80609540191E-01  0.51100000000E-03 0.  1.
</event>
<event>
 8    1  0.1086486E+005  0.1043930E+01  0.7957747E-01            NaN
         13   -1    0    0    0    0  0.00000000000E+00  0.00000000000E+00  0.74505805969E-08  0.10566000000E+00  0.10566000000E+00 0. -1.
     999900   -1    0    0    0    0 -0.00000000000E+00 -0.00000000000E+00 -0.74505805969E-08  0.93827000000E+00  0.93827000000E+00 0.  1.
     999902    2    1    2    0    0  0.60273698808E-03  0.17143156322E-01  0.16144415511E-01  0.10203738277E+01  0.10201018846E+01 0.  0.
     999903    2    3    3    0    0  0.39455176145E-01 -0.11438626863E+00  0.41453521242E-01  0.12939119461E+00  0.19564187788E-01 0.  0.
         14    1    1    2    0    0 -0.60273698808E-03 -0.17143156322E-01 -0.16144415511E-01  0.23556172286E-01  0.00000000000E+00 0.  1.
     999901    1    3    3    0    0 -0.38852439157E-01  0.13152942495E+00 -0.25309105731E-01  0.89098263310E+00  0.88000000000E+00 0. -1.
        -11    1    4    4    0    0  0.17040944856E-01 -0.73350055862E-01  0.19831332060E-01  0.77872763844E-01  0.51100000000E-03 0.  1.
         11    1    4    4    0    0  0.22414231289E-01 -0.41036212769E-01  0.21622189182E-01  0.51518430768E-01  0.51100000000E-03 0. -1.
</event>
<event>
 8    1  0.1086486E+005  0.1043930E+01  0.7957747E-01            NaN
         13   -1    0    0    0    0  0.00000000000E+00  0.00000000000E+00  0.74505805969E-08  0.10566000000E+00  0.10566000000E+00 0. -1.
     999900   -1    0    0    0    0 -0.00000000000E+00 -0.00000000000E+00 -0.74505805969E-08  0.93827000000E+00  0.93827000000E+00 0.  1.
     999902    2    1    2    0    0  0.20768925508E-01  0.90840590950E-02  0.78854826368E-02  0.10199289743E+01  0.10196465385E+01 0.  0.
     999903    2    3    3    0    0  0.47043667772E-01  0.12248234244E+00  0.24601395331E-02  0.13224718051E+00  0.16377838080E-01 0.  0.
         14    1    1    2    0    0 -0.20768925508E-01 -0.90840590950E-02 -0.78854826368E-02  0.24001025662E-01  0.00000000000E+00 0.  1.
     999901    1    3    3    0    0 -0.26274742264E-01 -0.11339828334E+00  0.54253431038E-02  0.88768179383E+00  0.88000000000E+00 0. -1.
        -11    1    4    4    0    0  0.37872172489E-01  0.85662813510E-01  0.75166549918E-02  0.93963717949E-01  0.51100000000E-03 0. -1.
         11    1    4    4    0    0  0.91714952828E-02  0.36819528927E-01 -0.50565154587E-02  0.38283462562E-01  0.51100000000E-03 0.  1.
</event>
<event>
 8    1  0.1086486E+005  0.1043930E+01  0.7957747E-01            NaN
         13   -1    0    0    0    0  0.00000000000E+00  0.00000000000E+00  0.74505805969E-08  0.10566000000E+00  0.10566000000E+00 0.  1.
     999900   -1    0    0    0    0 -0.00000000000E+00 -0.00000000000E+00 -0.74505805969E-08  0.93827000000E+00  0.93827000000E+00 0. -1.
     999902    2    1    2    0    0  0.59870788464E-02  0.12517141560E-01 -0.20090309692E-01  0.10195139297E+01  0.10192215207E+01 0.  0.
     999903    2    3    3    0    0 -0.61497998809E-01  0.67345449934E-01 -0.93503758360E-01  0.13218653039E+00  0.20320248617E-01 0.  0.
         14    1    1    2    0    0 -0.59870788464E-02 -0.12517141560E-01  0.20090309692E-01  0.24416070312E-01  0.00000000000E+00 0.  1.
     999901    1    3    3    0    0  0.67485077656E-01 -0.54828308374E-01  0.73413448668E-01  0.88732739930E+00  0.88000000000E+00 0.  1.
        -11    1    4    4    0    0 -0.43145789413E-01  0.44975709239E-01 -0.76297184832E-01  0.98518501308E-01  0.51100000000E-03 0.  1.
         11    1    4    4    0    0 -0.18352209396E-01  0.22369740696E-01 -0.17206573528E-01  0.33668029079E-01  0.51100000000E-03 0. -1.
</event>
<event>
 8    1  0.1086486E+005  0.1043930E+01  0.7957747E-01            NaN
         13   -1    0    0    0    0  0.00000000000E+00  0.00000000000E+00  0.74505805969E-08  0.10566000000E+00  0.10566000000E+00 0. -1.
     999900   -1    0    0    0    0 -0.00000000000E+00 -0.00000000000E+00 -0.74505805969E-08  0.93827000000E+00  0.93827000000E+00 0. -1.
     999902    2    1    2    0    0 -0.15571014689E-02  0.17598836473E-01  0.15836949336E-01  0.10202033784E+01  0.10199274389E+01 0.  0.
     999903    2    3    3    0    0  0.36770492790E-02 -0.12079945317E-01  0.13020954063E+00  0.13229047944E+00  0.19667249687E-01 0.  0.
         14    1    1    2    0    0  0.15571014689E-02 -0.17598836473E-01 -0.15836949336E-01  0.23726621640E-01  0.00000000000E+00 0. -1.
     999901    1    3    3    0    0 -0.52341507479E-02  0.29678781790E-01 -0.11437259129E+00  0.88791289892E+00  0.88000000000E+00 0. -1.
        -11    1    4    4    0    0  0.93155360611E-03 -0.15008944445E-01  0.12379468957E+00  0.12470574362E+00  0.51100000000E-03 0.  1.
         11    1    4    4    0    0  0.27454956729E-02  0.29289991284E-02  0.64148510627E-02  0.75847358253E-02  0.51100000000E-03 0. -1.
</event>
<event>
 8    1  0.1086486E+005  0.1043930E+01  0.7957747E-01            NaN
         13   -1    0    0    0    0  0.00000000000E+00  0.00000000000E+00  0.74505805969E-08  0.10566000000E+00  0.10566000000E+00 0.  1.
     999900   -1    0    0    0    0 -0.00000000000E+00 -0.00000000000E+00 -0.74505805969E-08  0.93827000000E+00  0.93827000000E+00 0.  1.
     999902    2    1    2    0    0 -0.16357418325E-01 -0.10543943210E-01  0.14830873285E-01  0.10194617619E+01  0.10191680869E+01 0.  0.
     999903    2    3    3    0    0  0.44917724280E-01 -0.26562960949E-01 -0.11362756097E+00  0.12788292560E+00  0.26825868079E-01 0.  0.
         14    1    1    2    0    0  0.16357418325E-01  0.10543943210E-01 -0.14830873285E-01  0.24468238087E-01  0.00000000000E+00 0. -1.
     999901    1    3    3    0    0 -0.61275142605E-01  0.16019017739E-01  0.12845843426E+00  0.89157883631E+00  0.88000000000E+00 0. -1.
        -11    1    4    4    0    0  0.32682257970E-01 -0.85588828858E-02 -0.87944871793E-01  0.94212239427E-01  0.51100000000E-03 0.  1.
         11    1    4    4    0    0  0.12235466311E-01 -0.18004078064E-01 -0.25682689180E-01  0.33670686172E-01  0.51100000000E-03 0. -1.
</event>
<event>
 8    1  0.1086486E+005  0.1043930E+01  0.7957747E-01            NaN
         13   -1    0    0    0    0  0.00000000000E+00  0.00000000000E+00  0.74505805969E-08  0.10566000000E+00  0.10566000000E+00 0. -1.
     999900   -1    0    0    0    0 -0.00000000000E+00 -0.00000000000E+00 -0.74505805969E-08  0.93827000000E+00  0.93827000000E+00 0. -1.
     999902    2    1    2    0    0 -0.19188023956E-01  0.14271744898E-01 -0.35445284071E-02  0.10197550823E+01  0.10194684895E+01 0.  0.
     999903    2    3    3    0    0 -0.80393829611E-01  0.82787569852E-01 -0.62913067140E-01  0.13298273701E+00  0.20233753118E-01 0.  0.
         14    1    1    2    0    0  0.19188023956E-01 -0.14271744898E-01  0.35445284071E-02  0.24174917733E-01  0.00000000000E+00 0. -1.
     999901    1    3    3    0    0  0.61205805655E-01 -0.68515824954E-01  0.59368538733E-01  0.88677234525E+00  0.88000000000E+00 0.  1.
        -11    1    4    4    0    0 -0.64660077113E-01  0.70557679192E-01 -0.43395717314E-01  0.10508454248E+00  0.51100000000E-03 0.  1.
         11    1    4    4    0    0 -0.15733752498E-01  0.12229890659E-01 -0.19517349826E-01  0.27898194537E-01  0.51100000000E-03 0. -1.
</event>
<event>
 8    1  0.1086486E+005  0.1043930E+01  0.7957747E-01            NaN
         13   -1    0    0    0    0  0.00000000000E+00  0.00000000000E+00  0.74505805969E-08  0.10566000000E+00  0.10566000000E+00 0.  1.
     999900   -1    0    0    0    0 -0.00000000000E+00 -0.00000000000E+00 -0.74505805969E-08  0.93827000000E+00  0.93827000000E+00 0.  1.
     999902    2    1    2    0    0  0.72710322244E-02  0.22257863527E-01 -0.30679864535E-02  0.10203144767E+01  0.10200411455E+01 0.  0.
     999903    2    3    3    0    0  0.19395973876E-01 -0.14574200813E-01  0.12425613062E+00  0.13030602398E+00  0.30845789973E-01 0.  0.
         14    1    1    2    0    0 -0.72710322244E-02 -0.22257863527E-01  0.30679864535E-02  0.23615523269E-01  0.00000000000E+00 0. -1.
     999901    1    3    3    0    0 -0.12124941651E-01  0.36832064340E-01 -0.12732411707E+00  0.89000845275E+00  0.88000000000E+00 0.  1.
        -11    1    4    4    0    0  0.14954185468E-01 -0.17401939187E-02  0.19345023696E-01  0.24518299303E-01  0.51100000000E-03 0.  1.
         11    1    4    4    0    0  0.44417884075E-02 -0.12834006894E-01  0.10491110692E+00  0.10578772468E+00  0.51100000000E-03 0. -1.
</event>
<event>
 8    1  0.1086486E+005  0.1043930E+01  0.7957747E-01            NaN
         13   -1    0    0    0    0  0.00000000000E+00  0.00000000000E+00  0.74505805969E-08  0.10566000000E+00  0.10566000000E+00 0. -1.
     999900   -1    0    0    0    0 -0.00000000000E+00 -0.00000000000E+00 -0.74505805969E-08  0.93827000000E+00  0.93827000000E+00 0. -1.
     999902    2    1    2    0    0  0.42170657383E-02  0.14351786269E-01  0.68469499959E-02  0.10274789169E+01  0.10273472083E+01 0.  0.
     999903    2    3    3    0    0 -0.25331083979E-01  0.36540217941E-01 -0.12779943851E+00  0.13647102149E+00  0.17742375335E-01 0.  0.
         14    1    1    2    0    0 -0.42170657383E-02 -0.14351786269E-01 -0.68469499959E-02  0.16451083150E-01  0.00000000000E+00 0. -1.
     999901    1    3    3    0    0  0.29548149717E-01 -0.22188431672E-01  0.13464638850E+00  0.89100789536E+00  0.88000000000E+00 0.  1.
        -11    1    4    4    0    0 -0.14154495340E-01  0.13653752499E-01 -0.34077672927E-01  0.39348743420E-01  0.51100000000E-03 0. -1.
         11    1    4    4    0    0 -0.11176588638E-01  0.22886465442E-01 -0.93721765578E-01  0.97122278073E-01  0.51100000000E-03 0.  1.
</event>
<event>
 8    1  0.1086486E+005  0.1043930E+01  0.7957747E-01            NaN
         13   -1    0    0    0    0  0.00000000000E+00  0.00000000000E+00  0.74505805969E-08  0.10566000000E+00  0.10566000000E+00 0. -1.
     999900   -1    0    0    0    0 -0.00000000000E+00 -0.00000000000E+00 -0.74505805969E-08  0.93827000000E+00  0.93827000000E+00 0. -1.
     999902    2    1    2    0    0  0.23459240005E-01  0.59319250463E-02  0.26881176430E-02  0.10195835495E+01  0.10192928258E+01 0.  0.
     999903    2    3    3    0    0 -0.11066445269E+00  0.59882092548E-01  0.11530312737E-01  0.12774389465E+00  0.18790114761E-01 0.  0.
         14    1    1    2    0    0 -0.23459240005E-01 -0.59319250463E-02 -0.26881176430E-02  0.24346450518E-01  0.00000000000E+00 0.  1.
     999901    1    3    3    0    0  0.13412369269E+00 -0.53950167502E-01 -0.88421950936E-02  0.89183965483E+00  0.88000000000E+00 0.  1.
        -11    1    4    4    0    0 -0.17062041784E-01  0.77823572791E-02  0.84447416684E-02  0.20573116864E-01  0.51100000000E-03 0. -1.
         11    1    4    4    0    0 -0.93602410902E-01  0.52099735269E-01  0.30855710682E-02  0.10717077779E+00  0.51100000000E-03 0.  1.
</event>
<event>
 8    1  0.1086486E+005  0.1043930E+01  0.7957747E-01            NaN
         13   -1    0    0    0    0  0.00000000000E+00  0.00000000000E+00  0.74505805969E-08  0.10566000000E+00  0.10566000000E+00 0. -1.
     999900   -1    0    0    0    0 -0.00000000000E+00 -0.00000000000E+00 -0.74505805969E-08  0.93827000000E+00  0.93827000000E+00 0.  1.
     999902    2    1    2    0    0 -0.22727124020E-01  0.66664808741E-02 -0.14621130176E-02  0.10202002316E+01  0.10199242181E+01 0.  0.
     999903    2    3    3    0    0 -0.10366133252E+00 -0.87828492020E-03  0.80474259569E-01  0.13266384433E+00  0.19420244444E-01 0.  0.
         14    1    1    2    0    0  0.22727124020E-01 -0.66664808741E-02  0.14621130176E-02  0.23729768392E-01  0.00000000000E+00 0. -1.
     999901    1    3    3    0    0  0.80934208499E-01  0.75447657943E-02 -0.81936372586E-01  0.88753638728E+00  0.88000000000E+00 0.  1.
        -11    1    4    4    0    0 -0.66858406417E-01 -0.98241153127E-02  0.50600643055E-01  0.84423017886E-01  0.51100000000E-03 0. -1.
         11    1    4    4    0    0 -0.36802926102E-01  0.89458303925E-02  0.29873616513E-01  0.48240826440E-01  0.51100000000E-03 0.  1.
</event>
<event>
 8    1  0.1086486E+005  0.1043930E+01  0.7957747E-01            NaN
         13   -1    0    0    0    0  0.00000000000E+00  0.00000000000E+00  0.74505805969E-08  0.10566000000E+00  0.10566000000E+00 0. -1.
     999900   -1    0    0    0    0 -0.00000000000E+00 -0.00000000000E+00 -0.74505805969E-08  0.93827000000E+00  0.93827000000E+00 0.  1.
     999902    2    1    2    0    0  0.81260864511E-02  0.67652758131E-03  0.24276070677E-01  0.10183210450E+01  0.10179989843E+01 0.  0.
     999903    2    3    3    0    0 -0.48327915947E-01  0.74056501889E-02 -0.11400554326E+00  0.12571018897E+00  0.20380299409E-01 0.  0.
         14    1    1    2    0    0 -0.81260864511E-02 -0.67652758131E-03 -0.24276070677E-01  0.25608955037E-01  0.00000000000E+00 0.  1.
     999901    1    3    3    0    0  0.56454002398E-01 -0.67291226076E-02  0.13828161393E+00  0.89261085599E+00  0.88000000000E+00 0. -1.
        -11    1    4    4    0    0 -0.34199790762E-01  0.79192457235E-02 -0.56743153554E-01  0.66726207274E-01  0.51100000000E-03 0. -1.
         11    1    4    4    0    0 -0.14128125186E-01 -0.51359553460E-03 -0.57262389703E-01  0.58983981700E-01  0.51100000000E-03 0.  1.
</event>
<event>
 8    1  0.1086486E+005  0.1043930E+01  0.7957747E-01            NaN
         13   -1    0    0    0    0  0.00000000000E+00  0.00000000000E+00  0.74505805969E-08  0.10566000000E+00  0.10566000000E+00 0. -1.
     999900   -1    0    0    0    0 -0.00000000000E+00 -0.00000000000E+00 -0.74505805969E-08  0.93827000000E+00  0.93827000000E+00 0.  1.
     999902    2    1    2    0    0  0.26020422017E-01 -0.72870006485E-02  0.11294593059E-01  0.10146429624E+01  0.10142201982E+01 0.  0.
     999903    2    3    3    0    0 -0.79488821198E-01 -0.89890619230E-01 -0.22724770616E-01  0.12384956584E+00  0.20579204030E-01 0.  0.
         14    1    1    2    0    0 -0.26020422017E-01  0.72870006485E-02 -0.11294593059E-01  0.29287037623E-01  0.00000000000E+00 0.  1.
     999901    1    3    3    0    0  0.10550924321E+00  0.82603618581E-01  0.34019363675E-01  0.89079339654E+00  0.88000000000E+00 0. -1.
        -11    1    4    4    0    0 -0.57951439191E-01 -0.77353673078E-01 -0.15436306526E-01  0.97880032301E-01  0.51100000000E-03 0.  1.
         11    1    4    4    0    0 -0.21537382007E-01 -0.12536946151E-01 -0.72884640896E-02  0.25969533540E-01  0.51100000000E-03 0. -1.
</event>
<event>
 8    1  0.1086486E+005  0.1043930E+01  0.7957747E-01            NaN
         13   -1    0    0    0    0  0.00000000000E+00  0.00000000000E+00  0.74505805969E-08  0.10566000000E+00  0.10566000000E+00 0.  1.
     999900   -1    0    0    0    0 -0.00000000000E+00 -0.00000000000E+00 -0.74505805969E-08  0.93827000000E+00  0.93827000000E+00 0. -1.
     999902    2    1    2    0    0  0.22964390841E-01 -0.37606923773E-02 -0.56994543178E-02  0.10199719151E+01  0.10196905009E+01 0.  0.
     999903    2    3    3    0    0 -0.73895723067E-01 -0.25850551896E-01 -0.10136583316E+00  0.12922958443E+00  0.17216981113E-01 0.  0.
         14    1    1    2    0    0 -0.22964390841E-01  0.37606923773E-02  0.56994543178E-02  0.23958084927E-01  0.00000000000E+00 0.  1.
     999901    1    3    3    0    0  0.96860113908E-01  0.22089859518E-01  0.95666378842E-01  0.89074233064E+00  0.88000000000E+00 0.  1.
        -11    1    4    4    0    0 -0.18914641665E-01 -0.81826439563E-02 -0.39760237271E-01  0.44786794039E-01  0.51100000000E-03 0.  1.
         11    1    4    4    0    0 -0.54981081402E-01 -0.17667907939E-01 -0.61605595889E-01  0.84442790390E-01  0.51100000000E-03 0. -1.
</event>
<event>
 8    1  0.1086486E+005  0.1043930E+01  0.7957747E-01            NaN
         13   -1    0    0    0    0  0.00000000000E+00  0.00000000000E+00  0.74505805969E-08  0.10566000000E+00  0.10566000000E+00 0.  1.
     999900   -1    0    0    0    0 -0.00000000000E+00 -0.00000000000E+00 -0.74505805969E-08  0.93827000000E+00  0.93827000000E+00 0. -1.
     999902    2    1    2    0    0  0.15397468325E-01  0.13442326767E-01  0.35249537594E-02  0.10231886529E+01  0.10229784045E+01 0.  0.
     999903    2    3    3    0    0  0.62933122243E-01  0.85232399800E-01  0.83819323005E-01  0.13534821753E+00  0.82656656513E-02 0.  0.
         14    1    1    2    0    0 -0.15397468325E-01 -0.13442326767E-01 -0.35249537594E-02  0.20741347081E-01  0.00000000000E+00 0. -1.
     999901    1    3    3    0    0 -0.47535653918E-01 -0.71790073033E-01 -0.80294369246E-01  0.88784043539E+00  0.88000000000E+00 0. -1.
        -11    1    4    4    0    0  0.58998911944E-01  0.80158059011E-01  0.76073487869E-01  0.12527419013E+00  0.51100000000E-03 0.  1.
         11    1    4    4    0    0  0.39342102984E-02  0.50743407894E-02  0.77458351363E-02  0.10074027401E-01  0.51100000000E-03 0. -1.
</event>
<event>
 8    1  0.1086486E+005  0.1043930E+01  0.7957747E-01            NaN
         13   -1    0    0    0    0  0.00000000000E+00  0.00000000000E+00  0.74505805969E-08  0.10566000000E+00  0.10566000000E+00 0. -1.
     999900   -1    0    0    0    0 -0.00000000000E+00 -0.00000000000E+00 -0.74505805969E-08  0.93827000000E+00  0.93827000000E+00 0.  1.
     999902    2    1    2    0    0  0.13327765757E-01  0.50188150751E-02 -0.19444037939E-01  0.10198283723E+01  0.10195435354E+01 0.  0.
     999903    2    3    3    0    0  0.40002876513E-01  0.82916472741E-01 -0.93698408832E-01  0.13287103503E+00  0.19998713718E-01 0.  0.
         14    1    1    2    0    0 -0.13327765757E-01 -0.50188150751E-02  0.19444037939E-01  0.24101627667E-01  0.00000000000E+00 0.  1.
     999901    1    3    3    0    0 -0.26675110756E-01 -0.77897657666E-01  0.74254370893E-01  0.88695733731E+00  0.88000000000E+00 0. -1.
        -11    1    4    4    0    0  0.26517476242E-01  0.62761895898E-01 -0.56756922142E-01  0.88678303180E-01  0.51100000000E-03 0.  1.
         11    1    4    4    0    0  0.13485400271E-01  0.20154576843E-01 -0.36941486690E-01  0.44192731847E-01  0.51100000000E-03 0. -1.
</event>
<event>
 8    1  0.1086486E+005  0.1043930E+01  0.7957747E-01            NaN
         13   -1    0    0    0    0  0.00000000000E+00  0.00000000000E+00  0.74505805969E-08  0.10566000000E+00  0.10566000000E+00 0.  1.
     999900   -1    0    0    0    0 -0.00000000000E+00 -0.00000000000E+00 -0.74505805969E-08  0.93827000000E+00  0.93827000000E+00 0.  1.
     999902    2    1    2    0    0 -0.18117088682E-01 -0.15035033664E-01 -0.32053303004E-02  0.10201696279E+01  0.10198928936E+01 0.  0.
     999903    2    3    3    0    0  0.92834534306E-02  0.73817131185E-01 -0.10413763039E+00  0.12953343613E+00  0.19977828893E-01 0.  0.
         14    1    1    2    0    0  0.18117088682E-01  0.15035033664E-01  0.32053303004E-02  0.23760372092E-01  0.00000000000E+00 0.  1.
     999901    1    3    3    0    0 -0.27400542112E-01 -0.88852164849E-01  0.10093230009E+00  0.89063619178E+00  0.88000000000E+00 0. -1.
        -11    1    4    4    0    0  0.24447366336E-02  0.14922650072E-01 -0.36931273803E-01  0.39910428814E-01  0.51100000000E-03 0. -1.
         11    1    4    4    0    0  0.68387167971E-02  0.58894481112E-01 -0.67206356591E-01  0.89623007315E-01  0.51100000000E-03 0.  1.
</event>
<event>
 8    1  0.1086486E+005  0.1043930E+01  0.7957747E-01            NaN
         13   -1    0    0    0    0  0.00000000000E+00  0.00000000000E+00  0.74505805969E-08  0.10566000000E+00  0.10566000000E+00 0. -1.
     999900   -1    0    0    0    0 -0.00000000000E+00 -0.00000000000E+00 -0.74505805969E-08  0.93827000000E+00  0.93827000000E+00 0.  1.
     999902    2    1    2    0    0  0.55236932274E-02 -0.91673378568E-02 -0.21486897593E-01  0.10199250414E+01  0.10196425119E+01 0.  0.
     999903    2    3    3    0    0 -0.31947850848E-01 -0.19248511005E-01 -0.12592191411E+00  0.13290056633E+00  0.20373063750E-01 0.  0.
         14    1    1    2    0    0 -0.55236932274E-02  0.91673378568E-02  0.21486897593E-01  0.24004958621E-01  0.00000000000E+00 0. -1.
     999901    1    3    3    0    0  0.37471544075E-01  0.10081173149E-01  0.10443501652E+00  0.88702447505E+00  0.88000000000E+00 0. -1.
        -11    1    4    4    0    0 -0.23405819859E-01 -0.22094833728E-01 -0.82626493400E-01  0.88675885185E-01  0.51100000000E-03 0.  1.
         11    1    4    4    0    0 -0.85420309890E-02  0.28463227224E-02 -0.43295420711E-01  0.44224681141E-01  0.51100000000E-03 0. -1.
</event>
<event>
 8    1  0.1086486E+005  0.1043930E+01  0.7957747E-01            NaN
         13   -1    0    0    0    0  0.00000000000E+00  0.00000000000E+00  0.74505805969E-08  0.10566000000E+00  0.10566000000E+00 0. -1.
     999900   -1    0    0    0    0 -0.00000000000E+00 -0.00000000000E+00 -0.74505805969E-08  0.93827000000E+00  0.93827000000E+00 0. -1.
     999902    2    1    2    0    0  0.61156547758E-02  0.93410480281E-02 -0.21597296935E-01  0.10196174591E+01  0.10193275544E+01 0.  0.
     999903    2    3    3    0    0 -0.11924831439E+00  0.18902083903E-01  0.39887643930E-01  0.12855745204E+00  0.18935286544E-01 0.  0.
         14    1    1    2    0    0 -0.61156547758E-02 -0.93410480281E-02  0.21597296935E-01  0.24312540931E-01  0.00000000000E+00 0. -1.
     999901    1    3    3    0    0  0.12536396916E+00 -0.95610358754E-02 -0.61484940866E-01  0.89106000703E+00  0.88000000000E+00 0.  1.
        -11    1    4    4    0    0 -0.75502879955E-01  0.20508471762E-01  0.29038554662E-01  0.83455263904E-01  0.51100000000E-03 0. -1.
         11    1    4    4    0    0 -0.43745434434E-01 -0.16063878581E-02  0.10849089268E-01  0.45102188137E-01  0.51100000000E-03 0.  1.
</event>
<event>
 8    1  0.1086486E+005  0.1043930E+01  0.7957747E-01            NaN
         13   -1    0    0    0    0  0.00000000000E+00  0.00000000000E+00  0.74505805969E-08  0.10566000000E+00  0.10566000000E+00 0. -1.
     999900   -1    0    0    0    0 -0.00000000000E+00 -0.00000000000E+00 -0.74505805969E-08  0.93827000000E+00  0.93827000000E+00 0.  1.
     999902    2    1    2    0    0 -0.12411845838E-01 -0.53990450479E-02  0.21466053149E-01  0.10185529426E+01  0.10182367612E+01 0.  0.
     999903    2    3    3    0    0  0.12303066993E+00 -0.24537712975E-01 -0.81426433879E-02  0.12749310252E+00  0.21202439678E-01 0.  0.
         14    1    1    2    0    0  0.12411845838E-01  0.53990450479E-02 -0.21466053149E-01  0.25377057401E-01  0.00000000000E+00 0.  1.
     999901    1    3    3    0    0 -0.13544251577E+00  0.19138667927E-01  0.29608696537E-01  0.89105984008E+00  0.88000000000E+00 0.  1.
        -11    1    4    4    0    0  0.10190675223E+00 -0.15036127123E-01 -0.12978484892E-01  0.10382568786E+00  0.51100000000E-03 0.  1.
         11    1    4    4    0    0  0.21123917699E-01 -0.95015858522E-02  0.48358415044E-02  0.23667414660E-01  0.51100000000E-03 0. -1.
</event>
<event>
 8    1  0.1086486E+005  0.1043930E+01  0.7957747E-01            NaN
         13   -1    0    0    0    0  0.00000000000E+00  0.00000000000E+00  0.74505805969E-08  0.10566000000E+00  0.10566000000E+00 0.  1.
     999900   -1    0    0    0    0 -0.00000000000E+00 -0.00000000000E+00 -0.74505805969E-08  0.93827000000E+00  0.93827000000E+00 0.  1.
     999902    2    1    2    0    0  0.42985532756E-02 -0.16801933825E-02  0.23224129907E-01  0.10202517226E+01  0.10199769197E+01 0.  0.
     999903    2    3    3    0    0  0.52082656898E-01  0.33912615340E-01  0.11609565078E+00  0.13336092439E+00  0.21077651543E-01 0.  0.
         14    1    1    2    0    0 -0.42985532756E-02  0.16801933825E-02 -0.23224129907E-01  0.23678277387E-01  0.00000000000E+00 0. -1.
     999901    1    3    3    0    0 -0.47784103622E-01 -0.35592808723E-01 -0.92871520871E-01  0.88689079823E+00  0.88000000000E+00 0.  1.
        -11    1    4    4    0    0  0.49289891824E-01  0.29790783260E-01  0.90445420726E-01  0.10722695302E+00  0.51100000000E-03 0.  1.
         11    1    4    4    0    0  0.27927650742E-02  0.41218320800E-02  0.25650230052E-01  0.26133971363E-01  0.51100000000E-03 0. -1.
</event>
<event>
 8    1  0.1126721E+005  0.1043930E+01  0.7957747E-01            NaN
         13   -1    0    0    0    0  0.00000000000E+00  0.00000000000E+00  0.74505805969E-08  0.10566000000E+00  0.10566000000E+00 0. -1.
     999900   -1    0    0    0    0 -0.00000000000E+00 -0.00000000000E+00 -0.74505805969E-08  0.93827000000E+00  0.93827000000E+00 0. -1.
     999902    2    1    2    0    0  0.75417838268E-02 -0.25836909625E-02 -0.22205264027E-01  0.10203370410E+01  0.10200642380E+01 0.  0.
     999903    2    3    3    0    0 -0.25387491574E-01  0.82640099539E-01 -0.98314202004E-01  0.13233929211E+00  0.19341539275E-01 0.  0.
         14    1    1    2    0    0 -0.75417838268E-02  0.25836909625E-02  0.22205264027E-01  0.23592958966E-01  0.00000000000E+00 0. -1.
     999901    1    3    3    0    0  0.32929275401E-01 -0.85223790501E-01  0.76108937977E-01  0.88799774892E+00  0.88000000000E+00 0.  1.
        -11    1    4    4    0    0 -0.21532069506E-01  0.39494842016E-01 -0.44795903862E-01  0.63485484064E-01  0.51100000000E-03 0. -1.
         11    1    4    4    0    0 -0.38554220686E-02  0.43145257523E-01 -0.53518298142E-01  0.68853808050E-01  0.51100000000E-03 0.  1.
</event>
<event>
 8    1  0.1086486E+005  0.1043930E+01  0.7957747E-01            NaN
         13   -1    0    0    0    0  0.00000000000E+00  0.00000000000E+00  0.74505805969E-08  0.10566000000E+00  0.10566000000E+00 0. -1.
     999900   -1    0    0    0    0 -0.00000000000E+00 -0.00000000000E+00 -0.74505805969E-08  0.93827000000E+00  0.93827000000E+00 0.  1.
     999902    2    1    2    0    0  0.13824728368E-01 -0.17910494933E-01 -0.73900563558E-02  0.10201282800E+01  0.10198505703E+01 0.  0.
     999903    2    3    3    0    0 -0.79200656550E-01  0.51963204744E-01  0.83413206696E-01  0.12783836704E+00  0.20296955213E-01 0.  0.
         14    1    1    2    0    0 -0.13824728368E-01  0.17910494933E-01  0.73900563558E-02  0.23801720024E-01  0.00000000000E+00 0. -1.
     999901    1    3    3    0    0  0.93025384918E-01 -0.69873699677E-01 -0.90803263052E-01  0.89228991294E+00  0.88000000000E+00 0.  1.
        -11    1    4    4    0    0 -0.29116749128E-01  0.19453671185E-01  0.44238255458E-01  0.56422644119E-01  0.51100000000E-03 0. -1.
         11    1    4    4    0    0 -0.50083907423E-01  0.32509533559E-01  0.39174951238E-01  0.71415722922E-01  0.51100000000E-03 0.  1.
</event>
<event>
 8    1  0.1086486E+005  0.1043930E+01  0.7957747E-01            NaN
         13   -1    0    0    0    0  0.00000000000E+00  0.00000000000E+00  0.74505805969E-08  0.10566000000E+00  0.10566000000E+00 0. -1.
     999900   -1    0    0    0    0 -0.00000000000E+00 -0.00000000000E+00 -0.74505805969E-08  0.93827000000E+00  0.93827000000E+00 0. -1.
     999902    2    1    2    0    0 -0.58105243422E-02  0.20688292935E-01  0.10261939727E-01  0.10201166620E+01  0.10198386780E+01 0.  0.
     999903    2    3    3    0    0  0.13397611930E-02  0.11966432674E+00  0.55424455208E-01  0.13338838650E+00  0.19981125132E-01 0.  0.
         14    1    1    2    0    0  0.58105243422E-02 -0.20688292935E-01 -0.10261939727E-01  0.23813337957E-01  0.00000000000E+00 0. -1.
     999901    1    3    3    0    0 -0.71502855352E-02 -0.98976033809E-01 -0.45162515482E-01  0.88672827555E+00  0.88000000000E+00 0. -1.
        -11    1    4    4    0    0  0.62607783893E-02  0.30767026758E-01  0.21748157619E-01  0.38197522988E-01  0.51100000000E-03 0. -1.
         11    1    4    4    0    0 -0.49210171963E-02  0.88897299985E-01  0.33676297590E-01  0.95190863507E-01  0.51100000000E-03 0.  1.
</event>
<event>
 8    1  0.1086486E+005  0.1043930E+01  0.7957747E-01            NaN
         13   -1    0    0    0    0  0.00000000000E+00  0.00000000000E+00  0.74505805969E-08  0.10566000000E+00  0.10566000000E+00 0. -1.
     999900   -1    0    0    0    0 -0.00000000000E+00 -0.00000000000E+00 -0.74505805969E-08  0.93827000000E+00  0.93827000000E+00 0.  1.
     999902    2    1    2    0    0 -0.87702577763E-02 -0.20552772494E-01 -0.85286980374E-02  0.10200119614E+01  0.10197314984E+01 0.  0.
     999903    2    3    3    0    0 -0.10393208912E+00  0.75096267047E-01  0.63375313851E-04  0.12968711250E+00  0.19427162898E-01 0.  0.
         14    1    1    2    0    0  0.87702577763E-02  0.20552772494E-01  0.85286980374E-02  0.23918038566E-01  0.00000000000E+00 0.  1.
     999901    1    3    3    0    0  0.95161831343E-01 -0.95649039541E-01 -0.85920733512E-02  0.89032484894E+00  0.88000000000E+00 0. -1.
        -11    1    4    4    0    0 -0.46222036806E-01  0.42963742307E-01  0.58553321123E-02  0.63379064956E-01  0.51100000000E-03 0.  1.
         11    1    4    4    0    0 -0.57710052313E-01  0.32132524740E-01 -0.57919567985E-02  0.66308047541E-01  0.51100000000E-03 0. -1.
</event>
<event>
 8    1  0.1086486E+005  0.1043930E+01  0.7957747E-01            NaN
         13   -1    0    0    0    0  0.00000000000E+00  0.00000000000E+00  0.74505805969E-08  0.10566000000E+00  0.10566000000E+00 0. -1.
     999900   -1    0    0    0    0 -0.00000000000E+00 -0.00000000000E+00 -0.74505805969E-08  0.93827000000E+00  0.93827000000E+00 0. -1.
     999902    2    1    2    0    0  0.14508098206E-01  0.16890979969E-01  0.16855625283E-01  0.10160032705E+01  0.10156193890E+01 0.  0.
     999903    2    3    3    0    0 -0.10093269448E+00  0.59236678258E-01  0.44284129046E-01  0.12703079757E+00  0.21893985013E-01 0.  0.
         14    1    1    2    0    0 -0.14508098206E-01 -0.16890979969E-01 -0.16855625283E-01  0.27926729517E-01  0.00000000000E+00 0.  1.
     999901    1    3    3    0    0  0.11544079269E+00 -0.42345698289E-01 -0.27428503764E-01  0.88897247291E+00  0.88000000000E+00 0.  1.
        -11    1    4    4    0    0 -0.88631919672E-01  0.57736942216E-01  0.44159883492E-01  0.11462778072E+00  0.51100000000E-03 0.  1.
         11    1    4    4    0    0 -0.12300774807E-01  0.14997360413E-02  0.12424555447E-03  0.12403016851E-01  0.51100000000E-03 0. -1.
</event>
<event>
 8    1  0.1086486E+005  0.1043930E+01  0.7957747E-01            NaN
         13   -1    0    0    0    0  0.00000000000E+00  0.00000000000E+00  0.74505805969E-08  0.10566000000E+00  0.10566000000E+00 0.  1.
     999900   -1    0    0    0    0 -0.00000000000E+00 -0.00000000000E+00 -0.74505805969E-08  0.93827000000E+00  0.93827000000E+00 0.  1.
     999902    2    1    2    0    0 -0.20644114597E-01  0.68212417098E-02  0.96774075113E-02  0.10201316593E+01  0.10198540294E+01 0.  0.
     999903    2    3    3    0    0 -0.28523762850E-01  0.26219878823E-01  0.12518856320E+00  0.13233594905E+00  0.18426610118E-01 0.  0.
         14    1    1    2    0    0  0.20644114597E-01 -0.68212417098E-02 -0.96774075113E-02  0.23798340742E-01  0.00000000000E+00 0.  1.
     999901    1    3    3    0    0  0.78796482531E-02 -0.19398637113E-01 -0.11551115569E+00  0.88779571021E+00  0.88000000000E+00 0.  1.
        -11    1    4    4    0    0 -0.13364928869E-01  0.41686970453E-02  0.64564979917E-01  0.66067367977E-01  0.51100000000E-03 0. -1.
         11    1    4    4    0    0 -0.15158833981E-01  0.22051181778E-01  0.60623583288E-01  0.66268581071E-01  0.51100000000E-03 0.  1.
</event>
<event>
 8    1  0.1086486E+005  0.1043930E+01  0.7957747E-01            NaN
         13   -1    0    0    0    0  0.00000000000E+00  0.00000000000E+00  0.74505805969E-08  0.10566000000E+00  0.10566000000E+00 0. -1.
     999900   -1    0    0    0    0 -0.00000000000E+00 -0.00000000000E+00 -0.74505805969E-08  0.93827000000E+00  0.93827000000E+00 0.  1.
     999902    2    1    2    0    0 -0.10271184840E-01 -0.17847239625E-01  0.11275085925E-01  0.10204534423E+01  0.10201833556E+01 0.  0.
     999903    2    3    3    0    0 -0.68006220201E-01 -0.10376714239E+00 -0.42842044525E-01  0.13273489013E+00  0.19764727545E-01 0.  0.
         14    1    1    2    0    0  0.10271184840E-01  0.17847239625E-01 -0.11275085925E-01  0.23476557730E-01  0.00000000000E+00 0.  1.
     999901    1    3    3    0    0  0.57735035361E-01  0.85919902760E-01  0.54117130449E-01  0.88771855214E+00  0.88000000000E+00 0. -1.
        -11    1    4    4    0    0 -0.29412697436E-02 -0.16272279494E-01 -0.69238392739E-02  0.17934291704E-01  0.51100000000E-03 0.  1.
         11    1    4    4    0    0 -0.65064950457E-01 -0.87494862892E-01 -0.35918205251E-01  0.11480059843E+00  0.51100000000E-03 0. -1.
</event>
<event>
 8    1  0.1086486E+005  0.1043930E+01  0.7957747E-01            NaN
         13   -1    0    0    0    0  0.00000000000E+00  0.00000000000E+00  0.74505805969E-08  0.10566000000E+00  0.10566000000E+00 0.  1.
     999900   -1    0    0    0    0 -0.00000000000E+00 -0.00000000000E+00 -0.74505805969E-08  0.93827000000E+00  0.93827000000E+00 0. -1.
     999902    2    1    2    0    0  0.82180893977E-02  0.14645742729E-01 -0.15950012101E-01  0.10207688761E+01  0.10205060807E+01 0.  0.
     999903    2    3    3    0    0 -0.15827992039E-02  0.11987216654E+00  0.53392789001E-01  0.13173733464E+00  0.11493209117E-01 0.  0.
         14    1    1    2    0    0 -0.82180893977E-02 -0.14645742729E-01  0.15950012101E-01  0.23161123881E-01  0.00000000000E+00 0. -1.
     999901    1    3    3    0    0  0.98008886015E-02 -0.10522642381E+00 -0.69342801102E-01  0.88903154148E+00  0.88000000000E+00 0. -1.
        -11    1    4    4    0    0  0.25987685386E-02  0.81060632411E-01  0.40271063443E-01  0.90551639393E-01  0.51100000000E-03 0.  1.
         11    1    4    4    0    0 -0.41815677425E-02  0.38811534127E-01  0.13121725558E-01  0.41185695244E-01  0.51100000000E-03 0. -1.
</event>
<event>
 8    1  0.1086486E+005  0.1043930E+01  0.7957747E-01            NaN
         13   -1    0    0    0    0  0.00000000000E+00  0.00000000000E+00  0.74505805969E-08  0.10566000000E+00  0.10566000000E+00 0.  1.
     999900   -1    0    0    0    0 -0.00000000000E+00 -0.00000000000E+00 -0.74505805969E-08  0.93827000000E+00  0.93827000000E+00 0.  1.
     999902    2    1    2    0    0  0.11836130601E-01 -0.43072187750E-02 -0.19850539885E-01  0.10204206390E+01  0.10201497882E+01 0.  0.
     999903    2    3    3    0    0  0.10016052974E+00 -0.83948287976E-01 -0.34194368450E-02  0.13226869223E+00  0.20096458009E-01 0.  0.
         14    1    1    2    0    0 -0.11836130601E-01  0.43072187750E-02  0.19850539885E-01  0.23509361006E-01  0.00000000000E+00 0.  1.
     999901    1    3    3    0    0 -0.88324399142E-01  0.79641069201E-01 -0.16431103040E-01  0.88815194676E+00  0.88000000000E+00 0. -1.
        -11    1    4    4    0    0  0.62963476206E-01 -0.42498017791E-01  0.40559551363E-02  0.76073600843E-01  0.51100000000E-03 0.  1.
         11    1    4    4    0    0  0.37197053537E-01 -0.41450270184E-01 -0.74753919814E-02  0.56195091391E-01  0.51100000000E-03 0. -1.
</event>
<event>
 8    1  0.1086486E+005  0.1043930E+01  0.7957747E-01            NaN
         13   -1    0    0    0    0  0.00000000000E+00  0.00000000000E+00  0.74505805969E-08  0.10566000000E+00  0.10566000000E+00 0.  1.
     999900   -1    0    0    0    0 -0.00000000000E+00 -0.00000000000E+00 -0.74505805969E-08  0.93827000000E+00  0.93827000000E+00 0.  1.
     999902    2    1    2    0    0 -0.68689947547E-02  0.18521691251E-01  0.40602915844E-02  0.10237626476E+01  0.10235639875E+01 0.  0.
     999903    2    3    3    0    0  0.41473832110E-02 -0.50790750796E-01  0.12137000365E+00  0.13320824512E+00  0.20417091570E-01 0.  0.
         14    1    1    2    0    0  0.68689947547E-02 -0.18521691251E-01 -0.40602915844E-02  0.20167352416E-01  0.00000000000E+00 0.  1.
     999901    1    3    3    0    0 -0.11016377966E-01  0.69312442047E-01 -0.11730971206E+00  0.89055440247E+00  0.88000000000E+00 0.  1.
        -11    1    4    4    0    0  0.11384422355E-01 -0.34978865711E-01  0.91848428985E-01  0.98942009009E-01  0.51100000000E-03 0.  1.
         11    1    4    4    0    0 -0.72370391443E-02 -0.15811885085E-01  0.29521574662E-01  0.34266236109E-01  0.51100000000E-03 0. -1.
</event>
<event>
 8    1  0.1086486E+005  0.1043930E+01  0.7957747E-01            NaN
         13   -1    0    0    0    0  0.00000000000E+00  0.00000000000E+00  0.74505805969E-08  0.10566000000E+00  0.10566000000E+00 0.  1.
     999900   -1    0    0    0    0 -0.00000000000E+00 -0.00000000000E+00 -0.74505805969E-08  0.93827000000E+00  0.93827000000E+00 0. -1.
     999902    2    1    2    0    0 -0.16450781884E-01  0.11811028410E-01 -0.13110860512E-01  0.10198048413E+01  0.10195194413E+01 0.  0.
     999903    2    3    3    0    0 -0.17356551836E-02 -0.11278102169E+00  0.57324175626E-01  0.12812058769E+00  0.20155707040E-01 0.  0.
         14    1    1    2    0    0  0.16450781884E-01 -0.11811028410E-01  0.13110860512E-01  0.24125158653E-01  0.00000000000E+00 0. -1.
     999901    1    3    3    0    0 -0.14715126700E-01  0.12459205010E+00 -0.70435036138E-01  0.89168425366E+00  0.88000000000E+00 0.  1.
        -11    1    4    4    0    0  0.36214498374E-02 -0.50590997416E-01  0.15716101583E-01  0.53101985729E-01  0.51100000000E-03 0. -1.
         11    1    4    4    0    0 -0.53571050210E-02 -0.62190024275E-01  0.41608074043E-01  0.75018601961E-01  0.51100000000E-03 0.  1.
</event>
<event>
 8    1  0.1086486E+005  0.1043930E+01  0.7957747E-01            NaN
         13   -1    0    0    0    0  0.00000000000E+00  0.00000000000E+00  0.74505805969E-08  0.10566000000E+00  0.10566000000E+00 0.  1.
     999900   -1    0    0    0    0 -0.00000000000E+00 -0.00000000000E+00 -0.74505805969E-08  0.93827000000E+00  0.93827000000E+00 0.  1.
     999902    2    1    2    0    0  0.23256048127E-01 -0.23269723096E-02  0.72866136086E-04  0.10205577112E+01  0.10202900460E+01 0.  0.
     999903    2    3    3    0    0  0.12143439374E+00 -0.26151756193E-01  0.44746163910E-01  0.13365167817E+00  0.20744289801E-01 0.  0.
         14    1    1    2    0    0 -0.23256048127E-01  0.23269723096E-02 -0.72866136086E-04  0.23372288807E-01  0.00000000000E+00 0.  1.
     999901    1    3    3    0    0 -0.98178345610E-01  0.23824783883E-01 -0.44673297774E-01  0.88690603302E+00  0.88000000000E+00 0.  1.
        -11    1    4    4    0    0  0.56720881680E-01 -0.13656415817E-01  0.31918559762E-01  0.66504223098E-01  0.51100000000E-03 0. -1.
         11    1    4    4    0    0  0.64713512057E-01 -0.12495340376E-01  0.12827604149E-01  0.67147455075E-01  0.51100000000E-03 0.  1.
</event>
<event>
 8    1  0.1086486E+005  0.1043930E+01  0.7957747E-01            NaN
         13   -1    0    0    0    0  0.00000000000E+00  0.00000000000E+00  0.74505805969E-08  0.10566000000E+00  0.10566000000E+00 0.  1.
     999900   -1    0    0    0    0 -0.00000000000E+00 -0.00000000000E+00 -0.74505805969E-08  0.93827000000E+00  0.93827000000E+00 0.  1.
     999902    2    1    2    0    0  0.18813839115E-01 -0.88147726742E-02 -0.13241827844E-01  0.10192924927E+01  0.10189946904E+01 0.  0.
     999903    2    3    3    0    0  0.50714473633E-01  0.10140739281E+00 -0.61614584188E-01  0.13052565053E+00  0.19625781735E-01 0.  0.
         14    1    1    2    0    0 -0.18813839115E-01  0.88147726742E-02  0.13241827844E-01  0.24637507264E-01  0.00000000000E+00 0.  1.
     999901    1    3    3    0    0 -0.31900634518E-01 -0.11022216549E+00  0.48372756344E-01  0.88876684221E+00  0.88000000000E+00 0. -1.
        -11    1    4    4    0    0  0.31808639046E-01  0.78431590251E-01 -0.39227699509E-01  0.93286533846E-01  0.51100000000E-03 0. -1.
         11    1    4    4    0    0  0.18905834587E-01  0.22975802563E-01 -0.22386884679E-01  0.37239116685E-01  0.51100000000E-03 0.  1.
</event>
<event>
 8    1  0.1086486E+005  0.1043930E+01  0.7957747E-01            NaN
         13   -1    0    0    0    0  0.00000000000E+00  0.00000000000E+00  0.74505805969E-08  0.10566000000E+00  0.10566000000E+00 0.  1.
     999900   -1    0    0    0    0 -0.00000000000E+00 -0.00000000000E+00 -0.74505805969E-08  0.93827000000E+00  0.93827000000E+00 0.  1.
     999902    2    1    2    0    0  0.18090022417E-01 -0.63068310896E-02  0.13568970323E-01  0.10204535866E+01  0.10201835033E+01 0.  0.
     999903    2    3    3    0    0 -0.49955863927E-02  0.77269906077E-01 -0.10116474092E+00  0.12877996874E+00  0.18825017241E-01 0.  0.
         14    1    1    2    0    0 -0.18090022417E-01  0.63068310896E-02 -0.13568970323E-01  0.23476413377E-01  0.00000000000E+00 0. -1.
     999901    1    3    3    0    0  0.23085608810E-01 -0.83576737166E-01  0.11473371125E+00  0.89167361788E+00  0.88000000000E+00 0. -1.
        -11    1    4    4    0    0 -0.64717905900E-02  0.76996824281E-01 -0.95220850790E-01  0.12262816385E+00  0.51100000000E-03 0. -1.
         11    1    4    4    0    0  0.14762041974E-02  0.27308179569E-03 -0.59438901345E-02  0.61518048921E-02  0.51100000000E-03 0.  1.
</event>
<event>
 8    1  0.1086486E+005  0.1043930E+01  0.7957747E-01            NaN
         13   -1    0    0    0    0  0.00000000000E+00  0.00000000000E+00  0.74505805969E-08  0.10566000000E+00  0.10566000000E+00 0. -1.
     999900   -1    0    0    0    0 -0.00000000000E+00 -0.00000000000E+00 -0.74505805969E-08  0.93827000000E+00  0.93827000000E+00 0. -1.
     999902    2    1    2    0    0  0.12214248627E-01  0.23937479071E-01  0.22058501792E-03  0.10170554873E+01  0.10167003614E+01 0.  0.
     999903    2    3    3    0    0 -0.66806822852E-02  0.23764390705E-01  0.12418133411E+00  0.12816667780E+00  0.19907681332E-01 0.  0.
         14    1    1    2    0    0 -0.12214248627E-01 -0.23937479071E-01 -0.22058501792E-03  0.26874512675E-01  0.00000000000E+00 0.  1.
     999901    1    3    3    0    0  0.18894930912E-01  0.17308836613E-03 -0.12396074910E+00  0.88888880952E+00  0.88000000000E+00 0. -1.
        -11    1    4    4    0    0 -0.56254902928E-02  0.27195518574E-01  0.10311008253E+00  0.10678573225E+00  0.51100000000E-03 0.  1.
         11    1    4    4    0    0 -0.10551919925E-02 -0.34311278689E-02  0.21071251582E-01  0.21380945555E-01  0.51100000000E-03 0. -1.
</event>
<event>
 8    1  0.1086486E+005  0.1043930E+01  0.7957747E-01            NaN
         13   -1    0    0    0    0  0.00000000000E+00  0.00000000000E+00  0.74505805969E-08  0.10566000000E+00  0.10566000000E+00 0. -1.
     999900   -1    0    0    0    0 -0.00000000000E+00 -0.00000000000E+00 -0.74505805969E-08  0.93827000000E+00  0.93827000000E+00 0.  1.
     999902    2    1    2    0    0  0.72587437118E-02 -0.18571342117E-01  0.21972773525E-01  0.10142586858E+01  0.10138245878E+01 0.  0.
     999903    2    3    3    0    0  0.95375197418E-01  0.75040171274E-01 -0.16274476460E-01  0.12409551147E+00  0.20183701234E-01 0.  0.
         14    1    1    2    0    0 -0.72587437118E-02  0.18571342117E-01 -0.21972773525E-01  0.29671314171E-01  0.00000000000E+00 0.  1.
     999901    1    3    3    0    0 -0.88116453706E-01 -0.93611513391E-01  0.38247249985E-01  0.89016317436E+00  0.88000000000E+00 0. -1.
        -11    1    4    4    0    0  0.44405006552E-01  0.46210242219E-01 -0.13327273803E-01  0.65460434163E-01  0.51100000000E-03 0.  1.
         11    1    4    4    0    0  0.50970190866E-01  0.28829929056E-01 -0.29472026574E-02  0.58635077307E-01  0.51100000000E-03 0. -1.
</event>
<event>
 8    1  0.1086486E+005  0.1043930E+01  0.7957747E-01            NaN
         13   -1    0    0    0    0  0.00000000000E+00  0.00000000000E+00  0.74505805969E-08  0.10566000000E+00  0.10566000000E+00 0. -1.
     999900   -1    0    0    0    0 -0.00000000000E+00 -0.00000000000E+00 -0.74505805969E-08  0.93827000000E+00  0.93827000000E+00 0. -1.
     999902    2    1    2    0    0 -0.12704201547E-01 -0.18830934720E-02 -0.14762804911E-01  0.10243625989E+01  0.10241756933E+01 0.  0.
     999903    2    3    3    0    0  0.70502638579E-01  0.57851143949E-01  0.93166089221E-01  0.13187158853E+00  0.19819656324E-01 0.  0.
         14    1    1    2    0    0  0.12704201547E-01  0.18830934720E-02  0.14762804911E-01  0.19567401126E-01  0.00000000000E+00 0. -1.
     999901    1    3    3    0    0 -0.83206840126E-01 -0.59734237421E-01 -0.10792889413E+00  0.89249101035E+00  0.88000000000E+00 0. -1.
        -11    1    4    4    0    0  0.24541102719E-01  0.98165187793E-02  0.21116105552E-01  0.33834609474E-01  0.51100000000E-03 0. -1.
         11    1    4    4    0    0  0.45961535860E-01  0.48034625170E-01  0.72049983669E-01  0.98036979052E-01  0.51100000000E-03 0.  1.
</event>
<event>
 8    1  0.1086486E+005  0.1043930E+01  0.7957747E-01            NaN
         13   -1    0    0    0    0  0.00000000000E+00  0.00000000000E+00  0.74505805969E-08  0.10566000000E+00  0.10566000000E+00 0.  1.
     999900   -1    0    0    0    0 -0.00000000000E+00 -0.00000000000E+00 -0.74505805969E-08  0.93827000000E+00  0.93827000000E+00 0.  1.
     999902    2    1    2    0    0  0.61443157710E-02 -0.11425190418E-01  0.19721622083E-01  0.10203242810E+01  0.10200511793E+01 0.  0.
     999903    2    3    3    0    0  0.11083771111E-01 -0.53171576861E-01 -0.11525205282E+00  0.12904146846E+00  0.20459675785E-01 0.  0.
         14    1    1    2    0    0 -0.61443157710E-02  0.11425190418E-01 -0.19721622083E-01  0.23605719009E-01  0.00000000000E+00 0.  1.
     999901    1    3    3    0    0 -0.49394553401E-02  0.41746386442E-01  0.13497367491E+00  0.89128281253E+00  0.88000000000E+00 0. -1.
        -11    1    4    4    0    0 -0.51776392462E-02 -0.21428606529E-01 -0.50751887202E-01  0.55335416340E-01  0.51100000000E-03 0.  1.
         11    1    4    4    0    0  0.16261410357E-01 -0.31742970332E-01 -0.64500165623E-01  0.73706052117E-01  0.51100000000E-03 0. -1.
</event>
<event>
 8    1  0.1086486E+005  0.1043930E+01  0.7957747E-01            NaN
         13   -1    0    0    0    0  0.00000000000E+00  0.00000000000E+00  0.74505805969E-08  0.10566000000E+00  0.10566000000E+00 0.  1.
     999900   -1    0    0    0    0 -0.00000000000E+00 -0.00000000000E+00 -0.74505805969E-08  0.93827000000E+00  0.93827000000E+00 0.  1.
     999902    2    1    2    0    0  0.13668435986E-01  0.88375340289E-02  0.13110755511E-01  0.10230297593E+01  0.10228162437E+01 0.  0.
     999903    2    3    3    0    0 -0.71444645931E-01  0.45574624943E-01  0.10156964291E+00  0.13374981166E+00  0.19779683741E-01 0.  0.
         14    1    1    2    0    0 -0.13668435986E-01 -0.88375340289E-02 -0.13110755511E-01  0.20900240671E-01  0.00000000000E+00 0. -1.
     999901    1    3    3    0    0  0.85113081918E-01 -0.36737090914E-01 -0.88458887394E-01  0.88927994767E+00  0.88000000000E+00 0.  1.
        -11    1    4    4    0    0 -0.48231389670E-01  0.39903697120E-01  0.79765870437E-01  0.10139737275E+00  0.51100000000E-03 0.  1.
         11    1    4    4    0    0 -0.23213256261E-01  0.56709278225E-02  0.21803772468E-01  0.32352438911E-01  0.51100000000E-03 0. -1.
</event>
<event>
 8    1  0.1086486E+005  0.1043930E+01  0.7957747E-01            NaN
         13   -1    0    0    0    0  0.00000000000E+00  0.00000000000E+00  0.74505805969E-08  0.10566000000E+00  0.10566000000E+00 0.  1.
     999900   -1    0    0    0    0 -0.00000000000E+00 -0.00000000000E+00 -0.74505805969E-08  0.93827000000E+00  0.93827000000E+00 0. -1.
     999902    2    1    2    0    0 -0.10806347390E-01  0.18446984495E-02  0.20884149226E-01  0.10203433990E+01  0.10200707447E+01 0.  0.
     999903    2    3    3    0    0 -0.12667826177E+00  0.78149724582E-02 -0.26843672933E-01  0.13144526667E+00  0.21185361791E-01 0.  0.
         14    1    1    2    0    0  0.10806347390E-01 -0.18446984495E-02 -0.20884149226E-01  0.23586600967E-01  0.00000000000E+00 0.  1.
     999901    1    3    3    0    0  0.11587191438E+00 -0.59702740087E-02  0.47727822158E-01  0.88889813236E+00  0.88000000000E+00 0.  1.
        -11    1    4    4    0    0 -0.39667990514E-01  0.64706751823E-02 -0.17780106683E-01  0.43952388142E-01  0.51100000000E-03 0. -1.
         11    1    4    4    0    0 -0.87010271253E-01  0.13442972759E-02 -0.90635662497E-02  0.87492878526E-01  0.51100000000E-03 0.  1.
</event>
<event>
 8    1  0.1086486E+005  0.1043930E+01  0.7957747E-01            NaN
         13   -1    0    0    0    0  0.00000000000E+00  0.00000000000E+00  0.74505805969E-08  0.10566000000E+00  0.10566000000E+00 0. -1.
     999900   -1    0    0    0    0 -0.00000000000E+00 -0.00000000000E+00 -0.74505805969E-08  0.93827000000E+00  0.93827000000E+00 0. -1.
     999902    2    1    2    0    0  0.11925070865E-01 -0.20465894760E-01  0.31324656222E-02  0.10200370616E+01  0.10197571939E+01 0.  0.
     999903    2    3    3    0    0  0.64602155201E-01  0.96054932624E-01 -0.53677338311E-01  0.12898188249E+00  0.18843588446E-01 0.  0.
         14    1    1    2    0    0 -0.11925070865E-01  0.20465894760E-01 -0.31324656222E-02  0.23892938378E-01  0.00000000000E+00 0.  1.
     999901    1    3    3    0    0 -0.52677084336E-01 -0.11652082738E+00  0.56809803934E-01  0.89105517913E+00  0.88000000000E+00 0.  1.
        -11    1    4    4    0    0  0.10412685044E-01  0.56185987246E-02 -0.49396902766E-02  0.12831770045E-01  0.51100000000E-03 0. -1.
         11    1    4    4    0    0  0.54189470157E-01  0.90436333899E-01 -0.48737648035E-01  0.11615011245E+00  0.51100000000E-03 0.  1.
</event>
<event>
 8    1  0.1086486E+005  0.1043930E+01  0.7957747E-01            NaN
         13   -1    0    0    0    0  0.00000000000E+00  0.00000000000E+00  0.74505805969E-08  0.10566000000E+00  0.10566000000E+00 0.  1.
     999900   -1    0    0    0    0 -0.00000000000E+00 -0.00000000000E+00 -0.74505805969E-08  0.93827000000E+00  0.93827000000E+00 0.  1.
     999902    2    1    2    0    0  0.16817671527E-02  0.20896502834E-01  0.96397022106E-02  0.10208558580E+01  0.10205950552E+01 0.  0.
     999903    2    3    3    0    0 -0.12145023190E+00 -0.91425225230E-02  0.44228517394E-01  0.13110296061E+00  0.19951941824E-01 0.  0.
         14    1    1    2    0    0 -0.16817671527E-02 -0.20896502834E-01 -0.96397022106E-02  0.23074142025E-01  0.00000000000E+00 0. -1.
     999901    1    3    3    0    0  0.12313199905E+00  0.30039025357E-01 -0.34588815184E-01  0.88975289737E+00  0.88000000000E+00 0.  1.
        -11    1    4    4    0    0 -0.45878459568E-01  0.59415678928E-02  0.14193158715E-01  0.48392583695E-01  0.51100000000E-03 0. -1.
         11    1    4    4    0    0 -0.75571772334E-01 -0.15084090416E-01  0.30035358679E-01  0.82710376914E-01  0.51100000000E-03 0.  1.
</event>
<event>
 8    1  0.1086486E+005  0.1043930E+01  0.7957747E-01            NaN
         13   -1    0    0    0    0  0.00000000000E+00  0.00000000000E+00  0.74505805969E-08  0.10566000000E+00  0.10566000000E+00 0. -1.
     999900   -1    0    0    0    0 -0.00000000000E+00 -0.00000000000E+00 -0.74505805969E-08  0.93827000000E+00  0.93827000000E+00 0.  1.
     999902    2    1    2    0    0  0.14383095762E-01  0.13599423277E-01 -0.10612686285E-01  0.10214701054E+01  0.10212231535E+01 0.  0.
     999903    2    3    3    0    0  0.10975966347E+00  0.72880046419E-01  0.13483305813E-01  0.13400658567E+00  0.20427446605E-01 0.  0.
         14    1    1    2    0    0 -0.14383095762E-01 -0.13599423277E-01  0.10612686285E-01  0.22459894643E-01  0.00000000000E+00 0. -1.
     999901    1    3    3    0    0 -0.95376567709E-01 -0.59280623142E-01 -0.24095992098E-01  0.88746351969E+00  0.88000000000E+00 0.  1.
        -11    1    4    4    0    0  0.63455840826E-01  0.29933950663E-01  0.77762413663E-02  0.70593315462E-01  0.51100000000E-03 0.  1.
         11    1    4    4    0    0  0.46303822645E-01  0.42946095756E-01  0.57070644470E-02  0.63413270203E-01  0.51100000000E-03 0. -1.
</event>
<event>
 8    1  0.1086486E+005  0.1043930E+01  0.7957747E-01            NaN
         13   -1    0    0    0    0  0.00000000000E+00  0.00000000000E+00  0.74505805969E-08  0.10566000000E+00  0.10566000000E+00 0. -1.
     999900   -1    0    0    0    0 -0.00000000000E+00 -0.00000000000E+00 -0.74505805969E-08  0.93827000000E+00  0.93827000000E+00 0.  1.
     999902    2    1    2    0    0 -0.17599763902E-01 -0.14475707001E-02 -0.14948501084E-01  0.10207933443E+01  0.10205311103E+01 0.  0.
     999903    2    3    3    0    0 -0.64108676320E-01  0.99634639290E-01  0.52622988517E-01  0.13121670441E+00  0.20289427528E-01 0.  0.
         14    1    1    2    0    0  0.17599763902E-01  0.14475707001E-02  0.14948501084E-01  0.23136655657E-01  0.00000000000E+00 0. -1.
     999901    1    3    3    0    0  0.46508912418E-01 -0.10108220999E+00 -0.67571489601E-01  0.88957663993E+00  0.88000000000E+00 0.  1.
        -11    1    4    4    0    0 -0.20747542394E-01  0.17673192936E-01  0.15313720285E-01  0.31266170439E-01  0.51100000000E-03 0. -1.
         11    1    4    4    0    0 -0.43361133926E-01  0.81961446354E-01  0.37309268232E-01  0.99950533970E-01  0.51100000000E-03 0.  1.
</event>
<event>
 8    1  0.1086486E+005  0.1043930E+01  0.7957747E-01            NaN
         13   -1    0    0    0    0  0.00000000000E+00  0.00000000000E+00  0.74505805969E-08  0.10566000000E+00  0.10566000000E+00 0. -1.
     999900   -1    0    0    0    0 -0.00000000000E+00 -0.00000000000E+00 -0.74505805969E-08  0.93827000000E+00  0.93827000000E+00 0. -1.
     999902    2    1    2    0    0  0.21065854521E-01  0.10891011721E-01  0.15325771871E-02  0.10201658851E+01  0.10198890626E+01 0.  0.
     999903    2    3    3    0    0 -0.67171433679E-01 -0.95060247773E-01 -0.49451420777E-01  0.12797148004E+00  0.19565389780E-01 0.  0.
         14    1    1    2    0    0 -0.21065854521E-01 -0.10891011721E-01 -0.15325771871E-02  0.23764114876E-01  0.00000000000E+00 0. -1.
     999901    1    3    3    0    0  0.88237288200E-01  0.10595125949E+00  0.50983997964E-01  0.89219440509E+00  0.88000000000E+00 0.  1.
        -11    1    4    4    0    0 -0.35704547140E-01 -0.66735399478E-01 -0.32075622033E-01  0.82204226654E-01  0.51100000000E-03 0.  1.
         11    1    4    4    0    0 -0.31466886539E-01 -0.28324848295E-01 -0.17375798744E-01  0.45767253385E-01  0.51100000000E-03 0. -1.
</event>
<event>
 8    1  0.1086486E+005  0.1043930E+01  0.7957747E-01            NaN
         13   -1    0    0    0    0  0.00000000000E+00  0.00000000000E+00  0.74505805969E-08  0.10566000000E+00  0.10566000000E+00 0. -1.
     999900   -1    0    0    0    0 -0.00000000000E+00 -0.00000000000E+00 -0.74505805969E-08  0.93827000000E+00  0.93827000000E+00 0. -1.
     999902    2    1    2    0    0 -0.15133078437E-01 -0.90301071122E-02  0.14578420669E-01  0.10210589868E+01  0.10208028072E+01 0.  0.
     999903    2    3    3    0    0  0.36292959207E-02  0.25945722000E-01  0.12841944802E+00  0.13283879175E+00  0.21638800487E-01 0.  0.
         14    1    1    2    0    0  0.15133078437E-01  0.90301071122E-02 -0.14578420669E-01  0.22871013240E-01  0.00000000000E+00 0.  1.
     999901    1    3    3    0    0 -0.18762374357E-01 -0.34975829112E-01 -0.11384102735E+00  0.88822019501E+00  0.88000000000E+00 0. -1.
        -11    1    4    4    0    0 -0.30786788372E-02  0.13178455868E-01  0.25137911282E-01  0.28553908088E-01  0.51100000000E-03 0. -1.
         11    1    4    4    0    0  0.67079747579E-02  0.12767266132E-01  0.10328153673E+00  0.10428488366E+00  0.51100000000E-03 0.  1.
</event>
<event>
 8    1  0.1086486E+005  0.1043930E+01  0.7957747E-01            NaN
         13   -1    0    0    0    0  0.00000000000E+00  0.00000000000E+00  0.74505805969E-08  0.10566000000E+00  0.10566000000E+00 0.  1.
     999900   -1    0    0    0    0 -0.00000000000E+00 -0.00000000000E+00 -0.74505805969E-08  0.93827000000E+00  0.93827000000E+00 0.  1.
     999902    2    1    2    0    0  0.21243121735E-01 -0.25097186035E-02 -0.89928021588E-02  0.10207257030E+01  0.10204619157E+01 0.  0.
     999903    2    3    3    0    0 -0.97583692231E-01 -0.74462985583E-01  0.33359193711E-01  0.12882280700E+00  0.20375637077E-01 0.  0.
         14    1    1    2    0    0 -0.21243121735E-01  0.25097186035E-02  0.89928021588E-02  0.23204296998E-01  0.00000000000E+00 0. -1.
     999901    1    3    3    0    0  0.11882681397E+00  0.71953266980E-01 -0.42351995870E-01  0.89190289600E+00  0.88000000000E+00 0.  1.
        -11    1    4    4    0    0 -0.28431186971E-01 -0.33240108427E-01  0.15033073125E-01  0.46254638788E-01  0.51100000000E-03 0.  1.
         11    1    4    4    0    0 -0.69152505260E-01 -0.41222877157E-01  0.18326120586E-01  0.82568168210E-01  0.51100000000E-03 0. -1.
</event>
<event>
 8    1  0.1086486E+005  0.1043930E+01  0.7957747E-01            NaN
         13   -1    0    0    0    0  0.00000000000E+00  0.00000000000E+00  0.74505805969E-08  0.10566000000E+00  0.10566000000E+00 0.  1.
     999900   -1    0    0    0    0 -0.00000000000E+00 -0.00000000000E+00 -0.74505805969E-08  0.93827000000E+00  0.93827000000E+00 0.  1.
     999902    2    1    2    0    0 -0.11913601681E-01  0.19571183091E-01 -0.62634065491E-02  0.10201772028E+01  0.10199006470E+01 0.  0.
     999903    2    3    3    0    0 -0.69189452881E-01  0.11042415066E+00 -0.21606881922E-01  0.13351480535E+00  0.19459508243E-01 0.  0.
         14    1    1    2    0    0  0.11913601681E-01 -0.19571183091E-01  0.62634065491E-02  0.23752797186E-01  0.00000000000E+00 0.  1.
     999901    1    3    3    0    0  0.57275851201E-01 -0.90852967569E-01  0.15343475373E-01  0.88666239747E+00  0.88000000000E+00 0. -1.
        -11    1    4    4    0    0 -0.20843033407E-01  0.51302826690E-01 -0.86051372762E-02  0.56042141078E-01  0.51100000000E-03 0. -1.
         11    1    4    4    0    0 -0.48346419475E-01  0.59121323970E-01 -0.13001744646E-01  0.77472664268E-01  0.51100000000E-03 0.  1.
</event>
<event>
 8    1  0.1086486E+005  0.1043930E+01  0.7957747E-01            NaN
         13   -1    0    0    0    0  0.00000000000E+00  0.00000000000E+00  0.74505805969E-08  0.10566000000E+00  0.10566000000E+00 0. -1.
     999900   -1    0    0    0    0 -0.00000000000E+00 -0.00000000000E+00 -0.74505805969E-08  0.93827000000E+00  0.93827000000E+00 0.  1.
     999902    2    1    2    0    0 -0.22918735060E-01  0.89834149970E-03 -0.49204939824E-02  0.10204718096E+01  0.10202021503E+01 0.  0.
     999903    2    3    3    0    0 -0.12311171224E+00  0.46184272490E-01  0.11042164589E-01  0.13348575862E+00  0.20175173876E-01 0.  0.
         14    1    1    2    0    0  0.22918735060E-01 -0.89834149970E-03  0.49204939824E-02  0.23458190366E-01  0.00000000000E+00 0. -1.
     999901    1    3    3    0    0  0.10019297718E+00 -0.45285930990E-01 -0.15962658572E-01  0.88698605101E+00  0.88000000000E+00 0. -1.
        -11    1    4    4    0    0 -0.59955124514E-01  0.12322873840E-01  0.82940421335E-02  0.61769915259E-01  0.51100000000E-03 0. -1.
         11    1    4    4    0    0 -0.63156587722E-01  0.33861398650E-01  0.27481224560E-02  0.71715843363E-01  0.51100000000E-03 0.  1.
</event>
<event>
 8    1  0.1086486E+005  0.1043930E+01  0.7957747E-01            NaN
         13   -1    0    0    0    0  0.00000000000E+00  0.00000000000E+00  0.74505805969E-08  0.10566000000E+00  0.10566000000E+00 0. -1.
     999900   -1    0    0    0    0 -0.00000000000E+00 -0.00000000000E+00 -0.74505805969E-08  0.93827000000E+00  0.93827000000E+00 0.  1.
     999902    2    1    2    0    0 -0.16239361643E-01 -0.11932209406E-01 -0.12751166835E-01  0.10200828462E+01  0.10198040628E+01 0.  0.
     999903    2    3    3    0    0 -0.56392296138E-01  0.81412682168E-01  0.80724043298E-01  0.12931736539E+00  0.19962313056E-01 0.  0.
         14    1    1    2    0    0  0.16239361643E-01  0.11932209406E-01  0.12751166835E-01  0.23847153783E-01  0.00000000000E+00 0. -1.
     999901    1    3    3    0    0  0.40152934495E-01 -0.93344891574E-01 -0.93475210133E-01  0.89076548083E+00  0.88000000000E+00 0.  1.
        -11    1    4    4    0    0 -0.19987403574E-01  0.44882807799E-01  0.34267482320E-01  0.59903958159E-01  0.51100000000E-03 0. -1.
         11    1    4    4    0    0 -0.36404892563E-01  0.36529874369E-01  0.46456560978E-01  0.69413407227E-01  0.51100000000E-03 0.  1.
</event>
<event>
 8    1  0.1086486E+005  0.1043930E+01  0.7957747E-01            NaN
         13   -1    0    0    0    0  0.00000000000E+00  0.00000000000E+00  0.74505805969E-08  0.10566000000E+00  0.10566000000E+00 0. -1.
     999900   -1    0    0    0    0 -0.00000000000E+00 -0.00000000000E+00 -0.74505805969E-08  0.93827000000E+00  0.93827000000E+00 0.  1.
     999902    2    1    2    0    0  0.13154027686E-01 -0.17956769272E-01  0.88856616168E-02  0.10199627517E+01  0.10196811197E+01 0.  0.
     999903    2    3    3    0    0 -0.47404011150E-01  0.11476182825E+00 -0.21928980221E-01  0.12742085112E+00  0.18378673253E-01 0.  0.
         14    1    1    2    0    0 -0.13154027686E-01  0.17956769272E-01 -0.88856616168E-02  0.23967248265E-01  0.00000000000E+00 0. -1.
     999901    1    3    3    0    0  0.60558038836E-01 -0.13271859752E+00  0.30814641838E-01  0.89254190061E+00  0.88000000000E+00 0. -1.
        -11    1    4    4    0    0 -0.57558958792E-02  0.27397468300E-01  0.76516184726E-03  0.28010680111E-01  0.51100000000E-03 0. -1.
         11    1    4    4    0    0 -0.41648115271E-01  0.87364359951E-01 -0.22694142068E-01  0.99410171012E-01  0.51100000000E-03 0.  1.
</event>
<event>
 8    1  0.1086486E+005  0.1043930E+01  0.7957747E-01            NaN
         13   -1    0    0    0    0  0.00000000000E+00  0.00000000000E+00  0.74505805969E-08  0.10566000000E+00  0.10566000000E+00 0. -1.
     999900   -1    0    0    0    0 -0.00000000000E+00 -0.00000000000E+00 -0.74505805969E-08  0.93827000000E+00  0.93827000000E+00 0.  1.
     999902    2    1    2    0    0  0.22994292096E-01 -0.29209706363E-02 -0.47733899272E-02  0.10202645232E+01  0.10199900208E+01 0.  0.
     999903    2    3    3    0    0  0.22228762789E-03 -0.12438153324E+00  0.34545182986E-01  0.13076062633E+00  0.20836422612E-01 0.  0.
         14    1    1    2    0    0 -0.22994292096E-01  0.29209706363E-02  0.47733899272E-02  0.23665476751E-01  0.00000000000E+00 0. -1.
     999901    1    3    3    0    0  0.22772004468E-01  0.12146056261E+00 -0.39318572913E-01  0.88950389692E+00  0.88000000000E+00 0.  1.
        -11    1    4    4    0    0 -0.80539433325E-02 -0.76114897815E-01  0.27244522728E-01  0.81245731040E-01  0.51100000000E-03 0. -1.
         11    1    4    4    0    0  0.82762309604E-02 -0.48266635428E-01  0.73006602584E-02  0.49514895291E-01  0.51100000000E-03 0.  1.
</event>
<event>
 8    1  0.1086486E+005  0.1043930E+01  0.7957747E-01            NaN
         13   -1    0    0    0    0  0.00000000000E+00  0.00000000000E+00  0.74505805969E-08  0.10566000000E+00  0.10566000000E+00 0.  1.
     999900   -1    0    0    0    0 -0.00000000000E+00 -0.00000000000E+00 -0.74505805969E-08  0.93827000000E+00  0.93827000000E+00 0. -1.
     999902    2    1    2    0    0 -0.10088481492E-01 -0.20008359138E-01  0.73400676935E-02  0.10203505919E+01  0.10200781058E+01 0.  0.
     999903    2    3    3    0    0  0.75443297339E-01  0.10124598526E+00 -0.27594736698E-02  0.12787073105E+00  0.20021701232E-01 0.  0.
         14    1    1    2    0    0  0.10088481492E-01  0.20008359138E-01 -0.73400676935E-02  0.23579408134E-01  0.00000000000E+00 0. -1.
     999901    1    3    3    0    0 -0.85531778831E-01 -0.12125434440E+00  0.10099541363E-01  0.89247986082E+00  0.88000000000E+00 0.  1.
        -11    1    4    4    0    0  0.23574170286E-01  0.46833405498E-01 -0.49131347451E-02  0.52664118612E-01  0.51100000000E-03 0.  1.
         11    1    4    4    0    0  0.51869127053E-01  0.54412579761E-01  0.21536610753E-02  0.75206612439E-01  0.51100000000E-03 0. -1.
</event>
<event>
 8    1  0.1086486E+005  0.1043930E+01  0.7957747E-01            NaN
         13   -1    0    0    0    0  0.00000000000E+00  0.00000000000E+00  0.74505805969E-08  0.10566000000E+00  0.10566000000E+00 0.  1.
     999900   -1    0    0    0    0 -0.00000000000E+00 -0.00000000000E+00 -0.74505805969E-08  0.93827000000E+00  0.93827000000E+00 0.  1.
     999902    2    1    2    0    0 -0.65052542259E-02 -0.27529505912E-02  0.14000740843E-01  0.10282482331E+01  0.10281286452E+01 0.  0.
     999903    2    3    3    0    0 -0.94963213107E-01  0.71506607603E-01  0.69111966700E-01  0.13899206094E+00  0.20276150756E-01 0.  0.
         14    1    1    2    0    0  0.65052542259E-02  0.27529505912E-02 -0.14000740843E-01  0.15681766918E-01  0.00000000000E+00 0. -1.
     999901    1    3    3    0    0  0.88457958882E-01 -0.74259558194E-01 -0.55111225856E-01  0.88925617214E+00  0.88000000000E+00 0. -1.
        -11    1    4    4    0    0 -0.76024910198E-01  0.47727149464E-01  0.46450965108E-01  0.10107235550E+00  0.51100000000E-03 0.  1.
         11    1    4    4    0    0 -0.18938302910E-01  0.23779458138E-01  0.22661001592E-01  0.37919705439E-01  0.51100000000E-03 0. -1.
</event>
<event>
 8    1  0.1086486E+005  0.1043930E+01  0.7957747E-01            NaN
         13   -1    0    0    0    0  0.00000000000E+00  0.00000000000E+00  0.74505805969E-08  0.10566000000E+00  0.10566000000E+00 0. -1.
     999900   -1    0    0    0    0 -0.00000000000E+00 -0.00000000000E+00 -0.74505805969E-08  0.93827000000E+00  0.93827000000E+00 0. -1.
     999902    2    1    2    0    0  0.41751469104E-02 -0.12020973438E-01  0.24188356385E-01  0.10165984754E+01  0.10162310012E+01 0.  0.
     999903    2    3    3    0    0  0.93007670030E-01 -0.15341911553E-01 -0.80965463925E-01  0.12589113189E+00  0.20183404225E-01 0.  0.
         14    1    1    2    0    0 -0.41751469104E-02  0.12020973438E-01 -0.24188356385E-01  0.27331524633E-01  0.00000000000E+00 0.  1.
     999901    1    3    3    0    0 -0.88832523119E-01  0.33209381155E-02  0.10515382031E+00  0.89070734347E+00  0.88000000000E+00 0.  1.
        -11    1    4    4    0    0  0.65074963176E-01 -0.17384788221E-01 -0.48451703947E-01  0.82974757789E-01  0.51100000000E-03 0. -1.
         11    1    4    4    0    0  0.27932706854E-01  0.20428766673E-02 -0.32513759979E-01  0.42916374104E-01  0.51100000000E-03 0.  1.
</event>
<event>
 8    1  0.1086486E+005  0.1043930E+01  0.7957747E-01            NaN
         13   -1    0    0    0    0  0.00000000000E+00  0.00000000000E+00  0.74505805969E-08  0.10566000000E+00  0.10566000000E+00 0.  1.
     999900   -1    0    0    0    0 -0.00000000000E+00 -0.00000000000E+00 -0.74505805969E-08  0.93827000000E+00  0.93827000000E+00 0. -1.
     999902    2    1    2    0    0  0.17677669678E-01 -0.86555742371E-02 -0.12010384770E-01  0.10208720662E+01  0.10206116339E+01 0.  0.
     999903    2    3    3    0    0  0.91701900437E-01 -0.26741421433E-02  0.92248717804E-01  0.13161095448E+00  0.19880337624E-01 0.  0.
         14    1    1    2    0    0 -0.17677669678E-01  0.86555742371E-02  0.12010384770E-01  0.23057933839E-01  0.00000000000E+00 0.  1.
     999901    1    3    3    0    0 -0.74024230759E-01 -0.59814320938E-02 -0.10425910257E+00  0.88926111168E+00  0.88000000000E+00 0. -1.
        -11    1    4    4    0    0  0.48481681128E-01  0.60747829578E-02  0.39328709614E-01  0.62724675478E-01  0.51100000000E-03 0.  1.
         11    1    4    4    0    0  0.43220219309E-01 -0.87489251011E-02  0.52920008190E-01  0.68886279006E-01  0.51100000000E-03 0. -1.
</event>
<event>
 8    1  0.1086486E+005  0.1043930E+01  0.7957747E-01            NaN
         13   -1    0    0    0    0  0.00000000000E+00  0.00000000000E+00  0.74505805969E-08  0.10566000000E+00  0.10566000000E+00 0. -1.
     999900   -1    0    0    0    0 -0.00000000000E+00 -0.00000000000E+00 -0.74505805969E-08  0.93827000000E+00  0.93827000000E+00 0. -1.
     999902    2    1    2    0    0 -0.84983537844E-03 -0.21646371566E-01 -0.97961105866E-02  0.10201549836E+01  0.10198779040E+01 0.  0.
     999903    2    3    3    0    0 -0.26477085452E-01  0.55540325762E-01 -0.11320418074E+00  0.13037536416E+00  0.19919467983E-01 0.  0.
         14    1    1    2    0    0  0.84983537844E-03  0.21646371566E-01  0.97961105866E-02  0.23775016399E-01  0.00000000000E+00 0.  1.
     999901    1    3    3    0    0  0.25627250073E-01 -0.77186697329E-01  0.10340807015E+00  0.88977961944E+00  0.88000000000E+00 0.  1.
        -11    1    4    4    0    0 -0.19081604103E-01  0.31954468045E-01 -0.48700944241E-01  0.61296319091E-01  0.51100000000E-03 0.  1.
         11    1    4    4    0    0 -0.73954813480E-02  0.23585857717E-01 -0.64503236498E-01  0.69079045074E-01  0.51100000000E-03 0. -1.
</event>
<event>
 8    1  0.1086486E+005  0.1043930E+01  0.7957747E-01            NaN
         13   -1    0    0    0    0  0.00000000000E+00  0.00000000000E+00  0.74505805969E-08  0.10566000000E+00  0.10566000000E+00 0.  1.
     999900   -1    0    0    0    0 -0.00000000000E+00 -0.00000000000E+00 -0.74505805969E-08  0.93827000000E+00  0.93827000000E+00 0. -1.
     999902    2    1    2    0    0  0.14904289415E-01 -0.18464838465E-01 -0.19554163457E-02  0.10201200912E+01  0.10198421882E+01 0.  0.
     999903    2    3    3    0    0 -0.73971204281E-01  0.27165033071E-01 -0.10031579922E+00  0.12902205876E+00  0.19332718116E-01 0.  0.
         14    1    1    2    0    0 -0.14904289415E-01  0.18464838465E-01  0.19554163457E-02  0.23809908770E-01  0.00000000000E+00 0. -1.
     999901    1    3    3    0    0  0.88875493696E-01 -0.45629871536E-01  0.98360382870E-01  0.89109803247E+00  0.88000000000E+00 0.  1.
        -11    1    4    4    0    0 -0.55178130170E-01  0.11817540824E-01 -0.76075566357E-01  0.94720817341E-01  0.51100000000E-03 0. -1.
         11    1    4    4    0    0 -0.18793074111E-01  0.15347492247E-01 -0.24240232858E-01  0.34301241418E-01  0.51100000000E-03 0.  1.
</event>
<event>
 8    1  0.1086486E+005  0.1043930E+01  0.7957747E-01            NaN
         13   -1    0    0    0    0  0.00000000000E+00  0.00000000000E+00  0.74505805969E-08  0.10566000000E+00  0.10566000000E+00 0.  1.
     999900   -1    0    0    0    0 -0.00000000000E+00 -0.00000000000E+00 -0.74505805969E-08  0.93827000000E+00  0.93827000000E+00 0.  1.
     999902    2    1    2    0    0 -0.81716023633E-02 -0.69258154434E-02 -0.21792123395E-01  0.10196475239E+01  0.10193583444E+01 0.  0.
     999903    2    3    3    0    0 -0.47182053488E-01  0.65345080499E-01 -0.10266110813E+00  0.13213150126E+00  0.20574372068E-01 0.  0.
         14    1    1    2    0    0  0.81716023633E-02  0.69258154434E-02  0.21792123395E-01  0.24282476126E-01  0.00000000000E+00 0.  1.
     999901    1    3    3    0    0  0.39010451124E-01 -0.72270895942E-01  0.80868984739E-01  0.88751602261E+00  0.88000000000E+00 0. -1.
        -11    1    4    4    0    0 -0.15085705393E-02  0.53707157987E-02 -0.17606204891E-01  0.18475928797E-01  0.51100000000E-03 0.  1.
         11    1    4    4    0    0 -0.45673482948E-01  0.59974364700E-01 -0.85054903244E-01  0.11365557247E+00  0.51100000000E-03 0. -1.
</event>
