<event>
 8    1  0.1138737E+005  0.1043930E+01  0.7957747E-01            NaN
         13   -1    0    0    0    0  0.00000000000E+00  0.00000000000E+00  0.74505805969E-08  0.10566000000E+00  0.10566000000E+00 0. -1.
     999900   -1    0    0    0    0 -0.00000000000E+00 -0.00000000000E+00 -0.74505805969E-08  0.93827000000E+00  0.93827000000E+00 0. -1.
     999902    2    1    2    0    0  0.10288836568E-01 -0.11378358692E-01  0.17668608353E-01  0.10205311341E+01  0.10202628528E+01 0.  0.
     999903    2    3    3    0    0 -0.12687916525E-01 -0.24622542198E-01  0.12887827034E+00  0.13313554672E+00  0.18660450776E-01 0.  0.
         14    1    1    2    0    0 -0.10288836568E-01  0.11378358692E-01 -0.17668608353E-01  0.23398865903E-01  0.00000000000E+00 0. -1.
     999901    1    3    3    0    0  0.22976753093E-01  0.13244183507E-01 -0.11120966199E+00  0.88739558738E+00  0.88000000000E+00 0. -1.
        -11    1    4    4    0    0 -0.15504818134E-01 -0.16974644671E-01  0.11259574389E+00  0.11491997481E+00  0.51100000000E-03 0.  1.
         11    1    4    4    0    0  0.28169016087E-02 -0.76478975271E-02  0.16282526456E-01  0.18215571911E-01  0.51100000000E-03 0. -1.
</event>
<event>
 8    1  0.1138737E+005  0.1043930E+01  0.7957747E-01            NaN
         13   -1    0    0    0    0  0.00000000000E+00  0.00000000000E+00  0.74505805969E-08  0.10566000000E+00  0.10566000000E+00 0. -1.
     999900   -1    0    0    0    0 -0.00000000000E+00 -0.00000000000E+00 -0.74505805969E-08  0.93827000000E+00  0.93827000000E+00 0.  1.
     999902    2    1    2    0    0 -0.20044850485E-01  0.11665976894E-01  0.45616266540E-02  0.10202931752E+01  0.10200193449E+01 0.  0.
     999903    2    3    3    0    0  0.12235009612E+00 -0.18097261289E-01 -0.25260430311E-01  0.12785184592E+00  0.20271859304E-01 0.  0.
         14    1    1    2    0    0  0.20044850485E-01 -0.11665976894E-01 -0.45616266540E-02  0.23636824778E-01  0.00000000000E+00 0. -1.
     999901    1    3    3    0    0 -0.14239494660E+00  0.29763238183E-01  0.29822056965E-01  0.89244132930E+00  0.88000000000E+00 0. -1.
        -11    1    4    4    0    0  0.75011318026E-01 -0.20849859254E-01 -0.13887215237E-01  0.79085588642E-01  0.51100000000E-03 0. -1.
         11    1    4    4    0    0  0.47338778092E-01  0.27525979653E-02 -0.11373215074E-01  0.48766257278E-01  0.51100000000E-03 0.  1.
</event>
<event>
 8    1  0.1138737E+005  0.1043930E+01  0.7957747E-01            NaN
         13   -1    0    0    0    0  0.00000000000E+00  0.00000000000E+00  0.74505805969E-08  0.10566000000E+00  0.10566000000E+00 0. -1.
     999900   -1    0    0    0    0 -0.00000000000E+00 -0.00000000000E+00 -0.74505805969E-08  0.93827000000E+00  0.93827000000E+00 0. -1.
     999902    2    1    2    0    0 -0.14620622110E-01  0.20880522809E-02  0.19227213292E-01  0.10196852421E+01  0.10193969711E+01 0.  0.
     999903    2    3    3    0    0 -0.21399823073E-01  0.12710346053E+00 -0.47223845529E-02  0.13050112559E+00  0.19874625972E-01 0.  0.
         14    1    1    2    0    0  0.14620622110E-01 -0.20880522809E-02 -0.19227213292E-01  0.24244757871E-01  0.00000000000E+00 0.  1.
     999901    1    3    3    0    0  0.67792009625E-02 -0.12501540825E+00  0.23949597845E-01  0.88918411654E+00  0.88000000000E+00 0. -1.
        -11    1    4    4    0    0 -0.12796384188E-01  0.36755057202E-01 -0.77751230732E-02  0.39691250144E-01  0.51100000000E-03 0.  1.
         11    1    4    4    0    0 -0.86034388849E-02  0.90348403332E-01  0.30527385203E-02  0.90809875447E-01  0.51100000000E-03 0. -1.
</event>
<event>
 8    1  0.1138737E+005  0.1043930E+01  0.7957747E-01            NaN
         13   -1    0    0    0    0  0.00000000000E+00  0.00000000000E+00  0.74505805969E-08  0.10566000000E+00  0.10566000000E+00 0.  1.
     999900   -1    0    0    0    0 -0.00000000000E+00 -0.00000000000E+00 -0.74505805969E-08  0.93827000000E+00  0.93827000000E+00 0.  1.
     999902    2    1    2    0    0 -0.15540252347E-01 -0.17497542492E-01 -0.47483197682E-02  0.10200509301E+01  0.10197713911E+01 0.  0.
     999903    2    3    3    0    0 -0.22563200219E-01 -0.86755785832E-01  0.94447161524E-01  0.13174593209E+00  0.20026480549E-01 0.  0.
         14    1    1    2    0    0  0.15540252347E-01  0.17497542492E-01  0.47483197682E-02  0.23879069850E-01  0.00000000000E+00 0. -1.
     999901    1    3    3    0    0  0.70229478720E-02  0.69258243340E-01 -0.99195481292E-01  0.88830499806E+00  0.88000000000E+00 0. -1.
        -11    1    4    4    0    0  0.30961056912E-02 -0.10280321422E-01  0.15605084350E-01  0.18948632077E-01  0.51100000000E-03 0. -1.
         11    1    4    4    0    0 -0.25659305910E-01 -0.76475464410E-01  0.78842077173E-01  0.11279730001E+00  0.51100000000E-03 0.  1.
</event>
<event>
 8    1  0.1138737E+005  0.1043930E+01  0.7957747E-01            NaN
         13   -1    0    0    0    0  0.00000000000E+00  0.00000000000E+00  0.74505805969E-08  0.10566000000E+00  0.10566000000E+00 0. -1.
     999900   -1    0    0    0    0 -0.00000000000E+00 -0.00000000000E+00 -0.74505805969E-08  0.93827000000E+00  0.93827000000E+00 0. -1.
     999902    2    1    2    0    0 -0.15902089544E-01 -0.17830063775E-01 -0.23303738360E-02  0.10199254532E+01  0.10196429335E+01 0.  0.
     999903    2    3    3    0    0 -0.61250497309E-01  0.52430925049E-02 -0.11438007661E+00  0.13136257722E+00  0.19854755829E-01 0.  0.
         14    1    1    2    0    0  0.15902089544E-01  0.17830063775E-01  0.23303738360E-02  0.24004546825E-01  0.00000000000E+00 0. -1.
     999901    1    3    3    0    0  0.45348407765E-01 -0.23073156280E-01  0.11204970278E+00  0.88856287595E+00  0.88000000000E+00 0.  1.
        -11    1    4    4    0    0 -0.33138933226E-01 -0.67288573824E-02 -0.54616781605E-01  0.64239554567E-01  0.51100000000E-03 0.  1.
         11    1    4    4    0    0 -0.28111564083E-01  0.11971949887E-01 -0.59763295008E-01  0.67123022656E-01  0.51100000000E-03 0. -1.
</event>
<event>
 8    1  0.1138737E+005  0.1043930E+01  0.7957747E-01            NaN
         13   -1    0    0    0    0  0.00000000000E+00  0.00000000000E+00  0.74505805969E-08  0.10566000000E+00  0.10566000000E+00 0. -1.
     999900   -1    0    0    0    0 -0.00000000000E+00 -0.00000000000E+00 -0.74505805969E-08  0.93827000000E+00  0.93827000000E+00 0. -1.
     999902    2    1    2    0    0 -0.23372258804E-01 -0.70444529901E-02  0.69847168219E-02  0.10185395871E+01  0.10182230686E+01 0.  0.
     999903    2    3    3    0    0 -0.10907250815E+00 -0.59970811655E-01  0.39895026607E-01  0.13218253674E+00  0.19679928526E-01 0.  0.
         14    1    1    2    0    0  0.23372258804E-01  0.70444529901E-02 -0.69847168219E-02  0.25390412927E-01  0.00000000000E+00 0.  1.
     999901    1    3    3    0    0  0.85700249348E-01  0.52926358665E-01 -0.32910309785E-01  0.88635705033E+00  0.88000000000E+00 0.  1.
        -11    1    4    4    0    0 -0.92290026741E-01 -0.54547482865E-01  0.40308023646E-01  0.11453329129E+00  0.51100000000E-03 0. -1.
         11    1    4    4    0    0 -0.16782481411E-01 -0.54233287906E-02 -0.41299703913E-03  0.17649245452E-01  0.51100000000E-03 0.  1.
</event>
<event>
 8    1  0.1303564E+005  0.1043930E+01  0.7957747E-01            NaN
         13   -1    0    0    0    0  0.00000000000E+00  0.00000000000E+00  0.74505805969E-08  0.10566000000E+00  0.10566000000E+00 0. -1.
     999900   -1    0    0    0    0 -0.00000000000E+00 -0.00000000000E+00 -0.74505805969E-08  0.93827000000E+00  0.93827000000E+00 0.  1.
     999902    2    1    2    0    0 -0.18028446836E-01 -0.15245684899E-01 -0.42734620722E-02  0.10199358699E+01  0.10196535982E+01 0.  0.
     999903    2    3    3    0    0  0.34791367727E-03 -0.13021677770E+00 -0.11248209528E-01  0.13223958739E+00  0.20106118903E-01 0.  0.
         14    1    1    2    0    0  0.18028446836E-01  0.15245684899E-01  0.42734620722E-02  0.23994130146E-01  0.00000000000E+00 0.  1.
     999901    1    3    3    0    0 -0.18376360514E-01  0.11497109280E+00  0.69747474555E-02  0.88769628247E+00  0.88000000000E+00 0.  1.
        -11    1    4    4    0    0 -0.90174089605E-02 -0.84161012475E-01 -0.45830239926E-02  0.84768242373E-01  0.51100000000E-03 0.  1.
         11    1    4    4    0    0  0.93653226377E-02 -0.46055765221E-01 -0.66651855350E-02  0.47471345014E-01  0.51100000000E-03 0. -1.
</event>
<event>
 8    1  0.1138737E+005  0.1043930E+01  0.7957747E-01            NaN
         13   -1    0    0    0    0  0.00000000000E+00  0.00000000000E+00  0.74505805969E-08  0.10566000000E+00  0.10566000000E+00 0. -1.
     999900   -1    0    0    0    0 -0.00000000000E+00 -0.00000000000E+00 -0.74505805969E-08  0.93827000000E+00  0.93827000000E+00 0.  1.
     999902    2    1    2    0    0 -0.30827873065E-02  0.19842300431E-01 -0.12780668777E-01  0.10201273540E+01  0.10198496224E+01 0.  0.
     999903    2    3    3    0    0 -0.11533737078E+00 -0.30651952620E-01  0.45780442735E-01  0.12963301660E+00  0.21601360073E-01 0.  0.
         14    1    1    2    0    0  0.30827873065E-02 -0.19842300431E-01  0.12780668777E-01  0.23802646037E-01  0.00000000000E+00 0. -1.
     999901    1    3    3    0    0  0.11225458347E+00  0.50494253051E-01 -0.58561111512E-01  0.89049433737E+00  0.88000000000E+00 0. -1.
        -11    1    4    4    0    0 -0.91052324346E-01 -0.19772042542E-01  0.26835086661E-01  0.96963098302E-01  0.51100000000E-03 0.  1.
         11    1    4    4    0    0 -0.24285046433E-01 -0.10879910078E-01  0.18945356074E-01  0.32669918294E-01  0.51100000000E-03 0. -1.
</event>
<event>
 8    1  0.1138737E+005  0.1043930E+01  0.7957747E-01            NaN
         13   -1    0    0    0    0  0.00000000000E+00  0.00000000000E+00  0.74505805969E-08  0.10566000000E+00  0.10566000000E+00 0. -1.
     999900   -1    0    0    0    0 -0.00000000000E+00 -0.00000000000E+00 -0.74505805969E-08  0.93827000000E+00  0.93827000000E+00 0.  1.
     999902    2    1    2    0    0 -0.12559050281E-01 -0.42660244474E-02  0.19397559911E-01  0.10204311907E+01  0.10201605858E+01 0.  0.
     999903    2    3    3    0    0 -0.66019320217E-01  0.54157368949E-01  0.10038079186E+00  0.13317160229E+00  0.19152050206E-01 0.  0.
         14    1    1    2    0    0  0.12559050281E-01  0.42660244474E-02 -0.19397559911E-01  0.23498809311E-01  0.00000000000E+00 0.  1.
     999901    1    3    3    0    0  0.53460269937E-01 -0.58423393396E-01 -0.80983231951E-01  0.88725958840E+00  0.88000000000E+00 0. -1.
        -11    1    4    4    0    0 -0.24618384114E-01  0.27727715679E-01  0.54752565139E-01  0.66128628925E-01  0.51100000000E-03 0.  1.
         11    1    4    4    0    0 -0.41400936103E-01  0.26429653269E-01  0.45628226723E-01  0.67042973361E-01  0.51100000000E-03 0. -1.
</event>
<event>
 8    1  0.1138737E+005  0.1043930E+01  0.7957747E-01            NaN
         13   -1    0    0    0    0  0.00000000000E+00  0.00000000000E+00  0.74505805969E-08  0.10566000000E+00  0.10566000000E+00 0. -1.
     999900   -1    0    0    0    0 -0.00000000000E+00 -0.00000000000E+00 -0.74505805969E-08  0.93827000000E+00  0.93827000000E+00 0. -1.
     999902    2    1    2    0    0  0.17821982493E-01  0.14457972375E-01  0.48115113850E-02  0.10204820434E+01  0.10202126221E+01 0.  0.
     999903    2    3    3    0    0  0.46463637357E-01  0.91735839768E-01 -0.81090961838E-01  0.13246658857E+00  0.19932864832E-01 0.  0.
         14    1    1    2    0    0 -0.17821982493E-01 -0.14457972375E-01 -0.48115113850E-02  0.23447956563E-01  0.00000000000E+00 0.  1.
     999901    1    3    3    0    0 -0.28641654864E-01 -0.77277867394E-01  0.85902473223E-01  0.88801545487E+00  0.88000000000E+00 0.  1.
        -11    1    4    4    0    0  0.24142530417E-01  0.62132521443E-01 -0.60673070136E-01  0.90137642284E-01  0.51100000000E-03 0.  1.
         11    1    4    4    0    0  0.22321106940E-01  0.29603318326E-01 -0.20417891702E-01  0.42328946283E-01  0.51100000000E-03 0. -1.
</event>
<event>
 8    1  0.1138737E+005  0.1043930E+01  0.7957747E-01            NaN
         13   -1    0    0    0    0  0.00000000000E+00  0.00000000000E+00  0.74505805969E-08  0.10566000000E+00  0.10566000000E+00 0.  1.
     999900   -1    0    0    0    0 -0.00000000000E+00 -0.00000000000E+00 -0.74505805969E-08  0.93827000000E+00  0.93827000000E+00 0.  1.
     999902    2    1    2    0    0 -0.15696839896E-01 -0.15040689272E-01  0.13299571288E-02  0.10221496900E+01  0.10219176126E+01 0.  0.
     999903    2    3    3    0    0 -0.57612804515E-01  0.27790200695E-01 -0.11444522220E+00  0.13254566274E+00  0.19470832735E-01 0.  0.
         14    1    1    2    0    0  0.15696839896E-01  0.15040689272E-01 -0.13299571288E-02  0.21780309972E-01  0.00000000000E+00 0. -1.
     999901    1    3    3    0    0  0.41915964619E-01 -0.42830889968E-01  0.11577517933E+00  0.88960402729E+00  0.88000000000E+00 0. -1.
        -11    1    4    4    0    0 -0.25536828601E-01  0.14482182383E-01 -0.34001057543E-01  0.44924339245E-01  0.51100000000E-03 0. -1.
         11    1    4    4    0    0 -0.32075975914E-01  0.13308018312E-01 -0.80444164655E-01  0.87621323491E-01  0.51100000000E-03 0.  1.
</event>
<event>
 8    1  0.1138737E+005  0.1043930E+01  0.7957747E-01            NaN
         13   -1    0    0    0    0  0.00000000000E+00  0.00000000000E+00  0.74505805969E-08  0.10566000000E+00  0.10566000000E+00 0.  1.
     999900   -1    0    0    0    0 -0.00000000000E+00 -0.00000000000E+00 -0.74505805969E-08  0.93827000000E+00  0.93827000000E+00 0.  1.
     999902    2    1    2    0    0 -0.66679805910E-02 -0.33240794617E-02  0.22503933410E-01  0.10202247582E+01  0.10199493217E+01 0.  0.
     999903    2    3    3    0    0 -0.12343318991E-01  0.75912402066E-01  0.10622688303E+00  0.13268875231E+00  0.20176818408E-01 0.  0.
         14    1    1    2    0    0  0.66679805910E-02  0.33240794617E-02 -0.22503933410E-01  0.23705241790E-01  0.00000000000E+00 0. -1.
     999901    1    3    3    0    0  0.56753383999E-02 -0.79236481528E-01 -0.83722949619E-01  0.88753600590E+00  0.88000000000E+00 0.  1.
        -11    1    4    4    0    0 -0.47219741325E-02  0.39883288025E-02  0.37161682768E-02  0.72301337475E-02  0.51100000000E-03 0. -1.
         11    1    4    4    0    0 -0.76213448583E-02  0.71924073264E-01  0.10251071475E+00  0.12545861857E+00  0.51100000000E-03 0.  1.
</event>
<event>
 8    1  0.1138737E+005  0.1043930E+01  0.7957747E-01            NaN
         13   -1    0    0    0    0  0.00000000000E+00  0.00000000000E+00  0.74505805969E-08  0.10566000000E+00  0.10566000000E+00 0.  1.
     999900   -1    0    0    0    0 -0.00000000000E+00 -0.00000000000E+00 -0.74505805969E-08  0.93827000000E+00  0.93827000000E+00 0. -1.
     999902    2    1    2    0    0 -0.56797877705E-02  0.17625655344E-01  0.15598385125E-01  0.10197177441E+01  0.10194302548E+01 0.  0.
     999903    2    3    3    0    0  0.66077545375E-01 -0.10658004278E+00 -0.11648307774E-01  0.12768716586E+00  0.21042379376E-01 0.  0.
         14    1    1    2    0    0  0.56797877705E-02 -0.17625655344E-01 -0.15598385125E-01  0.24212255862E-01  0.00000000000E+00 0. -1.
     999901    1    3    3    0    0 -0.71757333146E-01  0.12420569812E+00  0.27246692899E-01  0.89203057828E+00  0.88000000000E+00 0.  1.
        -11    1    4    4    0    0  0.10983236507E-01 -0.33365392048E-01  0.12577935428E-02  0.35152866686E-01  0.51100000000E-03 0. -1.
         11    1    4    4    0    0  0.55094308869E-01 -0.73214650733E-01 -0.12906101317E-01  0.92534299176E-01  0.51100000000E-03 0.  1.
</event>
<event>
 8    1  0.1138737E+005  0.1043930E+01  0.7957747E-01            NaN
         13   -1    0    0    0    0  0.00000000000E+00  0.00000000000E+00  0.74505805969E-08  0.10566000000E+00  0.10566000000E+00 0.  1.
     999900   -1    0    0    0    0 -0.00000000000E+00 -0.00000000000E+00 -0.74505805969E-08  0.93827000000E+00  0.93827000000E+00 0.  1.
     999902    2    1    2    0    0  0.55860959569E-02 -0.18163028992E-01  0.12373756788E-01  0.10212538022E+01  0.10210020169E+01 0.  0.
     999903    2    3    3    0    0 -0.71912321049E-01  0.36611821478E-01  0.10195959706E+00  0.13162921189E+00  0.20461734993E-01 0.  0.
         14    1    1    2    0    0 -0.55860959569E-02  0.18163028992E-01 -0.12373756788E-01  0.22676197813E-01  0.00000000000E+00 0.  1.
     999901    1    3    3    0    0  0.77498417006E-01 -0.54774850470E-01 -0.89585840276E-01  0.88962459030E+00  0.88000000000E+00 0.  1.
        -11    1    4    4    0    0 -0.52663942435E-01  0.34879267555E-01  0.70100763137E-01  0.94363299282E-01  0.51100000000E-03 0.  1.
         11    1    4    4    0    0 -0.19248378614E-01  0.17325539223E-02  0.31858833927E-01  0.37265912608E-01  0.51100000000E-03 0. -1.
</event>
<event>
 8    1  0.1138737E+005  0.1043930E+01  0.7957747E-01            NaN
         13   -1    0    0    0    0  0.00000000000E+00  0.00000000000E+00  0.74505805969E-08  0.10566000000E+00  0.10566000000E+00 0.  1.
     999900   -1    0    0    0    0 -0.00000000000E+00 -0.00000000000E+00 -0.74505805969E-08  0.93827000000E+00  0.93827000000E+00 0.  1.
     999902    2    1    2    0    0 -0.71034738527E-02  0.89786288217E-02 -0.20283073481E-01  0.10206388389E+01  0.10203730500E+01 0.  0.
     999903    2    3    3    0    0  0.27763405388E-01  0.43254345881E-01  0.11636071140E+00  0.12875204787E+00  0.19887924882E-01 0.  0.
         14    1    1    2    0    0  0.71034738527E-02 -0.89786288217E-02  0.20283073481E-01  0.23291161116E-01  0.00000000000E+00 0.  1.
     999901    1    3    3    0    0 -0.34866879241E-01 -0.34275717059E-01 -0.13664378488E+00  0.89188679102E+00  0.88000000000E+00 0.  1.
        -11    1    4    4    0    0  0.11219748170E-01  0.12554425615E-01  0.61317224573E-01  0.63588988841E-01  0.51100000000E-03 0. -1.
         11    1    4    4    0    0  0.16543657219E-01  0.30699920266E-01  0.55043486825E-01  0.65163059024E-01  0.51100000000E-03 0.  1.
</event>
<event>
 8    1  0.1138737E+005  0.1043930E+01  0.7957747E-01            NaN
         13   -1    0    0    0    0  0.00000000000E+00  0.00000000000E+00  0.74505805969E-08  0.10566000000E+00  0.10566000000E+00 0. -1.
     999900   -1    0    0    0    0 -0.00000000000E+00 -0.00000000000E+00 -0.74505805969E-08  0.93827000000E+00  0.93827000000E+00 0.  1.
     999902    2    1    2    0    0  0.13339414008E-01 -0.14175274239E-01  0.10838897911E-01  0.10216508601E+01  0.10214079106E+01 0.  0.
     999903    2    3    3    0    0 -0.11147597153E+00  0.50231876417E-01 -0.36464844670E-01  0.12925811834E+00  0.20684356981E-01 0.  0.
         14    1    1    2    0    0 -0.13339414008E-01  0.14175274239E-01 -0.10838897911E-01  0.22279139880E-01  0.00000000000E+00 0.  1.
     999901    1    3    3    0    0  0.12481538553E+00 -0.64407150656E-01  0.47303742581E-01  0.89239274178E+00  0.88000000000E+00 0. -1.
        -11    1    4    4    0    0 -0.88162399195E-01  0.44473017132E-01 -0.21826110630E-01  0.10112911604E+00  0.51100000000E-03 0. -1.
         11    1    4    4    0    0 -0.23313572331E-01  0.57588592851E-02 -0.14638734040E-01  0.28129002300E-01  0.51100000000E-03 0.  1.
</event>
<event>
 8    1  0.1138737E+005  0.1043930E+01  0.7957747E-01            NaN
         13   -1    0    0    0    0  0.00000000000E+00  0.00000000000E+00  0.74505805969E-08  0.10566000000E+00  0.10566000000E+00 0.  1.
     999900   -1    0    0    0    0 -0.00000000000E+00 -0.00000000000E+00 -0.74505805969E-08  0.93827000000E+00  0.93827000000E+00 0. -1.
     999902    2    1    2    0    0 -0.55281220129E-03  0.11188543505E-01 -0.20768995362E-01  0.10203325367E+01  0.10200596282E+01 0.  0.
     999903    2    3    3    0    0 -0.33199872464E-01 -0.36714341957E-01 -0.12132949866E+00  0.13271047081E+00  0.21001128091E-01 0.  0.
         14    1    1    2    0    0  0.55281220129E-03 -0.11188543505E-01  0.20768995362E-01  0.23597463326E-01  0.00000000000E+00 0.  1.
     999901    1    3    3    0    0  0.32647060263E-01  0.47902885462E-01  0.10056050330E+00  0.88762206586E+00  0.88000000000E+00 0.  1.
        -11    1    4    4    0    0 -0.32592719151E-01 -0.31527025052E-01 -0.88274944691E-01  0.99241954997E-01  0.51100000000E-03 0.  1.
         11    1    4    4    0    0 -0.60715331333E-03 -0.51873169050E-02 -0.33054553970E-01  0.33468515816E-01  0.51100000000E-03 0. -1.
</event>
<event>
 8    1  0.1138737E+005  0.1043930E+01  0.7957747E-01            NaN
         13   -1    0    0    0    0  0.00000000000E+00  0.00000000000E+00  0.74505805969E-08  0.10566000000E+00  0.10566000000E+00 0.  1.
     999900   -1    0    0    0    0 -0.00000000000E+00 -0.00000000000E+00 -0.74505805969E-08  0.93827000000E+00  0.93827000000E+00 0. -1.
     999902    2    1    2    0    0 -0.12162233790E-01  0.15944290703E-01  0.13017257729E-01  0.10200220654E+01  0.10197418421E+01 0.  0.
     999903    2    3    3    0    0  0.67791924366E-01 -0.10452749065E+00 -0.18787251427E-01  0.12765574809E+00  0.20525298853E-01 0.  0.
         14    1    1    2    0    0  0.12162233790E-01 -0.15944290703E-01 -0.13017257729E-01  0.23907934574E-01  0.00000000000E+00 0. -1.
     999901    1    3    3    0    0 -0.79954158157E-01  0.12047178136E+00  0.31804509155E-01  0.89236631733E+00  0.88000000000E+00 0.  1.
        -11    1    4    4    0    0  0.34089644593E-01 -0.66388851296E-01 -0.17906897553E-01  0.76749602903E-01  0.51100000000E-03 0.  1.
         11    1    4    4    0    0  0.33702279774E-01 -0.38138639359E-01 -0.88035387383E-03  0.50906145189E-01  0.51100000000E-03 0. -1.
</event>
<event>
 8    1  0.1138737E+005  0.1043930E+01  0.7957747E-01            NaN
         13   -1    0    0    0    0  0.00000000000E+00  0.00000000000E+00  0.74505805969E-08  0.10566000000E+00  0.10566000000E+00 0.  1.
     999900   -1    0    0    0    0 -0.00000000000E+00 -0.00000000000E+00 -0.74505805969E-08  0.93827000000E+00  0.93827000000E+00 0. -1.
     999902    2    1    2    0    0  0.16127817993E-01 -0.33416272269E-02  0.17128961481E-01  0.10201671233E+01  0.10198903300E+01 0.  0.
     999903    2    3    3    0    0  0.11834808178E+00 -0.26294080737E-01 -0.47278255952E-01  0.13161544386E+00  0.19741946041E-01 0.  0.
         14    1    1    2    0    0 -0.16127817993E-01  0.33416272269E-02 -0.17128961481E-01  0.23762876659E-01  0.00000000000E+00 0. -1.
     999901    1    3    3    0    0 -0.10222026379E+00  0.22952453510E-01  0.64407217433E-01  0.88855167948E+00  0.88000000000E+00 0. -1.
        -11    1    4    4    0    0  0.10055140027E+00 -0.14914067196E-01 -0.37744032147E-01  0.10843378893E+00  0.51100000000E-03 0. -1.
         11    1    4    4    0    0  0.17796681507E-01 -0.11380013541E-01 -0.95342238048E-02  0.23181654933E-01  0.51100000000E-03 0.  1.
</event>
<event>
 8    1  0.1138737E+005  0.1043930E+01  0.7957747E-01            NaN
         13   -1    0    0    0    0  0.00000000000E+00  0.00000000000E+00  0.74505805969E-08  0.10566000000E+00  0.10566000000E+00 0. -1.
     999900   -1    0    0    0    0 -0.00000000000E+00 -0.00000000000E+00 -0.74505805969E-08  0.93827000000E+00  0.93827000000E+00 0.  1.
     999902    2    1    2    0    0 -0.22643836761E-01 -0.16291052265E-02  0.47242303185E-02  0.10207413028E+01  0.10204778741E+01 0.  0.
     999903    2    3    3    0    0 -0.90106995260E-01 -0.95109273102E-01 -0.12134006626E-01  0.13306229564E+00  0.19831691316E-01 0.  0.
         14    1    1    2    0    0  0.22643836761E-01  0.16291052265E-02 -0.47242303185E-02  0.23188697229E-01  0.00000000000E+00 0.  1.
     999901    1    3    3    0    0  0.67463158499E-01  0.93480167875E-01  0.16858236945E-01  0.88767900713E+00  0.88000000000E+00 0. -1.
        -11    1    4    4    0    0 -0.74202683055E-01 -0.66352956390E-01 -0.11333714766E-01  0.10018716088E+00  0.51100000000E-03 0. -1.
         11    1    4    4    0    0 -0.15904312206E-01 -0.28756316711E-01 -0.80029186013E-03  0.32875134762E-01  0.51100000000E-03 0.  1.
</event>
<event>
 7    1  0.1138737E+005  0.1043930E+01  0.7957747E-01            NaN
         13   -1    0    0    0    0  0.00000000000E+00  0.00000000000E+00  0.74505805969E-08  0.10566000000E+00  0.10566000000E+00 0. -1.
     999900   -1    0    0    0    0 -0.00000000000E+00 -0.00000000000E+00 -0.74505805969E-08  0.93827000000E+00  0.93827000000E+00 0.  1.
     999903    2    1    2    0    0 -0.90170005622E-01 -0.27981042296E-01  0.65701459120E-03  0.96622117561E-01  0.20538580572E-01 0.  0.
         14    1    1    2    0    0  0.45349162928E-01  0.11429437296E-01  0.44904090371E-01  0.64834835908E-01  0.00000000000E+00 0. -1.
     999901    1    1    2    0    0  0.44820842694E-01  0.16551605000E-01 -0.45561104962E-01  0.88247304653E+00  0.88000000000E+00 0.  1.
        -11    1    3    3    0    0 -0.48474955712E-01 -0.17362924105E-01 -0.96172553371E-02  0.52383634715E-01  0.51100000000E-03 0. -1.
         11    1    3    3    0    0 -0.41695049911E-01 -0.10618118191E-01  0.10274269928E-01  0.44238482846E-01  0.51100000000E-03 0.  1.
</event>
<event>
 8    1  0.1138737E+005  0.1043930E+01  0.7957747E-01            NaN
         13   -1    0    0    0    0  0.00000000000E+00  0.00000000000E+00  0.74505805969E-08  0.10566000000E+00  0.10566000000E+00 0. -1.
     999900   -1    0    0    0    0 -0.00000000000E+00 -0.00000000000E+00 -0.74505805969E-08  0.93827000000E+00  0.93827000000E+00 0. -1.
     999902    2    1    2    0    0  0.11950873400E-01 -0.14722371334E-01 -0.11043969103E-01  0.10219859610E+01  0.10217503431E+01 0.  0.
     999903    2    3    3    0    0  0.43191622967E-01 -0.11565538439E+00  0.46221018539E-01  0.13381776954E+00  0.23002796724E-01 0.  0.
         14    1    1    2    0    0 -0.11950873400E-01  0.14722371334E-01  0.11043969103E-01  0.21944038969E-01  0.00000000000E+00 0.  1.
     999901    1    3    3    0    0 -0.31240749567E-01  0.10093301306E+00 -0.57264987642E-01  0.88816819149E+00  0.88000000000E+00 0.  1.
        -11    1    4    4    0    0  0.13721025688E-01 -0.64447995975E-01  0.30897209448E-01  0.72778495477E-01  0.51100000000E-03 0. -1.
         11    1    4    4    0    0  0.29470597279E-01 -0.51207388419E-01  0.15323809091E-01  0.61039274068E-01  0.51100000000E-03 0.  1.
</event>
<event>
 8    1  0.1188479E+005  0.1043930E+01  0.7957747E-01            NaN
         13   -1    0    0    0    0  0.00000000000E+00  0.00000000000E+00  0.74505805969E-08  0.10566000000E+00  0.10566000000E+00 0.  1.
     999900   -1    0    0    0    0 -0.00000000000E+00 -0.00000000000E+00 -0.74505805969E-08  0.93827000000E+00  0.93827000000E+00 0. -1.
     999902    2    1    2    0    0  0.13749643470E-01 -0.19227944808E-01  0.42737008199E-02  0.10199085289E+01  0.10196256059E+01 0.  0.
     999903    2    3    3    0    0 -0.49357002109E-01 -0.58992999948E-02 -0.11756288298E+00  0.12917610291E+00  0.19862495065E-01 0.  0.
         14    1    1    2    0    0 -0.13749643470E-01  0.19227944808E-01 -0.42737008199E-02  0.24021471141E-01  0.00000000000E+00 0. -1.
     999901    1    3    3    0    0  0.63106645579E-01 -0.13328644813E-01  0.12183658380E+00  0.89073242595E+00  0.88000000000E+00 0.  1.
        -11    1    4    4    0    0 -0.38854147657E-01  0.31332576770E-02 -0.76926652767E-01  0.86240553806E-01  0.51100000000E-03 0.  1.
         11    1    4    4    0    0 -0.10502854452E-01 -0.90325576718E-02 -0.40636230213E-01  0.42935549102E-01  0.51100000000E-03 0. -1.
</event>
<event>
 8    1  0.1138737E+005  0.1043930E+01  0.7957747E-01            NaN
         13   -1    0    0    0    0  0.00000000000E+00  0.00000000000E+00  0.74505805969E-08  0.10566000000E+00  0.10566000000E+00 0.  1.
     999900   -1    0    0    0    0 -0.00000000000E+00 -0.00000000000E+00 -0.74505805969E-08  0.93827000000E+00  0.93827000000E+00 0. -1.
     999902    2    1    2    0    0 -0.45587274327E-02  0.14258947381E-01  0.18560834793E-01  0.10200845777E+01  0.10198058352E+01 0.  0.
     999903    2    3    3    0    0 -0.66466239288E-01 -0.28668618029E-01  0.10925246453E+00  0.13222181376E+00  0.17517317238E-01 0.  0.
         14    1    1    2    0    0  0.45587274327E-02 -0.14258947381E-01 -0.18560834793E-01  0.23845422295E-01  0.00000000000E+00 0. -1.
     999901    1    3    3    0    0  0.61907511855E-01  0.42927565410E-01 -0.90691629736E-01  0.88786276395E+00  0.88000000000E+00 0.  1.
        -11    1    4    4    0    0 -0.18239991754E-01 -0.67288805885E-02  0.16974817960E-01  0.25814350639E-01  0.51100000000E-03 0.  1.
         11    1    4    4    0    0 -0.48226247534E-01 -0.21939737440E-01  0.92277646570E-01  0.10640746312E+00  0.51100000000E-03 0. -1.
</event>
<event>
 8    1  0.1138737E+005  0.1043930E+01  0.7957747E-01            NaN
         13   -1    0    0    0    0  0.00000000000E+00  0.00000000000E+00  0.74505805969E-08  0.10566000000E+00  0.10566000000E+00 0.  1.
     999900   -1    0    0    0    0 -0.00000000000E+00 -0.00000000000E+00 -0.74505805969E-08  0.93827000000E+00  0.93827000000E+00 0.  1.
     999902    2    1    2    0    0 -0.20909242214E-01  0.88451028427E-02  0.58983673698E-02  0.10204731675E+01  0.10202035398E+01 0.  0.
     999903    2    3    3    0    0 -0.10585602265E+00 -0.67979030196E-01 -0.34276322272E-01  0.13214219953E+00  0.21448742413E-01 0.  0.
         14    1    1    2    0    0  0.20909242214E-01 -0.88451028427E-02 -0.58983673698E-02  0.23456832521E-01  0.00000000000E+00 0.  1.
     999901    1    3    3    0    0  0.84946780437E-01  0.76824133039E-01  0.40174689642E-01  0.88833096795E+00  0.88000000000E+00 0. -1.
        -11    1    4    4    0    0 -0.60356024530E-01 -0.27073715035E-01 -0.22182519284E-01  0.69772208118E-01  0.51100000000E-03 0.  1.
         11    1    4    4    0    0 -0.45499998121E-01 -0.40905315161E-01 -0.12093802988E-01  0.62369991415E-01  0.51100000000E-03 0. -1.
</event>
<event>
 8    1  0.1138737E+005  0.1043930E+01  0.7957747E-01            NaN
         13   -1    0    0    0    0  0.00000000000E+00  0.00000000000E+00  0.74505805969E-08  0.10566000000E+00  0.10566000000E+00 0. -1.
     999900   -1    0    0    0    0 -0.00000000000E+00 -0.00000000000E+00 -0.74505805969E-08  0.93827000000E+00  0.93827000000E+00 0. -1.
     999902    2    1    2    0    0 -0.19519315107E-01 -0.32692981720E-02  0.13279199527E-01  0.10200966387E+01  0.10198181814E+01 0.  0.
     999903    2    3    3    0    0 -0.93402384603E-01  0.74826589923E-01  0.53589322325E-01  0.13263814290E+00  0.19950876556E-01 0.  0.
         14    1    1    2    0    0  0.19519315107E-01  0.32692981720E-02 -0.13279199527E-01  0.23833361342E-01  0.00000000000E+00 0.  1.
     999901    1    3    3    0    0  0.73883069496E-01 -0.78095888095E-01 -0.40310122798E-01  0.88745849576E+00  0.88000000000E+00 0. -1.
        -11    1    4    4    0    0 -0.32820559712E-01  0.34508812510E-01  0.29303164411E-01  0.55919440682E-01  0.51100000000E-03 0.  1.
         11    1    4    4    0    0 -0.60581824891E-01  0.40317777413E-01  0.24286157914E-01  0.76718702217E-01  0.51100000000E-03 0. -1.
</event>
<event>
 8    1  0.1138737E+005  0.1043930E+01  0.7957747E-01            NaN
         13   -1    0    0    0    0  0.00000000000E+00  0.00000000000E+00  0.74505805969E-08  0.10566000000E+00  0.10566000000E+00 0.  1.
     999900   -1    0    0    0    0 -0.00000000000E+00 -0.00000000000E+00 -0.74505805969E-08  0.93827000000E+00  0.93827000000E+00 0. -1.
     999902    2    1    2    0    0  0.18841560214E-02  0.22859779812E-01 -0.58081676265E-02  0.10202687577E+01  0.10199943546E+01 0.  0.
     999903    2    3    3    0    0 -0.17824718769E-01 -0.11995781533E+00  0.34446712083E-01  0.12762898679E+00  0.19874210366E-01 0.  0.
         14    1    1    2    0    0 -0.18841560214E-02 -0.22859779812E-01  0.58081676265E-02  0.23661242320E-01  0.00000000000E+00 0.  1.
     999901    1    3    3    0    0  0.19708874791E-01  0.14281759515E+00 -0.40254879710E-01  0.89263977089E+00  0.88000000000E+00 0. -1.
        -11    1    4    4    0    0 -0.12297444960E-01 -0.44369556664E-01  0.49917327294E-02  0.46314827299E-01  0.51100000000E-03 0.  1.
         11    1    4    4    0    0 -0.55272738090E-02 -0.75588258670E-01  0.29454979354E-01  0.81314159494E-01  0.51100000000E-03 0. -1.
</event>
<event>
 8    1  0.1138737E+005  0.1043930E+01  0.7957747E-01            NaN
         13   -1    0    0    0    0  0.00000000000E+00  0.00000000000E+00  0.74505805969E-08  0.10566000000E+00  0.10566000000E+00 0. -1.
     999900   -1    0    0    0    0 -0.00000000000E+00 -0.00000000000E+00 -0.74505805969E-08  0.93827000000E+00  0.93827000000E+00 0.  1.
     999902    2    1    2    0    0 -0.15151700572E-01  0.11186445997E-01 -0.14739466557E-01  0.10200142629E+01  0.10197338546E+01 0.  0.
     999903    2    3    3    0    0  0.16138797402E-01 -0.12368394570E+00  0.22755636180E-01  0.12840055705E+00  0.20265854723E-01 0.  0.
         14    1    1    2    0    0  0.15151700572E-01 -0.11186445997E-01  0.14739466557E-01  0.23915737050E-01  0.00000000000E+00 0. -1.
     999901    1    3    3    0    0 -0.31290497974E-01  0.13487039169E+00 -0.37495102737E-01  0.89161370590E+00  0.88000000000E+00 0.  1.
        -11    1    4    4    0    0  0.19067323354E-01 -0.85680216894E-01  0.10742407146E-01  0.88432589124E-01  0.51100000000E-03 0. -1.
         11    1    4    4    0    0 -0.29285259522E-02 -0.38003728804E-01  0.12013229034E-01  0.39967967926E-01  0.51100000000E-03 0.  1.
</event>
<event>
 8    1  0.1138737E+005  0.1043930E+01  0.7957747E-01            NaN
         13   -1    0    0    0    0  0.00000000000E+00  0.00000000000E+00  0.74505805969E-08  0.10566000000E+00  0.10566000000E+00 0.  1.
     999900   -1    0    0    0    0 -0.00000000000E+00 -0.00000000000E+00 -0.74505805969E-08  0.93827000000E+00  0.93827000000E+00 0. -1.
     999902    2    1    2    0    0 -0.13807584617E-01  0.14976924640E-01 -0.89248070367E-02  0.10216901743E+01  0.10214480909E+01 0.  0.
     999903    2    3    3    0    0  0.16047380245E-01 -0.61623030666E-01  0.11220472613E+00  0.12959643718E+00  0.12264568622E-01 0.  0.
         14    1    1    2    0    0  0.13807584617E-01 -0.14976924640E-01  0.89248070367E-02  0.22239825657E-01  0.00000000000E+00 0. -1.
     999901    1    3    3    0    0 -0.29854964862E-01  0.76599955305E-01 -0.12112953316E+00  0.89209373716E+00  0.88000000000E+00 0. -1.
        -11    1    4    4    0    0  0.64598854688E-02 -0.32915738012E-01  0.47400000758E-01  0.58070621849E-01  0.51100000000E-03 0.  1.
         11    1    4    4    0    0  0.95874947763E-02 -0.28707292654E-01  0.64804725369E-01  0.71525815331E-01  0.51100000000E-03 0. -1.
</event>
<event>
 8    1  0.1138737E+005  0.1043930E+01  0.7957747E-01            NaN
         13   -1    0    0    0    0  0.00000000000E+00  0.00000000000E+00  0.74505805969E-08  0.10566000000E+00  0.10566000000E+00 0.  1.
     999900   -1    0    0    0    0 -0.00000000000E+00 -0.00000000000E+00 -0.74505805969E-08  0.93827000000E+00  0.93827000000E+00 0. -1.
     999902    2    1    2    0    0  0.21997543256E-02  0.34228398503E-02  0.23858364955E-01  0.10197271834E+01  0.10194399209E+01 0.  0.
     999903    2    3    3    0    0  0.20617063479E-01 -0.89997006161E-01 -0.85893406172E-01  0.12781243628E+00  0.20828279351E-01 0.  0.
         14    1    1    2    0    0 -0.21997543256E-02 -0.34228398503E-02 -0.23858364955E-01  0.24202816573E-01  0.00000000000E+00 0. -1.
     999901    1    3    3    0    0 -0.18417309154E-01  0.93419846011E-01  0.10975177113E+00  0.89191474714E+00  0.88000000000E+00 0.  1.
        -11    1    4    4    0    0 -0.21270510271E-02 -0.35067257683E-01 -0.34092298700E-01  0.48956949038E-01  0.51100000000E-03 0.  1.
         11    1    4    4    0    0  0.22744114506E-01 -0.54929748478E-01 -0.51801107472E-01  0.78855487247E-01  0.51100000000E-03 0. -1.
</event>
<event>
 8    1  0.1138737E+005  0.1043930E+01  0.7957747E-01            NaN
         13   -1    0    0    0    0  0.00000000000E+00  0.00000000000E+00  0.74505805969E-08  0.10566000000E+00  0.10566000000E+00 0.  1.
     999900   -1    0    0    0    0 -0.00000000000E+00 -0.00000000000E+00 -0.74505805969E-08  0.93827000000E+00  0.93827000000E+00 0. -1.
     999902    2    1    2    0    0  0.18660890747E-01 -0.10994310232E-01  0.12605572638E-01  0.10188699888E+01  0.10185617556E+01 0.  0.
     999903    2    3    3    0    0  0.76950345062E-01  0.93260174628E-01  0.44087649796E-01  0.13024308210E+00  0.20018086628E-01 0.  0.
         14    1    1    2    0    0 -0.18660890747E-01  0.10994310232E-01 -0.12605572638E-01  0.25060011222E-01  0.00000000000E+00 0.  1.
     999901    1    3    3    0    0 -0.58289454315E-01 -0.10425448486E+00 -0.31482077158E-01  0.88862690668E+00  0.88000000000E+00 0. -1.
        -11    1    4    4    0    0  0.65422035050E-01  0.86949297403E-01  0.43149488513E-01  0.11705709064E+00  0.51100000000E-03 0.  1.
         11    1    4    4    0    0  0.11528310012E-01  0.63108772253E-02  0.93816128312E-03  0.13185991456E-01  0.51100000000E-03 0. -1.
</event>
<event>
 8    1  0.1138737E+005  0.1043930E+01  0.7957747E-01            NaN
         13   -1    0    0    0    0  0.00000000000E+00  0.00000000000E+00  0.74505805969E-08  0.10566000000E+00  0.10566000000E+00 0. -1.
     999900   -1    0    0    0    0 -0.00000000000E+00 -0.00000000000E+00 -0.74505805969E-08  0.93827000000E+00  0.93827000000E+00 0.  1.
     999902    2    1    2    0    0 -0.14765882078E-01  0.68556155730E-02 -0.17746295413E-01  0.10198476052E+01  0.10195632281E+01 0.  0.
     999903    2    3    3    0    0  0.11531298933E+00 -0.20306551439E-01 -0.50500240568E-01  0.12926851437E+00  0.21228117414E-01 0.  0.
         14    1    1    2    0    0  0.14765882078E-01 -0.68556155730E-02  0.17746295413E-01  0.24082394800E-01  0.00000000000E+00 0.  1.
     999901    1    3    3    0    0 -0.13007887141E+00  0.27162167012E-01  0.32753945155E-01  0.89057909083E+00  0.88000000000E+00 0.  1.
        -11    1    4    4    0    0  0.77818702782E-01 -0.22467929090E-01 -0.29280126631E-01  0.86128655375E-01  0.51100000000E-03 0.  1.
         11    1    4    4    0    0  0.37494286552E-01  0.21613776506E-02 -0.21220113937E-01  0.43139858992E-01  0.51100000000E-03 0. -1.
</event>
<event>
 8    1  0.1138737E+005  0.1043930E+01  0.7957747E-01            NaN
         13   -1    0    0    0    0  0.00000000000E+00  0.00000000000E+00  0.74505805969E-08  0.10566000000E+00  0.10566000000E+00 0.  1.
     999900   -1    0    0    0    0 -0.00000000000E+00 -0.00000000000E+00 -0.74505805969E-08  0.93827000000E+00  0.93827000000E+00 0. -1.
     999902    2    1    2    0    0 -0.15202980955E-01  0.11086246850E-01 -0.13614123199E-01  0.10207054473E+01  0.10204411939E+01 0.  0.
     999903    2    3    3    0    0 -0.98396331631E-01  0.87516961343E-01 -0.77038666020E-02  0.13346381228E+00  0.20302291197E-01 0.  0.
         14    1    1    2    0    0  0.15202980955E-01 -0.11086246850E-01  0.13614123199E-01  0.23224552732E-01  0.00000000000E+00 0.  1.
     999901    1    3    3    0    0  0.83193350676E-01 -0.76430714493E-01 -0.59102565974E-02  0.88724163498E+00  0.88000000000E+00 0. -1.
        -11    1    4    4    0    0 -0.16764714774E-01  0.21005161982E-01  0.51972126927E-02  0.27377812771E-01  0.51100000000E-03 0. -1.
         11    1    4    4    0    0 -0.81631616857E-01  0.66511799361E-01 -0.12901079295E-01  0.10608599951E+00  0.51100000000E-03 0.  1.
</event>
<event>
 8    1  0.1138737E+005  0.1043930E+01  0.7957747E-01            NaN
         13   -1    0    0    0    0  0.00000000000E+00  0.00000000000E+00  0.74505805969E-08  0.10566000000E+00  0.10566000000E+00 0.  1.
     999900   -1    0    0    0    0 -0.00000000000E+00 -0.00000000000E+00 -0.74505805969E-08  0.93827000000E+00  0.93827000000E+00 0.  1.
     999902    2    1    2    0    0  0.35230320553E-02 -0.11580686119E-01  0.20995225256E-01  0.10196952413E+01  0.10194072109E+01 0.  0.
     999903    2    3    3    0    0  0.62882342513E-01  0.10273316078E+00  0.45172984992E-01  0.12998981398E+00  0.18667132637E-01 0.  0.
         14    1    1    2    0    0 -0.35230320553E-02  0.11580686119E-01 -0.20995225256E-01  0.24234758703E-01  0.00000000000E+00 0. -1.
     999901    1    3    3    0    0 -0.59359310458E-01 -0.11431384690E+00 -0.24177759736E-01  0.88970542732E+00  0.88000000000E+00 0.  1.
        -11    1    4    4    0    0  0.29769827436E-01  0.41024828992E-01  0.27886373509E-01  0.57854906170E-01  0.51100000000E-03 0. -1.
         11    1    4    4    0    0  0.33112515077E-01  0.61708331791E-01  0.17286611483E-01  0.72134907810E-01  0.51100000000E-03 0.  1.
</event>
<event>
 8    1  0.1138737E+005  0.1043930E+01  0.7957747E-01            NaN
         13   -1    0    0    0    0  0.00000000000E+00  0.00000000000E+00  0.74505805969E-08  0.10566000000E+00  0.10566000000E+00 0. -1.
     999900   -1    0    0    0    0 -0.00000000000E+00 -0.00000000000E+00 -0.74505805969E-08  0.93827000000E+00  0.93827000000E+00 0. -1.
     999902    2    1    2    0    0  0.16120934172E-01  0.17553315335E-01 -0.21280280792E-02  0.10200023611E+01  0.10197216703E+01 0.  0.
     999903    2    3    3    0    0  0.10217257131E+00  0.41667001152E-01  0.70907538895E-01  0.13246613758E+00  0.18547916813E-01 0.  0.
         14    1    1    2    0    0 -0.16120934172E-01 -0.17553315335E-01  0.21280280792E-02  0.23927638859E-01  0.00000000000E+00 0.  1.
     999901    1    3    3    0    0 -0.86051637142E-01 -0.24113685817E-01 -0.73035566974E-01  0.88753622357E+00  0.88000000000E+00 0. -1.
        -11    1    4    4    0    0  0.33015553877E-01  0.20111185431E-01  0.17346394720E-01  0.42375052897E-01  0.51100000000E-03 0. -1.
         11    1    4    4    0    0  0.69157017438E-01  0.21555815721E-01  0.53561144175E-01  0.90091084679E-01  0.51100000000E-03 0.  1.
</event>
<event>
 8    1  0.1138737E+005  0.1043930E+01  0.7957747E-01            NaN
         13   -1    0    0    0    0  0.00000000000E+00  0.00000000000E+00  0.74505805969E-08  0.10566000000E+00  0.10566000000E+00 0.  1.
     999900   -1    0    0    0    0 -0.00000000000E+00 -0.00000000000E+00 -0.74505805969E-08  0.93827000000E+00  0.93827000000E+00 0.  1.
     999902    2    1    2    0    0  0.19430091489E-01  0.46696306308E-03  0.13136208218E-01  0.10204713880E+01  0.10202017189E+01 0.  0.
     999903    2    3    3    0    0  0.73944934281E-01 -0.39155363323E-01 -0.98869741835E-01  0.13081576381E+00  0.18345092764E-01 0.  0.
         14    1    1    2    0    0 -0.19430091489E-01 -0.46696306308E-03 -0.13136208218E-01  0.23458611982E-01  0.00000000000E+00 0.  1.
     999901    1    3    3    0    0 -0.54514842792E-01  0.39622326386E-01  0.11200595005E+00  0.88965562421E+00  0.88000000000E+00 0. -1.
        -11    1    4    4    0    0  0.46642108029E-01 -0.34357089950E-01 -0.66553638786E-01  0.88235728749E-01  0.51100000000E-03 0.  1.
         11    1    4    4    0    0  0.27302826252E-01 -0.47982733728E-02 -0.32316103049E-01  0.42580035063E-01  0.51100000000E-03 0. -1.
</event>
<event>
 8    1  0.1138737E+005  0.1043930E+01  0.7957747E-01            NaN
         13   -1    0    0    0    0  0.00000000000E+00  0.00000000000E+00  0.74505805969E-08  0.10566000000E+00  0.10566000000E+00 0.  1.
     999900   -1    0    0    0    0 -0.00000000000E+00 -0.00000000000E+00 -0.74505805969E-08  0.93827000000E+00  0.93827000000E+00 0.  1.
     999902    2    1    2    0    0 -0.17650516052E-01  0.11234684034E-01  0.12097074463E-01  0.10197618794E+01  0.10194754498E+01 0.  0.
     999903    2    3    3    0    0  0.11051869646E+00 -0.56804781531E-01 -0.19182839564E-01  0.12732972573E+00  0.20092591862E-01 0.  0.
         14    1    1    2    0    0  0.17650516052E-01 -0.11234684034E-01 -0.12097074463E-01  0.24168120589E-01  0.00000000000E+00 0.  1.
     999901    1    3    3    0    0 -0.12816921251E+00  0.68039465566E-01  0.31279914027E-01  0.89243215369E+00  0.88000000000E+00 0. -1.
        -11    1    4    4    0    0  0.42199344717E-01 -0.26603535458E-01 -0.16632541838E-01  0.52587406880E-01  0.51100000000E-03 0. -1.
         11    1    4    4    0    0  0.68319351742E-01 -0.30201246073E-01 -0.25502977258E-02  0.74742318845E-01  0.51100000000E-03 0.  1.
</event>
<event>
 8    1  0.1138737E+005  0.1043930E+01  0.7957747E-01            NaN
         13   -1    0    0    0    0  0.00000000000E+00  0.00000000000E+00  0.74505805969E-08  0.10566000000E+00  0.10566000000E+00 0.  1.
     999900   -1    0    0    0    0 -0.00000000000E+00 -0.00000000000E+00 -0.74505805969E-08  0.93827000000E+00  0.93827000000E+00 0. -1.
     999902    2    1    2    0    0 -0.47250396889E-02 -0.21819794366E-01  0.79816336209E-02  0.10202205947E+01  0.10199450602E+01 0.  0.
     999903    2    3    3    0    0  0.53963354379E-01  0.77349757259E-01  0.86038542265E-01  0.12928187143E+00  0.20399582383E-01 0.  0.
         14    1    1    2    0    0  0.47250396889E-02  0.21819794366E-01 -0.79816336209E-02  0.23709405338E-01  0.00000000000E+00 0. -1.
     999901    1    3    3    0    0 -0.58688394068E-01 -0.99169551625E-01 -0.78056908644E-01  0.89093872323E+00  0.88000000000E+00 0. -1.
        -11    1    4    4    0    0  0.27686396269E-01  0.46861615790E-01  0.61548767492E-01  0.82164831124E-01  0.51100000000E-03 0. -1.
         11    1    4    4    0    0  0.26276958110E-01  0.30488141469E-01  0.24489774773E-01  0.47117040306E-01  0.51100000000E-03 0.  1.
</event>
<event>
 8    1  0.1560074E+005  0.1043930E+01  0.7957747E-01            NaN
         13   -1    0    0    0    0  0.00000000000E+00  0.00000000000E+00  0.74505805969E-08  0.10566000000E+00  0.10566000000E+00 0.  1.
     999900   -1    0    0    0    0 -0.00000000000E+00 -0.00000000000E+00 -0.74505805969E-08  0.93827000000E+00  0.93827000000E+00 0. -1.
     999902    2    1    2    0    0  0.18631737527E-01 -0.43534955354E-02  0.13485409527E-01  0.10205216503E+01  0.10202531489E+01 0.  0.
     999903    2    3    3    0    0 -0.13194032888E-01 -0.12777283351E+00 -0.18317592806E-01  0.13077076177E+00  0.16293509100E-01 0.  0.
         14    1    1    2    0    0 -0.18631737527E-01  0.43534955354E-02 -0.13485409527E-01  0.23408349723E-01  0.00000000000E+00 0. -1.
     999901    1    3    3    0    0  0.31825770415E-01  0.12341933798E+00  0.31803002333E-01  0.88975088851E+00  0.88000000000E+00 0. -1.
        -11    1    4    4    0    0  0.14722036446E-02 -0.61603745566E-01 -0.64119233460E-02  0.61956135558E-01  0.51100000000E-03 0.  1.
         11    1    4    4    0    0 -0.14666236533E-01 -0.66169087947E-01 -0.11905669460E-01  0.68814626208E-01  0.51100000000E-03 0. -1.
</event>
<event>
 8    1  0.1138737E+005  0.1043930E+01  0.7957747E-01            NaN
         13   -1    0    0    0    0  0.00000000000E+00  0.00000000000E+00  0.74505805969E-08  0.10566000000E+00  0.10566000000E+00 0.  1.
     999900   -1    0    0    0    0 -0.00000000000E+00 -0.00000000000E+00 -0.74505805969E-08  0.93827000000E+00  0.93827000000E+00 0.  1.
     999902    2    1    2    0    0  0.12546371410E-01 -0.40564833829E-03 -0.22055007607E-01  0.10185528578E+01  0.10182366742E+01 0.  0.
     999903    2    3    3    0    0 -0.66677032996E-01 -0.83536322283E-01  0.65197324305E-01  0.12681297073E+00  0.20166669993E-01 0.  0.
         14    1    1    2    0    0 -0.12546371410E-01  0.40564833829E-03  0.22055007607E-01  0.25377142208E-01  0.00000000000E+00 0.  1.
     999901    1    3    3    0    0  0.79223404405E-01  0.83130673945E-01 -0.87252331912E-01  0.89173988706E+00  0.88000000000E+00 0. -1.
        -11    1    4    4    0    0 -0.29508257638E-01 -0.51538630144E-01  0.30761639906E-01  0.66884282733E-01  0.51100000000E-03 0.  1.
         11    1    4    4    0    0 -0.37168775358E-01 -0.31997692140E-01  0.34435684399E-01  0.59928687996E-01  0.51100000000E-03 0. -1.
</event>
<event>
 8    1  0.1138737E+005  0.1043930E+01  0.7957747E-01            NaN
         13   -1    0    0    0    0  0.00000000000E+00  0.00000000000E+00  0.74505805969E-08  0.10566000000E+00  0.10566000000E+00 0.  1.
     999900   -1    0    0    0    0 -0.00000000000E+00 -0.00000000000E+00 -0.74505805969E-08  0.93827000000E+00  0.93827000000E+00 0.  1.
     999902    2    1    2    0    0 -0.13660581664E-01  0.56600626569E-02 -0.14609104294E-01  0.10231436167E+01  0.10229324449E+01 0.  0.
     999903    2    3    3    0    0  0.10304728282E+00  0.15732901758E-01 -0.80020473390E-01  0.13297462440E+00  0.20315212958E-01 0.  0.
         14    1    1    2    0    0  0.13660581664E-01 -0.56600626569E-02  0.14609104294E-01  0.20786383259E-01  0.00000000000E+00 0.  1.
     999901    1    3    3    0    0 -0.11670786449E+00 -0.10072839101E-01  0.65411369095E-01  0.89016899234E+00  0.88000000000E+00 0.  1.
        -11    1    4    4    0    0  0.32499125810E-01 -0.29736976787E-02 -0.18496773385E-01  0.37515700753E-01  0.51100000000E-03 0. -1.
         11    1    4    4    0    0  0.70548157014E-01  0.18706599436E-01 -0.61523700004E-01  0.95458923646E-01  0.51100000000E-03 0.  1.
</event>
<event>
 8    1  0.1138737E+005  0.1043930E+01  0.7957747E-01            NaN
         13   -1    0    0    0    0  0.00000000000E+00  0.00000000000E+00  0.74505805969E-08  0.10566000000E+00  0.10566000000E+00 0.  1.
     999900   -1    0    0    0    0 -0.00000000000E+00 -0.00000000000E+00 -0.74505805969E-08  0.93827000000E+00  0.93827000000E+00 0.  1.
     999902    2    1    2    0    0 -0.19790023070E-01  0.79246353374E-02  0.11983551073E-01  0.10194749319E+01  0.10191815768E+01 0.  0.
     999903    2    3    3    0    0  0.59724101305E-01 -0.47164221690E-01  0.10286637141E+00  0.12952158192E+00  0.20072810754E-01 0.  0.
         14    1    1    2    0    0  0.19790023070E-01 -0.79246353374E-02 -0.11983551073E-01  0.24455068077E-01  0.00000000000E+00 0. -1.
     999901    1    3    3    0    0 -0.79514124375E-01  0.55088857027E-01 -0.90882820341E-01  0.88995335000E+00  0.88000000000E+00 0.  1.
        -11    1    4    4    0    0  0.15389228002E-01 -0.14844638418E-01  0.44742220529E-01  0.49591521928E-01  0.51100000000E-03 0. -1.
         11    1    4    4    0    0  0.44334873303E-01 -0.32319583271E-01  0.58124150885E-01  0.79930059994E-01  0.51100000000E-03 0.  1.
</event>
<event>
 8    1  0.1138737E+005  0.1043930E+01  0.7957747E-01            NaN
         13   -1    0    0    0    0  0.00000000000E+00  0.00000000000E+00  0.74505805969E-08  0.10566000000E+00  0.10566000000E+00 0.  1.
     999900   -1    0    0    0    0 -0.00000000000E+00 -0.00000000000E+00 -0.74505805969E-08  0.93827000000E+00  0.93827000000E+00 0.  1.
     999902    2    1    2    0    0 -0.92923297915E-02  0.10113092294E-01 -0.18689634330E-01  0.10207368014E+01  0.10204732693E+01 0.  0.
     999903    2    3    3    0    0 -0.14367579473E-01  0.11939886358E+00 -0.54086368668E-01  0.13325605979E+00  0.19217862302E-01 0.  0.
         14    1    1    2    0    0  0.92923297915E-02 -0.10113092294E-01  0.18689634330E-01  0.23193198574E-01  0.00000000000E+00 0.  1.
     999901    1    3    3    0    0  0.50752496817E-02 -0.10928577129E+00  0.35396734337E-01  0.88748074163E+00  0.88000000000E+00 0. -1.
        -11    1    4    4    0    0 -0.47193608477E-03  0.60240878991E-01 -0.19442209480E-01  0.63304398391E-01  0.51100000000E-03 0.  1.
         11    1    4    4    0    0 -0.13895643388E-01  0.59157984592E-01 -0.34644159188E-01  0.69951661403E-01  0.51100000000E-03 0. -1.
</event>
<event>
 8    1  0.1138737E+005  0.1043930E+01  0.7957747E-01            NaN
         13   -1    0    0    0    0  0.00000000000E+00  0.00000000000E+00  0.74505805969E-08  0.10566000000E+00  0.10566000000E+00 0.  1.
     999900   -1    0    0    0    0 -0.00000000000E+00 -0.00000000000E+00 -0.74505805969E-08  0.93827000000E+00  0.93827000000E+00 0. -1.
     999902    2    1    2    0    0  0.10009560125E-01  0.11100384846E-01  0.18164518748E-01  0.10204064038E+01  0.10201352211E+01 0.  0.
     999903    2    3    3    0    0 -0.10062466573E-01 -0.83829379242E-01 -0.94051902962E-01  0.12798998099E+00  0.20175646849E-01 0.  0.
         14    1    1    2    0    0 -0.10009560125E-01 -0.11100384846E-01 -0.18164518748E-01  0.23523596217E-01  0.00000000000E+00 0. -1.
     999901    1    3    3    0    0  0.20072026698E-01  0.94929764089E-01  0.11221642171E+00  0.89241642279E+00  0.88000000000E+00 0.  1.
        -11    1    4    4    0    0 -0.19908835112E-02 -0.35359532669E-01 -0.54076473256E-01  0.64643532147E-01  0.51100000000E-03 0. -1.
         11    1    4    4    0    0 -0.80715830619E-02 -0.48469846573E-01 -0.39975429706E-01  0.63346448844E-01  0.51100000000E-03 0.  1.
</event>
<event>
 8    1  0.1138737E+005  0.1043930E+01  0.7957747E-01            NaN
         13   -1    0    0    0    0  0.00000000000E+00  0.00000000000E+00  0.74505805969E-08  0.10566000000E+00  0.10566000000E+00 0.  1.
     999900   -1    0    0    0    0 -0.00000000000E+00 -0.00000000000E+00 -0.74505805969E-08  0.93827000000E+00  0.93827000000E+00 0. -1.
     999902    2    1    2    0    0 -0.14416474396E-01 -0.14132581764E-01 -0.12440024971E-01  0.10202167374E+01  0.10199411123E+01 0.  0.
     999903    2    3    3    0    0 -0.30534175232E-01 -0.15927796831E-01 -0.12664419501E+00  0.13268893755E+00  0.19533853876E-01 0.  0.
         14    1    1    2    0    0  0.14416474396E-01  0.14132581764E-01  0.12440024971E-01  0.23713262589E-01  0.00000000000E+00 0.  1.
     999901    1    3    3    0    0  0.16117700836E-01  0.17952150677E-02  0.11420417004E+00  0.88752779986E+00  0.88000000000E+00 0.  1.
        -11    1    4    4    0    0 -0.23847068137E-01 -0.20506124194E-01 -0.10220561727E+00  0.10693658453E+00  0.51100000000E-03 0. -1.
         11    1    4    4    0    0 -0.66871070954E-02  0.45783273626E-02 -0.24438577740E-01  0.25752353013E-01  0.51100000000E-03 0.  1.
</event>
<event>
 8    1  0.1138737E+005  0.1043930E+01  0.7957747E-01            NaN
         13   -1    0    0    0    0  0.00000000000E+00  0.00000000000E+00  0.74505805969E-08  0.10566000000E+00  0.10566000000E+00 0. -1.
     999900   -1    0    0    0    0 -0.00000000000E+00 -0.00000000000E+00 -0.74505805969E-08  0.93827000000E+00  0.93827000000E+00 0.  1.
     999902    2    1    2    0    0  0.30319120395E-02  0.98313685379E-02  0.24591768867E-01  0.10172728547E+01  0.10169235259E+01 0.  0.
     999903    2    3    3    0    0  0.49493430957E-01  0.45849617920E-01 -0.10445218964E+00  0.12592088707E+00  0.19850005250E-01 0.  0.
         14    1    1    2    0    0 -0.30319120395E-02 -0.98313685379E-02 -0.24591768867E-01  0.26657145270E-01  0.00000000000E+00 0.  1.
     999901    1    3    3    0    0 -0.46461518917E-01 -0.36018249382E-01  0.12904395851E+00  0.89135196766E+00  0.88000000000E+00 0. -1.
        -11    1    4    4    0    0  0.28549389436E-01  0.13337877494E-01 -0.50778290509E-01  0.59763387799E-01  0.51100000000E-03 0. -1.
         11    1    4    4    0    0  0.20944041521E-01  0.32511740426E-01 -0.53673899129E-01  0.66157499269E-01  0.51100000000E-03 0.  1.
</event>
<event>
 8    1  0.1138737E+005  0.1043930E+01  0.7957747E-01            NaN
         13   -1    0    0    0    0  0.00000000000E+00  0.00000000000E+00  0.74505805969E-08  0.10566000000E+00  0.10566000000E+00 0.  1.
     999900   -1    0    0    0    0 -0.00000000000E+00 -0.00000000000E+00 -0.74505805969E-08  0.93827000000E+00  0.93827000000E+00 0.  1.
     999902    2    1    2    0    0 -0.16726128253E-01  0.49431787943E-02  0.15504730515E-01  0.10205934396E+01  0.10203266016E+01 0.  0.
     999903    2    3    3    0    0 -0.92250748983E-01 -0.81194055735E-01 -0.41847707801E-01  0.13131682702E+00  0.19753557523E-01 0.  0.
         14    1    1    2    0    0  0.16726128253E-01 -0.49431787943E-02 -0.15504730515E-01  0.23336560399E-01  0.00000000000E+00 0. -1.
     999901    1    3    3    0    0  0.75524620730E-01  0.86137234530E-01  0.57352438316E-01  0.88927661258E+00  0.88000000000E+00 0. -1.
        -11    1    4    4    0    0 -0.64012984286E-01 -0.59759647037E-01 -0.20535076644E-01  0.89949030373E-01  0.51100000000E-03 0. -1.
         11    1    4    4    0    0 -0.28237764697E-01 -0.21434408698E-01 -0.21312631157E-01  0.41367796644E-01  0.51100000000E-03 0.  1.
</event>
<event>
 8    1  0.1138737E+005  0.1043930E+01  0.7957747E-01            NaN
         13   -1    0    0    0    0  0.00000000000E+00  0.00000000000E+00  0.74505805969E-08  0.10566000000E+00  0.10566000000E+00 0.  1.
     999900   -1    0    0    0    0 -0.00000000000E+00 -0.00000000000E+00 -0.74505805969E-08  0.93827000000E+00  0.93827000000E+00 0. -1.
     999902    2    1    2    0    0 -0.17589537173E-01 -0.15927535341E-01  0.54198148538E-02  0.10195896509E+01  0.10192990747E+01 0.  0.
     999903    2    3    3    0    0  0.66025852297E-01  0.87737412231E-01 -0.61030796691E-01  0.12709111396E+00  0.19238670071E-01 0.  0.
         14    1    1    2    0    0  0.17589537173E-01  0.15927535341E-01 -0.54198148538E-02  0.24340349075E-01  0.00000000000E+00 0. -1.
     999901    1    3    3    0    0 -0.83615389470E-01 -0.10366494757E+00  0.66450611545E-01  0.89249853697E+00  0.88000000000E+00 0.  1.
        -11    1    4    4    0    0  0.14739543426E-01  0.22238623675E-01 -0.24526766372E-01  0.36244087973E-01  0.51100000000E-03 0. -1.
         11    1    4    4    0    0  0.51286308871E-01  0.65498788557E-01 -0.36504030319E-01  0.90847025986E-01  0.51100000000E-03 0.  1.
</event>
<event>
 8    1  0.1138737E+005  0.1043930E+01  0.7957747E-01            NaN
         13   -1    0    0    0    0  0.00000000000E+00  0.00000000000E+00  0.74505805969E-08  0.10566000000E+00  0.10566000000E+00 0.  1.
     999900   -1    0    0    0    0 -0.00000000000E+00 -0.00000000000E+00 -0.74505805969E-08  0.93827000000E+00  0.93827000000E+00 0.  1.
     999902    2    1    2    0    0 -0.13335943562E-01 -0.19572710023E-01  0.57074067829E-03  0.10202389867E+01  0.10199638845E+01 0.  0.
     999903    2    3    3    0    0  0.11995864671E+00 -0.61313492844E-02 -0.42614453734E-01  0.12905265429E+00  0.20271298649E-01 0.  0.
         14    1    1    2    0    0  0.13335943562E-01  0.19572710023E-01 -0.57074067829E-03  0.23691013344E-01  0.00000000000E+00 0.  1.
     999901    1    3    3    0    0 -0.13329459027E+00 -0.13441360739E-01  0.43185194412E-01  0.89118633236E+00  0.88000000000E+00 0. -1.
        -11    1    4    4    0    0  0.21346250233E-01 -0.89610747278E-02 -0.77496416342E-02  0.24418872328E-01  0.51100000000E-03 0.  1.
         11    1    4    4    0    0  0.98612396475E-01  0.28297254434E-02 -0.34864812100E-01  0.10463378197E+00  0.51100000000E-03 0. -1.
</event>
<event>
 8    1  0.1138737E+005  0.1043930E+01  0.7957747E-01            NaN
         13   -1    0    0    0    0  0.00000000000E+00  0.00000000000E+00  0.74505805969E-08  0.10566000000E+00  0.10566000000E+00 0. -1.
     999900   -1    0    0    0    0 -0.00000000000E+00 -0.00000000000E+00 -0.74505805969E-08  0.93827000000E+00  0.93827000000E+00 0. -1.
     999902    2    1    2    0    0 -0.24919649406E-02  0.11551361480E-01 -0.20286357654E-01  0.10204527738E+01  0.10201826716E+01 0.  0.
     999903    2    3    3    0    0 -0.17619030753E-01  0.11774478853E+00  0.50941400702E-01  0.13108262276E+00  0.20331311166E-01 0.  0.
         14    1    1    2    0    0  0.24919649406E-02 -0.11551361480E-01  0.20286357654E-01  0.23477226160E-01  0.00000000000E+00 0.  1.
     999901    1    3    3    0    0  0.15127065812E-01 -0.10619342705E+00 -0.71227758356E-01  0.88937015108E+00  0.88000000000E+00 0. -1.
        -11    1    4    4    0    0 -0.85164439927E-02  0.30696017424E-01  0.50532866018E-02  0.32257900280E-01  0.51100000000E-03 0.  1.
         11    1    4    4    0    0 -0.91025867602E-02  0.87048771107E-01  0.45888114100E-01  0.98824722482E-01  0.51100000000E-03 0. -1.
</event>
<event>
 8    1  0.1138737E+005  0.1043930E+01  0.7957747E-01            NaN
         13   -1    0    0    0    0  0.00000000000E+00  0.00000000000E+00  0.74505805969E-08  0.10566000000E+00  0.10566000000E+00 0.  1.
     999900   -1    0    0    0    0 -0.00000000000E+00 -0.00000000000E+00 -0.74505805969E-08  0.93827000000E+00  0.93827000000E+00 0.  1.
     999902    2    1    2    0    0 -0.37385908770E-03  0.19712637395E-01  0.12548125266E-01  0.10205594354E+01  0.10202918101E+01 0.  0.
     999903    2    3    3    0    0  0.90696047479E-01 -0.88725649030E-01 -0.11445602016E-01  0.12891584693E+00  0.19755504557E-01 0.  0.
         14    1    1    2    0    0  0.37385908770E-03 -0.19712637395E-01 -0.12548125266E-01  0.23370564635E-01  0.00000000000E+00 0. -1.
     999901    1    3    3    0    0 -0.91069906567E-01  0.10843828643E+00  0.23993727282E-01  0.89164358843E+00  0.88000000000E+00 0. -1.
        -11    1    4    4    0    0  0.56765804288E-01 -0.48976137487E-01  0.18093375314E-02  0.74997022627E-01  0.51100000000E-03 0.  1.
         11    1    4    4    0    0  0.33930243191E-01 -0.39749511543E-01 -0.13254939548E-01  0.53918824304E-01  0.51100000000E-03 0. -1.
</event>
<event>
 8    1  0.1138737E+005  0.1043930E+01  0.7957747E-01            NaN
         13   -1    0    0    0    0  0.00000000000E+00  0.00000000000E+00  0.74505805969E-08  0.10566000000E+00  0.10566000000E+00 0. -1.
     999900   -1    0    0    0    0 -0.00000000000E+00 -0.00000000000E+00 -0.74505805969E-08  0.93827000000E+00  0.93827000000E+00 0.  1.
     999902    2    1    2    0    0 -0.22637428571E-01 -0.16823690871E-02 -0.47825638476E-02  0.10207318006E+01  0.10204681535E+01 0.  0.
     999903    2    3    3    0    0 -0.51718184548E-01 -0.88696842977E-01  0.80368710060E-01  0.13187413569E+00  0.19742277996E-01 0.  0.
         14    1    1    2    0    0  0.22637428571E-01  0.16823690871E-02  0.47825638476E-02  0.23198199392E-01  0.00000000000E+00 0.  1.
     999901    1    3    3    0    0  0.29080755977E-01  0.87014473890E-01 -0.85151273908E-01  0.88885766492E+00  0.88000000000E+00 0.  1.
        -11    1    4    4    0    0 -0.28340542143E-01 -0.65041727734E-01  0.59600270495E-01  0.92661027621E-01  0.51100000000E-03 0. -1.
         11    1    4    4    0    0 -0.23377642405E-01 -0.23655115243E-01  0.20768439565E-01  0.39213108070E-01  0.51100000000E-03 0.  1.
</event>
<event>
 8    1  0.1138737E+005  0.1043930E+01  0.7957747E-01            NaN
         13   -1    0    0    0    0  0.00000000000E+00  0.00000000000E+00  0.74505805969E-08  0.10566000000E+00  0.10566000000E+00 0. -1.
     999900   -1    0    0    0    0 -0.00000000000E+00 -0.00000000000E+00 -0.74505805969E-08  0.93827000000E+00  0.93827000000E+00 0.  1.
     999902    2    1    2    0    0  0.90076251944E-02  0.19408020259E-01  0.99430723165E-02  0.10203360760E+01  0.10200632504E+01 0.  0.
     999903    2    3    3    0    0  0.83757585370E-01  0.12546601891E-01  0.10001654787E+00  0.13255915211E+00  0.19896447789E-01 0.  0.
         14    1    1    2    0    0 -0.90076251944E-02 -0.19408020259E-01 -0.99430723165E-02  0.23593923987E-01  0.00000000000E+00 0.  1.
     999901    1    3    3    0    0 -0.74749960176E-01  0.68614183678E-02 -0.90073475558E-01  0.88777692390E+00  0.88000000000E+00 0.  1.
        -11    1    4    4    0    0  0.48722371058E-01 -0.19088294460E-02  0.50489004153E-01  0.70191977695E-01  0.51100000000E-03 0.  1.
         11    1    4    4    0    0  0.35035214312E-01  0.14455431337E-01  0.49527543721E-01  0.62367174419E-01  0.51100000000E-03 0. -1.
</event>
<event>
 8    1  0.1138737E+005  0.1043930E+01  0.7957747E-01            NaN
         13   -1    0    0    0    0  0.00000000000E+00  0.00000000000E+00  0.74505805969E-08  0.10566000000E+00  0.10566000000E+00 0.  1.
     999900   -1    0    0    0    0 -0.00000000000E+00 -0.00000000000E+00 -0.74505805969E-08  0.93827000000E+00  0.93827000000E+00 0.  1.
     999902    2    1    2    0    0  0.18629536282E-03 -0.18258060390E-01 -0.12583055250E-01  0.10217551324E+01  0.10215144765E+01 0.  0.
     999903    2    3    3    0    0  0.12585612993E+00 -0.93973876721E-02  0.31493487988E-01  0.13169099956E+00  0.20557316083E-01 0.  0.
         14    1    1    2    0    0 -0.18629536282E-03  0.18258060390E-01  0.12583055250E-01  0.22174867634E-01  0.00000000000E+00 0. -1.
     999901    1    3    3    0    0 -0.12566983457E+00 -0.88606727175E-02 -0.44076543237E-01  0.89006413280E+00  0.88000000000E+00 0.  1.
        -11    1    4    4    0    0  0.15560617155E-01  0.48219073238E-02  0.74082568657E-02  0.17903267502E-01  0.51100000000E-03 0.  1.
         11    1    4    4    0    0  0.11029551277E+00 -0.14219294996E-01  0.24085231122E-01  0.11378773206E+00  0.51100000000E-03 0. -1.
</event>
<event>
 8    1  0.1138737E+005  0.1043930E+01  0.7957747E-01            NaN
         13   -1    0    0    0    0  0.00000000000E+00  0.00000000000E+00  0.74505805969E-08  0.10566000000E+00  0.10566000000E+00 0.  1.
     999900   -1    0    0    0    0 -0.00000000000E+00 -0.00000000000E+00 -0.74505805969E-08  0.93827000000E+00  0.93827000000E+00 0.  1.
     999902    2    1    2    0    0 -0.30316740573E-02 -0.24344511092E-01 -0.23970506429E-02  0.10192806162E+01  0.10189825232E+01 0.  0.
     999903    2    3    3    0    0  0.23119665740E-01  0.93570287940E-01 -0.81241085652E-01  0.12753840335E+00  0.19391044349E-01 0.  0.
         14    1    1    2    0    0  0.30316740573E-02  0.24344511092E-01  0.23970506429E-02  0.24649383758E-01  0.00000000000E+00 0. -1.
     999901    1    3    3    0    0 -0.26151339797E-01 -0.11791479903E+00  0.78844035009E-01  0.89174221290E+00  0.88000000000E+00 0. -1.
        -11    1    4    4    0    0  0.33770058893E-02  0.25267266631E-02 -0.79097158603E-02  0.89784877567E-02  0.51100000000E-03 0.  1.
         11    1    4    4    0    0  0.19742659851E-01  0.91043561277E-01 -0.73331369792E-01  0.11855991559E+00  0.51100000000E-03 0. -1.
</event>
<event>
 8    1  0.1138737E+005  0.1043930E+01  0.7957747E-01            NaN
         13   -1    0    0    0    0  0.00000000000E+00  0.00000000000E+00  0.74505805969E-08  0.10566000000E+00  0.10566000000E+00 0.  1.
     999900   -1    0    0    0    0 -0.00000000000E+00 -0.00000000000E+00 -0.74505805969E-08  0.93827000000E+00  0.93827000000E+00 0.  1.
     999902    2    1    2    0    0 -0.50027669765E-02 -0.90485832503E-02  0.21734202980E-01  0.10198617613E+01  0.10195777224E+01 0.  0.
     999903    2    3    3    0    0  0.41187452656E-01  0.16607145768E-01  0.12307346957E+00  0.13247154284E+00  0.20722625360E-01 0.  0.
         14    1    1    2    0    0  0.50027669765E-02  0.90485832503E-02 -0.21734202980E-01  0.24068238727E-01  0.00000000000E+00 0. -1.
     999901    1    3    3    0    0 -0.46190219632E-01 -0.25655729018E-01 -0.10133926659E+00  0.88739021844E+00  0.88000000000E+00 0.  1.
        -11    1    4    4    0    0  0.33275592998E-01  0.17069122334E-01  0.75684479434E-01  0.84421689007E-01  0.51100000000E-03 0.  1.
         11    1    4    4    0    0  0.79118596577E-02 -0.46197656578E-03  0.47388990140E-01  0.48049853830E-01  0.51100000000E-03 0. -1.
</event>
<event>
 8    1  0.1138737E+005  0.1043930E+01  0.7957747E-01            NaN
         13   -1    0    0    0    0  0.00000000000E+00  0.00000000000E+00  0.74505805969E-08  0.10566000000E+00  0.10566000000E+00 0. -1.
     999900   -1    0    0    0    0 -0.00000000000E+00 -0.00000000000E+00 -0.74505805969E-08  0.93827000000E+00  0.93827000000E+00 0. -1.
     999902    2    1    2    0    0  0.24614650307E-01 -0.90297279475E-03 -0.12908575171E-02  0.10192649907E+01  0.10189665150E+01 0.  0.
     999903    2    3    3    0    0  0.70976177043E-01  0.10899569292E+00  0.87408797243E-02  0.13116153749E+00  0.14466069093E-01 0.  0.
         14    1    1    2    0    0 -0.24614650307E-01  0.90297279475E-03  0.12908575171E-02  0.24665009279E-01  0.00000000000E+00 0.  1.
     999901    1    3    3    0    0 -0.46361526736E-01 -0.10989866572E+00 -0.10031737241E-01  0.88810345323E+00  0.88000000000E+00 0. -1.
        -11    1    4    4    0    0  0.20196322837E-01  0.24396734491E-01  0.71777045247E-02  0.32478803445E-01  0.51100000000E-03 0. -1.
         11    1    4    4    0    0  0.50779854206E-01  0.84598958432E-01  0.15631751997E-02  0.98682734045E-01  0.51100000000E-03 0.  1.
</event>
<event>
 8    1  0.1138737E+005  0.1043930E+01  0.7957747E-01            NaN
         13   -1    0    0    0    0  0.00000000000E+00  0.00000000000E+00  0.74505805969E-08  0.10566000000E+00  0.10566000000E+00 0.  1.
     999900   -1    0    0    0    0 -0.00000000000E+00 -0.00000000000E+00 -0.74505805969E-08  0.93827000000E+00  0.93827000000E+00 0.  1.
     999902    2    1    2    0    0 -0.16506368062E-01 -0.16236243712E-01  0.47786297975E-02  0.10202886993E+01  0.10200147640E+01 0.  0.
     999903    2    3    3    0    0 -0.65095803610E-03 -0.86658878913E-01 -0.96995272164E-01  0.13148688297E+00  0.19249221542E-01 0.  0.
         14    1    1    2    0    0  0.16506368062E-01  0.16236243712E-01 -0.47786297975E-02  0.23641300709E-01  0.00000000000E+00 0. -1.
     999901    1    3    3    0    0 -0.15855410026E-01  0.70422635201E-01  0.10177390196E+00  0.88880181632E+00  0.88000000000E+00 0. -1.
        -11    1    4    4    0    0  0.87272172482E-02 -0.44666080953E-01 -0.54573698132E-01  0.71061753127E-01  0.51100000000E-03 0.  1.
         11    1    4    4    0    0 -0.93781752843E-02 -0.41992797960E-01 -0.42421574032E-01  0.60425129843E-01  0.51100000000E-03 0. -1.
</event>
<event>
 8    1  0.1138737E+005  0.1043930E+01  0.7957747E-01            NaN
         13   -1    0    0    0    0  0.00000000000E+00  0.00000000000E+00  0.74505805969E-08  0.10566000000E+00  0.10566000000E+00 0. -1.
     999900   -1    0    0    0    0 -0.00000000000E+00 -0.00000000000E+00 -0.74505805969E-08  0.93827000000E+00  0.93827000000E+00 0.  1.
     999902    2    1    2    0    0  0.73592267441E-02 -0.90981523937E-03 -0.24111080066E-01  0.10187044145E+01  0.10183920433E+01 0.  0.
     999903    2    3    3    0    0 -0.11563323688E+00 -0.48532685308E-01 -0.19133269265E-01  0.12886180905E+00  0.22645459260E-01 0.  0.
         14    1    1    2    0    0 -0.73592267441E-02  0.90981523937E-03  0.24111080066E-01  0.25225585503E-01  0.00000000000E+00 0. -1.
     999901    1    3    3    0    0  0.12299246362E+00  0.47622870069E-01 -0.49778108009E-02  0.88984260544E+00  0.88000000000E+00 0. -1.
        -11    1    4    4    0    0 -0.65337670158E-01 -0.32163550965E-01 -0.64738246166E-03  0.72829838510E-01  0.51100000000E-03 0.  1.
         11    1    4    4    0    0 -0.50295566722E-01 -0.16369134343E-01 -0.18485886803E-01  0.56031970543E-01  0.51100000000E-03 0. -1.
</event>
<event>
 8    1  0.1138737E+005  0.1043930E+01  0.7957747E-01            NaN
         13   -1    0    0    0    0  0.00000000000E+00  0.00000000000E+00  0.74505805969E-08  0.10566000000E+00  0.10566000000E+00 0. -1.
     999900   -1    0    0    0    0 -0.00000000000E+00 -0.00000000000E+00 -0.74505805969E-08  0.93827000000E+00  0.93827000000E+00 0. -1.
     999902    2    1    2    0    0 -0.89144706409E-02  0.17464369590E-01  0.12738448138E-01  0.10205475268E+01  0.10202796256E+01 0.  0.
     999903    2    3    3    0    0  0.81588393854E-01 -0.97020100140E-01 -0.10127822615E-01  0.12823573789E+00  0.16500479940E-01 0.  0.
         14    1    1    2    0    0  0.89144706409E-02 -0.17464369590E-01 -0.12738448138E-01  0.23382473200E-01  0.00000000000E+00 0.  1.
     999901    1    3    3    0    0 -0.90502864495E-01  0.11448446973E+00  0.22866270753E-01  0.89231178891E+00  0.88000000000E+00 0.  1.
        -11    1    4    4    0    0  0.10106476491E-01 -0.50260284469E-02 -0.17359176932E-02  0.11431376131E-01  0.51100000000E-03 0.  1.
         11    1    4    4    0    0  0.71481917363E-01 -0.91994071693E-01 -0.83919049220E-02  0.11680436176E+00  0.51100000000E-03 0. -1.
</event>
<event>
 8    1  0.1138737E+005  0.1043930E+01  0.7957747E-01            NaN
         13   -1    0    0    0    0  0.00000000000E+00  0.00000000000E+00  0.74505805969E-08  0.10566000000E+00  0.10566000000E+00 0.  1.
     999900   -1    0    0    0    0 -0.00000000000E+00 -0.00000000000E+00 -0.74505805969E-08  0.93827000000E+00  0.93827000000E+00 0. -1.
     999902    2    1    2    0    0  0.99860550558E-02 -0.18563432187E-01 -0.86138510760E-02  0.10211589495E+01  0.10209050296E+01 0.  0.
     999903    2    3    3    0    0  0.19351529306E-01  0.89360487816E-01 -0.91564512426E-01  0.13064443709E+00  0.18003625648E-01 0.  0.
         14    1    1    2    0    0 -0.99860550558E-02  0.18563432187E-01  0.86138510760E-02  0.22771050492E-01  0.00000000000E+00 0.  1.
     999901    1    3    3    0    0 -0.93654742500E-02 -0.10792392000E+00  0.82950661350E-01  0.89051451242E+00  0.88000000000E+00 0.  1.
        -11    1    4    4    0    0  0.12174647300E-02  0.32667614442E-01 -0.41733324158E-01  0.53014966943E-01  0.51100000000E-03 0. -1.
         11    1    4    4    0    0  0.18134064576E-01  0.56692873374E-01 -0.49831188268E-01  0.77629470143E-01  0.51100000000E-03 0.  1.
</event>
<event>
 8    1  0.1138737E+005  0.1043930E+01  0.7957747E-01            NaN
         13   -1    0    0    0    0  0.00000000000E+00  0.00000000000E+00  0.74505805969E-08  0.10566000000E+00  0.10566000000E+00 0. -1.
     999900   -1    0    0    0    0 -0.00000000000E+00 -0.00000000000E+00 -0.74505805969E-08  0.93827000000E+00  0.93827000000E+00 0. -1.
     999902    2    1    2    0    0  0.59705854738E-02 -0.93338042947E-03  0.24352876099E-01  0.10188385340E+01  0.10185295169E+01 0.  0.
     999903    2    3    3    0    0 -0.34466646957E-01 -0.10520920216E-01 -0.11920439531E+00  0.12623796219E+00  0.20680805617E-01 0.  0.
         14    1    1    2    0    0 -0.59705854738E-02  0.93338042947E-03 -0.24352876099E-01  0.25091465964E-01  0.00000000000E+00 0.  1.
     999901    1    3    3    0    0  0.40437232430E-01  0.95875397864E-02  0.14355727141E+00  0.89260057185E+00  0.88000000000E+00 0.  1.
        -11    1    4    4    0    0 -0.13201420513E-01 -0.12918553335E-01 -0.73216929594E-01  0.75512558055E-01  0.51100000000E-03 0. -1.
         11    1    4    4    0    0 -0.21265226444E-01  0.23976331190E-02 -0.45987465719E-01  0.50725404134E-01  0.51100000000E-03 0.  1.
</event>
<event>
 8    1  0.1138737E+005  0.1043930E+01  0.7957747E-01            NaN
         13   -1    0    0    0    0  0.00000000000E+00  0.00000000000E+00  0.74505805969E-08  0.10566000000E+00  0.10566000000E+00 0. -1.
     999900   -1    0    0    0    0 -0.00000000000E+00 -0.00000000000E+00 -0.74505805969E-08  0.93827000000E+00  0.93827000000E+00 0.  1.
     999902    2    1    2    0    0  0.10561418881E-01 -0.16200630307E-01  0.11884293057E-01  0.10212310923E+01  0.10209787967E+01 0.  0.
     999903    2    3    3    0    0  0.58960975341E-01  0.58416845238E-01 -0.97915278784E-01  0.12995883829E+00  0.20321747202E-01 0.  0.
         14    1    1    2    0    0 -0.10561418881E-01  0.16200630307E-01 -0.11884293057E-01  0.22698907740E-01  0.00000000000E+00 0. -1.
     999901    1    3    3    0    0 -0.48399556459E-01 -0.74617475545E-01  0.10979957184E+00  0.89127225397E+00  0.88000000000E+00 0. -1.
        -11    1    4    4    0    0  0.49361291614E-01  0.44779583332E-01 -0.88536867293E-01  0.11081870864E+00  0.51100000000E-03 0. -1.
         11    1    4    4    0    0  0.95996837268E-02  0.13637261906E-01 -0.93784114911E-02  0.19140129651E-01  0.51100000000E-03 0.  1.
</event>
<event>
 8    1  0.1138737E+005  0.1043930E+01  0.7957747E-01            NaN
         13   -1    0    0    0    0  0.00000000000E+00  0.00000000000E+00  0.74505805969E-08  0.10566000000E+00  0.10566000000E+00 0.  1.
     999900   -1    0    0    0    0 -0.00000000000E+00 -0.00000000000E+00 -0.74505805969E-08  0.93827000000E+00  0.93827000000E+00 0. -1.
     999902    2    1    2    0    0 -0.11832764845E-01  0.74115039640E-02 -0.20251792920E-01  0.10193316295E+01  0.10190347840E+01 0.  0.
     999903    2    3    3    0    0 -0.84550694390E-01  0.12049300278E-01  0.94530606354E-01  0.12889106123E+00  0.19566925379E-01 0.  0.
         14    1    1    2    0    0  0.11832764845E-01 -0.74115039640E-02  0.20251792920E-01  0.24598370502E-01  0.00000000000E+00 0. -1.
     999901    1    3    3    0    0  0.72717929545E-01 -0.46377963138E-02 -0.11478239927E+00  0.89044056827E+00  0.88000000000E+00 0. -1.
        -11    1    4    4    0    0 -0.84563975693E-01  0.13828144592E-01  0.91659846516E-01  0.12547538465E+00  0.51100000000E-03 0. -1.
         11    1    4    4    0    0  0.13281303344E-04 -0.17788443139E-02  0.28707598380E-02  0.34156765850E-02  0.51100000000E-03 0.  1.
</event>
<event>
 8    1  0.1138737E+005  0.1043930E+01  0.7957747E-01            NaN
         13   -1    0    0    0    0  0.00000000000E+00  0.00000000000E+00  0.74505805969E-08  0.10566000000E+00  0.10566000000E+00 0.  1.
     999900   -1    0    0    0    0 -0.00000000000E+00 -0.00000000000E+00 -0.74505805969E-08  0.93827000000E+00  0.93827000000E+00 0.  1.
     999902    2    1    2    0    0  0.22885745043E-01  0.30359385902E-03  0.65506810731E-02  0.10201232590E+01  0.10198454307E+01 0.  0.
     999903    2    3    3    0    0 -0.12274488267E+00  0.23390133999E-01  0.16921439653E-01  0.12779550490E+00  0.20783439635E-01 0.  0.
         14    1    1    2    0    0 -0.22885745043E-01 -0.30359385902E-03 -0.65506810731E-02  0.23806741018E-01  0.00000000000E+00 0. -1.
     999901    1    3    3    0    0  0.14563062771E+00 -0.23086540140E-01 -0.10370758579E-01  0.89232775408E+00  0.88000000000E+00 0.  1.
        -11    1    4    4    0    0 -0.53994893183E-01  0.55076436688E-02 -0.18803955956E-02  0.54310032565E-01  0.51100000000E-03 0.  1.
         11    1    4    4    0    0 -0.68749989488E-01  0.17882490331E-01  0.18801835248E-01  0.73485472338E-01  0.51100000000E-03 0. -1.
</event>
<event>
 8    1  0.1174615E+005  0.1043930E+01  0.7957747E-01            NaN
         13   -1    0    0    0    0  0.00000000000E+00  0.00000000000E+00  0.74505805969E-08  0.10566000000E+00  0.10566000000E+00 0.  1.
     999900   -1    0    0    0    0 -0.00000000000E+00 -0.00000000000E+00 -0.74505805969E-08  0.93827000000E+00  0.93827000000E+00 0. -1.
     999902    2    1    2    0    0 -0.16109115725E-01 -0.11139680970E-01  0.10628345265E-01  0.10216464225E+01  0.10214033752E+01 0.  0.
     999903    2    3    3    0    0 -0.12618376620E+00 -0.29097965355E-01 -0.27232471971E-01  0.13379938045E+00  0.19789700368E-01 0.  0.
         14    1    1    2    0    0  0.16109115725E-01  0.11139680970E-01 -0.10628345265E-01  0.22283577465E-01  0.00000000000E+00 0.  1.
     999901    1    3    3    0    0  0.11007465047E+00  0.17958284385E-01  0.37860817236E-01  0.88784704208E+00  0.88000000000E+00 0.  1.
        -11    1    4    4    0    0 -0.78493396390E-01 -0.86408860391E-02 -0.13465702710E-01  0.80109078505E-01  0.51100000000E-03 0.  1.
         11    1    4    4    0    0 -0.47690369805E-01 -0.20457079316E-01 -0.13766769261E-01  0.53690301947E-01  0.51100000000E-03 0. -1.
</event>
<event>
 8    1  0.1138737E+005  0.1043930E+01  0.7957747E-01            NaN
         13   -1    0    0    0    0  0.00000000000E+00  0.00000000000E+00  0.74505805969E-08  0.10566000000E+00  0.10566000000E+00 0. -1.
     999900   -1    0    0    0    0 -0.00000000000E+00 -0.00000000000E+00 -0.74505805969E-08  0.93827000000E+00  0.93827000000E+00 0.  1.
     999902    2    1    2    0    0  0.12347241424E-01  0.41781621303E-02 -0.19752898162E-01  0.10202638132E+01  0.10199892942E+01 0.  0.
     999903    2    3    3    0    0  0.20861361137E-01 -0.12100729718E+00 -0.41168760789E-01  0.13110548729E+00  0.20391654480E-01 0.  0.
         14    1    1    2    0    0 -0.12347241424E-01 -0.41781621303E-02  0.19752898162E-01  0.23666186751E-01  0.00000000000E+00 0. -1.
     999901    1    3    3    0    0 -0.85141197130E-02  0.12518545931E+00  0.21415862627E-01  0.88915832596E+00  0.88000000000E+00 0.  1.
        -11    1    4    4    0    0  0.66550200476E-03 -0.59300048667E-01 -0.23703178857E-01  0.63867366266E-01  0.51100000000E-03 0.  1.
         11    1    4    4    0    0  0.20195859132E-01 -0.61707248512E-01 -0.17465581932E-01  0.67238121019E-01  0.51100000000E-03 0. -1.
</event>
<event>
 8    1  0.1138737E+005  0.1043930E+01  0.7957747E-01            NaN
         13   -1    0    0    0    0  0.00000000000E+00  0.00000000000E+00  0.74505805969E-08  0.10566000000E+00  0.10566000000E+00 0.  1.
     999900   -1    0    0    0    0 -0.00000000000E+00 -0.00000000000E+00 -0.74505805969E-08  0.93827000000E+00  0.93827000000E+00 0. -1.
     999902    2    1    2    0    0  0.11110009091E-01  0.16057770244E-03 -0.21240852238E-01  0.10199585192E+01  0.10196767866E+01 0.  0.
     999903    2    3    3    0    0  0.46656811395E-01  0.11923786502E+00  0.16287477841E-01  0.13043541605E+00  0.18803970901E-01 0.  0.
         14    1    1    2    0    0 -0.11110009091E-01 -0.16057770244E-03  0.21240852238E-01  0.23971480784E-01  0.00000000000E+00 0.  1.
     999901    1    3    3    0    0 -0.35546802305E-01 -0.11907728732E+00 -0.37528330079E-01  0.88952310317E+00  0.88000000000E+00 0.  1.
        -11    1    4    4    0    0  0.12246226697E-01  0.56780477570E-01  0.83018606991E-02  0.58678571161E-01  0.51100000000E-03 0.  1.
         11    1    4    4    0    0  0.34410584698E-01  0.62457387449E-01  0.79856171416E-02  0.71756844888E-01  0.51100000000E-03 0. -1.
</event>
<event>
 8    1  0.1138737E+005  0.1043930E+01  0.7957747E-01            NaN
         13   -1    0    0    0    0  0.00000000000E+00  0.00000000000E+00  0.74505805969E-08  0.10566000000E+00  0.10566000000E+00 0.  1.
     999900   -1    0    0    0    0 -0.00000000000E+00 -0.00000000000E+00 -0.74505805969E-08  0.93827000000E+00  0.93827000000E+00 0. -1.
     999902    2    1    2    0    0 -0.18791514326E-01 -0.44476696602E-02 -0.14692509569E-01  0.10196653629E+01  0.10193766133E+01 0.  0.
     999903    2    3    3    0    0 -0.96542303571E-01  0.66184493128E-01  0.54500678302E-01  0.13072116617E+00  0.20418027354E-01 0.  0.
         14    1    1    2    0    0  0.18791514326E-01  0.44476696602E-02  0.14692509569E-01  0.24264637099E-01  0.00000000000E+00 0.  1.
     999901    1    3    3    0    0  0.77750789245E-01 -0.70632162788E-01 -0.69193187871E-01  0.88894419673E+00  0.88000000000E+00 0. -1.
        -11    1    4    4    0    0 -0.64808174983E-01  0.49105236675E-01  0.28048563891E-01  0.86013992297E-01  0.51100000000E-03 0.  1.
         11    1    4    4    0    0 -0.31734128588E-01  0.17079256453E-01  0.26452114411E-01  0.44707173877E-01  0.51100000000E-03 0. -1.
</event>
<event>
 8    1  0.1138737E+005  0.1043930E+01  0.7957747E-01            NaN
         13   -1    0    0    0    0  0.00000000000E+00  0.00000000000E+00  0.74505805969E-08  0.10566000000E+00  0.10566000000E+00 0.  1.
     999900   -1    0    0    0    0 -0.00000000000E+00 -0.00000000000E+00 -0.74505805969E-08  0.93827000000E+00  0.93827000000E+00 0.  1.
     999902    2    1    2    0    0  0.18952451348E-01 -0.11733470176E-01  0.10175427094E-01  0.10194267543E+01  0.10191322281E+01 0.  0.
     999903    2    3    3    0    0 -0.24305273609E-01  0.68406050365E-01  0.10519846554E+00  0.12963860457E+00  0.21663715998E-01 0.  0.
         14    1    1    2    0    0 -0.18952451348E-01  0.11733470176E-01 -0.10175427094E-01  0.24503245724E-01  0.00000000000E+00 0. -1.
     999901    1    3    3    0    0  0.43257724957E-01 -0.80139520541E-01 -0.95023038448E-01  0.88978814971E+00  0.88000000000E+00 0.  1.
        -11    1    4    4    0    0 -0.25253242409E-01  0.42450251832E-01  0.74979271751E-01  0.89788097463E-01  0.51100000000E-03 0. -1.
         11    1    4    4    0    0  0.94796879949E-03  0.25955798533E-01  0.30219193791E-01  0.39850507107E-01  0.51100000000E-03 0.  1.
</event>
<event>
 8    1  0.1138737E+005  0.1043930E+01  0.7957747E-01            NaN
         13   -1    0    0    0    0  0.00000000000E+00  0.00000000000E+00  0.74505805969E-08  0.10566000000E+00  0.10566000000E+00 0.  1.
     999900   -1    0    0    0    0 -0.00000000000E+00 -0.00000000000E+00 -0.74505805969E-08  0.93827000000E+00  0.93827000000E+00 0. -1.
     999902    2    1    2    0    0 -0.61888105709E-02 -0.50020355882E-02  0.23563383937E-01  0.10190592381E+01  0.10187556998E+01 0.  0.
     999903    2    3    3    0    0  0.29634263272E-01  0.54750790766E-01 -0.10827470879E+00  0.12651513520E+00  0.20169983176E-01 0.  0.
         14    1    1    2    0    0  0.61888105709E-02  0.50020355882E-02 -0.23563383937E-01  0.24870761927E-01  0.00000000000E+00 0. -1.
     999901    1    3    3    0    0 -0.35823073843E-01 -0.59752826355E-01  0.13183809273E+00  0.89254410287E+00  0.88000000000E+00 0.  1.
        -11    1    4    4    0    0  0.43599475945E-03  0.19718299646E-01 -0.36045980737E-01  0.41092277628E-01  0.51100000000E-03 0.  1.
         11    1    4    4    0    0  0.29198268512E-01  0.35032491120E-01 -0.72228728057E-01  0.85422857573E-01  0.51100000000E-03 0. -1.
</event>
<event>
 8    1  0.1138737E+005  0.1043930E+01  0.7957747E-01            NaN
         13   -1    0    0    0    0  0.00000000000E+00  0.00000000000E+00  0.74505805969E-08  0.10566000000E+00  0.10566000000E+00 0. -1.
     999900   -1    0    0    0    0 -0.00000000000E+00 -0.00000000000E+00 -0.74505805969E-08  0.93827000000E+00  0.93827000000E+00 0. -1.
     999902    2    1    2    0    0  0.52341634318E-02  0.20433802851E-01  0.11930974494E-01  0.10196960379E+01  0.10194080267E+01 0.  0.
     999903    2    3    3    0    0  0.11148499516E+00 -0.61184844877E-01  0.15038806408E-01  0.12954970078E+00  0.19607903643E-01 0.  0.
         14    1    1    2    0    0 -0.52341634318E-02 -0.20433802851E-01 -0.11930974494E-01  0.24233962082E-01  0.00000000000E+00 0. -1.
     999901    1    3    3    0    0 -0.10625083173E+00  0.81618647728E-01 -0.31078319143E-02  0.89014633714E+00  0.88000000000E+00 0. -1.
        -11    1    4    4    0    0  0.65930001419E-01 -0.25340915733E-01  0.61103068343E-02  0.70897983526E-01  0.51100000000E-03 0. -1.
         11    1    4    4    0    0  0.45554993743E-01 -0.35843929143E-01  0.89284995738E-02  0.58651717255E-01  0.51100000000E-03 0.  1.
</event>
<event>
 8    1  0.1138737E+005  0.1043930E+01  0.7957747E-01            NaN
         13   -1    0    0    0    0  0.00000000000E+00  0.00000000000E+00  0.74505805969E-08  0.10566000000E+00  0.10566000000E+00 0.  1.
     999900   -1    0    0    0    0 -0.00000000000E+00 -0.00000000000E+00 -0.74505805969E-08  0.93827000000E+00  0.93827000000E+00 0.  1.
     999902    2    1    2    0    0 -0.52433354247E-02 -0.22440380238E-01 -0.28124326515E-02  0.10207142078E+01  0.10204501560E+01 0.  0.
     999903    2    3    3    0    0 -0.76626156206E-01 -0.10076390012E+00 -0.37884224877E-01  0.13366284991E+00  0.20139800601E-01 0.  0.
         14    1    1    2    0    0  0.52433354247E-02  0.22440380238E-01  0.28124326515E-02  0.23215792233E-01  0.00000000000E+00 0. -1.
     999901    1    3    3    0    0  0.71382820781E-01  0.78323519884E-01  0.35071792226E-01  0.88705135786E+00  0.88000000000E+00 0. -1.
        -11    1    4    4    0    0 -0.39399324942E-01 -0.40983713323E-01 -0.90747928326E-02  0.57572428727E-01  0.51100000000E-03 0.  1.
         11    1    4    4    0    0 -0.37226831264E-01 -0.59780186799E-01 -0.28809432045E-01  0.76090421180E-01  0.51100000000E-03 0. -1.
</event>
<event>
 8    1  0.1138737E+005  0.1043930E+01  0.7957747E-01            NaN
         13   -1    0    0    0    0  0.00000000000E+00  0.00000000000E+00  0.74505805969E-08  0.10566000000E+00  0.10566000000E+00 0.  1.
     999900   -1    0    0    0    0 -0.00000000000E+00 -0.00000000000E+00 -0.74505805969E-08  0.93827000000E+00  0.93827000000E+00 0. -1.
     999902    2    1    2    0    0  0.14191388388E-01 -0.19212726518E-01  0.50018750687E-02  0.10195262479E+01  0.10192341374E+01 0.  0.
     999903    2    3    3    0    0  0.10304470147E+00 -0.38081218332E-01 -0.69831787274E-01  0.13169123601E+00  0.19942753998E-01 0.  0.
         14    1    1    2    0    0 -0.14191388388E-01  0.19212726518E-01 -0.50018750687E-02  0.24403752147E-01  0.00000000000E+00 0. -1.
     999901    1    3    3    0    0 -0.88853313086E-01  0.18868491814E-01  0.74833662343E-01  0.88783501184E+00  0.88000000000E+00 0.  1.
        -11    1    4    4    0    0  0.47980062512E-01 -0.92419412905E-02 -0.37690152732E-01  0.61711494970E-01  0.51100000000E-03 0.  1.
         11    1    4    4    0    0  0.55064638962E-01 -0.28839277042E-01 -0.32141634542E-01  0.69979741043E-01  0.51100000000E-03 0. -1.
</event>
<event>
 8    1  0.1138737E+005  0.1043930E+01  0.7957747E-01            NaN
         13   -1    0    0    0    0  0.00000000000E+00  0.00000000000E+00  0.74505805969E-08  0.10566000000E+00  0.10566000000E+00 0. -1.
     999900   -1    0    0    0    0 -0.00000000000E+00 -0.00000000000E+00 -0.74505805969E-08  0.93827000000E+00  0.93827000000E+00 0.  1.
     999902    2    1    2    0    0  0.16975365143E-01  0.16473528112E-01  0.90900521557E-03  0.10202579397E+01  0.10199832827E+01 0.  0.
     999903    2    3    3    0    0  0.70600564555E-01  0.60181508606E-01  0.93051873719E-01  0.13274661140E+00  0.18888037033E-01 0.  0.
         14    1    1    2    0    0 -0.16975365143E-01 -0.16473528112E-01 -0.90900521557E-03  0.23672060338E-01  0.00000000000E+00 0.  1.
     999901    1    3    3    0    0 -0.53625199412E-01 -0.43707980494E-01 -0.92142868503E-01  0.88751132826E+00  0.88000000000E+00 0.  1.
        -11    1    4    4    0    0  0.30736841254E-01  0.35690612537E-01  0.55182235612E-01  0.72552832347E-01  0.51100000000E-03 0. -1.
         11    1    4    4    0    0  0.39863723301E-01  0.24490896069E-01  0.37869638107E-01  0.60193779056E-01  0.51100000000E-03 0.  1.
</event>
<event>
 8    1  0.1138737E+005  0.1043930E+01  0.7957747E-01            NaN
         13   -1    0    0    0    0  0.00000000000E+00  0.00000000000E+00  0.74505805969E-08  0.10566000000E+00  0.10566000000E+00 0.  1.
     999900   -1    0    0    0    0 -0.00000000000E+00 -0.00000000000E+00 -0.74505805969E-08  0.93827000000E+00  0.93827000000E+00 0.  1.
     999902    2    1    2    0    0 -0.21411882122E-01  0.22133551223E-02 -0.87840752955E-02  0.10206807502E+01  0.10204159281E+01 0.  0.
     999903    2    3    3    0    0  0.33069325674E-01  0.71415007201E-01  0.10076761028E+00  0.12952495998E+00  0.20710394071E-01 0.  0.
         14    1    1    2    0    0  0.21411882122E-01 -0.22133551223E-02  0.87840752955E-02  0.23249249788E-01  0.00000000000E+00 0.  1.
     999901    1    3    3    0    0 -0.54481207796E-01 -0.69201652079E-01 -0.10955168557E+00  0.89115579023E+00  0.88000000000E+00 0.  1.
        -11    1    4    4    0    0  0.62788746086E-02  0.37696004967E-01  0.44321658830E-01  0.58524213957E-01  0.51100000000E-03 0. -1.
         11    1    4    4    0    0  0.26790451066E-01  0.33719002234E-01  0.56445951448E-01  0.71000746023E-01  0.51100000000E-03 0.  1.
</event>
<event>
 8    1  0.1138737E+005  0.1043930E+01  0.7957747E-01            NaN
         13   -1    0    0    0    0  0.00000000000E+00  0.00000000000E+00  0.74505805969E-08  0.10566000000E+00  0.10566000000E+00 0. -1.
     999900   -1    0    0    0    0 -0.00000000000E+00 -0.00000000000E+00 -0.74505805969E-08  0.93827000000E+00  0.93827000000E+00 0. -1.
     999902    2    1    2    0    0 -0.12105764236E-01  0.22149274530E-01  0.21132498440E-02  0.10186000629E+01  0.10182850693E+01 0.  0.
     999903    2    3    3    0    0  0.49829124942E-01 -0.38512084107E-02  0.11672807269E+00  0.12862898850E+00  0.20547511516E-01 0.  0.
         14    1    1    2    0    0  0.12105764236E-01 -0.22149274530E-01 -0.21132498440E-02  0.25329937127E-01  0.00000000000E+00 0.  1.
     999901    1    3    3    0    0 -0.61934889178E-01  0.26000482941E-01 -0.11461482284E+00  0.88997107438E+00  0.88000000000E+00 0. -1.
        -11    1    4    4    0    0  0.38868642098E-01 -0.11615684081E-01  0.89331660194E-01  0.98112700958E-01  0.51100000000E-03 0.  1.
         11    1    4    4    0    0  0.10960482844E-01  0.77644756706E-02  0.27396412495E-01  0.30516287539E-01  0.51100000000E-03 0. -1.
</event>
<event>
 8    1  0.1138737E+005  0.1043930E+01  0.7957747E-01            NaN
         13   -1    0    0    0    0  0.00000000000E+00  0.00000000000E+00  0.74505805969E-08  0.10566000000E+00  0.10566000000E+00 0.  1.
     999900   -1    0    0    0    0 -0.00000000000E+00 -0.00000000000E+00 -0.74505805969E-08  0.93827000000E+00  0.93827000000E+00 0. -1.
     999902    2    1    2    0    0 -0.21430649069E-01  0.23415820864E-02  0.60814233519E-02  0.10215304590E+01  0.10212848473E+01 0.  0.
     999903    2    3    3    0    0 -0.12628248795E+00  0.23123755659E-01 -0.33468663903E-01  0.13418046254E+00  0.20056675279E-01 0.  0.
         14    1    1    2    0    0  0.21430649069E-01 -0.23415820864E-02 -0.60814233519E-02  0.22399540981E-01  0.00000000000E+00 0. -1.
     999901    1    3    3    0    0  0.10485183889E+00 -0.20782173572E-01  0.39550087255E-01  0.88734999648E+00  0.88000000000E+00 0.  1.
        -11    1    4    4    0    0 -0.39543418903E-01  0.23269979838E-02 -0.22597684002E-02  0.39679523339E-01  0.51100000000E-03 0.  1.
         11    1    4    4    0    0 -0.86739069051E-01  0.20796757675E-01 -0.31208895503E-01  0.94500939197E-01  0.51100000000E-03 0. -1.
</event>
<event>
 8    1  0.1138737E+005  0.1043930E+01  0.7957747E-01            NaN
         13   -1    0    0    0    0  0.00000000000E+00  0.00000000000E+00  0.74505805969E-08  0.10566000000E+00  0.10566000000E+00 0. -1.
     999900   -1    0    0    0    0 -0.00000000000E+00 -0.00000000000E+00 -0.74505805969E-08  0.93827000000E+00  0.93827000000E+00 0. -1.
     999902    2    1    2    0    0 -0.47675838122E-02  0.16385485582E-01 -0.16643152826E-01  0.10200928750E+01  0.10198143287E+01 0.  0.
     999903    2    3    3    0    0  0.93348179283E-01  0.31871186496E-01 -0.85130661713E-01  0.13186033292E+00  0.20254943354E-01 0.  0.
         14    1    1    2    0    0  0.47675838122E-02 -0.16385485582E-01  0.16643152826E-01  0.23837125018E-01  0.00000000000E+00 0. -1.
     999901    1    3    3    0    0 -0.98115763095E-01 -0.15485700914E-01  0.68487508888E-01  0.88823254206E+00  0.88000000000E+00 0. -1.
        -11    1    4    4    0    0  0.48996506913E-01  0.26295206319E-01 -0.41435506704E-01  0.69348813269E-01  0.51100000000E-03 0. -1.
         11    1    4    4    0    0  0.44351672370E-01  0.55759801777E-02 -0.43695155010E-01  0.62511519653E-01  0.51100000000E-03 0.  1.
</event>
<event>
 8    1  0.1138737E+005  0.1043930E+01  0.7957747E-01            NaN
         13   -1    0    0    0    0  0.00000000000E+00  0.00000000000E+00  0.74505805969E-08  0.10566000000E+00  0.10566000000E+00 0. -1.
     999900   -1    0    0    0    0 -0.00000000000E+00 -0.00000000000E+00 -0.74505805969E-08  0.93827000000E+00  0.93827000000E+00 0. -1.
     999902    2    1    2    0    0 -0.19288098321E-01  0.92935698693E-02  0.79598318853E-02  0.10210879313E+01  0.10208324071E+01 0.  0.
     999903    2    3    3    0    0  0.24489286337E-01  0.34778956500E-03  0.12795147993E+00  0.13182167086E+00  0.20137665923E-01 0.  0.
         14    1    1    2    0    0  0.19288098321E-01 -0.92935698693E-02 -0.79598318853E-02  0.22842068676E-01  0.00000000000E+00 0.  1.
     999901    1    3    3    0    0 -0.43777384658E-01  0.89457803043E-02 -0.11999164805E+00  0.88926626046E+00  0.88000000000E+00 0. -1.
        -11    1    4    4    0    0  0.11335221820E-01 -0.85397372080E-02  0.81543820949E-01  0.82771191977E-01  0.51100000000E-03 0. -1.
         11    1    4    4    0    0  0.13154064517E-01  0.88875267730E-02  0.46407658985E-01  0.49050478886E-01  0.51100000000E-03 0.  1.
</event>
<event>
 8    1  0.1138737E+005  0.1043930E+01  0.7957747E-01            NaN
         13   -1    0    0    0    0  0.00000000000E+00  0.00000000000E+00  0.74505805969E-08  0.10566000000E+00  0.10566000000E+00 0.  1.
     999900   -1    0    0    0    0 -0.00000000000E+00 -0.00000000000E+00 -0.74505805969E-08  0.93827000000E+00  0.93827000000E+00 0.  1.
     999902    2    1    2    0    0 -0.43853523569E-02 -0.23096683049E-01 -0.59564079883E-02  0.10196778479E+01  0.10193893990E+01 0.  0.
     999903    2    3    3    0    0  0.68621183158E-01  0.88551054919E-01  0.57238807720E-01  0.12738372216E+00  0.20004385944E-01 0.  0.
         14    1    1    2    0    0  0.43853523569E-02  0.23096683049E-01  0.59564079883E-02  0.24252152055E-01  0.00000000000E+00 0.  1.
     999901    1    3    3    0    0 -0.73006535515E-01 -0.11164773797E+00 -0.63195215708E-01  0.89229412578E+00  0.88000000000E+00 0.  1.
        -11    1    4    4    0    0  0.23619980619E-01  0.46609592169E-01  0.27654467220E-01  0.59121808538E-01  0.51100000000E-03 0. -1.
         11    1    4    4    0    0  0.45001202539E-01  0.41941462750E-01  0.29584340499E-01  0.68261913623E-01  0.51100000000E-03 0.  1.
</event>
<event>
 8    1  0.1138737E+005  0.1043930E+01  0.7957747E-01            NaN
         13   -1    0    0    0    0  0.00000000000E+00  0.00000000000E+00  0.74505805969E-08  0.10566000000E+00  0.10566000000E+00 0. -1.
     999900   -1    0    0    0    0 -0.00000000000E+00 -0.00000000000E+00 -0.74505805969E-08  0.93827000000E+00  0.93827000000E+00 0.  1.
     999902    2    1    2    0    0 -0.35300998019E-02  0.22762907129E-01  0.57856328977E-02  0.10201795243E+01  0.10199030232E+01 0.  0.
     999903    2    3    3    0    0 -0.10091077576E+00 -0.77098275171E-01  0.11268202060E-01  0.12917710553E+00  0.20799603749E-01 0.  0.
         14    1    1    2    0    0  0.35300998019E-02 -0.22762907129E-01 -0.57856328977E-02  0.23750475650E-01  0.00000000000E+00 0.  1.
     999901    1    3    3    0    0  0.97380675959E-01  0.99861182300E-01 -0.54825691619E-02  0.89100241882E+00  0.88000000000E+00 0. -1.
        -11    1    4    4    0    0 -0.31770078071E-01 -0.16501386453E-01 -0.38275714797E-02  0.36007569203E-01  0.51100000000E-03 0. -1.
         11    1    4    4    0    0 -0.69140697690E-01 -0.60596888717E-01  0.15095773539E-01  0.93169536325E-01  0.51100000000E-03 0.  1.
</event>
<event>
 8    1  0.1138737E+005  0.1043930E+01  0.7957747E-01            NaN
         13   -1    0    0    0    0  0.00000000000E+00  0.00000000000E+00  0.74505805969E-08  0.10566000000E+00  0.10566000000E+00 0.  1.
     999900   -1    0    0    0    0 -0.00000000000E+00 -0.00000000000E+00 -0.74505805969E-08  0.93827000000E+00  0.93827000000E+00 0.  1.
     999902    2    1    2    0    0 -0.16857113857E-02 -0.22352801494E-01  0.60787329988E-02  0.10207041447E+01  0.10204398614E+01 0.  0.
     999903    2    3    3    0    0 -0.16289821037E-01  0.81252721691E-01  0.97800634072E-01  0.12977188492E+00  0.20209281039E-01 0.  0.
         14    1    1    2    0    0  0.16857113857E-02  0.22352801494E-01 -0.60787329988E-02  0.23225855256E-01  0.00000000000E+00 0. -1.
     999901    1    3    3    0    0  0.14604109651E-01 -0.10360552318E+00 -0.91721901073E-01  0.89093225982E+00  0.88000000000E+00 0. -1.
        -11    1    4    4    0    0 -0.98746281373E-02  0.19838700035E-01  0.16271984213E-01  0.27497652466E-01  0.51100000000E-03 0. -1.
         11    1    4    4    0    0 -0.64151928999E-02  0.61414021656E-01  0.81528649859E-01  0.10227423246E+00  0.51100000000E-03 0.  1.
</event>
<event>
 8    1  0.1138737E+005  0.1043930E+01  0.7957747E-01            NaN
         13   -1    0    0    0    0  0.00000000000E+00  0.00000000000E+00  0.74505805969E-08  0.10566000000E+00  0.10566000000E+00 0.  1.
     999900   -1    0    0    0    0 -0.00000000000E+00 -0.00000000000E+00 -0.74505805969E-08  0.93827000000E+00  0.93827000000E+00 0. -1.
     999902    2    1    2    0    0  0.77471614094E-02  0.22268372091E-01  0.16590289110E-02  0.10202941949E+01  0.10200203885E+01 0.  0.
     999903    2    3    3    0    0 -0.99880473612E-01  0.82166061327E-01 -0.14139281789E-01  0.13157543871E+00  0.19616476212E-01 0.  0.
         14    1    1    2    0    0 -0.77471614094E-02 -0.22268372091E-01 -0.16590289110E-02  0.23635805093E-01  0.00000000000E+00 0. -1.
     999901    1    3    3    0    0  0.10762763502E+00 -0.59897689236E-01  0.15798310700E-01  0.88871875620E+00  0.88000000000E+00 0.  1.
        -11    1    4    4    0    0 -0.29327275678E-01  0.31768307808E-01  0.24034626601E-02  0.43305337240E-01  0.51100000000E-03 0.  1.
         11    1    4    4    0    0 -0.70553197934E-01  0.50397753519E-01 -0.16542744449E-01  0.88270101469E-01  0.51100000000E-03 0. -1.
</event>
<event>
 7    1  0.1138737E+005  0.1043930E+01  0.7957747E-01            NaN
         13   -1    0    0    0    0  0.00000000000E+00  0.00000000000E+00  0.74505805969E-08  0.10566000000E+00  0.10566000000E+00 0.  1.
     999900   -1    0    0    0    0 -0.00000000000E+00 -0.00000000000E+00 -0.74505805969E-08  0.93827000000E+00  0.93827000000E+00 0.  1.
     999903    2    1    2    0    0 -0.54931226596E-01 -0.46740556119E-01  0.58912242000E-01  0.95472021399E-01  0.21027015265E-01 0.  0.
         14    1    1    2    0    0  0.48845899824E-01  0.96646447362E-02  0.37585744672E-01  0.62386019989E-01  0.00000000000E+00 0.  1.
     999901    1    1    2    0    0  0.60853267714E-02  0.37075911383E-01 -0.96497986672E-01  0.88607195861E+00  0.88000000000E+00 0.  1.
        -11    1    3    3    0    0 -0.51799677000E-01 -0.39649976995E-01  0.44088369532E-01  0.78736095039E-01  0.51100000000E-03 0.  1.
         11    1    3    3    0    0 -0.31315495958E-02 -0.70905791244E-02  0.14823872468E-01  0.16735926360E-01  0.51100000000E-03 0. -1.
</event>
<event>
 8    1  0.1138737E+005  0.1043930E+01  0.7957747E-01            NaN
         13   -1    0    0    0    0  0.00000000000E+00  0.00000000000E+00  0.74505805969E-08  0.10566000000E+00  0.10566000000E+00 0.  1.
     999900   -1    0    0    0    0 -0.00000000000E+00 -0.00000000000E+00 -0.74505805969E-08  0.93827000000E+00  0.93827000000E+00 0. -1.
     999902    2    1    2    0    0  0.82748429404E-02 -0.72787677310E-02 -0.20129665184E-01  0.10209809934E+01  0.10207230437E+01 0.  0.
     999903    2    3    3    0    0  0.11668196742E+00  0.49266290108E-01 -0.33138060680E-01  0.13243236410E+00  0.19958735796E-01 0.  0.
         14    1    1    2    0    0 -0.82748429404E-02  0.72787677310E-02  0.20129665184E-01  0.22949006641E-01  0.00000000000E+00 0.  1.
     999901    1    3    3    0    0 -0.10840712448E+00 -0.56545057839E-01  0.13008395496E-01  0.88854862926E+00  0.88000000000E+00 0. -1.
        -11    1    4    4    0    0  0.62562167021E-01  0.18901790580E-01 -0.95915590007E-02  0.66057259665E-01  0.51100000000E-03 0.  1.
         11    1    4    4    0    0  0.54119800396E-01  0.30364499529E-01 -0.23546501680E-01  0.66375104436E-01  0.51100000000E-03 0. -1.
</event>
<event>
 8    1  0.1138737E+005  0.1043930E+01  0.7957747E-01            NaN
         13   -1    0    0    0    0  0.00000000000E+00  0.00000000000E+00  0.74505805969E-08  0.10566000000E+00  0.10566000000E+00 0.  1.
     999900   -1    0    0    0    0 -0.00000000000E+00 -0.00000000000E+00 -0.74505805969E-08  0.93827000000E+00  0.93827000000E+00 0.  1.
     999902    2    1    2    0    0  0.63840540107E-02 -0.22775441592E-01  0.17879663486E-02  0.10202092557E+01  0.10199334546E+01 0.  0.
     999903    2    3    3    0    0  0.32968206755E-01  0.13790479034E-01 -0.12362226391E+00  0.13016908271E+00  0.19607294280E-01 0.  0.
         14    1    1    2    0    0 -0.63840540107E-02  0.22775441592E-01 -0.17879663486E-02  0.23720744276E-01  0.00000000000E+00 0. -1.
     999901    1    3    3    0    0 -0.26584152744E-01 -0.36565920627E-01  0.12541023026E+00  0.89004017302E+00  0.88000000000E+00 0. -1.
        -11    1    4    4    0    0  0.20266696671E-01  0.15375973392E-01 -0.10115778995E+00  0.10430876828E+00  0.51100000000E-03 0.  1.
         11    1    4    4    0    0  0.12701510084E-01 -0.15854943583E-02 -0.22464473969E-01  0.25860314431E-01  0.51100000000E-03 0. -1.
</event>
<event>
 8    1  0.1138737E+005  0.1043930E+01  0.7957747E-01            NaN
         13   -1    0    0    0    0  0.00000000000E+00  0.00000000000E+00  0.74505805969E-08  0.10566000000E+00  0.10566000000E+00 0. -1.
     999900   -1    0    0    0    0 -0.00000000000E+00 -0.00000000000E+00 -0.74505805969E-08  0.93827000000E+00  0.93827000000E+00 0. -1.
     999902    2    1    2    0    0 -0.94456961134E-02  0.40889093622E-02 -0.22619799631E-01  0.10190785274E+01  0.10187754656E+01 0.  0.
     999903    2    3    3    0    0  0.19523990372E-01  0.34040885272E-01  0.11844662106E+00  0.12686997631E+00  0.22943861473E-01 0.  0.
         14    1    1    2    0    0  0.94456961134E-02 -0.40889093622E-02  0.22619799631E-01  0.24851472596E-01  0.00000000000E+00 0. -1.
     999901    1    3    3    0    0 -0.28969686486E-01 -0.29951975910E-01 -0.14106642069E+00  0.89220855109E+00  0.88000000000E+00 0. -1.
        -11    1    4    4    0    0  0.68220779888E-02  0.27789540008E-01  0.97263083542E-01  0.10138623093E+00  0.51100000000E-03 0. -1.
         11    1    4    4    0    0  0.12701912384E-01  0.62513452633E-02  0.21183537516E-01  0.25483745378E-01  0.51100000000E-03 0.  1.
</event>
<event>
 8    1  0.1138737E+005  0.1043930E+01  0.7957747E-01            NaN
         13   -1    0    0    0    0  0.00000000000E+00  0.00000000000E+00  0.74505805969E-08  0.10566000000E+00  0.10566000000E+00 0.  1.
     999900   -1    0    0    0    0 -0.00000000000E+00 -0.00000000000E+00 -0.74505805969E-08  0.93827000000E+00  0.93827000000E+00 0.  1.
     999902    2    1    2    0    0  0.22705565847E-01  0.12113795067E-01 -0.10500822401E-01  0.10161351440E+01  0.10157549295E+01 0.  0.
     999903    2    3    3    0    0 -0.11922828939E+00 -0.75900254515E-02 -0.27800850727E-01  0.12437690834E+00  0.20584813609E-01 0.  0.
         14    1    1    2    0    0 -0.22705565847E-01 -0.12113795067E-01  0.10500822401E-01  0.27794856043E-01  0.00000000000E+00 0. -1.
     999901    1    3    3    0    0  0.14193385523E+00  0.19703820519E-01  0.17300028326E-01  0.89175823561E+00  0.88000000000E+00 0. -1.
        -11    1    4    4    0    0 -0.68697991530E-01  0.13283831283E-02 -0.72251150792E-02  0.69091548332E-01  0.51100000000E-03 0. -1.
         11    1    4    4    0    0 -0.50530297858E-01 -0.89184085798E-02 -0.20575735648E-01  0.55285360012E-01  0.51100000000E-03 0.  1.
</event>
<event>
 8    1  0.1138737E+005  0.1043930E+01  0.7957747E-01            NaN
         13   -1    0    0    0    0  0.00000000000E+00  0.00000000000E+00  0.74505805969E-08  0.10566000000E+00  0.10566000000E+00 0. -1.
     999900   -1    0    0    0    0 -0.00000000000E+00 -0.00000000000E+00 -0.74505805969E-08  0.93827000000E+00  0.93827000000E+00 0.  1.
     999902    2    1    2    0    0  0.62229774123E-02  0.21213060198E-01  0.77882247994E-02  0.10204912326E+01  0.10202220249E+01 0.  0.
     999903    2    3    3    0    0 -0.24748149342E-01  0.91798599888E-01  0.91067003495E-01  0.13320498563E+00  0.20271044253E-01 0.  0.
         14    1    1    2    0    0 -0.62229774123E-02 -0.21213060198E-01 -0.77882247994E-02  0.23438767381E-01  0.00000000000E+00 0. -1.
     999901    1    3    3    0    0  0.30971126755E-01 -0.70585539690E-01 -0.83278778696E-01  0.88728624698E+00  0.88000000000E+00 0.  1.
        -11    1    4    4    0    0 -0.95142673057E-04  0.16796030989E-01  0.25693919070E-01  0.30701047332E-01  0.51100000000E-03 0.  1.
         11    1    4    4    0    0 -0.24653006669E-01  0.75002568899E-01  0.65373084425E-01  0.10250393830E+00  0.51100000000E-03 0. -1.
</event>
<event>
 8    1  0.1138737E+005  0.1043930E+01  0.7957747E-01            NaN
         13   -1    0    0    0    0  0.00000000000E+00  0.00000000000E+00  0.74505805969E-08  0.10566000000E+00  0.10566000000E+00 0. -1.
     999900   -1    0    0    0    0 -0.00000000000E+00 -0.00000000000E+00 -0.74505805969E-08  0.93827000000E+00  0.93827000000E+00 0.  1.
     999902    2    1    2    0    0 -0.17779146395E-01  0.15158060481E-01 -0.30628458094E-02  0.10203663443E+01  0.10200942264E+01 0.  0.
     999903    2    3    3    0    0 -0.12434976778E+00 -0.22528855324E-01 -0.34672100916E-01  0.13257315559E+00  0.20076676314E-01 0.  0.
         14    1    1    2    0    0  0.17779146395E-01 -0.15158060481E-01  0.30628458094E-02  0.23563655670E-01  0.00000000000E+00 0.  1.
     999901    1    3    3    0    0  0.10657062139E+00  0.37686915805E-01  0.31609255107E-01  0.88779318874E+00  0.88000000000E+00 0.  1.
        -11    1    4    4    0    0 -0.69187644456E-01 -0.17993422903E-01 -0.10832645075E-01  0.72306989520E-01  0.51100000000E-03 0. -1.
         11    1    4    4    0    0 -0.55162123324E-01 -0.45354324211E-02 -0.23839455842E-01  0.60266166070E-01  0.51100000000E-03 0.  1.
</event>
<event>
 8    1  0.1138737E+005  0.1043930E+01  0.7957747E-01            NaN
         13   -1    0    0    0    0  0.00000000000E+00  0.00000000000E+00  0.74505805969E-08  0.10566000000E+00  0.10566000000E+00 0.  1.
     999900   -1    0    0    0    0 -0.00000000000E+00 -0.00000000000E+00 -0.74505805969E-08  0.93827000000E+00  0.93827000000E+00 0. -1.
     999902    2    1    2    0    0 -0.31458500571E-02 -0.11771226220E-01  0.27561826969E-01  0.10137950959E+01  0.10133471192E+01 0.  0.
     999903    2    3    3    0    0  0.45809665157E-01 -0.11225752807E+00  0.30864788334E-01  0.12671840875E+00  0.20115713420E-01 0.  0.
         14    1    1    2    0    0  0.31458500571E-02  0.11771226220E-01 -0.27561826969E-01  0.30134904101E-01  0.00000000000E+00 0. -1.
     999901    1    3    3    0    0 -0.48955515214E-01  0.10048630185E+00 -0.33029613650E-02  0.88707668715E+00  0.88000000000E+00 0.  1.
        -11    1    4    4    0    0  0.11986171380E-01 -0.40617227009E-01  0.20012549495E-02  0.42399216699E-01  0.51100000000E-03 0. -1.
         11    1    4    4    0    0  0.33823493777E-01 -0.71640301063E-01  0.28863533384E-01  0.84319192051E-01  0.51100000000E-03 0.  1.
</event>
<event>
 8    1  0.1138737E+005  0.1043930E+01  0.7957747E-01            NaN
         13   -1    0    0    0    0  0.00000000000E+00  0.00000000000E+00  0.74505805969E-08  0.10566000000E+00  0.10566000000E+00 0.  1.
     999900   -1    0    0    0    0 -0.00000000000E+00 -0.00000000000E+00 -0.74505805969E-08  0.93827000000E+00  0.93827000000E+00 0.  1.
     999902    2    1    2    0    0  0.16089158734E-01 -0.10718543381E-01  0.14823619543E-01  0.10195683930E+01  0.10192773028E+01 0.  0.
     999903    2    3    3    0    0 -0.24844762629E-01 -0.12657868794E+00 -0.78578756936E-02  0.13074129547E+00  0.19801859997E-01 0.  0.
         14    1    1    2    0    0 -0.16089158734E-01  0.10718543381E-01 -0.14823619543E-01  0.24361607035E-01  0.00000000000E+00 0. -1.
     999901    1    3    3    0    0  0.40933921363E-01  0.11586014456E+00  0.22681495236E-01  0.88882709750E+00  0.88000000000E+00 0.  1.
        -11    1    4    4    0    0 -0.26857574088E-01 -0.97791522225E-01 -0.93276562630E-02  0.10184192357E+00  0.51100000000E-03 0.  1.
         11    1    4    4    0    0  0.20128114591E-02 -0.28787165717E-01  0.14697805694E-02  0.28899371895E-01  0.51100000000E-03 0. -1.
</event>
<event>
 8    1  0.1138737E+005  0.1043930E+01  0.7957747E-01            NaN
         13   -1    0    0    0    0  0.00000000000E+00  0.00000000000E+00  0.74505805969E-08  0.10566000000E+00  0.10566000000E+00 0.  1.
     999900   -1    0    0    0    0 -0.00000000000E+00 -0.00000000000E+00 -0.74505805969E-08  0.93827000000E+00  0.93827000000E+00 0.  1.
     999902    2    1    2    0    0  0.16742319722E-01  0.56039163186E-02  0.14765664455E-01  0.10209140491E+01  0.10206545751E+01 0.  0.
     999903    2    3    3    0    0 -0.38871875558E-01 -0.92954788000E-01  0.80437806427E-01  0.13124018352E+00  0.24538332179E-01 0.  0.
         14    1    1    2    0    0 -0.16742319722E-01 -0.56039163186E-02 -0.14765664455E-01  0.23015950873E-01  0.00000000000E+00 0. -1.
     999901    1    3    3    0    0  0.55614195280E-01  0.98558704318E-01 -0.65672141972E-01  0.88967386561E+00  0.88000000000E+00 0.  1.
        -11    1    4    4    0    0 -0.15815780829E-01 -0.35258031014E-01  0.46423497052E-01  0.60404220662E-01  0.51100000000E-03 0. -1.
         11    1    4    4    0    0 -0.23056094729E-01 -0.57696756985E-01  0.34014309375E-01  0.70835962858E-01  0.51100000000E-03 0.  1.
</event>
<event>
 8    1  0.1138737E+005  0.1043930E+01  0.7957747E-01            NaN
         13   -1    0    0    0    0  0.00000000000E+00  0.00000000000E+00  0.74505805969E-08  0.10566000000E+00  0.10566000000E+00 0. -1.
     999900   -1    0    0    0    0 -0.00000000000E+00 -0.00000000000E+00 -0.74505805969E-08  0.93827000000E+00  0.93827000000E+00 0. -1.
     999902    2    1    2    0    0  0.44289712129E-02 -0.22651189206E-01  0.84453969552E-02  0.10193532450E+01  0.10190569273E+01 0.  0.
     999903    2    3    3    0    0  0.11596074425E+00  0.30675157782E-01  0.45722843773E-01  0.12993059868E+00  0.20087869906E-01 0.  0.
         14    1    1    2    0    0 -0.44289712129E-02  0.22651189206E-01 -0.84453969552E-02  0.24576755038E-01  0.00000000000E+00 0.  1.
     999901    1    3    3    0    0 -0.11153177304E+00 -0.53326346988E-01 -0.37277446818E-01  0.88942264628E+00  0.88000000000E+00 0. -1.
        -11    1    4    4    0    0  0.27618394732E-01  0.15741013561E-01  0.15524320782E-01  0.35381080993E-01  0.51100000000E-03 0.  1.
         11    1    4    4    0    0  0.88342349522E-01  0.14934144221E-01  0.30198522992E-01  0.94549517686E-01  0.51100000000E-03 0. -1.
</event>
<event>
 8    1  0.1138737E+005  0.1043930E+01  0.7957747E-01            NaN
         13   -1    0    0    0    0  0.00000000000E+00  0.00000000000E+00  0.74505805969E-08  0.10566000000E+00  0.10566000000E+00 0. -1.
     999900   -1    0    0    0    0 -0.00000000000E+00 -0.00000000000E+00 -0.74505805969E-08  0.93827000000E+00  0.93827000000E+00 0. -1.
     999902    2    1    2    0    0  0.18302686964E-01 -0.36127344125E-02  0.13504978768E-01  0.10208990501E+01  0.10206392340E+01 0.  0.
     999903    2    3    3    0    0  0.67873513877E-01  0.89606685995E-01 -0.64758307793E-01  0.13113938076E+00  0.19176201338E-01 0.  0.
         14    1    1    2    0    0 -0.18302686964E-01  0.36127344125E-02 -0.13504978768E-01  0.23030949862E-01  0.00000000000E+00 0.  1.
     999901    1    3    3    0    0 -0.49570826913E-01 -0.93219420408E-01  0.78263286561E-01  0.88975966937E+00  0.88000000000E+00 0.  1.
        -11    1    4    4    0    0  0.38409160016E-01  0.48192857921E-01 -0.24582435198E-01  0.66350375802E-01  0.51100000000E-03 0.  1.
         11    1    4    4    0    0  0.29464353861E-01  0.41413828074E-01 -0.40175872595E-01  0.64789004962E-01  0.51100000000E-03 0. -1.
</event>
<event>
 8    1  0.1138737E+005  0.1043930E+01  0.7957747E-01            NaN
         13   -1    0    0    0    0  0.00000000000E+00  0.00000000000E+00  0.74505805969E-08  0.10566000000E+00  0.10566000000E+00 0.  1.
     999900   -1    0    0    0    0 -0.00000000000E+00 -0.00000000000E+00 -0.74505805969E-08  0.93827000000E+00  0.93827000000E+00 0.  1.
     999902    2    1    2    0    0 -0.10702655804E-01 -0.19279446955E-01 -0.11416906403E-01  0.10190987763E+01  0.10187962143E+01 0.  0.
     999903    2    3    3    0    0  0.12080025209E+00 -0.35832426998E-01  0.16861579068E-01  0.12872431093E+00  0.20223047420E-01 0.  0.
         14    1    1    2    0    0  0.10702655804E-01  0.19279446955E-01  0.11416906403E-01  0.24831223650E-01  0.00000000000E+00 0.  1.
     999901    1    3    3    0    0 -0.13150290789E+00  0.16552980043E-01 -0.28278485471E-01  0.89037446542E+00  0.88000000000E+00 0.  1.
        -11    1    4    4    0    0  0.99641613311E-01 -0.34430701115E-01  0.19933640308E-01  0.10729182364E+00  0.51100000000E-03 0.  1.
         11    1    4    4    0    0  0.21158638775E-01 -0.14017258829E-02 -0.30720612398E-02  0.21432487292E-01  0.51100000000E-03 0. -1.
</event>
<event>
 8    1  0.1138737E+005  0.1043930E+01  0.7957747E-01            NaN
         13   -1    0    0    0    0  0.00000000000E+00  0.00000000000E+00  0.74505805969E-08  0.10566000000E+00  0.10566000000E+00 0. -1.
     999900   -1    0    0    0    0 -0.00000000000E+00 -0.00000000000E+00 -0.74505805969E-08  0.93827000000E+00  0.93827000000E+00 0.  1.
     999902    2    1    2    0    0  0.84265507454E-02 -0.56028941166E-02  0.22091416696E-01  0.10196312372E+01  0.10193416650E+01 0.  0.
     999903    2    3    3    0    0 -0.40302181441E-01  0.95301034272E-01  0.76232275531E-01  0.13087518258E+00  0.24706287054E-01 0.  0.
         14    1    1    2    0    0 -0.84265507454E-02  0.56028941166E-02 -0.22091416696E-01  0.24298762758E-01  0.00000000000E+00 0.  1.
     999901    1    3    3    0    0  0.48728732187E-01 -0.10090392839E+00 -0.54140858835E-01  0.88875605466E+00  0.88000000000E+00 0.  1.
        -11    1    4    4    0    0 -0.29024083592E-03  0.23108129330E-01  0.10645554405E-01  0.25449142037E-01  0.51100000000E-03 0.  1.
         11    1    4    4    0    0 -0.40011940605E-01  0.72192904943E-01  0.65586721126E-01  0.10542604054E+00  0.51100000000E-03 0. -1.
</event>
<event>
 8    1  0.1138737E+005  0.1043930E+01  0.7957747E-01            NaN
         13   -1    0    0    0    0  0.00000000000E+00  0.00000000000E+00  0.74505805969E-08  0.10566000000E+00  0.10566000000E+00 0.  1.
     999900   -1    0    0    0    0 -0.00000000000E+00 -0.00000000000E+00 -0.74505805969E-08  0.93827000000E+00  0.93827000000E+00 0.  1.
     999902    2    1    2    0    0 -0.18766713226E-01 -0.27608774395E-02 -0.14433781753E-01  0.10200941861E+01  0.10198156708E+01 0.  0.
     999903    2    3    3    0    0 -0.36421272429E-01  0.12347778098E+00 -0.11896026387E-01  0.13090673535E+00  0.20537439781E-01 0.  0.
         14    1    1    2    0    0  0.18766713226E-01  0.27608774395E-02  0.14433781753E-01  0.23835813920E-01  0.00000000000E+00 0.  1.
     999901    1    3    3    0    0  0.17654559203E-01 -0.12623865842E+00 -0.25377553661E-02  0.88918745073E+00  0.88000000000E+00 0.  1.
        -11    1    4    4    0    0 -0.15093685719E-01  0.22363201245E-01 -0.11608857363E-02  0.27010014720E-01  0.51100000000E-03 0. -1.
         11    1    4    4    0    0 -0.21327586710E-01  0.10111457974E+00 -0.10735140651E-01  0.10389672062E+00  0.51100000000E-03 0.  1.
</event>
<event>
 8    1  0.1138737E+005  0.1043930E+01  0.7957747E-01            NaN
         13   -1    0    0    0    0  0.00000000000E+00  0.00000000000E+00  0.74505805969E-08  0.10566000000E+00  0.10566000000E+00 0. -1.
     999900   -1    0    0    0    0 -0.00000000000E+00 -0.00000000000E+00 -0.74505805969E-08  0.93827000000E+00  0.93827000000E+00 0. -1.
     999902    2    1    2    0    0  0.13088842590E-01 -0.18539504906E-01 -0.59696627412E-02  0.10204636855E+01  0.10201938372E+01 0.  0.
     999903    2    3    3    0    0  0.87587736046E-01 -0.80847837285E-01  0.55722649589E-01  0.13297376736E+00  0.19210019007E-01 0.  0.
         14    1    1    2    0    0 -0.13088842590E-01  0.18539504906E-01  0.59696627412E-02  0.23466314490E-01  0.00000000000E+00 0.  1.
     999901    1    3    3    0    0 -0.74498893456E-01  0.62308332379E-01 -0.61692312330E-01  0.88748991815E+00  0.88000000000E+00 0. -1.
        -11    1    4    4    0    0  0.54893062587E-01 -0.44238700936E-01  0.23758466598E-01  0.74397828173E-01  0.51100000000E-03 0.  1.
         11    1    4    4    0    0  0.32694673459E-01 -0.36609136349E-01  0.31964182991E-01  0.58575939191E-01  0.51100000000E-03 0. -1.
</event>
<event>
 8    1  0.1138737E+005  0.1043930E+01  0.7957747E-01            NaN
         13   -1    0    0    0    0  0.00000000000E+00  0.00000000000E+00  0.74505805969E-08  0.10566000000E+00  0.10566000000E+00 0. -1.
     999900   -1    0    0    0    0 -0.00000000000E+00 -0.00000000000E+00 -0.74505805969E-08  0.93827000000E+00  0.93827000000E+00 0.  1.
     999902    2    1    2    0    0  0.15536799475E-01 -0.11232683700E-01  0.13375142075E-01  0.10205535215E+01  0.10202857592E+01 0.  0.
     999903    2    3    3    0    0  0.12810296177E+00  0.69680056688E-02 -0.25682666525E-01  0.13233737755E+00  0.19866056909E-01 0.  0.
         14    1    1    2    0    0 -0.15536799475E-01  0.11232683700E-01 -0.13375142075E-01  0.23376478489E-01  0.00000000000E+00 0.  1.
     999901    1    3    3    0    0 -0.11256616230E+00 -0.18200689369E-01  0.39057808601E-01  0.88821614397E+00  0.88000000000E+00 0. -1.
        -11    1    4    4    0    0  0.77796841934E-01  0.13920731543E-01 -0.15492247915E-01  0.80538228488E-01  0.51100000000E-03 0. -1.
         11    1    4    4    0    0  0.50306119841E-01 -0.69527258741E-02 -0.10190418610E-01  0.51799149057E-01  0.51100000000E-03 0.  1.
</event>
<event>
 8    1  0.1138737E+005  0.1043930E+01  0.7957747E-01            NaN
         13   -1    0    0    0    0  0.00000000000E+00  0.00000000000E+00  0.74505805969E-08  0.10566000000E+00  0.10566000000E+00 0.  1.
     999900   -1    0    0    0    0 -0.00000000000E+00 -0.00000000000E+00 -0.74505805969E-08  0.93827000000E+00  0.93827000000E+00 0. -1.
     999902    2    1    2    0    0 -0.21110462227E-02 -0.81250897735E-02 -0.22038062645E-01  0.10203471714E+01  0.10200746053E+01 0.  0.
     999903    2    3    3    0    0 -0.10766634463E+00  0.48370612854E-01  0.51415441078E-01  0.12920795519E+00  0.10926579948E-01 0.  0.
         14    1    1    2    0    0  0.21110462227E-02  0.81250897735E-02  0.22038062645E-01  0.23582828607E-01  0.00000000000E+00 0.  1.
     999901    1    3    3    0    0  0.10555529841E+00 -0.56495702628E-01 -0.73453503722E-01  0.89113921620E+00  0.88000000000E+00 0. -1.
        -11    1    4    4    0    0 -0.29899171762E-01  0.17414512860E-01  0.11424200320E-01  0.36441723397E-01  0.51100000000E-03 0.  1.
         11    1    4    4    0    0 -0.77767172873E-01  0.30956099994E-01  0.39991240758E-01  0.92766231797E-01  0.51100000000E-03 0. -1.
</event>
<event>
 8    1  0.1138737E+005  0.1043930E+01  0.7957747E-01            NaN
         13   -1    0    0    0    0  0.00000000000E+00  0.00000000000E+00  0.74505805969E-08  0.10566000000E+00  0.10566000000E+00 0. -1.
     999900   -1    0    0    0    0 -0.00000000000E+00 -0.00000000000E+00 -0.74505805969E-08  0.93827000000E+00  0.93827000000E+00 0. -1.
     999902    2    1    2    0    0 -0.30345902460E-02  0.27463128271E-02 -0.23573958435E-01  0.10200033937E+01  0.10197227274E+01 0.  0.
     999903    2    3    3    0    0 -0.29822443097E-01 -0.75266249021E-01 -0.10404392617E+00  0.13249059686E+00  0.13199747369E-01 0.  0.
         14    1    1    2    0    0  0.30345902460E-02 -0.27463128271E-02  0.23573958435E-01  0.23926606287E-01  0.00000000000E+00 0. -1.
     999901    1    3    3    0    0  0.26787852851E-01  0.78012561848E-01  0.80469967733E-01  0.88751279685E+00  0.88000000000E+00 0.  1.
        -11    1    4    4    0    0 -0.20310631164E-01 -0.63455674797E-01 -0.80736974432E-01  0.10467981928E+00  0.51100000000E-03 0. -1.
         11    1    4    4    0    0 -0.95118119331E-02 -0.11810574224E-01 -0.23306951735E-01  0.27810777586E-01  0.51100000000E-03 0.  1.
</event>
<event>
 8    1  0.1138737E+005  0.1043930E+01  0.7957747E-01            NaN
         13   -1    0    0    0    0  0.00000000000E+00  0.00000000000E+00  0.74505805969E-08  0.10566000000E+00  0.10566000000E+00 0.  1.
     999900   -1    0    0    0    0 -0.00000000000E+00 -0.00000000000E+00 -0.74505805969E-08  0.93827000000E+00  0.93827000000E+00 0. -1.
     999902    2    1    2    0    0  0.22984790480E-02  0.16916434797E-01 -0.16006633941E-01  0.10205278398E+01  0.10202594820E+01 0.  0.
     999903    2    3    3    0    0 -0.64423815121E-01  0.95750573968E-01 -0.63724548376E-01  0.13320395000E+00  0.19075477992E-01 0.  0.
         14    1    1    2    0    0 -0.22984790480E-02 -0.16916434797E-01  0.16006633941E-01  0.23402160206E-01  0.00000000000E+00 0.  1.
     999901    1    3    3    0    0  0.66722294169E-01 -0.78834139170E-01  0.47717914435E-01  0.88732388979E+00  0.88000000000E+00 0. -1.
        -11    1    4    4    0    0 -0.29994895571E-01  0.61007389587E-01 -0.39368633629E-01  0.78560459389E-01  0.51100000000E-03 0. -1.
         11    1    4    4    0    0 -0.34428919550E-01  0.34743184381E-01 -0.24355914746E-01  0.54643490613E-01  0.51100000000E-03 0.  1.
</event>
<event>
 8    1  0.1138737E+005  0.1043930E+01  0.7957747E-01            NaN
         13   -1    0    0    0    0  0.00000000000E+00  0.00000000000E+00  0.74505805969E-08  0.10566000000E+00  0.10566000000E+00 0. -1.
     999900   -1    0    0    0    0 -0.00000000000E+00 -0.00000000000E+00 -0.74505805969E-08  0.93827000000E+00  0.93827000000E+00 0.  1.
     999902    2    1    2    0    0 -0.17347764819E-01  0.45779028046E-02  0.14697985328E-01  0.10207366192E+01  0.10204730829E+01 0.  0.
     999903    2    3    3    0    0 -0.35722640350E-01 -0.75170941504E-01 -0.97605603794E-01  0.12983280269E+00  0.20072998822E-01 0.  0.
         14    1    1    2    0    0  0.17347764819E-01 -0.45779028046E-02 -0.14697985328E-01  0.23193380758E-01  0.00000000000E+00 0. -1.
     999901    1    3    3    0    0  0.18374875531E-01  0.79748844308E-01  0.11230358912E+00  0.89090381655E+00  0.88000000000E+00 0. -1.
        -11    1    4    4    0    0 -0.20964376945E-01 -0.23861797231E-01 -0.43005873580E-01  0.53466407689E-01  0.51100000000E-03 0. -1.
         11    1    4    4    0    0 -0.14758263405E-01 -0.51309144273E-01 -0.54599730215E-01  0.76366395000E-01  0.51100000000E-03 0.  1.
</event>
<event>
 8    1  0.1138737E+005  0.1043930E+01  0.7957747E-01            NaN
         13   -1    0    0    0    0  0.00000000000E+00  0.00000000000E+00  0.74505805969E-08  0.10566000000E+00  0.10566000000E+00 0.  1.
     999900   -1    0    0    0    0 -0.00000000000E+00 -0.00000000000E+00 -0.74505805969E-08  0.93827000000E+00  0.93827000000E+00 0.  1.
     999902    2    1    2    0    0 -0.18575572434E-01 -0.75822780197E-02  0.13106732909E-01  0.10199648320E+01  0.10196832494E+01 0.  0.
     999903    2    3    3    0    0 -0.81386393682E-02  0.96061309857E-01  0.86108648872E-01  0.13081906067E+00  0.20122487979E-01 0.  0.
         14    1    1    2    0    0  0.18575572434E-01  0.75822780197E-02 -0.13106732909E-01  0.23965168032E-01  0.00000000000E+00 0. -1.
     999901    1    3    3    0    0 -0.10436933066E-01 -0.10364358788E+00 -0.73001915962E-01  0.88914577130E+00  0.88000000000E+00 0.  1.
        -11    1    4    4    0    0  0.46224444257E-02  0.81770983258E-02  0.11293978910E-01  0.14698537686E-01  0.51100000000E-03 0.  1.
         11    1    4    4    0    0 -0.12761083794E-01  0.87884211531E-01  0.74814669962E-01  0.11612052299E+00  0.51100000000E-03 0. -1.
</event>
<event>
 8    1  0.1138737E+005  0.1043930E+01  0.7957747E-01            NaN
         13   -1    0    0    0    0  0.00000000000E+00  0.00000000000E+00  0.74505805969E-08  0.10566000000E+00  0.10566000000E+00 0.  1.
     999900   -1    0    0    0    0 -0.00000000000E+00 -0.00000000000E+00 -0.74505805969E-08  0.93827000000E+00  0.93827000000E+00 0.  1.
     999902    2    1    2    0    0 -0.17445823900E-01  0.83819337827E-02 -0.15941244992E-01  0.10188553738E+01  0.10185467765E+01 0.  0.
     999903    2    3    3    0    0 -0.11453085614E+00  0.59656450522E-01  0.16907758551E-01  0.13142445450E+00  0.17615500128E-01 0.  0.
         14    1    1    2    0    0  0.17445823900E-01 -0.83819337827E-02  0.15941244992E-01  0.25074626167E-01  0.00000000000E+00 0. -1.
     999901    1    3    3    0    0  0.97085032240E-01 -0.51274516739E-01 -0.32849003543E-01  0.88743091933E+00  0.88000000000E+00 0.  1.
        -11    1    4    4    0    0 -0.36625753715E-01  0.19873233506E-01  0.13778177494E-01  0.43891804944E-01  0.51100000000E-03 0.  1.
         11    1    4    4    0    0 -0.77905102426E-01  0.39783217015E-01  0.31295810569E-02  0.87532649558E-01  0.51100000000E-03 0. -1.
</event>
<event>
 8    1  0.1138737E+005  0.1043930E+01  0.7957747E-01            NaN
         13   -1    0    0    0    0  0.00000000000E+00  0.00000000000E+00  0.74505805969E-08  0.10566000000E+00  0.10566000000E+00 0.  1.
     999900   -1    0    0    0    0 -0.00000000000E+00 -0.00000000000E+00 -0.74505805969E-08  0.93827000000E+00  0.93827000000E+00 0. -1.
     999902    2    1    2    0    0  0.23325461468E-01  0.10872878870E-03  0.17704413511E-02  0.10205371926E+01  0.10202690518E+01 0.  0.
     999903    2    3    3    0    0  0.57547372429E-01  0.91040823284E-01 -0.73570785516E-01  0.13199001578E+00  0.20213169139E-01 0.  0.
         14    1    1    2    0    0 -0.23325461468E-01 -0.10872878870E-03 -0.17704413511E-02  0.23392807382E-01  0.00000000000E+00 0. -1.
     999901    1    3    3    0    0 -0.34221910961E-01 -0.90932094495E-01  0.75341226867E-01  0.88854717684E+00  0.88000000000E+00 0.  1.
        -11    1    4    4    0    0  0.45252176105E-01  0.59312567135E-01 -0.58331964563E-01  0.94702794432E-01  0.51100000000E-03 0.  1.
         11    1    4    4    0    0  0.12295196325E-01  0.31728256149E-01 -0.15238820953E-01  0.37287221349E-01  0.51100000000E-03 0. -1.
</event>
<event>
 8    1  0.1138737E+005  0.1043930E+01  0.7957747E-01            NaN
         13   -1    0    0    0    0  0.00000000000E+00  0.00000000000E+00  0.74505805969E-08  0.10566000000E+00  0.10566000000E+00 0.  1.
     999900   -1    0    0    0    0 -0.00000000000E+00 -0.00000000000E+00 -0.74505805969E-08  0.93827000000E+00  0.93827000000E+00 0. -1.
     999902    2    1    2    0    0 -0.18421956064E-01 -0.49486276245E-02  0.14077071567E-01  0.10202230111E+01  0.10199475334E+01 0.  0.
     999903    2    3    3    0    0  0.97012303275E-01  0.68326972733E-01 -0.42844868047E-01  0.12784725554E+00  0.20718972975E-01 0.  0.
         14    1    1    2    0    0  0.18421956064E-01  0.49486276245E-02 -0.14077071567E-01  0.23706988938E-01  0.00000000000E+00 0. -1.
     999901    1    3    3    0    0 -0.11543425934E+00 -0.73275600357E-01  0.56921939614E-01  0.89237575552E+00  0.88000000000E+00 0. -1.
        -11    1    4    4    0    0  0.75385703727E-01  0.50041348896E-01 -0.23309332111E-01  0.93438359415E-01  0.51100000000E-03 0.  1.
         11    1    4    4    0    0  0.21626599548E-01  0.18285623837E-01 -0.19535535935E-01  0.34408896123E-01  0.51100000000E-03 0. -1.
</event>
<event>
 8    1  0.1138737E+005  0.1043930E+01  0.7957747E-01            NaN
         13   -1    0    0    0    0  0.00000000000E+00  0.00000000000E+00  0.74505805969E-08  0.10566000000E+00  0.10566000000E+00 0.  1.
     999900   -1    0    0    0    0 -0.00000000000E+00 -0.00000000000E+00 -0.74505805969E-08  0.93827000000E+00  0.93827000000E+00 0. -1.
     999902    2    1    2    0    0 -0.20285600190E-01 -0.43360737286E-02 -0.17666341105E-01  0.10166828585E+01  0.10163176807E+01 0.  0.
     999903    2    3    3    0    0 -0.98228162564E-01  0.65041203456E-01 -0.50908964414E-01  0.12989465291E+00  0.20044154478E-01 0.  0.
         14    1    1    2    0    0  0.20285600190E-01  0.43360737286E-02  0.17666341105E-01  0.27247141473E-01  0.00000000000E+00 0. -1.
     999901    1    3    3    0    0  0.77942562374E-01 -0.69377277185E-01  0.33242623310E-01  0.88678820562E+00  0.88000000000E+00 0. -1.
        -11    1    4    4    0    0 -0.69135771701E-02  0.73565110315E-02  0.81023417177E-03  0.10140680660E-01  0.51100000000E-03 0.  1.
         11    1    4    4    0    0 -0.91314585394E-01  0.57684692425E-01 -0.51719198586E-01  0.11975397225E+00  0.51100000000E-03 0. -1.
</event>
<event>
 8    1  0.1138737E+005  0.1043930E+01  0.7957747E-01            NaN
         13   -1    0    0    0    0  0.00000000000E+00  0.00000000000E+00  0.74505805969E-08  0.10566000000E+00  0.10566000000E+00 0. -1.
     999900   -1    0    0    0    0 -0.00000000000E+00 -0.00000000000E+00 -0.74505805969E-08  0.93827000000E+00  0.93827000000E+00 0.  1.
     999902    2    1    2    0    0 -0.92943598513E-02 -0.11403986695E-01  0.13547991588E-01  0.10239303972E+01  0.10237350605E+01 0.  0.
     999903    2    3    3    0    0  0.10168494983E+00 -0.29064333975E-01 -0.74349034357E-01  0.13244053058E+00  0.28777607621E-01 0.  0.
         14    1    1    2    0    0  0.92943598513E-02  0.11403986695E-01 -0.13547991588E-01  0.19999602837E-01  0.00000000000E+00 0. -1.
     999901    1    3    3    0    0 -0.11097930968E+00  0.17660347281E-01  0.87897025945E-01  0.89148986658E+00  0.88000000000E+00 0. -1.
        -11    1    4    4    0    0  0.37370238520E-01 -0.25326532188E-01 -0.29099249349E-01  0.53712153125E-01  0.51100000000E-03 0.  1.
         11    1    4    4    0    0  0.64314711309E-01 -0.37378017874E-02 -0.45249785008E-01  0.78728377459E-01  0.51100000000E-03 0. -1.
</event>
<event>
 8    1  0.1138737E+005  0.1043930E+01  0.7957747E-01            NaN
         13   -1    0    0    0    0  0.00000000000E+00  0.00000000000E+00  0.74505805969E-08  0.10566000000E+00  0.10566000000E+00 0.  1.
     999900   -1    0    0    0    0 -0.00000000000E+00 -0.00000000000E+00 -0.74505805969E-08  0.93827000000E+00  0.93827000000E+00 0. -1.
     999902    2    1    2    0    0 -0.76208433017E-02 -0.22605155738E-01  0.10081152092E-02  0.10200535133E+01  0.10197740355E+01 0.  0.
     999903    2    3    3    0    0 -0.10099445020E+00  0.11750185767E-01 -0.79673048285E-01  0.13077944418E+00  0.20433368805E-01 0.  0.
         14    1    1    2    0    0  0.76208433017E-02  0.22605155738E-01 -0.10081152092E-02  0.23876486652E-01  0.00000000000E+00 0.  1.
     999901    1    3    3    0    0  0.93373606894E-01 -0.34355341505E-01  0.80681163495E-01  0.88927406917E+00  0.88000000000E+00 0. -1.
        -11    1    4    4    0    0 -0.72171141218E-01  0.15113677596E-01 -0.64809523199E-01  0.98171443370E-01  0.51100000000E-03 0.  1.
         11    1    4    4    0    0 -0.28823308978E-01 -0.33634918291E-02 -0.14863525087E-01  0.32608000809E-01  0.51100000000E-03 0. -1.
</event>
<event>
 8    1  0.1138737E+005  0.1043930E+01  0.7957747E-01            NaN
         13   -1    0    0    0    0  0.00000000000E+00  0.00000000000E+00  0.74505805969E-08  0.10566000000E+00  0.10566000000E+00 0.  1.
     999900   -1    0    0    0    0 -0.00000000000E+00 -0.00000000000E+00 -0.74505805969E-08  0.93827000000E+00  0.93827000000E+00 0.  1.
     999902    2    1    2    0    0 -0.11283055847E-01  0.20186758062E-01 -0.77744951531E-02  0.10195321451E+01  0.10192401775E+01 0.  0.
     999903    2    3    3    0    0 -0.52482029528E-01  0.94310521418E-01  0.72513569234E-01  0.13181717899E+00  0.21649782431E-01 0.  0.
         14    1    1    2    0    0  0.11283055847E-01 -0.20186758062E-01  0.77744951531E-02  0.24397854930E-01  0.00000000000E+00 0.  1.
     999901    1    3    3    0    0  0.41198973681E-01 -0.74123763355E-01 -0.80288064387E-01  0.88771496608E+00  0.88000000000E+00 0.  1.
        -11    1    4    4    0    0 -0.11253316225E-01  0.30145543534E-01  0.32296376452E-01  0.45592850031E-01  0.51100000000E-03 0.  1.
         11    1    4    4    0    0 -0.41228713303E-01  0.64164977884E-01  0.40217192782E-01  0.86224328955E-01  0.51100000000E-03 0. -1.
</event>
<event>
 8    1  0.1138737E+005  0.1043930E+01  0.7957747E-01            NaN
         13   -1    0    0    0    0  0.00000000000E+00  0.00000000000E+00  0.74505805969E-08  0.10566000000E+00  0.10566000000E+00 0. -1.
     999900   -1    0    0    0    0 -0.00000000000E+00 -0.00000000000E+00 -0.74505805969E-08  0.93827000000E+00  0.93827000000E+00 0. -1.
     999902    2    1    2    0    0 -0.12847901125E-01  0.11927635352E-01  0.15661477815E-01  0.10204221516E+01  0.10201513361E+01 0.  0.
     999903    2    3    3    0    0 -0.11320200423E-03  0.10061622860E+00 -0.80451465283E-01  0.13066626545E+00  0.21853978784E-01 0.  0.
         14    1    1    2    0    0  0.12847901125E-01 -0.11927635352E-01 -0.15661477815E-01  0.23507848386E-01  0.00000000000E+00 0.  1.
     999901    1    3    3    0    0 -0.12734699121E-01 -0.88688593244E-01  0.96112943098E-01  0.88975588616E+00  0.88000000000E+00 0.  1.
        -11    1    4    4    0    0 -0.87573306157E-02  0.44921341995E-01 -0.27892874441E-01  0.53599359807E-01  0.51100000000E-03 0.  1.
         11    1    4    4    0    0  0.86441286115E-02  0.55694886601E-01 -0.52558590843E-01  0.77066905642E-01  0.51100000000E-03 0. -1.
</event>
<event>
 8    1  0.1138737E+005  0.1043930E+01  0.7957747E-01            NaN
         13   -1    0    0    0    0  0.00000000000E+00  0.00000000000E+00  0.74505805969E-08  0.10566000000E+00  0.10566000000E+00 0. -1.
     999900   -1    0    0    0    0 -0.00000000000E+00 -0.00000000000E+00 -0.74505805969E-08  0.93827000000E+00  0.93827000000E+00 0. -1.
     999902    2    1    2    0    0  0.17132810277E-01  0.16788244438E-01 -0.30125693998E-02  0.10197545183E+01  0.10194679121E+01 0.  0.
     999903    2    3    3    0    0 -0.83438091325E-01  0.63966128695E-01 -0.73804652611E-01  0.12995017015E+00  0.19655514999E-01 0.  0.
         14    1    1    2    0    0 -0.17132810277E-01 -0.16788244438E-01  0.30125693998E-02  0.24175481664E-01  0.00000000000E+00 0. -1.
     999901    1    3    3    0    0  0.10057090160E+00 -0.47177884258E-01  0.70792083211E-01  0.88980434819E+00  0.88000000000E+00 0.  1.
        -11    1    4    4    0    0 -0.31819811421E-01  0.29495802021E-01 -0.41206051105E-01  0.59838971452E-01  0.51100000000E-03 0.  1.
         11    1    4    4    0    0 -0.51618279904E-01  0.34470326674E-01 -0.32598601506E-01  0.70111198695E-01  0.51100000000E-03 0. -1.
</event>
<event>
 8    1  0.1138737E+005  0.1043930E+01  0.7957747E-01            NaN
         13   -1    0    0    0    0  0.00000000000E+00  0.00000000000E+00  0.74505805969E-08  0.10566000000E+00  0.10566000000E+00 0.  1.
     999900   -1    0    0    0    0 -0.00000000000E+00 -0.00000000000E+00 -0.74505805969E-08  0.93827000000E+00  0.93827000000E+00 0.  1.
     999902    2    1    2    0    0  0.18906263683E-01 -0.13821790341E-01 -0.21679298834E-02  0.10204100380E+01  0.10201389400E+01 0.  0.
     999903    2    3    3    0    0 -0.10131049581E+00  0.72827152715E-01  0.18076321934E-01  0.12779033263E+00  0.20880731900E-01 0.  0.
         14    1    1    2    0    0 -0.18906263683E-01  0.13821790341E-01  0.21679298834E-02  0.23519962047E-01  0.00000000000E+00 0. -1.
     999901    1    3    3    0    0  0.12021675950E+00 -0.86648943056E-01 -0.20244251818E-01  0.89261970532E+00  0.88000000000E+00 0. -1.
        -11    1    4    4    0    0 -0.50868037477E-01  0.26055232535E-01  0.14182785113E-01  0.58888410521E-01  0.51100000000E-03 0. -1.
         11    1    4    4    0    0 -0.50442458338E-01  0.46771920180E-01  0.38935368211E-02  0.68901922110E-01  0.51100000000E-03 0.  1.
</event>
<event>
 8    1  0.1138737E+005  0.1043930E+01  0.7957747E-01            NaN
         13   -1    0    0    0    0  0.00000000000E+00  0.00000000000E+00  0.74505805969E-08  0.10566000000E+00  0.10566000000E+00 0.  1.
     999900   -1    0    0    0    0 -0.00000000000E+00 -0.00000000000E+00 -0.74505805969E-08  0.93827000000E+00  0.93827000000E+00 0.  1.
     999902    2    1    2    0    0 -0.42739342525E-03  0.15184577460E-01 -0.17292855750E-01  0.10209126822E+01  0.10206531770E+01 0.  0.
     999903    2    3    3    0    0 -0.85158457367E-01 -0.90643601565E-01  0.29073606859E-01  0.12932488199E+00  0.20283617014E-01 0.  0.
         14    1    1    2    0    0  0.42739342525E-03 -0.15184577460E-01  0.17292855750E-01  0.23017317779E-01  0.00000000000E+00 0. -1.
     999901    1    3    3    0    0  0.84731063942E-01  0.10582817902E+00 -0.46366462609E-01  0.89158780023E+00  0.88000000000E+00 0.  1.
        -11    1    4    4    0    0 -0.63734672561E-01 -0.56614810862E-01  0.25344743223E-01  0.88937969538E-01  0.51100000000E-03 0.  1.
         11    1    4    4    0    0 -0.21423784806E-01 -0.34028790703E-01  0.37288636362E-02  0.40386912449E-01  0.51100000000E-03 0. -1.
</event>
<event>
 8    1  0.1138737E+005  0.1043930E+01  0.7957747E-01            NaN
         13   -1    0    0    0    0  0.00000000000E+00  0.00000000000E+00  0.74505805969E-08  0.10566000000E+00  0.10566000000E+00 0.  1.
     999900   -1    0    0    0    0 -0.00000000000E+00 -0.00000000000E+00 -0.74505805969E-08  0.93827000000E+00  0.93827000000E+00 0. -1.
     999902    2    1    2    0    0  0.91450414059E-02  0.15051569939E-02 -0.21356746152E-01  0.10206489372E+01  0.10203833814E+01 0.  0.
     999903    2    3    3    0    0  0.83963541879E-01  0.98288948330E-01  0.12302160081E-01  0.13154948703E+00  0.21055418962E-01 0.  0.
         14    1    1    2    0    0 -0.91450414059E-02 -0.15051569939E-02  0.21356746152E-01  0.23281062822E-01  0.00000000000E+00 0.  1.
     999901    1    3    3    0    0 -0.74818500473E-01 -0.96783791336E-01 -0.33658906233E-01  0.88909945014E+00  0.88000000000E+00 0. -1.
        -11    1    4    4    0    0  0.41658245302E-01  0.53434493459E-01 -0.36668592477E-02  0.67855445401E-01  0.51100000000E-03 0.  1.
         11    1    4    4    0    0  0.42305296577E-01  0.44854454870E-01  0.15969019329E-01  0.63694041633E-01  0.51100000000E-03 0. -1.
</event>
<event>
 8    1  0.1138737E+005  0.1043930E+01  0.7957747E-01            NaN
         13   -1    0    0    0    0  0.00000000000E+00  0.00000000000E+00  0.74505805969E-08  0.10566000000E+00  0.10566000000E+00 0. -1.
     999900   -1    0    0    0    0 -0.00000000000E+00 -0.00000000000E+00 -0.74505805969E-08  0.93827000000E+00  0.93827000000E+00 0.  1.
     999902    2    1    2    0    0 -0.16903795838E-01  0.16973212916E-01 -0.93451398513E-02  0.10182169700E+01  0.10178922527E+01 0.  0.
     999903    2    3    3    0    0 -0.55921275261E-01  0.97751124116E-01 -0.66103315465E-01  0.13183729681E+00  0.18137067601E-01 0.  0.
         14    1    1    2    0    0  0.16903795838E-01 -0.16973212916E-01  0.93451398513E-02  0.25713029951E-01  0.00000000000E+00 0. -1.
     999901    1    3    3    0    0  0.39017479422E-01 -0.80777911200E-01  0.56758175613E-01  0.88637967324E+00  0.88000000000E+00 0. -1.
        -11    1    4    4    0    0 -0.29210004786E-01  0.54810460932E-01 -0.46539654701E-01  0.77611929417E-01  0.51100000000E-03 0.  1.
         11    1    4    4    0    0 -0.26711270475E-01  0.42940663184E-01 -0.19563660764E-01  0.54225367390E-01  0.51100000000E-03 0. -1.
</event>
<event>
 8    1  0.1138737E+005  0.1043930E+01  0.7957747E-01            NaN
         13   -1    0    0    0    0  0.00000000000E+00  0.00000000000E+00  0.74505805969E-08  0.10566000000E+00  0.10566000000E+00 0.  1.
     999900   -1    0    0    0    0 -0.00000000000E+00 -0.00000000000E+00 -0.74505805969E-08  0.93827000000E+00  0.93827000000E+00 0. -1.
     999902    2    1    2    0    0 -0.46418255574E-02  0.81249669703E-02 -0.21872351996E-01  0.10201400564E+01  0.10198626247E+01 0.  0.
     999903    2    3    3    0    0 -0.10553392510E-01  0.11415899327E+00 -0.64013412902E-01  0.13275399030E+00  0.19551344485E-01 0.  0.
         14    1    1    2    0    0  0.46418255574E-02 -0.81249669703E-02  0.21872351996E-01  0.23789943561E-01  0.00000000000E+00 0.  1.
     999901    1    3    3    0    0  0.59115669531E-02 -0.10603402630E+00  0.42141060906E-01  0.88738606614E+00  0.88000000000E+00 0.  1.
        -11    1    4    4    0    0 -0.14097345273E-01  0.63871920113E-01 -0.30171654767E-01  0.72034347328E-01  0.51100000000E-03 0.  1.
         11    1    4    4    0    0  0.35439527625E-02  0.50287073162E-01 -0.33841758135E-01  0.60719642975E-01  0.51100000000E-03 0. -1.
</event>
<event>
 8    1  0.1138737E+005  0.1043930E+01  0.7957747E-01            NaN
         13   -1    0    0    0    0  0.00000000000E+00  0.00000000000E+00  0.74505805969E-08  0.10566000000E+00  0.10566000000E+00 0. -1.
     999900   -1    0    0    0    0 -0.00000000000E+00 -0.00000000000E+00 -0.74505805969E-08  0.93827000000E+00  0.93827000000E+00 0.  1.
     999902    2    1    2    0    0  0.12035743210E-01 -0.13699726576E-01 -0.54392832499E-02  0.10249003540E+01  0.10247236741E+01 0.  0.
     999903    2    3    3    0    0  0.12389066275E+00 -0.51066059850E-01  0.16645651332E-01  0.13675874922E+00  0.21661924998E-01 0.  0.
         14    1    1    2    0    0 -0.12035743210E-01  0.13699726576E-01  0.54392832499E-02  0.19029645955E-01  0.00000000000E+00 0. -1.
     999901    1    3    3    0    0 -0.11185491954E+00  0.37366333274E-01 -0.22084934582E-01  0.88814160483E+00  0.88000000000E+00 0.  1.
        -11    1    4    4    0    0  0.59950162086E-01 -0.28883359240E-01  0.18437091261E-01  0.69054021101E-01  0.51100000000E-03 0.  1.
         11    1    4    4    0    0  0.63940500664E-01 -0.22182700610E-01 -0.17914399292E-02  0.67704728118E-01  0.51100000000E-03 0. -1.
</event>
<event>
 8    1  0.1138737E+005  0.1043930E+01  0.7957747E-01            NaN
         13   -1    0    0    0    0  0.00000000000E+00  0.00000000000E+00  0.74505805969E-08  0.10566000000E+00  0.10566000000E+00 0.  1.
     999900   -1    0    0    0    0 -0.00000000000E+00 -0.00000000000E+00 -0.74505805969E-08  0.93827000000E+00  0.93827000000E+00 0. -1.
     999902    2    1    2    0    0 -0.28352471616E-02 -0.94816547110E-04 -0.23194356766E-01  0.10205628050E+01  0.10202952578E+01 0.  0.
     999903    2    3    3    0    0 -0.11626539978E+00  0.73261796537E-02 -0.60025239032E-01  0.13248736642E+00  0.19456537348E-01 0.  0.
         14    1    1    2    0    0  0.28352471616E-02  0.94816547110E-04  0.23194356766E-01  0.23367195006E-01  0.00000000000E+00 0.  1.
     999901    1    3    3    0    0  0.11343015262E+00 -0.74209962008E-02  0.36830882266E-01  0.88807543857E+00  0.88000000000E+00 0. -1.
        -11    1    4    4    0    0 -0.67949993900E-01  0.32129917983E-02 -0.24229765114E-01  0.72214040365E-01  0.51100000000E-03 0. -1.
         11    1    4    4    0    0 -0.48315405882E-01  0.41131878554E-02 -0.35795473919E-01  0.60273326056E-01  0.51100000000E-03 0.  1.
</event>
<event>
 8    1  0.1138737E+005  0.1043930E+01  0.7957747E-01            NaN
         13   -1    0    0    0    0  0.00000000000E+00  0.00000000000E+00  0.74505805969E-08  0.10566000000E+00  0.10566000000E+00 0. -1.
     999900   -1    0    0    0    0 -0.00000000000E+00 -0.00000000000E+00 -0.74505805969E-08  0.93827000000E+00  0.93827000000E+00 0. -1.
     999902    2    1    2    0    0  0.68994979188E-02  0.31468825925E-03 -0.22674283033E-01  0.10202271476E+01  0.10199517672E+01 0.  0.
     999903    2    3    3    0    0 -0.39971850727E-01 -0.10405632410E+00 -0.67211388015E-01  0.13170377411E+00  0.20076005587E-01 0.  0.
         14    1    1    2    0    0 -0.68994979188E-02 -0.31468825925E-03  0.22674283033E-01  0.23702852388E-01  0.00000000000E+00 0. -1.
     999901    1    3    3    0    0  0.46871348646E-01  0.10437101236E+00  0.44537104982E-01  0.88852337350E+00  0.88000000000E+00 0. -1.
        -11    1    4    4    0    0 -0.42315311917E-02 -0.36882757531E-01 -0.23758815943E-01  0.44079316185E-01  0.51100000000E-03 0.  1.
         11    1    4    4    0    0 -0.35740319535E-01 -0.67173566565E-01 -0.43452572072E-01  0.87624457923E-01  0.51100000000E-03 0. -1.
</event>
<event>
 8    1  0.1138737E+005  0.1043930E+01  0.7957747E-01            NaN
         13   -1    0    0    0    0  0.00000000000E+00  0.00000000000E+00  0.74505805969E-08  0.10566000000E+00  0.10566000000E+00 0.  1.
     999900   -1    0    0    0    0 -0.00000000000E+00 -0.00000000000E+00 -0.74505805969E-08  0.93827000000E+00  0.93827000000E+00 0.  1.
     999902    2    1    2    0    0 -0.16238484391E-01 -0.17022024356E-01 -0.87163104091E-03  0.10203886018E+01  0.10201170037E+01 0.  0.
     999903    2    3    3    0    0 -0.32331780519E-01  0.45532615650E-01 -0.11621217564E+00  0.13051472400E+00  0.20254883195E-01 0.  0.
         14    1    1    2    0    0  0.16238484391E-01  0.17022024356E-01  0.87163104091E-03  0.23541398199E-01  0.00000000000E+00 0. -1.
     999901    1    3    3    0    0  0.16093296128E-01 -0.62554640006E-01  0.11534054460E+00  0.88987387780E+00  0.88000000000E+00 0.  1.
        -11    1    4    4    0    0 -0.26582573762E-01  0.26098935035E-01 -0.89780376261E-01  0.97203727914E-01  0.51100000000E-03 0.  1.
         11    1    4    4    0    0 -0.57492067568E-02  0.19433680614E-01 -0.26431799382E-01  0.33310996084E-01  0.51100000000E-03 0. -1.
</event>
<event>
 8    1  0.1138737E+005  0.1043930E+01  0.7957747E-01            NaN
         13   -1    0    0    0    0  0.00000000000E+00  0.00000000000E+00  0.74505805969E-08  0.10566000000E+00  0.10566000000E+00 0. -1.
     999900   -1    0    0    0    0 -0.00000000000E+00 -0.00000000000E+00 -0.74505805969E-08  0.93827000000E+00  0.93827000000E+00 0.  1.
     999902    2    1    2    0    0  0.14460313855E-01 -0.15852371832E-01 -0.56726562675E-02  0.10217359152E+01  0.10214948375E+01 0.  0.
     999903    2    3    3    0    0 -0.10444554013E+00 -0.72908381666E-01  0.28504083609E-01  0.13125175484E+00  0.13785405115E-01 0.  0.
         14    1    1    2    0    0 -0.14460313855E-01  0.15852371832E-01  0.56726562675E-02  0.22194084766E-01  0.00000000000E+00 0. -1.
     999901    1    3    3    0    0  0.11890585399E+00  0.57056009834E-01 -0.34176739876E-01  0.89048416040E+00  0.88000000000E+00 0.  1.
        -11    1    4    4    0    0 -0.67025393176E-01 -0.47151404405E-01  0.25032187819E-01  0.85688562923E-01  0.51100000000E-03 0.  1.
         11    1    4    4    0    0 -0.37420146957E-01 -0.25756977262E-01  0.34718957901E-02  0.45563191913E-01  0.51100000000E-03 0. -1.
</event>
<event>
 8    1  0.1138737E+005  0.1043930E+01  0.7957747E-01            NaN
         13   -1    0    0    0    0  0.00000000000E+00  0.00000000000E+00  0.74505805969E-08  0.10566000000E+00  0.10566000000E+00 0. -1.
     999900   -1    0    0    0    0 -0.00000000000E+00 -0.00000000000E+00 -0.74505805969E-08  0.93827000000E+00  0.93827000000E+00 0. -1.
     999902    2    1    2    0    0  0.21259675943E-01  0.95011460494E-03  0.14135301319E-01  0.10183823331E+01  0.10180618317E+01 0.  0.
     999903    2    3    3    0    0  0.12139845902E+00 -0.36325633370E-01 -0.25246197405E-01  0.13104465237E+00  0.21867623063E-01 0.  0.
         14    1    1    2    0    0 -0.21259675943E-01 -0.95011460494E-03 -0.14135301319E-01  0.25547666867E-01  0.00000000000E+00 0. -1.
     999901    1    3    3    0    0 -0.10013878308E+00  0.37275747975E-01  0.39381498724E-01  0.88733768076E+00  0.88000000000E+00 0. -1.
        -11    1    4    4    0    0  0.13958376038E-01 -0.11986077414E-01 -0.27969526992E-02  0.18616830525E-01  0.51100000000E-03 0. -1.
         11    1    4    4    0    0  0.10744008298E+00 -0.24339555956E-01 -0.22449244706E-01  0.11242782184E+00  0.51100000000E-03 0.  1.
</event>
<event>
 8    1  0.1138737E+005  0.1043930E+01  0.7957747E-01            NaN
         13   -1    0    0    0    0  0.00000000000E+00  0.00000000000E+00  0.74505805969E-08  0.10566000000E+00  0.10566000000E+00 0. -1.
     999900   -1    0    0    0    0 -0.00000000000E+00 -0.00000000000E+00 -0.74505805969E-08  0.93827000000E+00  0.93827000000E+00 0.  1.
     999902    2    1    2    0    0  0.20873480957E-01 -0.63660824663E-02 -0.79475782085E-02  0.10207051596E+01  0.10204408996E+01 0.  0.
     999903    2    3    3    0    0  0.58967070741E-01  0.88602594486E-01 -0.75983186070E-01  0.13216758855E+00  0.19164856311E-01 0.  0.
         14    1    1    2    0    0 -0.20873480957E-01  0.63660824663E-02  0.79475782085E-02  0.23224840422E-01  0.00000000000E+00 0. -1.
     999901    1    3    3    0    0 -0.38093589784E-01 -0.94968676952E-01  0.68035607861E-01  0.88853757102E+00  0.88000000000E+00 0. -1.
        -11    1    4    4    0    0  0.16681617046E-01  0.35787766262E-01 -0.36824144875E-01  0.53993697115E-01  0.51100000000E-03 0.  1.
         11    1    4    4    0    0  0.42285453695E-01  0.52814828224E-01 -0.39159041194E-01  0.78173891439E-01  0.51100000000E-03 0. -1.
</event>
<event>
 8    1  0.1138737E+005  0.1043930E+01  0.7957747E-01            NaN
         13   -1    0    0    0    0  0.00000000000E+00  0.00000000000E+00  0.74505805969E-08  0.10566000000E+00  0.10566000000E+00 0. -1.
     999900   -1    0    0    0    0 -0.00000000000E+00 -0.00000000000E+00 -0.74505805969E-08  0.93827000000E+00  0.93827000000E+00 0. -1.
     999902    2    1    2    0    0 -0.19761193146E-01 -0.11124189570E-01  0.63824499615E-02  0.10203718164E+01  0.10200998263E+01 0.  0.
     999903    2    3    3    0    0 -0.97733742675E-01 -0.65566399555E-01 -0.58386937307E-01  0.13288167771E+00  0.19941630180E-01 0.  0.
         14    1    1    2    0    0  0.19761193146E-01  0.11124189570E-01 -0.63824499615E-02  0.23558183624E-01  0.00000000000E+00 0.  1.
     999901    1    3    3    0    0  0.77972549529E-01  0.54442209985E-01  0.64769387268E-01  0.88749013867E+00  0.88000000000E+00 0.  1.
        -11    1    4    4    0    0 -0.89909523402E-01 -0.58516550467E-01 -0.46297926415E-01  0.11684035342E+00  0.51100000000E-03 0.  1.
         11    1    4    4    0    0 -0.78242192724E-02 -0.70498490882E-02 -0.12089010892E-01  0.16041324282E-01  0.51100000000E-03 0. -1.
</event>
<event>
 8    1  0.1138737E+005  0.1043930E+01  0.7957747E-01            NaN
         13   -1    0    0    0    0  0.00000000000E+00  0.00000000000E+00  0.74505805969E-08  0.10566000000E+00  0.10566000000E+00 0.  1.
     999900   -1    0    0    0    0 -0.00000000000E+00 -0.00000000000E+00 -0.74505805969E-08  0.93827000000E+00  0.93827000000E+00 0. -1.
     999902    2    1    2    0    0  0.66170393916E-02  0.10289936276E-01 -0.19663017480E-01  0.10207717994E+01  0.10205090711E+01 0.  0.
     999903    2    3    3    0    0  0.12146587880E+00 -0.26016409887E-02 -0.49217474992E-01  0.13272342535E+00  0.20794699905E-01 0.  0.
         14    1    1    2    0    0 -0.66170393916E-02 -0.10289936276E-01  0.19663017480E-01  0.23158200606E-01  0.00000000000E+00 0.  1.
     999901    1    3    3    0    0 -0.11484883941E+00  0.12891577265E-01  0.29554457512E-01  0.88804837404E+00  0.88000000000E+00 0.  1.
        -11    1    4    4    0    0  0.46138939919E-01  0.57523935642E-02 -0.26882115205E-01  0.53710343952E-01  0.51100000000E-03 0.  1.
         11    1    4    4    0    0  0.75326938882E-01 -0.83540345529E-02 -0.22335359787E-01  0.79013081401E-01  0.51100000000E-03 0. -1.
</event>
<event>
 8    1  0.1138737E+005  0.1043930E+01  0.7957747E-01            NaN
         13   -1    0    0    0    0  0.00000000000E+00  0.00000000000E+00  0.74505805969E-08  0.10566000000E+00  0.10566000000E+00 0.  1.
     999900   -1    0    0    0    0 -0.00000000000E+00 -0.00000000000E+00 -0.74505805969E-08  0.93827000000E+00  0.93827000000E+00 0.  1.
     999902    2    1    2    0    0 -0.10031208558E-01  0.20622530681E-01  0.12550275077E-01  0.10177876336E+01  0.10174518386E+01 0.  0.
     999903    2    3    3    0    0  0.61280178176E-02  0.99645586877E-02 -0.12477668650E+00  0.12692658532E+00  0.20107002136E-01 0.  0.
         14    1    1    2    0    0  0.10031208558E-01 -0.20622530681E-01 -0.12550275077E-01  0.26142366406E-01  0.00000000000E+00 0. -1.
     999901    1    3    3    0    0 -0.16159226376E-01  0.10657971993E-01  0.13732696157E+00  0.89086104828E+00  0.88000000000E+00 0. -1.
        -11    1    4    4    0    0 -0.24538583664E-02 -0.11694654436E-02 -0.78743957034E-01  0.78792518431E-01  0.51100000000E-03 0.  1.
         11    1    4    4    0    0  0.85818761840E-02  0.11134024131E-01 -0.46032729461E-01  0.48134066885E-01  0.51100000000E-03 0. -1.
</event>
<event>
 8    1  0.1138737E+005  0.1043930E+01  0.7957747E-01            NaN
         13   -1    0    0    0    0  0.00000000000E+00  0.00000000000E+00  0.74505805969E-08  0.10566000000E+00  0.10566000000E+00 0.  1.
     999900   -1    0    0    0    0 -0.00000000000E+00 -0.00000000000E+00 -0.74505805969E-08  0.93827000000E+00  0.93827000000E+00 0.  1.
     999902    2    1    2    0    0  0.22878930375E-01  0.55660988970E-02 -0.18743037380E-02  0.10203092480E+01  0.10200357943E+01 0.  0.
     999903    2    3    3    0    0  0.12641619981E+00  0.38006305620E-02 -0.37768762649E-01  0.13351079554E+00  0.20078663485E-01 0.  0.
         14    1    1    2    0    0 -0.22878930375E-01 -0.55660988970E-02  0.18743037380E-02  0.23620752031E-01  0.00000000000E+00 0. -1.
     999901    1    3    3    0    0 -0.10353726944E+00  0.17654683351E-02  0.35894458911E-01  0.88679845242E+00  0.88000000000E+00 0. -1.
        -11    1    4    4    0    0  0.82112074096E-01  0.15144432819E-02 -0.14447553466E-01  0.83388723296E-01  0.51100000000E-03 0.  1.
         11    1    4    4    0    0  0.44304125716E-01  0.22861872801E-02 -0.23321209183E-01  0.50122072248E-01  0.51100000000E-03 0. -1.
</event>
<event>
 8    1  0.1138737E+005  0.1043930E+01  0.7957747E-01            NaN
         13   -1    0    0    0    0  0.00000000000E+00  0.00000000000E+00  0.74505805969E-08  0.10566000000E+00  0.10566000000E+00 0.  1.
     999900   -1    0    0    0    0 -0.00000000000E+00 -0.00000000000E+00 -0.74505805969E-08  0.93827000000E+00  0.93827000000E+00 0. -1.
     999902    2    1    2    0    0  0.21453660572E-01 -0.30254870612E-01  0.41838629726E-02  0.10066054577E+01  0.10059132299E+01 0.  0.
     999903    2    3    3    0    0 -0.73846166130E-01 -0.90928449790E-01 -0.48581698319E-02  0.11933712257E+00  0.22282454463E-01 0.  0.
         14    1    1    2    0    0 -0.21453660572E-01  0.30254870612E-01 -0.41838629726E-02  0.37324542289E-01  0.00000000000E+00 0. -1.
     999901    1    3    3    0    0  0.95299826702E-01  0.60673579177E-01  0.90420328044E-02  0.88726833514E+00  0.88000000000E+00 0.  1.
        -11    1    4    4    0    0 -0.33291192166E-01 -0.56748409890E-01 -0.75642856035E-02  0.66228128756E-01  0.51100000000E-03 0. -1.
         11    1    4    4    0    0 -0.40554973964E-01 -0.34180039900E-01  0.27061157716E-02  0.53108993818E-01  0.51100000000E-03 0.  1.
</event>
<event>
 8    1  0.1138737E+005  0.1043930E+01  0.7957747E-01            NaN
         13   -1    0    0    0    0  0.00000000000E+00  0.00000000000E+00  0.74505805969E-08  0.10566000000E+00  0.10566000000E+00 0.  1.
     999900   -1    0    0    0    0 -0.00000000000E+00 -0.00000000000E+00 -0.74505805969E-08  0.93827000000E+00  0.93827000000E+00 0.  1.
     999902    2    1    2    0    0  0.12102395500E-01  0.15821121966E-01  0.13998741986E-01  0.10195837343E+01  0.10192930151E+01 0.  0.
     999903    2    3    3    0    0 -0.17469429925E-01  0.46145354095E-02  0.12854922082E+00  0.13159618221E+00  0.21591157461E-01 0.  0.
         14    1    1    2    0    0 -0.12102395500E-01 -0.15821121966E-01 -0.13998741986E-01  0.24346265716E-01  0.00000000000E+00 0. -1.
     999901    1    3    3    0    0  0.29571825425E-01  0.11206586557E-01 -0.11455047883E+00  0.88798755208E+00  0.88000000000E+00 0.  1.
        -11    1    4    4    0    0 -0.14051691015E-01  0.12847416252E-01  0.80314993133E-01  0.82542506430E-01  0.51100000000E-03 0. -1.
         11    1    4    4    0    0 -0.34177389101E-02 -0.82328808430E-02  0.48234227683E-01  0.49053675779E-01  0.51100000000E-03 0.  1.
</event>
<event>
 8    1  0.1138737E+005  0.1043930E+01  0.7957747E-01            NaN
         13   -1    0    0    0    0  0.00000000000E+00  0.00000000000E+00  0.74505805969E-08  0.10566000000E+00  0.10566000000E+00 0.  1.
     999900   -1    0    0    0    0 -0.00000000000E+00 -0.00000000000E+00 -0.74505805969E-08  0.93827000000E+00  0.93827000000E+00 0. -1.
     999902    2    1    2    0    0 -0.96953958808E-02  0.10540704057E-01 -0.19516182092E-01  0.10197228005E+01  0.10194354327E+01 0.  0.
     999903    2    3    3    0    0  0.23764152959E-01 -0.87444737563E-01  0.86980010416E-01  0.12727553194E+00  0.20548034573E-01 0.  0.
         14    1    1    2    0    0  0.96953958808E-02 -0.10540704057E-01  0.19516182092E-01  0.24207199481E-01  0.00000000000E+00 0.  1.
     999901    1    3    3    0    0 -0.33459548840E-01  0.97985441619E-01 -0.10649619251E+00  0.89244726858E+00  0.88000000000E+00 0. -1.
        -11    1    4    4    0    0  0.17647441020E-01 -0.73801073200E-01  0.81461147575E-01  0.11132928755E+00  0.51100000000E-03 0. -1.
         11    1    4    4    0    0  0.61167119387E-02 -0.13643664362E-01  0.55188628411E-02  0.15946244393E-01  0.51100000000E-03 0.  1.
</event>
<event>
 8    1  0.1138737E+005  0.1043930E+01  0.7957747E-01            NaN
         13   -1    0    0    0    0  0.00000000000E+00  0.00000000000E+00  0.74505805969E-08  0.10566000000E+00  0.10566000000E+00 0.  1.
     999900   -1    0    0    0    0 -0.00000000000E+00 -0.00000000000E+00 -0.74505805969E-08  0.93827000000E+00  0.93827000000E+00 0.  1.
     999902    2    1    2    0    0 -0.39839856930E-02  0.18330019900E-01 -0.14960425761E-01  0.10199367486E+01  0.10196544979E+01 0.  0.
     999903    2    3    3    0    0  0.27375888833E-02  0.11510556833E+00 -0.64025664719E-01  0.13324735319E+00  0.19969605343E-01 0.  0.
         14    1    1    2    0    0  0.39839856930E-02 -0.18330019900E-01  0.14960425761E-01  0.23993251353E-01  0.00000000000E+00 0. -1.
     999901    1    3    3    0    0 -0.67215745763E-02 -0.96775548427E-01  0.49065238958E-01  0.88668939545E+00  0.88000000000E+00 0. -1.
        -11    1    4    4    0    0  0.48893690527E-03  0.85406255113E-01 -0.56872201203E-01  0.10261177253E+00  0.51100000000E-03 0. -1.
         11    1    4    4    0    0  0.22486519780E-02  0.29699313213E-01 -0.71534635152E-02  0.30635580659E-01  0.51100000000E-03 0.  1.
</event>
<event>
 8    1  0.1138737E+005  0.1043930E+01  0.7957747E-01            NaN
         13   -1    0    0    0    0  0.00000000000E+00  0.00000000000E+00  0.74505805969E-08  0.10566000000E+00  0.10566000000E+00 0.  1.
     999900   -1    0    0    0    0 -0.00000000000E+00 -0.00000000000E+00 -0.74505805969E-08  0.93827000000E+00  0.93827000000E+00 0. -1.
     999902    2    1    2    0    0 -0.32570804837E-02  0.58105139818E-02  0.20920297064E-01  0.10219748303E+01  0.10217389708E+01 0.  0.
     999903    2    3    3    0    0 -0.12982825420E-01 -0.12099418207E+00  0.48285384562E-01  0.13241152788E+00  0.19828981361E-01 0.  0.
         14    1    1    2    0    0  0.32570804837E-02 -0.58105139818E-02 -0.20920297064E-01  0.21955169670E-01  0.00000000000E+00 0. -1.
     999901    1    3    3    0    0  0.97257449361E-02  0.12680469605E+00 -0.27365087498E-01  0.88956330245E+00  0.88000000000E+00 0. -1.
        -11    1    4    4    0    0 -0.11173962649E-01 -0.57580971612E-01  0.14025607043E-01  0.60310898742E-01  0.51100000000E-03 0.  1.
         11    1    4    4    0    0 -0.18088627705E-02 -0.63413210458E-01  0.34259777519E-01  0.72100629136E-01  0.51100000000E-03 0. -1.
</event>
<event>
 8    1  0.1138737E+005  0.1043930E+01  0.7957747E-01            NaN
         13   -1    0    0    0    0  0.00000000000E+00  0.00000000000E+00  0.74505805969E-08  0.10566000000E+00  0.10566000000E+00 0. -1.
     999900   -1    0    0    0    0 -0.00000000000E+00 -0.00000000000E+00 -0.74505805969E-08  0.93827000000E+00  0.93827000000E+00 0. -1.
     999902    2    1    2    0    0 -0.21214083410E-01  0.66389186208E-02  0.39241478621E-02  0.10213576383E+01  0.10211081793E+01 0.  0.
     999903    2    3    3    0    0 -0.12690140583E+00  0.39224011479E-01 -0.35233494889E-02  0.13440382689E+00  0.20235731049E-01 0.  0.
         14    1    1    2    0    0  0.21214083410E-01 -0.66389186208E-02 -0.39241478621E-02  0.22572361680E-01  0.00000000000E+00 0.  1.
     999901    1    3    3    0    0  0.10568732242E+00 -0.32585092858E-01  0.74474973510E-02  0.88695381143E+00  0.88000000000E+00 0.  1.
        -11    1    4    4    0    0 -0.28321052845E-01  0.10625065044E-01  0.74963643075E-02  0.31167782088E-01  0.51100000000E-03 0. -1.
         11    1    4    4    0    0 -0.98580352989E-01  0.28598946435E-01 -0.11019713796E-01  0.10323604480E+00  0.51100000000E-03 0.  1.
</event>
<event>
 8    1  0.1138737E+005  0.1043930E+01  0.7957747E-01            NaN
         13   -1    0    0    0    0  0.00000000000E+00  0.00000000000E+00  0.74505805969E-08  0.10566000000E+00  0.10566000000E+00 0. -1.
     999900   -1    0    0    0    0 -0.00000000000E+00 -0.00000000000E+00 -0.74505805969E-08  0.93827000000E+00  0.93827000000E+00 0. -1.
     999902    2    1    2    0    0 -0.45471481930E-02 -0.11181629355E-01 -0.20227845868E-01  0.10203742971E+01  0.10201023650E+01 0.  0.
     999903    2    3    3    0    0  0.43219054393E-01 -0.89506266841E-01 -0.86318272152E-01  0.13314022233E+00  0.19905180945E-01 0.  0.
         14    1    1    2    0    0  0.45471481930E-02  0.11181629355E-01  0.20227845868E-01  0.23555702922E-01  0.00000000000E+00 0. -1.
     999901    1    3    3    0    0 -0.47766202586E-01  0.78324637486E-01  0.66090426284E-01  0.88723407475E+00  0.88000000000E+00 0.  1.
        -11    1    4    4    0    0  0.23777915269E-01 -0.27401775356E-01 -0.30206085666E-01  0.47211389298E-01  0.51100000000E-03 0.  1.
         11    1    4    4    0    0  0.19441139124E-01 -0.62104491484E-01 -0.56112186486E-01  0.85928833032E-01  0.51100000000E-03 0. -1.
</event>
<event>
 8    1  0.1138737E+005  0.1043930E+01  0.7957747E-01            NaN
         13   -1    0    0    0    0  0.00000000000E+00  0.00000000000E+00  0.74505805969E-08  0.10566000000E+00  0.10566000000E+00 0. -1.
     999900   -1    0    0    0    0 -0.00000000000E+00 -0.00000000000E+00 -0.74505805969E-08  0.93827000000E+00  0.93827000000E+00 0. -1.
     999902    2    1    2    0    0 -0.13559050678E-01  0.30848526845E-02 -0.20893335842E-01  0.10188322779E+01  0.10185231047E+01 0.  0.
     999903    2    3    3    0    0 -0.83287046450E-02  0.28765684904E-01  0.12171642103E+00  0.12696659048E+00  0.20218704202E-01 0.  0.
         14    1    1    2    0    0  0.13559050678E-01 -0.30848526845E-02  0.20893335842E-01  0.25097722088E-01  0.00000000000E+00 0. -1.
     999901    1    3    3    0    0 -0.52303460334E-02 -0.25680832219E-01 -0.14260975688E+00  0.89186568743E+00  0.88000000000E+00 0. -1.
        -11    1    4    4    0    0 -0.62954761785E-02  0.11783820899E-01  0.89453100364E-01  0.90446723219E-01  0.51100000000E-03 0. -1.
         11    1    4    4    0    0 -0.20332284665E-02  0.16981864005E-01  0.32263320670E-01  0.36519867261E-01  0.51100000000E-03 0.  1.
</event>
<event>
 8    1  0.1138737E+005  0.1043930E+01  0.7957747E-01            NaN
         13   -1    0    0    0    0  0.00000000000E+00  0.00000000000E+00  0.74505805969E-08  0.10566000000E+00  0.10566000000E+00 0.  1.
     999900   -1    0    0    0    0 -0.00000000000E+00 -0.00000000000E+00 -0.74505805969E-08  0.93827000000E+00  0.93827000000E+00 0.  1.
     999902    2    1    2    0    0 -0.14649866637E-01 -0.11416603866E-01  0.15626282120E-01  0.10196578322E+01  0.10193689012E+01 0.  0.
     999903    2    3    3    0    0  0.88870151996E-01 -0.82677686351E-01 -0.39010269247E-01  0.12905147198E+00  0.19974423088E-01 0.  0.
         14    1    1    2    0    0  0.14649866637E-01  0.11416603866E-01 -0.15626282120E-01  0.24272167789E-01  0.00000000000E+00 0. -1.
     999901    1    3    3    0    0 -0.10352001863E+00  0.71261082485E-01  0.54636551367E-01  0.89060636023E+00  0.88000000000E+00 0. -1.
        -11    1    4    4    0    0  0.89323029602E-02 -0.92803823571E-02 -0.11061685139E-01  0.16986274812E-01  0.51100000000E-03 0. -1.
         11    1    4    4    0    0  0.79937849036E-01 -0.73397303994E-01 -0.27948584108E-01  0.11206519717E+00  0.51100000000E-03 0.  1.
</event>
<event>
 8    1  0.1138737E+005  0.1043930E+01  0.7957747E-01            NaN
         13   -1    0    0    0    0  0.00000000000E+00  0.00000000000E+00  0.74505805969E-08  0.10566000000E+00  0.10566000000E+00 0.  1.
     999900   -1    0    0    0    0 -0.00000000000E+00 -0.00000000000E+00 -0.74505805969E-08  0.93827000000E+00  0.93827000000E+00 0.  1.
     999902    2    1    2    0    0  0.86607971708E-02  0.98017536287E-02 -0.19834599604E-01  0.10201708939E+01  0.10198941894E+01 0.  0.
     999903    2    3    3    0    0 -0.67675926508E-01  0.10815947532E+00  0.19143248903E-01  0.13055254343E+00  0.19974971539E-01 0.  0.
         14    1    1    2    0    0 -0.86607971708E-02 -0.98017536287E-02  0.19834599604E-01  0.23759106113E-01  0.00000000000E+00 0.  1.
     999901    1    3    3    0    0  0.76336723679E-01 -0.98357721687E-01 -0.38977848506E-01  0.88961835046E+00  0.88000000000E+00 0. -1.
        -11    1    4    4    0    0 -0.33409964153E-01  0.57359859063E-01  0.96903627450E-04  0.66382600489E-01  0.51100000000E-03 0. -1.
         11    1    4    4    0    0 -0.34265962355E-01  0.50799616253E-01  0.19046345275E-01  0.64169942940E-01  0.51100000000E-03 0.  1.
</event>
<event>
 8    1  0.1138737E+005  0.1043930E+01  0.7957747E-01            NaN
         13   -1    0    0    0    0  0.00000000000E+00  0.00000000000E+00  0.74505805969E-08  0.10566000000E+00  0.10566000000E+00 0. -1.
     999900   -1    0    0    0    0 -0.00000000000E+00 -0.00000000000E+00 -0.74505805969E-08  0.93827000000E+00  0.93827000000E+00 0.  1.
     999902    2    1    2    0    0  0.45583852730E-02 -0.25445520656E-01  0.32827706144E-02  0.10178717963E+01  0.10175381878E+01 0.  0.
     999903    2    3    3    0    0  0.45847709684E-01  0.63354745835E-01 -0.97626666503E-01  0.12670794483E+00  0.20201509064E-01 0.  0.
         14    1    1    2    0    0 -0.45583852730E-02  0.25445520656E-01 -0.32827706144E-02  0.26058203711E-01  0.00000000000E+00 0.  1.
     999901    1    3    3    0    0 -0.41289324411E-01 -0.88800266491E-01  0.10090943712E+00  0.89116385145E+00  0.88000000000E+00 0. -1.
        -11    1    4    4    0    0  0.25326627104E-01  0.43262200476E-01 -0.74663418497E-01  0.89932992907E-01  0.51100000000E-03 0. -1.
         11    1    4    4    0    0  0.20521082580E-01  0.20092545359E-01 -0.22963248006E-01  0.36774951927E-01  0.51100000000E-03 0.  1.
</event>
<event>
 8    1  0.1138737E+005  0.1043930E+01  0.7957747E-01            NaN
         13   -1    0    0    0    0  0.00000000000E+00  0.00000000000E+00  0.74505805969E-08  0.10566000000E+00  0.10566000000E+00 0. -1.
     999900   -1    0    0    0    0 -0.00000000000E+00 -0.00000000000E+00 -0.74505805969E-08  0.93827000000E+00  0.93827000000E+00 0.  1.
     999902    2    1    2    0    0  0.65666221674E-02 -0.22715927976E-01  0.12376559076E-02  0.10202516195E+01  0.10199768142E+01 0.  0.
     999903    2    3    3    0    0  0.53150048190E-01  0.82543138234E-01  0.81318114199E-01  0.12914984844E+00  0.20706288021E-01 0.  0.
         14    1    1    2    0    0 -0.65666221674E-02  0.22715927976E-01 -0.12376559076E-02  0.23678380490E-01  0.00000000000E+00 0. -1.
     999901    1    3    3    0    0 -0.46583426023E-01 -0.10525906621E+00 -0.80080458291E-01  0.89110177107E+00  0.88000000000E+00 0.  1.
        -11    1    4    4    0    0  0.29549826467E-01  0.34320281992E-01  0.26771623210E-01  0.52612307786E-01  0.51100000000E-03 0.  1.
         11    1    4    4    0    0  0.23600221723E-01  0.48222856242E-01  0.54546490989E-01  0.76537540656E-01  0.51100000000E-03 0. -1.
</event>
<event>
 8    1  0.1138737E+005  0.1043930E+01  0.7957747E-01            NaN
         13   -1    0    0    0    0  0.00000000000E+00  0.00000000000E+00  0.74505805969E-08  0.10566000000E+00  0.10566000000E+00 0. -1.
     999900   -1    0    0    0    0 -0.00000000000E+00 -0.00000000000E+00 -0.74505805969E-08  0.93827000000E+00  0.93827000000E+00 0.  1.
     999902    2    1    2    0    0  0.19442400174E-01  0.69801342019E-02  0.12776550954E-01  0.10196407132E+01  0.10193513695E+01 0.  0.
     999903    2    3    3    0    0  0.88816981329E-01 -0.94331274362E-01 -0.30309344507E-02  0.13097502208E+00  0.18932098398E-01 0.  0.
         14    1    1    2    0    0 -0.19442400174E-01 -0.69801342019E-02 -0.12776550954E-01  0.24289286780E-01  0.00000000000E+00 0.  1.
     999901    1    3    3    0    0 -0.69374581155E-01  0.10131140856E+00  0.15807485404E-01  0.88866569114E+00  0.88000000000E+00 0. -1.
        -11    1    4    4    0    0  0.40883357805E-01 -0.31993486093E-01 -0.61260735976E-02  0.52276399996E-01  0.51100000000E-03 0.  1.
         11    1    4    4    0    0  0.47933623524E-01 -0.62337788269E-01  0.30951391469E-02  0.78698622083E-01  0.51100000000E-03 0. -1.
</event>
<event>
 8    1  0.1138737E+005  0.1043930E+01  0.7957747E-01            NaN
         13   -1    0    0    0    0  0.00000000000E+00  0.00000000000E+00  0.74505805969E-08  0.10566000000E+00  0.10566000000E+00 0.  1.
     999900   -1    0    0    0    0 -0.00000000000E+00 -0.00000000000E+00 -0.74505805969E-08  0.93827000000E+00  0.93827000000E+00 0.  1.
     999902    2    1    2    0    0 -0.58496610071E-03 -0.81824665769E-02 -0.21002470822E-01  0.10213823011E+01  0.10211333930E+01 0.  0.
     999903    2    3    3    0    0 -0.91195566804E-01  0.55409219747E-01  0.70945369134E-01  0.12969368461E+00  0.20009832274E-01 0.  0.
         14    1    1    2    0    0  0.58496610071E-03  0.81824665769E-02  0.21002470822E-01  0.22547698890E-01  0.00000000000E+00 0.  1.
     999901    1    3    3    0    0  0.90610600704E-01 -0.63591686324E-01 -0.91947839955E-01  0.89168861650E+00  0.88000000000E+00 0.  1.
        -11    1    4    4    0    0 -0.23221858423E-01  0.50259334742E-02  0.18820456807E-01  0.30314772493E-01  0.51100000000E-03 0.  1.
         11    1    4    4    0    0 -0.67973708382E-01  0.50383286273E-01  0.52124912327E-01  0.99378912113E-01  0.51100000000E-03 0. -1.
</event>
<event>
 8    1  0.1138737E+005  0.1043930E+01  0.7957747E-01            NaN
         13   -1    0    0    0    0  0.00000000000E+00  0.00000000000E+00  0.74505805969E-08  0.10566000000E+00  0.10566000000E+00 0. -1.
     999900   -1    0    0    0    0 -0.00000000000E+00 -0.00000000000E+00 -0.74505805969E-08  0.93827000000E+00  0.93827000000E+00 0.  1.
     999902    2    1    2    0    0 -0.12275782471E-01 -0.11575844152E-01  0.18904012995E-01  0.10185911620E+01  0.10182759442E+01 0.  0.
     999903    2    3    3    0    0  0.27829942477E-01  0.81547169905E-01 -0.90211786651E-01  0.12607414669E+00  0.18222990806E-01 0.  0.
         14    1    1    2    0    0  0.12275782471E-01  0.11575844152E-01 -0.18904012995E-01  0.25338837984E-01  0.00000000000E+00 0.  1.
     999901    1    3    3    0    0 -0.40105724948E-01 -0.93123014057E-01  0.10911579965E+00  0.89251701533E+00  0.88000000000E+00 0. -1.
        -11    1    4    4    0    0  0.20358298499E-01  0.67909842403E-01 -0.82276801684E-01  0.10860911670E+00  0.51100000000E-03 0. -1.
         11    1    4    4    0    0  0.74716439781E-02  0.13637327503E-01 -0.79349849672E-02  0.17465029991E-01  0.51100000000E-03 0.  1.
</event>
<event>
 8    1  0.1138737E+005  0.1043930E+01  0.7957747E-01            NaN
         13   -1    0    0    0    0  0.00000000000E+00  0.00000000000E+00  0.74505805969E-08  0.10566000000E+00  0.10566000000E+00 0.  1.
     999900   -1    0    0    0    0 -0.00000000000E+00 -0.00000000000E+00 -0.74505805969E-08  0.93827000000E+00  0.93827000000E+00 0.  1.
     999902    2    1    2    0    0  0.19909734503E-01 -0.39389838922E-02  0.10815626113E-02  0.10236055591E+01  0.10234037608E+01 0.  0.
     999903    2    3    3    0    0 -0.34951724842E-01 -0.28578374873E-01 -0.12337590308E+00  0.13281571848E+00  0.19495000258E-01 0.  0.
         14    1    1    2    0    0 -0.19909734503E-01  0.39389838922E-02 -0.10815626113E-02  0.20324440946E-01  0.00000000000E+00 0.  1.
     999901    1    3    3    0    0  0.54861459345E-01  0.24639390981E-01  0.12445746569E+00  0.89078984058E+00  0.88000000000E+00 0. -1.
        -11    1    4    4    0    0  0.15534179206E-02  0.98498179804E-03 -0.83739387541E-02  0.85887873204E-02  0.51100000000E-03 0.  1.
         11    1    4    4    0    0 -0.36505142763E-01 -0.29563356671E-01 -0.11500196432E+00  0.12422693116E+00  0.51100000000E-03 0. -1.
</event>
<event>
 8    1  0.1138737E+005  0.1043930E+01  0.7957747E-01            NaN
         13   -1    0    0    0    0  0.00000000000E+00  0.00000000000E+00  0.74505805969E-08  0.10566000000E+00  0.10566000000E+00 0. -1.
     999900   -1    0    0    0    0 -0.00000000000E+00 -0.00000000000E+00 -0.74505805969E-08  0.93827000000E+00  0.93827000000E+00 0.  1.
     999902    2    1    2    0    0 -0.18577953728E-01 -0.13838291564E-01 -0.25608247530E-02  0.10206234236E+01  0.10203572788E+01 0.  0.
     999903    2    3    3    0    0  0.59683636513E-01  0.77738046657E-01 -0.81354585125E-01  0.12892865585E+00  0.19967208457E-01 0.  0.
         14    1    1    2    0    0  0.18577953728E-01  0.13838291564E-01  0.25608247530E-02  0.23306576359E-01  0.00000000000E+00 0.  1.
     999901    1    3    3    0    0 -0.78261590241E-01 -0.91576338221E-01  0.78793760372E-01  0.89169476779E+00  0.88000000000E+00 0. -1.
        -11    1    4    4    0    0  0.30672064848E-01  0.27800738484E-01 -0.25735204106E-01  0.48746471397E-01  0.51100000000E-03 0. -1.
         11    1    4    4    0    0  0.29011571665E-01  0.49937308173E-01 -0.55619381019E-01  0.80182184455E-01  0.51100000000E-03 0.  1.
</event>
<event>
 8    1  0.1138737E+005  0.1043930E+01  0.7957747E-01            NaN
         13   -1    0    0    0    0  0.00000000000E+00  0.00000000000E+00  0.74505805969E-08  0.10566000000E+00  0.10566000000E+00 0.  1.
     999900   -1    0    0    0    0 -0.00000000000E+00 -0.00000000000E+00 -0.74505805969E-08  0.93827000000E+00  0.93827000000E+00 0. -1.
     999902    2    1    2    0    0  0.19350985462E-01  0.19449248331E-02 -0.13428684902E-01  0.10202958521E+01  0.10200220845E+01 0.  0.
     999903    2    3    3    0    0  0.21303760594E-01  0.87456040856E-01 -0.95126114250E-01  0.13238232346E+00  0.19331131770E-01 0.  0.
         14    1    1    2    0    0 -0.19350985462E-01 -0.19449248331E-02  0.13428684902E-01  0.23634147946E-01  0.00000000000E+00 0.  1.
     999901    1    3    3    0    0 -0.19527751323E-02 -0.85511116022E-01  0.81697429348E-01  0.88791352859E+00  0.88000000000E+00 0.  1.
        -11    1    4    4    0    0  0.18279570802E-01  0.77942540776E-01 -0.74042426083E-01  0.10904918318E+00  0.51100000000E-03 0. -1.
         11    1    4    4    0    0  0.30241897922E-02  0.95135000799E-02 -0.21083688167E-01  0.23333140281E-01  0.51100000000E-03 0.  1.
</event>
<event>
 8    1  0.1138737E+005  0.1043930E+01  0.7957747E-01            NaN
         13   -1    0    0    0    0  0.00000000000E+00  0.00000000000E+00  0.74505805969E-08  0.10566000000E+00  0.10566000000E+00 0.  1.
     999900   -1    0    0    0    0 -0.00000000000E+00 -0.00000000000E+00 -0.74505805969E-08  0.93827000000E+00  0.93827000000E+00 0. -1.
     999902    2    1    2    0    0  0.12913038492E-01 -0.19515435949E-01 -0.17948893641E-02  0.10204604361E+01  0.10201905122E+01 0.  0.
     999903    2    3    3    0    0  0.85744426149E-01 -0.96108654345E-01 -0.30052407426E-01  0.13368570737E+00  0.19486947085E-01 0.  0.
         14    1    1    2    0    0 -0.12913038492E-01  0.19515435949E-01  0.17948893641E-02  0.23469563933E-01  0.00000000000E+00 0. -1.
     999901    1    3    3    0    0 -0.72831387657E-01  0.76593218396E-01  0.28257518062E-01  0.88677472870E+00  0.88000000000E+00 0.  1.
        -11    1    4    4    0    0  0.29393081340E-01 -0.20129122527E-01 -0.96711147678E-02  0.36917832903E-01  0.51100000000E-03 0.  1.
         11    1    4    4    0    0  0.56351344809E-01 -0.75979531818E-01 -0.20381292659E-01  0.96767874465E-01  0.51100000000E-03 0. -1.
</event>
<event>
 8    1  0.1138737E+005  0.1043930E+01  0.7957747E-01            NaN
         13   -1    0    0    0    0  0.00000000000E+00  0.00000000000E+00  0.74505805969E-08  0.10566000000E+00  0.10566000000E+00 0.  1.
     999900   -1    0    0    0    0 -0.00000000000E+00 -0.00000000000E+00 -0.74505805969E-08  0.93827000000E+00  0.93827000000E+00 0. -1.
     999902    2    1    2    0    0 -0.20456860674E-02 -0.23397542279E-01  0.76121999709E-02  0.10192404191E+01  0.10189413411E+01 0.  0.
     999903    2    3    3    0    0 -0.90455358496E-01  0.70803791416E-01 -0.51767383093E-01  0.12782800258E+00  0.21558931630E-01 0.  0.
         14    1    1    2    0    0  0.20456860674E-02  0.23397542279E-01 -0.76121999709E-02  0.24689580891E-01  0.00000000000E+00 0. -1.
     999901    1    3    3    0    0  0.88409672428E-01 -0.94201333695E-01  0.59379583064E-01  0.89141241652E+00  0.88000000000E+00 0.  1.
        -11    1    4    4    0    0 -0.70108511268E-01  0.60418804018E-01 -0.33000660474E-01  0.98259553957E-01  0.51100000000E-03 0. -1.
         11    1    4    4    0    0 -0.20346847227E-01  0.10384987398E-01 -0.18766722620E-01  0.29568448627E-01  0.51100000000E-03 0.  1.
</event>
<event>
 8    1  0.1138737E+005  0.1043930E+01  0.7957747E-01            NaN
         13   -1    0    0    0    0  0.00000000000E+00  0.00000000000E+00  0.74505805969E-08  0.10566000000E+00  0.10566000000E+00 0.  1.
     999900   -1    0    0    0    0 -0.00000000000E+00 -0.00000000000E+00 -0.74505805969E-08  0.93827000000E+00  0.93827000000E+00 0.  1.
     999902    2    1    2    0    0 -0.14019368355E-01 -0.18233742595E-01 -0.18613980046E-03  0.10209289847E+01  0.10206698511E+01 0.  0.
     999903    2    3    3    0    0 -0.40990301373E-01  0.42237422113E-02  0.12338570872E+00  0.13160240147E+00  0.19927723167E-01 0.  0.
         14    1    1    2    0    0  0.14019368355E-01  0.18233742595E-01  0.18613980046E-03  0.23001015328E-01  0.00000000000E+00 0. -1.
     999901    1    3    3    0    0  0.26970933018E-01 -0.22457484807E-01 -0.12357184852E+00  0.88932658321E+00  0.88000000000E+00 0. -1.
        -11    1    4    4    0    0 -0.36268597597E-01 -0.17794373346E-02  0.84545875097E-01  0.92015453516E-01  0.51100000000E-03 0. -1.
         11    1    4    4    0    0 -0.47217037766E-02  0.60031795459E-02  0.38839833621E-01  0.39586947949E-01  0.51100000000E-03 0.  1.
</event>
<event>
 8    1  0.1138737E+005  0.1043930E+01  0.7957747E-01            NaN
         13   -1    0    0    0    0  0.00000000000E+00  0.00000000000E+00  0.74505805969E-08  0.10566000000E+00  0.10566000000E+00 0. -1.
     999900   -1    0    0    0    0 -0.00000000000E+00 -0.00000000000E+00 -0.74505805969E-08  0.93827000000E+00  0.93827000000E+00 0. -1.
     999902    2    1    2    0    0 -0.11990461653E-01 -0.39646054100E-02  0.19119368356E-01  0.10210162593E+01  0.10207591108E+01 0.  0.
     999903    2    3    3    0    0 -0.47335347396E-02  0.12524488855E+00  0.33801337073E-01  0.13143022269E+00  0.20559294455E-01 0.  0.
         14    1    1    2    0    0  0.11990461653E-01  0.39646054100E-02 -0.19119368356E-01  0.22913740704E-01  0.00000000000E+00 0.  1.
     999901    1    3    3    0    0 -0.72569269131E-02 -0.12920949396E+00 -0.14681968717E-01  0.88958603661E+00  0.88000000000E+00 0. -1.
        -11    1    4    4    0    0 -0.10920438651E-01  0.49138271965E-01  0.17939779909E-01  0.53440832480E-01  0.51100000000E-03 0. -1.
         11    1    4    4    0    0  0.61869039113E-02  0.76106616589E-01  0.15861557164E-01  0.77989390210E-01  0.51100000000E-03 0.  1.
</event>
<event>
 8    1  0.1138737E+005  0.1043930E+01  0.7957747E-01            NaN
         13   -1    0    0    0    0  0.00000000000E+00  0.00000000000E+00  0.74505805969E-08  0.10566000000E+00  0.10566000000E+00 0. -1.
     999900   -1    0    0    0    0 -0.00000000000E+00 -0.00000000000E+00 -0.74505805969E-08  0.93827000000E+00  0.93827000000E+00 0. -1.
     999902    2    1    2    0    0  0.13847118686E-01 -0.19806937387E-01  0.28986850070E-02  0.10195895021E+01  0.10192989222E+01 0.  0.
     999903    2    3    3    0    0 -0.13570160334E-01  0.12507731211E+00 -0.62422319328E-02  0.12727413781E+00  0.18200479112E-01 0.  0.
         14    1    1    2    0    0 -0.13847118686E-01  0.19806937387E-01 -0.28986850070E-02  0.24340497927E-01  0.00000000000E+00 0.  1.
     999901    1    3    3    0    0  0.27417279021E-01 -0.14488424949E+00  0.91409169398E-02  0.89231536426E+00  0.88000000000E+00 0. -1.
        -11    1    4    4    0    0  0.39390793770E-02  0.20285456445E-01 -0.36915757152E-02  0.20997736587E-01  0.51100000000E-03 0.  1.
         11    1    4    4    0    0 -0.17509239711E-01  0.10479185566E+00 -0.25506562177E-02  0.10627640122E+00  0.51100000000E-03 0. -1.
</event>
<event>
 8    1  0.1138737E+005  0.1043930E+01  0.7957747E-01            NaN
         13   -1    0    0    0    0  0.00000000000E+00  0.00000000000E+00  0.74505805969E-08  0.10566000000E+00  0.10566000000E+00 0. -1.
     999900   -1    0    0    0    0 -0.00000000000E+00 -0.00000000000E+00 -0.74505805969E-08  0.93827000000E+00  0.93827000000E+00 0. -1.
     999902    2    1    2    0    0  0.12427371897E-01 -0.13496274034E-01  0.16780223274E-01  0.10190670782E+01  0.10187637337E+01 0.  0.
     999903    2    3    3    0    0  0.24349199308E-01  0.77571858118E-01  0.99942194437E-01  0.13038746888E+00  0.20054254712E-01 0.  0.
         14    1    1    2    0    0 -0.12427371897E-01  0.13496274034E-01 -0.16780223274E-01  0.24862921754E-01  0.00000000000E+00 0.  1.
     999901    1    3    3    0    0 -0.11921827411E-01 -0.91068132152E-01 -0.83161971164E-01  0.88867960937E+00  0.88000000000E+00 0. -1.
        -11    1    4    4    0    0  0.27908475334E-01  0.69679790194E-01  0.90020379999E-01  0.11720958192E+00  0.51100000000E-03 0.  1.
         11    1    4    4    0    0 -0.35592760265E-02  0.78920679238E-02  0.99218144378E-02  0.13177886958E-01  0.51100000000E-03 0. -1.
</event>
<event>
 8    1  0.1138737E+005  0.1043930E+01  0.7957747E-01            NaN
         13   -1    0    0    0    0  0.00000000000E+00  0.00000000000E+00  0.74505805969E-08  0.10566000000E+00  0.10566000000E+00 0. -1.
     999900   -1    0    0    0    0 -0.00000000000E+00 -0.00000000000E+00 -0.74505805969E-08  0.93827000000E+00  0.93827000000E+00 0. -1.
     999902    2    1    2    0    0 -0.10489928867E-01  0.15529697591E-01 -0.14120443565E-01  0.10204651957E+01  0.10201953825E+01 0.  0.
     999903    2    3    3    0    0  0.42595064379E-01  0.12355475015E+00 -0.16561459365E-02  0.13218439144E+00  0.19744739193E-01 0.  0.
         14    1    1    2    0    0  0.10489928867E-01 -0.15529697591E-01  0.14120443565E-01  0.23464804311E-01  0.00000000000E+00 0. -1.
     999901    1    3    3    0    0 -0.53084993246E-01 -0.10802505256E+00 -0.12464297629E-01  0.88828080425E+00  0.88000000000E+00 0.  1.
        -11    1    4    4    0    0  0.15105813937E-01  0.20232325713E-01 -0.68119927145E-04  0.25254670455E-01  0.51100000000E-03 0.  1.
         11    1    4    4    0    0  0.27489250442E-01  0.10332242444E+00 -0.15880260093E-02  0.10692972098E+00  0.51100000000E-03 0. -1.
</event>
<event>
 8    1  0.1138737E+005  0.1043930E+01  0.7957747E-01            NaN
         13   -1    0    0    0    0  0.00000000000E+00  0.00000000000E+00  0.74505805969E-08  0.10566000000E+00  0.10566000000E+00 0. -1.
     999900   -1    0    0    0    0 -0.00000000000E+00 -0.00000000000E+00 -0.74505805969E-08  0.93827000000E+00  0.93827000000E+00 0.  1.
     999902    2    1    2    0    0  0.17307496639E-01 -0.58263023590E-02  0.18852959069E-01  0.10176825372E+01  0.10173440014E+01 0.  0.
     999903    2    3    3    0    0  0.16955981250E-01  0.57103749170E-01  0.11427088453E+00  0.13029034911E+00  0.19219691726E-01 0.  0.
         14    1    1    2    0    0 -0.17307496639E-01  0.58263023590E-02 -0.18852959069E-01  0.26247462825E-01  0.00000000000E+00 0.  1.
     999901    1    3    3    0    0  0.35151538932E-03 -0.62930051529E-01 -0.95417925458E-01  0.88739218807E+00  0.88000000000E+00 0.  1.
        -11    1    4    4    0    0  0.10119416812E-01  0.51040117750E-01  0.85411297610E-01  0.10001423447E+00  0.51100000000E-03 0. -1.
         11    1    4    4    0    0  0.68365644374E-02  0.60636314207E-02  0.28859586917E-01  0.30276114634E-01  0.51100000000E-03 0.  1.
</event>
<event>
 8    1  0.1138737E+005  0.1043930E+01  0.7957747E-01            NaN
         13   -1    0    0    0    0  0.00000000000E+00  0.00000000000E+00  0.74505805969E-08  0.10566000000E+00  0.10566000000E+00 0. -1.
     999900   -1    0    0    0    0 -0.00000000000E+00 -0.00000000000E+00 -0.74505805969E-08  0.93827000000E+00  0.93827000000E+00 0. -1.
     999902    2    1    2    0    0 -0.13448010224E-01  0.20910820343E-01 -0.26276592271E-02  0.10189296804E+01  0.10186229320E+01 0.  0.
     999903    2    3    3    0    0 -0.78031910721E-01  0.10403843409E+00 -0.74912114824E-02  0.13264251786E+00  0.24998888702E-01 0.  0.
         14    1    1    2    0    0  0.13448010224E-01 -0.20910820343E-01  0.26276592271E-02  0.25000319586E-01  0.00000000000E+00 0.  1.
     999901    1    3    3    0    0  0.64583900497E-01 -0.83127613744E-01  0.48635522553E-02  0.88628716256E+00  0.88000000000E+00 0.  1.
        -11    1    4    4    0    0 -0.52828289306E-01  0.49724758553E-01 -0.38284997103E-02  0.72651898084E-01  0.51100000000E-03 0.  1.
         11    1    4    4    0    0 -0.25203621415E-01  0.54313675533E-01 -0.36627117721E-02  0.59990619774E-01  0.51100000000E-03 0. -1.
</event>
<event>
 8    1  0.1138737E+005  0.1043930E+01  0.7957747E-01            NaN
         13   -1    0    0    0    0  0.00000000000E+00  0.00000000000E+00  0.74505805969E-08  0.10566000000E+00  0.10566000000E+00 0.  1.
     999900   -1    0    0    0    0 -0.00000000000E+00 -0.00000000000E+00 -0.74505805969E-08  0.93827000000E+00  0.93827000000E+00 0. -1.
     999902    2    1    2    0    0  0.18990208131E-01  0.35962201695E-02  0.18307091840E-01  0.10173083844E+01  0.10169599985E+01 0.  0.
     999903    2    3    3    0    0  0.91931978148E-01  0.52457125753E-01 -0.69237574230E-01  0.12861723534E+00  0.23351935498E-01 0.  0.
         14    1    1    2    0    0 -0.18990208131E-01 -0.35962201695E-02 -0.18307091840E-01  0.26621615578E-01  0.00000000000E+00 0. -1.
     999901    1    3    3    0    0 -0.72941770018E-01 -0.48860905584E-01  0.87544666069E-01  0.88869114909E+00  0.88000000000E+00 0.  1.
        -11    1    4    4    0    0  0.63560483387E-01  0.23283677477E-01 -0.43381857088E-01  0.80400941106E-01  0.51100000000E-03 0.  1.
         11    1    4    4    0    0  0.28371494761E-01  0.29173448277E-01 -0.25855717142E-01  0.48216294230E-01  0.51100000000E-03 0. -1.
</event>
<event>
 8    1  0.1138737E+005  0.1043930E+01  0.7957747E-01            NaN
         13   -1    0    0    0    0  0.00000000000E+00  0.00000000000E+00  0.74505805969E-08  0.10566000000E+00  0.10566000000E+00 0. -1.
     999900   -1    0    0    0    0 -0.00000000000E+00 -0.00000000000E+00 -0.74505805969E-08  0.93827000000E+00  0.93827000000E+00 0. -1.
     999902    2    1    2    0    0  0.43862814223E-02 -0.28509091624E-01 -0.67555649045E-02  0.10143049190E+01  0.10138721927E+01 0.  0.
     999903    2    3    3    0    0 -0.14760494161E-01  0.11733060140E+00 -0.22168533674E-01  0.12196340659E+00  0.19982153243E-01 0.  0.
         14    1    1    2    0    0 -0.43862814223E-02  0.28509091624E-01  0.67555649045E-02  0.29625081049E-01  0.00000000000E+00 0. -1.
     999901    1    3    3    0    0  0.19146775583E-01 -0.14583969303E+00  0.15412968770E-01  0.89234151236E+00  0.88000000000E+00 0.  1.
        -11    1    4    4    0    0 -0.19582608379E-01  0.84234650906E-01 -0.15973581733E-01  0.87945275022E-01  0.51100000000E-03 0. -1.
         11    1    4    4    0    0  0.48221142189E-02  0.33095950497E-01 -0.61949519412E-02  0.34018131568E-01  0.51100000000E-03 0.  1.
</event>
<event>
 8    1  0.1138737E+005  0.1043930E+01  0.7957747E-01            NaN
         13   -1    0    0    0    0  0.00000000000E+00  0.00000000000E+00  0.74505805969E-08  0.10566000000E+00  0.10566000000E+00 0. -1.
     999900   -1    0    0    0    0 -0.00000000000E+00 -0.00000000000E+00 -0.74505805969E-08  0.93827000000E+00  0.93827000000E+00 0. -1.
     999902    2    1    2    0    0 -0.79806221397E-02  0.96522371351E-02 -0.18384006207E-01  0.10216852771E+01  0.10214430859E+01 0.  0.
     999903    2    3    3    0    0 -0.10109104608E+00  0.24605902563E-01  0.77828739933E-01  0.13143247276E+00  0.19807374885E-01 0.  0.
         14    1    1    2    0    0  0.79806221397E-02 -0.96522371351E-02  0.18384006207E-01  0.22244722873E-01  0.00000000000E+00 0. -1.
     999901    1    3    3    0    0  0.93110423936E-01 -0.14953665427E-01 -0.96212746140E-01  0.89025280436E+00  0.88000000000E+00 0. -1.
        -11    1    4    4    0    0 -0.22887256697E-01  0.11115130745E-01  0.11173247401E-01  0.27793438597E-01  0.51100000000E-03 0. -1.
         11    1    4    4    0    0 -0.78203789379E-01  0.13490771818E-01  0.66655492532E-01  0.10363903417E+00  0.51100000000E-03 0.  1.
</event>
<event>
 8    1  0.1654557E+005  0.1043930E+01  0.7957747E-01            NaN
         13   -1    0    0    0    0  0.00000000000E+00  0.00000000000E+00  0.74505805969E-08  0.10566000000E+00  0.10566000000E+00 0. -1.
     999900   -1    0    0    0    0 -0.00000000000E+00 -0.00000000000E+00 -0.74505805969E-08  0.93827000000E+00  0.93827000000E+00 0.  1.
     999902    2    1    2    0    0  0.93040072772E-02  0.23299410834E-01 -0.29325994152E-02  0.10186707990E+01  0.10183575843E+01 0.  0.
     999903    2    3    3    0    0 -0.46072247434E-02  0.31538827357E-01 -0.12458782113E+00  0.13015439321E+00  0.20052848847E-01 0.  0.
         14    1    1    2    0    0 -0.93040072772E-02 -0.23299410834E-01  0.29325994152E-02  0.25259201016E-01  0.00000000000E+00 0. -1.
     999901    1    3    3    0    0  0.13911232021E-01 -0.82394165232E-02  0.12165522171E+00  0.88851640578E+00  0.88000000000E+00 0. -1.
        -11    1    4    4    0    0  0.71681662893E-02  0.18752895467E-01 -0.73144682878E-01  0.75851561952E-01  0.51100000000E-03 0. -1.
         11    1    4    4    0    0 -0.11775391033E-01  0.12785931890E-01 -0.51443138252E-01  0.54302831257E-01  0.51100000000E-03 0.  1.
</event>
<event>
 8    1  0.1138737E+005  0.1043930E+01  0.7957747E-01            NaN
         13   -1    0    0    0    0  0.00000000000E+00  0.00000000000E+00  0.74505805969E-08  0.10566000000E+00  0.10566000000E+00 0. -1.
     999900   -1    0    0    0    0 -0.00000000000E+00 -0.00000000000E+00 -0.74505805969E-08  0.93827000000E+00  0.93827000000E+00 0. -1.
     999902    2    1    2    0    0 -0.11201141340E-01 -0.24269582505E-01 -0.25410867720E-01  0.10070492408E+01  0.10063736796E+01 0.  0.
     999903    2    3    3    0    0 -0.88676151128E-01 -0.67119505629E-01  0.41076650783E-01  0.12011120283E+00  0.19259335146E-01 0.  0.
         14    1    1    2    0    0  0.11201141340E-01  0.24269582505E-01  0.25410867720E-01  0.36880759219E-01  0.00000000000E+00 0. -1.
     999901    1    3    3    0    0  0.77475009788E-01  0.42849923125E-01 -0.66487518503E-01  0.88693803795E+00  0.88000000000E+00 0. -1.
        -11    1    4    4    0    0 -0.45735064825E-01 -0.36107850521E-01  0.31632432678E-01  0.66304939046E-01  0.51100000000E-03 0.  1.
         11    1    4    4    0    0 -0.42941086303E-01 -0.31011655108E-01  0.94442181042E-02  0.53806263781E-01  0.51100000000E-03 0. -1.
</event>
<event>
 8    1  0.1138737E+005  0.1043930E+01  0.7957747E-01            NaN
         13   -1    0    0    0    0  0.00000000000E+00  0.00000000000E+00  0.74505805969E-08  0.10566000000E+00  0.10566000000E+00 0. -1.
     999900   -1    0    0    0    0 -0.00000000000E+00 -0.00000000000E+00 -0.74505805969E-08  0.93827000000E+00  0.93827000000E+00 0. -1.
     999902    2    1    2    0    0  0.16827657962E-02 -0.15486048522E-01 -0.18150018500E-01  0.10200119614E+01  0.10197314984E+01 0.  0.
     999903    2    3    3    0    0  0.11897482432E+00 -0.51475363505E-01  0.38717748491E-02  0.13122761343E+00  0.20024335629E-01 0.  0.
         14    1    1    2    0    0 -0.16827657962E-02  0.15486048522E-01  0.18150018500E-01  0.23918038613E-01  0.00000000000E+00 0. -1.
     999901    1    3    3    0    0 -0.11729205852E+00  0.35989314984E-01 -0.22021793349E-01  0.88878434795E+00  0.88000000000E+00 0. -1.
        -11    1    4    4    0    0  0.26807364785E-01 -0.20999607157E-01  0.23699016034E-02  0.34139359427E-01  0.51100000000E-03 0.  1.
         11    1    4    4    0    0  0.92167459533E-01 -0.30475756348E-01  0.15018732456E-02  0.97088254006E-01  0.51100000000E-03 0. -1.
</event>
<event>
 8    1  0.1138737E+005  0.1043930E+01  0.7957747E-01            NaN
         13   -1    0    0    0    0  0.00000000000E+00  0.00000000000E+00  0.74505805969E-08  0.10566000000E+00  0.10566000000E+00 0.  1.
     999900   -1    0    0    0    0 -0.00000000000E+00 -0.00000000000E+00 -0.74505805969E-08  0.93827000000E+00  0.93827000000E+00 0. -1.
     999902    2    1    2    0    0  0.25719812977E-01  0.12231719647E-01  0.84492993861E-02  0.10142228560E+01  0.10137876934E+01 0.  0.
     999903    2    3    3    0    0 -0.86708314365E-01 -0.61427017356E-01 -0.55614150717E-01  0.12171525435E+00  0.20737867272E-01 0.  0.
         14    1    1    2    0    0 -0.25719812977E-01 -0.12231719647E-01 -0.84492993861E-02  0.29707144010E-01  0.00000000000E+00 0. -1.
     999901    1    3    3    0    0  0.11242812734E+00  0.73658737003E-01  0.64063450103E-01  0.89250760164E+00  0.88000000000E+00 0.  1.
        -11    1    4    4    0    0 -0.24854727461E-01 -0.21969449769E-01 -0.76122822694E-02  0.34038539373E-01  0.51100000000E-03 0. -1.
         11    1    4    4    0    0 -0.61853586904E-01 -0.39457567588E-01 -0.48001868448E-01  0.87676714972E-01  0.51100000000E-03 0.  1.
</event>
<event>
 8    1  0.1138737E+005  0.1043930E+01  0.7957747E-01            NaN
         13   -1    0    0    0    0  0.00000000000E+00  0.00000000000E+00  0.74505805969E-08  0.10566000000E+00  0.10566000000E+00 0. -1.
     999900   -1    0    0    0    0 -0.00000000000E+00 -0.00000000000E+00 -0.74505805969E-08  0.93827000000E+00  0.93827000000E+00 0. -1.
     999902    2    1    2    0    0 -0.97524838744E-02 -0.20944852521E-01 -0.43806717110E-02  0.10204143016E+01  0.10201433030E+01 0.  0.
     999903    2    3    3    0    0  0.23599288534E-01  0.36558039764E-01 -0.12160235900E+00  0.13015599785E+00  0.16125550231E-01 0.  0.
         14    1    1    2    0    0  0.97524838744E-02  0.20944852521E-01  0.43806717110E-02  0.23515698448E-01  0.00000000000E+00 0. -1.
     999901    1    3    3    0    0 -0.33351772408E-01 -0.57502892285E-01  0.11722168729E+00  0.89025830370E+00  0.88000000000E+00 0.  1.
        -11    1    4    4    0    0  0.21650527974E-01  0.20380028869E-01 -0.86055338806E-01  0.91048741871E-01  0.51100000000E-03 0. -1.
         11    1    4    4    0    0  0.19487605594E-02  0.16178010895E-01 -0.35547020195E-01  0.39107255976E-01  0.51100000000E-03 0.  1.
</event>
<event>
 8    1  0.1138737E+005  0.1043930E+01  0.7957747E-01            NaN
         13   -1    0    0    0    0  0.00000000000E+00  0.00000000000E+00  0.74505805969E-08  0.10566000000E+00  0.10566000000E+00 0. -1.
     999900   -1    0    0    0    0 -0.00000000000E+00 -0.00000000000E+00 -0.74505805969E-08  0.93827000000E+00  0.93827000000E+00 0. -1.
     999902    2    1    2    0    0  0.15198790331E-02 -0.19215556339E-01  0.13800511713E-01  0.10202234237E+01  0.10199479558E+01 0.  0.
     999903    2    3    3    0    0 -0.33062706840E-01 -0.44513969414E-01 -0.11554088275E+00  0.12973751066E+00  0.20186382290E-01 0.  0.
         14    1    1    2    0    0 -0.15198790331E-02  0.19215556339E-01 -0.13800511713E-01  0.23706576328E-01  0.00000000000E+00 0.  1.
     999901    1    3    3    0    0  0.34582585873E-01  0.25298413075E-01  0.12934139446E+00  0.89048591301E+00  0.88000000000E+00 0.  1.
        -11    1    4    4    0    0 -0.19855736136E-01 -0.19592017397E-01 -0.37393406687E-01  0.46654317998E-01  0.51100000000E-03 0.  1.
         11    1    4    4    0    0 -0.13206970704E-01 -0.24921952016E-01 -0.78147476060E-01  0.83083192663E-01  0.51100000000E-03 0. -1.
</event>
<event>
 8    1  0.1138737E+005  0.1043930E+01  0.7957747E-01            NaN
         13   -1    0    0    0    0  0.00000000000E+00  0.00000000000E+00  0.74505805969E-08  0.10566000000E+00  0.10566000000E+00 0.  1.
     999900   -1    0    0    0    0 -0.00000000000E+00 -0.00000000000E+00 -0.74505805969E-08  0.93827000000E+00  0.93827000000E+00 0. -1.
     999902    2    1    2    0    0  0.16009472811E-01  0.71585837187E-02 -0.16918563992E-01  0.10195622683E+01  0.10192710300E+01 0.  0.
     999903    2    3    3    0    0  0.68897030239E-01 -0.34159376589E-01 -0.10594752619E+00  0.13252764458E+00  0.20616364565E-01 0.  0.
         14    1    1    2    0    0 -0.16009472811E-01 -0.71585837187E-02  0.16918563992E-01  0.24367731698E-01  0.00000000000E+00 0.  1.
     999901    1    3    3    0    0 -0.52887557429E-01  0.41317960308E-01  0.89028962194E-01  0.88703462372E+00  0.88000000000E+00 0.  1.
        -11    1    4    4    0    0  0.17297520716E-01 -0.19263389543E-01 -0.33389850156E-01  0.42254296989E-01  0.51100000000E-03 0. -1.
         11    1    4    4    0    0  0.51599509523E-01 -0.14895987045E-01 -0.72557676030E-01  0.90273347590E-01  0.51100000000E-03 0.  1.
</event>
<event>
 8    1  0.1138737E+005  0.1043930E+01  0.7957747E-01            NaN
         13   -1    0    0    0    0  0.00000000000E+00  0.00000000000E+00  0.74505805969E-08  0.10566000000E+00  0.10566000000E+00 0. -1.
     999900   -1    0    0    0    0 -0.00000000000E+00 -0.00000000000E+00 -0.74505805969E-08  0.93827000000E+00  0.93827000000E+00 0.  1.
     999902    2    1    2    0    0 -0.19020626465E-01  0.21051863427E-04  0.16090906262E-01  0.10190161095E+01  0.10187115046E+01 0.  0.
     999903    2    3    3    0    0 -0.59233082059E-01  0.11289898525E+00 -0.17919535881E-01  0.13024438427E+00  0.19691393768E-01 0.  0.
         14    1    1    2    0    0  0.19020626465E-01 -0.21051863426E-04 -0.16090906262E-01  0.24913890475E-01  0.00000000000E+00 0.  1.
     999901    1    3    3    0    0  0.40212455594E-01 -0.11287793338E+00  0.34010442142E-01  0.88877172525E+00  0.88000000000E+00 0. -1.
        -11    1    4    4    0    0 -0.40820033003E-01  0.58436253754E-01 -0.60602453083E-02  0.71540607639E-01  0.51100000000E-03 0. -1.
         11    1    4    4    0    0 -0.18413049056E-01  0.54462731494E-01 -0.11859290572E-01  0.58703776635E-01  0.51100000000E-03 0.  1.
</event>
<event>
 8    1  0.1138737E+005  0.1043930E+01  0.7957747E-01            NaN
         13   -1    0    0    0    0  0.00000000000E+00  0.00000000000E+00  0.74505805969E-08  0.10566000000E+00  0.10566000000E+00 0. -1.
     999900   -1    0    0    0    0 -0.00000000000E+00 -0.00000000000E+00 -0.74505805969E-08  0.93827000000E+00  0.93827000000E+00 0.  1.
     999902    2    1    2    0    0  0.21884725397E-01  0.74776293610E-02  0.14546625634E-01  0.10166085713E+01  0.10162413723E+01 0.  0.
     999903    2    3    3    0    0  0.12217264288E+00 -0.28803176388E-01  0.27653725229E-01  0.13007275181E+00  0.19960325788E-01 0.  0.
         14    1    1    2    0    0 -0.21884725397E-01 -0.74776293610E-02 -0.14546625634E-01  0.27321428658E-01  0.00000000000E+00 0.  1.
     999901    1    3    3    0    0 -0.10028791748E+00  0.36280805749E-01 -0.13107099595E-01  0.88653581953E+00  0.88000000000E+00 0. -1.
        -11    1    4    4    0    0  0.68143256034E-01 -0.58592828158E-02  0.15152175188E-01  0.70054864728E-01  0.51100000000E-03 0.  1.
         11    1    4    4    0    0  0.54029386845E-01 -0.22943893572E-01  0.12501550041E-01  0.60017887079E-01  0.51100000000E-03 0. -1.
</event>
<event>
 8    1  0.1138737E+005  0.1043930E+01  0.7957747E-01            NaN
         13   -1    0    0    0    0  0.00000000000E+00  0.00000000000E+00  0.74505805969E-08  0.10566000000E+00  0.10566000000E+00 0.  1.
     999900   -1    0    0    0    0 -0.00000000000E+00 -0.00000000000E+00 -0.74505805969E-08  0.93827000000E+00  0.93827000000E+00 0.  1.
     999902    2    1    2    0    0  0.29479770892E-03 -0.55761147553E-02  0.23587821509E-01  0.10196902540E+01  0.10194021036E+01 0.  0.
     999903    2    3    3    0    0  0.83424957907E-01  0.38241130915E-01  0.92783645087E-01  0.13198611606E+00  0.19733786816E-01 0.  0.
         14    1    1    2    0    0 -0.29479770892E-03  0.55761147553E-02 -0.23587821509E-01  0.24239745977E-01  0.00000000000E+00 0. -1.
     999901    1    3    3    0    0 -0.83130160198E-01 -0.43817245671E-01 -0.69195823578E-01  0.88770413796E+00  0.88000000000E+00 0.  1.
        -11    1    4    4    0    0  0.69089599912E-01  0.25883755369E-01  0.81542656329E-01  0.10996730210E+00  0.51100000000E-03 0. -1.
         11    1    4    4    0    0  0.14335357995E-01  0.12357375546E-01  0.11240988757E-01  0.22018813966E-01  0.51100000000E-03 0.  1.
</event>
<event>
 8    1  0.1138737E+005  0.1043930E+01  0.7957747E-01            NaN
         13   -1    0    0    0    0  0.00000000000E+00  0.00000000000E+00  0.74505805969E-08  0.10566000000E+00  0.10566000000E+00 0. -1.
     999900   -1    0    0    0    0 -0.00000000000E+00 -0.00000000000E+00 -0.74505805969E-08  0.93827000000E+00  0.93827000000E+00 0.  1.
     999902    2    1    2    0    0  0.19558940000E-02  0.24676404019E-01 -0.22900296723E-02  0.10190705014E+01  0.10187672414E+01 0.  0.
     999903    2    3    3    0    0  0.74266114710E-02 -0.74917325722E-01 -0.10145420023E+00  0.12790139705E+00  0.19951249922E-01 0.  0.
         14    1    1    2    0    0 -0.19558940000E-02 -0.24676404019E-01  0.22900296723E-02  0.24859498638E-01  0.00000000000E+00 0. -1.
     999901    1    3    3    0    0 -0.54707174709E-02  0.99593729741E-01  0.99164170553E-01  0.89116910431E+00  0.88000000000E+00 0. -1.
        -11    1    4    4    0    0  0.79543000124E-02 -0.28179980227E-01 -0.26107410390E-01  0.39233151448E-01  0.51100000000E-03 0. -1.
         11    1    4    4    0    0 -0.52768854147E-03 -0.46737345495E-01 -0.75346789836E-01  0.88668245605E-01  0.51100000000E-03 0.  1.
</event>
<event>
 8    1  0.1138737E+005  0.1043930E+01  0.7957747E-01            NaN
         13   -1    0    0    0    0  0.00000000000E+00  0.00000000000E+00  0.74505805969E-08  0.10566000000E+00  0.10566000000E+00 0.  1.
     999900   -1    0    0    0    0 -0.00000000000E+00 -0.00000000000E+00 -0.74505805969E-08  0.93827000000E+00  0.93827000000E+00 0.  1.
     999902    2    1    2    0    0 -0.15533389989E-02 -0.28928483018E-02  0.24107827006E-01  0.10195995919E+01  0.10193092559E+01 0.  0.
     999903    2    3    3    0    0  0.37712870882E-01  0.45723373107E-01  0.11700158685E+00  0.13250623561E+00  0.18858517234E-01 0.  0.
         14    1    1    2    0    0  0.15533389989E-02  0.28928483018E-02 -0.24107827006E-01  0.24330408058E-01  0.00000000000E+00 0. -1.
     999901    1    3    3    0    0 -0.39266209881E-01 -0.48616221409E-01 -0.92893759847E-01  0.88709335633E+00  0.88000000000E+00 0.  1.
        -11    1    4    4    0    0  0.31763843829E-01  0.24555867070E-01  0.72978833203E-01  0.83295279572E-01  0.51100000000E-03 0. -1.
         11    1    4    4    0    0  0.59490270530E-02  0.21167506037E-01  0.44022753649E-01  0.49210956042E-01  0.51100000000E-03 0.  1.
</event>
<event>
 8    1  0.1138737E+005  0.1043930E+01  0.7957747E-01            NaN
         13   -1    0    0    0    0  0.00000000000E+00  0.00000000000E+00  0.74505805969E-08  0.10566000000E+00  0.10566000000E+00 0. -1.
     999900   -1    0    0    0    0 -0.00000000000E+00 -0.00000000000E+00 -0.74505805969E-08  0.93827000000E+00  0.93827000000E+00 0.  1.
     999902    2    1    2    0    0 -0.13009998922E-01 -0.20164993603E-01 -0.33536422934E-02  0.10196991528E+01  0.10194112165E+01 0.  0.
     999903    2    3    3    0    0  0.10769937396E+00 -0.25473509984E-01 -0.64497693747E-01  0.12934106301E+00  0.17919353173E-01 0.  0.
         14    1    1    2    0    0  0.13009998922E-01  0.20164993603E-01  0.33536422934E-02  0.24230847191E-01  0.00000000000E+00 0. -1.
     999901    1    3    3    0    0 -0.12070937288E+00  0.53085163805E-02  0.61144051453E-01  0.89035808980E+00  0.88000000000E+00 0. -1.
        -11    1    4    4    0    0  0.59040290337E-01 -0.20719146601E-01 -0.29277971662E-01  0.69083280644E-01  0.51100000000E-03 0. -1.
         11    1    4    4    0    0  0.48659083626E-01 -0.47543633826E-02 -0.35219722085E-01  0.60257782362E-01  0.51100000000E-03 0.  1.
</event>
<event>
 8    1  0.1138737E+005  0.1043930E+01  0.7957747E-01            NaN
         13   -1    0    0    0    0  0.00000000000E+00  0.00000000000E+00  0.74505805969E-08  0.10566000000E+00  0.10566000000E+00 0.  1.
     999900   -1    0    0    0    0 -0.00000000000E+00 -0.00000000000E+00 -0.74505805969E-08  0.93827000000E+00  0.93827000000E+00 0.  1.
     999902    2    1    2    0    0 -0.18942388964E-01 -0.64068837710E-02 -0.14955475846E-01  0.10189594470E+01  0.10186534377E+01 0.  0.
     999903    2    3    3    0    0  0.33965834178E-01  0.11843649634E+00 -0.30386904659E-01  0.12844090220E+00  0.19819682856E-01 0.  0.
         14    1    1    2    0    0  0.18942388964E-01  0.64068837710E-02  0.14955475846E-01  0.24970552999E-01  0.00000000000E+00 0. -1.
     999901    1    3    3    0    0 -0.52908223143E-01 -0.12484338011E+00  0.15431428814E-01  0.89051854480E+00  0.88000000000E+00 0. -1.
        -11    1    4    4    0    0  0.18191644276E-01  0.86255944437E-01 -0.14941024029E-01  0.89412075204E-01  0.51100000000E-03 0. -1.
         11    1    4    4    0    0  0.15774189902E-01  0.32180551898E-01 -0.15445880630E-01  0.39028826999E-01  0.51100000000E-03 0.  1.
</event>
<event>
 8    1  0.1138737E+005  0.1043930E+01  0.7957747E-01            NaN
         13   -1    0    0    0    0  0.00000000000E+00  0.00000000000E+00  0.74505805969E-08  0.10566000000E+00  0.10566000000E+00 0. -1.
     999900   -1    0    0    0    0 -0.00000000000E+00 -0.00000000000E+00 -0.74505805969E-08  0.93827000000E+00  0.93827000000E+00 0.  1.
     999902    2    1    2    0    0 -0.19039037729E-01 -0.14131583320E-01 -0.41080605652E-02  0.10198662770E+01  0.10195823459E+01 0.  0.
     999903    2    3    3    0    0 -0.88795106969E-01  0.34812126458E-01  0.87537227567E-01  0.13101293993E+00  0.20128811396E-01 0.  0.
         14    1    1    2    0    0  0.19039037729E-01  0.14131583320E-01  0.41080605652E-02  0.24063723037E-01  0.00000000000E+00 0. -1.
     999901    1    3    3    0    0  0.69756069240E-01 -0.48943709778E-01 -0.91645288132E-01  0.88885333704E+00  0.88000000000E+00 0.  1.
        -11    1    4    4    0    0 -0.55254921123E-01  0.23514884570E-01  0.67471035558E-01  0.90325289177E-01  0.51100000000E-03 0.  1.
         11    1    4    4    0    0 -0.33540185847E-01  0.11297241888E-01  0.20066192009E-01  0.40687650751E-01  0.51100000000E-03 0. -1.
</event>
<event>
 8    1  0.1138737E+005  0.1043930E+01  0.7957747E-01            NaN
         13   -1    0    0    0    0  0.00000000000E+00  0.00000000000E+00  0.74505805969E-08  0.10566000000E+00  0.10566000000E+00 0. -1.
     999900   -1    0    0    0    0 -0.00000000000E+00 -0.00000000000E+00 -0.74505805969E-08  0.93827000000E+00  0.93827000000E+00 0. -1.
     999902    2    1    2    0    0  0.81604485650E-02  0.21404923692E-01  0.29518713723E-02  0.10208328741E+01  0.10205715456E+01 0.  0.
     999903    2    3    3    0    0  0.25571456701E-01  0.11573725868E+00  0.59105020944E-01  0.13384081732E+00  0.19260021696E-01 0.  0.
         14    1    1    2    0    0 -0.81604485650E-02 -0.21404923692E-01 -0.29518713723E-02  0.23097125874E-01  0.00000000000E+00 0. -1.
     999901    1    3    3    0    0 -0.17411008136E-01 -0.94332334987E-01 -0.56153149572E-01  0.88699205681E+00  0.88000000000E+00 0. -1.
        -11    1    4    4    0    0  0.15279690855E-01  0.29936117344E-01  0.14803905290E-01  0.36729508669E-01  0.51100000000E-03 0. -1.
         11    1    4    4    0    0  0.10291765846E-01  0.85801141336E-01  0.44301115655E-01  0.97111308651E-01  0.51100000000E-03 0.  1.
</event>
<event>
 8    1  0.1138737E+005  0.1043930E+01  0.7957747E-01            NaN
         13   -1    0    0    0    0  0.00000000000E+00  0.00000000000E+00  0.74505805969E-08  0.10566000000E+00  0.10566000000E+00 0.  1.
     999900   -1    0    0    0    0 -0.00000000000E+00 -0.00000000000E+00 -0.74505805969E-08  0.93827000000E+00  0.93827000000E+00 0. -1.
     999902    2    1    2    0    0  0.13065797427E-01 -0.13681635797E-02  0.20790639346E-01  0.10193365533E+01  0.10190398282E+01 0.  0.
     999903    2    3    3    0    0  0.85962150655E-01  0.62590840400E-01 -0.70774769434E-01  0.12928663531E+00  0.19971515586E-01 0.  0.
         14    1    1    2    0    0 -0.13065797427E-01  0.13681635797E-02 -0.20790639346E-01  0.24593446656E-01  0.00000000000E+00 0. -1.
     999901    1    3    3    0    0 -0.72896353227E-01 -0.63959003979E-01  0.91565408780E-01  0.89004991803E+00  0.88000000000E+00 0.  1.
        -11    1    4    4    0    0  0.42975762965E-01  0.23343519940E-01 -0.23320371303E-01  0.54184287061E-01  0.51100000000E-03 0.  1.
         11    1    4    4    0    0  0.42986387690E-01  0.39247320459E-01 -0.47454398131E-01  0.75102348251E-01  0.51100000000E-03 0. -1.
</event>
<event>
 8    1  0.1138737E+005  0.1043930E+01  0.7957747E-01            NaN
         13   -1    0    0    0    0  0.00000000000E+00  0.00000000000E+00  0.74505805969E-08  0.10566000000E+00  0.10566000000E+00 0.  1.
     999900   -1    0    0    0    0 -0.00000000000E+00 -0.00000000000E+00 -0.74505805969E-08  0.93827000000E+00  0.93827000000E+00 0.  1.
     999902    2    1    2    0    0  0.19289407392E-01 -0.37856031889E-02 -0.11723267947E-01  0.10210422950E+01  0.10207857371E+01 0.  0.
     999903    2    3    3    0    0  0.85678663741E-01  0.88992660250E-01  0.40581889450E-01  0.13213781812E+00  0.23515659176E-01 0.  0.
         14    1    1    2    0    0 -0.19289407392E-01  0.37856031889E-02  0.11723267947E-01  0.22887705004E-01  0.00000000000E+00 0.  1.
     999901    1    3    3    0    0 -0.66389256350E-01 -0.92778263439E-01 -0.52305157396E-01  0.88890447688E+00  0.88000000000E+00 0. -1.
        -11    1    4    4    0    0  0.56091204831E-01  0.51093174576E-01  0.35553920190E-01  0.83791873768E-01  0.51100000000E-03 0. -1.
         11    1    4    4    0    0  0.29587458910E-01  0.37899485674E-01  0.50279692602E-02  0.48345944349E-01  0.51100000000E-03 0.  1.
</event>
<event>
 8    1  0.1138737E+005  0.1043930E+01  0.7957747E-01            NaN
         13   -1    0    0    0    0  0.00000000000E+00  0.00000000000E+00  0.74505805969E-08  0.10566000000E+00  0.10566000000E+00 0.  1.
     999900   -1    0    0    0    0 -0.00000000000E+00 -0.00000000000E+00 -0.74505805969E-08  0.93827000000E+00  0.93827000000E+00 0. -1.
     999902    2    1    2    0    0  0.54884344446E-02 -0.40218062112E-02  0.22871781915E-01  0.10200675557E+01  0.10197884104E+01 0.  0.
     999903    2    3    3    0    0  0.57867729779E-01  0.11126034508E+00 -0.28210119805E-01  0.12953797978E+00  0.16023071113E-01 0.  0.
         14    1    1    2    0    0 -0.54884344446E-02  0.40218062112E-02 -0.22871781915E-01  0.23862444255E-01  0.00000000000E+00 0. -1.
     999901    1    3    3    0    0 -0.52379295335E-01 -0.11528215129E+00  0.51081901720E-01  0.89052957597E+00  0.88000000000E+00 0.  1.
        -11    1    4    4    0    0  0.14180095579E-01  0.39368033588E-01 -0.14577405700E-01  0.44313418477E-01  0.51100000000E-03 0.  1.
         11    1    4    4    0    0  0.43687634200E-01  0.71892311496E-01 -0.13632714105E-01  0.85224561302E-01  0.51100000000E-03 0. -1.
</event>
<event>
 8    1  0.1138737E+005  0.1043930E+01  0.7957747E-01            NaN
         13   -1    0    0    0    0  0.00000000000E+00  0.00000000000E+00  0.74505805969E-08  0.10566000000E+00  0.10566000000E+00 0.  1.
     999900   -1    0    0    0    0 -0.00000000000E+00 -0.00000000000E+00 -0.74505805969E-08  0.93827000000E+00  0.93827000000E+00 0. -1.
     999902    2    1    2    0    0 -0.20908538000E-01 -0.39671262487E-02 -0.96295516835E-02  0.10205712047E+01  0.10203038521E+01 0.  0.
     999903    2    3    3    0    0  0.10691249049E+00 -0.33757936648E-01  0.59007813200E-01  0.12819415683E+00  0.19543308779E-01 0.  0.
         14    1    1    2    0    0  0.20908538000E-01  0.39671262487E-02  0.96295516835E-02  0.23358795294E-01  0.00000000000E+00 0.  1.
     999901    1    3    3    0    0 -0.12782102849E+00  0.29790810399E-01 -0.68637364883E-01  0.89237704787E+00  0.88000000000E+00 0. -1.
        -11    1    4    4    0    0  0.40390779301E-01 -0.18306509348E-01  0.14424616063E-01  0.46635544455E-01  0.51100000000E-03 0. -1.
         11    1    4    4    0    0  0.66521711191E-01 -0.15451427300E-01  0.44583197137E-01  0.81558612380E-01  0.51100000000E-03 0.  1.
</event>
<event>
 8    1  0.1138737E+005  0.1043930E+01  0.7957747E-01            NaN
         13   -1    0    0    0    0  0.00000000000E+00  0.00000000000E+00  0.74505805969E-08  0.10566000000E+00  0.10566000000E+00 0. -1.
     999900   -1    0    0    0    0 -0.00000000000E+00 -0.00000000000E+00 -0.74505805969E-08  0.93827000000E+00  0.93827000000E+00 0. -1.
     999902    2    1    2    0    0  0.45947986499E-02  0.39618951103E-02 -0.25552056259E-01  0.10176675484E+01  0.10173286208E+01 0.  0.
     999903    2    3    3    0    0 -0.57135959345E-01  0.38486449693E-01 -0.10942806402E+00  0.13085425570E+00  0.20065153337E-01 0.  0.
         14    1    1    2    0    0 -0.45947986499E-02 -0.39618951103E-02  0.25552056259E-01  0.26262451648E-01  0.00000000000E+00 0. -1.
     999901    1    3    3    0    0  0.61730757994E-01 -0.34524554582E-01  0.83876007762E-01  0.88681329266E+00  0.88000000000E+00 0. -1.
        -11    1    4    4    0    0 -0.17828154736E-01  0.23723046227E-01 -0.48383027416E-01  0.56760941558E-01  0.51100000000E-03 0. -1.
         11    1    4    4    0    0 -0.39307804609E-01  0.14763403466E-01 -0.61045036605E-01  0.74093314139E-01  0.51100000000E-03 0.  1.
</event>
<event>
 8    1  0.1138737E+005  0.1043930E+01  0.7957747E-01            NaN
         13   -1    0    0    0    0  0.00000000000E+00  0.00000000000E+00  0.74505805969E-08  0.10566000000E+00  0.10566000000E+00 0.  1.
     999900   -1    0    0    0    0 -0.00000000000E+00 -0.00000000000E+00 -0.74505805969E-08  0.93827000000E+00  0.93827000000E+00 0.  1.
     999902    2    1    2    0    0  0.60018347797E-02 -0.99310320673E-02 -0.21255520374E-01  0.10197133825E+01  0.10194257883E+01 0.  0.
     999903    2    3    3    0    0  0.38271733656E-01 -0.12423347975E+00 -0.39779682174E-02  0.13156648598E+00  0.19880465614E-01 0.  0.
         14    1    1    2    0    0 -0.60018347797E-02  0.99310320673E-02  0.21255520374E-01  0.24216617539E-01  0.00000000000E+00 0.  1.
     999901    1    3    3    0    0 -0.32269898876E-01  0.11430244769E+00 -0.17277552157E-01  0.88814689648E+00  0.88000000000E+00 0. -1.
        -11    1    4    4    0    0  0.24229288057E-01 -0.84140108082E-01 -0.11849798821E-01  0.88358899048E-01  0.51100000000E-03 0. -1.
         11    1    4    4    0    0  0.14042445599E-01 -0.40093371672E-01  0.78718306037E-02  0.43207586932E-01  0.51100000000E-03 0.  1.
</event>
<event>
 8    1  0.1138737E+005  0.1043930E+01  0.7957747E-01            NaN
         13   -1    0    0    0    0  0.00000000000E+00  0.00000000000E+00  0.74505805969E-08  0.10566000000E+00  0.10566000000E+00 0. -1.
     999900   -1    0    0    0    0 -0.00000000000E+00 -0.00000000000E+00 -0.74505805969E-08  0.93827000000E+00  0.93827000000E+00 0. -1.
     999902    2    1    2    0    0  0.24581650014E-04 -0.24150366685E-01 -0.83319881947E-03  0.10197652522E+01  0.10194789035E+01 0.  0.
     999903    2    3    3    0    0  0.62294106598E-02 -0.79622842379E-01  0.10304144984E+00  0.13189947514E+00  0.20033186774E-01 0.  0.
         14    1    1    2    0    0 -0.24581650014E-04  0.24150366685E-01  0.83319881947E-03  0.24164747785E-01  0.00000000000E+00 0.  1.
     999901    1    3    3    0    0 -0.62048290098E-02  0.55472475694E-01 -0.10387464866E+00  0.88786577707E+00  0.88000000000E+00 0. -1.
        -11    1    4    4    0    0 -0.45127386568E-02 -0.57736539013E-01  0.74360061419E-01  0.94252599978E-01  0.51100000000E-03 0. -1.
         11    1    4    4    0    0  0.10742149317E-01 -0.21886303365E-01  0.28681388420E-01  0.37646875164E-01  0.51100000000E-03 0.  1.
</event>
<event>
 8    1  0.1138737E+005  0.1043930E+01  0.7957747E-01            NaN
         13   -1    0    0    0    0  0.00000000000E+00  0.00000000000E+00  0.74505805969E-08  0.10566000000E+00  0.10566000000E+00 0.  1.
     999900   -1    0    0    0    0 -0.00000000000E+00 -0.00000000000E+00 -0.74505805969E-08  0.93827000000E+00  0.93827000000E+00 0.  1.
     999902    2    1    2    0    0  0.61332186634E-02 -0.12776472893E-01 -0.19723184464E-01  0.10196429945E+01  0.10193537058E+01 0.  0.
     999903    2    3    3    0    0 -0.65158288006E-01  0.12820104639E-01  0.10688408738E+00  0.12736105196E+00  0.19663973182E-01 0.  0.
         14    1    1    2    0    0 -0.61332186634E-02  0.12776472893E-01  0.19723184464E-01  0.24287005500E-01  0.00000000000E+00 0.  1.
     999901    1    3    3    0    0  0.71291506669E-01 -0.25596577532E-01 -0.12660727185E+00  0.89228194254E+00  0.88000000000E+00 0.  1.
        -11    1    4    4    0    0 -0.17481410090E-01  0.22591595148E-02  0.14366201797E-01  0.22745381411E-01  0.51100000000E-03 0. -1.
         11    1    4    4    0    0 -0.47676877916E-01  0.10560945124E-01  0.92517885584E-01  0.10461567055E+00  0.51100000000E-03 0.  1.
</event>
<event>
 8    1  0.1138737E+005  0.1043930E+01  0.7957747E-01            NaN
         13   -1    0    0    0    0  0.00000000000E+00  0.00000000000E+00  0.74505805969E-08  0.10566000000E+00  0.10566000000E+00 0. -1.
     999900   -1    0    0    0    0 -0.00000000000E+00 -0.00000000000E+00 -0.74505805969E-08  0.93827000000E+00  0.93827000000E+00 0. -1.
     999902    2    1    2    0    0 -0.13465084638E-01  0.18282893561E-01 -0.66301892891E-02  0.10202755689E+01  0.10200013257E+01 0.  0.
     999903    2    3    3    0    0  0.14926759540E-01  0.25223976260E-01  0.12487696245E+00  0.13002369082E+00  0.21280208959E-01 0.  0.
         14    1    1    2    0    0  0.13465084638E-01 -0.18282893561E-01  0.66301892891E-02  0.23654431113E-01  0.00000000000E+00 0.  1.
     999901    1    3    3    0    0 -0.28391844178E-01 -0.69410826995E-02 -0.13150715174E+00  0.89025187807E+00  0.88000000000E+00 0. -1.
        -11    1    4    4    0    0 -0.51281770595E-02  0.20731896127E-02  0.21203844138E-01  0.21919407893E-01  0.51100000000E-03 0. -1.
         11    1    4    4    0    0  0.20054936599E-01  0.23150786648E-01  0.10367311832E+00  0.10810428293E+00  0.51100000000E-03 0.  1.
</event>
<event>
 8    1  0.1138737E+005  0.1043930E+01  0.7957747E-01            NaN
         13   -1    0    0    0    0  0.00000000000E+00  0.00000000000E+00  0.74505805969E-08  0.10566000000E+00  0.10566000000E+00 0.  1.
     999900   -1    0    0    0    0 -0.00000000000E+00 -0.00000000000E+00 -0.74505805969E-08  0.93827000000E+00  0.93827000000E+00 0. -1.
     999902    2    1    2    0    0 -0.34731407375E-02 -0.22457217961E-01 -0.49386094578E-02  0.10206753401E+01  0.10204103932E+01 0.  0.
     999903    2    3    3    0    0 -0.27550312987E-02  0.11656101552E+00 -0.50927937171E-01  0.12857579227E+00  0.18547750159E-01 0.  0.
         14    1    1    2    0    0  0.34731407375E-02  0.22457217961E-01  0.49386094578E-02  0.23254659931E-01  0.00000000000E+00 0. -1.
     999901    1    3    3    0    0 -0.71810943877E-03 -0.13901823348E+00  0.45989327714E-01  0.89209954780E+00  0.88000000000E+00 0. -1.
        -11    1    4    4    0    0  0.10974734722E-04  0.34873783551E-01 -0.62725562980E-02  0.35437084857E-01  0.51100000000E-03 0. -1.
         11    1    4    4    0    0 -0.27660060335E-02  0.81687231970E-01 -0.44655380873E-01  0.93138707412E-01  0.51100000000E-03 0.  1.
</event>
<event>
 8    1  0.1138737E+005  0.1043930E+01  0.7957747E-01            NaN
         13   -1    0    0    0    0  0.00000000000E+00  0.00000000000E+00  0.74505805969E-08  0.10566000000E+00  0.10566000000E+00 0.  1.
     999900   -1    0    0    0    0 -0.00000000000E+00 -0.00000000000E+00 -0.74505805969E-08  0.93827000000E+00  0.93827000000E+00 0. -1.
     999902    2    1    2    0    0  0.16847441850E-01  0.14939792543E-01  0.64998936067E-02  0.10204932273E+01  0.10202240659E+01 0.  0.
     999903    2    3    3    0    0  0.70445675009E-01 -0.52879751026E-02 -0.10860713264E+00  0.13114989613E+00  0.20352645701E-01 0.  0.
         14    1    1    2    0    0 -0.16847441850E-01 -0.14939792543E-01 -0.64998936067E-02  0.23436772709E-01  0.00000000000E+00 0. -1.
     999901    1    3    3    0    0 -0.53598233160E-01  0.20227767645E-01  0.11510702625E+00  0.88934333116E+00  0.88000000000E+00 0.  1.
        -11    1    4    4    0    0  0.12260294738E-01  0.20967269065E-02 -0.34257816684E-01  0.36449557141E-01  0.51100000000E-03 0. -1.
         11    1    4    4    0    0  0.58185380271E-01 -0.73847020091E-02 -0.74349315958E-01  0.94700338994E-01  0.51100000000E-03 0.  1.
</event>
<event>
 8    1  0.1138737E+005  0.1043930E+01  0.7957747E-01            NaN
         13   -1    0    0    0    0  0.00000000000E+00  0.00000000000E+00  0.74505805969E-08  0.10566000000E+00  0.10566000000E+00 0. -1.
     999900   -1    0    0    0    0 -0.00000000000E+00 -0.00000000000E+00 -0.74505805969E-08  0.93827000000E+00  0.93827000000E+00 0. -1.
     999902    2    1    2    0    0 -0.27964573271E-02 -0.15963749279E-01  0.18526922316E-01  0.10193147950E+01  0.10190175382E+01 0.  0.
     999903    2    3    3    0    0 -0.96477480523E-01  0.76484474178E-01 -0.29433383806E-01  0.12823511337E+00  0.20497345685E-01 0.  0.
         14    1    1    2    0    0  0.27964573271E-02  0.15963749279E-01 -0.18526922316E-01  0.24615204958E-01  0.00000000000E+00 0.  1.
     999901    1    3    3    0    0  0.93681023196E-01 -0.92448223456E-01  0.47960306123E-01  0.89107968167E+00  0.88000000000E+00 0.  1.
        -11    1    4    4    0    0 -0.39919658704E-01  0.41712339751E-01 -0.70392076508E-02  0.58166227348E-01  0.51100000000E-03 0. -1.
         11    1    4    4    0    0 -0.56557821819E-01  0.34772134426E-01 -0.22394176156E-01  0.70068886021E-01  0.51100000000E-03 0.  1.
</event>
<event>
 8    1  0.1138737E+005  0.1043930E+01  0.7957747E-01            NaN
         13   -1    0    0    0    0  0.00000000000E+00  0.00000000000E+00  0.74505805969E-08  0.10566000000E+00  0.10566000000E+00 0. -1.
     999900   -1    0    0    0    0 -0.00000000000E+00 -0.00000000000E+00 -0.74505805969E-08  0.93827000000E+00  0.93827000000E+00 0.  1.
     999902    2    1    2    0    0  0.19511350776E-01 -0.13633329370E-01 -0.42885260602E-02  0.10197442204E+01  0.10194573670E+01 0.  0.
     999903    2    3    3    0    0 -0.23454520693E-02  0.82754982511E-01  0.96208109949E-01  0.12852707495E+00  0.20231665782E-01 0.  0.
         14    1    1    2    0    0 -0.19511350776E-01  0.13633329370E-01  0.42885260602E-02  0.24185779594E-01  0.00000000000E+00 0.  1.
     999901    1    3    3    0    0  0.21856802845E-01 -0.96388311882E-01 -0.10049663601E+00  0.89121714545E+00  0.88000000000E+00 0.  1.
        -11    1    4    4    0    0  0.66663766327E-02  0.34302146535E-01  0.30475394577E-01  0.46369048189E-01  0.51100000000E-03 0.  1.
         11    1    4    4    0    0 -0.90118287020E-02  0.48452835976E-01  0.65732715372E-01  0.82158026765E-01  0.51100000000E-03 0. -1.
</event>
<event>
 8    1  0.1138737E+005  0.1043930E+01  0.7957747E-01            NaN
         13   -1    0    0    0    0  0.00000000000E+00  0.00000000000E+00  0.74505805969E-08  0.10566000000E+00  0.10566000000E+00 0.  1.
     999900   -1    0    0    0    0 -0.00000000000E+00 -0.00000000000E+00 -0.74505805969E-08  0.93827000000E+00  0.93827000000E+00 0.  1.
     999902    2    1    2    0    0 -0.86204459821E-02  0.66951792808E-02  0.23911199605E-01  0.10176453470E+01  0.10173058387E+01 0.  0.
     999903    2    3    3    0    0  0.98594161138E-01 -0.44812850286E-01  0.66368945757E-01  0.12862863781E+00  0.20285200077E-01 0.  0.
         14    1    1    2    0    0  0.86204459821E-02 -0.66951792808E-02 -0.23911199605E-01  0.26284652958E-01  0.00000000000E+00 0. -1.
     999901    1    3    3    0    0 -0.10721460712E+00  0.51508029567E-01 -0.42457746152E-01  0.88901670923E+00  0.88000000000E+00 0.  1.
        -11    1    4    4    0    0  0.58829924954E-01 -0.29011838759E-01  0.28627403580E-01  0.71571196826E-01  0.51100000000E-03 0. -1.
         11    1    4    4    0    0  0.39764236184E-01 -0.15801011527E-01  0.37741542177E-01  0.57057440982E-01  0.51100000000E-03 0.  1.
</event>
<event>
 8    1  0.1138737E+005  0.1043930E+01  0.7957747E-01            NaN
         13   -1    0    0    0    0  0.00000000000E+00  0.00000000000E+00  0.74505805969E-08  0.10566000000E+00  0.10566000000E+00 0.  1.
     999900   -1    0    0    0    0 -0.00000000000E+00 -0.00000000000E+00 -0.74505805969E-08  0.93827000000E+00  0.93827000000E+00 0. -1.
     999902    2    1    2    0    0 -0.48834431686E-02 -0.22633433248E-01 -0.87855306044E-02  0.10191649871E+01  0.10188640562E+01 0.  0.
     999903    2    3    3    0    0  0.46236693006E-01 -0.72383033482E-01  0.95550942460E-01  0.13013495908E+00  0.20687910797E-01 0.  0.
         14    1    1    2    0    0  0.48834431686E-02  0.22633433248E-01  0.87855306044E-02  0.24765012937E-01  0.00000000000E+00 0.  1.
     999901    1    3    3    0    0 -0.51120136175E-01  0.49749600234E-01 -0.10433647306E+00  0.88903002798E+00  0.88000000000E+00 0. -1.
        -11    1    4    4    0    0  0.25192068010E-01 -0.23029006492E-01  0.30182853421E-01  0.45565789714E-01  0.51100000000E-03 0. -1.
         11    1    4    4    0    0  0.21044624996E-01 -0.49354026990E-01  0.65368089039E-01  0.84569169364E-01  0.51100000000E-03 0.  1.
</event>
<event>
 8    1  0.1138737E+005  0.1043930E+01  0.7957747E-01            NaN
         13   -1    0    0    0    0  0.00000000000E+00  0.00000000000E+00  0.74505805969E-08  0.10566000000E+00  0.10566000000E+00 0.  1.
     999900   -1    0    0    0    0 -0.00000000000E+00 -0.00000000000E+00 -0.74505805969E-08  0.93827000000E+00  0.93827000000E+00 0. -1.
     999902    2    1    2    0    0  0.90138724376E-03  0.10976028223E-01  0.26182813304E-01  0.10155253277E+01  0.10151280047E+01 0.  0.
     999903    2    3    3    0    0 -0.10275431179E+00 -0.68927858611E-01 -0.32695158899E-02  0.12535872828E+00  0.19865113588E-01 0.  0.
         14    1    1    2    0    0 -0.90138724376E-03 -0.10976028223E-01 -0.26182813304E-01  0.28404672275E-01  0.00000000000E+00 0. -1.
     999901    1    3    3    0    0  0.10365569903E+00  0.79903886834E-01  0.29452329194E-01  0.89016659945E+00  0.88000000000E+00 0.  1.
        -11    1    4    4    0    0 -0.34524943408E-01 -0.29244608018E-01 -0.93062520506E-02  0.46196171526E-01  0.51100000000E-03 0.  1.
         11    1    4    4    0    0 -0.68229368381E-01 -0.39683250594E-01  0.60367361606E-02  0.79162556754E-01  0.51100000000E-03 0. -1.
</event>
<event>
 8    1  0.1138737E+005  0.1043930E+01  0.7957747E-01            NaN
         13   -1    0    0    0    0  0.00000000000E+00  0.00000000000E+00  0.74505805969E-08  0.10566000000E+00  0.10566000000E+00 0.  1.
     999900   -1    0    0    0    0 -0.00000000000E+00 -0.00000000000E+00 -0.74505805969E-08  0.93827000000E+00  0.93827000000E+00 0. -1.
     999902    2    1    2    0    0 -0.65328876134E-03 -0.20760455743E-01 -0.19310714538E-01  0.10155693405E+01  0.10151732652E+01 0.  0.
     999903    2    3    3    0    0  0.11175492643E+00  0.53996853764E-02 -0.57382014714E-01  0.12721727986E+00  0.19318915585E-01 0.  0.
         14    1    1    2    0    0  0.65328876134E-03  0.20760455743E-01  0.19310714538E-01  0.28360659457E-01  0.00000000000E+00 0.  1.
     999901    1    3    3    0    0 -0.11240821519E+00 -0.26160141120E-01  0.38071300175E-01  0.88835206068E+00  0.88000000000E+00 0.  1.
        -11    1    4    4    0    0  0.21377965545E-01  0.78469244482E-02 -0.76388156636E-02  0.24025075648E-01  0.51100000000E-03 0.  1.
         11    1    4    4    0    0  0.90376960881E-01 -0.24472390718E-02 -0.49743199050E-01  0.10319220421E+00  0.51100000000E-03 0. -1.
</event>
<event>
 8    1  0.1138737E+005  0.1043930E+01  0.7957747E-01            NaN
         13   -1    0    0    0    0  0.00000000000E+00  0.00000000000E+00  0.74505805969E-08  0.10566000000E+00  0.10566000000E+00 0. -1.
     999900   -1    0    0    0    0 -0.00000000000E+00 -0.00000000000E+00 -0.74505805969E-08  0.93827000000E+00  0.93827000000E+00 0. -1.
     999902    2    1    2    0    0 -0.22426633304E-02 -0.22848005274E-01 -0.56913776958E-02  0.10202772483E+01  0.10200030445E+01 0.  0.
     999903    2    3    3    0    0  0.29959567380E-01 -0.10771439703E+00  0.68327085033E-01  0.13251713376E+00  0.19804877816E-01 0.  0.
         14    1    1    2    0    0  0.22426633304E-02  0.22848005274E-01  0.56913776958E-02  0.23652751719E-01  0.00000000000E+00 0.  1.
     999901    1    3    3    0    0 -0.32202230711E-01  0.84866391756E-01 -0.74018462729E-01  0.88776011452E+00  0.88000000000E+00 0.  1.
        -11    1    4    4    0    0  0.30392380073E-01 -0.10159567480E+00  0.68694377984E-01  0.12635092636E+00  0.51100000000E-03 0. -1.
         11    1    4    4    0    0 -0.43281269312E-03 -0.61187222318E-02 -0.36729295105E-03  0.61662073991E-02  0.51100000000E-03 0.  1.
</event>
<event>
 8    1  0.1138737E+005  0.1043930E+01  0.7957747E-01            NaN
         13   -1    0    0    0    0  0.00000000000E+00  0.00000000000E+00  0.74505805969E-08  0.10566000000E+00  0.10566000000E+00 0.  1.
     999900   -1    0    0    0    0 -0.00000000000E+00 -0.00000000000E+00 -0.74505805969E-08  0.93827000000E+00  0.93827000000E+00 0. -1.
     999902    2    1    2    0    0  0.62067064253E-02  0.21385813873E-01 -0.66720841618E-02  0.10206836466E+01  0.10204188912E+01 0.  0.
     999903    2    3    3    0    0 -0.50367760806E-01  0.11464182754E+00 -0.41315232555E-01  0.13327308650E+00  0.19367684259E-01 0.  0.
         14    1    1    2    0    0 -0.62067064253E-02 -0.21385813873E-01  0.66720841618E-02  0.23246353407E-01  0.00000000000E+00 0.  1.
     999901    1    3    3    0    0  0.56574467232E-01 -0.93256013672E-01  0.34643148393E-01  0.88741056009E+00  0.88000000000E+00 0.  1.
        -11    1    4    4    0    0 -0.45957219022E-01  0.10151603154E+00 -0.42725024937E-01  0.11934512775E+00  0.51100000000E-03 0. -1.
         11    1    4    4    0    0 -0.44105417848E-02  0.13125796002E-01  0.14097923818E-02  0.13927958755E-01  0.51100000000E-03 0.  1.
</event>
<event>
 8    1  0.1138737E+005  0.1043930E+01  0.7957747E-01            NaN
         13   -1    0    0    0    0  0.00000000000E+00  0.00000000000E+00  0.74505805969E-08  0.10566000000E+00  0.10566000000E+00 0.  1.
     999900   -1    0    0    0    0 -0.00000000000E+00 -0.00000000000E+00 -0.74505805969E-08  0.93827000000E+00  0.93827000000E+00 0. -1.
     999902    2    1    2    0    0 -0.97007679829E-02  0.16956094510E-01  0.13095855177E-01  0.10204115931E+01  0.10201405314E+01 0.  0.
     999903    2    3    3    0    0  0.59897366651E-01 -0.23956036381E-02 -0.11187455376E+00  0.12865154035E+00  0.21020694739E-01 0.  0.
         14    1    1    2    0    0  0.97007679829E-02 -0.16956094510E-01 -0.13095855177E-01  0.23518406904E-01  0.00000000000E+00 0. -1.
     999901    1    3    3    0    0 -0.69598134634E-01  0.19351698148E-01  0.12497040893E+00  0.89176005275E+00  0.88000000000E+00 0.  1.
        -11    1    4    4    0    0  0.26692615500E-01 -0.11403772427E-01 -0.47909238823E-01  0.56018729309E-01  0.51100000000E-03 0.  1.
         11    1    4    4    0    0  0.33204751150E-01  0.90081687891E-02 -0.63965314935E-01  0.72632811040E-01  0.51100000000E-03 0. -1.
</event>
<event>
 8    1  0.1138737E+005  0.1043930E+01  0.7957747E-01            NaN
         13   -1    0    0    0    0  0.00000000000E+00  0.00000000000E+00  0.74505805969E-08  0.10566000000E+00  0.10566000000E+00 0.  1.
     999900   -1    0    0    0    0 -0.00000000000E+00 -0.00000000000E+00 -0.74505805969E-08  0.93827000000E+00  0.93827000000E+00 0. -1.
     999902    2    1    2    0    0  0.20733031843E-01  0.32769689944E-02  0.10812899483E-01  0.10203182248E+01  0.10200449813E+01 0.  0.
     999903    2    3    3    0    0 -0.53770071152E-01 -0.95065688898E-01 -0.64718506393E-01  0.12850715508E+00  0.19922301053E-01 0.  0.
         14    1    1    2    0    0 -0.20733031843E-01 -0.32769689944E-02 -0.10812899483E-01  0.23611775249E-01  0.00000000000E+00 0. -1.
     999901    1    3    3    0    0  0.74503102995E-01  0.98342657892E-01  0.75531405875E-01  0.89181106967E+00  0.88000000000E+00 0.  1.
        -11    1    4    4    0    0 -0.22173176420E-01 -0.22297301260E-01 -0.22219751712E-01  0.38507114708E-01  0.51100000000E-03 0.  1.
         11    1    4    4    0    0 -0.31596894732E-01 -0.72768387638E-01 -0.42498754681E-01  0.90000040370E-01  0.51100000000E-03 0. -1.
</event>
<event>
 8    1  0.1138737E+005  0.1043930E+01  0.7957747E-01            NaN
         13   -1    0    0    0    0  0.00000000000E+00  0.00000000000E+00  0.74505805969E-08  0.10566000000E+00  0.10566000000E+00 0. -1.
     999900   -1    0    0    0    0 -0.00000000000E+00 -0.00000000000E+00 -0.74505805969E-08  0.93827000000E+00  0.93827000000E+00 0. -1.
     999902    2    1    2    0    0 -0.91448890711E-03 -0.41863581640E-02  0.32809594403E-01  0.10108417639E+01  0.10103000744E+01 0.  0.
     999903    2    3    3    0    0  0.62772365513E-01  0.78875431219E-01 -0.61365829213E-01  0.11964914346E+00  0.19709109901E-01 0.  0.
         14    1    1    2    0    0  0.91448890711E-03  0.41863581640E-02 -0.32809594403E-01  0.33088236120E-01  0.00000000000E+00 0.  1.
     999901    1    3    3    0    0 -0.63686854420E-01 -0.83061789383E-01  0.94175423616E-01  0.89119262042E+00  0.88000000000E+00 0. -1.
        -11    1    4    4    0    0  0.21242741325E-01  0.33079084097E-01 -0.13884332505E-01  0.41695511435E-01  0.51100000000E-03 0.  1.
         11    1    4    4    0    0  0.41529624189E-01  0.45796347122E-01 -0.47481496708E-01  0.77953632023E-01  0.51100000000E-03 0. -1.
</event>
<event>
 8    1  0.1138737E+005  0.1043930E+01  0.7957747E-01            NaN
         13   -1    0    0    0    0  0.00000000000E+00  0.00000000000E+00  0.74505805969E-08  0.10566000000E+00  0.10566000000E+00 0.  1.
     999900   -1    0    0    0    0 -0.00000000000E+00 -0.00000000000E+00 -0.74505805969E-08  0.93827000000E+00  0.93827000000E+00 0. -1.
     999902    2    1    2    0    0 -0.16042452012E-01  0.13213364465E-01  0.12185065529E-01  0.10198379040E+01  0.10195532950E+01 0.  0.
     999903    2    3    3    0    0  0.88606649163E-01  0.59030027922E-01 -0.69368257320E-01  0.12871414970E+00  0.20486452555E-01 0.  0.
         14    1    1    2    0    0  0.16042452012E-01 -0.13213364465E-01 -0.12185065529E-01  0.24092095986E-01  0.00000000000E+00 0. -1.
     999901    1    3    3    0    0 -0.10464910118E+00 -0.45816663457E-01  0.81553322849E-01  0.89112375431E+00  0.88000000000E+00 0. -1.
        -11    1    4    4    0    0  0.52292862903E-01  0.23088661274E-01 -0.33118229108E-01  0.66065936838E-01  0.51100000000E-03 0. -1.
         11    1    4    4    0    0  0.36313786260E-01  0.35941366648E-01 -0.36250028212E-01  0.62648212867E-01  0.51100000000E-03 0.  1.
</event>
<event>
 8    1  0.1138737E+005  0.1043930E+01  0.7957747E-01            NaN
         13   -1    0    0    0    0  0.00000000000E+00  0.00000000000E+00  0.74505805969E-08  0.10566000000E+00  0.10566000000E+00 0.  1.
     999900   -1    0    0    0    0 -0.00000000000E+00 -0.00000000000E+00 -0.74505805969E-08  0.93827000000E+00  0.93827000000E+00 0.  1.
     999902    2    1    2    0    0  0.13455321484E-01  0.18419634191E-01  0.13817116771E-04  0.10211192834E+01  0.10208644681E+01 0.  0.
     999903    2    3    3    0    0 -0.29665855221E-01 -0.43106942765E-01 -0.11841038322E+00  0.13001365176E+00  0.12010799692E-01 0.  0.
         14    1    1    2    0    0 -0.13455321484E-01 -0.18419634191E-01 -0.13817116771E-04  0.22810716580E-01  0.00000000000E+00 0.  1.
     999901    1    3    3    0    0  0.43121176706E-01  0.61526576955E-01  0.11842420034E+00  0.89110563166E+00  0.88000000000E+00 0. -1.
        -11    1    4    4    0    0 -0.93386688527E-02 -0.23644804684E-01 -0.51960463336E-01  0.57848408756E-01  0.51100000000E-03 0.  1.
         11    1    4    4    0    0 -0.20327186369E-01 -0.19462138081E-01 -0.66449919883E-01  0.72165243004E-01  0.51100000000E-03 0. -1.
</event>
<event>
 8    1  0.1138737E+005  0.1043930E+01  0.7957747E-01            NaN
         13   -1    0    0    0    0  0.00000000000E+00  0.00000000000E+00  0.74505805969E-08  0.10566000000E+00  0.10566000000E+00 0.  1.
     999900   -1    0    0    0    0 -0.00000000000E+00 -0.00000000000E+00 -0.74505805969E-08  0.93827000000E+00  0.93827000000E+00 0.  1.
     999902    2    1    2    0    0 -0.19185360596E-01  0.15686385466E-01  0.99222173497E-02  0.10172355971E+01  0.10168852781E+01 0.  0.
     999903    2    3    3    0    0  0.19226650231E-01  0.14518494843E-01  0.12490721035E+00  0.12892349249E+00  0.20952444910E-01 0.  0.
         14    1    1    2    0    0  0.19185360596E-01 -0.15686385466E-01 -0.99222173497E-02  0.26694402921E-01  0.00000000000E+00 0. -1.
     999901    1    3    3    0    0 -0.38412010827E-01  0.11678906229E-02 -0.11498499300E+00  0.88831210459E+00  0.88000000000E+00 0.  1.
        -11    1    4    4    0    0  0.61865324109E-02 -0.59576826630E-03  0.73656503020E-01  0.73920022195E-01  0.51100000000E-03 0. -1.
         11    1    4    4    0    0  0.13040117820E-01  0.15114263109E-01  0.51250707326E-01  0.55003470295E-01  0.51100000000E-03 0.  1.
</event>
<event>
 8    1  0.1138737E+005  0.1043930E+01  0.7957747E-01            NaN
         13   -1    0    0    0    0  0.00000000000E+00  0.00000000000E+00  0.74505805969E-08  0.10566000000E+00  0.10566000000E+00 0. -1.
     999900   -1    0    0    0    0 -0.00000000000E+00 -0.00000000000E+00 -0.74505805969E-08  0.93827000000E+00  0.93827000000E+00 0.  1.
     999902    2    1    2    0    0 -0.80640451171E-02  0.99657921977E-02 -0.23367373463E-01  0.10172770456E+01  0.10169278280E+01 0.  0.
     999903    2    3    3    0    0 -0.91714471814E-02 -0.80859968554E-01  0.92555553247E-01  0.12503903354E+00  0.21113491284E-01 0.  0.
         14    1    1    2    0    0  0.80640451171E-02 -0.99657921977E-02  0.23367373463E-01  0.26652954439E-01  0.00000000000E+00 0. -1.
     999901    1    3    3    0    0  0.11074020643E-02  0.90825760751E-01 -0.11592292671E+00  0.89223801202E+00  0.88000000000E+00 0.  1.
        -11    1    4    4    0    0 -0.13148968190E-01 -0.47530694580E-01  0.44552025460E-01  0.66462067266E-01  0.51100000000E-03 0.  1.
         11    1    4    4    0    0  0.39775210089E-02 -0.33329273974E-01  0.48003527788E-01  0.58576966276E-01  0.51100000000E-03 0. -1.
</event>
<event>
 8    1  0.1138737E+005  0.1043930E+01  0.7957747E-01            NaN
         13   -1    0    0    0    0  0.00000000000E+00  0.00000000000E+00  0.74505805969E-08  0.10566000000E+00  0.10566000000E+00 0.  1.
     999900   -1    0    0    0    0 -0.00000000000E+00 -0.00000000000E+00 -0.74505805969E-08  0.93827000000E+00  0.93827000000E+00 0. -1.
     999902    2    1    2    0    0 -0.18584348753E-01  0.17164342987E-01 -0.21280301254E-02  0.10185425779E+01  0.10182261349E+01 0.  0.
     999903    2    3    3    0    0 -0.11875703983E+00  0.54413662525E-01 -0.15094300480E-01  0.13198169222E+00  0.11280425341E-01 0.  0.
         14    1    1    2    0    0  0.18584348753E-01 -0.17164342987E-01  0.21280301254E-02  0.25387422102E-01  0.00000000000E+00 0.  1.
     999901    1    3    3    0    0  0.10017269108E+00 -0.37249319538E-01  0.12966270354E-01  0.88656088568E+00  0.88000000000E+00 0. -1.
        -11    1    4    4    0    0 -0.63039955057E-01  0.25046375162E-01 -0.12251595830E-01  0.68932717658E-01  0.51100000000E-03 0. -1.
         11    1    4    4    0    0 -0.55717084774E-01  0.29367287364E-01 -0.28427046501E-02  0.63048974564E-01  0.51100000000E-03 0.  1.
</event>
<event>
 8    1  0.1138737E+005  0.1043930E+01  0.7957747E-01            NaN
         13   -1    0    0    0    0  0.00000000000E+00  0.00000000000E+00  0.74505805969E-08  0.10566000000E+00  0.10566000000E+00 0. -1.
     999900   -1    0    0    0    0 -0.00000000000E+00 -0.00000000000E+00 -0.74505805969E-08  0.93827000000E+00  0.93827000000E+00 0. -1.
     999902    2    1    2    0    0 -0.16814405586E-01 -0.96961333287E-02  0.14227393978E-01  0.10198642988E+01  0.10195803205E+01 0.  0.
     999903    2    3    3    0    0  0.11053857939E-02  0.12593693878E+00  0.22300853575E-01  0.12925628739E+00  0.18668833168E-01 0.  0.
         14    1    1    2    0    0  0.16814405586E-01  0.96961333287E-02 -0.14227393978E-01  0.24065701239E-01  0.00000000000E+00 0. -1.
     999901    1    3    3    0    0 -0.17919791380E-01 -0.13563307211E+00 -0.80734595973E-02  0.89060801137E+00  0.88000000000E+00 0. -1.
        -11    1    4    4    0    0 -0.73482964126E-02  0.49825193654E-01  0.40449795649E-02  0.50528906217E-01  0.51100000000E-03 0.  1.
         11    1    4    4    0    0  0.84536822065E-02  0.76111745126E-01  0.18255874010E-01  0.78727381170E-01  0.51100000000E-03 0. -1.
</event>
<event>
 8    1  0.1138737E+005  0.1043930E+01  0.7957747E-01            NaN
         13   -1    0    0    0    0  0.00000000000E+00  0.00000000000E+00  0.74505805969E-08  0.10566000000E+00  0.10566000000E+00 0.  1.
     999900   -1    0    0    0    0 -0.00000000000E+00 -0.00000000000E+00 -0.74505805969E-08  0.93827000000E+00  0.93827000000E+00 0. -1.
     999902    2    1    2    0    0 -0.18804635859E-01  0.11010218803E-01 -0.14824685892E-01  0.10175745345E+01  0.10172331703E+01 0.  0.
     999903    2    3    3    0    0 -0.42475200933E-01  0.73203025801E-01 -0.98182183787E-01  0.13113406088E+00  0.19838725459E-01 0.  0.
         14    1    1    2    0    0  0.18804635859E-01 -0.11010218803E-01  0.14824685892E-01  0.26355465461E-01  0.00000000000E+00 0. -1.
     999901    1    3    3    0    0  0.23670565075E-01 -0.62192806998E-01  0.83357497895E-01  0.88644047366E+00  0.88000000000E+00 0.  1.
        -11    1    4    4    0    0 -0.24540835141E-01  0.25623623955E-01 -0.32939910412E-01  0.48416128645E-01  0.51100000000E-03 0.  1.
         11    1    4    4    0    0 -0.17934365792E-01  0.47579401846E-01 -0.65242273375E-01  0.82717932231E-01  0.51100000000E-03 0. -1.
</event>
<event>
 8    1  0.1138737E+005  0.1043930E+01  0.7957747E-01            NaN
         13   -1    0    0    0    0  0.00000000000E+00  0.00000000000E+00  0.74505805969E-08  0.10566000000E+00  0.10566000000E+00 0.  1.
     999900   -1    0    0    0    0 -0.00000000000E+00 -0.00000000000E+00 -0.74505805969E-08  0.93827000000E+00  0.93827000000E+00 0.  1.
     999902    2    1    2    0    0  0.69717853138E-02  0.13701625764E-01  0.17661474514E-01  0.10205148762E+01  0.10202462176E+01 0.  0.
     999903    2    3    3    0    0  0.32476394237E-01 -0.12227527169E+00 -0.16123670217E-01  0.12906569780E+00  0.19799579754E-01 0.  0.
         14    1    1    2    0    0 -0.69717853138E-02 -0.13701625764E-01 -0.17661474514E-01  0.23415123767E-01  0.00000000000E+00 0. -1.
     999901    1    3    3    0    0 -0.25504608923E-01  0.13597689746E+00  0.33785144731E-01  0.89144917843E+00  0.88000000000E+00 0. -1.
        -11    1    4    4    0    0 -0.27958688979E-03 -0.13976768727E-01 -0.67523657667E-02  0.15533312504E-01  0.51100000000E-03 0.  1.
         11    1    4    4    0    0  0.32755981127E-01 -0.10829850296E+00 -0.93713044505E-02  0.11353238530E+00  0.51100000000E-03 0. -1.
</event>
<event>
 8    1  0.1138737E+005  0.1043930E+01  0.7957747E-01            NaN
         13   -1    0    0    0    0  0.00000000000E+00  0.00000000000E+00  0.74505805969E-08  0.10566000000E+00  0.10566000000E+00 0.  1.
     999900   -1    0    0    0    0 -0.00000000000E+00 -0.00000000000E+00 -0.74505805969E-08  0.93827000000E+00  0.93827000000E+00 0.  1.
     999902    2    1    2    0    0  0.12839438894E-01 -0.20100800728E-01  0.80227727356E-02  0.10187653767E+01  0.10184545324E+01 0.  0.
     999903    2    3    3    0    0 -0.52016529313E-01 -0.11512133664E+00 -0.26548112177E-01  0.13060416112E+00  0.19849513107E-01 0.  0.
         14    1    1    2    0    0 -0.12839438894E-01  0.20100800728E-01 -0.80227727356E-02  0.25164623251E-01  0.00000000000E+00 0. -1.
     999901    1    3    3    0    0  0.64855968207E-01  0.95020535914E-01  0.34570884913E-01  0.88816121563E+00  0.88000000000E+00 0. -1.
        -11    1    4    4    0    0 -0.34713579509E-01 -0.90697028536E-01 -0.26508638497E-01  0.10066753510E+00  0.51100000000E-03 0.  1.
         11    1    4    4    0    0 -0.17302949803E-01 -0.24424308106E-01 -0.39473680073E-04  0.29936626021E-01  0.51100000000E-03 0. -1.
</event>
<event>
 8    1  0.1138737E+005  0.1043930E+01  0.7957747E-01            NaN
         13   -1    0    0    0    0  0.00000000000E+00  0.00000000000E+00  0.74505805969E-08  0.10566000000E+00  0.10566000000E+00 0. -1.
     999900   -1    0    0    0    0 -0.00000000000E+00 -0.00000000000E+00 -0.74505805969E-08  0.93827000000E+00  0.93827000000E+00 0.  1.
     999902    2    1    2    0    0  0.22986098661E-01  0.90221042223E-02  0.14318474138E-02  0.10191952212E+01  0.10188950336E+01 0.  0.
     999903    2    3    3    0    0  0.61611702940E-01 -0.62742013690E-01  0.94329515882E-01  0.13056031148E+00  0.20380754329E-01 0.  0.
         14    1    1    2    0    0 -0.22986098661E-01 -0.90221042223E-02 -0.14318474138E-02  0.24734778819E-01  0.00000000000E+00 0. -1.
     999901    1    3    3    0    0 -0.38625604280E-01  0.71764117912E-01 -0.92897668468E-01  0.88863490970E+00  0.88000000000E+00 0.  1.
        -11    1    4    4    0    0  0.29189485147E-01 -0.43981998527E-01  0.56333712177E-01  0.77202269955E-01  0.51100000000E-03 0.  1.
         11    1    4    4    0    0  0.32422217793E-01 -0.18760015163E-01  0.37995803705E-01  0.53358041529E-01  0.51100000000E-03 0. -1.
</event>
<event>
 8    1  0.1138737E+005  0.1043930E+01  0.7957747E-01            NaN
         13   -1    0    0    0    0  0.00000000000E+00  0.00000000000E+00  0.74505805969E-08  0.10566000000E+00  0.10566000000E+00 0.  1.
     999900   -1    0    0    0    0 -0.00000000000E+00 -0.00000000000E+00 -0.74505805969E-08  0.93827000000E+00  0.93827000000E+00 0. -1.
     999902    2    1    2    0    0  0.17054677094E-01  0.16334084920E-01 -0.35518298355E-03  0.10203124113E+01  0.10200390317E+01 0.  0.
     999903    2    3    3    0    0 -0.10807292148E+00 -0.65482899870E-01  0.63512070309E-02  0.12767815776E+00  0.17134981939E-01 0.  0.
         14    1    1    2    0    0 -0.17054677094E-01 -0.16334084920E-01  0.35518298355E-03  0.23617588697E-01  0.00000000000E+00 0.  1.
     999901    1    3    3    0    0  0.12512759858E+00  0.81816984790E-01 -0.67063900145E-02  0.89263425354E+00  0.88000000000E+00 0.  1.
        -11    1    4    4    0    0 -0.54039171922E-01 -0.36022407051E-01  0.11345680444E-01  0.65930505061E-01  0.51100000000E-03 0. -1.
         11    1    4    4    0    0 -0.54033749559E-01 -0.29460492819E-01 -0.49944734134E-02  0.61747652702E-01  0.51100000000E-03 0.  1.
</event>
<event>
 8    1  0.1138737E+005  0.1043930E+01  0.7957747E-01            NaN
         13   -1    0    0    0    0  0.00000000000E+00  0.00000000000E+00  0.74505805969E-08  0.10566000000E+00  0.10566000000E+00 0.  1.
     999900   -1    0    0    0    0 -0.00000000000E+00 -0.00000000000E+00 -0.74505805969E-08  0.93827000000E+00  0.93827000000E+00 0. -1.
     999902    2    1    2    0    0 -0.18917448714E-01  0.11672958004E-01 -0.78305549804E-02  0.10203621107E+01  0.10200898939E+01 0.  0.
     999903    2    3    3    0    0  0.12083241238E+00 -0.30242860562E-01 -0.23274043590E-01  0.12821556397E+00  0.19556258407E-01 0.  0.
         14    1    1    2    0    0  0.18917448714E-01 -0.11672958004E-01  0.78305549804E-02  0.23567889292E-01  0.00000000000E+00 0.  1.
     999901    1    3    3    0    0 -0.13974986109E+00  0.41915818566E-01  0.15443488609E-01  0.89214654674E+00  0.88000000000E+00 0.  1.
        -11    1    4    4    0    0  0.39886646448E-01 -0.98701904479E-02 -0.17122563900E-01  0.44517508240E-01  0.51100000000E-03 0.  1.
         11    1    4    4    0    0  0.80945765928E-01 -0.20372670114E-01 -0.61514796895E-02  0.83698055728E-01  0.51100000000E-03 0. -1.
</event>
<event>
 8    1  0.1138737E+005  0.1043930E+01  0.7957747E-01            NaN
         13   -1    0    0    0    0  0.00000000000E+00  0.00000000000E+00  0.74505805969E-08  0.10566000000E+00  0.10566000000E+00 0.  1.
     999900   -1    0    0    0    0 -0.00000000000E+00 -0.00000000000E+00 -0.74505805969E-08  0.93827000000E+00  0.93827000000E+00 0.  1.
     999902    2    1    2    0    0 -0.67678038142E-02  0.17485826410E-01 -0.15453194682E-01  0.10196327055E+01  0.10193431687E+01 0.  0.
     999903    2    3    3    0    0 -0.60996777546E-01  0.29959756220E-01  0.10816882726E+00  0.12925144738E+00  0.19678607561E-01 0.  0.
         14    1    1    2    0    0  0.67678038142E-02 -0.17485826410E-01  0.15453194682E-01  0.24297294491E-01  0.00000000000E+00 0.  1.
     999901    1    3    3    0    0  0.54228973732E-01 -0.12473929810E-01 -0.12362202194E+00  0.89038125813E+00  0.88000000000E+00 0.  1.
        -11    1    4    4    0    0 -0.14369689524E-01  0.13650346821E-02  0.35270435469E-01  0.38113200284E-01  0.51100000000E-03 0. -1.
         11    1    4    4    0    0 -0.46627088022E-01  0.28594721538E-01  0.72898391790E-01  0.91138247096E-01  0.51100000000E-03 0.  1.
</event>
<event>
 8    1  0.1138737E+005  0.1043930E+01  0.7957747E-01            NaN
         13   -1    0    0    0    0  0.00000000000E+00  0.00000000000E+00  0.74505805969E-08  0.10566000000E+00  0.10566000000E+00 0. -1.
     999900   -1    0    0    0    0 -0.00000000000E+00 -0.00000000000E+00 -0.74505805969E-08  0.93827000000E+00  0.93827000000E+00 0. -1.
     999902    2    1    2    0    0 -0.21599013569E-01  0.32796306447E-02 -0.89979838630E-02  0.10203029588E+01  0.10200293577E+01 0.  0.
     999903    2    3    3    0    0 -0.31534281414E-01  0.17656593874E-01 -0.12578276818E+00  0.13241552644E+00  0.20159381405E-01 0.  0.
         14    1    1    2    0    0  0.21599013569E-01 -0.32796306447E-02  0.89979838630E-02  0.23627041243E-01  0.00000000000E+00 0. -1.
     999901    1    3    3    0    0  0.99352678446E-02 -0.14376963229E-01  0.11678478432E+00  0.88788743232E+00  0.88000000000E+00 0.  1.
        -11    1    4    4    0    0 -0.33226821252E-01  0.15718986498E-01 -0.12375688958E+00  0.12910126656E+00  0.51100000000E-03 0. -1.
         11    1    4    4    0    0  0.16925398383E-02  0.19376073752E-02 -0.20258786016E-02  0.33142598801E-02  0.51100000000E-03 0.  1.
</event>
<event>
 8    1  0.1138737E+005  0.1043930E+01  0.7957747E-01            NaN
         13   -1    0    0    0    0  0.00000000000E+00  0.00000000000E+00  0.74505805969E-08  0.10566000000E+00  0.10566000000E+00 0. -1.
     999900   -1    0    0    0    0 -0.00000000000E+00 -0.00000000000E+00 -0.74505805969E-08  0.93827000000E+00  0.93827000000E+00 0.  1.
     999902    2    1    2    0    0 -0.86122658710E-02 -0.21314724221E-01 -0.80498622071E-02  0.10195724781E+01  0.10192814867E+01 0.  0.
     999903    2    3    3    0    0  0.10708428764E+00 -0.49178893213E-01 -0.52282965804E-01  0.13046130852E+00  0.20025890996E-01 0.  0.
         14    1    1    2    0    0  0.86122658710E-02  0.21314724221E-01  0.80498622071E-02  0.24357521910E-01  0.00000000000E+00 0. -1.
     999901    1    3    3    0    0 -0.11569655351E+00  0.27864168992E-01  0.44233103596E-01  0.88911116957E+00  0.88000000000E+00 0. -1.
        -11    1    4    4    0    0  0.80324356639E-01 -0.26964177096E-01 -0.36192174221E-01  0.92136874875E-01  0.51100000000E-03 0.  1.
         11    1    4    4    0    0  0.26759930998E-01 -0.22214716116E-01 -0.16090791583E-01  0.38324433641E-01  0.51100000000E-03 0. -1.
</event>
<event>
 8    1  0.1138737E+005  0.1043930E+01  0.7957747E-01            NaN
         13   -1    0    0    0    0  0.00000000000E+00  0.00000000000E+00  0.74505805969E-08  0.10566000000E+00  0.10566000000E+00 0. -1.
     999900   -1    0    0    0    0 -0.00000000000E+00 -0.00000000000E+00 -0.74505805969E-08  0.93827000000E+00  0.93827000000E+00 0. -1.
     999902    2    1    2    0    0  0.21292730608E-02  0.11001713239E-01  0.22297655804E-01  0.10189749013E+01  0.10186692753E+01 0.  0.
     999903    2    3    3    0    0 -0.10361035536E+00 -0.10237400967E-01  0.76830014564E-01  0.13071494657E+00  0.18537421663E-01 0.  0.
         14    1    1    2    0    0 -0.21292730608E-02 -0.11001713239E-01 -0.22297655804E-01  0.24955098723E-01  0.00000000000E+00 0.  1.
     999901    1    3    3    0    0  0.10573962842E+00  0.21239114205E-01 -0.54532358760E-01  0.88825995471E+00  0.88000000000E+00 0. -1.
        -11    1    4    4    0    0 -0.27239302850E-01 -0.10697113147E-01  0.23980416618E-01  0.37838199635E-01  0.51100000000E-03 0.  1.
         11    1    4    4    0    0 -0.76371052508E-01  0.45971218073E-03  0.52849597946E-01  0.92876746931E-01  0.51100000000E-03 0. -1.
</event>
<event>
 8    1  0.1138737E+005  0.1043930E+01  0.7957747E-01            NaN
         13   -1    0    0    0    0  0.00000000000E+00  0.00000000000E+00  0.74505805969E-08  0.10566000000E+00  0.10566000000E+00 0. -1.
     999900   -1    0    0    0    0 -0.00000000000E+00 -0.00000000000E+00 -0.74505805969E-08  0.93827000000E+00  0.93827000000E+00 0. -1.
     999902    2    1    2    0    0  0.24243304452E-01 -0.10353140904E-01  0.42427058728E-02  0.10172293279E+01  0.10168788422E+01 0.  0.
     999903    2    3    3    0    0  0.55397774251E-01  0.10576962134E+00  0.42473817479E-01  0.12823173803E+00  0.19576191620E-01 0.  0.
         14    1    1    2    0    0 -0.24243304452E-01  0.10353140904E-01 -0.42427058728E-02  0.26700672097E-01  0.00000000000E+00 0. -1.
     999901    1    3    3    0    0 -0.31154469800E-01 -0.11612276224E+00 -0.38231111607E-01  0.88899758987E+00  0.88000000000E+00 0. -1.
        -11    1    4    4    0    0  0.38560093134E-01  0.62965249566E-01  0.34685502784E-01  0.81577255775E-01  0.51100000000E-03 0. -1.
         11    1    4    4    0    0  0.16837681118E-01  0.42804371770E-01  0.77883146953E-02  0.46654482259E-01  0.51100000000E-03 0.  1.
</event>
<event>
 8    1  0.1138737E+005  0.1043930E+01  0.7957747E-01            NaN
         13   -1    0    0    0    0  0.00000000000E+00  0.00000000000E+00  0.74505805969E-08  0.10566000000E+00  0.10566000000E+00 0. -1.
     999900   -1    0    0    0    0 -0.00000000000E+00 -0.00000000000E+00 -0.74505805969E-08  0.93827000000E+00  0.93827000000E+00 0.  1.
     999902    2    1    2    0    0 -0.94182070387E-02  0.20967228850E-01 -0.85034856092E-02  0.10194221119E+01  0.10191274728E+01 0.  0.
     999903    2    3    3    0    0 -0.58262858076E-01 -0.95241548371E-01  0.58939705186E-01  0.12788475220E+00  0.20374195202E-01 0.  0.
         14    1    1    2    0    0  0.94182070387E-02 -0.20967228850E-01  0.85034856092E-02  0.24507888056E-01  0.00000000000E+00 0.  1.
     999901    1    3    3    0    0  0.48844651037E-01  0.11620877722E+00 -0.67443190796E-01  0.89153735975E+00  0.88000000000E+00 0.  1.
        -11    1    4    4    0    0 -0.29017388132E-01 -0.30301553069E-01  0.26467420817E-01  0.49608249497E-01  0.51100000000E-03 0.  1.
         11    1    4    4    0    0 -0.29245469943E-01 -0.64939995302E-01  0.32472284369E-01  0.78276502701E-01  0.51100000000E-03 0. -1.
</event>
<event>
 8    1  0.1138737E+005  0.1043930E+01  0.7957747E-01            NaN
         13   -1    0    0    0    0  0.00000000000E+00  0.00000000000E+00  0.74505805969E-08  0.10566000000E+00  0.10566000000E+00 0. -1.
     999900   -1    0    0    0    0 -0.00000000000E+00 -0.00000000000E+00 -0.74505805969E-08  0.93827000000E+00  0.93827000000E+00 0.  1.
     999902    2    1    2    0    0  0.14297958401E-01  0.18777179388E-01 -0.12102867473E-02  0.10202978424E+01  0.10200241214E+01 0.  0.
     999903    2    3    3    0    0 -0.27397494649E-01  0.12739498515E+00 -0.13901226510E-01  0.13254934280E+00  0.19899226732E-01 0.  0.
         14    1    1    2    0    0 -0.14297958401E-01 -0.18777179388E-01  0.12102867473E-02  0.23632157630E-01  0.00000000000E+00 0.  1.
     999901    1    3    3    0    0  0.41695453050E-01 -0.10861780576E+00  0.12690939763E-01  0.88774849957E+00  0.88000000000E+00 0. -1.
        -11    1    4    4    0    0 -0.12618447120E-01  0.97279960991E-01 -0.13302395841E-01  0.98994095148E-01  0.51100000000E-03 0. -1.
         11    1    4    4    0    0 -0.14779047529E-01  0.30115024159E-01 -0.59883066849E-03  0.33555247654E-01  0.51100000000E-03 0.  1.
</event>
<event>
 8    1  0.1138737E+005  0.1043930E+01  0.7957747E-01            NaN
         13   -1    0    0    0    0  0.00000000000E+00  0.00000000000E+00  0.74505805969E-08  0.10566000000E+00  0.10566000000E+00 0. -1.
     999900   -1    0    0    0    0 -0.00000000000E+00 -0.00000000000E+00 -0.74505805969E-08  0.93827000000E+00  0.93827000000E+00 0.  1.
     999902    2    1    2    0    0  0.20114923153E-01  0.22758992516E-02  0.13411086845E-01  0.10196473498E+01  0.10193581661E+01 0.  0.
     999903    2    3    3    0    0  0.37412231547E-01 -0.34494986976E-01  0.12047493773E+00  0.13222751503E+00  0.19501946459E-01 0.  0.
         14    1    1    2    0    0 -0.20114923153E-01 -0.22758992516E-02 -0.13411086845E-01  0.24282650210E-01  0.00000000000E+00 0.  1.
     999901    1    3    3    0    0 -0.17297308394E-01  0.36770886228E-01 -0.10706385088E+00  0.88741983476E+00  0.88000000000E+00 0.  1.
        -11    1    4    4    0    0  0.63479539342E-02 -0.10520549805E-01  0.50737856590E-01  0.52206988993E-01  0.51100000000E-03 0.  1.
         11    1    4    4    0    0  0.31064277612E-01 -0.23974437171E-01  0.69737081139E-01  0.80020526042E-01  0.51100000000E-03 0. -1.
</event>
<event>
 8    1  0.1138737E+005  0.1043930E+01  0.7957747E-01            NaN
         13   -1    0    0    0    0  0.00000000000E+00  0.00000000000E+00  0.74505805969E-08  0.10566000000E+00  0.10566000000E+00 0. -1.
     999900   -1    0    0    0    0 -0.00000000000E+00 -0.00000000000E+00 -0.74505805969E-08  0.93827000000E+00  0.93827000000E+00 0. -1.
     999902    2    1    2    0    0 -0.99395530195E-03 -0.65185426302E-02  0.22529248859E-01  0.10204556225E+01  0.10201855866E+01 0.  0.
     999903    2    3    3    0    0  0.79829232129E-01 -0.40262570153E-01 -0.90739992097E-01  0.12888343362E+00  0.19580920279E-01 0.  0.
         14    1    1    2    0    0  0.99395530195E-03  0.65185426302E-02 -0.22529248859E-01  0.23474377507E-01  0.00000000000E+00 0.  1.
     999901    1    3    3    0    0 -0.80823187431E-01  0.33744027523E-01  0.11326924096E+00  0.89157218887E+00  0.88000000000E+00 0.  1.
        -11    1    4    4    0    0  0.40417624187E-01 -0.10153607735E-01 -0.36700966075E-01  0.55532892296E-01  0.51100000000E-03 0.  1.
         11    1    4    4    0    0  0.39411607942E-01 -0.30108962418E-01 -0.54039026023E-01  0.73350541327E-01  0.51100000000E-03 0. -1.
</event>
<event>
 8    1  0.1138737E+005  0.1043930E+01  0.7957747E-01            NaN
         13   -1    0    0    0    0  0.00000000000E+00  0.00000000000E+00  0.74505805969E-08  0.10566000000E+00  0.10566000000E+00 0.  1.
     999900   -1    0    0    0    0 -0.00000000000E+00 -0.00000000000E+00 -0.74505805969E-08  0.93827000000E+00  0.93827000000E+00 0.  1.
     999902    2    1    2    0    0 -0.88722493953E-02  0.63212748898E-02  0.20472904778E-01  0.10207391579E+01  0.10204756800E+01 0.  0.
     999903    2    3    3    0    0  0.55592906915E-01  0.10016274025E+00  0.63523854380E-01  0.13236121963E+00  0.19001751326E-01 0.  0.
         14    1    1    2    0    0  0.88722493953E-02 -0.63212748898E-02 -0.20472904778E-01  0.23190842063E-01  0.00000000000E+00 0. -1.
     999901    1    3    3    0    0 -0.64465156310E-01 -0.93841465364E-01 -0.43050949602E-01  0.88837793830E+00  0.88000000000E+00 0. -1.
        -11    1    4    4    0    0  0.12819513345E-01  0.11836295677E-01  0.52666598003E-02  0.18232845203E-01  0.51100000000E-03 0.  1.
         11    1    4    4    0    0  0.42773393570E-01  0.88326444577E-01  0.58257194580E-01  0.11412837443E+00  0.51100000000E-03 0. -1.
</event>
<event>
 8    1  0.1138737E+005  0.1043930E+01  0.7957747E-01            NaN
         13   -1    0    0    0    0  0.00000000000E+00  0.00000000000E+00  0.74505805969E-08  0.10566000000E+00  0.10566000000E+00 0.  1.
     999900   -1    0    0    0    0 -0.00000000000E+00 -0.00000000000E+00 -0.74505805969E-08  0.93827000000E+00  0.93827000000E+00 0. -1.
     999902    2    1    2    0    0 -0.10833576956E-01  0.46593749132E-02  0.26264008786E-01  0.10151398225E+01  0.10147314841E+01 0.  0.
     999903    2    3    3    0    0 -0.49226119083E-01 -0.10758592967E+00 -0.34534520107E-01  0.12510080266E+00  0.21439092422E-01 0.  0.
         14    1    1    2    0    0  0.10833576956E-01 -0.46593749132E-02 -0.26264008786E-01  0.28790177522E-01  0.00000000000E+00 0. -1.
     999901    1    3    3    0    0  0.38392542128E-01  0.11224530458E+00  0.60798528893E-01  0.89003901982E+00  0.88000000000E+00 0.  1.
        -11    1    4    4    0    0 -0.25426938937E-01 -0.63779602504E-01 -0.95165858317E-02  0.69319502639E-01  0.51100000000E-03 0. -1.
         11    1    4    4    0    0 -0.23799180147E-01 -0.43806327162E-01 -0.25017934275E-01  0.55781300016E-01  0.51100000000E-03 0.  1.
</event>
<event>
 8    1  0.1138737E+005  0.1043930E+01  0.7957747E-01            NaN
         13   -1    0    0    0    0  0.00000000000E+00  0.00000000000E+00  0.74505805969E-08  0.10566000000E+00  0.10566000000E+00 0. -1.
     999900   -1    0    0    0    0 -0.00000000000E+00 -0.00000000000E+00 -0.74505805969E-08  0.93827000000E+00  0.93827000000E+00 0. -1.
     999902    2    1    2    0    0  0.23712126480E-01 -0.23543823186E-02  0.25292025815E-02  0.10199674266E+01  0.10196859058E+01 0.  0.
     999903    2    3    3    0    0 -0.11503389648E+00  0.35585114964E-01  0.37154979932E-01  0.12761726618E+00  0.20163738449E-01 0.  0.
         14    1    1    2    0    0 -0.23712126480E-01  0.23543823186E-02 -0.25292025815E-02  0.23962573401E-01  0.00000000000E+00 0. -1.
     999901    1    3    3    0    0  0.13874602296E+00 -0.37939497283E-01 -0.34625777350E-01  0.89235016042E+00  0.88000000000E+00 0. -1.
        -11    1    4    4    0    0 -0.27000290820E-01  0.16238541713E-02  0.13988627006E-01  0.30456451094E-01  0.51100000000E-03 0. -1.
         11    1    4    4    0    0 -0.88033605656E-01  0.33961260793E-01  0.23166352926E-01  0.97160815087E-01  0.51100000000E-03 0.  1.
</event>
<event>
 8    1  0.1138737E+005  0.1043930E+01  0.7957747E-01            NaN
         13   -1    0    0    0    0  0.00000000000E+00  0.00000000000E+00  0.74505805969E-08  0.10566000000E+00  0.10566000000E+00 0.  1.
     999900   -1    0    0    0    0 -0.00000000000E+00 -0.00000000000E+00 -0.74505805969E-08  0.93827000000E+00  0.93827000000E+00 0.  1.
     999902    2    1    2    0    0  0.15941724444E-01 -0.13433819200E-01  0.83845617822E-02  0.10214598653E+01  0.10212126857E+01 0.  0.
     999903    2    3    3    0    0 -0.60668908159E-01 -0.10754857664E-01  0.11481590166E+00  0.13173856290E+00  0.19390056754E-01 0.  0.
         14    1    1    2    0    0 -0.15941724444E-01  0.13433819200E-01 -0.83845617822E-02  0.22470134687E-01  0.00000000000E+00 0. -1.
     999901    1    3    3    0    0  0.76610632603E-01 -0.26789615368E-02 -0.10643133987E+00  0.88972130241E+00  0.88000000000E+00 0.  1.
        -11    1    4    4    0    0 -0.49503782615E-02  0.19680622765E-02  0.22776530298E-01  0.23396815328E-01  0.51100000000E-03 0. -1.
         11    1    4    4    0    0 -0.55718529897E-01 -0.12722919940E-01  0.92039371358E-01  0.10834174757E+00  0.51100000000E-03 0.  1.
</event>
<event>
 8    1  0.1138737E+005  0.1043930E+01  0.7957747E-01            NaN
         13   -1    0    0    0    0  0.00000000000E+00  0.00000000000E+00  0.74505805969E-08  0.10566000000E+00  0.10566000000E+00 0.  1.
     999900   -1    0    0    0    0 -0.00000000000E+00 -0.00000000000E+00 -0.74505805969E-08  0.93827000000E+00  0.93827000000E+00 0.  1.
     999902    2    1    2    0    0  0.10281034094E-01 -0.10432277368E-01 -0.17635408695E-01  0.10210053470E+01  0.10207479508E+01 0.  0.
     999903    2    3    3    0    0  0.82838686143E-01  0.98073880657E-01  0.14575096643E-01  0.13079429575E+00  0.20346507544E-01 0.  0.
         14    1    1    2    0    0 -0.10281034094E-01  0.10432277368E-01  0.17635408695E-01  0.22924652952E-01  0.00000000000E+00 0.  1.
     999901    1    3    3    0    0 -0.72557652049E-01 -0.10850615803E+00 -0.32210505338E-01  0.89021105130E+00  0.88000000000E+00 0.  1.
        -11    1    4    4    0    0  0.51970000537E-01  0.75720985121E-01  0.11419023308E-01  0.92548386035E-01  0.51100000000E-03 0. -1.
         11    1    4    4    0    0  0.30868685606E-01  0.22352895536E-01  0.31560733352E-02  0.38245909714E-01  0.51100000000E-03 0.  1.
</event>
<event>
 8    1  0.1138737E+005  0.1043930E+01  0.7957747E-01            NaN
         13   -1    0    0    0    0  0.00000000000E+00  0.00000000000E+00  0.74505805969E-08  0.10566000000E+00  0.10566000000E+00 0. -1.
     999900   -1    0    0    0    0 -0.00000000000E+00 -0.00000000000E+00 -0.74505805969E-08  0.93827000000E+00  0.93827000000E+00 0.  1.
     999902    2    1    2    0    0  0.11602859357E-02 -0.12143320968E-01 -0.17507506949E-01  0.10225917876E+01  0.10223691333E+01 0.  0.
     999903    2    3    3    0    0  0.11392628460E+00 -0.65735320966E-01 -0.84615647035E-02  0.13373291132E+00  0.22639848665E-01 0.  0.
         14    1    1    2    0    0 -0.11602859357E-02  0.12143320968E-01  0.17507506949E-01  0.21338212370E-01  0.00000000000E+00 0. -1.
     999901    1    3    3    0    0 -0.11276599867E+00  0.53591999998E-01 -0.90459422450E-02  0.88885887631E+00  0.88000000000E+00 0. -1.
        -11    1    4    4    0    0  0.92075619618E-01 -0.46687053605E-01 -0.14106543865E-01  0.10419623987E+00  0.51100000000E-03 0.  1.
         11    1    4    4    0    0  0.21850664986E-01 -0.19048267360E-01  0.56449791611E-02  0.29536671453E-01  0.51100000000E-03 0. -1.
</event>
<event>
 8    1  0.1138737E+005  0.1043930E+01  0.7957747E-01            NaN
         13   -1    0    0    0    0  0.00000000000E+00  0.00000000000E+00  0.74505805969E-08  0.10566000000E+00  0.10566000000E+00 0. -1.
     999900   -1    0    0    0    0 -0.00000000000E+00 -0.00000000000E+00 -0.74505805969E-08  0.93827000000E+00  0.93827000000E+00 0.  1.
     999902    2    1    2    0    0  0.60629329229E-03 -0.59126769297E-03  0.23935009123E-01  0.10199800136E+01  0.10196987919E+01 0.  0.
     999903    2    3    3    0    0  0.96753884088E-01  0.76126138258E-01  0.40820354114E-01  0.13126462916E+00  0.20189069940E-01 0.  0.
         14    1    1    2    0    0 -0.60629329229E-03  0.59126769297E-03 -0.23935009123E-01  0.23949986446E-01  0.00000000000E+00 0.  1.
     999901    1    3    3    0    0 -0.96147590796E-01 -0.76717405951E-01 -0.16885344991E-01  0.88871538440E+00  0.88000000000E+00 0.  1.
        -11    1    4    4    0    0  0.62404647244E-01  0.39274789571E-01  0.17693140048E-01  0.75829792426E-01  0.51100000000E-03 0.  1.
         11    1    4    4    0    0  0.34349236844E-01  0.36851348686E-01  0.23127214066E-01  0.55434836729E-01  0.51100000000E-03 0. -1.
</event>
<event>
 8    1  0.1138737E+005  0.1043930E+01  0.7957747E-01            NaN
         13   -1    0    0    0    0  0.00000000000E+00  0.00000000000E+00  0.74505805969E-08  0.10566000000E+00  0.10566000000E+00 0.  1.
     999900   -1    0    0    0    0 -0.00000000000E+00 -0.00000000000E+00 -0.74505805969E-08  0.93827000000E+00  0.93827000000E+00 0. -1.
     999902    2    1    2    0    0 -0.10428091628E-01 -0.88387659713E-02 -0.19201348971E-01  0.10203596652E+01  0.10200873912E+01 0.  0.
     999903    2    3    3    0    0 -0.20604760970E-01 -0.81281429156E-01  0.97750714346E-01  0.12961318662E+00  0.14599626345E-01 0.  0.
         14    1    1    2    0    0  0.10428091628E-01  0.88387659713E-02  0.19201348971E-01  0.23570334771E-01  0.00000000000E+00 0.  1.
     999901    1    3    3    0    0  0.10176669342E-01  0.72442663184E-01 -0.11695206332E+00  0.89074647861E+00  0.88000000000E+00 0. -1.
        -11    1    4    4    0    0 -0.15083344480E-01 -0.43379994914E-01  0.43958120129E-01  0.63576007155E-01  0.51100000000E-03 0. -1.
         11    1    4    4    0    0 -0.55214164892E-02 -0.37901434242E-01  0.53792594217E-01  0.66037179462E-01  0.51100000000E-03 0.  1.
</event>
<event>
 8    1  0.1138737E+005  0.1043930E+01  0.7957747E-01            NaN
         13   -1    0    0    0    0  0.00000000000E+00  0.00000000000E+00  0.74505805969E-08  0.10566000000E+00  0.10566000000E+00 0. -1.
     999900   -1    0    0    0    0 -0.00000000000E+00 -0.00000000000E+00 -0.74505805969E-08  0.93827000000E+00  0.93827000000E+00 0.  1.
     999902    2    1    2    0    0  0.65057782389E-02  0.19242315153E-01  0.12084919325E-01  0.10202944945E+01  0.10200206951E+01 0.  0.
     999903    2    3    3    0    0 -0.48346327723E-01 -0.11660392482E+00 -0.75451861817E-02  0.12796703476E+00  0.19616051152E-01 0.  0.
         14    1    1    2    0    0 -0.65057782389E-02 -0.19242315153E-01 -0.12084919325E-01  0.23635505453E-01  0.00000000000E+00 0.  1.
     999901    1    3    3    0    0  0.54852105962E-01  0.13584623998E+00  0.19630105506E-01  0.89232745978E+00  0.88000000000E+00 0. -1.
        -11    1    4    4    0    0 -0.46931380716E-01 -0.94765577326E-01 -0.43090846312E-02  0.10583902151E+00  0.51100000000E-03 0.  1.
         11    1    4    4    0    0 -0.14149470067E-02 -0.21838347496E-01 -0.32361015505E-02  0.22128013256E-01  0.51100000000E-03 0. -1.
</event>
<event>
 8    1  0.1138737E+005  0.1043930E+01  0.7957747E-01            NaN
         13   -1    0    0    0    0  0.00000000000E+00  0.00000000000E+00  0.74505805969E-08  0.10566000000E+00  0.10566000000E+00 0.  1.
     999900   -1    0    0    0    0 -0.00000000000E+00 -0.00000000000E+00 -0.74505805969E-08  0.93827000000E+00  0.93827000000E+00 0. -1.
     999902    2    1    2    0    0 -0.33587652473E-02  0.92286068889E-02  0.21552114405E-01  0.10202457832E+01  0.10199708408E+01 0.  0.
     999903    2    3    3    0    0 -0.64206142206E-01 -0.77050319952E-02  0.11461225990E+00  0.13308776906E+00  0.19864237730E-01 0.  0.
         14    1    1    2    0    0  0.33587652473E-02 -0.92286068889E-02 -0.21552114405E-01  0.23684216778E-01  0.00000000000E+00 0. -1.
     999901    1    3    3    0    0  0.60847376959E-01  0.16933638884E-01 -0.93060145491E-01  0.88715801416E+00  0.88000000000E+00 0.  1.
        -11    1    4    4    0    0 -0.47400959487E-01  0.21351584938E-02  0.89543582833E-01  0.10133964777E+00  0.51100000000E-03 0.  1.
         11    1    4    4    0    0 -0.16805182720E-01 -0.98401904890E-02  0.25068677062E-01  0.31748121295E-01  0.51100000000E-03 0. -1.
</event>
<event>
 8    1  0.1138737E+005  0.1043930E+01  0.7957747E-01            NaN
         13   -1    0    0    0    0  0.00000000000E+00  0.00000000000E+00  0.74505805969E-08  0.10566000000E+00  0.10566000000E+00 0. -1.
     999900   -1    0    0    0    0 -0.00000000000E+00 -0.00000000000E+00 -0.74505805969E-08  0.93827000000E+00  0.93827000000E+00 0.  1.
     999902    2    1    2    0    0 -0.13470401737E-01 -0.70831532778E-02 -0.17432546643E-01  0.10207887713E+01  0.10205264324E+01 0.  0.
     999903    2    3    3    0    0 -0.12618639648E+00  0.34652688121E-01 -0.29683831722E-02  0.13250053657E+00  0.20585563946E-01 0.  0.
         14    1    1    2    0    0  0.13470401737E-01  0.70831532778E-02  0.17432546643E-01  0.23141228701E-01  0.00000000000E+00 0. -1.
     999901    1    3    3    0    0  0.11271599474E+00 -0.41735841398E-01 -0.14464163471E-01  0.88828823473E+00  0.88000000000E+00 0. -1.
        -11    1    4    4    0    0 -0.70897654086E-01  0.25355124866E-01 -0.10139148635E-01  0.75976464565E-01  0.51100000000E-03 0.  1.
         11    1    4    4    0    0 -0.55288742394E-01  0.92975632547E-02  0.71707654632E-02  0.56524072008E-01  0.51100000000E-03 0. -1.
</event>
<event>
 8    1  0.1138737E+005  0.1043930E+01  0.7957747E-01            NaN
         13   -1    0    0    0    0  0.00000000000E+00  0.00000000000E+00  0.74505805969E-08  0.10566000000E+00  0.10566000000E+00 0. -1.
     999900   -1    0    0    0    0 -0.00000000000E+00 -0.00000000000E+00 -0.74505805969E-08  0.93827000000E+00  0.93827000000E+00 0. -1.
     999902    2    1    2    0    0  0.56876904478E-02  0.69424745767E-02 -0.23419828038E-01  0.10188494075E+01  0.10185406614E+01 0.  0.
     999903    2    3    3    0    0  0.10597925020E+00 -0.32864025068E-01 -0.67386984248E-01  0.13116924819E+00  0.18780852143E-01 0.  0.
         14    1    1    2    0    0 -0.56876904478E-02 -0.69424745767E-02  0.23419828038E-01  0.25080592521E-01  0.00000000000E+00 0. -1.
     999901    1    3    3    0    0 -0.10029155975E+00  0.39806499645E-01  0.43967156210E-01  0.88768015929E+00  0.88000000000E+00 0. -1.
        -11    1    4    4    0    0  0.52494457418E-01 -0.24046421122E-01 -0.28072140123E-01  0.64204397050E-01  0.51100000000E-03 0.  1.
         11    1    4    4    0    0  0.53484792784E-01 -0.88176039459E-02 -0.39314844125E-01  0.66964851139E-01  0.51100000000E-03 0. -1.
</event>
<event>
 8    1  0.1138737E+005  0.1043930E+01  0.7957747E-01            NaN
         13   -1    0    0    0    0  0.00000000000E+00  0.00000000000E+00  0.74505805969E-08  0.10566000000E+00  0.10566000000E+00 0.  1.
     999900   -1    0    0    0    0 -0.00000000000E+00 -0.00000000000E+00 -0.74505805969E-08  0.93827000000E+00  0.93827000000E+00 0.  1.
     999902    2    1    2    0    0  0.94954213427E-02  0.23574351898E-01 -0.13506381116E-01  0.10151491830E+01  0.10147411140E+01 0.  0.
     999903    2    3    3    0    0  0.73811063351E-01  0.89318639049E-01 -0.53900162129E-01  0.12943451643E+00  0.20546878408E-01 0.  0.
         14    1    1    2    0    0 -0.94954213427E-02 -0.23574351898E-01  0.13506381116E-01  0.28780816958E-01  0.00000000000E+00 0.  1.
     999901    1    3    3    0    0 -0.64315642009E-01 -0.65744287151E-01  0.40393781013E-01  0.88571466661E+00  0.88000000000E+00 0. -1.
        -11    1    4    4    0    0  0.53586072844E-01  0.61229072589E-01 -0.27464777762E-01  0.85878062806E-01  0.51100000000E-03 0.  1.
         11    1    4    4    0    0  0.20224990508E-01  0.28089566460E-01 -0.26435384368E-01  0.43556453628E-01  0.51100000000E-03 0. -1.
</event>
<event>
 8    1  0.1138737E+005  0.1043930E+01  0.7957747E-01            NaN
         13   -1    0    0    0    0  0.00000000000E+00  0.00000000000E+00  0.74505805969E-08  0.10566000000E+00  0.10566000000E+00 0.  1.
     999900   -1    0    0    0    0 -0.00000000000E+00 -0.00000000000E+00 -0.74505805969E-08  0.93827000000E+00  0.93827000000E+00 0. -1.
     999902    2    1    2    0    0 -0.49746851335E-02  0.17640247883E-01 -0.10264524925E-01  0.10229231842E+01  0.10227074628E+01 0.  0.
     999903    2    3    3    0    0  0.81197695651E-01  0.39415614465E-01  0.94554950022E-01  0.13225659781E+00  0.20112499824E-01 0.  0.
         14    1    1    2    0    0  0.49746851335E-02 -0.17640247883E-01  0.10264524925E-01  0.21006815786E-01  0.00000000000E+00 0.  1.
     999901    1    3    3    0    0 -0.86172380785E-01 -0.21775366583E-01 -0.10481947495E+00  0.89066658640E+00  0.88000000000E+00 0. -1.
        -11    1    4    4    0    0  0.36677347264E-01  0.13666461896E-01  0.27920995534E-01  0.48081629503E-01  0.51100000000E-03 0.  1.
         11    1    4    4    0    0  0.44520348387E-01  0.25749152569E-01  0.66633954488E-01  0.84174968311E-01  0.51100000000E-03 0. -1.
</event>
<event>
 8    1  0.1138737E+005  0.1043930E+01  0.7957747E-01            NaN
         13   -1    0    0    0    0  0.00000000000E+00  0.00000000000E+00  0.74505805969E-08  0.10566000000E+00  0.10566000000E+00 0.  1.
     999900   -1    0    0    0    0 -0.00000000000E+00 -0.00000000000E+00 -0.74505805969E-08  0.93827000000E+00  0.93827000000E+00 0.  1.
     999902    2    1    2    0    0 -0.17971442444E-01 -0.11569351663E-01  0.10107543122E-01  0.10202871349E+01  0.10200131630E+01 0.  0.
     999903    2    3    3    0    0  0.11036216807E+00 -0.23089428893E-01 -0.57915641246E-01  0.12830654018E+00  0.19885092025E-01 0.  0.
         14    1    1    2    0    0  0.17971442444E-01  0.11569351663E-01 -0.10107543122E-01  0.23642865084E-01  0.00000000000E+00 0. -1.
     999901    1    3    3    0    0 -0.12833361052E+00  0.11520077230E-01  0.68023184368E-01  0.89198059473E+00  0.88000000000E+00 0. -1.
        -11    1    4    4    0    0  0.47786593510E-01 -0.33115317753E-02 -0.16326035398E-01  0.50609537784E-01  0.51100000000E-03 0. -1.
         11    1    4    4    0    0  0.62575574562E-01 -0.19777897118E-01 -0.41589605848E-01  0.77697002399E-01  0.51100000000E-03 0.  1.
</event>
<event>
 8    1  0.1138737E+005  0.1043930E+01  0.7957747E-01            NaN
         13   -1    0    0    0    0  0.00000000000E+00  0.00000000000E+00  0.74505805969E-08  0.10566000000E+00  0.10566000000E+00 0.  1.
     999900   -1    0    0    0    0 -0.00000000000E+00 -0.00000000000E+00 -0.74505805969E-08  0.93827000000E+00  0.93827000000E+00 0. -1.
     999902    2    1    2    0    0 -0.10721053080E-01  0.13893306559E-01 -0.17815214117E-01  0.10189230650E+01  0.10186161522E+01 0.  0.
     999903    2    3    3    0    0 -0.84244001220E-01 -0.88631045523E-01  0.32817762949E-01  0.12848465325E+00  0.21881192467E-01 0.  0.
         14    1    1    2    0    0  0.10721053080E-01 -0.13893306559E-01  0.17815214117E-01  0.25006935044E-01  0.00000000000E+00 0. -1.
     999901    1    3    3    0    0  0.73522948140E-01  0.10252435208E+00 -0.50632977066E-01  0.89043841170E+00  0.88000000000E+00 0. -1.
        -11    1    4    4    0    0 -0.74294374599E-02 -0.17448282082E-01  0.93970314452E-02  0.21170838660E-01  0.51100000000E-03 0. -1.
         11    1    4    4    0    0 -0.76814563761E-01 -0.71182763442E-01  0.23420731504E-01  0.10731381459E+00  0.51100000000E-03 0.  1.
</event>
<event>
 8    1  0.1138737E+005  0.1043930E+01  0.7957747E-01            NaN
         13   -1    0    0    0    0  0.00000000000E+00  0.00000000000E+00  0.74505805969E-08  0.10566000000E+00  0.10566000000E+00 0.  1.
     999900   -1    0    0    0    0 -0.00000000000E+00 -0.00000000000E+00 -0.74505805969E-08  0.93827000000E+00  0.93827000000E+00 0. -1.
     999902    2    1    2    0    0 -0.48371591930E-02  0.93804321715E-02 -0.30134633289E-01  0.10120005976E+01  0.10114967735E+01 0.  0.
     999903    2    3    3    0    0 -0.29069769660E-01 -0.11585197452E+00 -0.20254707289E-01  0.12274923375E+00  0.19758282079E-01 0.  0.
         14    1    1    2    0    0  0.48371591930E-02 -0.93804321715E-02  0.30134633289E-01  0.31929402441E-01  0.00000000000E+00 0.  1.
     999901    1    3    3    0    0  0.24232610467E-01  0.12523240669E+00 -0.98799259999E-02  0.88925136381E+00  0.88000000000E+00 0.  1.
        -11    1    4    4    0    0 -0.16306763827E-01 -0.88165525211E-01 -0.21604602295E-01  0.92228468184E-01  0.51100000000E-03 0. -1.
         11    1    4    4    0    0 -0.12763005834E-01 -0.27686449310E-01  0.13498950061E-02  0.30520765568E-01  0.51100000000E-03 0.  1.
</event>
<event>
 8    1  0.1138737E+005  0.1043930E+01  0.7957747E-01            NaN
         13   -1    0    0    0    0  0.00000000000E+00  0.00000000000E+00  0.74505805969E-08  0.10566000000E+00  0.10566000000E+00 0. -1.
     999900   -1    0    0    0    0 -0.00000000000E+00 -0.00000000000E+00 -0.74505805969E-08  0.93827000000E+00  0.93827000000E+00 0. -1.
     999902    2    1    2    0    0 -0.22042887337E-01 -0.24432438532E-02 -0.71474216048E-02  0.10206288421E+01  0.10203628224E+01 0.  0.
     999903    2    3    3    0    0  0.83128939849E-01  0.73920963652E-01  0.61008475677E-01  0.12847536219E+00  0.20227582125E-01 0.  0.
         14    1    1    2    0    0  0.22042887337E-01  0.24432438532E-02  0.71474216048E-02  0.23301157874E-01  0.00000000000E+00 0.  1.
     999901    1    3    3    0    0 -0.10517182719E+00 -0.76364207506E-01 -0.68155897282E-01  0.89215347993E+00  0.88000000000E+00 0. -1.
        -11    1    4    4    0    0  0.64757950517E-01  0.49482535387E-01  0.51686313516E-01  0.96508287672E-01  0.51100000000E-03 0.  1.
         11    1    4    4    0    0  0.18370989332E-01  0.24438428265E-01  0.93221621610E-02  0.31967074521E-01  0.51100000000E-03 0. -1.
</event>
<event>
 8    1  0.1138737E+005  0.1043930E+01  0.7957747E-01            NaN
         13   -1    0    0    0    0  0.00000000000E+00  0.00000000000E+00  0.74505805969E-08  0.10566000000E+00  0.10566000000E+00 0.  1.
     999900   -1    0    0    0    0 -0.00000000000E+00 -0.00000000000E+00 -0.74505805969E-08  0.93827000000E+00  0.93827000000E+00 0.  1.
     999902    2    1    2    0    0  0.89872096880E-02 -0.17515015404E-01  0.11990939306E-01  0.10208794397E+01  0.10206191759E+01 0.  0.
     999903    2    3    3    0    0 -0.83357664747E-01 -0.96551710854E-01 -0.25619493418E-01  0.13172876651E+00  0.20624653764E-01 0.  0.
         14    1    1    2    0    0 -0.89872096880E-02  0.17515015404E-01 -0.11990939306E-01  0.23050560254E-01  0.00000000000E+00 0. -1.
     999901    1    3    3    0    0  0.92344874435E-01  0.79036695450E-01  0.37610432724E-01  0.88915067323E+00  0.88000000000E+00 0.  1.
        -11    1    4    4    0    0 -0.57156080087E-01 -0.59135474810E-01 -0.74998295473E-02  0.82585291888E-01  0.51100000000E-03 0. -1.
         11    1    4    4    0    0 -0.26201584660E-01 -0.37416236044E-01 -0.18119663870E-01  0.49143474625E-01  0.51100000000E-03 0.  1.
</event>
<event>
 8    1  0.1138737E+005  0.1043930E+01  0.7957747E-01            NaN
         13   -1    0    0    0    0  0.00000000000E+00  0.00000000000E+00  0.74505805969E-08  0.10566000000E+00  0.10566000000E+00 0. -1.
     999900   -1    0    0    0    0 -0.00000000000E+00 -0.00000000000E+00 -0.74505805969E-08  0.93827000000E+00  0.93827000000E+00 0. -1.
     999902    2    1    2    0    0  0.93259858230E-02  0.71420321072E-02  0.20424541969E-01  0.10203684943E+01  0.10200964267E+01 0.  0.
     999903    2    3    3    0    0 -0.10851278943E+00 -0.27495119696E-01  0.63278053611E-01  0.13080560579E+00  0.23978894046E-01 0.  0.
         14    1    1    2    0    0 -0.93259858230E-02 -0.71420321072E-02 -0.20424541969E-01  0.23561505657E-01  0.00000000000E+00 0.  1.
     999901    1    3    3    0    0  0.11783877525E+00  0.34637151803E-01 -0.42853511642E-01  0.88956288856E+00  0.88000000000E+00 0. -1.
        -11    1    4    4    0    0 -0.70424208011E-01 -0.87020557559E-02  0.30903987448E-01  0.77399046568E-01  0.51100000000E-03 0. -1.
         11    1    4    4    0    0 -0.38088581417E-01 -0.18793063940E-01  0.32374066163E-01  0.53406559218E-01  0.51100000000E-03 0.  1.
</event>
<event>
 8    1  0.1138737E+005  0.1043930E+01  0.7957747E-01            NaN
         13   -1    0    0    0    0  0.00000000000E+00  0.00000000000E+00  0.74505805969E-08  0.10566000000E+00  0.10566000000E+00 0.  1.
     999900   -1    0    0    0    0 -0.00000000000E+00 -0.00000000000E+00 -0.74505805969E-08  0.93827000000E+00  0.93827000000E+00 0.  1.
     999902    2    1    2    0    0 -0.76319404401E-02 -0.10990923425E-01 -0.18877163367E-01  0.10207914130E+01  0.10205291346E+01 0.  0.
     999903    2    3    3    0    0  0.87080997180E-01 -0.53356048410E-01  0.76980042433E-01  0.12952604942E+00  0.20520783964E-01 0.  0.
         14    1    1    2    0    0  0.76319404401E-02  0.10990923425E-01  0.18877163367E-01  0.23138587023E-01  0.00000000000E+00 0. -1.
     999901    1    3    3    0    0 -0.94712937620E-01  0.42365124985E-01 -0.95857205799E-01  0.89126536355E+00  0.88000000000E+00 0.  1.
        -11    1    4    4    0    0  0.11692195284E-01 -0.15337965029E-01  0.98751487409E-02  0.21673492691E-01  0.51100000000E-03 0.  1.
         11    1    4    4    0    0  0.75388801895E-01 -0.38018083382E-01  0.67104893692E-01  0.10785255673E+00  0.51100000000E-03 0. -1.
</event>
<event>
 8    1  0.1138737E+005  0.1043930E+01  0.7957747E-01            NaN
         13   -1    0    0    0    0  0.00000000000E+00  0.00000000000E+00  0.74505805969E-08  0.10566000000E+00  0.10566000000E+00 0. -1.
     999900   -1    0    0    0    0 -0.00000000000E+00 -0.00000000000E+00 -0.74505805969E-08  0.93827000000E+00  0.93827000000E+00 0.  1.
     999902    2    1    2    0    0 -0.10444484958E-01 -0.20974196750E-01 -0.39609630494E-02  0.10201667211E+01  0.10198899183E+01 0.  0.
     999903    2    3    3    0    0 -0.84642828570E-01 -0.10117972212E+00  0.12171221520E-02  0.13339440926E+00  0.19769735433E-01 0.  0.
         14    1    1    2    0    0  0.10444484958E-01  0.20974196750E-01  0.39609630494E-02  0.23763278891E-01  0.00000000000E+00 0. -1.
     999901    1    3    3    0    0  0.74198343612E-01  0.80205525370E-01 -0.51780852014E-02  0.88677231185E+00  0.88000000000E+00 0.  1.
        -11    1    4    4    0    0 -0.27004777408E-01 -0.21407251214E-01  0.54152297624E-02  0.34887164427E-01  0.51100000000E-03 0. -1.
         11    1    4    4    0    0 -0.57638051162E-01 -0.79772470906E-01 -0.41981076104E-02  0.98507244834E-01  0.51100000000E-03 0.  1.
</event>
<event>
 8    1  0.1138737E+005  0.1043930E+01  0.7957747E-01            NaN
         13   -1    0    0    0    0  0.00000000000E+00  0.00000000000E+00  0.74505805969E-08  0.10566000000E+00  0.10566000000E+00 0.  1.
     999900   -1    0    0    0    0 -0.00000000000E+00 -0.00000000000E+00 -0.74505805969E-08  0.93827000000E+00  0.93827000000E+00 0. -1.
     999902    2    1    2    0    0 -0.97849494515E-02  0.79263850210E-02 -0.20156460548E-01  0.10201633066E+01  0.10198864233E+01 0.  0.
     999903    2    3    3    0    0  0.12319396668E+00  0.31392424290E-01 -0.16844658732E-01  0.12985717091E+00  0.20418241362E-01 0.  0.
         14    1    1    2    0    0  0.97849494515E-02 -0.79263850210E-02  0.20156460548E-01  0.23766693441E-01  0.00000000000E+00 0.  1.
     999901    1    3    3    0    0 -0.13297891613E+00 -0.23466039269E-01 -0.33118018162E-02  0.89030613564E+00  0.88000000000E+00 0. -1.
        -11    1    4    4    0    0  0.58666171200E-01  0.45074741050E-02 -0.68019498286E-02  0.59233137757E-01  0.51100000000E-03 0. -1.
         11    1    4    4    0    0  0.64527795482E-01  0.26884950185E-01 -0.10042708904E-01  0.70624033157E-01  0.51100000000E-03 0.  1.
</event>
<event>
 8    1  0.1138737E+005  0.1043930E+01  0.7957747E-01            NaN
         13   -1    0    0    0    0  0.00000000000E+00  0.00000000000E+00  0.74505805969E-08  0.10566000000E+00  0.10566000000E+00 0. -1.
     999900   -1    0    0    0    0 -0.00000000000E+00 -0.00000000000E+00 -0.74505805969E-08  0.93827000000E+00  0.93827000000E+00 0. -1.
     999902    2    1    2    0    0 -0.16197945208E-01  0.16979849181E-01 -0.40430013860E-02  0.10201175124E+01  0.10198395484E+01 0.  0.
     999903    2    3    3    0    0 -0.11838183502E+00 -0.50985913788E-01  0.13293906080E-01  0.13143226964E+00  0.21997529335E-01 0.  0.
         14    1    1    2    0    0  0.16197945208E-01 -0.16979849181E-01  0.40430013860E-02  0.23812487635E-01  0.00000000000E+00 0.  1.
     999901    1    3    3    0    0  0.10218388981E+00  0.67965762970E-01 -0.17336907466E-01  0.88868524272E+00  0.88000000000E+00 0. -1.
        -11    1    4    4    0    0 -0.92640781125E-01 -0.48674445141E-01  0.13936326456E-01  0.10557460989E+00  0.51100000000E-03 0.  1.
         11    1    4    4    0    0 -0.25741053895E-01 -0.23114686470E-02 -0.64242037583E-03  0.25857659752E-01  0.51100000000E-03 0. -1.
</event>
<event>
 8    1  0.1138737E+005  0.1043930E+01  0.7957747E-01            NaN
         13   -1    0    0    0    0  0.00000000000E+00  0.00000000000E+00  0.74505805969E-08  0.10566000000E+00  0.10566000000E+00 0. -1.
     999900   -1    0    0    0    0 -0.00000000000E+00 -0.00000000000E+00 -0.74505805969E-08  0.93827000000E+00  0.93827000000E+00 0. -1.
     999902    2    1    2    0    0  0.26080267080E-02  0.13280372240E-01 -0.20213644740E-01  0.10196038510E+01  0.10193136178E+01 0.  0.
     999903    2    3    3    0    0 -0.56001681330E-01 -0.11371419256E+00 -0.25933343665E-02  0.12838379251E+00  0.20213037719E-01 0.  0.
         14    1    1    2    0    0 -0.26080267080E-02 -0.13280372240E-01  0.20213644740E-01  0.24326148972E-01  0.00000000000E+00 0. -1.
     999901    1    3    3    0    0  0.58609708038E-01  0.12699456480E+00 -0.17620310374E-01  0.89122005852E+00  0.88000000000E+00 0. -1.
        -11    1    4    4    0    0 -0.65406473352E-02 -0.23171508531E-01 -0.71165630879E-02  0.25111859078E-01  0.51100000000E-03 0. -1.
         11    1    4    4    0    0 -0.49461033994E-01 -0.90542684033E-01  0.45232287214E-02  0.10327193343E+00  0.51100000000E-03 0.  1.
</event>
<event>
 8    1  0.1138737E+005  0.1043930E+01  0.7957747E-01            NaN
         13   -1    0    0    0    0  0.00000000000E+00  0.00000000000E+00  0.74505805969E-08  0.10566000000E+00  0.10566000000E+00 0. -1.
     999900   -1    0    0    0    0 -0.00000000000E+00 -0.00000000000E+00 -0.74505805969E-08  0.93827000000E+00  0.93827000000E+00 0.  1.
     999902    2    1    2    0    0  0.44054842986E-02  0.11125923175E-01 -0.10994640661E-01  0.10276795667E+01  0.10275510767E+01 0.  0.
     999903    2    3    3    0    0  0.11299516438E+00 -0.69643967216E-01 -0.30071826685E-01  0.13712949354E+00  0.16792673901E-01 0.  0.
         14    1    1    2    0    0 -0.44054842986E-02 -0.11125923175E-01  0.10994640661E-01  0.16250433276E-01  0.00000000000E+00 0. -1.
     999901    1    3    3    0    0 -0.10858968008E+00  0.80769890391E-01  0.19077186025E-01  0.89055007318E+00  0.88000000000E+00 0. -1.
        -11    1    4    4    0    0  0.85137309329E-01 -0.43631246940E-01 -0.22082437275E-01  0.98183207864E-01  0.51100000000E-03 0.  1.
         11    1    4    4    0    0  0.27857855050E-01 -0.26012720276E-01 -0.79893894102E-02  0.38946285681E-01  0.51100000000E-03 0. -1.
</event>
<event>
 8    1  0.1138737E+005  0.1043930E+01  0.7957747E-01            NaN
         13   -1    0    0    0    0  0.00000000000E+00  0.00000000000E+00  0.74505805969E-08  0.10566000000E+00  0.10566000000E+00 0.  1.
     999900   -1    0    0    0    0 -0.00000000000E+00 -0.00000000000E+00 -0.74505805969E-08  0.93827000000E+00  0.93827000000E+00 0.  1.
     999902    2    1    2    0    0  0.23626459956E-01 -0.12054481452E-01  0.24497558045E-02  0.10172931564E+01  0.10169443665E+01 0.  0.
     999903    2    3    3    0    0  0.16774729190E-01 -0.22423770226E-02 -0.12530554034E+00  0.12798745008E+00  0.19821431456E-01 0.  0.
         14    1    1    2    0    0 -0.23626459956E-01  0.12054481452E-01 -0.24497558045E-02  0.26636843593E-01  0.00000000000E+00 0.  1.
     999901    1    3    3    0    0  0.68517307655E-02 -0.98121044290E-02  0.12775529614E+00  0.88930570632E+00  0.88000000000E+00 0. -1.
        -11    1    4    4    0    0  0.38730866266E-02 -0.34048039613E-03 -0.93849864006E-01  0.93931756195E-01  0.51100000000E-03 0.  1.
         11    1    4    4    0    0  0.12901642564E-01 -0.19018966265E-02 -0.31455676332E-01  0.34055693887E-01  0.51100000000E-03 0. -1.
</event>
<event>
 8    1  0.1138737E+005  0.1043930E+01  0.7957747E-01            NaN
         13   -1    0    0    0    0  0.00000000000E+00  0.00000000000E+00  0.74505805969E-08  0.10566000000E+00  0.10566000000E+00 0.  1.
     999900   -1    0    0    0    0 -0.00000000000E+00 -0.00000000000E+00 -0.74505805969E-08  0.93827000000E+00  0.93827000000E+00 0.  1.
     999902    2    1    2    0    0  0.53456533282E-02 -0.19248174408E-01 -0.10985467250E-01  0.10211320019E+01  0.10208774738E+01 0.  0.
     999903    2    3    3    0    0 -0.60548092685E-01 -0.17332835015E-02  0.11294450194E+00  0.12983665553E+00  0.20785110061E-01 0.  0.
         14    1    1    2    0    0 -0.53456533282E-02  0.19248174408E-01  0.10985467250E-01  0.22797998119E-01  0.00000000000E+00 0.  1.
     999901    1    3    3    0    0  0.65893746013E-01 -0.17514890907E-01 -0.12392996919E+00  0.89129534635E+00  0.88000000000E+00 0.  1.
        -11    1    4    4    0    0 -0.11874250976E-01 -0.76026205841E-02  0.35212740296E-01  0.37934099121E-01  0.51100000000E-03 0.  1.
         11    1    4    4    0    0 -0.48673841709E-01  0.58693370826E-02  0.77731761646E-01  0.91902556407E-01  0.51100000000E-03 0. -1.
</event>
<event>
 8    1  0.1138737E+005  0.1043930E+01  0.7957747E-01            NaN
         13   -1    0    0    0    0  0.00000000000E+00  0.00000000000E+00  0.74505805969E-08  0.10566000000E+00  0.10566000000E+00 0.  1.
     999900   -1    0    0    0    0 -0.00000000000E+00 -0.00000000000E+00 -0.74505805969E-08  0.93827000000E+00  0.93827000000E+00 0. -1.
     999902    2    1    2    0    0  0.22789847974E-02  0.13466212462E-01 -0.16355544621E-01  0.10226218680E+01  0.10223998476E+01 0.  0.
     999903    2    3    3    0    0 -0.76776712000E-01 -0.17099101007E-01  0.10226698066E+00  0.13062671941E+00  0.20439220393E-01 0.  0.
         14    1    1    2    0    0 -0.22789847974E-02 -0.13466212462E-01  0.16355544621E-01  0.21308132007E-01  0.00000000000E+00 0. -1.
     999901    1    3    3    0    0  0.79055696798E-01  0.30565313470E-01 -0.11862252528E+00  0.89199514858E+00  0.88000000000E+00 0. -1.
        -11    1    4    4    0    0 -0.31335710648E-01 -0.10513278779E-01  0.58487146921E-01  0.67182313658E-01  0.51100000000E-03 0.  1.
         11    1    4    4    0    0 -0.45441001352E-01 -0.65858222285E-02  0.43779833741E-01  0.63444405756E-01  0.51100000000E-03 0. -1.
</event>
<event>
 8    1  0.1138737E+005  0.1043930E+01  0.7957747E-01            NaN
         13   -1    0    0    0    0  0.00000000000E+00  0.00000000000E+00  0.74505805969E-08  0.10566000000E+00  0.10566000000E+00 0. -1.
     999900   -1    0    0    0    0 -0.00000000000E+00 -0.00000000000E+00 -0.74505805969E-08  0.93827000000E+00  0.93827000000E+00 0. -1.
     999902    2    1    2    0    0  0.62967741296E-02  0.23047121509E-01 -0.14017135013E-03  0.10200377665E+01  0.10197579155E+01 0.  0.
     999903    2    3    3    0    0 -0.27833514136E-01 -0.44904716411E-01  0.11578645944E+00  0.12918350647E+00  0.22152563975E-01 0.  0.
         14    1    1    2    0    0 -0.62967741296E-02 -0.23047121509E-01  0.14017135013E-03  0.23892233514E-01  0.00000000000E+00 0.  1.
     999901    1    3    3    0    0  0.34130288266E-01  0.67951837919E-01 -0.11592663079E+00  0.89085426001E+00  0.88000000000E+00 0. -1.
        -11    1    4    4    0    0 -0.46194736446E-02 -0.24480343616E-01  0.66316582806E-01  0.70843327395E-01  0.51100000000E-03 0.  1.
         11    1    4    4    0    0 -0.23214040492E-01 -0.20424372795E-01  0.49469876633E-01  0.58340179080E-01  0.51100000000E-03 0. -1.
</event>
<event>
 8    1  0.1138737E+005  0.1043930E+01  0.7957747E-01            NaN
         13   -1    0    0    0    0  0.00000000000E+00  0.00000000000E+00  0.74505805969E-08  0.10566000000E+00  0.10566000000E+00 0. -1.
     999900   -1    0    0    0    0 -0.00000000000E+00 -0.00000000000E+00 -0.74505805969E-08  0.93827000000E+00  0.93827000000E+00 0.  1.
     999902    2    1    2    0    0  0.69912662530E-02 -0.63487873216E-02 -0.21938360155E-01  0.10200453491E+01  0.10197656778E+01 0.  0.
     999903    2    3    3    0    0  0.30399904248E-01 -0.11085830382E+00 -0.63118472062E-01  0.13259619278E+00  0.19598242736E-01 0.  0.
         14    1    1    2    0    0 -0.69912662530E-02  0.63487873216E-02  0.21938360155E-01  0.23884650941E-01  0.00000000000E+00 0. -1.
     999901    1    3    3    0    0 -0.23408637995E-01  0.10450951650E+00  0.41180111907E-01  0.88744915628E+00  0.88000000000E+00 0. -1.
        -11    1    4    4    0    0  0.21262224584E-01 -0.70888711503E-01 -0.29888311846E-01  0.79817691766E-01  0.51100000000E-03 0.  1.
         11    1    4    4    0    0  0.91376796637E-02 -0.39969592320E-01 -0.33230160215E-01  0.52778501009E-01  0.51100000000E-03 0. -1.
</event>
<event>
 8    1  0.1138737E+005  0.1043930E+01  0.7957747E-01            NaN
         13   -1    0    0    0    0  0.00000000000E+00  0.00000000000E+00  0.74505805969E-08  0.10566000000E+00  0.10566000000E+00 0. -1.
     999900   -1    0    0    0    0 -0.00000000000E+00 -0.00000000000E+00 -0.74505805969E-08  0.93827000000E+00  0.93827000000E+00 0. -1.
     999902    2    1    2    0    0  0.81862063002E-02  0.21191052816E-01 -0.65716515032E-02  0.10202812940E+01  0.10200071850E+01 0.  0.
     999903    2    3    3    0    0 -0.12089698578E+00 -0.15440714990E-01 -0.39525098062E-01  0.12950057656E+00  0.18806092161E-01 0.  0.
         14    1    1    2    0    0 -0.81862063002E-02 -0.21191052816E-01  0.65716515032E-02  0.23648706022E-01  0.00000000000E+00 0. -1.
     999901    1    3    3    0    0  0.12908319208E+00  0.36631767806E-01  0.32953446559E-01  0.89078071742E+00  0.88000000000E+00 0.  1.
        -11    1    4    4    0    0 -0.75420380768E-01 -0.64083060333E-02 -0.33380847753E-01  0.82727518633E-01  0.51100000000E-03 0.  1.
         11    1    4    4    0    0 -0.45476605008E-01 -0.90324089570E-02 -0.61442503089E-02  0.46773057924E-01  0.51100000000E-03 0. -1.
</event>
<event>
 8    1  0.1138737E+005  0.1043930E+01  0.7957747E-01            NaN
         13   -1    0    0    0    0  0.00000000000E+00  0.00000000000E+00  0.74505805969E-08  0.10566000000E+00  0.10566000000E+00 0. -1.
     999900   -1    0    0    0    0 -0.00000000000E+00 -0.00000000000E+00 -0.74505805969E-08  0.93827000000E+00  0.93827000000E+00 0.  1.
     999902    2    1    2    0    0 -0.25716063117E-01  0.12900462873E-01  0.45137949803E-02  0.10148076342E+01  0.10143896797E+01 0.  0.
     999903    2    3    3    0    0 -0.84794210556E-01 -0.79618745491E-01 -0.45773429667E-01  0.12656282764E+00  0.19842875273E-01 0.  0.
         14    1    1    2    0    0  0.25716063117E-01 -0.12900462873E-01 -0.45137949803E-02  0.29122365799E-01  0.00000000000E+00 0. -1.
     999901    1    3    3    0    0  0.59078147439E-01  0.92519208365E-01  0.50287224648E-01  0.88824480656E+00  0.88000000000E+00 0.  1.
        -11    1    4    4    0    0 -0.16225982933E-01 -0.97340519755E-02 -0.11419845347E-02  0.18963109969E-01  0.51100000000E-03 0. -1.
         11    1    4    4    0    0 -0.68568227623E-01 -0.69884693516E-01 -0.44631445133E-01  0.10759971767E+00  0.51100000000E-03 0.  1.
</event>
<event>
 8    1  0.1138737E+005  0.1043930E+01  0.7957747E-01            NaN
         13   -1    0    0    0    0  0.00000000000E+00  0.00000000000E+00  0.74505805969E-08  0.10566000000E+00  0.10566000000E+00 0.  1.
     999900   -1    0    0    0    0 -0.00000000000E+00 -0.00000000000E+00 -0.74505805969E-08  0.93827000000E+00  0.93827000000E+00 0.  1.
     999902    2    1    2    0    0  0.83701661382E-02  0.75681268600E-02  0.21657231166E-01  0.10195092734E+01  0.10192167516E+01 0.  0.
     999903    2    3    3    0    0 -0.18027263125E-01  0.30526119915E-01  0.12624640318E+00  0.13262552194E+00  0.19863245976E-01 0.  0.
         14    1    1    2    0    0 -0.83701661382E-02 -0.75681268600E-02 -0.21657231166E-01  0.24420726589E-01  0.00000000000E+00 0. -1.
     999901    1    3    3    0    0  0.26397429264E-01 -0.22957993055E-01 -0.10458917202E+00  0.88688375147E+00  0.88000000000E+00 0.  1.
        -11    1    4    4    0    0 -0.56165861025E-02  0.23736426412E-01  0.57928709415E-01  0.62856666104E-01  0.51100000000E-03 0. -1.
         11    1    4    4    0    0 -0.12410677023E-01  0.67896935033E-02  0.68317693769E-01  0.69768855838E-01  0.51100000000E-03 0.  1.
</event>
<event>
 8    1  0.1138737E+005  0.1043930E+01  0.7957747E-01            NaN
         13   -1    0    0    0    0  0.00000000000E+00  0.00000000000E+00  0.74505805969E-08  0.10566000000E+00  0.10566000000E+00 0. -1.
     999900   -1    0    0    0    0 -0.00000000000E+00 -0.00000000000E+00 -0.74505805969E-08  0.93827000000E+00  0.93827000000E+00 0.  1.
     999902    2    1    2    0    0  0.44306825194E-02  0.23298680676E-01  0.85585600180E-02  0.10187167412E+01  0.10184046791E+01 0.  0.
     999903    2    3    3    0    0  0.27728700246E-01  0.12227668448E+00 -0.36354177636E-01  0.13172373286E+00  0.17579737820E-01 0.  0.
         14    1    1    2    0    0 -0.44306825194E-02 -0.23298680676E-01 -0.85585600180E-02  0.25213258782E-01  0.00000000000E+00 0. -1.
     999901    1    3    3    0    0 -0.23298017726E-01 -0.98978003809E-01  0.44912737654E-01  0.88699300836E+00  0.88000000000E+00 0. -1.
        -11    1    4    4    0    0  0.17242620884E-02  0.44138282878E-01 -0.14921447218E-01  0.46626942890E-01  0.51100000000E-03 0.  1.
         11    1    4    4    0    0  0.26004438158E-01  0.78138401606E-01 -0.21432730418E-01  0.85096789973E-01  0.51100000000E-03 0. -1.
</event>
<event>
 8    1  0.1138737E+005  0.1043930E+01  0.7957747E-01            NaN
         13   -1    0    0    0    0  0.00000000000E+00  0.00000000000E+00  0.74505805969E-08  0.10566000000E+00  0.10566000000E+00 0.  1.
     999900   -1    0    0    0    0 -0.00000000000E+00 -0.00000000000E+00 -0.74505805969E-08  0.93827000000E+00  0.93827000000E+00 0. -1.
     999902    2    1    2    0    0 -0.17820465475E-01  0.13597382369E-01  0.73552575272E-02  0.10203385267E+01  0.10200657584E+01 0.  0.
     999903    2    3    3    0    0 -0.78019764486E-01 -0.94514100562E-01 -0.39339396010E-01  0.13045514168E+00  0.21235749510E-01 0.  0.
         14    1    1    2    0    0  0.17820465475E-01 -0.13597382369E-01 -0.73552575272E-02  0.23591473255E-01  0.00000000000E+00 0. -1.
     999901    1    3    3    0    0  0.60199299012E-01  0.10811148293E+00  0.46694653537E-01  0.88988338506E+00  0.88000000000E+00 0.  1.
        -11    1    4    4    0    0 -0.26219529129E-01 -0.41344097692E-01 -0.24521937185E-01  0.54757507668E-01  0.51100000000E-03 0. -1.
         11    1    4    4    0    0 -0.51800235357E-01 -0.53170002871E-01 -0.14817458824E-01  0.75697634014E-01  0.51100000000E-03 0.  1.
</event>
<event>
 8    1  0.1138737E+005  0.1043930E+01  0.7957747E-01            NaN
         13   -1    0    0    0    0  0.00000000000E+00  0.00000000000E+00  0.74505805969E-08  0.10566000000E+00  0.10566000000E+00 0.  1.
     999900   -1    0    0    0    0 -0.00000000000E+00 -0.00000000000E+00 -0.74505805969E-08  0.93827000000E+00  0.93827000000E+00 0.  1.
     999902    2    1    2    0    0  0.13644500437E-01 -0.15273827248E-02  0.19405142017E-01  0.10201589077E+01  0.10198819207E+01 0.  0.
     999903    2    3    3    0    0 -0.79658230697E-01 -0.55365525372E-01 -0.80985525465E-01  0.12792450393E+00  0.19880851410E-01 0.  0.
         14    1    1    2    0    0 -0.13644500437E-01  0.15273827248E-02 -0.19405142017E-01  0.23771092253E-01  0.00000000000E+00 0. -1.
     999901    1    3    3    0    0  0.93302731134E-01  0.53838142648E-01  0.10039066748E+00  0.89223440382E+00  0.88000000000E+00 0.  1.
        -11    1    4    4    0    0 -0.40132933226E-01 -0.17567439969E-01 -0.29554303901E-01  0.52848701748E-01  0.51100000000E-03 0. -1.
         11    1    4    4    0    0 -0.39525297471E-01 -0.37798085404E-01 -0.51431221564E-01  0.75075802180E-01  0.51100000000E-03 0.  1.
</event>
<event>
 8    1  0.1138737E+005  0.1043930E+01  0.7957747E-01            NaN
         13   -1    0    0    0    0  0.00000000000E+00  0.00000000000E+00  0.74505805969E-08  0.10566000000E+00  0.10566000000E+00 0.  1.
     999900   -1    0    0    0    0 -0.00000000000E+00 -0.00000000000E+00 -0.74505805969E-08  0.93827000000E+00  0.93827000000E+00 0.  1.
     999902    2    1    2    0    0 -0.21078945275E-02 -0.18377261992E-01  0.11025280588E-01  0.10223957531E+01  0.10221689450E+01 0.  0.
     999903    2    3    3    0    0 -0.26653116071E-01  0.60334109027E-01  0.11328328418E+00  0.13264598652E+00  0.20279594606E-01 0.  0.
         14    1    1    2    0    0  0.21078945275E-02  0.18377261992E-01 -0.11025280588E-01  0.21534246904E-01  0.00000000000E+00 0. -1.
     999901    1    3    3    0    0  0.24545221544E-01 -0.78711371019E-01 -0.10225800359E+00  0.88974976658E+00  0.88000000000E+00 0.  1.
        -11    1    4    4    0    0  0.42011636422E-03  0.22098559863E-01  0.38580071969E-01  0.44465783698E-01  0.51100000000E-03 0.  1.
         11    1    4    4    0    0 -0.27073232435E-01  0.38235549164E-01  0.74703212207E-01  0.88180202820E-01  0.51100000000E-03 0. -1.
</event>
<event>
 8    1  0.1138737E+005  0.1043930E+01  0.7957747E-01            NaN
         13   -1    0    0    0    0  0.00000000000E+00  0.00000000000E+00  0.74505805969E-08  0.10566000000E+00  0.10566000000E+00 0.  1.
     999900   -1    0    0    0    0 -0.00000000000E+00 -0.00000000000E+00 -0.74505805969E-08  0.93827000000E+00  0.93827000000E+00 0. -1.
     999902    2    1    2    0    0 -0.17141265390E-01 -0.14546635706E-01  0.44853799918E-02  0.10210052051E+01  0.10207478055E+01 0.  0.
     999903    2    3    3    0    0 -0.12090228776E+00  0.34887503432E-01  0.38035509139E-01  0.13289727522E+00  0.19506017615E-01 0.  0.
         14    1    1    2    0    0  0.17141265390E-01  0.14546635706E-01 -0.44853799918E-02  0.22924794944E-01  0.00000000000E+00 0.  1.
     999901    1    3    3    0    0  0.10376102237E+00 -0.49434139139E-01 -0.33550129147E-01  0.88810792984E+00  0.88000000000E+00 0. -1.
        -11    1    4    4    0    0 -0.56985643595E-01  0.25725921042E-01  0.22794862507E-01  0.66551134228E-01  0.51100000000E-03 0.  1.
         11    1    4    4    0    0 -0.63916644167E-01  0.91615823902E-02  0.15240646631E-01  0.66346140989E-01  0.51100000000E-03 0. -1.
</event>
<event>
 8    1  0.1138737E+005  0.1043930E+01  0.7957747E-01            NaN
         13   -1    0    0    0    0  0.00000000000E+00  0.00000000000E+00  0.74505805969E-08  0.10566000000E+00  0.10566000000E+00 0. -1.
     999900   -1    0    0    0    0 -0.00000000000E+00 -0.00000000000E+00 -0.74505805969E-08  0.93827000000E+00  0.93827000000E+00 0.  1.
     999902    2    1    2    0    0 -0.62234551329E-02 -0.14044905267E-01  0.18342366414E-01  0.10200044245E+01  0.10197237826E+01 0.  0.
     999903    2    3    3    0    0  0.65699389730E-01  0.23917578204E-01  0.10951958327E+00  0.13156346943E+00  0.20638483727E-01 0.  0.
         14    1    1    2    0    0  0.62234551329E-02  0.14044905267E-01 -0.18342366414E-01  0.23925575508E-01  0.00000000000E+00 0.  1.
     999901    1    3    3    0    0 -0.71922844863E-01 -0.37962483470E-01 -0.91177216853E-01  0.88844095507E+00  0.88000000000E+00 0.  1.
        -11    1    4    4    0    0  0.17660940670E-01  0.14729488335E-01  0.45635856237E-01  0.51105372981E-01  0.51100000000E-03 0. -1.
         11    1    4    4    0    0  0.48038449060E-01  0.91880898684E-02  0.63883727029E-01  0.80458096446E-01  0.51100000000E-03 0.  1.
</event>
<event>
 8    1  0.1138737E+005  0.1043930E+01  0.7957747E-01            NaN
         13   -1    0    0    0    0  0.00000000000E+00  0.00000000000E+00  0.74505805969E-08  0.10566000000E+00  0.10566000000E+00 0.  1.
     999900   -1    0    0    0    0 -0.00000000000E+00 -0.00000000000E+00 -0.74505805969E-08  0.93827000000E+00  0.93827000000E+00 0. -1.
     999902    2    1    2    0    0  0.21227416017E-01  0.98094285555E-02 -0.16524322208E-02  0.10204873335E+01  0.10202180352E+01 0.  0.
     999903    2    3    3    0    0 -0.13287938475E-01 -0.30721095107E-01 -0.12438556103E+00  0.13037641125E+00  0.20146608259E-01 0.  0.
         14    1    1    2    0    0 -0.21227416017E-01 -0.98094285555E-02  0.16524322208E-02  0.23442666478E-01  0.00000000000E+00 0. -1.
     999901    1    3    3    0    0  0.34515354492E-01  0.40530523663E-01  0.12273312881E+00  0.89011092227E+00  0.88000000000E+00 0.  1.
        -11    1    4    4    0    0 -0.49904832858E-02 -0.22506526838E-01 -0.10680389192E+00  0.10926472955E+00  0.51100000000E-03 0. -1.
         11    1    4    4    0    0 -0.82974551889E-02 -0.82145682690E-02 -0.17581669109E-01  0.21111681698E-01  0.51100000000E-03 0.  1.
</event>
<event>
 8    1  0.1138737E+005  0.1043930E+01  0.7957747E-01            NaN
         13   -1    0    0    0    0  0.00000000000E+00  0.00000000000E+00  0.74505805969E-08  0.10566000000E+00  0.10566000000E+00 0. -1.
     999900   -1    0    0    0    0 -0.00000000000E+00 -0.00000000000E+00 -0.74505805969E-08  0.93827000000E+00  0.93827000000E+00 0. -1.
     999902    2    1    2    0    0 -0.17466769924E-01 -0.11428893801E-01 -0.10940916760E-01  0.10203628338E+01  0.10200906338E+01 0.  0.
     999903    2    3    3    0    0 -0.34846420134E-01  0.94611718414E-01 -0.81295668290E-01  0.13103923982E+00  0.19915984324E-01 0.  0.
         14    1    1    2    0    0  0.17466769924E-01  0.11428893801E-01  0.10940916760E-01  0.23567166241E-01  0.00000000000E+00 0.  1.
     999901    1    3    3    0    0  0.17379650210E-01 -0.10604061221E+00  0.70354751530E-01  0.88932359394E+00  0.88000000000E+00 0.  1.
        -11    1    4    4    0    0 -0.11797531011E-01  0.44510648026E-01 -0.25733824073E-01  0.52752917910E-01  0.51100000000E-03 0.  1.
         11    1    4    4    0    0 -0.23048889123E-01  0.50101070388E-01 -0.55561844216E-01  0.78286321906E-01  0.51100000000E-03 0. -1.
</event>
<event>
 8    1  0.1138737E+005  0.1043930E+01  0.7957747E-01            NaN
         13   -1    0    0    0    0  0.00000000000E+00  0.00000000000E+00  0.74505805969E-08  0.10566000000E+00  0.10566000000E+00 0. -1.
     999900   -1    0    0    0    0 -0.00000000000E+00 -0.00000000000E+00 -0.74505805969E-08  0.93827000000E+00  0.93827000000E+00 0. -1.
     999902    2    1    2    0    0 -0.22366081344E-01 -0.52111694874E-02 -0.54548585210E-02  0.10203259037E+01  0.10200528400E+01 0.  0.
     999903    2    3    3    0    0 -0.73155455128E-01 -0.85377727703E-01  0.66647825644E-01  0.13229153800E+00  0.20446059786E-01 0.  0.
         14    1    1    2    0    0  0.22366081344E-01  0.52111694874E-02  0.54548585210E-02  0.23604096331E-01  0.00000000000E+00 0. -1.
     999901    1    3    3    0    0  0.50789373784E-01  0.80166558215E-01 -0.72102684165E-01  0.88803436567E+00  0.88000000000E+00 0. -1.
        -11    1    4    4    0    0 -0.27292262505E-01 -0.18287464251E-01  0.16156466622E-01  0.36614088491E-01  0.51100000000E-03 0. -1.
         11    1    4    4    0    0 -0.45863192623E-01 -0.67090263452E-01  0.50491359022E-01  0.95677449509E-01  0.51100000000E-03 0.  1.
</event>
<event>
 8    1  0.1138737E+005  0.1043930E+01  0.7957747E-01            NaN
         13   -1    0    0    0    0  0.00000000000E+00  0.00000000000E+00  0.74505805969E-08  0.10566000000E+00  0.10566000000E+00 0. -1.
     999900   -1    0    0    0    0 -0.00000000000E+00 -0.00000000000E+00 -0.74505805969E-08  0.93827000000E+00  0.93827000000E+00 0. -1.
     999902    2    1    2    0    0  0.42522446041E-02 -0.95850241949E-02 -0.21166923948E-01  0.10203081258E+01  0.10200346458E+01 0.  0.
     999903    2    3    3    0    0  0.45218615900E-01  0.12004077489E+00  0.28547957538E-02  0.12954545570E+00  0.17870768711E-01 0.  0.
         14    1    1    2    0    0 -0.42522446041E-02  0.95850241949E-02  0.21166923948E-01  0.23621874235E-01  0.00000000000E+00 0. -1.
     999901    1    3    3    0    0 -0.40966371295E-01 -0.12962579908E+00 -0.24021719701E-01  0.89076267007E+00  0.88000000000E+00 0.  1.
        -11    1    4    4    0    0  0.11193876479E-01  0.50163935612E-01  0.60670034235E-02  0.51757057087E-01  0.51100000000E-03 0. -1.
         11    1    4    4    0    0  0.34024739421E-01  0.69876839274E-01 -0.32122076696E-02  0.77788398613E-01  0.51100000000E-03 0.  1.
</event>
<event>
 8    1  0.1138737E+005  0.1043930E+01  0.7957747E-01            NaN
         13   -1    0    0    0    0  0.00000000000E+00  0.00000000000E+00  0.74505805969E-08  0.10566000000E+00  0.10566000000E+00 0.  1.
     999900   -1    0    0    0    0 -0.00000000000E+00 -0.00000000000E+00 -0.74505805969E-08  0.93827000000E+00  0.93827000000E+00 0.  1.
     999902    2    1    2    0    0  0.33379187929E-02  0.24132467981E-01 -0.35713022385E-03  0.10195651636E+01  0.10192739953E+01 0.  0.
     999903    2    3    3    0    0  0.61339907109E-01  0.56764696903E-01 -0.99488573723E-01  0.13150202611E+00  0.20248248081E-01 0.  0.
         14    1    1    2    0    0 -0.33379187929E-02 -0.24132467981E-01  0.35713022385E-03  0.24364836439E-01  0.00000000000E+00 0.  1.
     999901    1    3    3    0    0 -0.58001988316E-01 -0.32632228923E-01  0.99131443499E-01  0.88806313745E+00  0.88000000000E+00 0. -1.
        -11    1    4    4    0    0  0.14917704466E-01  0.15958053317E-01 -0.40723891566E-01  0.46215731494E-01  0.51100000000E-03 0. -1.
         11    1    4    4    0    0  0.46422202643E-01  0.40806643586E-01 -0.58764682156E-01  0.85286294614E-01  0.51100000000E-03 0.  1.
</event>
<event>
 8    1  0.1138737E+005  0.1043930E+01  0.7957747E-01            NaN
         13   -1    0    0    0    0  0.00000000000E+00  0.00000000000E+00  0.74505805969E-08  0.10566000000E+00  0.10566000000E+00 0.  1.
     999900   -1    0    0    0    0 -0.00000000000E+00 -0.00000000000E+00 -0.74505805969E-08  0.93827000000E+00  0.93827000000E+00 0. -1.
     999902    2    1    2    0    0  0.69068645469E-02  0.16768046601E-01  0.14806095460E-01  0.10205186218E+01  0.10202500502E+01 0.  0.
     999903    2    3    3    0    0  0.99800873294E-01 -0.76418598426E-01 -0.25754679767E-01  0.12981203482E+00  0.19693764452E-01 0.  0.
         14    1    1    2    0    0 -0.69068645469E-02 -0.16768046601E-01 -0.14806095460E-01  0.23411378162E-01  0.00000000000E+00 0. -1.
     999901    1    3    3    0    0 -0.92894008747E-01  0.93186645027E-01  0.40560775227E-01  0.89070658702E+00  0.88000000000E+00 0.  1.
        -11    1    4    4    0    0  0.53211497381E-01 -0.39415832218E-01 -0.35887618005E-02  0.66319013980E-01  0.51100000000E-03 0.  1.
         11    1    4    4    0    0  0.46589375913E-01 -0.37002766207E-01 -0.22165917966E-01  0.63493020839E-01  0.51100000000E-03 0. -1.
</event>
<event>
 8    1  0.1138737E+005  0.1043930E+01  0.7957747E-01            NaN
         13   -1    0    0    0    0  0.00000000000E+00  0.00000000000E+00  0.74505805969E-08  0.10566000000E+00  0.10566000000E+00 0. -1.
     999900   -1    0    0    0    0 -0.00000000000E+00 -0.00000000000E+00 -0.74505805969E-08  0.93827000000E+00  0.93827000000E+00 0.  1.
     999902    2    1    2    0    0 -0.30918629878E-01 -0.53088027651E-02 -0.60080490388E-02  0.10119887772E+01  0.10114845740E+01 0.  0.
     999903    2    3    3    0    0  0.59427873779E-01  0.76451206474E-01  0.68697884432E-01  0.12045741694E+00  0.20350204379E-01 0.  0.
         14    1    1    2    0    0  0.30918629878E-01  0.53088027651E-02  0.60080490388E-02  0.31941222794E-01  0.00000000000E+00 0. -1.
     999901    1    3    3    0    0 -0.90346503657E-01 -0.81760009239E-01 -0.74705933471E-01  0.89153136026E+00  0.88000000000E+00 0.  1.
        -11    1    4    4    0    0  0.53548741778E-01  0.56115809279E-01  0.57073242445E-01  0.96301962188E-01  0.51100000000E-03 0.  1.
         11    1    4    4    0    0  0.58791320007E-02  0.20335397195E-01  0.11624641987E-01  0.24155454756E-01  0.51100000000E-03 0. -1.
</event>
<event>
 8    1  0.1138737E+005  0.1043930E+01  0.7957747E-01            NaN
         13   -1    0    0    0    0  0.00000000000E+00  0.00000000000E+00  0.74505805969E-08  0.10566000000E+00  0.10566000000E+00 0.  1.
     999900   -1    0    0    0    0 -0.00000000000E+00 -0.00000000000E+00 -0.74505805969E-08  0.93827000000E+00  0.93827000000E+00 0. -1.
     999902    2    1    2    0    0  0.65314301685E-02  0.22639156502E-01 -0.41815568719E-02  0.10199993417E+01  0.10197185792E+01 0.  0.
     999903    2    3    3    0    0 -0.66446893261E-01 -0.39183886133E-01 -0.10162646090E+00  0.12946948058E+00  0.21996415360E-01 0.  0.
         14    1    1    2    0    0 -0.65314301685E-02 -0.22639156502E-01  0.41815568719E-02  0.23930658266E-01  0.00000000000E+00 0. -1.
     999901    1    3    3    0    0  0.72978323429E-01  0.61823042635E-01  0.97444904031E-01  0.89052986116E+00  0.88000000000E+00 0. -1.
        -11    1    4    4    0    0 -0.56518771354E-02 -0.59117526088E-02 -0.25958970734E-02  0.85960651857E-02  0.51100000000E-03 0. -1.
         11    1    4    4    0    0 -0.60795016126E-01 -0.33272133525E-01 -0.99030563829E-01  0.12087341539E+00  0.51100000000E-03 0.  1.
</event>
<event>
 8    1  0.1138737E+005  0.1043930E+01  0.7957747E-01            NaN
         13   -1    0    0    0    0  0.00000000000E+00  0.00000000000E+00  0.74505805969E-08  0.10566000000E+00  0.10566000000E+00 0.  1.
     999900   -1    0    0    0    0 -0.00000000000E+00 -0.00000000000E+00 -0.74505805969E-08  0.93827000000E+00  0.93827000000E+00 0.  1.
     999902    2    1    2    0    0  0.57397657290E-02  0.20746969881E-01  0.10813407266E-01  0.10198403457E+01  0.10195557950E+01 0.  0.
     999903    2    3    3    0    0 -0.11115383342E+00  0.30364467136E-01 -0.55691315013E-01  0.12957101120E+00  0.20247193061E-01 0.  0.
         14    1    1    2    0    0 -0.57397657290E-02 -0.20746969881E-01 -0.10813407266E-01  0.24089654347E-01  0.00000000000E+00 0.  1.
     999901    1    3    3    0    0  0.11689359915E+00 -0.96174972548E-02  0.66504722279E-01  0.89026933445E+00  0.88000000000E+00 0. -1.
        -11    1    4    4    0    0 -0.48784530243E-01  0.53708315510E-02 -0.16485068386E-01  0.51776392529E-01  0.51100000000E-03 0.  1.
         11    1    4    4    0    0 -0.62369303181E-01  0.24993635585E-01 -0.39206246627E-01  0.77794618674E-01  0.51100000000E-03 0. -1.
</event>
<event>
 8    1  0.1138737E+005  0.1043930E+01  0.7957747E-01            NaN
         13   -1    0    0    0    0  0.00000000000E+00  0.00000000000E+00  0.74505805969E-08  0.10566000000E+00  0.10566000000E+00 0.  1.
     999900   -1    0    0    0    0 -0.00000000000E+00 -0.00000000000E+00 -0.74505805969E-08  0.93827000000E+00  0.93827000000E+00 0.  1.
     999902    2    1    2    0    0 -0.19072276467E-01 -0.50291662424E-02  0.13766988069E-01  0.10198764306E+01  0.10195927419E+01 0.  0.
     999903    2    3    3    0    0 -0.37262320877E-01 -0.98531777375E-01 -0.74265091286E-01  0.13036911580E+00  0.19591091353E-01 0.  0.
         14    1    1    2    0    0  0.19072276467E-01  0.50291662424E-02 -0.13766988069E-01  0.24053569449E-01  0.00000000000E+00 0. -1.
     999901    1    3    3    0    0  0.18190044409E-01  0.93502611133E-01  0.88032079355E-01  0.88950731475E+00  0.88000000000E+00 0. -1.
        -11    1    4    4    0    0 -0.24410651452E-01 -0.85154785013E-01 -0.61890277915E-01  0.10806426299E+00  0.51100000000E-03 0. -1.
         11    1    4    4    0    0 -0.12851669425E-01 -0.13376992362E-01 -0.12374813370E-01  0.22304852804E-01  0.51100000000E-03 0.  1.
</event>
<event>
 8    1  0.1138737E+005  0.1043930E+01  0.7957747E-01            NaN
         13   -1    0    0    0    0  0.00000000000E+00  0.00000000000E+00  0.74505805969E-08  0.10566000000E+00  0.10566000000E+00 0.  1.
     999900   -1    0    0    0    0 -0.00000000000E+00 -0.00000000000E+00 -0.74505805969E-08  0.93827000000E+00  0.93827000000E+00 0. -1.
     999902    2    1    2    0    0 -0.56183947193E-02 -0.18686635877E-01 -0.13418222956E-01  0.10202486692E+01  0.10199737946E+01 0.  0.
     999903    2    3    3    0    0 -0.79207582346E-01 -0.14168565932E-01 -0.10349025028E+00  0.13258389490E+00  0.19841066558E-01 0.  0.
         14    1    1    2    0    0  0.56183947193E-02  0.18686635877E-01  0.13418222956E-01  0.23681330767E-01  0.00000000000E+00 0.  1.
     999901    1    3    3    0    0  0.73589187627E-01 -0.45180699444E-02  0.90072027320E-01  0.88766477434E+00  0.88000000000E+00 0.  1.
        -11    1    4    4    0    0 -0.18520279493E-01  0.27766913776E-02 -0.33699130132E-01  0.38556494396E-01  0.51100000000E-03 0. -1.
         11    1    4    4    0    0 -0.60687302854E-01 -0.16945257310E-01 -0.69791120144E-01  0.94027400500E-01  0.51100000000E-03 0.  1.
</event>
<event>
 8    1  0.1138737E+005  0.1043930E+01  0.7957747E-01            NaN
         13   -1    0    0    0    0  0.00000000000E+00  0.00000000000E+00  0.74505805969E-08  0.10566000000E+00  0.10566000000E+00 0.  1.
     999900   -1    0    0    0    0 -0.00000000000E+00 -0.00000000000E+00 -0.74505805969E-08  0.93827000000E+00  0.93827000000E+00 0.  1.
     999902    2    1    2    0    0 -0.19237140109E-01  0.78591596396E-02  0.45968021283E-02  0.10226470364E+01  0.10224255457E+01 0.  0.
     999903    2    3    3    0    0  0.38691272474E-01  0.11723697177E+00  0.45300292017E-01  0.13305388172E+00  0.20240969995E-01 0.  0.
         14    1    1    2    0    0  0.19237140109E-01 -0.78591596396E-02 -0.45968021283E-02  0.21282963600E-01  0.00000000000E+00 0. -1.
     999901    1    3    3    0    0 -0.57928412583E-01 -0.10937781213E+00 -0.40703489889E-01  0.88959315468E+00  0.88000000000E+00 0.  1.
        -11    1    4    4    0    0  0.12375573517E-01  0.61522781295E-01  0.15683754323E-01  0.64687314899E-01  0.51100000000E-03 0.  1.
         11    1    4    4    0    0  0.26315698957E-01  0.55714190478E-01  0.29616537694E-01  0.68366566816E-01  0.51100000000E-03 0. -1.
</event>
<event>
 8    1  0.1138737E+005  0.1043930E+01  0.7957747E-01            NaN
         13   -1    0    0    0    0  0.00000000000E+00  0.00000000000E+00  0.74505805969E-08  0.10566000000E+00  0.10566000000E+00 0. -1.
     999900   -1    0    0    0    0 -0.00000000000E+00 -0.00000000000E+00 -0.74505805969E-08  0.93827000000E+00  0.93827000000E+00 0.  1.
     999902    2    1    2    0    0  0.49473923626E-02  0.97270340882E-02 -0.19321662538E-01  0.10217394947E+01  0.10214984956E+01 0.  0.
     999903    2    3    3    0    0  0.63917134169E-01 -0.50551013715E-01  0.99076107755E-01  0.12981522350E+00  0.19877426826E-01 0.  0.
         14    1    1    2    0    0 -0.49473923626E-02 -0.97270340882E-02  0.19321662538E-01  0.22190505325E-01  0.00000000000E+00 0. -1.
     999901    1    3    3    0    0 -0.58969741806E-01  0.60278047803E-01 -0.11839777029E+00  0.89192427117E+00  0.88000000000E+00 0.  1.
        -11    1    4    4    0    0  0.14193097791E-01 -0.22940923913E-01  0.30513673535E-01  0.40731749392E-01  0.51100000000E-03 0.  1.
         11    1    4    4    0    0  0.49724036377E-01 -0.27610089802E-01  0.68562434220E-01  0.89083474111E-01  0.51100000000E-03 0. -1.
</event>
<event>
 8    1  0.1138737E+005  0.1043930E+01  0.7957747E-01            NaN
         13   -1    0    0    0    0  0.00000000000E+00  0.00000000000E+00  0.74505805969E-08  0.10566000000E+00  0.10566000000E+00 0.  1.
     999900   -1    0    0    0    0 -0.00000000000E+00 -0.00000000000E+00 -0.74505805969E-08  0.93827000000E+00  0.93827000000E+00 0. -1.
     999902    2    1    2    0    0 -0.16785321973E-02  0.25028801388E-01 -0.60147483622E-02  0.10181339622E+01  0.10178071180E+01 0.  0.
     999903    2    3    3    0    0  0.82386301759E-01 -0.84397168924E-01 -0.41538139337E-01  0.12667288586E+00  0.20253842926E-01 0.  0.
         14    1    1    2    0    0  0.16785321973E-02 -0.25028801388E-01  0.60147483622E-02  0.25796037818E-01  0.00000000000E+00 0.  1.
     999901    1    3    3    0    0 -0.84064833956E-01  0.10942597031E+00  0.35523390974E-01  0.89146107632E+00  0.88000000000E+00 0. -1.
        -11    1    4    4    0    0  0.38865058482E-01 -0.26364373292E-01 -0.19551218073E-01  0.50873216912E-01  0.51100000000E-03 0. -1.
         11    1    4    4    0    0  0.43521243277E-01 -0.58032795633E-01 -0.21986921264E-01  0.75799668950E-01  0.51100000000E-03 0.  1.
</event>
<event>
 8    1  0.1138737E+005  0.1043930E+01  0.7957747E-01            NaN
         13   -1    0    0    0    0  0.00000000000E+00  0.00000000000E+00  0.74505805969E-08  0.10566000000E+00  0.10566000000E+00 0.  1.
     999900   -1    0    0    0    0 -0.00000000000E+00 -0.00000000000E+00 -0.74505805969E-08  0.93827000000E+00  0.93827000000E+00 0.  1.
     999902    2    1    2    0    0 -0.59450271594E-02 -0.10350766600E-01 -0.20532150732E-01  0.10201802436E+01  0.10199037594E+01 0.  0.
     999903    2    3    3    0    0  0.43129717173E-01  0.85268159914E-01 -0.85772644635E-01  0.13124400756E+00  0.27151636298E-01 0.  0.
         14    1    1    2    0    0  0.59450271594E-02  0.10350766600E-01  0.20532150732E-01  0.23749756437E-01  0.00000000000E+00 0.  1.
     999901    1    3    3    0    0 -0.49074744332E-01 -0.95618926514E-01  0.65240493903E-01  0.88893623601E+00  0.88000000000E+00 0. -1.
        -11    1    4    4    0    0  0.35638532703E-01  0.69724681341E-01 -0.54114487378E-01  0.95185477183E-01  0.51100000000E-03 0.  1.
         11    1    4    4    0    0  0.74911844704E-02  0.15543478573E-01 -0.31658157257E-01  0.36058530375E-01  0.51100000000E-03 0. -1.
</event>
<event>
 8    1  0.1138737E+005  0.1043930E+01  0.7957747E-01            NaN
         13   -1    0    0    0    0  0.00000000000E+00  0.00000000000E+00  0.74505805969E-08  0.10566000000E+00  0.10566000000E+00 0. -1.
     999900   -1    0    0    0    0 -0.00000000000E+00 -0.00000000000E+00 -0.74505805969E-08  0.93827000000E+00  0.93827000000E+00 0.  1.
     999902    2    1    2    0    0  0.19248931438E-01 -0.14092649500E-01 -0.31682853695E-02  0.10198642118E+01  0.10195802314E+01 0.  0.
     999903    2    3    3    0    0  0.84567925407E-01 -0.22981512156E-01 -0.97267870217E-01  0.13239572515E+00  0.19690240059E-01 0.  0.
         14    1    1    2    0    0 -0.19248931438E-01  0.14092649500E-01  0.31682853695E-02  0.24065788240E-01  0.00000000000E+00 0.  1.
     999901    1    3    3    0    0 -0.65318993969E-01  0.88888626560E-02  0.94099584848E-01  0.88746848661E+00  0.88000000000E+00 0. -1.
        -11    1    4    4    0    0  0.51446986260E-01 -0.22301945040E-01 -0.68434907693E-01  0.88474667899E-01  0.51100000000E-03 0.  1.
         11    1    4    4    0    0  0.33120939146E-01 -0.67956711637E-03 -0.28832962524E-01  0.43921057254E-01  0.51100000000E-03 0. -1.
</event>
<event>
 8    1  0.1138737E+005  0.1043930E+01  0.7957747E-01            NaN
         13   -1    0    0    0    0  0.00000000000E+00  0.00000000000E+00  0.74505805969E-08  0.10566000000E+00  0.10566000000E+00 0. -1.
     999900   -1    0    0    0    0 -0.00000000000E+00 -0.00000000000E+00 -0.74505805969E-08  0.93827000000E+00  0.93827000000E+00 0. -1.
     999902    2    1    2    0    0  0.14909542641E-01  0.16199522611E-01  0.51137361972E-02  0.10213275822E+01  0.10210774509E+01 0.  0.
     999903    2    3    3    0    0  0.12856155251E+00  0.10371063619E-01  0.28778017265E-01  0.13368421431E+00  0.20190669425E-01 0.  0.
         14    1    1    2    0    0 -0.14909542641E-01 -0.16199522611E-01 -0.51137361972E-02  0.22602417846E-01  0.00000000000E+00 0. -1.
     999901    1    3    3    0    0 -0.11365200987E+00  0.58284589922E-02 -0.23664281068E-01  0.88764336785E+00  0.88000000000E+00 0. -1.
        -11    1    4    4    0    0  0.74828593856E-01  0.57140792118E-02  0.65050922054E-02  0.75329585857E-01  0.51100000000E-03 0. -1.
         11    1    4    4    0    0  0.53732958659E-01  0.46569844070E-02  0.22272925060E-01  0.58354628451E-01  0.51100000000E-03 0.  1.
</event>
<event>
 8    1  0.1138737E+005  0.1043930E+01  0.7957747E-01            NaN
         13   -1    0    0    0    0  0.00000000000E+00  0.00000000000E+00  0.74505805969E-08  0.10566000000E+00  0.10566000000E+00 0. -1.
     999900   -1    0    0    0    0 -0.00000000000E+00 -0.00000000000E+00 -0.74505805969E-08  0.93827000000E+00  0.93827000000E+00 0. -1.
     999902    2    1    2    0    0 -0.17057224514E-01  0.16310862785E-01 -0.46944834973E-02  0.10198669302E+01  0.10195830148E+01 0.  0.
     999903    2    3    3    0    0  0.11773795576E+00  0.39717642206E-01 -0.15592068610E-01  0.12922874591E+00  0.31894181859E-01 0.  0.
         14    1    1    2    0    0  0.17057224514E-01 -0.16310862785E-01  0.46944834973E-02  0.24063069801E-01  0.00000000000E+00 0.  1.
     999901    1    3    3    0    0 -0.13479518028E+00 -0.23406779420E-01  0.10897585113E-01  0.89063818429E+00  0.88000000000E+00 0.  1.
        -11    1    4    4    0    0  0.58803522639E-01  0.30896687422E-02 -0.65031176354E-02  0.59244847773E-01  0.51100000000E-03 0. -1.
         11    1    4    4    0    0  0.58934433125E-01  0.36627973464E-01 -0.90889509750E-02  0.69983898139E-01  0.51100000000E-03 0.  1.
</event>
<event>
 8    1  0.1138737E+005  0.1043930E+01  0.7957747E-01            NaN
         13   -1    0    0    0    0  0.00000000000E+00  0.00000000000E+00  0.74505805969E-08  0.10566000000E+00  0.10566000000E+00 0. -1.
     999900   -1    0    0    0    0 -0.00000000000E+00 -0.00000000000E+00 -0.74505805969E-08  0.93827000000E+00  0.93827000000E+00 0. -1.
     999902    2    1    2    0    0  0.13064712466E-01 -0.21198159851E-01 -0.29243497942E-02  0.10188580931E+01  0.10185495635E+01 0.  0.
     999903    2    3    3    0    0  0.90095078277E-01 -0.94924428777E-01  0.34259222028E-03  0.13241581474E+00  0.20150938340E-01 0.  0.
         14    1    1    2    0    0 -0.13064712466E-01  0.21198159851E-01  0.29243497942E-02  0.25071906880E-01  0.00000000000E+00 0.  1.
     999901    1    3    3    0    0 -0.77030365810E-01  0.73726268926E-01 -0.32669420145E-02  0.88644227838E+00  0.88000000000E+00 0. -1.
        -11    1    4    4    0    0  0.58455658636E-01 -0.67860337838E-01 -0.80888081654E-02  0.89932082243E-01  0.51100000000E-03 0. -1.
         11    1    4    4    0    0  0.31639419640E-01 -0.27064090939E-01  0.84314003857E-02  0.42483732498E-01  0.51100000000E-03 0.  1.
</event>
<event>
 8    1  0.1138737E+005  0.1043930E+01  0.7957747E-01            NaN
         13   -1    0    0    0    0  0.00000000000E+00  0.00000000000E+00  0.74505805969E-08  0.10566000000E+00  0.10566000000E+00 0. -1.
     999900   -1    0    0    0    0 -0.00000000000E+00 -0.00000000000E+00 -0.74505805969E-08  0.93827000000E+00  0.93827000000E+00 0.  1.
     999902    2    1    2    0    0 -0.11832030624E-01 -0.44005198890E-02  0.19395414421E-01  0.10207881845E+01  0.10205258321E+01 0.  0.
     999903    2    3    3    0    0 -0.27447086332E-01 -0.93742157539E-01 -0.83588218182E-01  0.13015280076E+00  0.20293513244E-01 0.  0.
         14    1    1    2    0    0  0.11832030624E-01  0.44005198890E-02 -0.19395414421E-01  0.23141815497E-01  0.00000000000E+00 0.  1.
     999901    1    3    3    0    0  0.15615055708E-01  0.89341637649E-01  0.10298363260E+00  0.89063538374E+00  0.88000000000E+00 0.  1.
        -11    1    4    4    0    0 -0.27275262684E-01 -0.73756314663E-01 -0.73988300901E-01  0.10797436593E+00  0.51100000000E-03 0.  1.
         11    1    4    4    0    0 -0.17182364783E-03 -0.19985842875E-01 -0.95999172813E-02  0.22178434832E-01  0.51100000000E-03 0. -1.
</event>
<event>
 8    1  0.1138737E+005  0.1043930E+01  0.7957747E-01            NaN
         13   -1    0    0    0    0  0.00000000000E+00  0.00000000000E+00  0.74505805969E-08  0.10566000000E+00  0.10566000000E+00 0.  1.
     999900   -1    0    0    0    0 -0.00000000000E+00 -0.00000000000E+00 -0.74505805969E-08  0.93827000000E+00  0.93827000000E+00 0. -1.
     999902    2    1    2    0    0 -0.27135535768E-02 -0.20601624766E-01  0.11532294781E-01  0.10201648125E+01  0.10198879647E+01 0.  0.
     999903    2    3    3    0    0  0.52825326051E-01 -0.11995168542E+00 -0.26993685496E-02  0.13272042437E+00  0.20700303114E-01 0.  0.
         14    1    1    2    0    0  0.27135535768E-02  0.20601624766E-01 -0.11532294781E-01  0.23765187542E-01  0.00000000000E+00 0. -1.
     999901    1    3    3    0    0 -0.55538879628E-01  0.99350060650E-01  0.14231663331E-01  0.88744438808E+00  0.88000000000E+00 0.  1.
        -11    1    4    4    0    0  0.29376477443E-01 -0.69952346010E-01  0.85720424767E-02  0.76354758676E-01  0.51100000000E-03 0. -1.
         11    1    4    4    0    0  0.23448848608E-01 -0.49999339405E-01 -0.11271411026E-01  0.56365665698E-01  0.51100000000E-03 0.  1.
</event>
<event>
 8    1  0.1138737E+005  0.1043930E+01  0.7957747E-01            NaN
         13   -1    0    0    0    0  0.00000000000E+00  0.00000000000E+00  0.74505805969E-08  0.10566000000E+00  0.10566000000E+00 0. -1.
     999900   -1    0    0    0    0 -0.00000000000E+00 -0.00000000000E+00 -0.74505805969E-08  0.93827000000E+00  0.93827000000E+00 0.  1.
     999902    2    1    2    0    0 -0.16561637614E-01  0.42336396068E-02  0.18708054035E-01  0.10185882789E+01  0.10182729884E+01 0.  0.
     999903    2    3    3    0    0 -0.69873785741E-01 -0.60064880121E-01  0.91779109238E-01  0.13161823208E+00  0.20243971063E-01 0.  0.
         14    1    1    2    0    0  0.16561637614E-01 -0.42336396068E-02 -0.18708054035E-01  0.25341721144E-01  0.00000000000E+00 0.  1.
     999901    1    3    3    0    0  0.53312148127E-01  0.64298519728E-01 -0.73071055203E-01  0.88697004678E+00  0.88000000000E+00 0. -1.
        -11    1    4    4    0    0 -0.27444923684E-01 -0.36909901042E-01  0.44240722398E-01  0.63820586571E-01  0.51100000000E-03 0.  1.
         11    1    4    4    0    0 -0.42428862057E-01 -0.23154979079E-01  0.47538386840E-01  0.67797645505E-01  0.51100000000E-03 0. -1.
</event>
<event>
 8    1  0.1138737E+005  0.1043930E+01  0.7957747E-01            NaN
         13   -1    0    0    0    0  0.00000000000E+00  0.00000000000E+00  0.74505805969E-08  0.10566000000E+00  0.10566000000E+00 0. -1.
     999900   -1    0    0    0    0 -0.00000000000E+00 -0.00000000000E+00 -0.74505805969E-08  0.93827000000E+00  0.93827000000E+00 0.  1.
     999902    2    1    2    0    0 -0.11300154026E-01 -0.14054726278E-01 -0.15193231361E-01  0.10203490100E+01  0.10200764869E+01 0.  0.
     999903    2    3    3    0    0 -0.68240494135E-01  0.52322921464E-01  0.92949054205E-01  0.12942648338E+00  0.26781239184E-01 0.  0.
         14    1    1    2    0    0  0.11300154026E-01  0.14054726278E-01  0.15193231361E-01  0.23580990033E-01  0.00000000000E+00 0. -1.
     999901    1    3    3    0    0  0.56940340109E-01 -0.66377647742E-01 -0.10814228557E+00  0.89092252659E+00  0.88000000000E+00 0.  1.
        -11    1    4    4    0    0 -0.11445469331E-01  0.23805762113E-01  0.29985528346E-01  0.39963809993E-01  0.51100000000E-03 0. -1.
         11    1    4    4    0    0 -0.56795024804E-01  0.28517159351E-01  0.62963525859E-01  0.89462673387E-01  0.51100000000E-03 0.  1.
</event>
<event>
 8    1  0.1138737E+005  0.1043930E+01  0.7957747E-01            NaN
         13   -1    0    0    0    0  0.00000000000E+00  0.00000000000E+00  0.74505805969E-08  0.10566000000E+00  0.10566000000E+00 0. -1.
     999900   -1    0    0    0    0 -0.00000000000E+00 -0.00000000000E+00 -0.74505805969E-08  0.93827000000E+00  0.93827000000E+00 0.  1.
     999902    2    1    2    0    0 -0.12990661082E-01 -0.20603853019E-01 -0.26155297880E-03  0.10195713374E+01  0.10192803184E+01 0.  0.
     999903    2    3    3    0    0  0.74730091917E-02 -0.10214010243E+00  0.80677226896E-01  0.13186755353E+00  0.19793694598E-01 0.  0.
         14    1    1    2    0    0  0.12990661082E-01  0.20603853019E-01  0.26155297880E-03  0.24358662618E-01  0.00000000000E+00 0.  1.
     999901    1    3    3    0    0 -0.20463670274E-01  0.81536249406E-01 -0.80938779875E-01  0.88770378385E+00  0.88000000000E+00 0. -1.
        -11    1    4    4    0    0  0.14018099300E-01 -0.74474518876E-01  0.61080585637E-01  0.97334783775E-01  0.51100000000E-03 0. -1.
         11    1    4    4    0    0 -0.65450901084E-02 -0.27665583549E-01  0.19596641259E-01  0.34532769760E-01  0.51100000000E-03 0.  1.
</event>
<event>
 8    1  0.1138737E+005  0.1043930E+01  0.7957747E-01            NaN
         13   -1    0    0    0    0  0.00000000000E+00  0.00000000000E+00  0.74505805969E-08  0.10566000000E+00  0.10566000000E+00 0.  1.
     999900   -1    0    0    0    0 -0.00000000000E+00 -0.00000000000E+00 -0.74505805969E-08  0.93827000000E+00  0.93827000000E+00 0.  1.
     999902    2    1    2    0    0  0.14363272443E-01 -0.11556555055E-01 -0.18578869025E-01  0.10177568853E+01  0.10174202896E+01 0.  0.
     999903    2    3    3    0    0 -0.12974057412E-01 -0.94145515976E-01  0.82904017119E-01  0.12766304626E+00  0.19826068266E-01 0.  0.
         14    1    1    2    0    0 -0.14363272443E-01  0.11556555055E-01  0.18578869025E-01  0.26173114722E-01  0.00000000000E+00 0.  1.
     999901    1    3    3    0    0  0.27337329855E-01  0.82588960921E-01 -0.10148288614E+00  0.89009383901E+00  0.88000000000E+00 0.  1.
        -11    1    4    4    0    0 -0.86121339492E-02 -0.64774320141E-01  0.44254569075E-01  0.78921539556E-01  0.51100000000E-03 0.  1.
         11    1    4    4    0    0 -0.43619234624E-02 -0.29371195835E-01  0.38649448044E-01  0.48741506708E-01  0.51100000000E-03 0. -1.
</event>
<event>
 8    1  0.1138737E+005  0.1043930E+01  0.7957747E-01            NaN
         13   -1    0    0    0    0  0.00000000000E+00  0.00000000000E+00  0.74505805969E-08  0.10566000000E+00  0.10566000000E+00 0.  1.
     999900   -1    0    0    0    0 -0.00000000000E+00 -0.00000000000E+00 -0.74505805969E-08  0.93827000000E+00  0.93827000000E+00 0. -1.
     999902    2    1    2    0    0 -0.12177324820E-01 -0.17436477723E-01 -0.10604305455E-01  0.10201651249E+01  0.10198882844E+01 0.  0.
     999903    2    3    3    0    0  0.16009666452E-01  0.11939101629E+00 -0.40372345603E-01  0.12864821208E+00  0.20246283428E-01 0.  0.
         14    1    1    2    0    0  0.12177324820E-01  0.17436477723E-01  0.10604305455E-01  0.23764875117E-01  0.00000000000E+00 0. -1.
     999901    1    3    3    0    0 -0.28186991271E-01 -0.13682749401E+00  0.29768040148E-01  0.89151691280E+00  0.88000000000E+00 0.  1.
        -11    1    4    4    0    0  0.41129064364E-02  0.67032407859E-01 -0.31666175517E-01  0.74251380429E-01  0.51100000000E-03 0. -1.
         11    1    4    4    0    0  0.11896760015E-01  0.52358608428E-01 -0.87061700852E-02  0.54396831653E-01  0.51100000000E-03 0.  1.
</event>
<event>
 8    1  0.1138737E+005  0.1043930E+01  0.7957747E-01            NaN
         13   -1    0    0    0    0  0.00000000000E+00  0.00000000000E+00  0.74505805969E-08  0.10566000000E+00  0.10566000000E+00 0. -1.
     999900   -1    0    0    0    0 -0.00000000000E+00 -0.00000000000E+00 -0.74505805969E-08  0.93827000000E+00  0.93827000000E+00 0.  1.
     999902    2    1    2    0    0 -0.22210692696E-01  0.65482272121E-02  0.30475948006E-03  0.10207721282E+01  0.10205094074E+01 0.  0.
     999903    2    3    3    0    0  0.59707645017E-02 -0.11123725076E+00 -0.62946113568E-01  0.13022831324E+00  0.24245089626E-01 0.  0.
         14    1    1    2    0    0  0.22210692696E-01 -0.65482272121E-02 -0.30475948006E-03  0.23157871837E-01  0.00000000000E+00 0.  1.
     999901    1    3    3    0    0 -0.28181457198E-01  0.11778547797E+00  0.63250873048E-01  0.89054381492E+00  0.88000000000E+00 0. -1.
        -11    1    4    4    0    0  0.10606857136E-01 -0.42935611032E-01 -0.15223914348E-01  0.46776070828E-01  0.51100000000E-03 0. -1.
         11    1    4    4    0    0 -0.46360926346E-02 -0.68301639730E-01 -0.47722199220E-01  0.83452242415E-01  0.51100000000E-03 0.  1.
</event>
<event>
 8    1  0.1138737E+005  0.1043930E+01  0.7957747E-01            NaN
         13   -1    0    0    0    0  0.00000000000E+00  0.00000000000E+00  0.74505805969E-08  0.10566000000E+00  0.10566000000E+00 0. -1.
     999900   -1    0    0    0    0 -0.00000000000E+00 -0.00000000000E+00 -0.74505805969E-08  0.93827000000E+00  0.93827000000E+00 0.  1.
     999902    2    1    2    0    0  0.15850490023E-01 -0.10914592662E-01  0.13547066709E-01  0.10203951454E+01  0.10201237000E+01 0.  0.
     999903    2    3    3    0    0  0.12437881879E+00  0.17828418736E-01 -0.34623296403E-01  0.13195553416E+00  0.20628796956E-01 0.  0.
         14    1    1    2    0    0 -0.15850490023E-01  0.10914592662E-01 -0.13547066709E-01  0.23534854649E-01  0.00000000000E+00 0.  1.
     999901    1    3    3    0    0 -0.10852832877E+00 -0.28743011398E-01  0.48170363112E-01  0.88843961119E+00  0.88000000000E+00 0. -1.
        -11    1    4    4    0    0  0.27223998720E-01 -0.25003759507E-02 -0.17734795995E-02  0.27400809059E-01  0.51100000000E-03 0.  1.
         11    1    4    4    0    0  0.97154820069E-01  0.20328794687E-01 -0.32849816803E-01  0.10455472510E+00  0.51100000000E-03 0. -1.
</event>
<event>
 8    1  0.1138737E+005  0.1043930E+01  0.7957747E-01            NaN
         13   -1    0    0    0    0  0.00000000000E+00  0.00000000000E+00  0.74505805969E-08  0.10566000000E+00  0.10566000000E+00 0. -1.
     999900   -1    0    0    0    0 -0.00000000000E+00 -0.00000000000E+00 -0.74505805969E-08  0.93827000000E+00  0.93827000000E+00 0. -1.
     999902    2    1    2    0    0  0.24688576463E-01 -0.48223404204E-02 -0.11140259732E-02  0.10187502099E+01  0.10184389861E+01 0.  0.
     999903    2    3    3    0    0  0.92592628889E-01 -0.37553005645E-03  0.90962161653E-01  0.13133330745E+00  0.20019661453E-01 0.  0.
         14    1    1    2    0    0 -0.24688576463E-01  0.48223404204E-02  0.11140259732E-02  0.25179790086E-01  0.00000000000E+00 0.  1.
     999901    1    3    3    0    0 -0.67904052427E-01 -0.44468103640E-02 -0.92076187626E-01  0.88741690247E+00  0.88000000000E+00 0. -1.
        -11    1    4    4    0    0  0.75134598684E-01  0.71013633532E-02  0.68591475793E-01  0.10198376809E+00  0.51100000000E-03 0. -1.
         11    1    4    4    0    0  0.17458030205E-01 -0.74768934096E-02  0.22370685860E-01  0.29349539358E-01  0.51100000000E-03 0.  1.
</event>
<event>
 8    1  0.1138737E+005  0.1043930E+01  0.7957747E-01            NaN
         13   -1    0    0    0    0  0.00000000000E+00  0.00000000000E+00  0.74505805969E-08  0.10566000000E+00  0.10566000000E+00 0.  1.
     999900   -1    0    0    0    0 -0.00000000000E+00 -0.00000000000E+00 -0.74505805969E-08  0.93827000000E+00  0.93827000000E+00 0. -1.
     999902    2    1    2    0    0 -0.55113127364E-02 -0.65734453283E-02 -0.21278105420E-01  0.10209878440E+01  0.10207300501E+01 0.  0.
     999903    2    3    3    0    0 -0.45072466688E-02  0.10123527141E+00 -0.82734035581E-01  0.13228060373E+00  0.19604643068E-01 0.  0.
         14    1    1    2    0    0  0.55113127364E-02  0.65734453283E-02  0.21278105420E-01  0.22942155998E-01  0.00000000000E+00 0.  1.
     999901    1    3    3    0    0 -0.10040660676E-02 -0.10780871674E+00  0.61455930161E-01  0.88870724027E+00  0.88000000000E+00 0.  1.
        -11    1    4    4    0    0 -0.12025735980E-01  0.72631631709E-01 -0.58081346188E-01  0.93774602887E-01  0.51100000000E-03 0.  1.
         11    1    4    4    0    0  0.75184893115E-02  0.28603639705E-01 -0.24652689393E-01  0.38506000847E-01  0.51100000000E-03 0. -1.
</event>
<event>
 8    1  0.1138737E+005  0.1043930E+01  0.7957747E-01            NaN
         13   -1    0    0    0    0  0.00000000000E+00  0.00000000000E+00  0.74505805969E-08  0.10566000000E+00  0.10566000000E+00 0.  1.
     999900   -1    0    0    0    0 -0.00000000000E+00 -0.00000000000E+00 -0.74505805969E-08  0.93827000000E+00  0.93827000000E+00 0. -1.
     999902    2    1    2    0    0  0.89796502512E-02  0.12076590954E-02  0.21420260772E-01  0.10206723103E+01  0.10204072936E+01 0.  0.
     999903    2    3    3    0    0 -0.28953891681E-01  0.70453453605E-01 -0.10164459063E+00  0.12860791165E+00  0.20158253070E-01 0.  0.
         14    1    1    2    0    0 -0.89796502512E-02 -0.12076590954E-02 -0.21420260772E-01  0.23257689710E-01  0.00000000000E+00 0. -1.
     999901    1    3    3    0    0  0.37933541932E-01 -0.69245794510E-01  0.12306485140E+00  0.89206439864E+00  0.88000000000E+00 0.  1.
        -11    1    4    4    0    0  0.44202339276E-03  0.22635419122E-01 -0.30340714561E-01  0.37859974439E-01  0.51100000000E-03 0. -1.
         11    1    4    4    0    0 -0.29395915073E-01  0.47818034484E-01 -0.71303876072E-01  0.90747937215E-01  0.51100000000E-03 0.  1.
</event>
<event>
 8    1  0.1138737E+005  0.1043930E+01  0.7957747E-01            NaN
         13   -1    0    0    0    0  0.00000000000E+00  0.00000000000E+00  0.74505805969E-08  0.10566000000E+00  0.10566000000E+00 0.  1.
     999900   -1    0    0    0    0 -0.00000000000E+00 -0.00000000000E+00 -0.74505805969E-08  0.93827000000E+00  0.93827000000E+00 0. -1.
     999902    2    1    2    0    0  0.14897800665E-01 -0.18452695865E-01 -0.48885845666E-02  0.10197154443E+01  0.10194278997E+01 0.  0.
     999903    2    3    3    0    0 -0.76237079127E-01  0.40085379685E-01  0.92228098272E-01  0.12777154320E+00  0.20015375137E-01 0.  0.
         14    1    1    2    0    0 -0.14897800665E-01  0.18452695865E-01  0.48885845666E-02  0.24214555714E-01  0.00000000000E+00 0. -1.
     999901    1    3    3    0    0  0.91134879792E-01 -0.58538075550E-01 -0.97116682839E-01  0.89194390109E+00  0.88000000000E+00 0. -1.
        -11    1    4    4    0    0 -0.25863191768E-01  0.24498923710E-01  0.34753110908E-01  0.49770893001E-01  0.51100000000E-03 0.  1.
         11    1    4    4    0    0 -0.50373887359E-01  0.15586455975E-01  0.57474987365E-01  0.78000650196E-01  0.51100000000E-03 0. -1.
</event>
<event>
 8    1  0.1138737E+005  0.1043930E+01  0.7957747E-01            NaN
         13   -1    0    0    0    0  0.00000000000E+00  0.00000000000E+00  0.74505805969E-08  0.10566000000E+00  0.10566000000E+00 0. -1.
     999900   -1    0    0    0    0 -0.00000000000E+00 -0.00000000000E+00 -0.74505805969E-08  0.93827000000E+00  0.93827000000E+00 0.  1.
     999902    2    1    2    0    0  0.49987296304E-03  0.30157232493E-05  0.22340040353E-01  0.10215843677E+01  0.10213399497E+01 0.  0.
     999903    2    3    3    0    0  0.11467165362E+00 -0.29135738603E-01  0.57609739855E-01  0.13303036580E+00  0.19486320639E-01 0.  0.
         14    1    1    2    0    0 -0.49987296304E-03 -0.30157232493E-05 -0.22340040353E-01  0.22345632348E-01  0.00000000000E+00 0.  1.
     999901    1    3    3    0    0 -0.11417178065E+00  0.29138754326E-01 -0.35269699503E-01  0.88855400185E+00  0.88000000000E+00 0. -1.
        -11    1    4    4    0    0  0.38655662607E-01 -0.99037940096E-03  0.22012627923E-01  0.44497842779E-01  0.51100000000E-03 0. -1.
         11    1    4    4    0    0  0.76015991009E-01 -0.28145359202E-01  0.35597111932E-01  0.88532523022E-01  0.51100000000E-03 0.  1.
</event>
<event>
 8    1  0.1138737E+005  0.1043930E+01  0.7957747E-01            NaN
         13   -1    0    0    0    0  0.00000000000E+00  0.00000000000E+00  0.74505805969E-08  0.10566000000E+00  0.10566000000E+00 0. -1.
     999900   -1    0    0    0    0 -0.00000000000E+00 -0.00000000000E+00 -0.74505805969E-08  0.93827000000E+00  0.93827000000E+00 0.  1.
     999902    2    1    2    0    0 -0.18277376544E-01  0.16411808992E-01 -0.10133864037E-03  0.10193653865E+01  0.10190693651E+01 0.  0.
     999903    2    3    3    0    0  0.94045884023E-01  0.67839504810E-01  0.55911305930E-01  0.12897292295E+00  0.78175449749E-02 0.  0.
         14    1    1    2    0    0  0.18277376544E-01 -0.16411808992E-01  0.10133864037E-03  0.24564613517E-01  0.00000000000E+00 0.  1.
     999901    1    3    3    0    0 -0.11232326057E+00 -0.51427695819E-01 -0.56012644570E-01  0.89039246353E+00  0.88000000000E+00 0.  1.
        -11    1    4    4    0    0  0.38763118591E-01  0.25979528704E-01  0.18690570824E-01  0.50270407133E-01  0.51100000000E-03 0. -1.
         11    1    4    4    0    0  0.55282765432E-01  0.41859976107E-01  0.37220735106E-01  0.78702515819E-01  0.51100000000E-03 0.  1.
</event>
<event>
 8    1  0.1138737E+005  0.1043930E+01  0.7957747E-01            NaN
         13   -1    0    0    0    0  0.00000000000E+00  0.00000000000E+00  0.74505805969E-08  0.10566000000E+00  0.10566000000E+00 0. -1.
     999900   -1    0    0    0    0 -0.00000000000E+00 -0.00000000000E+00 -0.74505805969E-08  0.93827000000E+00  0.93827000000E+00 0.  1.
     999902    2    1    2    0    0  0.82870081932E-02 -0.17896439187E-01 -0.12672318927E-01  0.10204876301E+01  0.10202183386E+01 0.  0.
     999903    2    3    3    0    0 -0.12734555048E-01 -0.73234328783E-01 -0.10879476895E+00  0.13327643000E+00  0.20021719213E-01 0.  0.
         14    1    1    2    0    0 -0.82870081932E-02  0.17896439187E-01  0.12672318927E-01  0.23442369917E-01  0.00000000000E+00 0. -1.
     999901    1    3    3    0    0  0.21021563242E-01  0.55337889596E-01  0.96122450019E-01  0.88721120008E+00  0.88000000000E+00 0. -1.
        -11    1    4    4    0    0  0.20613590131E-02 -0.41893075660E-01 -0.66048022200E-01  0.78242452331E-01  0.51100000000E-03 0. -1.
         11    1    4    4    0    0 -0.14795914062E-01 -0.31341253123E-01 -0.42746746746E-01  0.55033977674E-01  0.51100000000E-03 0.  1.
</event>
<event>
 8    1  0.1138737E+005  0.1043930E+01  0.7957747E-01            NaN
         13   -1    0    0    0    0  0.00000000000E+00  0.00000000000E+00  0.74505805969E-08  0.10566000000E+00  0.10566000000E+00 0. -1.
     999900   -1    0    0    0    0 -0.00000000000E+00 -0.00000000000E+00 -0.74505805969E-08  0.93827000000E+00  0.93827000000E+00 0.  1.
     999902    2    1    2    0    0 -0.71607976177E-02  0.84015868173E-02  0.17565940964E-01  0.10231832902E+01  0.10229729319E+01 0.  0.
     999903    2    3    3    0    0  0.53498179643E-01 -0.10142968751E+00  0.64488096954E-01  0.13304616089E+00  0.19812358366E-01 0.  0.
         14    1    1    2    0    0  0.71607976177E-02 -0.84015868173E-02 -0.17565940964E-01  0.20746709752E-01  0.00000000000E+00 0.  1.
     999901    1    3    3    0    0 -0.60658977261E-01  0.10983127433E+00 -0.46922155990E-01  0.89013712936E+00  0.88000000000E+00 0. -1.
        -11    1    4    4    0    0  0.12808549374E-01 -0.98789239646E-02  0.92199312984E-02  0.18625797430E-01  0.51100000000E-03 0. -1.
         11    1    4    4    0    0  0.40689630269E-01 -0.91550763548E-01  0.55268165656E-01  0.11442036346E+00  0.51100000000E-03 0.  1.
</event>
<event>
 8    1  0.1138737E+005  0.1043930E+01  0.7957747E-01            NaN
         13   -1    0    0    0    0  0.00000000000E+00  0.00000000000E+00  0.74505805969E-08  0.10566000000E+00  0.10566000000E+00 0. -1.
     999900   -1    0    0    0    0 -0.00000000000E+00 -0.00000000000E+00 -0.74505805969E-08  0.93827000000E+00  0.93827000000E+00 0. -1.
     999902    2    1    2    0    0 -0.74183064440E-02 -0.17343410266E-01  0.13588379362E-01  0.10206820065E+01  0.10204172133E+01 0.  0.
     999903    2    3    3    0    0 -0.88788643199E-01  0.18331481138E-01 -0.91078911998E-01  0.13003669464E+00  0.19867243899E-01 0.  0.
         14    1    1    2    0    0  0.74183064440E-02  0.17343410266E-01 -0.13588379362E-01  0.23247993544E-01  0.00000000000E+00 0.  1.
     999901    1    3    3    0    0  0.81370336755E-01 -0.35674891403E-01  0.10466729136E+00  0.89064531182E+00  0.88000000000E+00 0. -1.
        -11    1    4    4    0    0 -0.53019567916E-01  0.16200915175E-02 -0.57185640538E-01  0.78001012066E-01  0.51100000000E-03 0.  1.
         11    1    4    4    0    0 -0.35769075283E-01  0.16711389620E-01 -0.33893271460E-01  0.52035682574E-01  0.51100000000E-03 0. -1.
</event>
<event>
 8    1  0.1138737E+005  0.1043930E+01  0.7957747E-01            NaN
         13   -1    0    0    0    0  0.00000000000E+00  0.00000000000E+00  0.74505805969E-08  0.10566000000E+00  0.10566000000E+00 0. -1.
     999900   -1    0    0    0    0 -0.00000000000E+00 -0.00000000000E+00 -0.74505805969E-08  0.93827000000E+00  0.93827000000E+00 0. -1.
     999902    2    1    2    0    0  0.29864021636E-02  0.46036033891E-02 -0.22852783940E-01  0.10204276279E+01  0.10201569400E+01 0.  0.
     999903    2    3    3    0    0  0.82306813007E-01  0.98315468868E-01 -0.24062450884E-01  0.13190351193E+00  0.19472853692E-01 0.  0.
         14    1    1    2    0    0 -0.29864021636E-02 -0.46036033891E-02  0.22852783940E-01  0.23502372132E-01  0.00000000000E+00 0. -1.
     999901    1    3    3    0    0 -0.79320410843E-01 -0.93711865479E-01  0.12096669440E-02  0.88852411594E+00  0.88000000000E+00 0. -1.
        -11    1    4    4    0    0  0.12050902481E-01  0.61041101241E-02 -0.50335602099E-02  0.14425056686E-01  0.51100000000E-03 0.  1.
         11    1    4    4    0    0  0.70255910526E-01  0.92211358744E-01 -0.19028890674E-01  0.11747845524E+00  0.51100000000E-03 0. -1.
</event>
<event>
 8    1  0.1138737E+005  0.1043930E+01  0.7957747E-01            NaN
         13   -1    0    0    0    0  0.00000000000E+00  0.00000000000E+00  0.74505805969E-08  0.10566000000E+00  0.10566000000E+00 0.  1.
     999900   -1    0    0    0    0 -0.00000000000E+00 -0.00000000000E+00 -0.74505805969E-08  0.93827000000E+00  0.93827000000E+00 0.  1.
     999902    2    1    2    0    0 -0.10445940473E-02  0.11808989854E-02 -0.24046427078E-01  0.10198319429E+01  0.10195471914E+01 0.  0.
     999903    2    3    3    0    0  0.97992638029E-01 -0.77742064926E-01 -0.31835062713E-01  0.13073247132E+00  0.20763479330E-01 0.  0.
         14    1    1    2    0    0  0.10445940473E-02 -0.11808989854E-02  0.24046427078E-01  0.24098057066E-01  0.00000000000E+00 0.  1.
     999901    1    3    3    0    0 -0.99037232076E-01  0.78922963912E-01  0.77886356347E-02  0.88909947161E+00  0.88000000000E+00 0. -1.
        -11    1    4    4    0    0  0.47054379038E-01 -0.36687379360E-01 -0.25871873134E-01  0.65036092529E-01  0.51100000000E-03 0. -1.
         11    1    4    4    0    0  0.50938258991E-01 -0.41054685566E-01 -0.59631895793E-02  0.65696378796E-01  0.51100000000E-03 0.  1.
</event>
<event>
 8    1  0.1138737E+005  0.1043930E+01  0.7957747E-01            NaN
         13   -1    0    0    0    0  0.00000000000E+00  0.00000000000E+00  0.74505805969E-08  0.10566000000E+00  0.10566000000E+00 0. -1.
     999900   -1    0    0    0    0 -0.00000000000E+00 -0.00000000000E+00 -0.74505805969E-08  0.93827000000E+00  0.93827000000E+00 0.  1.
     999902    2    1    2    0    0  0.74812395008E-02 -0.21992173537E-01  0.65776873198E-02  0.10197868724E+01  0.10195010419E+01 0.  0.
     999903    2    3    3    0    0  0.17074420479E-01 -0.11933683647E+00  0.52873256277E-01  0.13315769835E+00  0.20064272389E-01 0.  0.
         14    1    1    2    0    0 -0.74812395008E-02  0.21992173537E-01 -0.65776873198E-02  0.24143127631E-01  0.00000000000E+00 0.  1.
     999901    1    3    3    0    0 -0.95931809785E-02  0.97344662932E-01 -0.46295568957E-01  0.88662917402E+00  0.88000000000E+00 0. -1.
        -11    1    4    4    0    0 -0.19341352525E-02 -0.53471163018E-01  0.19954133335E-01  0.57108096727E-01  0.51100000000E-03 0. -1.
         11    1    4    4    0    0  0.19008555732E-01 -0.65865673451E-01  0.32919122942E-01  0.76049601619E-01  0.51100000000E-03 0.  1.
</event>
<event>
 8    1  0.1138737E+005  0.1043930E+01  0.7957747E-01            NaN
         13   -1    0    0    0    0  0.00000000000E+00  0.00000000000E+00  0.74505805969E-08  0.10566000000E+00  0.10566000000E+00 0.  1.
     999900   -1    0    0    0    0 -0.00000000000E+00 -0.00000000000E+00 -0.74505805969E-08  0.93827000000E+00  0.93827000000E+00 0.  1.
     999902    2    1    2    0    0  0.39877838448E-02  0.22916286954E-01  0.78087630751E-03  0.10206562295E+01  0.10203908419E+01 0.  0.
     999903    2    3    3    0    0 -0.13066612486E-01  0.11963878423E+00  0.54335845035E-01  0.13357436818E+00  0.20138339680E-01 0.  0.
         14    1    1    2    0    0 -0.39877838448E-02 -0.22916286954E-01 -0.78087630751E-03  0.23273770549E-01  0.00000000000E+00 0.  1.
     999901    1    3    3    0    0  0.17054396331E-01 -0.96722497279E-01 -0.53554968728E-01  0.88708186127E+00  0.88000000000E+00 0.  1.
        -11    1    4    4    0    0 -0.59447287807E-02  0.71127737065E-01  0.42714754785E-01  0.83182366988E-01  0.51100000000E-03 0.  1.
         11    1    4    4    0    0 -0.71218837050E-02  0.48511047169E-01  0.11621090250E-01  0.50392001196E-01  0.51100000000E-03 0. -1.
</event>
<event>
 8    1  0.1138737E+005  0.1043930E+01  0.7957747E-01            NaN
         13   -1    0    0    0    0  0.00000000000E+00  0.00000000000E+00  0.74505805969E-08  0.10566000000E+00  0.10566000000E+00 0.  1.
     999900   -1    0    0    0    0 -0.00000000000E+00 -0.00000000000E+00 -0.74505805969E-08  0.93827000000E+00  0.93827000000E+00 0.  1.
     999902    2    1    2    0    0 -0.17159496845E-02  0.24762523018E-01  0.21122087476E-02  0.10190183871E+01  0.10187138386E+01 0.  0.
     999903    2    3    3    0    0 -0.99379400527E-01 -0.76693418749E-01 -0.12564811949E-01  0.12770089450E+00  0.19786314157E-01 0.  0.
         14    1    1    2    0    0  0.17159496845E-02 -0.24762523018E-01 -0.21122087476E-02  0.24911612861E-01  0.00000000000E+00 0. -1.
     999901    1    3    3    0    0  0.97663450843E-01  0.10145594177E+00  0.14677020696E-01  0.89131749264E+00  0.88000000000E+00 0.  1.
        -11    1    4    4    0    0 -0.29059378713E-01 -0.23512558228E-01  0.52550870872E-02  0.37751356888E-01  0.51100000000E-03 0. -1.
         11    1    4    4    0    0 -0.70320021814E-01 -0.53180860521E-01 -0.17819899036E-01  0.89949537611E-01  0.51100000000E-03 0.  1.
</event>
<event>
 8    1  0.1138737E+005  0.1043930E+01  0.7957747E-01            NaN
         13   -1    0    0    0    0  0.00000000000E+00  0.00000000000E+00  0.74505805969E-08  0.10566000000E+00  0.10566000000E+00 0. -1.
     999900   -1    0    0    0    0 -0.00000000000E+00 -0.00000000000E+00 -0.74505805969E-08  0.93827000000E+00  0.93827000000E+00 0.  1.
     999902    2    1    2    0    0 -0.70763389384E-02  0.13649473035E-01 -0.17954681315E-01  0.10202920376E+01  0.10200181805E+01 0.  0.
     999903    2    3    3    0    0  0.93313046256E-01  0.40919307934E-01  0.75592143606E-01  0.12924059067E+00  0.24642316033E-01 0.  0.
         14    1    1    2    0    0  0.70763389384E-02 -0.13649473035E-01  0.17954681315E-01  0.23637962434E-01  0.00000000000E+00 0. -1.
     999901    1    3    3    0    0 -0.10038938519E+00 -0.27269834899E-01 -0.93546824920E-01  0.89105144689E+00  0.88000000000E+00 0.  1.
        -11    1    4    4    0    0  0.61227755044E-01  0.35165365557E-01  0.40749841386E-01  0.81524546098E-01  0.51100000000E-03 0.  1.
         11    1    4    4    0    0  0.32085291212E-01  0.57539423778E-02  0.34842302219E-01  0.47716044576E-01  0.51100000000E-03 0. -1.
</event>
<event>
 8    1  0.1138737E+005  0.1043930E+01  0.7957747E-01            NaN
         13   -1    0    0    0    0  0.00000000000E+00  0.00000000000E+00  0.74505805969E-08  0.10566000000E+00  0.10566000000E+00 0.  1.
     999900   -1    0    0    0    0 -0.00000000000E+00 -0.00000000000E+00 -0.74505805969E-08  0.93827000000E+00  0.93827000000E+00 0.  1.
     999902    2    1    2    0    0 -0.50280167347E-02  0.64046800394E-02 -0.21945392068E-01  0.10205227124E+01  0.10202542357E+01 0.  0.
     999903    2    3    3    0    0  0.60413832085E-01  0.68964966790E-02 -0.11657364277E+00  0.13303334162E+00  0.20274689153E-01 0.  0.
         14    1    1    2    0    0  0.50280167347E-02 -0.64046800394E-02  0.21945392068E-01  0.23407287577E-01  0.00000000000E+00 0.  1.
     999901    1    3    3    0    0 -0.65441848820E-01 -0.49181663965E-03  0.94628250700E-01  0.88748937080E+00  0.88000000000E+00 0. -1.
        -11    1    4    4    0    0  0.30099290997E-01  0.38284940620E-02 -0.79174337665E-01  0.84790692596E-01  0.51100000000E-03 0. -1.
         11    1    4    4    0    0  0.30314541088E-01  0.30680026170E-02 -0.37399305104E-01  0.48242649022E-01  0.51100000000E-03 0.  1.
</event>
<event>
 8    1  0.1138737E+005  0.1043930E+01  0.7957747E-01            NaN
         13   -1    0    0    0    0  0.00000000000E+00  0.00000000000E+00  0.74505805969E-08  0.10566000000E+00  0.10566000000E+00 0.  1.
     999900   -1    0    0    0    0 -0.00000000000E+00 -0.00000000000E+00 -0.74505805969E-08  0.93827000000E+00  0.93827000000E+00 0.  1.
     999902    2    1    2    0    0 -0.18062698709E-01  0.12460069413E-01  0.61573362535E-02  0.10211390543E+01  0.10208846855E+01 0.  0.
     999903    2    3    3    0    0 -0.63710703529E-01 -0.38824335222E-01 -0.10651166785E+00  0.13130303855E+00  0.18148548039E-01 0.  0.
         14    1    1    2    0    0  0.18062698709E-01 -0.12460069413E-01 -0.61573362535E-02  0.22790945661E-01  0.00000000000E+00 0.  1.
     999901    1    3    3    0    0  0.45648004821E-01  0.51284404634E-01  0.11266900410E+00  0.88983601579E+00  0.88000000000E+00 0. -1.
        -11    1    4    4    0    0 -0.57851018612E-02 -0.82677181523E-03 -0.26042258454E-02  0.64182605458E-02  0.51100000000E-03 0. -1.
         11    1    4    4    0    0 -0.57925601668E-01 -0.37997563406E-01 -0.10390744200E+00  0.12488477801E+00  0.51100000000E-03 0.  1.
</event>
<event>
 8    1  0.1138737E+005  0.1043930E+01  0.7957747E-01            NaN
         13   -1    0    0    0    0  0.00000000000E+00  0.00000000000E+00  0.74505805969E-08  0.10566000000E+00  0.10566000000E+00 0.  1.
     999900   -1    0    0    0    0 -0.00000000000E+00 -0.00000000000E+00 -0.74505805969E-08  0.93827000000E+00  0.93827000000E+00 0.  1.
     999902    2    1    2    0    0  0.11658326572E-01 -0.78859092006E-03 -0.17622985674E-01  0.10227850697E+01  0.10225664725E+01 0.  0.
     999903    2    3    3    0    0 -0.47410576348E-01  0.11607898324E+00  0.34584994872E-01  0.13156520993E+00  0.19778510904E-01 0.  0.
         14    1    1    2    0    0 -0.11658326572E-01  0.78859092006E-03  0.17622985674E-01  0.21144930318E-01  0.00000000000E+00 0. -1.
     999901    1    3    3    0    0  0.59068902920E-01 -0.11686757416E+00 -0.52207980546E-01  0.89121985975E+00  0.88000000000E+00 0.  1.
        -11    1    4    4    0    0 -0.30668925596E-01  0.52355981951E-01  0.11562498584E-01  0.61771225808E-01  0.51100000000E-03 0.  1.
         11    1    4    4    0    0 -0.16741650752E-01  0.63723001291E-01  0.23022496288E-01  0.69793984123E-01  0.51100000000E-03 0. -1.
</event>
<event>
 8    1  0.1313248E+005  0.1043930E+01  0.7957747E-01            NaN
         13   -1    0    0    0    0  0.00000000000E+00  0.00000000000E+00  0.74505805969E-08  0.10566000000E+00  0.10566000000E+00 0. -1.
     999900   -1    0    0    0    0 -0.00000000000E+00 -0.00000000000E+00 -0.74505805969E-08  0.93827000000E+00  0.93827000000E+00 0.  1.
     999902    2    1    2    0    0 -0.12491438201E-01 -0.13597346819E-01  0.12477056931E-01  0.10216454579E+01  0.10214023892E+01 0.  0.
     999903    2    3    3    0    0 -0.60673670317E-01 -0.11394046241E+00  0.30937250688E-01  0.13444139616E+00  0.21299114456E-01 0.  0.
         14    1    1    2    0    0  0.12491438201E-01  0.13597346819E-01 -0.12477056931E-01  0.22284542143E-01  0.00000000000E+00 0.  1.
     999901    1    3    3    0    0  0.48182232116E-01  0.10034311559E+00 -0.18460193758E-01  0.88720406170E+00  0.88000000000E+00 0. -1.
        -11    1    4    4    0    0 -0.23244326052E-01 -0.49530585086E-01  0.23583399038E-01  0.59582005537E-01  0.51100000000E-03 0. -1.
         11    1    4    4    0    0 -0.37429344265E-01 -0.64409877327E-01  0.73538516504E-02  0.74859390623E-01  0.51100000000E-03 0.  1.
</event>
<event>
 8    1  0.1138737E+005  0.1043930E+01  0.7957747E-01            NaN
         13   -1    0    0    0    0  0.00000000000E+00  0.00000000000E+00  0.74505805969E-08  0.10566000000E+00  0.10566000000E+00 0.  1.
     999900   -1    0    0    0    0 -0.00000000000E+00 -0.00000000000E+00 -0.74505805969E-08  0.93827000000E+00  0.93827000000E+00 0. -1.
     999902    2    1    2    0    0 -0.83078097545E-02 -0.13685909200E-01  0.18434589468E-01  0.10195136550E+01  0.10192212394E+01 0.  0.
     999903    2    3    3    0    0  0.88703692574E-01 -0.68759782098E-01 -0.60604599802E-01  0.12895677502E+00  0.18991566469E-01 0.  0.
         14    1    1    2    0    0  0.83078097545E-02  0.13685909200E-01 -0.18434589468E-01  0.24416344984E-01  0.00000000000E+00 0. -1.
     999901    1    3    3    0    0 -0.97011502328E-01  0.55073872898E-01  0.79039189270E-01  0.89055687999E+00  0.88000000000E+00 0.  1.
        -11    1    4    4    0    0  0.15707044126E-01 -0.58175913723E-02 -0.41889432232E-02  0.17273215418E-01  0.51100000000E-03 0.  1.
         11    1    4    4    0    0  0.72996648448E-01 -0.62942190726E-01 -0.56415656579E-01  0.11168355961E+00  0.51100000000E-03 0. -1.
</event>
<event>
 8    1  0.1138737E+005  0.1043930E+01  0.7957747E-01            NaN
         13   -1    0    0    0    0  0.00000000000E+00  0.00000000000E+00  0.74505805969E-08  0.10566000000E+00  0.10566000000E+00 0. -1.
     999900   -1    0    0    0    0 -0.00000000000E+00 -0.00000000000E+00 -0.74505805969E-08  0.93827000000E+00  0.93827000000E+00 0. -1.
     999902    2    1    2    0    0 -0.17952125301E-01 -0.13067055892E-01 -0.93988070154E-02  0.10198185022E+01  0.10195334291E+01 0.  0.
     999903    2    3    3    0    0 -0.10876725350E+00  0.19618700724E-01  0.67398004253E-01  0.13121651233E+00  0.21449318844E-01 0.  0.
         14    1    1    2    0    0  0.17952125301E-01  0.13067055892E-01  0.93988070154E-02  0.24111497793E-01  0.00000000000E+00 0. -1.
     999901    1    3    3    0    0  0.90815128197E-01 -0.32685756616E-01 -0.76796811268E-01  0.88860198988E+00  0.88000000000E+00 0. -1.
        -11    1    4    4    0    0 -0.37024186355E-01  0.59854414898E-02  0.35079640287E-01  0.51356189197E-01  0.51100000000E-03 0. -1.
         11    1    4    4    0    0 -0.71743067143E-01  0.13633259234E-01  0.32318363965E-01  0.79860323132E-01  0.51100000000E-03 0.  1.
</event>
<event>
 8    1  0.1138737E+005  0.1043930E+01  0.7957747E-01            NaN
         13   -1    0    0    0    0  0.00000000000E+00  0.00000000000E+00  0.74505805969E-08  0.10566000000E+00  0.10566000000E+00 0.  1.
     999900   -1    0    0    0    0 -0.00000000000E+00 -0.00000000000E+00 -0.74505805969E-08  0.93827000000E+00  0.93827000000E+00 0. -1.
     999902    2    1    2    0    0  0.30103075292E-01  0.55879942750E-02 -0.15127234555E-01  0.10097795381E+01  0.10092018933E+01 0.  0.
     999903    2    3    3    0    0 -0.13722086644E-01  0.15006938780E-01 -0.11904100371E+00  0.12253242893E+00  0.20734794461E-01 0.  0.
         14    1    1    2    0    0 -0.30103075292E-01 -0.55879942750E-02  0.15127234555E-01  0.34150461890E-01  0.00000000000E+00 0.  1.
     999901    1    3    3    0    0  0.43825161936E-01 -0.94189445053E-02  0.10391376915E+00  0.88724710918E+00  0.88000000000E+00 0.  1.
        -11    1    4    4    0    0  0.44721723475E-02  0.86448899492E-02 -0.41792835325E-01  0.42914294277E-01  0.51100000000E-03 0. -1.
         11    1    4    4    0    0 -0.18194258992E-01  0.63620488310E-02 -0.77248168383E-01  0.79618134650E-01  0.51100000000E-03 0.  1.
</event>
<event>
 8    1  0.1138737E+005  0.1043930E+01  0.7957747E-01            NaN
         13   -1    0    0    0    0  0.00000000000E+00  0.00000000000E+00  0.74505805969E-08  0.10566000000E+00  0.10566000000E+00 0. -1.
     999900   -1    0    0    0    0 -0.00000000000E+00 -0.00000000000E+00 -0.74505805969E-08  0.93827000000E+00  0.93827000000E+00 0. -1.
     999902    2    1    2    0    0 -0.44239932661E-02 -0.39099516088E-02  0.23381115994E-01  0.10198149420E+01  0.10195297837E+01 0.  0.
     999903    2    3    3    0    0  0.74077895664E-01  0.82748625999E-01 -0.60523663466E-01  0.12812426263E+00  0.20441210905E-01 0.  0.
         14    1    1    2    0    0  0.44239932661E-02  0.39099516088E-02 -0.23381115994E-01  0.24115058016E-01  0.00000000000E+00 0.  1.
     999901    1    3    3    0    0 -0.78501888930E-01 -0.86658577608E-01  0.83904779459E-01  0.89169067936E+00  0.88000000000E+00 0.  1.
        -11    1    4    4    0    0  0.31258813809E-01  0.25034620487E-01 -0.30020012680E-01  0.50053051316E-01  0.51100000000E-03 0.  1.
         11    1    4    4    0    0  0.42819081855E-01  0.57714005512E-01 -0.30503650786E-01  0.78071211310E-01  0.51100000000E-03 0. -1.
</event>
<event>
 8    1  0.1138737E+005  0.1043930E+01  0.7957747E-01            NaN
         13   -1    0    0    0    0  0.00000000000E+00  0.00000000000E+00  0.74505805969E-08  0.10566000000E+00  0.10566000000E+00 0. -1.
     999900   -1    0    0    0    0 -0.00000000000E+00 -0.00000000000E+00 -0.74505805969E-08  0.93827000000E+00  0.93827000000E+00 0.  1.
     999902    2    1    2    0    0 -0.22885685977E-01 -0.12362217435E-02 -0.55630128027E-02  0.10203454716E+01  0.10200728658E+01 0.  0.
     999903    2    3    3    0    0  0.38986809727E-01  0.68595881089E-01  0.99943979414E-01  0.12914602498E+00  0.21552969902E-01 0.  0.
         14    1    1    2    0    0  0.22885685977E-01  0.12362217435E-02  0.55630128027E-02  0.23584528367E-01  0.00000000000E+00 0. -1.
     999901    1    3    3    0    0 -0.61872495704E-01 -0.69832102833E-01 -0.10550699222E+00  0.89119944665E+00  0.88000000000E+00 0.  1.
        -11    1    4    4    0    0  0.32767116795E-01  0.57850532265E-01  0.69098968655E-01  0.95892109251E-01  0.51100000000E-03 0. -1.
         11    1    4    4    0    0  0.62196929321E-02  0.10745348825E-01  0.30845010758E-01  0.33253915728E-01  0.51100000000E-03 0.  1.
</event>
<event>
 8    1  0.1138737E+005  0.1043930E+01  0.7957747E-01            NaN
         13   -1    0    0    0    0  0.00000000000E+00  0.00000000000E+00  0.74505805969E-08  0.10566000000E+00  0.10566000000E+00 0. -1.
     999900   -1    0    0    0    0 -0.00000000000E+00 -0.00000000000E+00 -0.74505805969E-08  0.93827000000E+00  0.93827000000E+00 0. -1.
     999902    2    1    2    0    0 -0.19241862126E-01  0.13308519700E-01 -0.53362933864E-02  0.10199332923E+01  0.10196509593E+01 0.  0.
     999903    2    3    3    0    0 -0.37892757056E-01 -0.12204714216E+00  0.35326283313E-02  0.12934490876E+00  0.19653498679E-01 0.  0.
         14    1    1    2    0    0  0.19241862126E-01 -0.13308519700E-01  0.53362933864E-02  0.23996707728E-01  0.00000000000E+00 0.  1.
     999901    1    3    3    0    0  0.18650894930E-01  0.13535566187E+00 -0.88689217177E-02  0.89058838352E+00  0.88000000000E+00 0. -1.
        -11    1    4    4    0    0 -0.29250271308E-01 -0.10341001596E+00  0.96580393947E-02  0.10790156912E+00  0.51100000000E-03 0.  1.
         11    1    4    4    0    0 -0.86424857478E-02 -0.18637126201E-01 -0.61254110634E-02  0.21443339633E-01  0.51100000000E-03 0. -1.
</event>
<event>
 8    1  0.1138737E+005  0.1043930E+01  0.7957747E-01            NaN
         13   -1    0    0    0    0  0.00000000000E+00  0.00000000000E+00  0.74505805969E-08  0.10566000000E+00  0.10566000000E+00 0.  1.
     999900   -1    0    0    0    0 -0.00000000000E+00 -0.00000000000E+00 -0.74505805969E-08  0.93827000000E+00  0.93827000000E+00 0.  1.
     999902    2    1    2    0    0 -0.15492912650E-02 -0.20470324156E-01 -0.11074119598E-01  0.10206046790E+01  0.10203381009E+01 0.  0.
     999903    2    3    3    0    0 -0.10068831269E+00  0.51310681324E-01 -0.62195778353E-01  0.13066396058E+00  0.20828668228E-01 0.  0.
         14    1    1    2    0    0  0.15492912650E-02  0.20470324156E-01  0.11074119598E-01  0.23325320992E-01  0.00000000000E+00 0. -1.
     999901    1    3    3    0    0  0.99139021425E-01 -0.71781005480E-01  0.51121658754E-01  0.88994071842E+00  0.88000000000E+00 0.  1.
        -11    1    4    4    0    0 -0.46206977907E-01  0.12056848635E-01 -0.26352608288E-01  0.54545150939E-01  0.51100000000E-03 0.  1.
         11    1    4    4    0    0 -0.54481334782E-01  0.39253832688E-01 -0.35843170065E-01  0.76118809645E-01  0.51100000000E-03 0. -1.
</event>
<event>
 8    1  0.1138737E+005  0.1043930E+01  0.7957747E-01            NaN
         13   -1    0    0    0    0  0.00000000000E+00  0.00000000000E+00  0.74505805969E-08  0.10566000000E+00  0.10566000000E+00 0. -1.
     999900   -1    0    0    0    0 -0.00000000000E+00 -0.00000000000E+00 -0.74505805969E-08  0.93827000000E+00  0.93827000000E+00 0. -1.
     999902    2    1    2    0    0  0.49400833568E-02  0.21829303694E-01  0.85539293864E-02  0.10199697698E+01  0.10196883047E+01 0.  0.
     999903    2    3    3    0    0 -0.71660188246E-01  0.48152990888E-01 -0.95660087269E-01  0.13012646933E+00  0.18114983133E-01 0.  0.
         14    1    1    2    0    0 -0.49400833568E-02 -0.21829303694E-01 -0.85539293864E-02  0.23960230201E-01  0.00000000000E+00 0.  1.
     999901    1    3    3    0    0  0.76600271603E-01 -0.26323687194E-01  0.10421401666E+00  0.88984330047E+00  0.88000000000E+00 0.  1.
        -11    1    4    4    0    0 -0.57525269574E-01  0.34984588988E-01 -0.63175317187E-01  0.92328001868E-01  0.51100000000E-03 0.  1.
         11    1    4    4    0    0 -0.14134918672E-01  0.13168401899E-01 -0.32484770082E-01  0.37798467465E-01  0.51100000000E-03 0. -1.
</event>
<event>
 8    1  0.1138737E+005  0.1043930E+01  0.7957747E-01            NaN
         13   -1    0    0    0    0  0.00000000000E+00  0.00000000000E+00  0.74505805969E-08  0.10566000000E+00  0.10566000000E+00 0.  1.
     999900   -1    0    0    0    0 -0.00000000000E+00 -0.00000000000E+00 -0.74505805969E-08  0.93827000000E+00  0.93827000000E+00 0.  1.
     999902    2    1    2    0    0 -0.18683122332E-01  0.70760453104E-02 -0.12020969330E-01  0.10206140574E+01  0.10203476961E+01 0.  0.
     999903    2    3    3    0    0 -0.25910516815E-01 -0.43850576156E-02  0.12555115292E+00  0.12982245383E+00  0.20004847077E-01 0.  0.
         14    1    1    2    0    0  0.18683122332E-01 -0.70760453104E-02  0.12020969330E-01  0.23315942634E-01  0.00000000000E+00 0. -1.
     999901    1    3    3    0    0  0.72273944827E-02  0.11461102926E-01 -0.13757212225E+00  0.89079160354E+00  0.88000000000E+00 0.  1.
        -11    1    4    4    0    0 -0.20023494755E-01  0.14494180374E-02  0.51020286511E-01  0.54830392225E-01  0.51100000000E-03 0. -1.
         11    1    4    4    0    0 -0.58870220592E-02 -0.58344756530E-02  0.74530866409E-01  0.74992061604E-01  0.51100000000E-03 0.  1.
</event>
<event>
 8    1  0.1138737E+005  0.1043930E+01  0.7957747E-01            NaN
         13   -1    0    0    0    0  0.00000000000E+00  0.00000000000E+00  0.74505805969E-08  0.10566000000E+00  0.10566000000E+00 0. -1.
     999900   -1    0    0    0    0 -0.00000000000E+00 -0.00000000000E+00 -0.74505805969E-08  0.93827000000E+00  0.93827000000E+00 0.  1.
     999902    2    1    2    0    0  0.33687806151E-02 -0.24569789236E-01 -0.10205154096E-01  0.10171126848E+01  0.10167590890E+01 0.  0.
     999903    2    3    3    0    0 -0.31622691687E-01 -0.29302055927E-01  0.11794313903E+00  0.12713022286E+00  0.19821816486E-01 0.  0.
         14    1    1    2    0    0 -0.33687806151E-02  0.24569789236E-01  0.10205154096E-01  0.26817315229E-01  0.00000000000E+00 0. -1.
     999901    1    3    3    0    0  0.34991472302E-01  0.47322666907E-02 -0.12814829313E+00  0.88998246191E+00  0.88000000000E+00 0.  1.
        -11    1    4    4    0    0 -0.22887003737E-02  0.80605052087E-03  0.24992395604E-01  0.25115111504E-01  0.51100000000E-03 0.  1.
         11    1    4    4    0    0 -0.29333991314E-01 -0.30108106448E-01  0.92950743425E-01  0.10201511135E+00  0.51100000000E-03 0. -1.
</event>
<event>
 8    1  0.1138737E+005  0.1043930E+01  0.7957747E-01            NaN
         13   -1    0    0    0    0  0.00000000000E+00  0.00000000000E+00  0.74505805969E-08  0.10566000000E+00  0.10566000000E+00 0. -1.
     999900   -1    0    0    0    0 -0.00000000000E+00 -0.00000000000E+00 -0.74505805969E-08  0.93827000000E+00  0.93827000000E+00 0.  1.
     999902    2    1    2    0    0 -0.88408244376E-02  0.87930481045E-02  0.19642516275E-01  0.10206640094E+01  0.10203988014E+01 0.  0.
     999903    2    3    3    0    0  0.46805611359E-01 -0.11485549491E+00 -0.30893309245E-01  0.12884600240E+00  0.16258714959E-01 0.  0.
         14    1    1    2    0    0  0.88408244376E-02 -0.87930481045E-02 -0.19642516275E-01  0.23265990572E-01  0.00000000000E+00 0.  1.
     999901    1    3    3    0    0 -0.55646435797E-01  0.12364854301E+00  0.50535825520E-01  0.89181800703E+00  0.88000000000E+00 0. -1.
        -11    1    4    4    0    0  0.42630966210E-01 -0.86668256340E-01 -0.23610391589E-01  0.99430868693E-01  0.51100000000E-03 0.  1.
         11    1    4    4    0    0  0.41746451492E-02 -0.28187238567E-01 -0.72829176559E-02  0.29415133703E-01  0.51100000000E-03 0. -1.
</event>
<event>
 8    1  0.1138737E+005  0.1043930E+01  0.7957747E-01            NaN
         13   -1    0    0    0    0  0.00000000000E+00  0.00000000000E+00  0.74505805969E-08  0.10566000000E+00  0.10566000000E+00 0. -1.
     999900   -1    0    0    0    0 -0.00000000000E+00 -0.00000000000E+00 -0.74505805969E-08  0.93827000000E+00  0.93827000000E+00 0. -1.
     999902    2    1    2    0    0  0.85461877769E-03 -0.24361635863E-02 -0.23222637340E-01  0.10205642954E+01  0.10202967828E+01 0.  0.
     999903    2    3    3    0    0  0.68158294428E-01  0.93873673978E-01  0.52172360970E-01  0.12955937099E+00  0.24614134056E-01 0.  0.
         14    1    1    2    0    0 -0.85461877769E-03  0.24361635863E-02  0.23222637340E-01  0.23365704596E-01  0.00000000000E+00 0. -1.
     999901    1    3    3    0    0 -0.67303675651E-01 -0.96309837565E-01 -0.75394998310E-01  0.89100492442E+00  0.88000000000E+00 0. -1.
        -11    1    4    4    0    0  0.12183788515E-01  0.86587092094E-02  0.14600375865E-01  0.20900957972E-01  0.51100000000E-03 0. -1.
         11    1    4    4    0    0  0.55974505913E-01  0.85214964769E-01  0.37571985105E-01  0.10865841301E+00  0.51100000000E-03 0.  1.
</event>
<event>
 8    1  0.1138737E+005  0.1043930E+01  0.7957747E-01            NaN
         13   -1    0    0    0    0  0.00000000000E+00  0.00000000000E+00  0.74505805969E-08  0.10566000000E+00  0.10566000000E+00 0.  1.
     999900   -1    0    0    0    0 -0.00000000000E+00 -0.00000000000E+00 -0.74505805969E-08  0.93827000000E+00  0.93827000000E+00 0. -1.
     999902    2    1    2    0    0 -0.20322173890E-01 -0.13470542483E-01 -0.12789104140E-02  0.10195152119E+01  0.10192228340E+01 0.  0.
     999903    2    3    3    0    0 -0.21557965135E-01 -0.19752396210E-01  0.12571268466E+00  0.13037638467E+00  0.18423343258E-01 0.  0.
         14    1    1    2    0    0  0.20322173890E-01  0.13470542483E-01  0.12789104140E-02  0.24414788106E-01  0.00000000000E+00 0. -1.
     999901    1    3    3    0    0  0.12357912443E-02  0.62818537273E-02 -0.12699159508E+00  0.88913882723E+00  0.88000000000E+00 0. -1.
        -11    1    4    4    0    0 -0.15026079165E-01 -0.22742119214E-01  0.95317422487E-01  0.99139594471E-01  0.51100000000E-03 0. -1.
         11    1    4    4    0    0 -0.65318859694E-02  0.29897230036E-02  0.30395262174E-01  0.31236790194E-01  0.51100000000E-03 0.  1.
</event>
<event>
 8    1  0.1138737E+005  0.1043930E+01  0.7957747E-01            NaN
         13   -1    0    0    0    0  0.00000000000E+00  0.00000000000E+00  0.74505805969E-08  0.10566000000E+00  0.10566000000E+00 0.  1.
     999900   -1    0    0    0    0 -0.00000000000E+00 -0.00000000000E+00 -0.74505805969E-08  0.93827000000E+00  0.93827000000E+00 0. -1.
     999902    2    1    2    0    0 -0.11488297186E-01  0.17314204698E-01 -0.10757942496E-01  0.10205313679E+01  0.10202630920E+01 0.  0.
     999903    2    3    3    0    0  0.32078233803E-01 -0.15573367690E-02 -0.12620267674E+00  0.13172224085E+00  0.19803907104E-01 0.  0.
         14    1    1    2    0    0  0.11488297186E-01 -0.17314204698E-01  0.10757942496E-01  0.23398632082E-01  0.00000000000E+00 0. -1.
     999901    1    3    3    0    0 -0.43566530989E-01  0.18871541467E-01  0.11544473424E+00  0.88880912707E+00  0.88000000000E+00 0.  1.
        -11    1    4    4    0    0 -0.26814843217E-02 -0.11582221620E-02 -0.98985998554E-02  0.10333210384E-01  0.51100000000E-03 0.  1.
         11    1    4    4    0    0  0.34759718125E-01 -0.39911460701E-03 -0.11630407688E+00  0.12138903046E+00  0.51100000000E-03 0. -1.
</event>
<event>
 8    1  0.1138737E+005  0.1043930E+01  0.7957747E-01            NaN
         13   -1    0    0    0    0  0.00000000000E+00  0.00000000000E+00  0.74505805969E-08  0.10566000000E+00  0.10566000000E+00 0. -1.
     999900   -1    0    0    0    0 -0.00000000000E+00 -0.00000000000E+00 -0.74505805969E-08  0.93827000000E+00  0.93827000000E+00 0. -1.
     999902    2    1    2    0    0  0.20610220594E-01 -0.28852431130E-02 -0.10188077588E-01  0.10207588381E+01  0.10204958122E+01 0.  0.
     999903    2    3    3    0    0 -0.43009097803E-01 -0.74949333943E-01  0.94071965337E-01  0.12940548085E+00  0.20713731170E-01 0.  0.
         14    1    1    2    0    0 -0.20610220594E-01  0.28852431130E-02  0.10188077588E-01  0.23171161941E-01  0.00000000000E+00 0. -1.
     999901    1    3    3    0    0  0.63619318397E-01  0.72064090830E-01 -0.10426004292E+00  0.89135335721E+00  0.88000000000E+00 0.  1.
        -11    1    4    4    0    0  0.14525768863E-02 -0.41815076214E-02  0.95548520336E-02  0.10542831877E-01  0.51100000000E-03 0.  1.
         11    1    4    4    0    0 -0.44461674689E-01 -0.70767826321E-01  0.84517113303E-01  0.11886264897E+00  0.51100000000E-03 0. -1.
</event>
<event>
 8    1  0.1138737E+005  0.1043930E+01  0.7957747E-01            NaN
         13   -1    0    0    0    0  0.00000000000E+00  0.00000000000E+00  0.74505805969E-08  0.10566000000E+00  0.10566000000E+00 0. -1.
     999900   -1    0    0    0    0 -0.00000000000E+00 -0.00000000000E+00 -0.74505805969E-08  0.93827000000E+00  0.93827000000E+00 0. -1.
     999902    2    1    2    0    0 -0.49388939658E-02  0.12759809548E-03 -0.22984446792E-01  0.10204205604E+01  0.10201497078E+01 0.  0.
     999903    2    3    3    0    0 -0.84545454467E-01 -0.79232293515E-01 -0.60899006116E-01  0.13246070171E+00  0.20284436051E-01 0.  0.
         14    1    1    2    0    0  0.49388939658E-02 -0.12759809548E-03  0.22984446792E-01  0.23509439576E-01  0.00000000000E+00 0. -1.
     999901    1    3    3    0    0  0.79606560501E-01  0.79359891610E-01  0.37914559324E-01  0.88795985871E+00  0.88000000000E+00 0.  1.
        -11    1    4    4    0    0 -0.52508638875E-01 -0.61615600257E-01 -0.44589839053E-01  0.92423775184E-01  0.51100000000E-03 0. -1.
         11    1    4    4    0    0 -0.32036815593E-01 -0.17616693258E-01 -0.16309167063E-01  0.40036926530E-01  0.51100000000E-03 0.  1.
</event>
<event>
 8    1  0.1138737E+005  0.1043930E+01  0.7957747E-01            NaN
         13   -1    0    0    0    0  0.00000000000E+00  0.00000000000E+00  0.74505805969E-08  0.10566000000E+00  0.10566000000E+00 0. -1.
     999900   -1    0    0    0    0 -0.00000000000E+00 -0.00000000000E+00 -0.74505805969E-08  0.93827000000E+00  0.93827000000E+00 0. -1.
     999902    2    1    2    0    0 -0.24189680773E-01  0.18737184101E-03  0.16443911175E-02  0.10196837676E+01  0.10193954611E+01 0.  0.
     999903    2    3    3    0    0  0.55654777849E-01  0.98166369146E-01 -0.58312555039E-01  0.12863390541E+00  0.20303625737E-01 0.  0.
         14    1    1    2    0    0  0.24189680773E-01 -0.18737184101E-03 -0.16443911175E-02  0.24246232414E-01  0.00000000000E+00 0. -1.
     999901    1    3    3    0    0 -0.79844458622E-01 -0.97978997305E-01  0.59956946157E-01  0.89104986217E+00  0.88000000000E+00 0. -1.
        -11    1    4    4    0    0  0.14334910037E-01  0.25527029381E-01 -0.55541516184E-02  0.29803164194E-01  0.51100000000E-03 0. -1.
         11    1    4    4    0    0  0.41319867811E-01  0.72639339765E-01 -0.52758403421E-01  0.98830741219E-01  0.51100000000E-03 0.  1.
</event>
<event>
 8    1  0.1138737E+005  0.1043930E+01  0.7957747E-01            NaN
         13   -1    0    0    0    0  0.00000000000E+00  0.00000000000E+00  0.74505805969E-08  0.10566000000E+00  0.10566000000E+00 0. -1.
     999900   -1    0    0    0    0 -0.00000000000E+00 -0.00000000000E+00 -0.74505805969E-08  0.93827000000E+00  0.93827000000E+00 0. -1.
     999902    2    1    2    0    0  0.13242708542E-01 -0.10668111572E-01  0.16278916332E-01  0.10203889497E+01  0.10201173597E+01 0.  0.
     999903    2    3    3    0    0  0.11941482640E+00 -0.32038942999E-01  0.46675582147E-01  0.13322876777E+00  0.16878979801E-01 0.  0.
         14    1    1    2    0    0 -0.13242708542E-01  0.10668111572E-01 -0.16278916332E-01  0.23541050338E-01  0.00000000000E+00 0. -1.
     999901    1    3    3    0    0 -0.10617211786E+00  0.21370831426E-01 -0.30396665815E-01  0.88716018189E+00  0.88000000000E+00 0. -1.
        -11    1    4    4    0    0  0.56619670168E-01 -0.10023648663E-01  0.28872631273E-01  0.64344001585E-01  0.51100000000E-03 0.  1.
         11    1    4    4    0    0  0.62795156234E-01 -0.22015294336E-01  0.17802950875E-01  0.68884766182E-01  0.51100000000E-03 0. -1.
</event>
<event>
 8    1  0.1138737E+005  0.1043930E+01  0.7957747E-01            NaN
         13   -1    0    0    0    0  0.00000000000E+00  0.00000000000E+00  0.74505805969E-08  0.10566000000E+00  0.10566000000E+00 0.  1.
     999900   -1    0    0    0    0 -0.00000000000E+00 -0.00000000000E+00 -0.74505805969E-08  0.93827000000E+00  0.93827000000E+00 0.  1.
     999902    2    1    2    0    0  0.50589865165E-02 -0.16235854885E-01 -0.20144082489E-01  0.10175675193E+01  0.10172259710E+01 0.  0.
     999903    2    3    3    0    0  0.26651064318E-01  0.11572777247E+00 -0.38658497563E-01  0.12727352274E+00  0.24512723408E-01 0.  0.
         14    1    1    2    0    0 -0.50589865165E-02  0.16235854885E-01  0.20144082489E-01  0.26362480683E-01  0.00000000000E+00 0.  1.
     999901    1    3    3    0    0 -0.21592077802E-01 -0.13196362735E+00  0.18514415074E-01  0.89029399657E+00  0.88000000000E+00 0. -1.
        -11    1    4    4    0    0 -0.40603469439E-02  0.25840740325E-01 -0.61631419295E-02  0.26878908410E-01  0.51100000000E-03 0.  1.
         11    1    4    4    0    0  0.30711411262E-01  0.89887032140E-01 -0.32495355634E-01  0.10039461433E+00  0.51100000000E-03 0. -1.
</event>
<event>
 8    1  0.1138737E+005  0.1043930E+01  0.7957747E-01            NaN
         13   -1    0    0    0    0  0.00000000000E+00  0.00000000000E+00  0.74505805969E-08  0.10566000000E+00  0.10566000000E+00 0. -1.
     999900   -1    0    0    0    0 -0.00000000000E+00 -0.00000000000E+00 -0.74505805969E-08  0.93827000000E+00  0.93827000000E+00 0. -1.
     999902    2    1    2    0    0  0.12448638472E-01 -0.19212432424E-01 -0.54571165945E-02  0.10203956362E+01  0.10201242023E+01 0.  0.
     999903    2    3    3    0    0 -0.22047035746E-01  0.38978162808E-01 -0.12069066834E+00  0.13030863572E+00  0.20217174847E-01 0.  0.
         14    1    1    2    0    0 -0.12448638472E-01  0.19212432424E-01  0.54571165945E-02  0.23534363832E-01  0.00000000000E+00 0.  1.
     999901    1    3    3    0    0  0.34495674218E-01 -0.58190595232E-01  0.11523355174E+00  0.89008700044E+00  0.88000000000E+00 0.  1.
        -11    1    4    4    0    0 -0.23509964779E-01  0.24982066999E-01 -0.95101020770E-01  0.10110038273E+00  0.51100000000E-03 0.  1.
         11    1    4    4    0    0  0.14629290332E-02  0.13996095809E-01 -0.25589647569E-01  0.29208252994E-01  0.51100000000E-03 0. -1.
</event>
<event>
 8    1  0.1138737E+005  0.1043930E+01  0.7957747E-01            NaN
         13   -1    0    0    0    0  0.00000000000E+00  0.00000000000E+00  0.74505805969E-08  0.10566000000E+00  0.10566000000E+00 0. -1.
     999900   -1    0    0    0    0 -0.00000000000E+00 -0.00000000000E+00 -0.74505805969E-08  0.93827000000E+00  0.93827000000E+00 0.  1.
     999902    2    1    2    0    0 -0.20068144601E-01  0.11930740109E-01  0.10927185533E-01  0.10181525608E+01  0.10178261938E+01 0.  0.
     999903    2    3    3    0    0  0.32031269587E-01 -0.76184103956E-01  0.95857224555E-01  0.12815723148E+00  0.20140718835E-01 0.  0.
         14    1    1    2    0    0  0.20068144601E-01 -0.11930740109E-01 -0.10927185533E-01  0.25777439185E-01  0.00000000000E+00 0.  1.
     999901    1    3    3    0    0 -0.52099414189E-01  0.88114844065E-01 -0.84930039022E-01  0.88999532933E+00  0.88000000000E+00 0.  1.
        -11    1    4    4    0    0  0.40452119275E-02 -0.31172311539E-01  0.43333957065E-01  0.53536620197E-01  0.51100000000E-03 0.  1.
         11    1    4    4    0    0  0.27986057660E-01 -0.45011792416E-01  0.52523267490E-01  0.74620611286E-01  0.51100000000E-03 0. -1.
</event>
<event>
 8    1  0.1138737E+005  0.1043930E+01  0.7957747E-01            NaN
         13   -1    0    0    0    0  0.00000000000E+00  0.00000000000E+00  0.74505805969E-08  0.10566000000E+00  0.10566000000E+00 0.  1.
     999900   -1    0    0    0    0 -0.00000000000E+00 -0.00000000000E+00 -0.74505805969E-08  0.93827000000E+00  0.93827000000E+00 0. -1.
     999902    2    1    2    0    0 -0.15283113988E-02 -0.77772656018E-02  0.22447449552E-01  0.10201243371E+01  0.10198465343E+01 0.  0.
     999903    2    3    3    0    0 -0.55471637790E-01  0.11434481719E+00 -0.12982372274E-01  0.12934997853E+00  0.20274001510E-01 0.  0.
         14    1    1    2    0    0  0.15283113988E-02  0.77772656018E-02 -0.22447449552E-01  0.23805662927E-01  0.00000000000E+00 0. -1.
     999901    1    3    3    0    0  0.53943326392E-01 -0.12212208279E+00  0.35429821826E-01  0.89077435855E+00  0.88000000000E+00 0.  1.
        -11    1    4    4    0    0 -0.27143307307E-01  0.77724898370E-01 -0.10299043145E-01  0.82971382831E-01  0.51100000000E-03 0. -1.
         11    1    4    4    0    0 -0.28328330484E-01  0.36619918822E-01 -0.26833291294E-02  0.46378595696E-01  0.51100000000E-03 0.  1.
</event>
<event>
 8    1  0.1138737E+005  0.1043930E+01  0.7957747E-01            NaN
         13   -1    0    0    0    0  0.00000000000E+00  0.00000000000E+00  0.74505805969E-08  0.10566000000E+00  0.10566000000E+00 0.  1.
     999900   -1    0    0    0    0 -0.00000000000E+00 -0.00000000000E+00 -0.74505805969E-08  0.93827000000E+00  0.93827000000E+00 0. -1.
     999902    2    1    2    0    0  0.75896774499E-02 -0.19253222756E-01 -0.58852074865E-02  0.10224142974E+01  0.10221878840E+01 0.  0.
     999903    2    3    3    0    0  0.57783209644E-01  0.75119139212E-01 -0.89884586930E-01  0.13197540051E+00  0.18880756890E-01 0.  0.
         14    1    1    2    0    0 -0.75896774499E-02  0.19253222756E-01  0.58852074865E-02  0.21515702578E-01  0.00000000000E+00 0.  1.
     999901    1    3    3    0    0 -0.50193532194E-01 -0.94372361968E-01  0.83999379444E-01  0.89043889691E+00  0.88000000000E+00 0.  1.
        -11    1    4    4    0    0  0.26458469713E-01  0.25273885502E-01 -0.24752414560E-01  0.44178762494E-01  0.51100000000E-03 0.  1.
         11    1    4    4    0    0  0.31324739931E-01  0.49845253710E-01 -0.65132172371E-01  0.87796638021E-01  0.51100000000E-03 0. -1.
</event>
<event>
 8    1  0.1138737E+005  0.1043930E+01  0.7957747E-01            NaN
         13   -1    0    0    0    0  0.00000000000E+00  0.00000000000E+00  0.74505805969E-08  0.10566000000E+00  0.10566000000E+00 0.  1.
     999900   -1    0    0    0    0 -0.00000000000E+00 -0.00000000000E+00 -0.74505805969E-08  0.93827000000E+00  0.93827000000E+00 0.  1.
     999902    2    1    2    0    0  0.15719486159E-01  0.38266275489E-02 -0.17636134632E-01  0.10199972073E+01  0.10197163940E+01 0.  0.
     999903    2    3    3    0    0  0.12013619123E-01 -0.60450624458E-02  0.12674178189E+00  0.12816977637E+00  0.13533014225E-01 0.  0.
         14    1    1    2    0    0 -0.15719486159E-01 -0.38266275489E-02  0.17636134632E-01  0.23932792739E-01  0.00000000000E+00 0.  1.
     999901    1    3    3    0    0  0.37058670362E-02  0.98716899947E-02 -0.14437791652E+00  0.89182743089E+00  0.88000000000E+00 0.  1.
        -11    1    4    4    0    0  0.42151867867E-02 -0.44353712461E-02  0.15950204935E-01  0.17091239750E-01  0.51100000000E-03 0. -1.
         11    1    4    4    0    0  0.77984323364E-02 -0.16096911997E-02  0.11079157695E+00  0.11107853662E+00  0.51100000000E-03 0.  1.
</event>
<event>
 8    1  0.1138737E+005  0.1043930E+01  0.7957747E-01            NaN
         13   -1    0    0    0    0  0.00000000000E+00  0.00000000000E+00  0.74505805969E-08  0.10566000000E+00  0.10566000000E+00 0. -1.
     999900   -1    0    0    0    0 -0.00000000000E+00 -0.00000000000E+00 -0.74505805969E-08  0.93827000000E+00  0.93827000000E+00 0.  1.
     999902    2    1    2    0    0  0.20659838724E-01  0.28714141515E-02 -0.93869617820E-02  0.10210566748E+01  0.10208004428E+01 0.  0.
     999903    2    3    3    0    0  0.66552059165E-01  0.23448704673E-01  0.10915386393E+00  0.13168529670E+00  0.21152612732E-01 0.  0.
         14    1    1    2    0    0 -0.20659838724E-01 -0.28714141515E-02  0.93869617820E-02  0.22873325225E-01  0.00000000000E+00 0. -1.
     999901    1    3    3    0    0 -0.45892220441E-01 -0.20577290522E-01 -0.11854082571E+00  0.88937137808E+00  0.88000000000E+00 0.  1.
        -11    1    4    4    0    0  0.52429014777E-01  0.19703257404E-01  0.68513153120E-01  0.88494820267E-01  0.51100000000E-03 0.  1.
         11    1    4    4    0    0  0.14123044389E-01  0.37454472688E-02  0.40640710811E-01  0.43190476430E-01  0.51100000000E-03 0. -1.
</event>
<event>
 8    1  0.1138737E+005  0.1043930E+01  0.7957747E-01            NaN
         13   -1    0    0    0    0  0.00000000000E+00  0.00000000000E+00  0.74505805969E-08  0.10566000000E+00  0.10566000000E+00 0.  1.
     999900   -1    0    0    0    0 -0.00000000000E+00 -0.00000000000E+00 -0.74505805969E-08  0.93827000000E+00  0.93827000000E+00 0. -1.
     999902    2    1    2    0    0  0.62798627729E-03  0.21288379263E-01  0.21676957254E-01  0.10135411874E+01  0.10130855139E+01 0.  0.
     999903    2    3    3    0    0  0.22654522552E-01 -0.61605757102E-02  0.12319420711E+00  0.12700615395E+00  0.20064156840E-01 0.  0.
         14    1    1    2    0    0 -0.62798627729E-03 -0.21288379263E-01 -0.21676957254E-01  0.30388812649E-01  0.00000000000E+00 0. -1.
     999901    1    3    3    0    0 -0.22026536275E-01  0.27448954974E-01 -0.10151724986E+00  0.88653503340E+00  0.88000000000E+00 0. -1.
        -11    1    4    4    0    0  0.19537174295E-01  0.41299937316E-02  0.85707309071E-01  0.88004329308E-01  0.51100000000E-03 0. -1.
         11    1    4    4    0    0  0.31173482566E-02 -0.10290569442E-01  0.37486898042E-01  0.39001824642E-01  0.51100000000E-03 0.  1.
</event>
<event>
 8    1  0.1138737E+005  0.1043930E+01  0.7957747E-01            NaN
         13   -1    0    0    0    0  0.00000000000E+00  0.00000000000E+00  0.74505805969E-08  0.10566000000E+00  0.10566000000E+00 0. -1.
     999900   -1    0    0    0    0 -0.00000000000E+00 -0.00000000000E+00 -0.74505805969E-08  0.93827000000E+00  0.93827000000E+00 0. -1.
     999902    2    1    2    0    0  0.64184731359E-02 -0.88561652415E-02 -0.21720866220E-01  0.10196107794E+01  0.10193207135E+01 0.  0.
     999903    2    3    3    0    0 -0.59741918524E-01 -0.72578927394E-01 -0.90680008365E-01  0.13214632880E+00  0.20074629920E-01 0.  0.
         14    1    1    2    0    0 -0.64184731359E-02  0.88561652415E-02  0.21720866220E-01  0.24319220578E-01  0.00000000000E+00 0. -1.
     999901    1    3    3    0    0  0.66160391660E-01  0.63722762152E-01  0.68959142145E-01  0.88746445063E+00  0.88000000000E+00 0.  1.
        -11    1    4    4    0    0 -0.44477382549E-01 -0.55610945966E-01 -0.55845327502E-01  0.90497384462E-01  0.51100000000E-03 0.  1.
         11    1    4    4    0    0 -0.15264535974E-01 -0.16967981428E-01 -0.34834680862E-01  0.41648944333E-01  0.51100000000E-03 0. -1.
</event>
<event>
 8    1  0.1138737E+005  0.1043930E+01  0.7957747E-01            NaN
         13   -1    0    0    0    0  0.00000000000E+00  0.00000000000E+00  0.74505805969E-08  0.10566000000E+00  0.10566000000E+00 0.  1.
     999900   -1    0    0    0    0 -0.00000000000E+00 -0.00000000000E+00 -0.74505805969E-08  0.93827000000E+00  0.93827000000E+00 0. -1.
     999902    2    1    2    0    0 -0.20059819034E-01  0.89990411285E-02  0.76399975955E-02  0.10206545055E+01  0.10203890782E+01 0.  0.
     999903    2    3    3    0    0 -0.71769803718E-01 -0.53649427243E-01 -0.93710748851E-01  0.13112051126E+00  0.19537611257E-01 0.  0.
         14    1    1    2    0    0  0.20059819034E-01 -0.89990411285E-02 -0.76399975955E-02  0.23275494499E-01  0.00000000000E+00 0. -1.
     999901    1    3    3    0    0  0.51709984684E-01  0.62648468372E-01  0.10135074645E+00  0.88953399424E+00  0.88000000000E+00 0.  1.
        -11    1    4    4    0    0 -0.78024821982E-02 -0.10740396705E-01 -0.22984377915E-01  0.26547647711E-01  0.51100000000E-03 0.  1.
         11    1    4    4    0    0 -0.63967321520E-01 -0.42909030538E-01 -0.70726370937E-01  0.10457286355E+00  0.51100000000E-03 0. -1.
</event>
<event>
 8    1  0.1138737E+005  0.1043930E+01  0.7957747E-01            NaN
         13   -1    0    0    0    0  0.00000000000E+00  0.00000000000E+00  0.74505805969E-08  0.10566000000E+00  0.10566000000E+00 0. -1.
     999900   -1    0    0    0    0 -0.00000000000E+00 -0.00000000000E+00 -0.74505805969E-08  0.93827000000E+00  0.93827000000E+00 0. -1.
     999902    2    1    2    0    0 -0.26338874340E-03  0.22382234529E-01 -0.29154037687E-02  0.10213571540E+01  0.10211076842E+01 0.  0.
     999903    2    3    3    0    0 -0.78546464789E-01 -0.29624954441E-02 -0.10374847497E+00  0.13178540112E+00  0.20623345497E-01 0.  0.
         14    1    1    2    0    0  0.26338874340E-03 -0.22382234529E-01  0.29154037687E-02  0.22572845972E-01  0.00000000000E+00 0. -1.
     999901    1    3    3    0    0  0.78283076046E-01  0.25344729973E-01  0.10083307120E+00  0.88957175291E+00  0.88000000000E+00 0.  1.
        -11    1    4    4    0    0 -0.31448922290E-01  0.89009335675E-02 -0.42305625532E-01  0.53462962920E-01  0.51100000000E-03 0.  1.
         11    1    4    4    0    0 -0.47097542499E-01 -0.11863429012E-01 -0.61442849434E-01  0.78322438196E-01  0.51100000000E-03 0. -1.
</event>
<event>
 8    1  0.1138737E+005  0.1043930E+01  0.7957747E-01            NaN
         13   -1    0    0    0    0  0.00000000000E+00  0.00000000000E+00  0.74505805969E-08  0.10566000000E+00  0.10566000000E+00 0. -1.
     999900   -1    0    0    0    0 -0.00000000000E+00 -0.00000000000E+00 -0.74505805969E-08  0.93827000000E+00  0.93827000000E+00 0.  1.
     999902    2    1    2    0    0  0.79630327259E-02  0.51460311788E-02  0.22535656445E-01  0.10194811281E+01  0.10191879234E+01 0.  0.
     999903    2    3    3    0    0  0.35887403268E-01  0.23535341679E-03 -0.12059632322E+00  0.12746619051E+00  0.20400868727E-01 0.  0.
         14    1    1    2    0    0 -0.79630327259E-02 -0.51460311788E-02 -0.22535656445E-01  0.24448871927E-01  0.00000000000E+00 0.  1.
     999901    1    3    3    0    0 -0.27924370542E-01  0.49106777620E-02  0.14313197967E+00  0.89201493756E+00  0.88000000000E+00 0. -1.
        -11    1    4    4    0    0  0.19024579674E-01  0.73159295033E-02 -0.40947150404E-01  0.45742624580E-01  0.51100000000E-03 0.  1.
         11    1    4    4    0    0  0.16862823594E-01 -0.70805760865E-02 -0.79649172818E-01  0.81723565933E-01  0.51100000000E-03 0. -1.
</event>
<event>
 8    1  0.1138737E+005  0.1043930E+01  0.7957747E-01            NaN
         13   -1    0    0    0    0  0.00000000000E+00  0.00000000000E+00  0.74505805969E-08  0.10566000000E+00  0.10566000000E+00 0.  1.
     999900   -1    0    0    0    0 -0.00000000000E+00 -0.00000000000E+00 -0.74505805969E-08  0.93827000000E+00  0.93827000000E+00 0. -1.
     999902    2    1    2    0    0 -0.21121621429E-01  0.80793667383E-02 -0.79193145202E-02  0.10199693113E+01  0.10196878353E+01 0.  0.
     999903    2    3    3    0    0 -0.53095030231E-01 -0.39287325438E-01 -0.11251601078E+00  0.13193419308E+00  0.19601082772E-01 0.  0.
         14    1    1    2    0    0  0.21121621429E-01 -0.80793667383E-02  0.79193145202E-02  0.23960688662E-01  0.00000000000E+00 0. -1.
     999901    1    3    3    0    0  0.31973408802E-01  0.47366692176E-01  0.10459669626E+00  0.88803511826E+00  0.88000000000E+00 0.  1.
        -11    1    4    4    0    0 -0.48546572361E-01 -0.32167009561E-01 -0.84189357933E-01  0.10236989451E+00  0.51100000000E-03 0. -1.
         11    1    4    4    0    0 -0.45484578695E-02 -0.71203158768E-02 -0.28326652846E-01  0.29564298565E-01  0.51100000000E-03 0.  1.
</event>
<event>
 8    1  0.1138737E+005  0.1043930E+01  0.7957747E-01            NaN
         13   -1    0    0    0    0  0.00000000000E+00  0.00000000000E+00  0.74505805969E-08  0.10566000000E+00  0.10566000000E+00 0.  1.
     999900   -1    0    0    0    0 -0.00000000000E+00 -0.00000000000E+00 -0.74505805969E-08  0.93827000000E+00  0.93827000000E+00 0. -1.
     999902    2    1    2    0    0 -0.10761275226E-01  0.13955023456E-01  0.17246949872E-01  0.10192722425E+01  0.10189739444E+01 0.  0.
     999903    2    3    3    0    0 -0.14198066490E-01 -0.85157232879E-01 -0.91212385388E-01  0.12708477438E+00  0.19429390842E-01 0.  0.
         14    1    1    2    0    0  0.10761275226E-01 -0.13955023456E-01 -0.17246949872E-01  0.24657757482E-01  0.00000000000E+00 0. -1.
     999901    1    3    3    0    0  0.34367912648E-02  0.99112256335E-01  0.10845933526E+00  0.89218746813E+00  0.88000000000E+00 0.  1.
        -11    1    4    4    0    0 -0.66052566417E-02 -0.47757866305E-01 -0.64369258997E-01  0.80424535026E-01  0.51100000000E-03 0.  1.
         11    1    4    4    0    0 -0.75928098487E-02 -0.37399366574E-01 -0.26843126391E-01  0.46660239358E-01  0.51100000000E-03 0. -1.
</event>
<event>
 8    1  0.1138737E+005  0.1043930E+01  0.7957747E-01            NaN
         13   -1    0    0    0    0  0.00000000000E+00  0.00000000000E+00  0.74505805969E-08  0.10566000000E+00  0.10566000000E+00 0. -1.
     999900   -1    0    0    0    0 -0.00000000000E+00 -0.00000000000E+00 -0.74505805969E-08  0.93827000000E+00  0.93827000000E+00 0. -1.
     999902    2    1    2    0    0 -0.14245498206E-01 -0.16485836136E-01 -0.10293310357E-01  0.10198329203E+01  0.10195481921E+01 0.  0.
     999903    2    3    3    0    0 -0.80700440937E-01  0.78619251986E-01 -0.63795024400E-01  0.13060647523E+00  0.17166778465E-01 0.  0.
         14    1    1    2    0    0  0.14245498206E-01  0.16485836136E-01  0.10293310357E-01  0.24097079706E-01  0.00000000000E+00 0. -1.
     999901    1    3    3    0    0  0.66454942731E-01 -0.95105088123E-01  0.53501714042E-01  0.88922644507E+00  0.88000000000E+00 0.  1.
        -11    1    4    4    0    0 -0.26311216843E-01  0.34676026493E-01 -0.18539462930E-01  0.47314688542E-01  0.51100000000E-03 0. -1.
         11    1    4    4    0    0 -0.54389224094E-01  0.43943225493E-01 -0.45255561470E-01  0.83291786685E-01  0.51100000000E-03 0.  1.
</event>
<event>
 8    1  0.1138737E+005  0.1043930E+01  0.7957747E-01            NaN
         13   -1    0    0    0    0  0.00000000000E+00  0.00000000000E+00  0.74505805969E-08  0.10566000000E+00  0.10566000000E+00 0. -1.
     999900   -1    0    0    0    0 -0.00000000000E+00 -0.00000000000E+00 -0.74505805969E-08  0.93827000000E+00  0.93827000000E+00 0. -1.
     999902    2    1    2    0    0 -0.14815232480E-01  0.57352747265E-03  0.18425289436E-01  0.10202802360E+01  0.10200061022E+01 0.  0.
     999903    2    3    3    0    0 -0.11164875073E+00 -0.67213573186E-01 -0.74474083726E-02  0.13200031515E+00  0.19634442905E-01 0.  0.
         14    1    1    2    0    0  0.14815232480E-01 -0.57352747265E-03 -0.18425289436E-01  0.23649764016E-01  0.00000000000E+00 0.  1.
     999901    1    3    3    0    0  0.96833518246E-01  0.67787100658E-01  0.25872697809E-01  0.88827992084E+00  0.88000000000E+00 0. -1.
        -11    1    4    4    0    0 -0.35664586871E-01 -0.11770507547E-01  0.87310379739E-03  0.37570347827E-01  0.51100000000E-03 0. -1.
         11    1    4    4    0    0 -0.75984163855E-01 -0.55443065639E-01 -0.83205121700E-02  0.94429967320E-01  0.51100000000E-03 0.  1.
</event>
<event>
 8    1  0.1138737E+005  0.1043930E+01  0.7957747E-01            NaN
         13   -1    0    0    0    0  0.00000000000E+00  0.00000000000E+00  0.74505805969E-08  0.10566000000E+00  0.10566000000E+00 0. -1.
     999900   -1    0    0    0    0 -0.00000000000E+00 -0.00000000000E+00 -0.74505805969E-08  0.93827000000E+00  0.93827000000E+00 0.  1.
     999902    2    1    2    0    0  0.19385250986E-01 -0.12872286713E-01 -0.34889282561E-02  0.10204000969E+01  0.10201287670E+01 0.  0.
     999903    2    3    3    0    0  0.84712429415E-01 -0.99894930464E-01  0.16847184821E-01  0.13346484655E+00  0.19335066523E-01 0.  0.
         14    1    1    2    0    0 -0.19385250986E-01  0.12872286713E-01  0.34889282561E-02  0.23529903132E-01  0.00000000000E+00 0.  1.
     999901    1    3    3    0    0 -0.65327178429E-01  0.87022643752E-01 -0.20336113078E-01  0.88693525032E+00  0.88000000000E+00 0. -1.
        -11    1    4    4    0    0  0.53477435039E-01 -0.48793690227E-01  0.11921324981E-01  0.73369199087E-01  0.51100000000E-03 0. -1.
         11    1    4    4    0    0  0.31234994376E-01 -0.51101240238E-01  0.49258598406E-02  0.60095647460E-01  0.51100000000E-03 0.  1.
</event>
<event>
 8    1  0.1138737E+005  0.1043930E+01  0.7957747E-01            NaN
         13   -1    0    0    0    0  0.00000000000E+00  0.00000000000E+00  0.74505805969E-08  0.10566000000E+00  0.10566000000E+00 0. -1.
     999900   -1    0    0    0    0 -0.00000000000E+00 -0.00000000000E+00 -0.74505805969E-08  0.93827000000E+00  0.93827000000E+00 0.  1.
     999902    2    1    2    0    0 -0.19082892323E-02 -0.23283349568E-01  0.54368649836E-02  0.10199442660E+01  0.10196621942E+01 0.  0.
     999903    2    3    3    0    0 -0.25467045481E-01 -0.11240978516E+00 -0.61404902809E-01  0.13260760021E+00  0.23014850439E-01 0.  0.
         14    1    1    2    0    0  0.19082892323E-02  0.23283349568E-01 -0.54368649836E-02  0.23985734005E-01  0.00000000000E+00 0. -1.
     999901    1    3    3    0    0  0.23558756248E-01  0.89126435591E-01  0.66841767793E-01  0.88733666578E+00  0.88000000000E+00 0.  1.
        -11    1    4    4    0    0 -0.42669660005E-02 -0.59840823282E-01 -0.39535214076E-01  0.71850020202E-01  0.51100000000E-03 0. -1.
         11    1    4    4    0    0 -0.21200079480E-01 -0.52568961876E-01 -0.21869688733E-01  0.60757580013E-01  0.51100000000E-03 0.  1.
</event>
<event>
 8    1  0.1138737E+005  0.1043930E+01  0.7957747E-01            NaN
         13   -1    0    0    0    0  0.00000000000E+00  0.00000000000E+00  0.74505805969E-08  0.10566000000E+00  0.10566000000E+00 0. -1.
     999900   -1    0    0    0    0 -0.00000000000E+00 -0.00000000000E+00 -0.74505805969E-08  0.93827000000E+00  0.93827000000E+00 0.  1.
     999902    2    1    2    0    0 -0.17804471752E-01  0.23532285595E-02  0.16493258577E-01  0.10195463071E+01  0.10192546826E+01 0.  0.
     999903    2    3    3    0    0 -0.12851907091E+00 -0.23323071140E-01  0.72045554537E-02  0.13218883980E+00  0.18996486870E-01 0.  0.
         14    1    1    2    0    0  0.17804471752E-01 -0.23532285595E-02 -0.16493258577E-01  0.24383692860E-01  0.00000000000E+00 0.  1.
     999901    1    3    3    0    0  0.11071459916E+00  0.25676299699E-01  0.92887031230E-02  0.88735746734E+00  0.88000000000E+00 0. -1.
        -11    1    4    4    0    0 -0.81391595117E-01 -0.14667662354E-01 -0.46194416361E-02  0.82833160248E-01  0.51100000000E-03 0.  1.
         11    1    4    4    0    0 -0.47127475796E-01 -0.86554087852E-02  0.11823997090E-01  0.49355679555E-01  0.51100000000E-03 0. -1.
</event>
<event>
 8    1  0.1138737E+005  0.1043930E+01  0.7957747E-01            NaN
         13   -1    0    0    0    0  0.00000000000E+00  0.00000000000E+00  0.74505805969E-08  0.10566000000E+00  0.10566000000E+00 0.  1.
     999900   -1    0    0    0    0 -0.00000000000E+00 -0.00000000000E+00 -0.74505805969E-08  0.93827000000E+00  0.93827000000E+00 0. -1.
     999902    2    1    2    0    0 -0.19843967912E-01 -0.68284105459E-02 -0.10859201812E-01  0.10203009391E+01  0.10200272908E+01 0.  0.
     999903    2    3    3    0    0  0.11888906001E+00 -0.17918980707E-01 -0.41939214109E-01  0.12882137070E+00  0.19502548792E-01 0.  0.
         14    1    1    2    0    0  0.19843967912E-01  0.68284105459E-02  0.10859201812E-01  0.23629060858E-01  0.00000000000E+00 0.  1.
     999901    1    3    3    0    0 -0.13873302792E+00  0.11090570161E-01  0.31080012297E-01  0.89147956844E+00  0.88000000000E+00 0.  1.
        -11    1    4    4    0    0  0.16322165951E-01 -0.67131492711E-03 -0.12939332803E-01  0.20845892148E-01  0.51100000000E-03 0.  1.
         11    1    4    4    0    0  0.10256689406E+00 -0.17247665780E-01 -0.28999881305E-01  0.10797547855E+00  0.51100000000E-03 0. -1.
</event>
<event>
 8    1  0.1138737E+005  0.1043930E+01  0.7957747E-01            NaN
         13   -1    0    0    0    0  0.00000000000E+00  0.00000000000E+00  0.74505805969E-08  0.10566000000E+00  0.10566000000E+00 0. -1.
     999900   -1    0    0    0    0 -0.00000000000E+00 -0.00000000000E+00 -0.74505805969E-08  0.93827000000E+00  0.93827000000E+00 0. -1.
     999902    2    1    2    0    0 -0.12893788164E-01 -0.18350534876E-01  0.72460418713E-02  0.10203610156E+01  0.10200887731E+01 0.  0.
     999903    2    3    3    0    0 -0.44510851206E-01  0.97963911479E-01  0.70105668531E-01  0.12992290894E+00  0.19672663262E-01 0.  0.
         14    1    1    2    0    0  0.12893788164E-01  0.18350534876E-01 -0.72460418713E-02  0.23568984413E-01  0.00000000000E+00 0.  1.
     999901    1    3    3    0    0  0.31617063042E-01 -0.11631444635E+00 -0.62859626660E-01  0.89043810665E+00  0.88000000000E+00 0.  1.
        -11    1    4    4    0    0 -0.19857359869E-01  0.58323087802E-01  0.48842281555E-01  0.78623958818E-01  0.51100000000E-03 0.  1.
         11    1    4    4    0    0 -0.24653491337E-01  0.39640823676E-01  0.21263386977E-01  0.51298950122E-01  0.51100000000E-03 0. -1.
</event>
<event>
 8    1  0.1138737E+005  0.1043930E+01  0.7957747E-01            NaN
         13   -1    0    0    0    0  0.00000000000E+00  0.00000000000E+00  0.74505805969E-08  0.10566000000E+00  0.10566000000E+00 0.  1.
     999900   -1    0    0    0    0 -0.00000000000E+00 -0.00000000000E+00 -0.74505805969E-08  0.93827000000E+00  0.93827000000E+00 0. -1.
     999902    2    1    2    0    0 -0.21513709695E-01  0.27251464654E-02  0.85973213612E-02  0.10206023327E+01  0.10203357003E+01 0.  0.
     999903    2    3    3    0    0 -0.27500050668E-01  0.12603641384E+00 -0.15084375430E-01  0.13166908001E+00  0.21628172566E-01 0.  0.
         14    1    1    2    0    0  0.21513709695E-01 -0.27251464654E-02 -0.85973213612E-02  0.23327667322E-01  0.00000000000E+00 0. -1.
     999901    1    3    3    0    0  0.59863409730E-02 -0.12331126737E+00  0.23681696791E-01  0.88893325267E+00  0.88000000000E+00 0.  1.
        -11    1    4    4    0    0 -0.69112871991E-02  0.35827884006E-01  0.54268861681E-02  0.36893297190E-01  0.51100000000E-03 0. -1.
         11    1    4    4    0    0 -0.20588763469E-01  0.90208529831E-01 -0.20511261598E-01  0.94775782818E-01  0.51100000000E-03 0.  1.
</event>
<event>
 8    1  0.1138737E+005  0.1043930E+01  0.7957747E-01            NaN
         13   -1    0    0    0    0  0.00000000000E+00  0.00000000000E+00  0.74505805969E-08  0.10566000000E+00  0.10566000000E+00 0. -1.
     999900   -1    0    0    0    0 -0.00000000000E+00 -0.00000000000E+00 -0.74505805969E-08  0.93827000000E+00  0.93827000000E+00 0. -1.
     999902    2    1    2    0    0 -0.73667655110E-02  0.20458594990E-01  0.64217085034E-02  0.10212570716E+01  0.10210053597E+01 0.  0.
     999903    2    3    3    0    0  0.13312581258E-01 -0.11570153414E+00  0.52596811346E-01  0.12934936544E+00  0.20019089761E-01 0.  0.
         14    1    1    2    0    0  0.73667655110E-02 -0.20458594990E-01 -0.64217085034E-02  0.22672928421E-01  0.00000000000E+00 0. -1.
     999901    1    3    3    0    0 -0.20679346769E-01  0.13616012913E+00 -0.46175102842E-01  0.89190770614E+00  0.88000000000E+00 0. -1.
        -11    1    4    4    0    0  0.16291704539E-01 -0.84294208563E-01  0.44829533741E-01  0.96854950573E-01  0.51100000000E-03 0.  1.
         11    1    4    4    0    0 -0.29791232807E-02 -0.31407325574E-01  0.77672776044E-02  0.32494414868E-01  0.51100000000E-03 0. -1.
</event>
<event>
 8    1  0.1138737E+005  0.1043930E+01  0.7957747E-01            NaN
         13   -1    0    0    0    0  0.00000000000E+00  0.00000000000E+00  0.74505805969E-08  0.10566000000E+00  0.10566000000E+00 0. -1.
     999900   -1    0    0    0    0 -0.00000000000E+00 -0.00000000000E+00 -0.74505805969E-08  0.93827000000E+00  0.93827000000E+00 0. -1.
     999902    2    1    2    0    0 -0.67259477489E-02  0.17316653182E-01 -0.15249366804E-01  0.10198956904E+01  0.10196124613E+01 0.  0.
     999903    2    3    3    0    0  0.95650429035E-01 -0.52999921142E-01  0.63785121042E-01  0.12766713592E+00  0.16503324238E-01 0.  0.
         14    1    1    2    0    0  0.67259477489E-02 -0.17316653182E-01  0.15249366804E-01  0.24034309611E-01  0.00000000000E+00 0. -1.
     999901    1    3    3    0    0 -0.10237637678E+00  0.70316574324E-01 -0.79034487846E-01  0.89222855447E+00  0.88000000000E+00 0. -1.
        -11    1    4    4    0    0  0.49173520426E-01 -0.26051132773E-01  0.41870145951E-01  0.69642421503E-01  0.51100000000E-03 0.  1.
         11    1    4    4    0    0  0.46476908609E-01 -0.26948788369E-01  0.21914975091E-01  0.58024714412E-01  0.51100000000E-03 0. -1.
</event>
<event>
 8    1  0.1138737E+005  0.1043930E+01  0.7957747E-01            NaN
         13   -1    0    0    0    0  0.00000000000E+00  0.00000000000E+00  0.74505805969E-08  0.10566000000E+00  0.10566000000E+00 0.  1.
     999900   -1    0    0    0    0 -0.00000000000E+00 -0.00000000000E+00 -0.74505805969E-08  0.93827000000E+00  0.93827000000E+00 0. -1.
     999902    2    1    2    0    0  0.22515815737E-01 -0.37169833045E-02 -0.63470724385E-02  0.10202432262E+01  0.10199682237E+01 0.  0.
     999903    2    3    3    0    0  0.27548181716E-02 -0.55467366526E-01  0.11594111510E+00  0.13006178405E+00  0.19735950088E-01 0.  0.
         14    1    1    2    0    0 -0.22515815737E-01  0.37169833045E-02  0.63470724385E-02  0.23686773772E-01  0.00000000000E+00 0.  1.
     999901    1    3    3    0    0  0.19760997566E-01  0.51750383222E-01 -0.12228818754E+00  0.89018144218E+00  0.88000000000E+00 0. -1.
        -11    1    4    4    0    0 -0.42040631430E-02 -0.47992399927E-01  0.88281235954E-01  0.10057227421E+00  0.51100000000E-03 0. -1.
         11    1    4    4    0    0  0.69588813146E-02 -0.74749665994E-02  0.27659879149E-01  0.29489509836E-01  0.51100000000E-03 0.  1.
</event>
<event>
 8    1  0.1138737E+005  0.1043930E+01  0.7957747E-01            NaN
         13   -1    0    0    0    0  0.00000000000E+00  0.00000000000E+00  0.74505805969E-08  0.10566000000E+00  0.10566000000E+00 0.  1.
     999900   -1    0    0    0    0 -0.00000000000E+00 -0.00000000000E+00 -0.74505805969E-08  0.93827000000E+00  0.93827000000E+00 0.  1.
     999902    2    1    2    0    0 -0.10144712632E-02 -0.20209195484E-01 -0.14204335348E-01  0.10192074622E+01  0.10189075753E+01 0.  0.
     999903    2    3    3    0    0 -0.67883866360E-01  0.10072105704E+00  0.32429605047E-01  0.12720389358E+00  0.19395891703E-01 0.  0.
         14    1    1    2    0    0  0.10144712632E-02  0.20209195484E-01  0.14204335348E-01  0.24722537829E-01  0.00000000000E+00 0. -1.
     999901    1    3    3    0    0  0.66869395097E-01 -0.12093025253E+00 -0.46633940395E-01  0.89200356859E+00  0.88000000000E+00 0.  1.
        -11    1    4    4    0    0 -0.85265858323E-02  0.10020302237E-01  0.99389359830E-02  0.16497051020E-01  0.51100000000E-03 0. -1.
         11    1    4    4    0    0 -0.59357280528E-01  0.90700754807E-01  0.22490669064E-01  0.11070684256E+00  0.51100000000E-03 0.  1.
</event>
<event>
 8    1  0.1138737E+005  0.1043930E+01  0.7957747E-01            NaN
         13   -1    0    0    0    0  0.00000000000E+00  0.00000000000E+00  0.74505805969E-08  0.10566000000E+00  0.10566000000E+00 0. -1.
     999900   -1    0    0    0    0 -0.00000000000E+00 -0.00000000000E+00 -0.74505805969E-08  0.93827000000E+00  0.93827000000E+00 0. -1.
     999902    2    1    2    0    0 -0.19265974711E-01 -0.44902492003E-02 -0.12240755675E-01  0.10206668055E+01  0.10204016619E+01 0.  0.
     999903    2    3    3    0    0 -0.46665007588E-01 -0.11871564865E+00  0.27323111050E-01  0.13198044437E+00  0.20031403629E-01 0.  0.
         14    1    1    2    0    0  0.19265974711E-01  0.44902492003E-02  0.12240755675E-01  0.23263194513E-01  0.00000000000E+00 0. -1.
     999901    1    3    3    0    0  0.27399032877E-01  0.11422539945E+00 -0.39563866726E-01  0.88868636112E+00  0.88000000000E+00 0. -1.
        -11    1    4    4    0    0 -0.14094214741E-01 -0.30508521589E-01 -0.14644339791E-02  0.33642569262E-01  0.51100000000E-03 0. -1.
         11    1    4    4    0    0 -0.32570792847E-01 -0.88207127062E-01  0.28787545030E-01  0.98337875110E-01  0.51100000000E-03 0.  1.
</event>
<event>
 8    1  0.1138737E+005  0.1043930E+01  0.7957747E-01            NaN
         13   -1    0    0    0    0  0.00000000000E+00  0.00000000000E+00  0.74505805969E-08  0.10566000000E+00  0.10566000000E+00 0. -1.
     999900   -1    0    0    0    0 -0.00000000000E+00 -0.00000000000E+00 -0.74505805969E-08  0.93827000000E+00  0.93827000000E+00 0.  1.
     999902    2    1    2    0    0  0.10977310032E-01  0.20120023148E-01 -0.84351335424E-02  0.10195073027E+01  0.10192147330E+01 0.  0.
     999903    2    3    3    0    0  0.72402878256E-01  0.97864727318E-01  0.47320148253E-01  0.13219338364E+00  0.20401289527E-01 0.  0.
         14    1    1    2    0    0 -0.10977310032E-01 -0.20120023148E-01  0.84351335424E-02  0.24422697331E-01  0.00000000000E+00 0.  1.
     999901    1    3    3    0    0 -0.61425568224E-01 -0.77744704169E-01 -0.55755281795E-01  0.88731391903E+00  0.88000000000E+00 0. -1.
        -11    1    4    4    0    0  0.43868414412E-01  0.43549796170E-01  0.28044044119E-01  0.67880424726E-01  0.51100000000E-03 0.  1.
         11    1    4    4    0    0  0.28534463844E-01  0.54314931148E-01  0.19276104134E-01  0.64312958912E-01  0.51100000000E-03 0. -1.
</event>
<event>
 8    1  0.1138737E+005  0.1043930E+01  0.7957747E-01            NaN
         13   -1    0    0    0    0  0.00000000000E+00  0.00000000000E+00  0.74505805969E-08  0.10566000000E+00  0.10566000000E+00 0.  1.
     999900   -1    0    0    0    0 -0.00000000000E+00 -0.00000000000E+00 -0.74505805969E-08  0.93827000000E+00  0.93827000000E+00 0.  1.
     999902    2    1    2    0    0  0.18361765902E-01 -0.61174993891E-02  0.12670103279E-01  0.10207975604E+01  0.10205354230E+01 0.  0.
     999903    2    3    3    0    0  0.75866467318E-01  0.71001945656E-01  0.80300299756E-01  0.13297548194E+00  0.20912759394E-01 0.  0.
         14    1    1    2    0    0 -0.18361765902E-01  0.61174993891E-02 -0.12670103279E-01  0.23132439623E-01  0.00000000000E+00 0. -1.
     999901    1    3    3    0    0 -0.57504701416E-01 -0.77119445045E-01 -0.67630196478E-01  0.88782207844E+00  0.88000000000E+00 0. -1.
        -11    1    4    4    0    0  0.22489380832E-01  0.20209685204E-01  0.35938557725E-01  0.46968549888E-01  0.51100000000E-03 0. -1.
         11    1    4    4    0    0  0.53377086486E-01  0.50792260452E-01  0.44361742031E-01  0.86006932050E-01  0.51100000000E-03 0.  1.
</event>
<event>
 8    1  0.1138737E+005  0.1043930E+01  0.7957747E-01            NaN
         13   -1    0    0    0    0  0.00000000000E+00  0.00000000000E+00  0.74505805969E-08  0.10566000000E+00  0.10566000000E+00 0. -1.
     999900   -1    0    0    0    0 -0.00000000000E+00 -0.00000000000E+00 -0.74505805969E-08  0.93827000000E+00  0.93827000000E+00 0.  1.
     999902    2    1    2    0    0 -0.69045315848E-02 -0.10655431465E-01 -0.19318561216E-01  0.10208125264E+01  0.10205507320E+01 0.  0.
     999903    2    3    3    0    0 -0.11958168225E+00 -0.50537249122E-01  0.13406567485E-01  0.13212943686E+00  0.20607274314E-01 0.  0.
         14    1    1    2    0    0  0.69045315848E-02  0.10655431465E-01  0.19318561216E-01  0.23117473555E-01  0.00000000000E+00 0. -1.
     999901    1    3    3    0    0  0.11267715067E+00  0.39881817657E-01 -0.32725128701E-01  0.88868308958E+00  0.88000000000E+00 0.  1.
        -11    1    4    4    0    0 -0.76376414380E-01 -0.39755196847E-01  0.15753634884E-01  0.87534395999E-01  0.51100000000E-03 0. -1.
         11    1    4    4    0    0 -0.43205267872E-01 -0.10782052275E-01 -0.23470673989E-02  0.44595040862E-01  0.51100000000E-03 0.  1.
</event>
<event>
 8    1  0.1138737E+005  0.1043930E+01  0.7957747E-01            NaN
         13   -1    0    0    0    0  0.00000000000E+00  0.00000000000E+00  0.74505805969E-08  0.10566000000E+00  0.10566000000E+00 0. -1.
     999900   -1    0    0    0    0 -0.00000000000E+00 -0.00000000000E+00 -0.74505805969E-08  0.93827000000E+00  0.93827000000E+00 0. -1.
     999902    2    1    2    0    0  0.23069804750E-01 -0.49572271663E-02 -0.12274843499E-03  0.10203332829E+01  0.10200603919E+01 0.  0.
     999903    2    3    3    0    0  0.35369777382E-01 -0.96172400997E-01 -0.80554242394E-01  0.13188479112E+00  0.20111198258E-01 0.  0.
         14    1    1    2    0    0 -0.23069804750E-01  0.49572271663E-02  0.12274843499E-03  0.23596717135E-01  0.00000000000E+00 0. -1.
     999901    1    3    3    0    0 -0.12299972632E-01  0.91215173831E-01  0.80431493959E-01  0.88844849175E+00  0.88000000000E+00 0.  1.
        -11    1    4    4    0    0  0.13433067405E-01 -0.64526075849E-01 -0.51424594689E-01  0.83599113777E-01  0.51100000000E-03 0.  1.
         11    1    4    4    0    0  0.21936709977E-01 -0.31646325148E-01 -0.29129647705E-01  0.48285677342E-01  0.51100000000E-03 0. -1.
</event>
<event>
 8    1  0.1138737E+005  0.1043930E+01  0.7957747E-01            NaN
         13   -1    0    0    0    0  0.00000000000E+00  0.00000000000E+00  0.74505805969E-08  0.10566000000E+00  0.10566000000E+00 0. -1.
     999900   -1    0    0    0    0 -0.00000000000E+00 -0.00000000000E+00 -0.74505805969E-08  0.93827000000E+00  0.93827000000E+00 0. -1.
     999902    2    1    2    0    0  0.20377915361E-02  0.67172251676E-02  0.23594562531E-01  0.10193133981E+01  0.10190161071E+01 0.  0.
     999903    2    3    3    0    0  0.48696444583E-01  0.95005551701E-01  0.75368146068E-01  0.13215368166E+00  0.19668237507E-01 0.  0.
         14    1    1    2    0    0 -0.20377915361E-02 -0.67172251676E-02 -0.23594562531E-01  0.24616601904E-01  0.00000000000E+00 0.  1.
     999901    1    3    3    0    0 -0.46658653047E-01 -0.88288326533E-01 -0.51773583538E-01  0.88715971643E+00  0.88000000000E+00 0. -1.
        -11    1    4    4    0    0  0.28581032925E-01  0.46243553876E-01  0.48959999714E-01  0.73162042147E-01  0.51100000000E-03 0. -1.
         11    1    4    4    0    0  0.20115411658E-01  0.48761997825E-01  0.26408146354E-01  0.58991639517E-01  0.51100000000E-03 0.  1.
</event>
<event>
 8    1  0.1138737E+005  0.1043930E+01  0.7957747E-01            NaN
         13   -1    0    0    0    0  0.00000000000E+00  0.00000000000E+00  0.74505805969E-08  0.10566000000E+00  0.10566000000E+00 0.  1.
     999900   -1    0    0    0    0 -0.00000000000E+00 -0.00000000000E+00 -0.74505805969E-08  0.93827000000E+00  0.93827000000E+00 0.  1.
     999902    2    1    2    0    0  0.90140154612E-02 -0.28217724338E-03 -0.21882375105E-01  0.10202620800E+01  0.10199875202E+01 0.  0.
     999903    2    3    3    0    0 -0.24314051163E-01 -0.64426275224E-01 -0.11238280224E+00  0.13267233653E+00  0.15170254353E-01 0.  0.
         14    1    1    2    0    0 -0.90140154612E-02  0.28217724338E-03  0.21882375105E-01  0.23667920039E-01  0.00000000000E+00 0.  1.
     999901    1    3    3    0    0  0.33328066625E-01  0.64144097980E-01  0.90500427139E-01  0.88758974343E+00  0.88000000000E+00 0. -1.
        -11    1    4    4    0    0 -0.93315823537E-02 -0.44407521264E-01 -0.68649522010E-01  0.82292918087E-01  0.51100000000E-03 0. -1.
         11    1    4    4    0    0 -0.14982468810E-01 -0.20018753960E-01 -0.43733280234E-01  0.50379418444E-01  0.51100000000E-03 0.  1.
</event>
<event>
 8    1  0.1138737E+005  0.1043930E+01  0.7957747E-01            NaN
         13   -1    0    0    0    0  0.00000000000E+00  0.00000000000E+00  0.74505805969E-08  0.10566000000E+00  0.10566000000E+00 0. -1.
     999900   -1    0    0    0    0 -0.00000000000E+00 -0.00000000000E+00 -0.74505805969E-08  0.93827000000E+00  0.93827000000E+00 0.  1.
     999902    2    1    2    0    0  0.96028754070E-02 -0.20424757221E-01 -0.59094331069E-02  0.10205996052E+01  0.10203329098E+01 0.  0.
     999903    2    3    3    0    0 -0.11071861245E+00  0.61950563995E-01 -0.55765973775E-02  0.12860012940E+00  0.20258611020E-01 0.  0.
         14    1    1    2    0    0 -0.96028754070E-02  0.20424757221E-01  0.59094331069E-02  0.23330394837E-01  0.00000000000E+00 0. -1.
     999901    1    3    3    0    0  0.12032148786E+00 -0.82375321215E-01 -0.33283572947E-03  0.89199947577E+00  0.88000000000E+00 0. -1.
        -11    1    4    4    0    0 -0.65453958784E-01  0.47723017438E-01 -0.46764314067E-02  0.81140848193E-01  0.51100000000E-03 0. -1.
         11    1    4    4    0    0 -0.45264653667E-01  0.14227546556E-01 -0.90016597080E-03  0.47459281204E-01  0.51100000000E-03 0.  1.
</event>
<event>
 8    1  0.1138737E+005  0.1043930E+01  0.7957747E-01            NaN
         13   -1    0    0    0    0  0.00000000000E+00  0.00000000000E+00  0.74505805969E-08  0.10566000000E+00  0.10566000000E+00 0. -1.
     999900   -1    0    0    0    0 -0.00000000000E+00 -0.00000000000E+00 -0.74505805969E-08  0.93827000000E+00  0.93827000000E+00 0.  1.
     999902    2    1    2    0    0 -0.38574673186E-02 -0.19081763861E-01  0.14185679984E-01  0.10198420926E+01  0.10195575837E+01 0.  0.
     999903    2    3    3    0    0  0.55157219925E-01  0.17620856270E-01  0.11623448109E+00  0.13122306656E+00  0.18873926938E-01 0.  0.
         14    1    1    2    0    0  0.38574673186E-02  0.19081763861E-01 -0.14185679984E-01  0.24087907397E-01  0.00000000000E+00 0.  1.
     999901    1    3    3    0    0 -0.59014687244E-01 -0.36702620131E-01 -0.10204880111E+00  0.88861902604E+00  0.88000000000E+00 0.  1.
        -11    1    4    4    0    0  0.28304114921E-01  0.18749387969E-01  0.67880824779E-01  0.75899472754E-01  0.51100000000E-03 0. -1.
         11    1    4    4    0    0  0.26853105004E-01 -0.11285316989E-02  0.48353656311E-01  0.55323593808E-01  0.51100000000E-03 0.  1.
</event>
<event>
 8    1  0.1138737E+005  0.1043930E+01  0.7957747E-01            NaN
         13   -1    0    0    0    0  0.00000000000E+00  0.00000000000E+00  0.74505805969E-08  0.10566000000E+00  0.10566000000E+00 0.  1.
     999900   -1    0    0    0    0 -0.00000000000E+00 -0.00000000000E+00 -0.74505805969E-08  0.93827000000E+00  0.93827000000E+00 0.  1.
     999902    2    1    2    0    0 -0.22415364305E-01  0.68258181519E-02  0.27889583588E-02  0.10203329951E+01  0.10200600974E+01 0.  0.
     999903    2    3    3    0    0  0.85484492630E-01 -0.36298001635E-01  0.86810358089E-01  0.12872678240E+00  0.20233705352E-01 0.  0.
         14    1    1    2    0    0  0.22415364305E-01 -0.68258181519E-02 -0.27889583588E-02  0.23597004875E-01  0.00000000000E+00 0. -1.
     999901    1    3    3    0    0 -0.10789985693E+00  0.43123819787E-01 -0.84021399730E-01  0.89160621273E+00  0.88000000000E+00 0.  1.
        -11    1    4    4    0    0  0.24881263623E-01 -0.14755177168E-02  0.26799387033E-01  0.36602222588E-01  0.51100000000E-03 0.  1.
         11    1    4    4    0    0  0.60603229007E-01 -0.34822483918E-01  0.60010971055E-01  0.92124559810E-01  0.51100000000E-03 0. -1.
</event>
<event>
 8    1  0.1138737E+005  0.1043930E+01  0.7957747E-01            NaN
         13   -1    0    0    0    0  0.00000000000E+00  0.00000000000E+00  0.74505805969E-08  0.10566000000E+00  0.10566000000E+00 0. -1.
     999900   -1    0    0    0    0 -0.00000000000E+00 -0.00000000000E+00 -0.74505805969E-08  0.93827000000E+00  0.93827000000E+00 0. -1.
     999902    2    1    2    0    0  0.63012000815E-02  0.21476817427E-01 -0.57594459852E-02  0.10208187467E+01  0.10205570948E+01 0.  0.
     999903    2    3    3    0    0 -0.89846016508E-01 -0.70659770227E-01  0.55660389044E-01  0.12868319976E+00  0.19904200106E-01 0.  0.
         14    1    1    2    0    0 -0.63012000815E-02 -0.21476817427E-01  0.57594459852E-02  0.23111253261E-01  0.00000000000E+00 0. -1.
     999901    1    3    3    0    0  0.96147216590E-01  0.92136587654E-01 -0.61419835029E-01  0.89213554698E+00  0.88000000000E+00 0. -1.
        -11    1    4    4    0    0 -0.41968171691E-01 -0.20612304054E-01  0.22652608272E-01  0.51957639438E-01  0.51100000000E-03 0. -1.
         11    1    4    4    0    0 -0.47877844818E-01 -0.50047466173E-01  0.33007780772E-01  0.76725560325E-01  0.51100000000E-03 0.  1.
</event>
<event>
 8    1  0.1138737E+005  0.1043930E+01  0.7957747E-01            NaN
         13   -1    0    0    0    0  0.00000000000E+00  0.00000000000E+00  0.74505805969E-08  0.10566000000E+00  0.10566000000E+00 0. -1.
     999900   -1    0    0    0    0 -0.00000000000E+00 -0.00000000000E+00 -0.74505805969E-08  0.93827000000E+00  0.93827000000E+00 0.  1.
     999902    2    1    2    0    0 -0.12508287148E-01  0.14811309847E-01 -0.15425914794E-01  0.10191551944E+01  0.10188540225E+01 0.  0.
     999903    2    3    3    0    0 -0.98310605064E-01 -0.82798663638E-01 -0.67784627416E-02  0.12956847959E+00  0.14881182025E-01 0.  0.
         14    1    1    2    0    0  0.12508287148E-01 -0.14811309847E-01  0.15425914794E-01  0.24774805630E-01  0.00000000000E+00 0. -1.
     999901    1    3    3    0    0  0.85802317915E-01  0.97609973484E-01 -0.86474520522E-02  0.88958671478E+00  0.88000000000E+00 0. -1.
        -11    1    4    4    0    0 -0.91944259984E-01 -0.81489670632E-01 -0.68141727248E-02  0.12304880103E+00  0.51100000000E-03 0. -1.
         11    1    4    4    0    0 -0.63663450800E-02 -0.13089930057E-02  0.35709983152E-04  0.65196785634E-02  0.51100000000E-03 0.  1.
</event>
<event>
 8    1  0.1138737E+005  0.1043930E+01  0.7957747E-01            NaN
         13   -1    0    0    0    0  0.00000000000E+00  0.00000000000E+00  0.74505805969E-08  0.10566000000E+00  0.10566000000E+00 0. -1.
     999900   -1    0    0    0    0 -0.00000000000E+00 -0.00000000000E+00 -0.74505805969E-08  0.93827000000E+00  0.93827000000E+00 0. -1.
     999902    2    1    2    0    0 -0.84584883659E-02  0.80582852336E-02 -0.21868780757E-01  0.10191363404E+01  0.10188347043E+01 0.  0.
     999903    2    3    3    0    0  0.37446767757E-02 -0.10800202513E+00  0.64121252131E-01  0.12727693517E+00  0.20234209008E-01 0.  0.
         14    1    1    2    0    0  0.84584883659E-02 -0.80582852336E-02  0.21868780757E-01  0.24793659636E-01  0.00000000000E+00 0. -1.
     999901    1    3    3    0    0 -0.12203165142E-01  0.11606031036E+00 -0.85990032889E-01  0.89185940520E+00  0.88000000000E+00 0. -1.
        -11    1    4    4    0    0 -0.48700732436E-02 -0.87353003774E-01  0.52927061749E-01  0.10225360565E+00  0.51100000000E-03 0. -1.
         11    1    4    4    0    0  0.86147500193E-02 -0.20649021357E-01  0.11194190382E-01  0.25023329519E-01  0.51100000000E-03 0.  1.
</event>
<event>
 8    1  0.1138737E+005  0.1043930E+01  0.7957747E-01            NaN
         13   -1    0    0    0    0  0.00000000000E+00  0.00000000000E+00  0.74505805969E-08  0.10566000000E+00  0.10566000000E+00 0. -1.
     999900   -1    0    0    0    0 -0.00000000000E+00 -0.00000000000E+00 -0.74505805969E-08  0.93827000000E+00  0.93827000000E+00 0. -1.
     999902    2    1    2    0    0 -0.12880667470E-01  0.51085728289E-02  0.18899555559E-01  0.10204949342E+01  0.10202258124E+01 0.  0.
     999903    2    3    3    0    0  0.78484342410E-01 -0.51408545136E-01 -0.84857936796E-01  0.12791027886E+00  0.18908714490E-01 0.  0.
         14    1    1    2    0    0  0.12880667470E-01 -0.51085728289E-02 -0.18899555559E-01  0.23435065844E-01  0.00000000000E+00 0.  1.
     999901    1    3    3    0    0 -0.91365009880E-01  0.56517117965E-01  0.10375749235E+00  0.89258465530E+00  0.88000000000E+00 0.  1.
        -11    1    4    4    0    0  0.10460884162E-01 -0.15343417490E-01 -0.13857864586E-01  0.23176541795E-01  0.51100000000E-03 0.  1.
         11    1    4    4    0    0  0.68023458248E-01 -0.36065127646E-01 -0.71000072210E-01  0.10473373706E+00  0.51100000000E-03 0. -1.
</event>
<event>
 8    1  0.1138737E+005  0.1043930E+01  0.7957747E-01            NaN
         13   -1    0    0    0    0  0.00000000000E+00  0.00000000000E+00  0.74505805969E-08  0.10566000000E+00  0.10566000000E+00 0.  1.
     999900   -1    0    0    0    0 -0.00000000000E+00 -0.00000000000E+00 -0.74505805969E-08  0.93827000000E+00  0.93827000000E+00 0. -1.
     999902    2    1    2    0    0 -0.12121439116E-01 -0.19709716351E-01  0.33059711118E-02  0.10205562615E+01  0.10202885628E+01 0.  0.
     999903    2    3    3    0    0  0.96279933728E-01  0.70977602136E-01  0.42545427173E-01  0.12841569958E+00  0.19308880913E-01 0.  0.
         14    1    1    2    0    0  0.12121439116E-01  0.19709716351E-01 -0.33059711118E-02  0.23373738466E-01  0.00000000000E+00 0. -1.
     999901    1    3    3    0    0 -0.10840137284E+00 -0.90687318487E-01 -0.39239456061E-01  0.89214056195E+00  0.88000000000E+00 0. -1.
        -11    1    4    4    0    0  0.16012982625E-01  0.18314563860E-01  0.14816341482E-01  0.28489014687E-01  0.51100000000E-03 0. -1.
         11    1    4    4    0    0  0.80266951103E-01  0.52663038276E-01  0.27729085691E-01  0.99926684895E-01  0.51100000000E-03 0.  1.
</event>
<event>
 8    1  0.1138737E+005  0.1043930E+01  0.7957747E-01            NaN
         13   -1    0    0    0    0  0.00000000000E+00  0.00000000000E+00  0.74505805969E-08  0.10566000000E+00  0.10566000000E+00 0.  1.
     999900   -1    0    0    0    0 -0.00000000000E+00 -0.00000000000E+00 -0.74505805969E-08  0.93827000000E+00  0.93827000000E+00 0.  1.
     999902    2    1    2    0    0  0.28496170954E-02  0.23113170823E-01 -0.15067181574E-02  0.10205931368E+01  0.10203262918E+01 0.  0.
     999903    2    3    3    0    0 -0.79460067882E-02 -0.75416168610E-01  0.10342928582E+00  0.12883300027E+00  0.12230587934E-01 0.  0.
         14    1    1    2    0    0 -0.28496170954E-02 -0.23113170823E-01  0.15067181574E-02  0.23336863172E-01  0.00000000000E+00 0. -1.
     999901    1    3    3    0    0  0.10795623884E-01  0.98529339433E-01 -0.10493600398E+00  0.89176013656E+00  0.88000000000E+00 0.  1.
        -11    1    4    4    0    0  0.25355813247E-02 -0.32596106260E-01  0.45763384555E-01  0.56244855791E-01  0.51100000000E-03 0. -1.
         11    1    4    4    0    0 -0.10481588113E-01 -0.42820062350E-01  0.57665901267E-01  0.72588144479E-01  0.51100000000E-03 0.  1.
</event>
<event>
 8    1  0.1138737E+005  0.1043930E+01  0.7957747E-01            NaN
         13   -1    0    0    0    0  0.00000000000E+00  0.00000000000E+00  0.74505805969E-08  0.10566000000E+00  0.10566000000E+00 0.  1.
     999900   -1    0    0    0    0 -0.00000000000E+00 -0.00000000000E+00 -0.74505805969E-08  0.93827000000E+00  0.93827000000E+00 0. -1.
     999902    2    1    2    0    0  0.22001698453E-01 -0.80986966098E-02  0.35867790753E-02  0.10202123145E+01  0.10199365853E+01 0.  0.
     999903    2    3    3    0    0 -0.77088211684E-01  0.15209427463E-01 -0.99177230601E-01  0.12840374724E+00  0.21851319686E-01 0.  0.
         14    1    1    2    0    0 -0.22001698453E-01  0.80986966098E-02 -0.35867790753E-02  0.23717685505E-01  0.00000000000E+00 0. -1.
     999901    1    3    3    0    0  0.99089910137E-01 -0.23308124073E-01  0.10276400968E+00  0.89180856725E+00  0.88000000000E+00 0.  1.
        -11    1    4    4    0    0 -0.42801393281E-01  0.10553919045E-01 -0.38399171204E-01  0.58464535782E-01  0.51100000000E-03 0. -1.
         11    1    4    4    0    0 -0.34286818404E-01  0.46555084181E-02 -0.60778059396E-01  0.69939211461E-01  0.51100000000E-03 0.  1.
</event>
<event>
 8    1  0.1138737E+005  0.1043930E+01  0.7957747E-01            NaN
         13   -1    0    0    0    0  0.00000000000E+00  0.00000000000E+00  0.74505805969E-08  0.10566000000E+00  0.10566000000E+00 0.  1.
     999900   -1    0    0    0    0 -0.00000000000E+00 -0.00000000000E+00 -0.74505805969E-08  0.93827000000E+00  0.93827000000E+00 0.  1.
     999902    2    1    2    0    0 -0.23922442569E-01 -0.35598558364E-02 -0.14218587629E-02  0.10197023812E+01  0.10194145225E+01 0.  0.
     999903    2    3    3    0    0 -0.20292391070E-01 -0.28054737686E-01 -0.12453150977E+00  0.13078778308E+00  0.19962410594E-01 0.  0.
         14    1    1    2    0    0  0.23922442569E-01  0.35598558364E-02  0.14218587629E-02  0.24227618834E-01  0.00000000000E+00 0. -1.
     999901    1    3    3    0    0 -0.36300514990E-02  0.24494881850E-01  0.12310965101E+00  0.88891459808E+00  0.88000000000E+00 0. -1.
        -11    1    4    4    0    0 -0.15637787570E-01 -0.13278333457E-01 -0.41210012732E-01  0.46036733266E-01  0.51100000000E-03 0.  1.
         11    1    4    4    0    0 -0.46546034998E-02 -0.14776404229E-01 -0.83321497038E-01  0.84751049818E-01  0.51100000000E-03 0. -1.
</event>
<event>
 8    1  0.1138737E+005  0.1043930E+01  0.7957747E-01            NaN
         13   -1    0    0    0    0  0.00000000000E+00  0.00000000000E+00  0.74505805969E-08  0.10566000000E+00  0.10566000000E+00 0.  1.
     999900   -1    0    0    0    0 -0.00000000000E+00 -0.00000000000E+00 -0.74505805969E-08  0.93827000000E+00  0.93827000000E+00 0.  1.
     999902    2    1    2    0    0  0.14036662363E-01  0.76522610501E-02 -0.20043256834E-01  0.10182918032E+01  0.10179689973E+01 0.  0.
     999903    2    3    3    0    0  0.11091563184E+00  0.56267527039E-01 -0.37807636701E-01  0.13146343651E+00  0.19619015265E-01 0.  0.
         14    1    1    2    0    0 -0.14036662363E-01 -0.76522610501E-02  0.20043256834E-01  0.25638196777E-01  0.00000000000E+00 0.  1.
     999901    1    3    3    0    0 -0.96878969480E-01 -0.48615265989E-01  0.17764379867E-01  0.88682836671E+00  0.88000000000E+00 0.  1.
        -11    1    4    4    0    0  0.40044302079E-01  0.31043672146E-01 -0.14368516809E-01  0.52668502025E-01  0.51100000000E-03 0. -1.
         11    1    4    4    0    0  0.70871329764E-01  0.25223854893E-01 -0.23439119892E-01  0.78794934485E-01  0.51100000000E-03 0.  1.
</event>
<event>
 8    1  0.1138737E+005  0.1043930E+01  0.7957747E-01            NaN
         13   -1    0    0    0    0  0.00000000000E+00  0.00000000000E+00  0.74505805969E-08  0.10566000000E+00  0.10566000000E+00 0.  1.
     999900   -1    0    0    0    0 -0.00000000000E+00 -0.00000000000E+00 -0.74505805969E-08  0.93827000000E+00  0.93827000000E+00 0.  1.
     999902    2    1    2    0    0 -0.93615128614E-02  0.92122668867E-02 -0.19232302254E-01  0.10206408344E+01  0.10203750916E+01 0.  0.
     999903    2    3    3    0    0 -0.86350469902E-01  0.66559305988E-01 -0.74528546264E-01  0.13369458067E+00  0.20813260865E-01 0.  0.
         14    1    1    2    0    0  0.93615128614E-02 -0.92122668867E-02  0.19232302254E-01  0.23289165597E-01  0.00000000000E+00 0.  1.
     999901    1    3    3    0    0  0.76988957041E-01 -0.57347039101E-01  0.55296244010E-01  0.88694625373E+00  0.88000000000E+00 0. -1.
        -11    1    4    4    0    0 -0.69618064596E-01  0.55018998859E-01 -0.50066232722E-01  0.10188549423E+00  0.51100000000E-03 0. -1.
         11    1    4    4    0    0 -0.16732405306E-01  0.11540307129E-01 -0.24462313542E-01  0.31809086450E-01  0.51100000000E-03 0.  1.
</event>
<event>
 8    1  0.1138737E+005  0.1043930E+01  0.7957747E-01            NaN
         13   -1    0    0    0    0  0.00000000000E+00  0.00000000000E+00  0.74505805969E-08  0.10566000000E+00  0.10566000000E+00 0.  1.
     999900   -1    0    0    0    0 -0.00000000000E+00 -0.00000000000E+00 -0.74505805969E-08  0.93827000000E+00  0.93827000000E+00 0.  1.
     999902    2    1    2    0    0 -0.20431785271E-01 -0.10822622102E-01 -0.35408076468E-02  0.10205393113E+01  0.10202712196E+01 0.  0.
     999903    2    3    3    0    0  0.62272805745E-02  0.10707529422E+00 -0.69911617330E-01  0.12980045573E+00  0.21368818760E-01 0.  0.
         14    1    1    2    0    0  0.20431785271E-01  0.10822622102E-01  0.35408076468E-02  0.23390688688E-01  0.00000000000E+00 0.  1.
     999901    1    3    3    0    0 -0.26659065845E-01 -0.11789791632E+00  0.66370809683E-01  0.89073885558E+00  0.88000000000E+00 0. -1.
        -11    1    4    4    0    0 -0.48052552464E-02  0.66341001902E-01 -0.35832407185E-01  0.75554229114E-01  0.51100000000E-03 0.  1.
         11    1    4    4    0    0  0.11032535821E-01  0.40734292315E-01 -0.34079210145E-01  0.54246226617E-01  0.51100000000E-03 0. -1.
</event>
<event>
 8    1  0.1138737E+005  0.1043930E+01  0.7957747E-01            NaN
         13   -1    0    0    0    0  0.00000000000E+00  0.00000000000E+00  0.74505805969E-08  0.10566000000E+00  0.10566000000E+00 0. -1.
     999900   -1    0    0    0    0 -0.00000000000E+00 -0.00000000000E+00 -0.74505805969E-08  0.93827000000E+00  0.93827000000E+00 0. -1.
     999902    2    1    2    0    0  0.19240443972E-02 -0.78891888686E-02  0.24144783621E-01  0.10184562523E+01  0.10181376262E+01 0.  0.
     999903    2    3    3    0    0 -0.78026530565E-02  0.30206516975E-01  0.12634242291E+00  0.13166977913E+00  0.20030173399E-01 0.  0.
         14    1    1    2    0    0 -0.19240443972E-02  0.78891888686E-02 -0.24144783621E-01  0.25473747741E-01  0.00000000000E+00 0.  1.
     999901    1    3    3    0    0  0.97266974537E-02 -0.38095705844E-01 -0.10219763929E+00  0.88678647313E+00  0.88000000000E+00 0. -1.
        -11    1    4    4    0    0 -0.16559365453E-02  0.39846686758E-03  0.41396617838E-01  0.41434792037E-01  0.51100000000E-03 0.  1.
         11    1    4    4    0    0 -0.61467165113E-02  0.29808050108E-01  0.84945805074E-01  0.90234987094E-01  0.51100000000E-03 0. -1.
</event>
<event>
 7    1  0.1138737E+005  0.1043930E+01  0.7957747E-01            NaN
         13   -1    0    0    0    0  0.00000000000E+00  0.00000000000E+00  0.74505805969E-08  0.10566000000E+00  0.10566000000E+00 0. -1.
     999900   -1    0    0    0    0 -0.00000000000E+00 -0.00000000000E+00 -0.74505805969E-08  0.93827000000E+00  0.93827000000E+00 0. -1.
     999903    2    1    2    0    0 -0.82215282553E-01  0.55927567793E-01  0.13258361203E-01  0.10262777703E+00  0.21666355301E-01 0.  0.
         14    1    1    2    0    0  0.56309332652E-02 -0.35350110922E-01  0.42997275513E-01  0.55947327489E-01  0.00000000000E+00 0.  1.
     999901    1    1    2    0    0  0.76584349288E-01 -0.20577456872E-01 -0.56255636716E-01  0.88535489548E+00  0.88000000000E+00 0. -1.
        -11    1    3    3    0    0 -0.46591803126E-01  0.44291010654E-01  0.80715619656E-02  0.64791210645E-01  0.51100000000E-03 0. -1.
         11    1    3    3    0    0 -0.35623479428E-01  0.11636557139E-01  0.51867992370E-02  0.37836566386E-01  0.51100000000E-03 0.  1.
</event>
<event>
 8    1  0.1138737E+005  0.1043930E+01  0.7957747E-01            NaN
         13   -1    0    0    0    0  0.00000000000E+00  0.00000000000E+00  0.74505805969E-08  0.10566000000E+00  0.10566000000E+00 0.  1.
     999900   -1    0    0    0    0 -0.00000000000E+00 -0.00000000000E+00 -0.74505805969E-08  0.93827000000E+00  0.93827000000E+00 0.  1.
     999902    2    1    2    0    0 -0.20405904736E-01 -0.73713373162E-02  0.88923818122E-02  0.10204819294E+01  0.10202125054E+01 0.  0.
     999903    2    3    3    0    0  0.68514541351E-01 -0.25827172096E-01 -0.10330504044E+00  0.12872202607E+00  0.23154771029E-01 0.  0.
         14    1    1    2    0    0  0.20405904736E-01  0.73713373162E-02 -0.88923818122E-02  0.23448070629E-01  0.00000000000E+00 0.  1.
     999901    1    3    3    0    0 -0.88920446087E-01  0.18455834780E-01  0.11219742225E+00  0.89175990330E+00  0.88000000000E+00 0.  1.
        -11    1    4    4    0    0  0.20301921090E-01 -0.16739986817E-01 -0.48369559245E-01  0.55066056161E-01  0.51100000000E-03 0. -1.
         11    1    4    4    0    0  0.48212620261E-01 -0.90871852783E-02 -0.54935481194E-01  0.73655969913E-01  0.51100000000E-03 0.  1.
</event>
<event>
 8    1  0.1138737E+005  0.1043930E+01  0.7957747E-01            NaN
         13   -1    0    0    0    0  0.00000000000E+00  0.00000000000E+00  0.74505805969E-08  0.10566000000E+00  0.10566000000E+00 0.  1.
     999900   -1    0    0    0    0 -0.00000000000E+00 -0.00000000000E+00 -0.74505805969E-08  0.93827000000E+00  0.93827000000E+00 0.  1.
     999902    2    1    2    0    0  0.10345491906E-01 -0.82171590760E-02  0.19339807288E-01  0.10205082355E+01  0.10202394227E+01 0.  0.
     999903    2    3    3    0    0 -0.11096932656E+00  0.23164689773E-01  0.61847715133E-01  0.13061552970E+00  0.19608223873E-01 0.  0.
         14    1    1    2    0    0 -0.10345491906E-01  0.82171590760E-02 -0.19339807288E-01  0.23421764494E-01  0.00000000000E+00 0. -1.
     999901    1    3    3    0    0  0.12131481846E+00 -0.31381848849E-01 -0.42507907845E-01  0.88989270580E+00  0.88000000000E+00 0. -1.
        -11    1    4    4    0    0 -0.19968974825E-01 -0.33231167714E-02  0.11731464486E-01  0.23402808391E-01  0.51100000000E-03 0. -1.
         11    1    4    4    0    0 -0.91000351731E-01  0.26487806545E-01  0.50116250648E-01  0.10721272131E+00  0.51100000000E-03 0.  1.
</event>
<event>
 8    1  0.1138737E+005  0.1043930E+01  0.7957747E-01            NaN
         13   -1    0    0    0    0  0.00000000000E+00  0.00000000000E+00  0.74505805969E-08  0.10566000000E+00  0.10566000000E+00 0.  1.
     999900   -1    0    0    0    0 -0.00000000000E+00 -0.00000000000E+00 -0.74505805969E-08  0.93827000000E+00  0.93827000000E+00 0.  1.
     999902    2    1    2    0    0  0.11604043879E-01 -0.18852962498E-01 -0.83703881039E-02  0.10202624816E+01  0.10199879313E+01 0.  0.
     999903    2    3    3    0    0 -0.68225394012E-02  0.81323249420E-01  0.96801627843E-01  0.12816609370E+00  0.19899107530E-01 0.  0.
         14    1    1    2    0    0 -0.11604043879E-01  0.18852962498E-01  0.83703881039E-02  0.23667518380E-01  0.00000000000E+00 0.  1.
     999901    1    3    3    0    0  0.18426583280E-01 -0.10017621192E+00 -0.10517201595E+00  0.89209638792E+00  0.88000000000E+00 0.  1.
        -11    1    4    4    0    0 -0.38251418488E-02  0.34194613850E-01  0.26312376061E-01  0.43318651658E-01  0.51100000000E-03 0.  1.
         11    1    4    4    0    0 -0.29973975524E-02  0.47128635570E-01  0.70489251782E-01  0.84847442039E-01  0.51100000000E-03 0. -1.
</event>
<event>
 7    1  0.1138737E+005  0.1043930E+01  0.7957747E-01            NaN
         13   -1    0    0    0    0  0.00000000000E+00  0.00000000000E+00  0.74505805969E-08  0.10566000000E+00  0.10566000000E+00 0.  1.
     999900   -1    0    0    0    0 -0.00000000000E+00 -0.00000000000E+00 -0.74505805969E-08  0.93827000000E+00  0.93827000000E+00 0. -1.
     999903    2    1    2    0    0 -0.71668712944E-01 -0.15986025790E-01 -0.58801174714E-01  0.96094561843E-01  0.19611966566E-01 0.  0.
         14    1    1    2    0    0 -0.55200459057E-01  0.72523839721E-02  0.14789201527E-01  0.57605626767E-01  0.00000000000E+00 0.  1.
     999901    1    1    2    0    0  0.12686917200E+00  0.87336418175E-02  0.44011973186E-01  0.89022981139E+00  0.88000000000E+00 0.  1.
        -11    1    3    3    0    0 -0.17949097489E-01  0.44285730162E-02 -0.15658193733E-01  0.24232674463E-01  0.51100000000E-03 0.  1.
         11    1    3    3    0    0 -0.53719615455E-01 -0.20414598806E-01 -0.43142980981E-01  0.71861887381E-01  0.51100000000E-03 0. -1.
</event>
<event>
 8    1  0.1138737E+005  0.1043930E+01  0.7957747E-01            NaN
         13   -1    0    0    0    0  0.00000000000E+00  0.00000000000E+00  0.74505805969E-08  0.10566000000E+00  0.10566000000E+00 0.  1.
     999900   -1    0    0    0    0 -0.00000000000E+00 -0.00000000000E+00 -0.74505805969E-08  0.93827000000E+00  0.93827000000E+00 0. -1.
     999902    2    1    2    0    0  0.17729179580E-01  0.46127811671E-02  0.14735076007E-01  0.10204199166E+01  0.10201490490E+01 0.  0.
     999903    2    3    3    0    0 -0.40439220078E-01 -0.94927905241E-01  0.77667413628E-01  0.13067141833E+00  0.19903635735E-01 0.  0.
         14    1    1    2    0    0 -0.17729179580E-01 -0.46127811671E-02 -0.14735076007E-01  0.23510083446E-01  0.00000000000E+00 0. -1.
     999901    1    3    3    0    0  0.58168399659E-01  0.99540686408E-01 -0.62932337621E-01  0.88974849822E+00  0.88000000000E+00 0.  1.
        -11    1    4    4    0    0 -0.32746088825E-01 -0.90114088613E-01  0.72591247194E-01  0.12026057371E+00  0.51100000000E-03 0.  1.
         11    1    4    4    0    0 -0.76931312533E-02 -0.48138166279E-02  0.50761664336E-02  0.10410844618E-01  0.51100000000E-03 0. -1.
</event>
<event>
 8    1  0.1138737E+005  0.1043930E+01  0.7957747E-01            NaN
         13   -1    0    0    0    0  0.00000000000E+00  0.00000000000E+00  0.74505805969E-08  0.10566000000E+00  0.10566000000E+00 0.  1.
     999900   -1    0    0    0    0 -0.00000000000E+00 -0.00000000000E+00 -0.74505805969E-08  0.93827000000E+00  0.93827000000E+00 0. -1.
     999902    2    1    2    0    0 -0.10990114032E-01 -0.19933643153E-01 -0.60737976440E-02  0.10203710579E+01  0.10200990501E+01 0.  0.
     999903    2    3    3    0    0 -0.10348458013E+00  0.68367002865E-01 -0.35730401981E-01  0.13063416165E+00  0.20137456591E-01 0.  0.
         14    1    1    2    0    0  0.10990114032E-01  0.19933643153E-01  0.60737976440E-02  0.23558942116E-01  0.00000000000E+00 0.  1.
     999901    1    3    3    0    0  0.92494466098E-01 -0.88300646018E-01  0.29656604337E-01  0.88973689624E+00  0.88000000000E+00 0.  1.
        -11    1    4    4    0    0 -0.87947112635E-01  0.65119556299E-01 -0.27931009457E-01  0.11294092989E+00  0.51100000000E-03 0.  1.
         11    1    4    4    0    0 -0.15537467495E-01  0.32474465658E-02 -0.77993925244E-02  0.17693231760E-01  0.51100000000E-03 0. -1.
</event>
<event>
 8    1  0.1138737E+005  0.1043930E+01  0.7957747E-01            NaN
         13   -1    0    0    0    0  0.00000000000E+00  0.00000000000E+00  0.74505805969E-08  0.10566000000E+00  0.10566000000E+00 0. -1.
     999900   -1    0    0    0    0 -0.00000000000E+00 -0.00000000000E+00 -0.74505805969E-08  0.93827000000E+00  0.93827000000E+00 0.  1.
     999902    2    1    2    0    0 -0.18269694089E-01 -0.10660118443E-01  0.10564615216E-01  0.10202861648E+01  0.10200121701E+01 0.  0.
     999903    2    3    3    0    0  0.10454404610E+00 -0.70945556361E-01 -0.19081909121E-01  0.12922137188E+00  0.19269513572E-01 0.  0.
         14    1    1    2    0    0  0.18269694089E-01  0.10660118443E-01 -0.10564615216E-01  0.23643835179E-01  0.00000000000E+00 0.  1.
     999901    1    3    3    0    0 -0.12281374019E+00  0.60285437918E-01  0.29646524336E-01  0.89106479294E+00  0.88000000000E+00 0. -1.
        -11    1    4    4    0    0  0.29588640581E-01 -0.13600486396E-01  0.15876027957E-02  0.32607399241E-01  0.51100000000E-03 0.  1.
         11    1    4    4    0    0  0.74955405521E-01 -0.57345069965E-01 -0.20669511916E-01  0.96613972643E-01  0.51100000000E-03 0. -1.
</event>
<event>
 7    1  0.1138737E+005  0.1043930E+01  0.7957747E-01            NaN
         13   -1    0    0    0    0  0.00000000000E+00  0.00000000000E+00  0.74505805969E-08  0.10566000000E+00  0.10566000000E+00 0.  1.
     999900   -1    0    0    0    0 -0.00000000000E+00 -0.00000000000E+00 -0.74505805969E-08  0.93827000000E+00  0.93827000000E+00 0. -1.
     999902    2    1    2    0    0  0.28325294832E-02  0.12035394636E-01 -0.23785144324E-01  0.10171231532E+01  0.10167698371E+01 0.  0.
         14    1    1    2    0    0 -0.28325294832E-02 -0.12035394636E-01  0.23785144324E-01  0.26806846846E-01  0.00000000000E+00 0.  1.
     999901    1    3    3    0    0 -0.52571306715E-01  0.16288699218E-01 -0.12966469147E+00  0.89120255623E+00  0.88000000000E+00 0. -1.
        -11    1    3    3    0    0  0.27996636873E-01 -0.46557308011E-03  0.89465606377E-01  0.93746382756E-01  0.51100000000E-03 0.  1.
         11    1    3    3    0    0  0.27407199326E-01 -0.37877315013E-02  0.16413940772E-01  0.32174214170E-01  0.51100000000E-03 0. -1.
</event>
<event>
 8    1  0.1138737E+005  0.1043930E+01  0.7957747E-01            NaN
         13   -1    0    0    0    0  0.00000000000E+00  0.00000000000E+00  0.74505805969E-08  0.10566000000E+00  0.10566000000E+00 0.  1.
     999900   -1    0    0    0    0 -0.00000000000E+00 -0.00000000000E+00 -0.74505805969E-08  0.93827000000E+00  0.93827000000E+00 0. -1.
     999902    2    1    2    0    0 -0.15743758799E-01  0.16487815537E-02 -0.17303716803E-01  0.10204778565E+01  0.10202083378E+01 0.  0.
     999903    2    3    3    0    0  0.10983992267E+00  0.45446639108E-01 -0.47903239049E-01  0.12995787120E+00  0.21543499151E-01 0.  0.
         14    1    1    2    0    0  0.15743758799E-01 -0.16487815537E-02  0.17303716803E-01  0.23452143546E-01  0.00000000000E+00 0.  1.
     999901    1    3    3    0    0 -0.12558368147E+00 -0.43797857554E-01  0.30599522246E-01  0.89051998526E+00  0.88000000000E+00 0. -1.
        -11    1    4    4    0    0  0.41179967183E-01  0.76118364789E-02 -0.22541403229E-01  0.47561599345E-01  0.51100000000E-03 0. -1.
         11    1    4    4    0    0  0.68659955491E-01  0.37834802629E-01 -0.25361835820E-01  0.82396271852E-01  0.51100000000E-03 0.  1.
</event>
<event>
 8    1  0.1138737E+005  0.1043930E+01  0.7957747E-01            NaN
         13   -1    0    0    0    0  0.00000000000E+00  0.00000000000E+00  0.74505805969E-08  0.10566000000E+00  0.10566000000E+00 0.  1.
     999900   -1    0    0    0    0 -0.00000000000E+00 -0.00000000000E+00 -0.74505805969E-08  0.93827000000E+00  0.93827000000E+00 0. -1.
     999902    2    1    2    0    0 -0.10628028508E-01  0.13334598849E-01 -0.16441442715E-01  0.10202427132E+01  0.10199676987E+01 0.  0.
     999903    2    3    3    0    0  0.63348880679E-01  0.85139200434E-01 -0.76304588611E-01  0.13220438064E+00  0.19845500309E-01 0.  0.
         14    1    1    2    0    0  0.10628028508E-01 -0.13334598849E-01  0.16441442715E-01  0.23687286780E-01  0.00000000000E+00 0.  1.
     999901    1    3    3    0    0 -0.73976909187E-01 -0.71804601586E-01  0.59863145896E-01  0.88803833258E+00  0.88000000000E+00 0.  1.
        -11    1    4    4    0    0  0.24537640340E-01  0.28216713315E-01 -0.38262001978E-01  0.53502529100E-01  0.51100000000E-03 0. -1.
         11    1    4    4    0    0  0.38811240339E-01  0.56922487119E-01 -0.38042586633E-01  0.78701851536E-01  0.51100000000E-03 0.  1.
</event>
<event>
 8    1  0.1138737E+005  0.1043930E+01  0.7957747E-01            NaN
         13   -1    0    0    0    0  0.00000000000E+00  0.00000000000E+00  0.74505805969E-08  0.10566000000E+00  0.10566000000E+00 0.  1.
     999900   -1    0    0    0    0 -0.00000000000E+00 -0.00000000000E+00 -0.74505805969E-08  0.93827000000E+00  0.93827000000E+00 0.  1.
     999902    2    1    2    0    0  0.16152948007E-01  0.37376312072E-02 -0.14322135983E-01  0.10220208422E+01  0.10217859809E+01 0.  0.
     999903    2    3    3    0    0 -0.65078059579E-01  0.10351457336E+00  0.41975341795E-01  0.13088487009E+00  0.20457252105E-01 0.  0.
         14    1    1    2    0    0 -0.16152948007E-01 -0.37376312072E-02  0.14322135983E-01  0.21909157799E-01  0.00000000000E+00 0.  1.
     999901    1    3    3    0    0  0.81231007585E-01 -0.99776942155E-01 -0.56297477778E-01  0.89113597211E+00  0.88000000000E+00 0.  1.
        -11    1    4    4    0    0 -0.35126336180E-01  0.74013391759E-01  0.27640406242E-01  0.86464413670E-01  0.51100000000E-03 0.  1.
         11    1    4    4    0    0 -0.29951723399E-01  0.29501181604E-01  0.14334935553E-01  0.44420456424E-01  0.51100000000E-03 0. -1.
</event>
<event>
 8    1  0.1138737E+005  0.1043930E+01  0.7957747E-01            NaN
         13   -1    0    0    0    0  0.00000000000E+00  0.00000000000E+00  0.74505805969E-08  0.10566000000E+00  0.10566000000E+00 0.  1.
     999900   -1    0    0    0    0 -0.00000000000E+00 -0.00000000000E+00 -0.74505805969E-08  0.93827000000E+00  0.93827000000E+00 0. -1.
     999902    2    1    2    0    0 -0.12505721675E-01 -0.12501171609E-01  0.15577494661E-01  0.10203645442E+01  0.10200923842E+01 0.  0.
     999903    2    3    3    0    0 -0.98812869102E-01 -0.64218601818E-01  0.59410259308E-01  0.13354724199E+00  0.20427310430E-01 0.  0.
         14    1    1    2    0    0  0.12505721675E-01  0.12501171609E-01 -0.15577494661E-01  0.23565455780E-01  0.00000000000E+00 0. -1.
     999901    1    3    3    0    0  0.86307147427E-01  0.51717430209E-01 -0.43832764647E-01  0.88681730223E+00  0.88000000000E+00 0.  1.
        -11    1    4    4    0    0 -0.22859399927E-01 -0.12969489450E-01  0.23073901213E-01  0.34977505054E-01  0.51100000000E-03 0.  1.
         11    1    4    4    0    0 -0.75953469175E-01 -0.51249112369E-01  0.36336358095E-01  0.98569736932E-01  0.51100000000E-03 0. -1.
</event>
<event>
 8    1  0.1138737E+005  0.1043930E+01  0.7957747E-01            NaN
         13   -1    0    0    0    0  0.00000000000E+00  0.00000000000E+00  0.74505805969E-08  0.10566000000E+00  0.10566000000E+00 0. -1.
     999900   -1    0    0    0    0 -0.00000000000E+00 -0.00000000000E+00 -0.74505805969E-08  0.93827000000E+00  0.93827000000E+00 0. -1.
     999902    2    1    2    0    0  0.91428598962E-02  0.89622827742E-02  0.15461027293E-01  0.10238561921E+01  0.10236593888E+01 0.  0.
     999903    2    3    3    0    0  0.11790014290E+00  0.51963176932E-01 -0.33704275777E-01  0.13475864370E+00  0.20574216690E-01 0.  0.
         14    1    1    2    0    0 -0.91428598962E-02 -0.89622827742E-02 -0.15461027293E-01  0.20073807924E-01  0.00000000000E+00 0.  1.
     999901    1    3    3    0    0 -0.10875728301E+00 -0.43000894157E-01  0.49165303069E-01  0.88909754838E+00  0.88000000000E+00 0.  1.
        -11    1    4    4    0    0  0.31207375809E-01  0.23724459912E-01 -0.78041028569E-02  0.39973934574E-01  0.51100000000E-03 0.  1.
         11    1    4    4    0    0  0.86692767095E-01  0.28238717020E-01 -0.25900172920E-01  0.94784709124E-01  0.51100000000E-03 0. -1.
</event>
<event>
 8    1  0.1138737E+005  0.1043930E+01  0.7957747E-01            NaN
         13   -1    0    0    0    0  0.00000000000E+00  0.00000000000E+00  0.74505805969E-08  0.10566000000E+00  0.10566000000E+00 0.  1.
     999900   -1    0    0    0    0 -0.00000000000E+00 -0.00000000000E+00 -0.74505805969E-08  0.93827000000E+00  0.93827000000E+00 0. -1.
     999902    2    1    2    0    0 -0.70095432682E-02  0.22552837371E-01 -0.47675643656E-02  0.10198365602E+01  0.10195519191E+01 0.  0.
     999903    2    3    3    0    0 -0.47734678385E-01 -0.34530758801E-01 -0.11454016588E+00  0.13024839842E+00  0.19344840815E-01 0.  0.
         14    1    1    2    0    0  0.70095432682E-02 -0.22552837371E-01  0.47675643656E-02  0.24093439777E-01  0.00000000000E+00 0.  1.
     999901    1    3    3    0    0  0.40725135117E-01  0.57083596171E-01  0.10977260152E+00  0.88958816181E+00  0.88000000000E+00 0.  1.
        -11    1    4    4    0    0 -0.28973178105E-01 -0.23394996923E-01 -0.51631797634E-01  0.63662191122E-01  0.51100000000E-03 0.  1.
         11    1    4    4    0    0 -0.18761500280E-01 -0.11135761877E-01 -0.62908368248E-01  0.66586207295E-01  0.51100000000E-03 0. -1.
</event>
<event>
 8    1  0.1138737E+005  0.1043930E+01  0.7957747E-01            NaN
         13   -1    0    0    0    0  0.00000000000E+00  0.00000000000E+00  0.74505805969E-08  0.10566000000E+00  0.10566000000E+00 0. -1.
     999900   -1    0    0    0    0 -0.00000000000E+00 -0.00000000000E+00 -0.74505805969E-08  0.93827000000E+00  0.93827000000E+00 0.  1.
     999902    2    1    2    0    0  0.12908971788E-01  0.16615807203E-01  0.18269048647E-01  0.10160645242E+01  0.10156823483E+01 0.  0.
     999903    2    3    3    0    0 -0.73605320914E-01 -0.50091177030E-01  0.87843162223E-01  0.12658428169E+00  0.19501024014E-01 0.  0.
         14    1    1    2    0    0 -0.12908971788E-01 -0.16615807203E-01 -0.18269048647E-01  0.27865475774E-01  0.00000000000E+00 0.  1.
     999901    1    3    3    0    0  0.86514292702E-01  0.66706984234E-01 -0.69574113576E-01  0.88948024254E+00  0.88000000000E+00 0. -1.
        -11    1    4    4    0    0 -0.39885175108E-01 -0.36129906733E-01  0.60534682789E-01  0.80999421574E-01  0.51100000000E-03 0.  1.
         11    1    4    4    0    0 -0.33720145806E-01 -0.13961270297E-01  0.27308479435E-01  0.45584860113E-01  0.51100000000E-03 0. -1.
</event>
<event>
 8    1  0.1138737E+005  0.1043930E+01  0.7957747E-01            NaN
         13   -1    0    0    0    0  0.00000000000E+00  0.00000000000E+00  0.74505805969E-08  0.10566000000E+00  0.10566000000E+00 0.  1.
     999900   -1    0    0    0    0 -0.00000000000E+00 -0.00000000000E+00 -0.74505805969E-08  0.93827000000E+00  0.93827000000E+00 0.  1.
     999902    2    1    2    0    0  0.21488377218E-01  0.44517100341E-02 -0.31941194927E-02  0.10217541014E+01  0.10215134230E+01 0.  0.
     999903    2    3    3    0    0  0.11788667112E+00  0.49091171360E-01  0.37005242504E-01  0.13445409508E+00  0.20032607877E-01 0.  0.
         14    1    1    2    0    0 -0.21488377218E-01 -0.44517100341E-02  0.31941194927E-02  0.22175898562E-01  0.00000000000E+00 0.  1.
     999901    1    3    3    0    0 -0.96398293902E-01 -0.44639461326E-01 -0.40199361997E-01  0.88730000636E+00  0.88000000000E+00 0.  1.
        -11    1    4    4    0    0  0.97964501053E-01  0.32184586033E-01  0.30200771613E-01  0.10744877278E+00  0.51100000000E-03 0.  1.
         11    1    4    4    0    0  0.19922170067E-01  0.16906585327E-01  0.68044708914E-02  0.27005322303E-01  0.51100000000E-03 0. -1.
</event>
<event>
 8    1  0.1138737E+005  0.1043930E+01  0.7957747E-01            NaN
         13   -1    0    0    0    0  0.00000000000E+00  0.00000000000E+00  0.74505805969E-08  0.10566000000E+00  0.10566000000E+00 0.  1.
     999900   -1    0    0    0    0 -0.00000000000E+00 -0.00000000000E+00 -0.74505805969E-08  0.93827000000E+00  0.93827000000E+00 0. -1.
     999902    2    1    2    0    0 -0.15443246212E-01  0.38935347248E-02 -0.15062113234E-01  0.10220092171E+01  0.10217741038E+01 0.  0.
     999903    2    3    3    0    0  0.12474183122E+00  0.71892544532E-03  0.29793755723E-01  0.12977943560E+00  0.19849249705E-01 0.  0.
         14    1    1    2    0    0  0.15443246212E-01 -0.38935347248E-02  0.15062113234E-01  0.21920782862E-01  0.00000000000E+00 0.  1.
     999901    1    3    3    0    0 -0.14018507744E+00  0.31746092795E-02 -0.44855868957E-01  0.89222978154E+00  0.88000000000E+00 0.  1.
        -11    1    4    4    0    0  0.45853146398E-01 -0.82123837361E-02  0.64881200811E-02  0.47035211325E-01  0.51100000000E-03 0.  1.
         11    1    4    4    0    0  0.78888684827E-01  0.89313091815E-02  0.23305635642E-01  0.82744224276E-01  0.51100000000E-03 0. -1.
</event>
<event>
 8    1  0.1138737E+005  0.1043930E+01  0.7957747E-01            NaN
         13   -1    0    0    0    0  0.00000000000E+00  0.00000000000E+00  0.74505805969E-08  0.10566000000E+00  0.10566000000E+00 0.  1.
     999900   -1    0    0    0    0 -0.00000000000E+00 -0.00000000000E+00 -0.74505805969E-08  0.93827000000E+00  0.93827000000E+00 0. -1.
     999902    2    1    2    0    0 -0.21108111451E-01  0.39444403090E-02  0.10022949421E-01  0.10202325214E+01  0.10199572673E+01 0.  0.
     999903    2    3    3    0    0  0.52218960633E-02 -0.42961973157E-01  0.12242091684E+00  0.13145426781E+00  0.20502300116E-01 0.  0.
         14    1    1    2    0    0  0.21108111451E-01 -0.39444403090E-02 -0.10022949421E-01  0.23697478631E-01  0.00000000000E+00 0. -1.
     999901    1    3    3    0    0 -0.26330007514E-01  0.46906413466E-01 -0.11239796742E+00  0.88877825356E+00  0.88000000000E+00 0. -1.
        -11    1    4    4    0    0 -0.40177265009E-02 -0.21061381905E-01  0.36800691498E-01  0.42594318280E-01  0.51100000000E-03 0.  1.
         11    1    4    4    0    0  0.92396225642E-02 -0.21900591252E-01  0.85620225339E-01  0.88859949530E-01  0.51100000000E-03 0. -1.
</event>
<event>
 8    1  0.1138737E+005  0.1043930E+01  0.7957747E-01            NaN
         13   -1    0    0    0    0  0.00000000000E+00  0.00000000000E+00  0.74505805969E-08  0.10566000000E+00  0.10566000000E+00 0.  1.
     999900   -1    0    0    0    0 -0.00000000000E+00 -0.00000000000E+00 -0.74505805969E-08  0.93827000000E+00  0.93827000000E+00 0.  1.
     999902    2    1    2    0    0  0.15339470249E-01  0.17327756155E-01 -0.22038521713E-02  0.10206833347E+01  0.10204185722E+01 0.  0.
     999903    2    3    3    0    0 -0.97976982471E-01  0.31668311640E-01  0.76986521448E-01  0.12977515471E+00  0.17671877056E-01 0.  0.
         14    1    1    2    0    0 -0.15339470249E-01 -0.17327756155E-01  0.22038521713E-02  0.23246665251E-01  0.00000000000E+00 0. -1.
     999901    1    3    3    0    0  0.11331645272E+00 -0.14340555484E-01 -0.79190373619E-01  0.89090818004E+00  0.88000000000E+00 0.  1.
        -11    1    4    4    0    0 -0.44462391233E-01  0.17498544165E-01  0.46021474950E-01  0.66342599886E-01  0.51100000000E-03 0. -1.
         11    1    4    4    0    0 -0.53514591239E-01  0.14169767474E-01  0.30965046498E-01  0.63432554823E-01  0.51100000000E-03 0.  1.
</event>
<event>
 8    1  0.1138737E+005  0.1043930E+01  0.7957747E-01            NaN
         13   -1    0    0    0    0  0.00000000000E+00  0.00000000000E+00  0.74505805969E-08  0.10566000000E+00  0.10566000000E+00 0.  1.
     999900   -1    0    0    0    0 -0.00000000000E+00 -0.00000000000E+00 -0.74505805969E-08  0.93827000000E+00  0.93827000000E+00 0. -1.
     999902    2    1    2    0    0 -0.15134308974E-01  0.19037579784E-01 -0.63409106829E-02  0.10187966775E+01  0.10184866156E+01 0.  0.
     999903    2    3    3    0    0 -0.11579136142E+00 -0.38803045554E-01  0.37247578099E-01  0.13010250259E+00  0.25019260219E-01 0.  0.
         14    1    1    2    0    0  0.15134308974E-01 -0.19037579784E-01  0.63409106829E-02  0.25133322511E-01  0.00000000000E+00 0.  1.
     999901    1    3    3    0    0  0.10065705245E+00  0.57840625338E-01 -0.43588488782E-01  0.88869417490E+00  0.88000000000E+00 0. -1.
        -11    1    4    4    0    0 -0.87262881148E-01 -0.35516516104E-01  0.37435886874E-01  0.10138017602E+00  0.51100000000E-03 0. -1.
         11    1    4    4    0    0 -0.28528480272E-01 -0.32865294506E-02 -0.18830877513E-03  0.28722326571E-01  0.51100000000E-03 0.  1.
</event>
<event>
 8    1  0.1138737E+005  0.1043930E+01  0.7957747E-01            NaN
         13   -1    0    0    0    0  0.00000000000E+00  0.00000000000E+00  0.74505805969E-08  0.10566000000E+00  0.10566000000E+00 0. -1.
     999900   -1    0    0    0    0 -0.00000000000E+00 -0.00000000000E+00 -0.74505805969E-08  0.93827000000E+00  0.93827000000E+00 0.  1.
     999902    2    1    2    0    0  0.12395309421E-01 -0.19219839508E-01  0.69460016496E-02  0.10200282665E+01  0.10197481903E+01 0.  0.
     999903    2    3    3    0    0 -0.39912831115E-02 -0.11951370605E+00  0.54620009949E-01  0.13289795410E+00  0.19469577362E-01 0.  0.
         14    1    1    2    0    0 -0.12395309421E-01  0.19219839508E-01 -0.69460016496E-02  0.23901733521E-01  0.00000000000E+00 0.  1.
     999901    1    3    3    0    0  0.16386592533E-01  0.10029386654E+00 -0.47674008299E-01  0.88713031238E+00  0.88000000000E+00 0.  1.
        -11    1    4    4    0    0  0.45397950120E-02 -0.61315180429E-01  0.35748184232E-01  0.71122112501E-01  0.51100000000E-03 0.  1.
         11    1    4    4    0    0 -0.85310781234E-02 -0.58198525617E-01  0.18871825717E-01  0.61775841596E-01  0.51100000000E-03 0. -1.
</event>
<event>
 8    1  0.1138737E+005  0.1043930E+01  0.7957747E-01            NaN
         13   -1    0    0    0    0  0.00000000000E+00  0.00000000000E+00  0.74505805969E-08  0.10566000000E+00  0.10566000000E+00 0.  1.
     999900   -1    0    0    0    0 -0.00000000000E+00 -0.00000000000E+00 -0.74505805969E-08  0.93827000000E+00  0.93827000000E+00 0.  1.
     999902    2    1    2    0    0  0.16829243511E-01 -0.14887915964E-01 -0.82655007969E-02  0.10199885718E+01  0.10197075535E+01 0.  0.
     999903    2    3    3    0    0  0.70035596515E-01 -0.48152235786E-01  0.98191096059E-01  0.13135454256E+00  0.19720596253E-01 0.  0.
         14    1    1    2    0    0 -0.16829243511E-01  0.14887915964E-01  0.82655007969E-02  0.23941428159E-01  0.00000000000E+00 0. -1.
     999901    1    3    3    0    0 -0.53206353005E-01  0.33264319822E-01 -0.10645659686E+00  0.88863402928E+00  0.88000000000E+00 0.  1.
        -11    1    4    4    0    0  0.44669649236E-01 -0.24510209231E-01  0.70445162691E-01  0.86941992081E-01  0.51100000000E-03 0. -1.
         11    1    4    4    0    0  0.25365947279E-01 -0.23642026555E-01  0.27745933369E-01  0.44412550484E-01  0.51100000000E-03 0.  1.
</event>
<event>
 8    1  0.1138737E+005  0.1043930E+01  0.7957747E-01            NaN
         13   -1    0    0    0    0  0.00000000000E+00  0.00000000000E+00  0.74505805969E-08  0.10566000000E+00  0.10566000000E+00 0. -1.
     999900   -1    0    0    0    0 -0.00000000000E+00 -0.00000000000E+00 -0.74505805969E-08  0.93827000000E+00  0.93827000000E+00 0. -1.
     999902    2    1    2    0    0 -0.20547400570E-01  0.19094337451E-02 -0.12534118982E-01  0.10197857306E+01  0.10194998728E+01 0.  0.
     999903    2    3    3    0    0  0.68023981337E-01  0.64245968590E-01 -0.87968444274E-01  0.12994244623E+00  0.19793575368E-01 0.  0.
         14    1    1    2    0    0  0.20547400570E-01 -0.19094337451E-02  0.12534118982E-01  0.24144269425E-01  0.00000000000E+00 0.  1.
     999901    1    3    3    0    0 -0.88571381908E-01 -0.62336534845E-01  0.75434325292E-01  0.88984328435E+00  0.88000000000E+00 0.  1.
        -11    1    4    4    0    0  0.46724450819E-01  0.55517480029E-01 -0.68533360623E-01  0.99812061057E-01  0.51100000000E-03 0. -1.
         11    1    4    4    0    0  0.21299530518E-01  0.87284885608E-02 -0.19435083651E-01  0.30130385168E-01  0.51100000000E-03 0.  1.
</event>
<event>
 8    1  0.1138737E+005  0.1043930E+01  0.7957747E-01            NaN
         13   -1    0    0    0    0  0.00000000000E+00  0.00000000000E+00  0.74505805969E-08  0.10566000000E+00  0.10566000000E+00 0. -1.
     999900   -1    0    0    0    0 -0.00000000000E+00 -0.00000000000E+00 -0.74505805969E-08  0.93827000000E+00  0.93827000000E+00 0.  1.
     999902    2    1    2    0    0 -0.13524843759E-01 -0.18869473838E-02 -0.19269595311E-01  0.10203122255E+01  0.10200388415E+01 0.  0.
     999903    2    3    3    0    0  0.30889213239E-01 -0.15038100844E-01  0.12164397385E+00  0.12789853484E+00  0.19506175168E-01 0.  0.
         14    1    1    2    0    0  0.13524843759E-01  0.18869473838E-02  0.19269595311E-01  0.23617774505E-01  0.00000000000E+00 0.  1.
     999901    1    3    3    0    0 -0.44414056998E-01  0.13151153460E-01 -0.14091356916E+00  0.89241369066E+00  0.88000000000E+00 0.  1.
        -11    1    4    4    0    0  0.25644552633E-01 -0.10157967424E-01  0.62472372330E-01  0.68292648268E-01  0.51100000000E-03 0. -1.
         11    1    4    4    0    0  0.52446606062E-02 -0.48801334204E-02  0.59171601516E-01  0.59605886572E-01  0.51100000000E-03 0.  1.
</event>
<event>
 8    1  0.1138737E+005  0.1043930E+01  0.7957747E-01            NaN
         13   -1    0    0    0    0  0.00000000000E+00  0.00000000000E+00  0.74505805969E-08  0.10566000000E+00  0.10566000000E+00 0.  1.
     999900   -1    0    0    0    0 -0.00000000000E+00 -0.00000000000E+00 -0.74505805969E-08  0.93827000000E+00  0.93827000000E+00 0.  1.
     999902    2    1    2    0    0  0.16447930452E-01 -0.75195493429E-02 -0.15800208882E-01  0.10199149081E+01  0.10196321372E+01 0.  0.
     999903    2    3    3    0    0  0.82312158540E-01  0.42040851991E-01 -0.93124834392E-01  0.13268696239E+00  0.19770445854E-01 0.  0.
         14    1    1    2    0    0 -0.16447930452E-01  0.75195493429E-02  0.15800208882E-01  0.24015091905E-01  0.00000000000E+00 0. -1.
     999901    1    3    3    0    0 -0.65864228088E-01 -0.49560401334E-01  0.77324625509E-01  0.88722794570E+00  0.88000000000E+00 0. -1.
        -11    1    4    4    0    0  0.54119572085E-01  0.21753211040E-01 -0.69218385674E-01  0.90518375535E-01  0.51100000000E-03 0.  1.
         11    1    4    4    0    0  0.28192586455E-01  0.20287640951E-01 -0.23906448718E-01  0.42168586859E-01  0.51100000000E-03 0. -1.
</event>
<event>
 8    1  0.1138737E+005  0.1043930E+01  0.7957747E-01            NaN
         13   -1    0    0    0    0  0.00000000000E+00  0.00000000000E+00  0.74505805969E-08  0.10566000000E+00  0.10566000000E+00 0.  1.
     999900   -1    0    0    0    0 -0.00000000000E+00 -0.00000000000E+00 -0.74505805969E-08  0.93827000000E+00  0.93827000000E+00 0.  1.
     999902    2    1    2    0    0 -0.24520524827E-01 -0.21535828889E-02  0.35579765924E-02  0.10190592691E+01  0.10187557316E+01 0.  0.
     999903    2    3    3    0    0 -0.57584061242E-01  0.54592110750E-01  0.10258466129E+00  0.13107303304E+00  0.18981690996E-01 0.  0.
         14    1    1    2    0    0  0.24520524827E-01  0.21535828889E-02 -0.35579765924E-02  0.24870730879E-01  0.00000000000E+00 0.  1.
     999901    1    3    3    0    0  0.33063536415E-01 -0.56745693638E-01 -0.99026684698E-01  0.88798623608E+00  0.88000000000E+00 0.  1.
        -11    1    4    4    0    0 -0.44099438075E-01  0.48147704298E-01  0.73110576930E-01  0.98022341575E-01  0.51100000000E-03 0.  1.
         11    1    4    4    0    0 -0.13484623167E-01  0.64444064511E-02  0.29474084360E-01  0.33050691465E-01  0.51100000000E-03 0. -1.
</event>
<event>
 8    1  0.1138737E+005  0.1043930E+01  0.7957747E-01            NaN
         13   -1    0    0    0    0  0.00000000000E+00  0.00000000000E+00  0.74505805969E-08  0.10566000000E+00  0.10566000000E+00 0. -1.
     999900   -1    0    0    0    0 -0.00000000000E+00 -0.00000000000E+00 -0.74505805969E-08  0.93827000000E+00  0.93827000000E+00 0. -1.
     999902    2    1    2    0    0  0.23120778202E-01 -0.10168841245E-02 -0.76940501389E-02  0.10195414198E+01  0.10192496769E+01 0.  0.
     999903    2    3    3    0    0 -0.43745646825E-01  0.11778471759E+00 -0.21664207801E-01  0.12893482611E+00  0.19181505973E-01 0.  0.
         14    1    1    2    0    0 -0.23120778202E-01  0.10168841245E-02  0.76940501389E-02  0.24388580228E-01  0.00000000000E+00 0. -1.
     999901    1    3    3    0    0  0.66866425027E-01 -0.11880160171E+00  0.13970157662E-01  0.89060659366E+00  0.88000000000E+00 0. -1.
        -11    1    4    4    0    0 -0.16088677981E-01  0.23400946569E-01 -0.92187184043E-03  0.28417614752E-01  0.51100000000E-03 0. -1.
         11    1    4    4    0    0 -0.27656968844E-01  0.94383771020E-01 -0.20742335960E-01  0.10051721136E+00  0.51100000000E-03 0.  1.
</event>
<event>
 8    1  0.1138737E+005  0.1043930E+01  0.7957747E-01            NaN
         13   -1    0    0    0    0  0.00000000000E+00  0.00000000000E+00  0.74505805969E-08  0.10566000000E+00  0.10566000000E+00 0. -1.
     999900   -1    0    0    0    0 -0.00000000000E+00 -0.00000000000E+00 -0.74505805969E-08  0.93827000000E+00  0.93827000000E+00 0.  1.
     999902    2    1    2    0    0  0.81042891553E-03  0.79277174346E-02  0.22176987226E-01  0.10203646810E+01  0.10200925242E+01 0.  0.
     999903    2    3    3    0    0 -0.92806717380E-01  0.62674803675E-01 -0.61902454809E-01  0.12972964567E+00  0.21369352970E-01 0.  0.
         14    1    1    2    0    0 -0.81042891553E-03 -0.79277174346E-02 -0.22176987226E-01  0.23565319034E-01  0.00000000000E+00 0.  1.
     999901    1    3    3    0    0  0.93617146296E-01 -0.54747086241E-01  0.84079442035E-01  0.89063503530E+00  0.88000000000E+00 0.  1.
        -11    1    4    4    0    0 -0.87421195675E-01  0.58594895272E-01 -0.51135856477E-01  0.11700839348E+00  0.51100000000E-03 0. -1.
         11    1    4    4    0    0 -0.53855217050E-02  0.40799084035E-02 -0.10766598332E-01  0.12721252189E-01  0.51100000000E-03 0.  1.
</event>
<event>
 8    1  0.1138737E+005  0.1043930E+01  0.7957747E-01            NaN
         13   -1    0    0    0    0  0.00000000000E+00  0.00000000000E+00  0.74505805969E-08  0.10566000000E+00  0.10566000000E+00 0. -1.
     999900   -1    0    0    0    0 -0.00000000000E+00 -0.00000000000E+00 -0.74505805969E-08  0.93827000000E+00  0.93827000000E+00 0.  1.
     999902    2    1    2    0    0 -0.30399804250E-02 -0.20093463883E-01  0.11956419964E-01  0.10203515193E+01  0.10200790549E+01 0.  0.
     999903    2    3    3    0    0  0.11202198487E-01 -0.11172401963E+00 -0.66566050371E-01  0.13200205165E+00  0.19640691555E-01 0.  0.
         14    1    1    2    0    0  0.30399804250E-02  0.20093463883E-01 -0.11956419964E-01  0.23578480658E-01  0.00000000000E+00 0.  1.
     999901    1    3    3    0    0 -0.14242178912E-01  0.91630555742E-01  0.78522470335E-01  0.88834946769E+00  0.88000000000E+00 0. -1.
        -11    1    4    4    0    0  0.14890008079E-01 -0.55385047798E-01 -0.29905900014E-01  0.64682608457E-01  0.51100000000E-03 0. -1.
         11    1    4    4    0    0 -0.36878095924E-02 -0.56338971827E-01 -0.36660150357E-01  0.67319443190E-01  0.51100000000E-03 0.  1.
</event>
<event>
 8    1  0.1138737E+005  0.1043930E+01  0.7957747E-01            NaN
         13   -1    0    0    0    0  0.00000000000E+00  0.00000000000E+00  0.74505805969E-08  0.10566000000E+00  0.10566000000E+00 0.  1.
     999900   -1    0    0    0    0 -0.00000000000E+00 -0.00000000000E+00 -0.74505805969E-08  0.93827000000E+00  0.93827000000E+00 0.  1.
     999902    2    1    2    0    0  0.22485042872E-01 -0.15067893511E-02 -0.94541711533E-02  0.10194917325E+01  0.10191987852E+01 0.  0.
     999903    2    3    3    0    0 -0.23251323054E-01  0.16480712100E-01 -0.12634671870E+00  0.13040274197E+00  0.15137499490E-01 0.  0.
         14    1    1    2    0    0 -0.22485042872E-01  0.15067893511E-02  0.94541711533E-02  0.24438267519E-01  0.00000000000E+00 0.  1.
     999901    1    3    3    0    0  0.45736365926E-01 -0.17987501451E-01  0.11689254755E+00  0.88908899051E+00  0.88000000000E+00 0. -1.
        -11    1    4    4    0    0 -0.19932241650E-01  0.63017997182E-02 -0.70461589596E-01  0.73499004526E-01  0.51100000000E-03 0.  1.
         11    1    4    4    0    0 -0.33190814041E-02  0.10178912382E-01 -0.55885129108E-01  0.56903737444E-01  0.51100000000E-03 0. -1.
</event>
<event>
 8    1  0.1138737E+005  0.1043930E+01  0.7957747E-01            NaN
         13   -1    0    0    0    0  0.00000000000E+00  0.00000000000E+00  0.74505805969E-08  0.10566000000E+00  0.10566000000E+00 0.  1.
     999900   -1    0    0    0    0 -0.00000000000E+00 -0.00000000000E+00 -0.74505805969E-08  0.93827000000E+00  0.93827000000E+00 0.  1.
     999902    2    1    2    0    0 -0.72527504723E-02 -0.18991240881E-01  0.82584752203E-03  0.10235841984E+01  0.10233819715E+01 0.  0.
     999903    2    3    3    0    0  0.53936695772E-02  0.76905273110E-01 -0.10526032212E+00  0.13195067011E+00  0.19690891996E-01 0.  0.
         14    1    1    2    0    0  0.72527504723E-02  0.18991240881E-01 -0.82584752203E-03  0.20345801624E-01  0.00000000000E+00 0.  1.
     999901    1    3    3    0    0 -0.12646420050E-01 -0.95896513990E-01  0.10608616964E+00  0.89163352826E+00  0.88000000000E+00 0.  1.
        -11    1    4    4    0    0 -0.21810040468E-02  0.55713580599E-01 -0.63471914510E-01  0.84484938861E-01  0.51100000000E-03 0. -1.
         11    1    4    4    0    0  0.75746736240E-02  0.21191692511E-01 -0.41788407606E-01  0.47465731251E-01  0.51100000000E-03 0.  1.
</event>
<event>
 8    1  0.1138737E+005  0.1043930E+01  0.7957747E-01            NaN
         13   -1    0    0    0    0  0.00000000000E+00  0.00000000000E+00  0.74505805969E-08  0.10566000000E+00  0.10566000000E+00 0.  1.
     999900   -1    0    0    0    0 -0.00000000000E+00 -0.00000000000E+00 -0.74505805969E-08  0.93827000000E+00  0.93827000000E+00 0.  1.
     999902    2    1    2    0    0 -0.12882616546E-01 -0.61491743878E-02 -0.18371353463E-01  0.10206645582E+01  0.10203993628E+01 0.  0.
     999903    2    3    3    0    0  0.84260252732E-01 -0.71043241520E-02  0.93698517832E-01  0.12825360721E+00  0.22788459963E-01 0.  0.
         14    1    1    2    0    0  0.12882616546E-01  0.61491743878E-02  0.18371353463E-01  0.23265441813E-01  0.00000000000E+00 0.  1.
     999901    1    3    3    0    0 -0.97142869278E-01  0.95514976417E-03 -0.11206987130E+00  0.89241095097E+00  0.88000000000E+00 0.  1.
        -11    1    4    4    0    0  0.76955298950E-01 -0.51015242153E-02  0.72953757098E-01  0.10616334293E+00  0.51100000000E-03 0.  1.
         11    1    4    4    0    0  0.73049537814E-02 -0.20027999366E-02  0.20744760735E-01  0.22090264287E-01  0.51100000000E-03 0. -1.
</event>
<event>
 8    1  0.1138737E+005  0.1043930E+01  0.7957747E-01            NaN
         13   -1    0    0    0    0  0.00000000000E+00  0.00000000000E+00  0.74505805969E-08  0.10566000000E+00  0.10566000000E+00 0.  1.
     999900   -1    0    0    0    0 -0.00000000000E+00 -0.00000000000E+00 -0.74505805969E-08  0.93827000000E+00  0.93827000000E+00 0. -1.
     999902    2    1    2    0    0  0.84053524853E-02 -0.14588707113E-01 -0.16260229871E-01  0.10205232616E+01  0.10202547977E+01 0.  0.
     999903    2    3    3    0    0  0.46524484843E-01 -0.26710850315E-01 -0.12062729497E+00  0.13345364831E+00  0.19517549553E-01 0.  0.
         14    1    1    2    0    0 -0.84053524853E-02  0.14588707113E-01  0.16260229871E-01  0.23406738369E-01  0.00000000000E+00 0.  1.
     999901    1    3    3    0    0 -0.38119132358E-01  0.12122143202E-01  0.10436706510E+00  0.88706961332E+00  0.88000000000E+00 0.  1.
        -11    1    4    4    0    0  0.16082881876E-01 -0.74137314664E-03 -0.46555307854E-01  0.49263237145E-01  0.51100000000E-03 0. -1.
         11    1    4    4    0    0  0.30441602967E-01 -0.25969477169E-01 -0.74071987113E-01  0.84190411161E-01  0.51100000000E-03 0.  1.
</event>
<event>
 8    1  0.1138737E+005  0.1043930E+01  0.7957747E-01            NaN
         13   -1    0    0    0    0  0.00000000000E+00  0.00000000000E+00  0.74505805969E-08  0.10566000000E+00  0.10566000000E+00 0.  1.
     999900   -1    0    0    0    0 -0.00000000000E+00 -0.00000000000E+00 -0.74505805969E-08  0.93827000000E+00  0.93827000000E+00 0.  1.
     999902    2    1    2    0    0  0.21030713463E-02  0.12736287708E-01 -0.18673387448E-01  0.10212290896E+01  0.10209767491E+01 0.  0.
     999903    2    3    3    0    0  0.35220003455E-01  0.11023347283E+00 -0.65713336206E-01  0.13397760943E+00  0.15488385949E-01 0.  0.
         14    1    1    2    0    0 -0.21030713463E-02 -0.12736287708E-01  0.18673387448E-01  0.22700910388E-01  0.00000000000E+00 0.  1.
     999901    1    3    3    0    0 -0.33116932108E-01 -0.97497185119E-01  0.47039948759E-01  0.88725148018E+00  0.88000000000E+00 0. -1.
        -11    1    4    4    0    0  0.29696765055E-01  0.75203111076E-01 -0.50889915876E-01  0.95537691144E-01  0.51100000000E-03 0. -1.
         11    1    4    4    0    0  0.55232383999E-02  0.35030361752E-01 -0.14823420331E-01  0.38439918291E-01  0.51100000000E-03 0.  1.
</event>
<event>
 8    1  0.1138737E+005  0.1043930E+01  0.7957747E-01            NaN
         13   -1    0    0    0    0  0.00000000000E+00  0.00000000000E+00  0.74505805969E-08  0.10566000000E+00  0.10566000000E+00 0. -1.
     999900   -1    0    0    0    0 -0.00000000000E+00 -0.00000000000E+00 -0.74505805969E-08  0.93827000000E+00  0.93827000000E+00 0. -1.
     999902    2    1    2    0    0  0.26314360998E-02  0.10325502119E-01  0.22079593162E-01  0.10194137017E+01  0.10191188578E+01 0.  0.
     999903    2    3    3    0    0  0.15203012506E-01 -0.12455662230E+00 -0.16657452883E-01  0.12820565033E+00  0.20340459470E-01 0.  0.
         14    1    1    2    0    0 -0.26314360998E-02 -0.10325502119E-01 -0.22079593162E-01  0.24516298337E-01  0.00000000000E+00 0.  1.
     999901    1    3    3    0    0 -0.12571576407E-01  0.13488212442E+00  0.38737046046E-01  0.89120805133E+00  0.88000000000E+00 0. -1.
        -11    1    4    4    0    0  0.77046253992E-02 -0.52389558532E-01  0.29753225740E-02  0.53039049399E-01  0.51100000000E-03 0.  1.
         11    1    4    4    0    0  0.74983871073E-02 -0.72167063771E-01 -0.19632775457E-01  0.75166600932E-01  0.51100000000E-03 0. -1.
</event>
<event>
 8    1  0.1138737E+005  0.1043930E+01  0.7957747E-01            NaN
         13   -1    0    0    0    0  0.00000000000E+00  0.00000000000E+00  0.74505805969E-08  0.10566000000E+00  0.10566000000E+00 0. -1.
     999900   -1    0    0    0    0 -0.00000000000E+00 -0.00000000000E+00 -0.74505805969E-08  0.93827000000E+00  0.93827000000E+00 0. -1.
     999902    2    1    2    0    0 -0.68251197125E-02  0.18711578368E-01  0.13222416733E-01  0.10200231447E+01  0.10197429471E+01 0.  0.
     999903    2    3    3    0    0  0.95563181163E-01  0.41289203247E-01 -0.74263924547E-01  0.12949129623E+00  0.20389835991E-01 0.  0.
         14    1    1    2    0    0  0.68251197125E-02 -0.18711578368E-01 -0.13222416733E-01  0.23906855259E-01  0.00000000000E+00 0.  1.
     999901    1    3    3    0    0 -0.10238830088E+00 -0.22577624879E-01  0.87486341280E-01  0.89053184851E+00  0.88000000000E+00 0.  1.
        -11    1    4    4    0    0  0.36046210591E-01  0.53717115289E-02 -0.28430225165E-01  0.46224705588E-01  0.51100000000E-03 0. -1.
         11    1    4    4    0    0  0.59516970571E-01  0.35917491718E-01 -0.45833699382E-01  0.83266590643E-01  0.51100000000E-03 0.  1.
</event>
<event>
 8    1  0.1138737E+005  0.1043930E+01  0.7957747E-01            NaN
         13   -1    0    0    0    0  0.00000000000E+00  0.00000000000E+00  0.74505805969E-08  0.10566000000E+00  0.10566000000E+00 0.  1.
     999900   -1    0    0    0    0 -0.00000000000E+00 -0.00000000000E+00 -0.74505805969E-08  0.93827000000E+00  0.93827000000E+00 0.  1.
     999902    2    1    2    0    0  0.79425231342E-02 -0.24144885719E-01  0.48677864363E-02  0.10180503840E+01  0.10177213911E+01 0.  0.
     999903    2    3    3    0    0 -0.99811801473E-01  0.15101214190E-01  0.75729115066E-01  0.12778492991E+00  0.20090969618E-01 0.  0.
         14    1    1    2    0    0 -0.79425231342E-02  0.24144885719E-01 -0.48677864363E-02  0.25879616011E-01  0.00000000000E+00 0. -1.
     999901    1    3    3    0    0  0.10775432461E+00 -0.39246099909E-01 -0.70861328630E-01  0.89026545408E+00  0.88000000000E+00 0. -1.
        -11    1    4    4    0    0 -0.85618226109E-01  0.73076228077E-02  0.57484947838E-01  0.10338598716E+00  0.51100000000E-03 0. -1.
         11    1    4    4    0    0 -0.14193575365E-01  0.77935913826E-02  0.18244167228E-01  0.24398942746E-01  0.51100000000E-03 0.  1.
</event>
<event>
 8    1  0.1138737E+005  0.1043930E+01  0.7957747E-01            NaN
         13   -1    0    0    0    0  0.00000000000E+00  0.00000000000E+00  0.74505805969E-08  0.10566000000E+00  0.10566000000E+00 0. -1.
     999900   -1    0    0    0    0 -0.00000000000E+00 -0.00000000000E+00 -0.74505805969E-08  0.93827000000E+00  0.93827000000E+00 0.  1.
     999902    2    1    2    0    0  0.60826835654E-02 -0.95782253059E-02 -0.20028787185E-01  0.10209105787E+01  0.10206510256E+01 0.  0.
     999903    2    3    3    0    0 -0.59145163080E-01 -0.11598173196E+00 -0.91089511683E-02  0.13203734760E+00  0.20024377783E-01 0.  0.
         14    1    1    2    0    0 -0.60826835654E-02  0.95782253059E-02  0.20028787185E-01  0.23019421267E-01  0.00000000000E+00 0. -1.
     999901    1    3    3    0    0  0.65227846646E-01  0.10640350665E+00 -0.10919836016E-01  0.88887323113E+00  0.88000000000E+00 0. -1.
        -11    1    4    4    0    0 -0.49952232763E-01 -0.89292916263E-01 -0.14364148330E-01  0.10332008677E+00  0.51100000000E-03 0.  1.
         11    1    4    4    0    0 -0.91929303174E-02 -0.26688815697E-01  0.52551971619E-02  0.28717260826E-01  0.51100000000E-03 0. -1.
</event>
<event>
 8    1  0.1138737E+005  0.1043930E+01  0.7957747E-01            NaN
         13   -1    0    0    0    0  0.00000000000E+00  0.00000000000E+00  0.74505805969E-08  0.10566000000E+00  0.10566000000E+00 0.  1.
     999900   -1    0    0    0    0 -0.00000000000E+00 -0.00000000000E+00 -0.74505805969E-08  0.93827000000E+00  0.93827000000E+00 0. -1.
     999902    2    1    2    0    0 -0.14791176587E-02 -0.19256322639E-01 -0.20359896797E-01  0.10158672284E+01  0.10154795452E+01 0.  0.
     999903    2    3    3    0    0 -0.71842428258E-01  0.86803554648E-01 -0.54287828417E-01  0.12606343118E+00  0.15767966579E-01 0.  0.
         14    1    1    2    0    0  0.14791176587E-02  0.19256322639E-01  0.20359896797E-01  0.28062771571E-01  0.00000000000E+00 0.  1.
     999901    1    3    3    0    0  0.70363310599E-01 -0.10605987729E+00  0.33927931620E-01  0.88980379725E+00  0.88000000000E+00 0.  1.
        -11    1    4    4    0    0 -0.19443580559E-01  0.29078459706E-01 -0.23999034189E-01  0.42424337435E-01  0.51100000000E-03 0.  1.
         11    1    4    4    0    0 -0.52398847699E-01  0.57725094943E-01 -0.30288794228E-01  0.83639093749E-01  0.51100000000E-03 0. -1.
</event>
<event>
 8    1  0.1138737E+005  0.1043930E+01  0.7957747E-01            NaN
         13   -1    0    0    0    0  0.00000000000E+00  0.00000000000E+00  0.74505805969E-08  0.10566000000E+00  0.10566000000E+00 0. -1.
     999900   -1    0    0    0    0 -0.00000000000E+00 -0.00000000000E+00 -0.74505805969E-08  0.93827000000E+00  0.93827000000E+00 0. -1.
     999902    2    1    2    0    0  0.18036260655E-01  0.81940296957E-02  0.12996706948E-01  0.10202368953E+01  0.10199617440E+01 0.  0.
     999903    2    3    3    0    0  0.26680212023E-01  0.64215255182E-01 -0.10803250933E+00  0.13014635672E+00  0.20775427386E-01 0.  0.
         14    1    1    2    0    0 -0.18036260655E-01 -0.81940296957E-02 -0.12996706948E-01  0.23693104747E-01  0.00000000000E+00 0.  1.
     999901    1    3    3    0    0 -0.86439513681E-02 -0.56021225486E-01  0.12102921628E+00  0.89009053854E+00  0.88000000000E+00 0.  1.
        -11    1    4    4    0    0  0.80050710061E-02  0.41676194193E-01 -0.73512115448E-01  0.84883912273E-01  0.51100000000E-03 0.  1.
         11    1    4    4    0    0  0.18675141017E-01  0.22539060989E-01 -0.34520393880E-01  0.45262444443E-01  0.51100000000E-03 0. -1.
</event>
<event>
 8    1  0.1138737E+005  0.1043930E+01  0.7957747E-01            NaN
         13   -1    0    0    0    0  0.00000000000E+00  0.00000000000E+00  0.74505805969E-08  0.10566000000E+00  0.10566000000E+00 0. -1.
     999900   -1    0    0    0    0 -0.00000000000E+00 -0.00000000000E+00 -0.74505805969E-08  0.93827000000E+00  0.93827000000E+00 0. -1.
     999902    2    1    2    0    0 -0.15847511814E-01  0.83653606546E-02 -0.13757059224E-01  0.10213384182E+01  0.10210885294E+01 0.  0.
     999903    2    3    3    0    0 -0.12325145551E-01  0.11402460010E+00  0.61387640909E-01  0.13183124684E+00  0.21389636422E-01 0.  0.
         14    1    1    2    0    0  0.15847511814E-01 -0.83653606546E-02  0.13757059224E-01  0.22591581796E-01  0.00000000000E+00 0. -1.
     999901    1    3    3    0    0 -0.35223662623E-02 -0.10565923945E+00 -0.75144700133E-01  0.88950717136E+00  0.88000000000E+00 0.  1.
        -11    1    4    4    0    0 -0.69622422669E-02  0.88109571261E-01  0.56537525372E-01  0.10492150524E+00  0.51100000000E-03 0. -1.
         11    1    4    4    0    0 -0.53629032845E-02  0.25915028842E-01  0.48501155367E-02  0.26909741605E-01  0.51100000000E-03 0.  1.
</event>
<event>
 8    1  0.1138737E+005  0.1043930E+01  0.7957747E-01            NaN
         13   -1    0    0    0    0  0.00000000000E+00  0.00000000000E+00  0.74505805969E-08  0.10566000000E+00  0.10566000000E+00 0.  1.
     999900   -1    0    0    0    0 -0.00000000000E+00 -0.00000000000E+00 -0.74505805969E-08  0.93827000000E+00  0.93827000000E+00 0.  1.
     999902    2    1    2    0    0  0.15886838206E-01 -0.16548207851E-01  0.53706638552E-02  0.10203698888E+01  0.10200978537E+01 0.  0.
     999903    2    3    3    0    0 -0.38796710703E-01  0.12035557878E+00  0.31668990417E-02  0.12810434875E+00  0.20249563290E-01 0.  0.
         14    1    1    2    0    0 -0.15886838206E-01  0.16548207851E-01 -0.53706638552E-02  0.23560111237E-01  0.00000000000E+00 0. -1.
     999901    1    3    3    0    0  0.54683548908E-01 -0.13690378663E+00  0.22037648135E-02  0.89226554001E+00  0.88000000000E+00 0. -1.
        -11    1    4    4    0    0 -0.40335968974E-02  0.43558533364E-01  0.20759088502E-02  0.43797103230E-01  0.51100000000E-03 0. -1.
         11    1    4    4    0    0 -0.34763113805E-01  0.76797045419E-01  0.10909901915E-02  0.84307245519E-01  0.51100000000E-03 0.  1.
</event>
<event>
 8    1  0.1138737E+005  0.1043930E+01  0.7957747E-01            NaN
         13   -1    0    0    0    0  0.00000000000E+00  0.00000000000E+00  0.74505805969E-08  0.10566000000E+00  0.10566000000E+00 0. -1.
     999900   -1    0    0    0    0 -0.00000000000E+00 -0.00000000000E+00 -0.74505805969E-08  0.93827000000E+00  0.93827000000E+00 0.  1.
     999902    2    1    2    0    0 -0.58413696758E-02  0.30823332536E-01 -0.29013947256E-02  0.10124241669E+01  0.10119338299E+01 0.  0.
     999903    2    3    3    0    0  0.48858743095E-01 -0.99554150893E-01 -0.42604389657E-01  0.12025449787E+00  0.18649517493E-01 0.  0.
         14    1    1    2    0    0  0.58413696758E-02 -0.30823332536E-01  0.29013947256E-02  0.31505833106E-01  0.00000000000E+00 0. -1.
     999901    1    3    3    0    0 -0.54700112770E-01  0.13037748343E+00  0.39702994931E-01  0.89216966903E+00  0.88000000000E+00 0.  1.
        -11    1    4    4    0    0  0.12375454822E-01 -0.10734576588E-01 -0.73862495808E-02  0.17977786862E-01  0.51100000000E-03 0. -1.
         11    1    4    4    0    0  0.36483288273E-01 -0.88819574305E-01 -0.35218140076E-01  0.10227671101E+00  0.51100000000E-03 0.  1.
</event>
<event>
 8    1  0.1138737E+005  0.1043930E+01  0.7957747E-01            NaN
         13   -1    0    0    0    0  0.00000000000E+00  0.00000000000E+00  0.74505805969E-08  0.10566000000E+00  0.10566000000E+00 0.  1.
     999900   -1    0    0    0    0 -0.00000000000E+00 -0.00000000000E+00 -0.74505805969E-08  0.93827000000E+00  0.93827000000E+00 0. -1.
     999902    2    1    2    0    0 -0.19057227151E-02 -0.20685566526E-01  0.12508748873E-01  0.10196814281E+01  0.10193930653E+01 0.  0.
     999903    2    3    3    0    0 -0.11398193815E+00 -0.62289361426E-01  0.53103496191E-02  0.13156895167E+00  0.20256911365E-01 0.  0.
         14    1    1    2    0    0  0.19057227151E-02  0.20685566526E-01 -0.12508748873E-01  0.24248571916E-01  0.00000000000E+00 0. -1.
     999901    1    3    3    0    0  0.11207621544E+00  0.41603794900E-01  0.71983992541E-02  0.88811247642E+00  0.88000000000E+00 0.  1.
        -11    1    4    4    0    0 -0.69965598759E-01 -0.33555909564E-01 -0.58920877502E-02  0.77821346015E-01  0.51100000000E-03 0.  1.
         11    1    4    4    0    0 -0.44016339392E-01 -0.28733451862E-01  0.11202437369E-01  0.53747605652E-01  0.51100000000E-03 0. -1.
</event>
<event>
 8    1  0.1138737E+005  0.1043930E+01  0.7957747E-01            NaN
         13   -1    0    0    0    0  0.00000000000E+00  0.00000000000E+00  0.74505805969E-08  0.10566000000E+00  0.10566000000E+00 0.  1.
     999900   -1    0    0    0    0 -0.00000000000E+00 -0.00000000000E+00 -0.74505805969E-08  0.93827000000E+00  0.93827000000E+00 0. -1.
     999902    2    1    2    0    0  0.87808794469E-02 -0.20514959810E-01  0.81632301552E-02  0.10201685660E+01  0.10198918067E+01 0.  0.
     999903    2    3    3    0    0  0.44737599369E-01 -0.70121345603E-01  0.10007816002E+00  0.13326268961E+00  0.28720209309E-01 0.  0.
         14    1    1    2    0    0 -0.87808794469E-02  0.20514959810E-01 -0.81632301552E-02  0.23761434014E-01  0.00000000000E+00 0.  1.
     999901    1    3    3    0    0 -0.35956719922E-01  0.49606385793E-01 -0.91914929863E-01  0.88690587638E+00  0.88000000000E+00 0. -1.
        -11    1    4    4    0    0  0.46987827208E-01 -0.65423004419E-01  0.84113750964E-01  0.11646205234E+00  0.51100000000E-03 0. -1.
         11    1    4    4    0    0 -0.22502278392E-02 -0.46983411836E-02  0.15964409054E-01  0.16800637269E-01  0.51100000000E-03 0.  1.
</event>
<event>
 7    1  0.1138737E+005  0.1043930E+01  0.7957747E-01            NaN
         13   -1    0    0    0    0  0.00000000000E+00  0.00000000000E+00  0.74505805969E-08  0.10566000000E+00  0.10566000000E+00 0. -1.
     999900   -1    0    0    0    0 -0.00000000000E+00 -0.00000000000E+00 -0.74505805969E-08  0.93827000000E+00  0.93827000000E+00 0.  1.
     999902    2    1    2    0    0  0.20464915182E-01 -0.10023111861E-01 -0.47023695158E-02  0.10206622583E+01  0.10203970099E+01 0.  0.
         14    1    1    2    0    0 -0.20464915182E-01  0.10023111861E-01  0.47023695158E-02  0.23267741700E-01  0.00000000000E+00 0. -1.
     999901    1    3    3    0    0  0.78984081919E-02 -0.10547617740E+00  0.76661580211E-01  0.88964296588E+00  0.88000000000E+00 0. -1.
        -11    1    3    3    0    0 -0.36903097558E-03  0.79374291705E-02 -0.24721025352E-01  0.25971699620E-01  0.51100000000E-03 0. -1.
         11    1    3    3    0    0  0.12935537965E-01  0.87515636368E-01 -0.56642924375E-01  0.10504759280E+00  0.51100000000E-03 0.  1.
</event>
<event>
 8    1  0.1138737E+005  0.1043930E+01  0.7957747E-01            NaN
         13   -1    0    0    0    0  0.00000000000E+00  0.00000000000E+00  0.74505805969E-08  0.10566000000E+00  0.10566000000E+00 0.  1.
     999900   -1    0    0    0    0 -0.00000000000E+00 -0.00000000000E+00 -0.74505805969E-08  0.93827000000E+00  0.93827000000E+00 0. -1.
     999902    2    1    2    0    0 -0.15656689043E-01  0.43542817519E-02 -0.17745280353E-01  0.10198678584E+01  0.10195839652E+01 0.  0.
     999903    2    3    3    0    0 -0.62827395423E-01  0.11420882675E+00 -0.11452160923E-02  0.13162878098E+00  0.18272567955E-01 0.  0.
         14    1    1    2    0    0  0.15656689043E-01 -0.43542817519E-02  0.17745280353E-01  0.24062141554E-01  0.00000000000E+00 0.  1.
     999901    1    3    3    0    0  0.47170706379E-01 -0.10985454500E+00 -0.16600064261E-01  0.88823907746E+00  0.88000000000E+00 0.  1.
        -11    1    4    4    0    0 -0.36669893036E-01  0.77975263464E-01 -0.74684921557E-02  0.86491978030E-01  0.51100000000E-03 0. -1.
         11    1    4    4    0    0 -0.26157502387E-01  0.36233563288E-01  0.63232760634E-02  0.45136802954E-01  0.51100000000E-03 0.  1.
</event>
<event>
 8    1  0.1138737E+005  0.1043930E+01  0.7957747E-01            NaN
         13   -1    0    0    0    0  0.00000000000E+00  0.00000000000E+00  0.74505805969E-08  0.10566000000E+00  0.10566000000E+00 0. -1.
     999900   -1    0    0    0    0 -0.00000000000E+00 -0.00000000000E+00 -0.74505805969E-08  0.93827000000E+00  0.93827000000E+00 0.  1.
     999902    2    1    2    0    0 -0.12325015142E-01 -0.17084155726E-01 -0.10387825905E-01  0.10204421031E+01  0.10201717524E+01 0.  0.
     999903    2    3    3    0    0  0.11588391370E+00  0.49935287527E-01  0.93137356314E-02  0.12841223432E+00  0.21916702722E-01 0.  0.
         14    1    1    2    0    0  0.12325015142E-01  0.17084155726E-01  0.10387825905E-01  0.23487896929E-01  0.00000000000E+00 0. -1.
     999901    1    3    3    0    0 -0.12820892884E+00 -0.67019443253E-01 -0.19701561536E-01  0.89202986875E+00  0.88000000000E+00 0.  1.
        -11    1    4    4    0    0  0.47029783499E-01  0.92876304634E-02  0.24949478282E-03  0.47941464143E-01  0.51100000000E-03 0.  1.
         11    1    4    4    0    0  0.68854130201E-01  0.40647657063E-01  0.90642408486E-02  0.80470770182E-01  0.51100000000E-03 0. -1.
</event>
<event>
 7    1  0.1138737E+005  0.1043930E+01  0.7957747E-01            NaN
         13   -1    0    0    0    0  0.00000000000E+00  0.00000000000E+00  0.74505805969E-08  0.10566000000E+00  0.10566000000E+00 0. -1.
     999900   -1    0    0    0    0 -0.00000000000E+00 -0.00000000000E+00 -0.74505805969E-08  0.93827000000E+00  0.93827000000E+00 0. -1.
     999903    2    1    2    0    0  0.64471391617E-01 -0.49855769397E-01  0.74880513946E-01  0.11252588200E+00  0.20318087304E-01 0.  0.
         14    1    1    2    0    0 -0.14534951293E-01  0.29707679432E-01 -0.36022484876E-01  0.48902253966E-01  0.00000000000E+00 0.  1.
     999901    1    1    2    0    0 -0.49936440323E-01  0.20148089965E-01 -0.38858029070E-01  0.88250186403E+00  0.88000000000E+00 0. -1.
        -11    1    3    3    0    0  0.26654166495E-01 -0.33434325188E-01  0.38297369832E-01  0.57404253757E-01  0.51100000000E-03 0.  1.
         11    1    3    3    0    0  0.37817225121E-01 -0.16421444209E-01  0.36583144114E-01  0.55121628242E-01  0.51100000000E-03 0. -1.
</event>
<event>
 8    1  0.1138737E+005  0.1043930E+01  0.7957747E-01            NaN
         13   -1    0    0    0    0  0.00000000000E+00  0.00000000000E+00  0.74505805969E-08  0.10566000000E+00  0.10566000000E+00 0.  1.
     999900   -1    0    0    0    0 -0.00000000000E+00 -0.00000000000E+00 -0.74505805969E-08  0.93827000000E+00  0.93827000000E+00 0.  1.
     999902    2    1    2    0    0  0.20821327750E-01  0.10534295651E-01  0.25085787632E-02  0.10204610409E+01  0.10201911311E+01 0.  0.
     999903    2    3    3    0    0 -0.86662326788E-01  0.92766609570E-01  0.19429287741E-01  0.12995489277E+00  0.19868925445E-01 0.  0.
         14    1    1    2    0    0 -0.20821327750E-01 -0.10534295651E-01 -0.25085787632E-02  0.23468959107E-01  0.00000000000E+00 0. -1.
     999901    1    3    3    0    0  0.10748365454E+00 -0.82232313919E-01 -0.16920708978E-01  0.89050614812E+00  0.88000000000E+00 0. -1.
        -11    1    4    4    0    0 -0.46312231858E-01  0.57728684163E-01  0.31097806951E-02  0.74076687641E-01  0.51100000000E-03 0.  1.
         11    1    4    4    0    0 -0.40350094930E-01  0.35037925407E-01  0.16319507046E-01  0.55878205133E-01  0.51100000000E-03 0. -1.
</event>
<event>
 8    1  0.1138737E+005  0.1043930E+01  0.7957747E-01            NaN
         13   -1    0    0    0    0  0.00000000000E+00  0.00000000000E+00  0.74505805969E-08  0.10566000000E+00  0.10566000000E+00 0.  1.
     999900   -1    0    0    0    0 -0.00000000000E+00 -0.00000000000E+00 -0.74505805969E-08  0.93827000000E+00  0.93827000000E+00 0. -1.
     999902    2    1    2    0    0 -0.13444464430E-01  0.19944146279E-01  0.15977605186E-02  0.10198244937E+01  0.10195395640E+01 0.  0.
     999903    2    3    3    0    0  0.46713879109E-01  0.68408154326E-01  0.99475662939E-01  0.13103437780E+00  0.20315968285E-01 0.  0.
         14    1    1    2    0    0  0.13444464430E-01 -0.19944146279E-01 -0.15977605186E-02  0.24105506286E-01  0.00000000000E+00 0.  1.
     999901    1    3    3    0    0 -0.60158343538E-01 -0.48464008047E-01 -0.97877902420E-01  0.88879011592E+00  0.88000000000E+00 0. -1.
        -11    1    4    4    0    0  0.35336833090E-01  0.33996758599E-01  0.57979550959E-01  0.75936557852E-01  0.51100000000E-03 0. -1.
         11    1    4    4    0    0  0.11377046019E-01  0.34411395727E-01  0.41496111980E-01  0.55097819943E-01  0.51100000000E-03 0.  1.
</event>
<event>
 8    1  0.1138737E+005  0.1043930E+01  0.7957747E-01            NaN
         13   -1    0    0    0    0  0.00000000000E+00  0.00000000000E+00  0.74505805969E-08  0.10566000000E+00  0.10566000000E+00 0. -1.
     999900   -1    0    0    0    0 -0.00000000000E+00 -0.00000000000E+00 -0.74505805969E-08  0.93827000000E+00  0.93827000000E+00 0. -1.
     999902    2    1    2    0    0  0.10358329863E-01 -0.59809252219E-02 -0.18457981868E-01  0.10219353743E+01  0.10216986570E+01 0.  0.
     999903    2    3    3    0    0 -0.33209407178E-01 -0.12465031353E+00 -0.24585402342E-01  0.13288075468E+00  0.20304865611E-01 0.  0.
         14    1    1    2    0    0 -0.10358329863E-01  0.59809252219E-02  0.18457981868E-01  0.21994625678E-01  0.00000000000E+00 0. -1.
     999901    1    3    3    0    0  0.43567737040E-01  0.11866938831E+00  0.61274204740E-02  0.88905461965E+00  0.88000000000E+00 0.  1.
        -11    1    4    4    0    0 -0.11091928314E-01 -0.78740675616E-01 -0.17574681865E-01  0.81438660561E-01  0.51100000000E-03 0. -1.
         11    1    4    4    0    0 -0.22117478864E-01 -0.45909637911E-01 -0.70107204774E-02  0.51442094116E-01  0.51100000000E-03 0.  1.
</event>
<event>
 8    1  0.1138737E+005  0.1043930E+01  0.7957747E-01            NaN
         13   -1    0    0    0    0  0.00000000000E+00  0.00000000000E+00  0.74505805969E-08  0.10566000000E+00  0.10566000000E+00 0. -1.
     999900   -1    0    0    0    0 -0.00000000000E+00 -0.00000000000E+00 -0.74505805969E-08  0.93827000000E+00  0.93827000000E+00 0. -1.
     999902    2    1    2    0    0  0.85882228857E-02 -0.10583866560E-01  0.22802200119E-01  0.10173646817E+01  0.10170177872E+01 0.  0.
     999903    2    3    3    0    0  0.90645048178E-01 -0.31816020856E-01 -0.81733929915E-01  0.12713329079E+00  0.15926530897E-01 0.  0.
         14    1    1    2    0    0 -0.85882228857E-02  0.10583866560E-01 -0.22802200119E-01  0.26565318254E-01  0.00000000000E+00 0.  1.
     999901    1    3    3    0    0 -0.82056825292E-01  0.21232154296E-01  0.10453613003E+00  0.89023139095E+00  0.88000000000E+00 0.  1.
        -11    1    4    4    0    0  0.81676557907E-01 -0.24016115828E-01 -0.67969754848E-01  0.10894027091E+00  0.51100000000E-03 0. -1.
         11    1    4    4    0    0  0.89684902710E-02 -0.77999050283E-02 -0.13764175067E-01  0.18193019883E-01  0.51100000000E-03 0.  1.
</event>
<event>
 8    1  0.1232506E+005  0.1043930E+01  0.7957747E-01            NaN
         13   -1    0    0    0    0  0.00000000000E+00  0.00000000000E+00  0.74505805969E-08  0.10566000000E+00  0.10566000000E+00 0.  1.
     999900   -1    0    0    0    0 -0.00000000000E+00 -0.00000000000E+00 -0.74505805969E-08  0.93827000000E+00  0.93827000000E+00 0.  1.
     999902    2    1    2    0    0 -0.86176086463E-02 -0.54463205524E-02 -0.21401070524E-01  0.10202249076E+01  0.10199494746E+01 0.  0.
     999903    2    3    3    0    0 -0.10462706581E+00 -0.53931135057E-01 -0.58350593013E-01  0.13290655418E+00  0.20099010176E-01 0.  0.
         14    1    1    2    0    0  0.86176086463E-02  0.54463205524E-02  0.21401070524E-01  0.23705092405E-01  0.00000000000E+00 0.  1.
     999901    1    3    3    0    0  0.96009457161E-01  0.48484814505E-01  0.36949522489E-01  0.88731835342E+00  0.88000000000E+00 0. -1.
        -11    1    4    4    0    0 -0.54348572610E-01 -0.28460054430E-01 -0.19224221796E-01  0.64292875714E-01  0.51100000000E-03 0.  1.
         11    1    4    4    0    0 -0.50278493197E-01 -0.25471080627E-01 -0.39126371218E-01  0.68613678462E-01  0.51100000000E-03 0. -1.
</event>
<event>
 8    1  0.1138737E+005  0.1043930E+01  0.7957747E-01            NaN
         13   -1    0    0    0    0  0.00000000000E+00  0.00000000000E+00  0.74505805969E-08  0.10566000000E+00  0.10566000000E+00 0. -1.
     999900   -1    0    0    0    0 -0.00000000000E+00 -0.00000000000E+00 -0.74505805969E-08  0.93827000000E+00  0.93827000000E+00 0. -1.
     999902    2    1    2    0    0  0.74399735122E-03  0.14151134781E-01  0.17828326802E-01  0.10211559493E+01  0.10209019617E+01 0.  0.
     999903    2    3    3    0    0 -0.46040682199E-01  0.90938361154E-01 -0.75689800865E-01  0.13164444036E+00  0.34810670434E-01 0.  0.
         14    1    1    2    0    0 -0.74399735122E-03 -0.14151134781E-01 -0.17828326802E-01  0.22774050677E-01  0.00000000000E+00 0. -1.
     999901    1    3    3    0    0  0.46784679550E-01 -0.76787226373E-01  0.93518127668E-01  0.88951150896E+00  0.88000000000E+00 0.  1.
        -11    1    4    4    0    0 -0.31730374871E-01  0.59193587866E-01 -0.28414274591E-01  0.72926878827E-01  0.51100000000E-03 0.  1.
         11    1    4    4    0    0 -0.14310307328E-01  0.31744773288E-01 -0.47275526274E-01  0.58717561533E-01  0.51100000000E-03 0. -1.
</event>
<event>
 8    1  0.1138737E+005  0.1043930E+01  0.7957747E-01            NaN
         13   -1    0    0    0    0  0.00000000000E+00  0.00000000000E+00  0.74505805969E-08  0.10566000000E+00  0.10566000000E+00 0.  1.
     999900   -1    0    0    0    0 -0.00000000000E+00 -0.00000000000E+00 -0.74505805969E-08  0.93827000000E+00  0.93827000000E+00 0.  1.
     999902    2    1    2    0    0 -0.16180174196E-01 -0.30086457137E-03  0.17773346476E-01  0.10198929369E+01  0.10196096422E+01 0.  0.
     999903    2    3    3    0    0 -0.45047762117E-01 -0.10466702722E+00 -0.59238145724E-01  0.12991742969E+00  0.19618694373E-01 0.  0.
         14    1    1    2    0    0  0.16180174196E-01  0.30086457137E-03 -0.17773346476E-01  0.24037063079E-01  0.00000000000E+00 0. -1.
     999901    1    3    3    0    0  0.28867587921E-01  0.10436616265E+00  0.77011492200E-01  0.88997550723E+00  0.88000000000E+00 0. -1.
        -11    1    4    4    0    0 -0.20358555844E-01 -0.26264019726E-01 -0.20482101677E-01  0.39039046329E-01  0.51100000000E-03 0. -1.
         11    1    4    4    0    0 -0.24689206274E-01 -0.78403007498E-01 -0.38756044047E-01  0.90878383361E-01  0.51100000000E-03 0.  1.
</event>
<event>
 8    1  0.1138737E+005  0.1043930E+01  0.7957747E-01            NaN
         13   -1    0    0    0    0  0.00000000000E+00  0.00000000000E+00  0.74505805969E-08  0.10566000000E+00  0.10566000000E+00 0.  1.
     999900   -1    0    0    0    0 -0.00000000000E+00 -0.00000000000E+00 -0.74505805969E-08  0.93827000000E+00  0.93827000000E+00 0.  1.
     999902    2    1    2    0    0 -0.82642223355E-02  0.66140455758E-02  0.20821241255E-01  0.10205726231E+01  0.10203053033E+01 0.  0.
     999903    2    3    3    0    0 -0.44103193088E-01 -0.21320057422E-01 -0.11726071500E+00  0.12864696889E+00  0.20008269122E-01 0.  0.
         14    1    1    2    0    0  0.82642223355E-02 -0.66140455758E-02 -0.20821241255E-01  0.23357376931E-01  0.00000000000E+00 0. -1.
     999901    1    3    3    0    0  0.35838970753E-01  0.27934102998E-01  0.13808195626E+00  0.89192565418E+00  0.88000000000E+00 0. -1.
        -11    1    4    4    0    0 -0.26334447729E-02 -0.86494842126E-02 -0.14296863751E-01  0.16923653348E-01  0.51100000000E-03 0.  1.
         11    1    4    4    0    0 -0.41469748315E-01 -0.12670573210E-01 -0.10296385125E+00  0.11172331554E+00  0.51100000000E-03 0. -1.
</event>
<event>
 8    1  0.1138737E+005  0.1043930E+01  0.7957747E-01            NaN
         13   -1    0    0    0    0  0.00000000000E+00  0.00000000000E+00  0.74505805969E-08  0.10566000000E+00  0.10566000000E+00 0.  1.
     999900   -1    0    0    0    0 -0.00000000000E+00 -0.00000000000E+00 -0.74505805969E-08  0.93827000000E+00  0.93827000000E+00 0. -1.
     999902    2    1    2    0    0 -0.14415480139E-01  0.24928136115E-02 -0.18136245785E-01  0.10206288498E+01  0.10203628303E+01 0.  0.
     999903    2    3    3    0    0 -0.12202271511E+00  0.12454639355E-02 -0.50719386244E-01  0.13347467275E+00  0.18760009120E-01 0.  0.
         14    1    1    2    0    0  0.14415480139E-01 -0.24928136115E-02  0.18136245785E-01  0.23301150154E-01  0.00000000000E+00 0.  1.
     999901    1    3    3    0    0  0.10760723497E+00  0.12473496760E-02  0.32583140459E-01  0.88715417710E+00  0.88000000000E+00 0.  1.
        -11    1    4    4    0    0 -0.89961115084E-01 -0.44584503774E-02 -0.30294790674E-01  0.95031128952E-01  0.51100000000E-03 0. -1.
         11    1    4    4    0    0 -0.32061600022E-01  0.57039143128E-02 -0.20424595570E-01  0.38443543797E-01  0.51100000000E-03 0.  1.
</event>
<event>
 8    1  0.1138737E+005  0.1043930E+01  0.7957747E-01            NaN
         13   -1    0    0    0    0  0.00000000000E+00  0.00000000000E+00  0.74505805969E-08  0.10566000000E+00  0.10566000000E+00 0. -1.
     999900   -1    0    0    0    0 -0.00000000000E+00 -0.00000000000E+00 -0.74505805969E-08  0.93827000000E+00  0.93827000000E+00 0. -1.
     999902    2    1    2    0    0  0.99395200816E-02 -0.18431580512E-01  0.11932886078E-01  0.10198279049E+01  0.10195430567E+01 0.  0.
     999903    2    3    3    0    0  0.23338250708E-01  0.25013737065E-01 -0.12219909871E+00  0.12850393967E+00  0.20255414012E-01 0.  0.
         14    1    1    2    0    0 -0.99395200816E-02  0.18431580512E-01 -0.11932886078E-01  0.24102095132E-01  0.00000000000E+00 0.  1.
     999901    1    3    3    0    0 -0.13398730627E-01 -0.43445317576E-01  0.13413198478E+00  0.89132396520E+00  0.88000000000E+00 0.  1.
        -11    1    4    4    0    0  0.42411204605E-03  0.13074648231E-03 -0.34490339214E-01  0.34496979372E-01  0.51100000000E-03 0.  1.
         11    1    4    4    0    0  0.22914138662E-01  0.24882990582E-01 -0.87708759493E-01  0.94006960294E-01  0.51100000000E-03 0. -1.
</event>
<event>
 8    1  0.1138737E+005  0.1043930E+01  0.7957747E-01            NaN
         13   -1    0    0    0    0  0.00000000000E+00  0.00000000000E+00  0.74505805969E-08  0.10566000000E+00  0.10566000000E+00 0.  1.
     999900   -1    0    0    0    0 -0.00000000000E+00 -0.00000000000E+00 -0.74505805969E-08  0.93827000000E+00  0.93827000000E+00 0. -1.
     999902    2    1    2    0    0 -0.88657414186E-02  0.71153612917E-02 -0.20430347846E-01  0.10205499048E+01  0.10202820587E+01 0.  0.
     999903    2    3    3    0    0 -0.10481183874E+00  0.77473086799E-01  0.62350006334E-02  0.13214295757E+00  0.20863491638E-01 0.  0.
         14    1    1    2    0    0  0.88657414186E-02 -0.71153612917E-02  0.20430347846E-01  0.23380095174E-01  0.00000000000E+00 0.  1.
     999901    1    3    3    0    0  0.95946097321E-01 -0.70357725507E-01 -0.26665348480E-01  0.88840694726E+00  0.88000000000E+00 0. -1.
        -11    1    4    4    0    0 -0.32358956036E-01  0.36364301603E-01  0.14541856779E-02  0.48701542520E-01  0.51100000000E-03 0.  1.
         11    1    4    4    0    0 -0.72452882704E-01  0.41108785196E-01  0.47808149555E-02  0.83441415047E-01  0.51100000000E-03 0. -1.
</event>
<event>
 8    1  0.1138737E+005  0.1043930E+01  0.7957747E-01            NaN
         13   -1    0    0    0    0  0.00000000000E+00  0.00000000000E+00  0.74505805969E-08  0.10566000000E+00  0.10566000000E+00 0.  1.
     999900   -1    0    0    0    0 -0.00000000000E+00 -0.00000000000E+00 -0.74505805969E-08  0.93827000000E+00  0.93827000000E+00 0.  1.
     999902    2    1    2    0    0 -0.62415533344E-02  0.28335893503E-01  0.30937617543E-02  0.10147503631E+01  0.10143307390E+01 0.  0.
     999903    2    3    3    0    0  0.80597883433E-01  0.56852871055E-01  0.77280629644E-01  0.12691141533E+00  0.20148048579E-01 0.  0.
         14    1    1    2    0    0  0.62415533344E-02 -0.28335893503E-01 -0.30937617543E-02  0.29179636914E-01  0.00000000000E+00 0.  1.
     999901    1    3    3    0    0 -0.86839436768E-01 -0.28516977552E-01 -0.74186867889E-01  0.88783894776E+00  0.88000000000E+00 0. -1.
        -11    1    4    4    0    0  0.40789875128E-01  0.32902180908E-01  0.28957050780E-01  0.59876033038E-01  0.51100000000E-03 0. -1.
         11    1    4    4    0    0  0.39808008305E-01  0.23950690148E-01  0.48323578863E-01  0.67035382291E-01  0.51100000000E-03 0.  1.
</event>
<event>
 8    1  0.1138737E+005  0.1043930E+01  0.7957747E-01            NaN
         13   -1    0    0    0    0  0.00000000000E+00  0.00000000000E+00  0.74505805969E-08  0.10566000000E+00  0.10566000000E+00 0.  1.
     999900   -1    0    0    0    0 -0.00000000000E+00 -0.00000000000E+00 -0.74505805969E-08  0.93827000000E+00  0.93827000000E+00 0.  1.
     999902    2    1    2    0    0 -0.18858588857E-01  0.11561403978E-01 -0.82175258700E-02  0.10203325390E+01  0.10200596306E+01 0.  0.
     999903    2    3    3    0    0 -0.49623306003E-01  0.74362004082E-01  0.94520455267E-01  0.13160002805E+00  0.19805826668E-01 0.  0.
         14    1    1    2    0    0  0.18858588857E-01 -0.11561403978E-01  0.82175258700E-02  0.23597461029E-01  0.00000000000E+00 0. -1.
     999901    1    3    3    0    0  0.30764717147E-01 -0.62800600104E-01 -0.10273798114E+00  0.88873251092E+00  0.88000000000E+00 0.  1.
        -11    1    4    4    0    0 -0.31563159886E-01  0.47219832209E-01  0.45745916392E-01  0.72930758966E-01  0.51100000000E-03 0. -1.
         11    1    4    4    0    0 -0.18060146117E-01  0.27142171873E-01  0.48774538875E-01  0.58669269087E-01  0.51100000000E-03 0.  1.
</event>
<event>
 8    1  0.1138737E+005  0.1043930E+01  0.7957747E-01            NaN
         13   -1    0    0    0    0  0.00000000000E+00  0.00000000000E+00  0.74505805969E-08  0.10566000000E+00  0.10566000000E+00 0. -1.
     999900   -1    0    0    0    0 -0.00000000000E+00 -0.00000000000E+00 -0.74505805969E-08  0.93827000000E+00  0.93827000000E+00 0.  1.
     999902    2    1    2    0    0  0.23811413645E-01  0.16781488117E-02  0.58992310535E-02  0.10193413740E+01  0.10190447665E+01 0.  0.
     999903    2    3    3    0    0 -0.44078110178E-01 -0.38420892201E-01  0.11355529379E+00  0.12928140499E+00  0.19995803925E-01 0.  0.
         14    1    1    2    0    0 -0.23811413645E-01 -0.16781488117E-02 -0.58992310535E-02  0.24588626033E-01  0.00000000000E+00 0. -1.
     999901    1    3    3    0    0  0.67889523823E-01  0.40099041013E-01 -0.10765606273E+00  0.89005996898E+00  0.88000000000E+00 0.  1.
        -11    1    4    4    0    0 -0.16810473526E-01 -0.21772273318E-01  0.70399738781E-01  0.75584444478E-01  0.51100000000E-03 0.  1.
         11    1    4    4    0    0 -0.27267636652E-01 -0.16648618883E-01  0.43155555005E-01  0.53696960511E-01  0.51100000000E-03 0. -1.
</event>
<event>
 8    1  0.1138737E+005  0.1043930E+01  0.7957747E-01            NaN
         13   -1    0    0    0    0  0.00000000000E+00  0.00000000000E+00  0.74505805969E-08  0.10566000000E+00  0.10566000000E+00 0. -1.
     999900   -1    0    0    0    0 -0.00000000000E+00 -0.00000000000E+00 -0.74505805969E-08  0.93827000000E+00  0.93827000000E+00 0.  1.
     999902    2    1    2    0    0  0.20969821958E-01 -0.38861680113E-02  0.14854955099E-01  0.10179395128E+01  0.10176076583E+01 0.  0.
     999903    2    3    3    0    0 -0.12263297107E+00 -0.12608353112E-01 -0.16714122636E-01  0.12569826438E+00  0.17968739872E-01 0.  0.
         14    1    1    2    0    0 -0.20969821958E-01  0.38861680113E-02 -0.14854955099E-01  0.25990487217E-01  0.00000000000E+00 0.  1.
     999901    1    3    3    0    0  0.14360279302E+00  0.87221851008E-02  0.31569077736E-01  0.89224124840E+00  0.88000000000E+00 0. -1.
        -11    1    4    4    0    0 -0.75609976999E-01 -0.88970053803E-02 -0.15510740841E-02  0.76149144961E-01  0.51100000000E-03 0. -1.
         11    1    4    4    0    0 -0.47022994068E-01 -0.37113477318E-02 -0.15163048552E-01  0.49549119422E-01  0.51100000000E-03 0.  1.
</event>
<event>
 8    1  0.1138737E+005  0.1043930E+01  0.7957747E-01            NaN
         13   -1    0    0    0    0  0.00000000000E+00  0.00000000000E+00  0.74505805969E-08  0.10566000000E+00  0.10566000000E+00 0.  1.
     999900   -1    0    0    0    0 -0.00000000000E+00 -0.00000000000E+00 -0.74505805969E-08  0.93827000000E+00  0.93827000000E+00 0. -1.
     999902    2    1    2    0    0 -0.19502315464E-01 -0.36192510324E-02 -0.13115542658E-01  0.10201506656E+01  0.10198734842E+01 0.  0.
     999903    2    3    3    0    0 -0.12446505544E-01  0.12554736401E+00  0.23268947701E-01  0.12994977250E+00  0.20698872801E-01 0.  0.
         14    1    1    2    0    0  0.19502315464E-01  0.36192510324E-02  0.13115542658E-01  0.23779334425E-01  0.00000000000E+00 0.  1.
     999901    1    3    3    0    0 -0.70558099196E-02 -0.12916661504E+00 -0.36384490359E-01  0.89020089308E+00  0.88000000000E+00 0.  1.
        -11    1    4    4    0    0 -0.26006644799E-02  0.82169178977E-01  0.67174872150E-02  0.82485896885E-01  0.51100000000E-03 0.  1.
         11    1    4    4    0    0 -0.98458410646E-02  0.43378185033E-01  0.16551460486E-01  0.47463875613E-01  0.51100000000E-03 0. -1.
</event>
<event>
 8    1  0.1138737E+005  0.1043930E+01  0.7957747E-01            NaN
         13   -1    0    0    0    0  0.00000000000E+00  0.00000000000E+00  0.74505805969E-08  0.10566000000E+00  0.10566000000E+00 0.  1.
     999900   -1    0    0    0    0 -0.00000000000E+00 -0.00000000000E+00 -0.74505805969E-08  0.93827000000E+00  0.93827000000E+00 0. -1.
     999902    2    1    2    0    0 -0.20349301546E-01  0.31205545097E-02  0.14347787352E-01  0.10188363567E+01  0.10185272852E+01 0.  0.
     999903    2    3    3    0    0  0.13845795634E-01  0.67170007584E-01  0.10930925032E+00  0.13075453805E+00  0.21088410066E-01 0.  0.
         14    1    1    2    0    0  0.20349301546E-01 -0.31205545097E-02 -0.14347787352E-01  0.25093643333E-01  0.00000000000E+00 0.  1.
     999901    1    3    3    0    0 -0.34195097180E-01 -0.64049453074E-01 -0.94961462969E-01  0.88808181862E+00  0.88000000000E+00 0. -1.
        -11    1    4    4    0    0 -0.53362006574E-02  0.99221209834E-02  0.14846110262E-01  0.18643809514E-01  0.51100000000E-03 0. -1.
         11    1    4    4    0    0  0.19181996291E-01  0.57247886600E-01  0.94463140059E-01  0.11211072854E+00  0.51100000000E-03 0.  1.
</event>
<event>
 8    1  0.1138737E+005  0.1043930E+01  0.7957747E-01            NaN
         13   -1    0    0    0    0  0.00000000000E+00  0.00000000000E+00  0.74505805969E-08  0.10566000000E+00  0.10566000000E+00 0.  1.
     999900   -1    0    0    0    0 -0.00000000000E+00 -0.00000000000E+00 -0.74505805969E-08  0.93827000000E+00  0.93827000000E+00 0. -1.
     999902    2    1    2    0    0  0.18467523628E-01 -0.99700788907E-02  0.12303542755E-01  0.10196024628E+01  0.10193121961E+01 0.  0.
     999903    2    3    3    0    0 -0.29760347875E-01  0.98228257341E-01 -0.72990704473E-01  0.12757784645E+00  0.20346870035E-01 0.  0.
         14    1    1    2    0    0 -0.18467523628E-01  0.99700788907E-02 -0.12303542755E-01  0.24327537203E-01  0.00000000000E+00 0. -1.
     999901    1    3    3    0    0  0.48227871503E-01 -0.10819833623E+00  0.85294247229E-01  0.89202461634E+00  0.88000000000E+00 0.  1.
        -11    1    4    4    0    0 -0.53218077577E-02  0.52605153826E-01 -0.36900362427E-01  0.64478847036E-01  0.51100000000E-03 0. -1.
         11    1    4    4    0    0 -0.24438540117E-01  0.45623103515E-01 -0.36090342046E-01  0.63098999417E-01  0.51100000000E-03 0.  1.
</event>
<event>
 8    1  0.1138737E+005  0.1043930E+01  0.7957747E-01            NaN
         13   -1    0    0    0    0  0.00000000000E+00  0.00000000000E+00  0.74505805969E-08  0.10566000000E+00  0.10566000000E+00 0. -1.
     999900   -1    0    0    0    0 -0.00000000000E+00 -0.00000000000E+00 -0.74505805969E-08  0.93827000000E+00  0.93827000000E+00 0.  1.
     999902    2    1    2    0    0 -0.36329863562E-02 -0.67328697095E-03 -0.26193075818E-01  0.10174776064E+01  0.10171336935E+01 0.  0.
     999903    2    3    3    0    0  0.36435955620E-01  0.17165269731E-01  0.11653089385E+00  0.12490051410E+00  0.19961559417E-01 0.  0.
         14    1    1    2    0    0  0.36329863562E-02  0.67328697095E-03  0.26193075818E-01  0.26452393578E-01  0.00000000000E+00 0. -1.
     999901    1    3    3    0    0 -0.40068941976E-01 -0.17838556702E-01 -0.14272396967E+00  0.89257709232E+00  0.88000000000E+00 0.  1.
        -11    1    4    4    0    0  0.13415898759E-01  0.29403534501E-02  0.67600388748E-01  0.68983372618E-01  0.51100000000E-03 0.  1.
         11    1    4    4    0    0  0.23020056861E-01  0.14224916281E-01  0.48930505103E-01  0.55917141483E-01  0.51100000000E-03 0. -1.
</event>
<event>
 8    1  0.1138737E+005  0.1043930E+01  0.7957747E-01            NaN
         13   -1    0    0    0    0  0.00000000000E+00  0.00000000000E+00  0.74505805969E-08  0.10566000000E+00  0.10566000000E+00 0.  1.
     999900   -1    0    0    0    0 -0.00000000000E+00 -0.00000000000E+00 -0.74505805969E-08  0.93827000000E+00  0.93827000000E+00 0.  1.
     999902    2    1    2    0    0 -0.61375719766E-02 -0.15002043671E-01  0.17767320852E-01  0.10198798691E+01  0.10195962626E+01 0.  0.
     999903    2    3    3    0    0  0.46240581379E-01 -0.40652164831E-01 -0.11140741013E+00  0.12853958014E+00  0.17889179982E-01 0.  0.
         14    1    1    2    0    0  0.61375719766E-02  0.15002043671E-01 -0.17767320852E-01  0.24050130859E-01  0.00000000000E+00 0. -1.
     999901    1    3    3    0    0 -0.52378153356E-01  0.25650121160E-01  0.12917473098E+00  0.89134028900E+00  0.88000000000E+00 0. -1.
        -11    1    4    4    0    0  0.26934472633E-01 -0.33112767618E-01 -0.83445702877E-01  0.93730292035E-01  0.51100000000E-03 0. -1.
         11    1    4    4    0    0  0.19306108746E-01 -0.75393972126E-02 -0.27961707252E-01  0.34809288109E-01  0.51100000000E-03 0.  1.
</event>
<event>
 8    1  0.1138737E+005  0.1043930E+01  0.7957747E-01            NaN
         13   -1    0    0    0    0  0.00000000000E+00  0.00000000000E+00  0.74505805969E-08  0.10566000000E+00  0.10566000000E+00 0.  1.
     999900   -1    0    0    0    0 -0.00000000000E+00 -0.00000000000E+00 -0.74505805969E-08  0.93827000000E+00  0.93827000000E+00 0.  1.
     999902    2    1    2    0    0 -0.74019488075E-03  0.27547746867E-02  0.23410609700E-01  0.10203462488E+01  0.10200736612E+01 0.  0.
     999903    2    3    3    0    0  0.28568941281E-01 -0.11926633572E+00 -0.32193381210E-01  0.12970604054E+00  0.27323980611E-01 0.  0.
         14    1    1    2    0    0  0.74019488075E-03 -0.27547746867E-02 -0.23410609700E-01  0.23583751156E-01  0.00000000000E+00 0. -1.
     999901    1    3    3    0    0 -0.29309136162E-01  0.12202111041E+00  0.55603990911E-01  0.89064020831E+00  0.88000000000E+00 0. -1.
        -11    1    4    4    0    0  0.27533436934E-01 -0.80513445159E-01 -0.32070948374E-01  0.90935756726E-01  0.51100000000E-03 0.  1.
         11    1    4    4    0    0  0.10355043470E-02 -0.38752890560E-01 -0.12243283647E-03  0.38770283811E-01  0.51100000000E-03 0. -1.
</event>
<event>
 8    1  0.1138737E+005  0.1043930E+01  0.7957747E-01            NaN
         13   -1    0    0    0    0  0.00000000000E+00  0.00000000000E+00  0.74505805969E-08  0.10566000000E+00  0.10566000000E+00 0.  1.
     999900   -1    0    0    0    0 -0.00000000000E+00 -0.00000000000E+00 -0.74505805969E-08  0.93827000000E+00  0.93827000000E+00 0.  1.
     999902    2    1    2    0    0 -0.22764490469E-01 -0.63819359428E-02 -0.11858847436E-02  0.10202581295E+01  0.10199834770E+01 0.  0.
     999903    2    3    3    0    0  0.53734759021E-01  0.10016831763E+00 -0.57406212996E-01  0.12876173741E+00  0.19052442014E-01 0.  0.
         14    1    1    2    0    0  0.22764490469E-01  0.63819359428E-02  0.11858847436E-02  0.23671870549E-01  0.00000000000E+00 0.  1.
     999901    1    3    3    0    0 -0.76499249490E-01 -0.10655025357E+00  0.56220328252E-01  0.89149639204E+00  0.88000000000E+00 0. -1.
        -11    1    4    4    0    0  0.37092062925E-01  0.55352425329E-01 -0.25819809085E-01  0.71460728964E-01  0.51100000000E-03 0.  1.
         11    1    4    4    0    0  0.16642696096E-01  0.44815892302E-01 -0.31586403910E-01  0.57301008448E-01  0.51100000000E-03 0. -1.
</event>
<event>
 8    1  0.1138737E+005  0.1043930E+01  0.7957747E-01            NaN
         13   -1    0    0    0    0  0.00000000000E+00  0.00000000000E+00  0.74505805969E-08  0.10566000000E+00  0.10566000000E+00 0.  1.
     999900   -1    0    0    0    0 -0.00000000000E+00 -0.00000000000E+00 -0.74505805969E-08  0.93827000000E+00  0.93827000000E+00 0. -1.
     999902    2    1    2    0    0  0.21153533515E-01 -0.25212476295E-02  0.60430471197E-02  0.10217862178E+01  0.10215462436E+01 0.  0.
     999903    2    3    3    0    0 -0.18595198391E-01 -0.51394910150E-01  0.11889933685E+00  0.13234530428E+00  0.19773949256E-01 0.  0.
         14    1    1    2    0    0 -0.21153533515E-01  0.25212476295E-02 -0.60430471197E-02  0.22143782158E-01  0.00000000000E+00 0. -1.
     999901    1    3    3    0    0  0.39748731906E-01  0.48873662521E-01 -0.11285628974E+00  0.88944091356E+00  0.88000000000E+00 0. -1.
        -11    1    4    4    0    0 -0.14666080115E-01 -0.27468548101E-01  0.86058599294E-01  0.91520263736E-01  0.51100000000E-03 0.  1.
         11    1    4    4    0    0 -0.39291182760E-02 -0.23926362049E-01  0.32840737560E-01  0.40825040549E-01  0.51100000000E-03 0. -1.
</event>
<event>
 8    1  0.1138737E+005  0.1043930E+01  0.7957747E-01            NaN
         13   -1    0    0    0    0  0.00000000000E+00  0.00000000000E+00  0.74505805969E-08  0.10566000000E+00  0.10566000000E+00 0. -1.
     999900   -1    0    0    0    0 -0.00000000000E+00 -0.00000000000E+00 -0.74505805969E-08  0.93827000000E+00  0.93827000000E+00 0. -1.
     999902    2    1    2    0    0 -0.16952018730E-01  0.17002064913E-01 -0.55583149466E-02  0.10192858117E+01  0.10189878458E+01 0.  0.
     999903    2    3    3    0    0  0.82084773359E-01  0.39422675985E-02  0.96973098629E-01  0.12771891280E+00  0.12445374204E-01 0.  0.
         14    1    1    2    0    0  0.16952018730E-01 -0.17002064913E-01  0.55583149466E-02  0.24644188268E-01  0.00000000000E+00 0. -1.
     999901    1    3    3    0    0 -0.99036792089E-01  0.13059797315E-01 -0.10253141358E+00  0.89156689893E+00  0.88000000000E+00 0. -1.
        -11    1    4    4    0    0  0.40080536161E-01  0.77106375996E-02  0.51150019856E-01  0.65440728629E-01  0.51100000000E-03 0. -1.
         11    1    4    4    0    0  0.42004237198E-01 -0.37683700011E-02  0.45823078773E-01  0.62278184176E-01  0.51100000000E-03 0.  1.
</event>
<event>
 8    1  0.1138737E+005  0.1043930E+01  0.7957747E-01            NaN
         13   -1    0    0    0    0  0.00000000000E+00  0.00000000000E+00  0.74505805969E-08  0.10566000000E+00  0.10566000000E+00 0.  1.
     999900   -1    0    0    0    0 -0.00000000000E+00 -0.00000000000E+00 -0.74505805969E-08  0.93827000000E+00  0.93827000000E+00 0. -1.
     999902    2    1    2    0    0  0.66288167899E-02  0.15880126482E-02  0.23401990335E-01  0.10195555021E+01  0.10192641001E+01 0.  0.
     999903    2    3    3    0    0 -0.64683669778E-01  0.10976011253E+00 -0.10339213574E-01  0.12942902638E+00  0.20339962962E-01 0.  0.
         14    1    1    2    0    0 -0.66288167899E-02 -0.15880126482E-02 -0.23401990335E-01  0.24374497899E-01  0.00000000000E+00 0. -1.
     999901    1    3    3    0    0  0.71312486568E-01 -0.10817209989E+00  0.33741203909E-01  0.89012647572E+00  0.88000000000E+00 0. -1.
        -11    1    4    4    0    0 -0.78170239358E-03  0.13026645556E-01 -0.17291343649E-02  0.13174049481E-01  0.51100000000E-03 0.  1.
         11    1    4    4    0    0 -0.63901967385E-01  0.96733466979E-01 -0.86100792095E-02  0.11625497690E+00  0.51100000000E-03 0. -1.
</event>
<event>
 8    1  0.1138737E+005  0.1043930E+01  0.7957747E-01            NaN
         13   -1    0    0    0    0  0.00000000000E+00  0.00000000000E+00  0.74505805969E-08  0.10566000000E+00  0.10566000000E+00 0.  1.
     999900   -1    0    0    0    0 -0.00000000000E+00 -0.00000000000E+00 -0.74505805969E-08  0.93827000000E+00  0.93827000000E+00 0.  1.
     999902    2    1    2    0    0 -0.11591987725E-01 -0.20959647899E-01  0.41988975271E-02  0.10196130972E+01  0.10193230873E+01 0.  0.
     999903    2    3    3    0    0  0.46552478541E-01  0.11467851763E+00 -0.19851831179E-01  0.12700067941E+00  0.20415232193E-01 0.  0.
         14    1    1    2    0    0  0.11591987725E-01  0.20959647899E-01 -0.41988975271E-02  0.24316902762E-01  0.00000000000E+00 0.  1.
     999901    1    3    3    0    0 -0.58144466266E-01 -0.13563816553E+00  0.24050728706E-01  0.89261241783E+00  0.88000000000E+00 0. -1.
        -11    1    4    4    0    0  0.21520641357E-01  0.43242255786E-01  0.15750000956E-02  0.48329829672E-01  0.51100000000E-03 0.  1.
         11    1    4    4    0    0  0.25031837184E-01  0.71436261846E-01 -0.21426831275E-01  0.78670849740E-01  0.51100000000E-03 0. -1.
</event>
<event>
 8    1  0.1138737E+005  0.1043930E+01  0.7957747E-01            NaN
         13   -1    0    0    0    0  0.00000000000E+00  0.00000000000E+00  0.74505805969E-08  0.10566000000E+00  0.10566000000E+00 0.  1.
     999900   -1    0    0    0    0 -0.00000000000E+00 -0.00000000000E+00 -0.74505805969E-08  0.93827000000E+00  0.93827000000E+00 0.  1.
     999902    2    1    2    0    0 -0.62436635983E-02 -0.23243817619E-01  0.44450564978E-02  0.10194551778E+01  0.10191613428E+01 0.  0.
     999903    2    3    3    0    0 -0.40780631329E-01 -0.11615896105E+00  0.46173670487E-01  0.13290720776E+00  0.19399842937E-01 0.  0.
         14    1    1    2    0    0  0.62436635983E-02  0.23243817619E-01 -0.44450564978E-02  0.24474822163E-01  0.00000000000E+00 0.  1.
     999901    1    3    3    0    0  0.34536967730E-01  0.92915143427E-01 -0.41728613990E-01  0.88654797007E+00  0.88000000000E+00 0. -1.
        -11    1    4    4    0    0 -0.32960301764E-01 -0.99473053966E-01  0.31739709574E-01  0.10949401921E+00  0.51100000000E-03 0.  1.
         11    1    4    4    0    0 -0.78203295641E-02 -0.16685907080E-01  0.14433960913E-01  0.23413188553E-01  0.51100000000E-03 0. -1.
</event>
<event>
 8    1  0.1138737E+005  0.1043930E+01  0.7957747E-01            NaN
         13   -1    0    0    0    0  0.00000000000E+00  0.00000000000E+00  0.74505805969E-08  0.10566000000E+00  0.10566000000E+00 0.  1.
     999900   -1    0    0    0    0 -0.00000000000E+00 -0.00000000000E+00 -0.74505805969E-08  0.93827000000E+00  0.93827000000E+00 0. -1.
     999902    2    1    2    0    0  0.15954997727E-01 -0.11109321520E-01 -0.15980029336E-01  0.10187637465E+01  0.10184528614E+01 0.  0.
     999903    2    3    3    0    0  0.12593638369E+00 -0.19072490682E-01  0.23807177264E-01  0.13098993572E+00  0.19179388195E-01 0.  0.
         14    1    1    2    0    0 -0.15954997727E-01  0.11109321520E-01  0.15980029336E-01  0.25166253490E-01  0.00000000000E+00 0.  1.
     999901    1    3    3    0    0 -0.10998138596E+00  0.79631691614E-02 -0.39787206600E-01  0.88777381079E+00  0.88000000000E+00 0. -1.
        -11    1    4    4    0    0  0.11957860818E-01 -0.66418089078E-02  0.60577826767E-02  0.14968697768E-01  0.51100000000E-03 0. -1.
         11    1    4    4    0    0  0.11397852287E+00 -0.12430681774E-01  0.17749394588E-01  0.11602123795E+00  0.51100000000E-03 0.  1.
</event>
<event>
 8    1  0.1138737E+005  0.1043930E+01  0.7957747E-01            NaN
         13   -1    0    0    0    0  0.00000000000E+00  0.00000000000E+00  0.74505805969E-08  0.10566000000E+00  0.10566000000E+00 0. -1.
     999900   -1    0    0    0    0 -0.00000000000E+00 -0.00000000000E+00 -0.74505805969E-08  0.93827000000E+00  0.93827000000E+00 0.  1.
     999902    2    1    2    0    0  0.23352845314E-01  0.24650857556E-01 -0.92265311114E-02  0.10087426580E+01  0.10081287621E+01 0.  0.
     999903    2    3    3    0    0 -0.50026366659E-02  0.12112421126E+00 -0.90584305650E-02  0.12301630656E+00  0.18837610993E-01 0.  0.
         14    1    1    2    0    0 -0.23352845314E-01 -0.24650857556E-01  0.92265311114E-02  0.35187342025E-01  0.00000000000E+00 0.  1.
     999901    1    3    3    0    0  0.28355481979E-01 -0.96473353706E-01 -0.16810054637E-03  0.88572635142E+00  0.88000000000E+00 0.  1.
        -11    1    4    4    0    0  0.44330492866E-02  0.90455946788E-01 -0.55887070240E-02  0.90738222390E-01  0.51100000000E-03 0.  1.
         11    1    4    4    0    0 -0.94356859525E-02  0.30668264474E-01 -0.34697235410E-02  0.32278084170E-01  0.51100000000E-03 0. -1.
</event>
<event>
 8    1  0.1138737E+005  0.1043930E+01  0.7957747E-01            NaN
         13   -1    0    0    0    0  0.00000000000E+00  0.00000000000E+00  0.74505805969E-08  0.10566000000E+00  0.10566000000E+00 0. -1.
     999900   -1    0    0    0    0 -0.00000000000E+00 -0.00000000000E+00 -0.74505805969E-08  0.93827000000E+00  0.93827000000E+00 0.  1.
     999902    2    1    2    0    0  0.11170261388E-01  0.20654768560E-01 -0.33241526275E-02  0.10202140941E+01  0.10199384067E+01 0.  0.
     999903    2    3    3    0    0  0.11344584720E+00 -0.30742198287E-01 -0.53876346941E-01  0.13136232464E+00  0.23202512183E-01 0.  0.
         14    1    1    2    0    0 -0.11170261388E-01 -0.20654768560E-01  0.33241526275E-02  0.23715905938E-01  0.00000000000E+00 0.  1.
     999901    1    3    3    0    0 -0.10227558582E+00  0.51396966847E-01  0.50552194314E-01  0.88885176942E+00  0.88000000000E+00 0. -1.
        -11    1    4    4    0    0  0.65602417256E-01 -0.15613962854E-01 -0.18382449422E-01  0.69897414499E-01  0.51100000000E-03 0.  1.
         11    1    4    4    0    0  0.47843429949E-01 -0.15128235433E-01 -0.35493897520E-01  0.61464910141E-01  0.51100000000E-03 0. -1.
</event>
<event>
 8    1  0.1138737E+005  0.1043930E+01  0.7957747E-01            NaN
         13   -1    0    0    0    0  0.00000000000E+00  0.00000000000E+00  0.74505805969E-08  0.10566000000E+00  0.10566000000E+00 0.  1.
     999900   -1    0    0    0    0 -0.00000000000E+00 -0.00000000000E+00 -0.74505805969E-08  0.93827000000E+00  0.93827000000E+00 0. -1.
     999902    2    1    2    0    0 -0.41346421975E-02 -0.22283069117E-01  0.53643537214E-02  0.10206403730E+01  0.10203746196E+01 0.  0.
     999903    2    3    3    0    0  0.25255489450E-02 -0.12748859011E+00 -0.34629519300E-01  0.13344700643E+00  0.18686383041E-01 0.  0.
         14    1    1    2    0    0  0.41346421975E-02  0.22283069117E-01 -0.53643537214E-02  0.23289627009E-01  0.00000000000E+00 0.  1.
     999901    1    3    3    0    0 -0.66601911425E-02  0.10520552100E+00  0.39993873021E-01  0.88719336656E+00  0.88000000000E+00 0.  1.
        -11    1    4    4    0    0  0.23274509305E-02 -0.46967327927E-01 -0.22074947534E-01  0.51951047632E-01  0.51100000000E-03 0. -1.
         11    1    4    4    0    0  0.19809801445E-03 -0.80521262186E-01 -0.12554571766E-01  0.81495958796E-01  0.51100000000E-03 0.  1.
</event>
<event>
 8    1  0.1138737E+005  0.1043930E+01  0.7957747E-01            NaN
         13   -1    0    0    0    0  0.00000000000E+00  0.00000000000E+00  0.74505805969E-08  0.10566000000E+00  0.10566000000E+00 0. -1.
     999900   -1    0    0    0    0 -0.00000000000E+00 -0.00000000000E+00 -0.74505805969E-08  0.93827000000E+00  0.93827000000E+00 0. -1.
     999902    2    1    2    0    0  0.21978910509E-01  0.10879166015E-01  0.32184285027E-02  0.10191956708E+01  0.10188954943E+01 0.  0.
     999903    2    3    3    0    0 -0.10888669618E+00  0.33454807085E-01  0.54549598392E-01  0.12775282034E+00  0.19224663772E-01 0.  0.
         14    1    1    2    0    0 -0.21978910509E-01 -0.10879166015E-01 -0.32184285027E-02  0.24734329228E-01  0.00000000000E+00 0. -1.
     999901    1    3    3    0    0  0.13086560669E+00 -0.22575641070E-01 -0.51331169890E-01  0.89144285043E+00  0.88000000000E+00 0. -1.
        -11    1    4    4    0    0 -0.22769161378E-01  0.49847984676E-02  0.32264465531E-02  0.23536227480E-01  0.51100000000E-03 0.  1.
         11    1    4    4    0    0 -0.86117534806E-01  0.28470008617E-01  0.51323151839E-01  0.10421659286E+00  0.51100000000E-03 0. -1.
</event>
<event>
 8    1  0.1138737E+005  0.1043930E+01  0.7957747E-01            NaN
         13   -1    0    0    0    0  0.00000000000E+00  0.00000000000E+00  0.74505805969E-08  0.10566000000E+00  0.10566000000E+00 0. -1.
     999900   -1    0    0    0    0 -0.00000000000E+00 -0.00000000000E+00 -0.74505805969E-08  0.93827000000E+00  0.93827000000E+00 0.  1.
     999902    2    1    2    0    0  0.76045810391E-02  0.15181241334E-01  0.15715493740E-01  0.10207939570E+01  0.10205317370E+01 0.  0.
     999903    2    3    3    0    0  0.10848016460E+00 -0.47012183376E-01 -0.51278964516E-01  0.13032657251E+00  0.19426574705E-01 0.  0.
         14    1    1    2    0    0 -0.76045810391E-02 -0.15181241334E-01 -0.15715493740E-01  0.23136042979E-01  0.00000000000E+00 0.  1.
     999901    1    3    3    0    0 -0.10087558356E+00  0.62193424709E-01  0.66994458256E-01  0.89046738451E+00  0.88000000000E+00 0.  1.
        -11    1    4    4    0    0  0.99990171392E-01 -0.41606117793E-01 -0.40650903803E-01  0.11567999185E+00  0.51100000000E-03 0.  1.
         11    1    4    4    0    0  0.84899932037E-02 -0.54060655830E-02 -0.10628060713E-01  0.14646580666E-01  0.51100000000E-03 0. -1.
</event>
<event>
 8    1  0.1138737E+005  0.1043930E+01  0.7957747E-01            NaN
         13   -1    0    0    0    0  0.00000000000E+00  0.00000000000E+00  0.74505805969E-08  0.10566000000E+00  0.10566000000E+00 0. -1.
     999900   -1    0    0    0    0 -0.00000000000E+00 -0.00000000000E+00 -0.74505805969E-08  0.93827000000E+00  0.93827000000E+00 0.  1.
     999902    2    1    2    0    0  0.28518193640E-02 -0.23106662662E-01 -0.39200235497E-02  0.10203203131E+01  0.10200471185E+01 0.  0.
     999903    2    3    3    0    0  0.60132308289E-01 -0.10197342663E+00  0.56713531719E-01  0.13286470915E+00  0.20545851660E-01 0.  0.
         14    1    1    2    0    0 -0.28518193640E-02  0.23106662662E-01  0.39200235497E-02  0.23609686946E-01  0.00000000000E+00 0.  1.
     999901    1    3    3    0    0 -0.57280488925E-01  0.78866763964E-01 -0.60633555269E-01  0.88745560390E+00  0.88000000000E+00 0.  1.
        -11    1    4    4    0    0  0.40010026438E-01 -0.76934378992E-01  0.32391708415E-01  0.92569891334E-01  0.51100000000E-03 0. -1.
         11    1    4    4    0    0  0.20122281851E-01 -0.25039047633E-01  0.24321823305E-01  0.40294817820E-01  0.51100000000E-03 0.  1.
</event>
<event>
 8    1  0.1138737E+005  0.1043930E+01  0.7957747E-01            NaN
         13   -1    0    0    0    0  0.00000000000E+00  0.00000000000E+00  0.74505805969E-08  0.10566000000E+00  0.10566000000E+00 0.  1.
     999900   -1    0    0    0    0 -0.00000000000E+00 -0.00000000000E+00 -0.74505805969E-08  0.93827000000E+00  0.93827000000E+00 0. -1.
     999902    2    1    2    0    0  0.62752501646E-02 -0.21741459967E-01 -0.12467923419E-01  0.10180936117E+01  0.10177657310E+01 0.  0.
     999903    2    3    3    0    0  0.12366369764E+00 -0.14772018588E-01  0.25632197944E-01  0.12945406725E+00  0.24298627676E-01 0.  0.
         14    1    1    2    0    0 -0.62752501646E-02  0.21741459967E-01  0.12467923419E-01  0.25836388302E-01  0.00000000000E+00 0. -1.
     999901    1    3    3    0    0 -0.11738844748E+00 -0.69694413793E-02 -0.38100121363E-01  0.88863954445E+00  0.88000000000E+00 0.  1.
        -11    1    4    4    0    0  0.79785073835E-01 -0.21161822374E-01  0.16394670738E-01  0.84157751174E-01  0.51100000000E-03 0. -1.
         11    1    4    4    0    0  0.43878623810E-01  0.63898037866E-02  0.92375272060E-02  0.45296316073E-01  0.51100000000E-03 0.  1.
</event>
<event>
 8    1  0.1138737E+005  0.1043930E+01  0.7957747E-01            NaN
         13   -1    0    0    0    0  0.00000000000E+00  0.00000000000E+00  0.74505805969E-08  0.10566000000E+00  0.10566000000E+00 0. -1.
     999900   -1    0    0    0    0 -0.00000000000E+00 -0.00000000000E+00 -0.74505805969E-08  0.93827000000E+00  0.93827000000E+00 0. -1.
     999902    2    1    2    0    0  0.14443713487E-01  0.23174446362E-02  0.17476771924E-01  0.10211390157E+01  0.10208846460E+01 0.  0.
     999903    2    3    3    0    0 -0.10698348342E+00 -0.34546627951E-02 -0.68263710500E-01  0.12865410730E+00  0.20845736597E-01 0.  0.
         14    1    1    2    0    0 -0.14443713487E-01 -0.23174446362E-02 -0.17476771924E-01  0.22790984310E-01  0.00000000000E+00 0.  1.
     999901    1    3    3    0    0  0.12142719691E+00  0.57721074312E-02  0.85740482424E-01  0.89248490839E+00  0.88000000000E+00 0.  1.
        -11    1    4    4    0    0 -0.39333126910E-01 -0.10427239708E-01 -0.20662743769E-01  0.45640248701E-01  0.51100000000E-03 0. -1.
         11    1    4    4    0    0 -0.67650356513E-01  0.69725769133E-02 -0.47600966731E-01  0.83013858601E-01  0.51100000000E-03 0.  1.
</event>
<event>
 7    1  0.1138737E+005  0.1043930E+01  0.7957747E-01            NaN
         13   -1    0    0    0    0  0.00000000000E+00  0.00000000000E+00  0.74505805969E-08  0.10566000000E+00  0.10566000000E+00 0. -1.
     999900   -1    0    0    0    0 -0.00000000000E+00 -0.00000000000E+00 -0.74505805969E-08  0.93827000000E+00  0.93827000000E+00 0. -1.
     999903    2    1    2    0    0  0.52524389320E-03  0.71534120926E-01 -0.78774039206E-01  0.10839778979E+00  0.20671846591E-01 0.  0.
         14    1    1    2    0    0 -0.27789769863E-02  0.21632111559E-01  0.44953933133E-01  0.49965258608E-01  0.00000000000E+00 0. -1.
     999901    1    1    2    0    0  0.22537330931E-02 -0.93166232485E-01  0.33820106073E-01  0.88556695160E+00  0.88000000000E+00 0.  1.
        -11    1    3    3    0    0 -0.61694888853E-02  0.28305725025E-01 -0.20334756096E-01  0.35398306298E-01  0.51100000000E-03 0. -1.
         11    1    3    3    0    0  0.66947327785E-02  0.43228395901E-01 -0.58439283111E-01  0.72999483496E-01  0.51100000000E-03 0.  1.
</event>
<event>
 8    1  0.1138737E+005  0.1043930E+01  0.7957747E-01            NaN
         13   -1    0    0    0    0  0.00000000000E+00  0.00000000000E+00  0.74505805969E-08  0.10566000000E+00  0.10566000000E+00 0. -1.
     999900   -1    0    0    0    0 -0.00000000000E+00 -0.00000000000E+00 -0.74505805969E-08  0.93827000000E+00  0.93827000000E+00 0. -1.
     999902    2    1    2    0    0  0.49871535647E-02 -0.21332575317E-01  0.40978661831E-02  0.10216422685E+01  0.10213991295E+01 0.  0.
     999903    2    3    3    0    0  0.89484181171E-01  0.10301035865E-01  0.94680219952E-01  0.13240349520E+00  0.21279367298E-01 0.  0.
         14    1    1    2    0    0 -0.49871535647E-02  0.21332575317E-01 -0.40978661831E-02  0.22287731549E-01  0.00000000000E+00 0.  1.
     999901    1    3    3    0    0 -0.84497027607E-01 -0.31633611182E-01 -0.90582353769E-01  0.88923877325E+00  0.88000000000E+00 0. -1.
        -11    1    4    4    0    0  0.44674173762E-01 -0.18740224549E-02  0.57945327170E-01  0.73193003923E-01  0.51100000000E-03 0.  1.
         11    1    4    4    0    0  0.44810007410E-01  0.12175058320E-01  0.36734892781E-01  0.59210491282E-01  0.51100000000E-03 0. -1.
</event>
<event>
 8    1  0.1138737E+005  0.1043930E+01  0.7957747E-01            NaN
         13   -1    0    0    0    0  0.00000000000E+00  0.00000000000E+00  0.74505805969E-08  0.10566000000E+00  0.10566000000E+00 0. -1.
     999900   -1    0    0    0    0 -0.00000000000E+00 -0.00000000000E+00 -0.74505805969E-08  0.93827000000E+00  0.93827000000E+00 0. -1.
     999902    2    1    2    0    0 -0.47430297393E-02 -0.19376154858E-01  0.10990346236E-01  0.10211545874E+01  0.10209005691E+01 0.  0.
     999903    2    3    3    0    0  0.48752970553E-01 -0.12243629734E+00  0.68647670030E-02  0.13351714148E+00  0.20302783055E-01 0.  0.
         14    1    1    2    0    0  0.47430297393E-02  0.19376154858E-01 -0.10990346236E-01  0.22775412588E-01  0.00000000000E+00 0. -1.
     999901    1    3    3    0    0 -0.53496000292E-01  0.10306014248E+00  0.41255792327E-02  0.88763744593E+00  0.88000000000E+00 0. -1.
        -11    1    4    4    0    0  0.36761597075E-01 -0.70906474837E-01  0.10110464008E-01  0.80508544868E-01  0.51100000000E-03 0.  1.
         11    1    4    4    0    0  0.11991373478E-01 -0.51529822500E-01 -0.32456970047E-02  0.53008596612E-01  0.51100000000E-03 0. -1.
</event>
<event>
 8    1  0.1138737E+005  0.1043930E+01  0.7957747E-01            NaN
         13   -1    0    0    0    0  0.00000000000E+00  0.00000000000E+00  0.74505805969E-08  0.10566000000E+00  0.10566000000E+00 0. -1.
     999900   -1    0    0    0    0 -0.00000000000E+00 -0.00000000000E+00 -0.74505805969E-08  0.93827000000E+00  0.93827000000E+00 0. -1.
     999902    2    1    2    0    0  0.13587593794E-01 -0.15950479187E-02  0.19509122712E-01  0.10201020175E+01  0.10198236873E+01 0.  0.
     999903    2    3    3    0    0  0.60950244099E-01  0.38942145138E-01 -0.10512274643E+00  0.12913648082E+00  0.19849834732E-01 0.  0.
         14    1    1    2    0    0 -0.13587593794E-01  0.15950479187E-02 -0.19509122712E-01  0.23827982541E-01  0.00000000000E+00 0.  1.
     999901    1    3    3    0    0 -0.47362650304E-01 -0.40537193056E-01  0.12463186914E+00  0.89096553663E+00  0.88000000000E+00 0.  1.
        -11    1    4    4    0    0  0.58934104443E-01  0.30605887158E-01 -0.93355948856E-01  0.11456676352E+00  0.51100000000E-03 0. -1.
         11    1    4    4    0    0  0.20161396558E-02  0.83362579796E-02 -0.11766797575E-01  0.14569717307E-01  0.51100000000E-03 0.  1.
</event>
<event>
 8    1  0.1138737E+005  0.1043930E+01  0.7957747E-01            NaN
         13   -1    0    0    0    0  0.00000000000E+00  0.00000000000E+00  0.74505805969E-08  0.10566000000E+00  0.10566000000E+00 0.  1.
     999900   -1    0    0    0    0 -0.00000000000E+00 -0.00000000000E+00 -0.74505805969E-08  0.93827000000E+00  0.93827000000E+00 0.  1.
     999902    2    1    2    0    0  0.68325957482E-02  0.22582864357E-01 -0.80128809343E-03  0.10203225395E+01  0.10200493971E+01 0.  0.
     999903    2    3    3    0    0  0.11553124565E+00  0.40653878551E-01 -0.46048102478E-01  0.13229707128E+00  0.19541769738E-01 0.  0.
         14    1    1    2    0    0 -0.68325957482E-02 -0.22582864357E-01  0.80128809343E-03  0.23607460470E-01  0.00000000000E+00 0.  1.
     999901    1    3    3    0    0 -0.10869864991E+00 -0.18071014194E-01  0.45246814384E-01  0.88802546825E+00  0.88000000000E+00 0. -1.
        -11    1    4    4    0    0  0.69020006737E-01  0.27327889348E-01 -0.18060633549E-01  0.76400408843E-01  0.51100000000E-03 0.  1.
         11    1    4    4    0    0  0.46511238917E-01  0.13325989203E-01 -0.27987468928E-01  0.55896662439E-01  0.51100000000E-03 0. -1.
</event>
<event>
 8    1  0.1138737E+005  0.1043930E+01  0.7957747E-01            NaN
         13   -1    0    0    0    0  0.00000000000E+00  0.00000000000E+00  0.74505805969E-08  0.10566000000E+00  0.10566000000E+00 0.  1.
     999900   -1    0    0    0    0 -0.00000000000E+00 -0.00000000000E+00 -0.74505805969E-08  0.93827000000E+00  0.93827000000E+00 0. -1.
     999902    2    1    2    0    0 -0.99096549538E-02  0.19997687209E-01 -0.68294239059E-02  0.10205901246E+01  0.10203232098E+01 0.  0.
     999903    2    3    3    0    0 -0.38793088078E-01  0.12623204001E+00  0.51275760406E-02  0.13364990093E+00  0.19914125006E-01 0.  0.
         14    1    1    2    0    0  0.99096549538E-02 -0.19997687209E-01  0.68294239059E-02  0.23339875447E-01  0.00000000000E+00 0.  1.
     999901    1    3    3    0    0  0.28883433124E-01 -0.10623435281E+00 -0.11956999947E-01  0.88694022362E+00  0.88000000000E+00 0.  1.
        -11    1    4    4    0    0 -0.36220767855E-01  0.11486747744E+00  0.10315515695E-01  0.12088487243E+00  0.51100000000E-03 0.  1.
         11    1    4    4    0    0 -0.25723202232E-02  0.11364562570E-01 -0.51879396542E-02  0.12765028500E-01  0.51100000000E-03 0. -1.
</event>
<event>
 8    1  0.1138737E+005  0.1043930E+01  0.7957747E-01            NaN
         13   -1    0    0    0    0  0.00000000000E+00  0.00000000000E+00  0.74505805969E-08  0.10566000000E+00  0.10566000000E+00 0.  1.
     999900   -1    0    0    0    0 -0.00000000000E+00 -0.00000000000E+00 -0.74505805969E-08  0.93827000000E+00  0.93827000000E+00 0. -1.
     999902    2    1    2    0    0  0.14957553878E-01  0.14206024018E-01 -0.96408991935E-02  0.10211597019E+01  0.10209057990E+01 0.  0.
     999903    2    3    3    0    0  0.11969750696E+00 -0.51558003278E-01 -0.30459994864E-02  0.13248717634E+00  0.23618909923E-01 0.  0.
         14    1    1    2    0    0 -0.14957553878E-01 -0.14206024018E-01  0.96408991935E-02  0.22770298058E-01  0.00000000000E+00 0.  1.
     999901    1    3    3    0    0 -0.10473995309E+00  0.65764027295E-01 -0.65948997070E-02  0.88867252560E+00  0.88000000000E+00 0. -1.
        -11    1    4    4    0    0  0.94077666530E-02  0.18915954912E-02  0.20316476710E-02  0.98220629279E-02  0.51100000000E-03 0.  1.
         11    1    4    4    0    0  0.11028974031E+00 -0.53449598769E-01 -0.50776471575E-02  0.12266511341E+00  0.51100000000E-03 0. -1.
</event>
<event>
 8    1  0.1138737E+005  0.1043930E+01  0.7957747E-01            NaN
         13   -1    0    0    0    0  0.00000000000E+00  0.00000000000E+00  0.74505805969E-08  0.10566000000E+00  0.10566000000E+00 0. -1.
     999900   -1    0    0    0    0 -0.00000000000E+00 -0.00000000000E+00 -0.74505805969E-08  0.93827000000E+00  0.93827000000E+00 0. -1.
     999902    2    1    2    0    0 -0.12946799966E-01  0.18473026953E-01 -0.74744997904E-03  0.10213594210E+01  0.10211100018E+01 0.  0.
     999903    2    3    3    0    0 -0.57563545507E-01  0.11072507584E+00  0.44837583299E-01  0.13424100177E+00  0.20895776839E-01 0.  0.
         14    1    1    2    0    0  0.12946799966E-01 -0.18473026953E-01  0.74744997904E-03  0.22570578983E-01  0.00000000000E+00 0.  1.
     999901    1    3    3    0    0  0.44616745541E-01 -0.92252048885E-01 -0.45585033278E-01  0.88711841925E+00  0.88000000000E+00 0.  1.
        -11    1    4    4    0    0 -0.24404846131E-01  0.52062651824E-01  0.99407705915E-02  0.58354059589E-01  0.51100000000E-03 0.  1.
         11    1    4    4    0    0 -0.33158699376E-01  0.58662424014E-01  0.34896812708E-01  0.75886942182E-01  0.51100000000E-03 0. -1.
</event>
<event>
 8    1  0.1138737E+005  0.1043930E+01  0.7957747E-01            NaN
         13   -1    0    0    0    0  0.00000000000E+00  0.00000000000E+00  0.74505805969E-08  0.10566000000E+00  0.10566000000E+00 0. -1.
     999900   -1    0    0    0    0 -0.00000000000E+00 -0.00000000000E+00 -0.74505805969E-08  0.93827000000E+00  0.93827000000E+00 0. -1.
     999902    2    1    2    0    0  0.17945793476E-01  0.85334322038E-02 -0.12476775860E-01  0.10204663919E+01  0.10201966066E+01 0.  0.
     999903    2    3    3    0    0  0.99319533518E-01 -0.97610586300E-02  0.82319551144E-01  0.13145417739E+00  0.23324756112E-01 0.  0.
         14    1    1    2    0    0 -0.17945793476E-01 -0.85334322038E-02  0.12476775860E-01  0.23463608088E-01  0.00000000000E+00 0.  1.
     999901    1    3    3    0    0 -0.81373740042E-01  0.18294490834E-01 -0.94796327004E-01  0.88901221453E+00  0.88000000000E+00 0. -1.
        -11    1    4    4    0    0  0.50682497401E-01 -0.16490481998E-01  0.45506771923E-01  0.70084084864E-01  0.51100000000E-03 0. -1.
         11    1    4    4    0    0  0.48637036117E-01  0.67294233685E-02  0.36812779221E-01  0.61370092522E-01  0.51100000000E-03 0.  1.
</event>
<event>
 8    1  0.1138737E+005  0.1043930E+01  0.7957747E-01            NaN
         13   -1    0    0    0    0  0.00000000000E+00  0.00000000000E+00  0.74505805969E-08  0.10566000000E+00  0.10566000000E+00 0. -1.
     999900   -1    0    0    0    0 -0.00000000000E+00 -0.00000000000E+00 -0.74505805969E-08  0.93827000000E+00  0.93827000000E+00 0.  1.
     999902    2    1    2    0    0  0.11296936596E-02 -0.20546334682E-01 -0.10655652962E-01  0.10207573649E+01  0.10204943052E+01 0.  0.
     999903    2    3    3    0    0  0.10467151546E+00  0.67346468259E-01  0.28773448659E-01  0.12946576969E+00  0.21019068406E-01 0.  0.
         14    1    1    2    0    0 -0.11296936596E-02  0.20546334682E-01  0.10655652962E-01  0.23172635083E-01  0.00000000000E+00 0.  1.
     999901    1    3    3    0    0 -0.10354182180E+00 -0.87892802941E-01 -0.39429101621E-01  0.89129159523E+00  0.88000000000E+00 0.  1.
        -11    1    4    4    0    0  0.13597997397E-01  0.13860769006E-01  0.11119716267E-01  0.22381592024E-01  0.51100000000E-03 0. -1.
         11    1    4    4    0    0  0.91073518066E-01  0.53485699253E-01  0.17653732391E-01  0.10708417766E+00  0.51100000000E-03 0.  1.
</event>
<event>
 8    1  0.1138737E+005  0.1043930E+01  0.7957747E-01            NaN
         13   -1    0    0    0    0  0.00000000000E+00  0.00000000000E+00  0.74505805969E-08  0.10566000000E+00  0.10566000000E+00 0.  1.
     999900   -1    0    0    0    0 -0.00000000000E+00 -0.00000000000E+00 -0.74505805969E-08  0.93827000000E+00  0.93827000000E+00 0.  1.
     999902    2    1    2    0    0  0.36740218843E-02 -0.29999523431E-01  0.21395617413E-01  0.10068997112E+01  0.10062185578E+01 0.  0.
     999903    2    3    3    0    0  0.58066377158E-01 -0.91783902672E-01 -0.47002003422E-01  0.12041560399E+00  0.22242760905E-01 0.  0.
         14    1    1    2    0    0 -0.36740218843E-02  0.29999523431E-01 -0.21395617413E-01  0.37030288783E-01  0.00000000000E+00 0. -1.
     999901    1    3    3    0    0 -0.54392355273E-01  0.61784379241E-01  0.68397620834E-01  0.88648410723E+00  0.88000000000E+00 0. -1.
        -11    1    4    4    0    0  0.30789649909E-01 -0.41575774553E-01 -0.33702894615E-01  0.61747014483E-01  0.51100000000E-03 0. -1.
         11    1    4    4    0    0  0.27276727249E-01 -0.50208128119E-01 -0.13299108807E-01  0.58668589507E-01  0.51100000000E-03 0.  1.
</event>
<event>
 8    1  0.1138737E+005  0.1043930E+01  0.7957747E-01            NaN
         13   -1    0    0    0    0  0.00000000000E+00  0.00000000000E+00  0.74505805969E-08  0.10566000000E+00  0.10566000000E+00 0.  1.
     999900   -1    0    0    0    0 -0.00000000000E+00 -0.00000000000E+00 -0.74505805969E-08  0.93827000000E+00  0.93827000000E+00 0. -1.
     999902    2    1    2    0    0  0.53050083565E-02  0.14020998208E-01  0.16938342064E-01  0.10213105629E+01  0.10210600506E+01 0.  0.
     999903    2    3    3    0    0 -0.93164091424E-01  0.84736082146E-01  0.36493747009E-01  0.13278414200E+00  0.20978161222E-01 0.  0.
         14    1    1    2    0    0 -0.53050083565E-02 -0.14020998208E-01 -0.16938342064E-01  0.22619437135E-01  0.00000000000E+00 0. -1.
     999901    1    3    3    0    0  0.98469099781E-01 -0.70715083938E-01 -0.19555404945E-01  0.88852642086E+00  0.88000000000E+00 0.  1.
        -11    1    4    4    0    0 -0.57895063585E-01  0.60957777423E-01  0.32208960985E-01  0.90029813421E-01  0.51100000000E-03 0.  1.
         11    1    4    4    0    0 -0.35269027839E-01  0.23778304724E-01  0.42847860246E-02  0.42754328582E-01  0.51100000000E-03 0. -1.
</event>
<event>
 8    1  0.1138737E+005  0.1043930E+01  0.7957747E-01            NaN
         13   -1    0    0    0    0  0.00000000000E+00  0.00000000000E+00  0.74505805969E-08  0.10566000000E+00  0.10566000000E+00 0.  1.
     999900   -1    0    0    0    0 -0.00000000000E+00 -0.00000000000E+00 -0.74505805969E-08  0.93827000000E+00  0.93827000000E+00 0. -1.
     999902    2    1    2    0    0 -0.15055842398E-01  0.15045898464E-01  0.99682954095E-02  0.10204262904E+01  0.10201555714E+01 0.  0.
     999903    2    3    3    0    0  0.16458995797E-01  0.12349005887E+00  0.39692943845E-01  0.13271187931E+00  0.22720473977E-01 0.  0.
         14    1    1    2    0    0  0.15055842398E-01 -0.15045898464E-01 -0.99682954095E-02  0.23503709586E-01  0.00000000000E+00 0. -1.
     999901    1    3    3    0    0 -0.31514838195E-01 -0.10844416040E+00 -0.29724648436E-01  0.88771441110E+00  0.88000000000E+00 0. -1.
        -11    1    4    4    0    0  0.13215411527E-01  0.49230113389E-01  0.68013736809E-02  0.51427336807E-01  0.51100000000E-03 0.  1.
         11    1    4    4    0    0  0.32435842697E-02  0.74259945480E-01  0.32891570164E-01  0.81284542506E-01  0.51100000000E-03 0. -1.
</event>
<event>
 8    1  0.1138737E+005  0.1043930E+01  0.7957747E-01            NaN
         13   -1    0    0    0    0  0.00000000000E+00  0.00000000000E+00  0.74505805969E-08  0.10566000000E+00  0.10566000000E+00 0. -1.
     999900   -1    0    0    0    0 -0.00000000000E+00 -0.00000000000E+00 -0.74505805969E-08  0.93827000000E+00  0.93827000000E+00 0.  1.
     999902    2    1    2    0    0 -0.17001582742E-01  0.29224921804E-03  0.16613514495E-01  0.10201571565E+01  0.10198801282E+01 0.  0.
     999903    2    3    3    0    0 -0.85644814895E-01 -0.51387625365E-02  0.10011040740E+00  0.13352695152E+00  0.21116626493E-01 0.  0.
         14    1    1    2    0    0  0.17001582742E-01 -0.29224921804E-03 -0.16613514495E-01  0.23772843524E-01  0.00000000000E+00 0.  1.
     999901    1    3    3    0    0  0.68643232154E-01  0.54310117545E-02 -0.83496892906E-01  0.88663020495E+00  0.88000000000E+00 0.  1.
        -11    1    4    4    0    0 -0.23471152920E-01  0.45189256120E-02  0.17236786237E-01  0.29473439379E-01  0.51100000000E-03 0. -1.
         11    1    4    4    0    0 -0.62173661976E-01 -0.96576881484E-02  0.82873621164E-01  0.10405351214E+00  0.51100000000E-03 0.  1.
</event>
<event>
 8    1  0.1138737E+005  0.1043930E+01  0.7957747E-01            NaN
         13   -1    0    0    0    0  0.00000000000E+00  0.00000000000E+00  0.74505805969E-08  0.10566000000E+00  0.10566000000E+00 0. -1.
     999900   -1    0    0    0    0 -0.00000000000E+00 -0.00000000000E+00 -0.74505805969E-08  0.93827000000E+00  0.93827000000E+00 0. -1.
     999902    2    1    2    0    0 -0.16426729630E-01 -0.55632000492E-03 -0.18567914613E-01  0.10191325326E+01  0.10188308027E+01 0.  0.
     999903    2    3    3    0    0  0.32998900154E-02  0.12747888431E+00 -0.50300408420E-02  0.12954530969E+00  0.22247038738E-01 0.  0.
         14    1    1    2    0    0  0.16426729630E-01  0.55632000492E-03  0.18567914613E-01  0.24797467438E-01  0.00000000000E+00 0. -1.
     999901    1    3    3    0    0 -0.19726619646E-01 -0.12803520432E+00 -0.13537873771E-01  0.88958722287E+00  0.88000000000E+00 0. -1.
        -11    1    4    4    0    0 -0.49758865614E-02  0.10977599179E+00 -0.37149224697E-02  0.10995266977E+00  0.51100000000E-03 0.  1.
         11    1    4    4    0    0  0.82757765768E-02  0.17702892525E-01 -0.13151183724E-02  0.19592639920E-01  0.51100000000E-03 0. -1.
</event>
<event>
 8    1  0.1138737E+005  0.1043930E+01  0.7957747E-01            NaN
         13   -1    0    0    0    0  0.00000000000E+00  0.00000000000E+00  0.74505805969E-08  0.10566000000E+00  0.10566000000E+00 0.  1.
     999900   -1    0    0    0    0 -0.00000000000E+00 -0.00000000000E+00 -0.74505805969E-08  0.93827000000E+00  0.93827000000E+00 0. -1.
     999902    2    1    2    0    0  0.78073899162E-02 -0.13357997977E-01  0.17463331685E-01  0.10205984891E+01  0.10203317679E+01 0.  0.
     999903    2    3    3    0    0 -0.33344918923E-01  0.18533190974E-01 -0.12074059810E+00  0.12829199094E+00  0.20619896333E-01 0.  0.
         14    1    1    2    0    0 -0.78073899162E-02  0.13357997977E-01 -0.17463331685E-01  0.23331510899E-01  0.00000000000E+00 0.  1.
     999901    1    3    3    0    0  0.41152308839E-01 -0.31891188951E-01  0.13820392978E+00  0.89230649816E+00  0.88000000000E+00 0.  1.
        -11    1    4    4    0    0 -0.68412963240E-03  0.26251889326E-02 -0.35811295422E-01  0.35917539602E-01  0.51100000000E-03 0. -1.
         11    1    4    4    0    0 -0.32660789290E-01  0.15908002041E-01 -0.84929302675E-01  0.92374451337E-01  0.51100000000E-03 0.  1.
</event>
<event>
 8    1  0.1138737E+005  0.1043930E+01  0.7957747E-01            NaN
         13   -1    0    0    0    0  0.00000000000E+00  0.00000000000E+00  0.74505805969E-08  0.10566000000E+00  0.10566000000E+00 0. -1.
     999900   -1    0    0    0    0 -0.00000000000E+00 -0.00000000000E+00 -0.74505805969E-08  0.93827000000E+00  0.93827000000E+00 0.  1.
     999902    2    1    2    0    0 -0.57546552087E-02 -0.11496993076E-01  0.22848621100E-01  0.10177125174E+01  0.10173747646E+01 0.  0.
     999903    2    3    3    0    0  0.10058849393E+00  0.70011384107E-01 -0.23800576313E-01  0.12634916360E+00  0.19442342808E-01 0.  0.
         14    1    1    2    0    0  0.57546552087E-02  0.11496993076E-01 -0.22848621100E-01  0.26217482574E-01  0.00000000000E+00 0.  1.
     999901    1    3    3    0    0 -0.10634314914E+00 -0.81508377183E-01  0.46649197413E-01  0.89136335382E+00  0.88000000000E+00 0. -1.
        -11    1    4    4    0    0  0.41300407115E-01  0.18956573980E-01 -0.13644085650E-01  0.47449947515E-01  0.51100000000E-03 0.  1.
         11    1    4    4    0    0  0.59288086818E-01  0.51054810126E-01 -0.10156490663E-01  0.78899216087E-01  0.51100000000E-03 0. -1.
</event>
<event>
 8    1  0.1138737E+005  0.1043930E+01  0.7957747E-01            NaN
         13   -1    0    0    0    0  0.00000000000E+00  0.00000000000E+00  0.74505805969E-08  0.10566000000E+00  0.10566000000E+00 0. -1.
     999900   -1    0    0    0    0 -0.00000000000E+00 -0.00000000000E+00 -0.74505805969E-08  0.93827000000E+00  0.93827000000E+00 0.  1.
     999902    2    1    2    0    0 -0.72171157799E-02  0.86596550926E-02  0.20550833650E-01  0.10204904362E+01  0.10202212100E+01 0.  0.
     999903    2    3    3    0    0 -0.56640170176E-01  0.18974034333E-01 -0.11240831191E+00  0.12907181452E+00  0.21349048222E-01 0.  0.
         14    1    1    2    0    0  0.72171157799E-02 -0.86596550926E-02 -0.20550833650E-01  0.23439563781E-01  0.00000000000E+00 0.  1.
     999901    1    3    3    0    0  0.49423054396E-01 -0.10314379241E-01  0.13295914556E+00  0.89141862170E+00  0.88000000000E+00 0. -1.
        -11    1    4    4    0    0 -0.28179590695E-01  0.31325331198E-03 -0.63619393796E-01  0.69583588923E-01  0.51100000000E-03 0. -1.
         11    1    4    4    0    0 -0.28460579482E-01  0.18660781021E-01 -0.48788918116E-01  0.59488225597E-01  0.51100000000E-03 0.  1.
</event>
<event>
 8    1  0.1138737E+005  0.1043930E+01  0.7957747E-01            NaN
         13   -1    0    0    0    0  0.00000000000E+00  0.00000000000E+00  0.74505805969E-08  0.10566000000E+00  0.10566000000E+00 0.  1.
     999900   -1    0    0    0    0 -0.00000000000E+00 -0.00000000000E+00 -0.74505805969E-08  0.93827000000E+00  0.93827000000E+00 0.  1.
     999902    2    1    2    0    0 -0.21098956281E-01  0.97313260777E-02 -0.80180109505E-04  0.10206948737E+01  0.10204303769E+01 0.  0.
     999903    2    3    3    0    0 -0.10311493090E+00 -0.35296967638E-01 -0.73263452846E-01  0.13271404133E+00  0.19155112746E-01 0.  0.
         14    1    1    2    0    0  0.21098956281E-01 -0.97313260777E-02  0.80180109505E-04  0.23235126258E-01  0.00000000000E+00 0.  1.
     999901    1    3    3    0    0  0.82015974615E-01  0.45028293716E-01  0.73183272737E-01  0.88798083241E+00  0.88000000000E+00 0. -1.
        -11    1    4    4    0    0 -0.52603691191E-01 -0.21824076769E-01 -0.27549398225E-01  0.63266650910E-01  0.51100000000E-03 0. -1.
         11    1    4    4    0    0 -0.50511239705E-01 -0.13472890869E-01 -0.45714054622E-01  0.69447390418E-01  0.51100000000E-03 0.  1.
</event>
<event>
 8    1  0.1138737E+005  0.1043930E+01  0.7957747E-01            NaN
         13   -1    0    0    0    0  0.00000000000E+00  0.00000000000E+00  0.74505805969E-08  0.10566000000E+00  0.10566000000E+00 0. -1.
     999900   -1    0    0    0    0 -0.00000000000E+00 -0.00000000000E+00 -0.74505805969E-08  0.93827000000E+00  0.93827000000E+00 0.  1.
     999902    2    1    2    0    0  0.22661564904E-01  0.66873664630E-02  0.52700771320E-02  0.10197217141E+01  0.10194343201E+01 0.  0.
     999903    2    3    3    0    0 -0.39849143448E-02 -0.12596561356E+00 -0.19657044942E-01  0.12903197608E+00  0.19484252414E-01 0.  0.
         14    1    1    2    0    0 -0.22661564904E-01 -0.66873664630E-02 -0.52700771320E-02  0.24208285918E-01  0.00000000000E+00 0. -1.
     999901    1    3    3    0    0  0.26646479249E-01  0.13265298003E+00  0.24927122074E-01  0.89068973800E+00  0.88000000000E+00 0.  1.
        -11    1    4    4    0    0  0.62639208541E-02 -0.87163901540E-01 -0.13510156963E-01  0.88428320680E-01  0.51100000000E-03 0. -1.
         11    1    4    4    0    0 -0.10248835199E-01 -0.38801712025E-01 -0.61468879793E-02  0.40603655400E-01  0.51100000000E-03 0.  1.
</event>
<event>
 8    1  0.1138737E+005  0.1043930E+01  0.7957747E-01            NaN
         13   -1    0    0    0    0  0.00000000000E+00  0.00000000000E+00  0.74505805969E-08  0.10566000000E+00  0.10566000000E+00 0. -1.
     999900   -1    0    0    0    0 -0.00000000000E+00 -0.00000000000E+00 -0.74505805969E-08  0.93827000000E+00  0.93827000000E+00 0. -1.
     999902    2    1    2    0    0  0.33310777312E-02 -0.35408842196E-02 -0.21448945697E-01  0.10219370190E+01  0.10217003375E+01 0.  0.
     999903    2    3    3    0    0  0.24052442905E-01  0.46250908779E-01  0.11664457862E+00  0.12953664977E+00  0.21356950616E-01 0.  0.
         14    1    1    2    0    0 -0.33310777312E-02  0.35408842196E-02  0.21448945697E-01  0.21992980958E-01  0.00000000000E+00 0. -1.
     999901    1    3    3    0    0 -0.20721365174E-01 -0.49791792998E-01 -0.13809352431E+00  0.89240036927E+00  0.88000000000E+00 0. -1.
        -11    1    4    4    0    0  0.12360399241E-01  0.22012647904E-01  0.32282345807E-01  0.40984717993E-01  0.51100000000E-03 0. -1.
         11    1    4    4    0    0  0.11692043664E-01  0.24238260874E-01  0.84362232810E-01  0.88551931774E-01  0.51100000000E-03 0.  1.
</event>
<event>
 8    1  0.1138737E+005  0.1043930E+01  0.7957747E-01            NaN
         13   -1    0    0    0    0  0.00000000000E+00  0.00000000000E+00  0.74505805969E-08  0.10566000000E+00  0.10566000000E+00 0. -1.
     999900   -1    0    0    0    0 -0.00000000000E+00 -0.00000000000E+00 -0.74505805969E-08  0.93827000000E+00  0.93827000000E+00 0. -1.
     999902    2    1    2    0    0  0.84270899095E-02  0.12959798537E-01  0.17435768645E-01  0.10206281063E+01  0.10203620696E+01 0.  0.
     999903    2    3    3    0    0 -0.39425364008E-01 -0.83456473527E-01 -0.86411855087E-01  0.12800820744E+00  0.19993753295E-01 0.  0.
         14    1    1    2    0    0 -0.84270899095E-02 -0.12959798537E-01 -0.17435768645E-01  0.23301893715E-01  0.00000000000E+00 0. -1.
     999901    1    3    3    0    0  0.47852453918E-01  0.96416272064E-01  0.10384762373E+00  0.89261989885E+00  0.88000000000E+00 0.  1.
        -11    1    4    4    0    0 -0.40106125248E-02 -0.20269641624E-01 -0.10886711739E-01  0.23360757648E-01  0.51100000000E-03 0.  1.
         11    1    4    4    0    0 -0.35414751483E-01 -0.63186831903E-01 -0.75525143348E-01  0.10464744979E+00  0.51100000000E-03 0. -1.
</event>
<event>
 8    1  0.1138737E+005  0.1043930E+01  0.7957747E-01            NaN
         13   -1    0    0    0    0  0.00000000000E+00  0.00000000000E+00  0.74505805969E-08  0.10566000000E+00  0.10566000000E+00 0.  1.
     999900   -1    0    0    0    0 -0.00000000000E+00 -0.00000000000E+00 -0.74505805969E-08  0.93827000000E+00  0.93827000000E+00 0. -1.
     999902    2    1    2    0    0 -0.31282429477E-02  0.40446652108E-02 -0.23191316236E-01  0.10201816870E+01  0.10199052369E+01 0.  0.
     999903    2    3    3    0    0 -0.18081942839E-01 -0.11233686262E+00  0.56692323704E-01  0.12880653082E+00  0.20750312171E-01 0.  0.
         14    1    1    2    0    0  0.31282429477E-02 -0.40446652108E-02  0.23191316236E-01  0.23748312979E-01  0.00000000000E+00 0.  1.
     999901    1    3    3    0    0  0.14953699891E-01  0.11638152783E+00 -0.79883639939E-01  0.89137515620E+00  0.88000000000E+00 0.  1.
        -11    1    4    4    0    0 -0.10283004715E-01 -0.31465287806E-01  0.79113326261E-02  0.34039019193E-01  0.51100000000E-03 0.  1.
         11    1    4    4    0    0 -0.77989381233E-02 -0.80871574814E-01  0.48780991077E-01  0.94767511628E-01  0.51100000000E-03 0. -1.
</event>
<event>
 8    1  0.1138737E+005  0.1043930E+01  0.7957747E-01            NaN
         13   -1    0    0    0    0  0.00000000000E+00  0.00000000000E+00  0.74505805969E-08  0.10566000000E+00  0.10566000000E+00 0.  1.
     999900   -1    0    0    0    0 -0.00000000000E+00 -0.00000000000E+00 -0.74505805969E-08  0.93827000000E+00  0.93827000000E+00 0.  1.
     999902    2    1    2    0    0  0.18195492432E-01 -0.77507602153E-02 -0.13672314504E-01  0.10198866555E+01  0.10196032109E+01 0.  0.
     999903    2    3    3    0    0 -0.11846359540E+00 -0.21483307549E-01  0.36348944427E-01  0.12782924961E+00  0.22889197377E-01 0.  0.
         14    1    1    2    0    0 -0.18195492432E-01  0.77507602153E-02  0.13672314504E-01  0.24043344457E-01  0.00000000000E+00 0.  1.
     999901    1    3    3    0    0  0.13665908783E+00  0.13732547334E-01 -0.50021258931E-01  0.89205740594E+00  0.88000000000E+00 0.  1.
        -11    1    4    4    0    0 -0.80912321722E-01 -0.25273291748E-01  0.26609635819E-01  0.88847492489E-01  0.51100000000E-03 0.  1.
         11    1    4    4    0    0 -0.37551273674E-01  0.37899841989E-02  0.97393086076E-02  0.38981757117E-01  0.51100000000E-03 0. -1.
</event>
<event>
 8    1  0.1138737E+005  0.1043930E+01  0.7957747E-01            NaN
         13   -1    0    0    0    0  0.00000000000E+00  0.00000000000E+00  0.74505805969E-08  0.10566000000E+00  0.10566000000E+00 0. -1.
     999900   -1    0    0    0    0 -0.00000000000E+00 -0.00000000000E+00 -0.74505805969E-08  0.93827000000E+00  0.93827000000E+00 0.  1.
     999902    2    1    2    0    0  0.97382166600E-02 -0.11974562288E-01  0.17737088027E-01  0.10204177203E+01  0.10201468015E+01 0.  0.
     999903    2    3    3    0    0 -0.11335298211E+00 -0.59556364190E-01  0.11790934930E-01  0.13055771566E+00  0.22592740088E-01 0.  0.
         14    1    1    2    0    0 -0.97382166600E-02  0.11974562288E-01 -0.17737088027E-01  0.23512279715E-01  0.00000000000E+00 0.  1.
     999901    1    3    3    0    0  0.12309119877E+00  0.47581801902E-01  0.59461530964E-02  0.88986000462E+00  0.88000000000E+00 0. -1.
        -11    1    4    4    0    0 -0.59165173703E-01 -0.27153852801E-01  0.16760483807E-01  0.67223689572E-01  0.51100000000E-03 0. -1.
         11    1    4    4    0    0 -0.54187808406E-01 -0.32402511389E-01 -0.49695488764E-02  0.63334026093E-01  0.51100000000E-03 0.  1.
</event>
<event>
 8    1  0.1138737E+005  0.1043930E+01  0.7957747E-01            NaN
         13   -1    0    0    0    0  0.00000000000E+00  0.00000000000E+00  0.74505805969E-08  0.10566000000E+00  0.10566000000E+00 0.  1.
     999900   -1    0    0    0    0 -0.00000000000E+00 -0.00000000000E+00 -0.74505805969E-08  0.93827000000E+00  0.93827000000E+00 0. -1.
     999902    2    1    2    0    0  0.22932354780E-02  0.36560339140E-01 -0.19166090295E-03  0.10072973088E+01  0.10066309723E+01 0.  0.
     999903    2    3    3    0    0  0.25557698345E-01 -0.25620705979E-01 -0.11048266545E+00  0.11793134183E+00  0.19793067026E-01 0.  0.
         14    1    1    2    0    0 -0.22932354780E-02 -0.36560339140E-01  0.19166090295E-03  0.36632691150E-01  0.00000000000E+00 0.  1.
     999901    1    3    3    0    0 -0.23264462867E-01  0.62181045119E-01  0.11029100455E+00  0.88936596702E+00  0.88000000000E+00 0.  1.
        -11    1    4    4    0    0  0.18130711672E-01 -0.12208508880E-01 -0.37979646180E-01  0.43823338985E-01  0.51100000000E-03 0. -1.
         11    1    4    4    0    0  0.74269866728E-02 -0.13412197098E-01 -0.72503019268E-01  0.74108002848E-01  0.51100000000E-03 0.  1.
</event>
<event>
 8    1  0.1138737E+005  0.1043930E+01  0.7957747E-01            NaN
         13   -1    0    0    0    0  0.00000000000E+00  0.00000000000E+00  0.74505805969E-08  0.10566000000E+00  0.10566000000E+00 0.  1.
     999900   -1    0    0    0    0 -0.00000000000E+00 -0.00000000000E+00 -0.74505805969E-08  0.93827000000E+00  0.93827000000E+00 0. -1.
     999902    2    1    2    0    0 -0.19201497058E-01 -0.12034640221E-01 -0.44002139294E-02  0.10208455477E+01  0.10205845092E+01 0.  0.
     999903    2    3    3    0    0 -0.24271621087E-01  0.10422823517E+00 -0.71427635074E-01  0.13065711961E+00  0.22731899538E-01 0.  0.
         14    1    1    2    0    0  0.19201497058E-01  0.12034640221E-01  0.44002139294E-02  0.23084452281E-01  0.00000000000E+00 0. -1.
     999901    1    3    3    0    0  0.50701240294E-02 -0.11626287539E+00  0.67027421145E-01  0.89018842811E+00  0.88000000000E+00 0. -1.
        -11    1    4    4    0    0 -0.13845074527E-01  0.48040499421E-01 -0.20254555082E-01  0.53945192518E-01  0.51100000000E-03 0.  1.
         11    1    4    4    0    0 -0.10426546560E-01  0.56187735746E-01 -0.51173079992E-01  0.76711927093E-01  0.51100000000E-03 0. -1.
</event>
<event>
 8    1  0.1138737E+005  0.1043930E+01  0.7957747E-01            NaN
         13   -1    0    0    0    0  0.00000000000E+00  0.00000000000E+00  0.74505805969E-08  0.10566000000E+00  0.10566000000E+00 0. -1.
     999900   -1    0    0    0    0 -0.00000000000E+00 -0.00000000000E+00 -0.74505805969E-08  0.93827000000E+00  0.93827000000E+00 0.  1.
     999902    2    1    2    0    0  0.12789685564E-01  0.19475746959E-01 -0.46308452592E-02  0.10201744637E+01  0.10198978434E+01 0.  0.
     999903    2    3    3    0    0  0.12573787475E+00  0.28356200985E-01 -0.24251163852E-01  0.13269425954E+00  0.20138527344E-01 0.  0.
         14    1    1    2    0    0 -0.12789685564E-01 -0.19475746959E-01  0.46308452592E-02  0.23755536286E-01  0.00000000000E+00 0. -1.
     999901    1    3    3    0    0 -0.11294818919E+00 -0.88804540261E-02  0.19620318593E-01  0.88748020418E+00  0.88000000000E+00 0. -1.
        -11    1    4    4    0    0  0.93079244745E-01  0.13466068799E-01 -0.12246983531E-01  0.94843716385E-01  0.51100000000E-03 0.  1.
         11    1    4    4    0    0  0.32658630010E-01  0.14890132186E-01 -0.12004180321E-01  0.37850543151E-01  0.51100000000E-03 0. -1.
</event>
<event>
 8    1  0.1138737E+005  0.1043930E+01  0.7957747E-01            NaN
         13   -1    0    0    0    0  0.00000000000E+00  0.00000000000E+00  0.74505805969E-08  0.10566000000E+00  0.10566000000E+00 0.  1.
     999900   -1    0    0    0    0 -0.00000000000E+00 -0.00000000000E+00 -0.74505805969E-08  0.93827000000E+00  0.93827000000E+00 0. -1.
     999902    2    1    2    0    0 -0.22596267580E-01  0.29885437079E-02  0.83103991203E-02  0.10196692202E+01  0.10193805635E+01 0.  0.
     999903    2    3    3    0    0  0.16852496331E-01 -0.19383837565E-01  0.12650687043E+00  0.13060952917E+00  0.19877652084E-01 0.  0.
         14    1    1    2    0    0  0.22596267580E-01 -0.29885437079E-02 -0.83103991203E-02  0.24260779781E-01  0.00000000000E+00 0. -1.
     999901    1    3    3    0    0 -0.39448763911E-01  0.22372381273E-01 -0.11819647131E+00  0.88905969105E+00  0.88000000000E+00 0. -1.
        -11    1    4    4    0    0 -0.25901628942E-03 -0.11295123312E-01  0.72568495884E-01  0.73444500243E-01  0.51100000000E-03 0.  1.
         11    1    4    4    0    0  0.17111512621E-01 -0.80887142536E-02  0.53938374547E-01  0.57165028927E-01  0.51100000000E-03 0. -1.
</event>
<event>
 8    1  0.1138737E+005  0.1043930E+01  0.7957747E-01            NaN
         13   -1    0    0    0    0  0.00000000000E+00  0.00000000000E+00  0.74505805969E-08  0.10566000000E+00  0.10566000000E+00 0. -1.
     999900   -1    0    0    0    0 -0.00000000000E+00 -0.00000000000E+00 -0.74505805969E-08  0.93827000000E+00  0.93827000000E+00 0. -1.
     999902    2    1    2    0    0 -0.13552315141E-01 -0.32053972592E-03  0.19283094485E-01  0.10203587097E+01  0.10200864134E+01 0.  0.
     999903    2    3    3    0    0 -0.79574324914E-01 -0.83660861157E-01 -0.57901285623E-01  0.13060484295E+00  0.19335285069E-01 0.  0.
         14    1    1    2    0    0  0.13552315141E-01  0.32053972592E-03 -0.19283094485E-01  0.23571290256E-01  0.00000000000E+00 0.  1.
     999901    1    3    3    0    0  0.66022009773E-01  0.83340321432E-01  0.77184380109E-01  0.88975386680E+00  0.88000000000E+00 0.  1.
        -11    1    4    4    0    0 -0.76738285208E-02 -0.78391058457E-02  0.31962353575E-03  0.10986469170E-01  0.51100000000E-03 0.  1.
         11    1    4    4    0    0 -0.71900496394E-01 -0.75821755312E-01 -0.58220909159E-01  0.11961837377E+00  0.51100000000E-03 0. -1.
</event>
<event>
 8    1  0.1138737E+005  0.1043930E+01  0.7957747E-01            NaN
         13   -1    0    0    0    0  0.00000000000E+00  0.00000000000E+00  0.74505805969E-08  0.10566000000E+00  0.10566000000E+00 0. -1.
     999900   -1    0    0    0    0 -0.00000000000E+00 -0.00000000000E+00 -0.74505805969E-08  0.93827000000E+00  0.93827000000E+00 0.  1.
     999902    2    1    2    0    0  0.16528865280E-01  0.29565587682E-02  0.17452538373E-01  0.10197115004E+01  0.10194238610E+01 0.  0.
     999903    2    3    3    0    0 -0.12373545014E+00  0.26404282423E-01 -0.45860013606E-02  0.12802233306E+00  0.19001015768E-01 0.  0.
         14    1    1    2    0    0 -0.16528865280E-01 -0.29565587682E-02 -0.17452538373E-01  0.24218499599E-01  0.00000000000E+00 0.  1.
     999901    1    3    3    0    0  0.14026431542E+00 -0.23447723655E-01  0.22038539734E-01  0.89168916734E+00  0.88000000000E+00 0.  1.
        -11    1    4    4    0    0 -0.11090216645E+00  0.26201447807E-01  0.11320490860E-02  0.11396205091E+00  0.51100000000E-03 0. -1.
         11    1    4    4    0    0 -0.12833283690E-01  0.20283461583E-03 -0.57180504466E-02  0.14060282147E-01  0.51100000000E-03 0.  1.
</event>
<event>
 8    1  0.1138737E+005  0.1043930E+01  0.7957747E-01            NaN
         13   -1    0    0    0    0  0.00000000000E+00  0.00000000000E+00  0.74505805969E-08  0.10566000000E+00  0.10566000000E+00 0.  1.
     999900   -1    0    0    0    0 -0.00000000000E+00 -0.00000000000E+00 -0.74505805969E-08  0.93827000000E+00  0.93827000000E+00 0.  1.
     999902    2    1    2    0    0 -0.44166864859E-02  0.20781427255E-01 -0.10694197907E-01  0.10201446956E+01  0.10198673733E+01 0.  0.
     999903    2    3    3    0    0  0.29214014611E-01  0.50690434076E-01 -0.11709464936E+00  0.13259377938E+00  0.21141775358E-01 0.  0.
         14    1    1    2    0    0  0.44166864859E-02 -0.20781427255E-01  0.10694197907E-01  0.23785304436E-01  0.00000000000E+00 0.  1.
     999901    1    3    3    0    0 -0.33630701097E-01 -0.29909006821E-01  0.10640045145E+00  0.88755091618E+00  0.88000000000E+00 0. -1.
        -11    1    4    4    0    0  0.16415386037E-01  0.12827015690E-01 -0.54248177581E-01  0.58113020246E-01  0.51100000000E-03 0.  1.
         11    1    4    4    0    0  0.12798628574E-01  0.37863418386E-01 -0.62846471780E-01  0.74480759136E-01  0.51100000000E-03 0. -1.
</event>
<event>
 8    1  0.1138737E+005  0.1043930E+01  0.7957747E-01            NaN
         13   -1    0    0    0    0  0.00000000000E+00  0.00000000000E+00  0.74505805969E-08  0.10566000000E+00  0.10566000000E+00 0.  1.
     999900   -1    0    0    0    0 -0.00000000000E+00 -0.00000000000E+00 -0.74505805969E-08  0.93827000000E+00  0.93827000000E+00 0.  1.
     999902    2    1    2    0    0  0.99826062396E-02  0.11410309756E-01  0.17937781012E-01  0.10204435873E+01  0.10201732712E+01 0.  0.
     999903    2    3    3    0    0 -0.84246550662E-01  0.91235310199E-01 -0.33661926002E-01  0.13032354228E+00  0.20730105739E-01 0.  0.
         14    1    1    2    0    0 -0.99826062396E-02 -0.11410309756E-01 -0.17937781012E-01  0.23486412746E-01  0.00000000000E+00 0. -1.
     999901    1    3    3    0    0  0.94229156902E-01 -0.79825000443E-01  0.51599707013E-01  0.89012004498E+00  0.88000000000E+00 0. -1.
        -11    1    4    4    0    0 -0.52638282970E-01  0.67391661432E-01 -0.29719963074E-01  0.90531553564E-01  0.51100000000E-03 0.  1.
         11    1    4    4    0    0 -0.31608267692E-01  0.23843648767E-01 -0.39419629277E-02  0.39791988713E-01  0.51100000000E-03 0. -1.
</event>
<event>
 8    1  0.1138737E+005  0.1043930E+01  0.7957747E-01            NaN
         13   -1    0    0    0    0  0.00000000000E+00  0.00000000000E+00  0.74505805969E-08  0.10566000000E+00  0.10566000000E+00 0. -1.
     999900   -1    0    0    0    0 -0.00000000000E+00 -0.00000000000E+00 -0.74505805969E-08  0.93827000000E+00  0.93827000000E+00 0.  1.
     999902    2    1    2    0    0 -0.23595701664E-01 -0.19730690245E-02  0.30676652761E-02  0.10200540559E+01  0.10197745909E+01 0.  0.
     999903    2    3    3    0    0 -0.45394525559E-01 -0.10950762138E+00 -0.53183018903E-01  0.13145796756E+00  0.20004540588E-01 0.  0.
         14    1    1    2    0    0  0.23595701664E-01  0.19730690245E-02 -0.30676652761E-02  0.23875944141E-01  0.00000000000E+00 0. -1.
     999901    1    3    3    0    0  0.21798823895E-01  0.10753455235E+00  0.56250684179E-01  0.88859608830E+00  0.88000000000E+00 0.  1.
        -11    1    4    4    0    0 -0.27400055155E-01 -0.53503038986E-01 -0.17308458463E-01  0.62555431887E-01  0.51100000000E-03 0.  1.
         11    1    4    4    0    0 -0.17994470404E-01 -0.56004582393E-01 -0.35874560440E-01  0.68902535671E-01  0.51100000000E-03 0. -1.
</event>
<event>
 8    1  0.1138737E+005  0.1043930E+01  0.7957747E-01            NaN
         13   -1    0    0    0    0  0.00000000000E+00  0.00000000000E+00  0.74505805969E-08  0.10566000000E+00  0.10566000000E+00 0. -1.
     999900   -1    0    0    0    0 -0.00000000000E+00 -0.00000000000E+00 -0.74505805969E-08  0.93827000000E+00  0.93827000000E+00 0. -1.
     999902    2    1    2    0    0 -0.17624053821E-01  0.18669006873E-01 -0.20629563585E-03  0.10182554669E+01  0.10179317336E+01 0.  0.
     999903    2    3    3    0    0 -0.12352703770E+00 -0.26399662165E-01  0.25530065770E-01  0.13038780380E+00  0.19832395639E-01 0.  0.
         14    1    1    2    0    0  0.17624053821E-01 -0.18669006873E-01  0.20629563585E-03  0.25674533075E-01  0.00000000000E+00 0.  1.
     999901    1    3    3    0    0  0.10590298388E+00  0.45068669038E-01 -0.25736361406E-01  0.88786766312E+00  0.88000000000E+00 0.  1.
        -11    1    4    4    0    0 -0.41801664218E-01 -0.15207253224E-01  0.16683929380E-02  0.44516113240E-01  0.51100000000E-03 0. -1.
         11    1    4    4    0    0 -0.81725373481E-01 -0.11192408942E-01  0.23861672832E-01  0.85871690561E-01  0.51100000000E-03 0.  1.
</event>
<event>
 8    1  0.1138737E+005  0.1043930E+01  0.7957747E-01            NaN
         13   -1    0    0    0    0  0.00000000000E+00  0.00000000000E+00  0.74505805969E-08  0.10566000000E+00  0.10566000000E+00 0.  1.
     999900   -1    0    0    0    0 -0.00000000000E+00 -0.00000000000E+00 -0.74505805969E-08  0.93827000000E+00  0.93827000000E+00 0.  1.
     999902    2    1    2    0    0 -0.21599937008E-01 -0.76500446477E-02  0.58822865000E-02  0.10202724059E+01  0.10199980885E+01 0.  0.
     999903    2    3    3    0    0  0.32061860410E-01  0.80893324483E-01  0.94142580991E-01  0.12981780503E+00  0.20448572258E-01 0.  0.
         14    1    1    2    0    0  0.21599937008E-01  0.76500446477E-02 -0.58822865000E-02  0.23657594052E-01  0.00000000000E+00 0.  1.
     999901    1    3    3    0    0 -0.53661797418E-01 -0.88543369131E-01 -0.88260294491E-01  0.89045460092E+00  0.88000000000E+00 0.  1.
        -11    1    4    4    0    0  0.12213404677E-01  0.47541508698E-01  0.64089962632E-01  0.80728846977E-01  0.51100000000E-03 0. -1.
         11    1    4    4    0    0  0.19848455733E-01  0.33351815785E-01  0.30052618359E-01  0.49088958049E-01  0.51100000000E-03 0.  1.
</event>
<event>
 8    1  0.1138737E+005  0.1043930E+01  0.7957747E-01            NaN
         13   -1    0    0    0    0  0.00000000000E+00  0.00000000000E+00  0.74505805969E-08  0.10566000000E+00  0.10566000000E+00 0. -1.
     999900   -1    0    0    0    0 -0.00000000000E+00 -0.00000000000E+00 -0.74505805969E-08  0.93827000000E+00  0.93827000000E+00 0. -1.
     999902    2    1    2    0    0 -0.11183375113E-01  0.13534265714E-01  0.16577419245E-01  0.10197834670E+01  0.10194975549E+01 0.  0.
     999903    2    3    3    0    0  0.38700083020E-01 -0.82846496628E-01 -0.86135162543E-01  0.12718754206E+00  0.19903924259E-01 0.  0.
         14    1    1    2    0    0  0.11183375113E-01 -0.13534265714E-01 -0.16577419245E-01  0.24146533005E-01  0.00000000000E+00 0.  1.
     999901    1    3    3    0    0 -0.49883458134E-01  0.96380762341E-01  0.10271258179E+00  0.89259592493E+00  0.88000000000E+00 0.  1.
        -11    1    4    4    0    0  0.20883246229E-01 -0.48462467186E-01 -0.62565537809E-01  0.81850035682E-01  0.51100000000E-03 0. -1.
         11    1    4    4    0    0  0.17816836791E-01 -0.34384029442E-01 -0.23569624734E-01  0.45337506383E-01  0.51100000000E-03 0.  1.
</event>
<event>
 8    1  0.1138737E+005  0.1043930E+01  0.7957747E-01            NaN
         13   -1    0    0    0    0  0.00000000000E+00  0.00000000000E+00  0.74505805969E-08  0.10566000000E+00  0.10566000000E+00 0. -1.
     999900   -1    0    0    0    0 -0.00000000000E+00 -0.00000000000E+00 -0.74505805969E-08  0.93827000000E+00  0.93827000000E+00 0.  1.
     999902    2    1    2    0    0 -0.54586073103E-02  0.18406149759E-01 -0.13904885396E-01  0.10202249672E+01  0.10199495356E+01 0.  0.
     999903    2    3    3    0    0  0.49993735204E-01  0.90737182533E-01  0.77341941696E-01  0.13082476253E+00  0.20018308921E-01 0.  0.
         14    1    1    2    0    0  0.54586073103E-02 -0.18406149759E-01  0.13904885396E-01  0.23705032812E-01  0.00000000000E+00 0. -1.
     999901    1    3    3    0    0 -0.55452342515E-01 -0.72331032773E-01 -0.91246827092E-01  0.88940020466E+00  0.88000000000E+00 0.  1.
        -11    1    4    4    0    0  0.22347632886E-01  0.22965947281E-01  0.19314920905E-01  0.37418962047E-01  0.51100000000E-03 0. -1.
         11    1    4    4    0    0  0.27646102318E-01  0.67771235252E-01  0.58027020791E-01  0.93405800483E-01  0.51100000000E-03 0.  1.
</event>
<event>
 8    1  0.1138737E+005  0.1043930E+01  0.7957747E-01            NaN
         13   -1    0    0    0    0  0.00000000000E+00  0.00000000000E+00  0.74505805969E-08  0.10566000000E+00  0.10566000000E+00 0. -1.
     999900   -1    0    0    0    0 -0.00000000000E+00 -0.00000000000E+00 -0.74505805969E-08  0.93827000000E+00  0.93827000000E+00 0. -1.
     999902    2    1    2    0    0  0.21649015390E-01  0.86291877227E-02  0.51018006008E-02  0.10200726926E+01  0.10197936688E+01 0.  0.
     999903    2    3    3    0    0 -0.51181572659E-02 -0.10954861037E+00  0.66372032465E-01  0.12965901635E+00  0.19471010737E-01 0.  0.
         14    1    1    2    0    0 -0.21649015390E-01 -0.86291877227E-02 -0.51018006008E-02  0.23857307423E-01  0.00000000000E+00 0.  1.
     999901    1    3    3    0    0  0.26767172656E-01  0.11817779810E+00 -0.61270231864E-01  0.89041367622E+00  0.88000000000E+00 0.  1.
        -11    1    4    4    0    0 -0.26440185891E-02 -0.20301889377E-02  0.43651337522E-02  0.55161594517E-02  0.51100000000E-03 0.  1.
         11    1    4    4    0    0 -0.24741386768E-02 -0.10751842144E+00  0.62006898713E-01  0.12414285690E+00  0.51100000000E-03 0. -1.
</event>
<event>
 8    1  0.1138737E+005  0.1043930E+01  0.7957747E-01            NaN
         13   -1    0    0    0    0  0.00000000000E+00  0.00000000000E+00  0.74505805969E-08  0.10566000000E+00  0.10566000000E+00 0. -1.
     999900   -1    0    0    0    0 -0.00000000000E+00 -0.00000000000E+00 -0.74505805969E-08  0.93827000000E+00  0.93827000000E+00 0. -1.
     999902    2    1    2    0    0 -0.79764355413E-02  0.14611771918E-01  0.14970147552E-01  0.10215417727E+01  0.10212964118E+01 0.  0.
     999903    2    3    3    0    0  0.92451157327E-01  0.44059489110E-01  0.81967413281E-01  0.13281149696E+00  0.20779360265E-01 0.  0.
         14    1    1    2    0    0  0.79764355413E-02 -0.14611771918E-01 -0.14970147552E-01  0.22388227269E-01  0.00000000000E+00 0.  1.
     999901    1    3    3    0    0 -0.10042759287E+00 -0.29447717192E-01 -0.66997265729E-01  0.88873027577E+00  0.88000000000E+00 0. -1.
        -11    1    4    4    0    0  0.49558405128E-01  0.18832898543E-01  0.30254837128E-01  0.61043671884E-01  0.51100000000E-03 0. -1.
         11    1    4    4    0    0  0.42892752199E-01  0.25226590567E-01  0.51712576153E-01  0.71767825076E-01  0.51100000000E-03 0.  1.
</event>
<event>
 8    1  0.1138737E+005  0.1043930E+01  0.7957747E-01            NaN
         13   -1    0    0    0    0  0.00000000000E+00  0.00000000000E+00  0.74505805969E-08  0.10566000000E+00  0.10566000000E+00 0. -1.
     999900   -1    0    0    0    0 -0.00000000000E+00 -0.00000000000E+00 -0.74505805969E-08  0.93827000000E+00  0.93827000000E+00 0.  1.
     999902    2    1    2    0    0 -0.50778416388E-02 -0.10919183271E-01  0.20299181750E-01  0.10203276734E+01  0.10200546512E+01 0.  0.
     999903    2    3    3    0    0  0.80016822535E-02 -0.10268013724E-01 -0.12601522560E+00  0.12815089513E+00  0.19322417424E-01 0.  0.
         14    1    1    2    0    0  0.50778416388E-02  0.10919183271E-01 -0.20299181750E-01  0.23602326554E-01  0.00000000000E+00 0.  1.
     999901    1    3    3    0    0 -0.13079523892E-01 -0.65116954709E-03  0.14631440735E+00  0.89217677832E+00  0.88000000000E+00 0. -1.
        -11    1    4    4    0    0  0.14370516451E-01 -0.58221380652E-02 -0.84455715498E-01  0.85868725599E-01  0.51100000000E-03 0. -1.
         11    1    4    4    0    0 -0.63688341976E-02 -0.44458756583E-02 -0.41559510102E-01  0.42282169532E-01  0.51100000000E-03 0.  1.
</event>
<event>
 8    1  0.1138737E+005  0.1043930E+01  0.7957747E-01            NaN
         13   -1    0    0    0    0  0.00000000000E+00  0.00000000000E+00  0.74505805969E-08  0.10566000000E+00  0.10566000000E+00 0. -1.
     999900   -1    0    0    0    0 -0.00000000000E+00 -0.00000000000E+00 -0.74505805969E-08  0.93827000000E+00  0.93827000000E+00 0. -1.
     999902    2    1    2    0    0  0.13265550876E-01 -0.69028887306E-02  0.18368131422E-01  0.10202442877E+01  0.10199693102E+01 0.  0.
     999903    2    3    3    0    0  0.96936663091E-01 -0.69317593206E-01  0.56432719893E-01  0.13325761184E+00  0.19268986960E-01 0.  0.
         14    1    1    2    0    0 -0.13265550876E-01  0.69028887306E-02 -0.18368131422E-01  0.23685712251E-01  0.00000000000E+00 0.  1.
     999901    1    3    3    0    0 -0.83671112215E-01  0.62414704475E-01 -0.38064588470E-01  0.88698667591E+00  0.88000000000E+00 0. -1.
        -11    1    4    4    0    0  0.78793139592E-01 -0.46255480055E-01  0.43035457972E-01  0.10099623778E+00  0.51100000000E-03 0.  1.
         11    1    4    4    0    0  0.18143523499E-01 -0.23062113151E-01  0.13397261920E-01  0.32261374055E-01  0.51100000000E-03 0. -1.
</event>
<event>
 8    1  0.1138737E+005  0.1043930E+01  0.7957747E-01            NaN
         13   -1    0    0    0    0  0.00000000000E+00  0.00000000000E+00  0.74505805969E-08  0.10566000000E+00  0.10566000000E+00 0. -1.
     999900   -1    0    0    0    0 -0.00000000000E+00 -0.00000000000E+00 -0.74505805969E-08  0.93827000000E+00  0.93827000000E+00 0.  1.
     999902    2    1    2    0    0  0.15203336330E-01 -0.72180976246E-02 -0.15965467679E-01  0.10207321870E+01  0.10204685488E+01 0.  0.
     999903    2    3    3    0    0  0.10839205651E+00 -0.42409523052E-02  0.71754230257E-01  0.13146971375E+00  0.19203970466E-01 0.  0.
         14    1    1    2    0    0 -0.15203336330E-01  0.72180976246E-02  0.15965467679E-01  0.23197812981E-01  0.00000000000E+00 0. -1.
     999901    1    3    3    0    0 -0.93188720181E-01 -0.29771453194E-02 -0.87719697936E-01  0.88926247327E+00  0.88000000000E+00 0.  1.
        -11    1    4    4    0    0  0.10507596389E+00 -0.49301737522E-03  0.67591031298E-01  0.12494002515E+00  0.51100000000E-03 0.  1.
         11    1    4    4    0    0  0.33160926257E-02 -0.37479349300E-02  0.41631989596E-02  0.65296885928E-02  0.51100000000E-03 0. -1.
</event>
<event>
 8    1  0.1138737E+005  0.1043930E+01  0.7957747E-01            NaN
         13   -1    0    0    0    0  0.00000000000E+00  0.00000000000E+00  0.74505805969E-08  0.10566000000E+00  0.10566000000E+00 0.  1.
     999900   -1    0    0    0    0 -0.00000000000E+00 -0.00000000000E+00 -0.74505805969E-08  0.93827000000E+00  0.93827000000E+00 0. -1.
     999902    2    1    2    0    0  0.13870202088E-01 -0.15227394499E-01 -0.17211652522E-01  0.10170879242E+01  0.10167336665E+01 0.  0.
     999903    2    3    3    0    0 -0.93997217705E-01 -0.60828900472E-01  0.57327448258E-01  0.12620580232E+00  0.10287669582E-01 0.  0.
         14    1    1    2    0    0 -0.13870202088E-01  0.15227394499E-01  0.17211652522E-01  0.26842075772E-01  0.00000000000E+00 0.  1.
     999901    1    3    3    0    0  0.10786741979E+00  0.45601505973E-01 -0.74539100779E-01  0.89088212191E+00  0.88000000000E+00 0. -1.
        -11    1    4    4    0    0 -0.65707015407E-01 -0.43544414753E-01  0.35105173143E-01  0.86291148053E-01  0.51100000000E-03 0. -1.
         11    1    4    4    0    0 -0.28290202298E-01 -0.17284485719E-01  0.22222275114E-01  0.39914654262E-01  0.51100000000E-03 0.  1.
</event>
<event>
 8    1  0.1138737E+005  0.1043930E+01  0.7957747E-01            NaN
         13   -1    0    0    0    0  0.00000000000E+00  0.00000000000E+00  0.74505805969E-08  0.10566000000E+00  0.10566000000E+00 0. -1.
     999900   -1    0    0    0    0 -0.00000000000E+00 -0.00000000000E+00 -0.74505805969E-08  0.93827000000E+00  0.93827000000E+00 0. -1.
     999902    2    1    2    0    0 -0.38321521313E-02  0.20033757615E-01  0.10205472354E-01  0.10211223587E+01  0.10208676129E+01 0.  0.
     999903    2    3    3    0    0  0.11546509389E+00 -0.37231095728E-01  0.43967923584E-01  0.13058824965E+00  0.20044207302E-01 0.  0.
         14    1    1    2    0    0  0.38321521313E-02 -0.20033757615E-01 -0.10205472354E-01  0.22807641266E-01  0.00000000000E+00 0. -1.
     999901    1    3    3    0    0 -0.11929724602E+00  0.57264853343E-01 -0.33762451230E-01  0.89053410909E+00  0.88000000000E+00 0. -1.
        -11    1    4    4    0    0  0.10338327125E+00 -0.35945507389E-01  0.45083618165E-01  0.11837640822E+00  0.51100000000E-03 0.  1.
         11    1    4    4    0    0  0.12081822633E-01 -0.12855883391E-02 -0.11156945814E-02  0.12211841422E-01  0.51100000000E-03 0. -1.
</event>
<event>
 8    1  0.1138737E+005  0.1043930E+01  0.7957747E-01            NaN
         13   -1    0    0    0    0  0.00000000000E+00  0.00000000000E+00  0.74505805969E-08  0.10566000000E+00  0.10566000000E+00 0. -1.
     999900   -1    0    0    0    0 -0.00000000000E+00 -0.00000000000E+00 -0.74505805969E-08  0.93827000000E+00  0.93827000000E+00 0. -1.
     999902    2    1    2    0    0 -0.81947057715E-02  0.47629521826E-02 -0.21097021789E-01  0.10208015923E+01  0.10205395473E+01 0.  0.
     999903    2    3    3    0    0 -0.10774411488E+00 -0.65155627206E-01  0.30549885731E-01  0.13093300890E+00  0.18870804267E-01 0.  0.
         14    1    1    2    0    0  0.81947057715E-02 -0.47629521826E-02  0.21097021789E-01  0.23128407739E-01  0.00000000000E+00 0. -1.
     999901    1    3    3    0    0  0.99549409108E-01  0.69918579389E-01 -0.51646907520E-01  0.88986858336E+00  0.88000000000E+00 0. -1.
        -11    1    4    4    0    0 -0.90130820853E-01 -0.46841501753E-01  0.28148235814E-01  0.10540529140E+00  0.51100000000E-03 0.  1.
         11    1    4    4    0    0 -0.17613294026E-01 -0.18314125453E-01  0.24016499165E-02  0.25527717503E-01  0.51100000000E-03 0. -1.
</event>
<event>
 8    1  0.1138737E+005  0.1043930E+01  0.7957747E-01            NaN
         13   -1    0    0    0    0  0.00000000000E+00  0.00000000000E+00  0.74505805969E-08  0.10566000000E+00  0.10566000000E+00 0.  1.
     999900   -1    0    0    0    0 -0.00000000000E+00 -0.00000000000E+00 -0.74505805969E-08  0.93827000000E+00  0.93827000000E+00 0. -1.
     999902    2    1    2    0    0 -0.21195172542E-01 -0.17716587120E-02 -0.10168734590E-01  0.10203550710E+01  0.10200826896E+01 0.  0.
     999903    2    3    3    0    0  0.91528175444E-01  0.81755530456E-01 -0.32537677100E-01  0.12896081811E+00  0.22601294587E-01 0.  0.
         14    1    1    2    0    0  0.21195172542E-01  0.17716587120E-02  0.10168734590E-01  0.23574928988E-01  0.00000000000E+00 0. -1.
     999901    1    3    3    0    0 -0.11272334799E+00 -0.83527189168E-01  0.22368942510E-01  0.89139425290E+00  0.88000000000E+00 0. -1.
        -11    1    4    4    0    0  0.48251597186E-01  0.28623780244E-01 -0.17850213462E-01  0.58876384638E-01  0.51100000000E-03 0.  1.
         11    1    4    4    0    0  0.43276578258E-01  0.53131750213E-01 -0.14687463638E-01  0.70084433475E-01  0.51100000000E-03 0. -1.
</event>
<event>
 8    1  0.1138737E+005  0.1043930E+01  0.7957747E-01            NaN
         13   -1    0    0    0    0  0.00000000000E+00  0.00000000000E+00  0.74505805969E-08  0.10566000000E+00  0.10566000000E+00 0. -1.
     999900   -1    0    0    0    0 -0.00000000000E+00 -0.00000000000E+00 -0.74505805969E-08  0.93827000000E+00  0.93827000000E+00 0. -1.
     999902    2    1    2    0    0  0.11613430237E-01  0.17646576947E-01  0.11003205333E-01  0.10201110167E+01  0.10198328992E+01 0.  0.
     999903    2    3    3    0    0 -0.12863100467E-01 -0.25880047183E-01 -0.12356415648E+00  0.12848214632E+00  0.20107833261E-01 0.  0.
         14    1    1    2    0    0 -0.11613430237E-01 -0.17646576947E-01 -0.11003205333E-01  0.23818983341E-01  0.00000000000E+00 0.  1.
     999901    1    3    3    0    0  0.24476530705E-01  0.43526624130E-01  0.13456736182E+00  0.89162887034E+00  0.88000000000E+00 0.  1.
        -11    1    4    4    0    0  0.25439140995E-02 -0.17055037410E-01 -0.67610915923E-01  0.69777094185E-01  0.51100000000E-03 0. -1.
         11    1    4    4    0    0 -0.15407014567E-01 -0.88250097737E-02 -0.55953240561E-01  0.58705052131E-01  0.51100000000E-03 0.  1.
</event>
<event>
 8    1  0.1138737E+005  0.1043930E+01  0.7957747E-01            NaN
         13   -1    0    0    0    0  0.00000000000E+00  0.00000000000E+00  0.74505805969E-08  0.10566000000E+00  0.10566000000E+00 0. -1.
     999900   -1    0    0    0    0 -0.00000000000E+00 -0.00000000000E+00 -0.74505805969E-08  0.93827000000E+00  0.93827000000E+00 0.  1.
     999902    2    1    2    0    0  0.19756899674E-01  0.12793184283E-01  0.32214966552E-02  0.10201733443E+01  0.10198966976E+01 0.  0.
     999903    2    3    3    0    0 -0.10996667075E+00 -0.57038903473E-01 -0.23399995820E-01  0.12752927803E+00  0.19236729582E-01 0.  0.
         14    1    1    2    0    0 -0.19756899674E-01 -0.12793184283E-01 -0.32214966552E-02  0.23756655689E-01  0.00000000000E+00 0.  1.
     999901    1    3    3    0    0  0.12972357043E+00  0.69832087756E-01  0.26621492475E-01  0.89264406628E+00  0.88000000000E+00 0.  1.
        -11    1    4    4    0    0 -0.49807192570E-01 -0.17911408892E-01 -0.34643329611E-02  0.53045619273E-01  0.51100000000E-03 0.  1.
         11    1    4    4    0    0 -0.60159478182E-01 -0.39127494581E-01 -0.19935662859E-01  0.74483658758E-01  0.51100000000E-03 0. -1.
</event>
<event>
 8    1  0.1138737E+005  0.1043930E+01  0.7957747E-01            NaN
         13   -1    0    0    0    0  0.00000000000E+00  0.00000000000E+00  0.74505805969E-08  0.10566000000E+00  0.10566000000E+00 0. -1.
     999900   -1    0    0    0    0 -0.00000000000E+00 -0.00000000000E+00 -0.74505805969E-08  0.93827000000E+00  0.93827000000E+00 0.  1.
     999902    2    1    2    0    0  0.18802498535E-01 -0.14317651532E-01  0.13466955229E-02  0.10202584414E+01  0.10199837963E+01 0.  0.
     999903    2    3    3    0    0  0.90401533786E-01  0.84128297308E-01  0.39259598575E-01  0.13107037644E+00  0.19700755854E-01 0.  0.
         14    1    1    2    0    0 -0.18802498535E-01  0.14317651532E-01 -0.13466955229E-02  0.23671558575E-01  0.00000000000E+00 0. -1.
     999901    1    3    3    0    0 -0.71599035251E-01 -0.98445948840E-01 -0.37912903053E-01  0.88918806498E+00  0.88000000000E+00 0.  1.
        -11    1    4    4    0    0  0.18305317544E-01  0.16613060628E-01  0.16446216159E-01  0.29695413464E-01  0.51100000000E-03 0.  1.
         11    1    4    4    0    0  0.72096216242E-01  0.67515236680E-01  0.22813382416E-01  0.10137496298E+00  0.51100000000E-03 0. -1.
</event>
<event>
 8    1  0.1138737E+005  0.1043930E+01  0.7957747E-01            NaN
         13   -1    0    0    0    0  0.00000000000E+00  0.00000000000E+00  0.74505805969E-08  0.10566000000E+00  0.10566000000E+00 0. -1.
     999900   -1    0    0    0    0 -0.00000000000E+00 -0.00000000000E+00 -0.74505805969E-08  0.93827000000E+00  0.93827000000E+00 0. -1.
     999902    2    1    2    0    0 -0.18479222092E-01  0.75554667923E-02 -0.12267580991E-01  0.10204979649E+01  0.10202289135E+01 0.  0.
     999903    2    3    3    0    0 -0.12485699220E+00 -0.17789990161E-01  0.35144143090E-01  0.13246277764E+00  0.20137636751E-01 0.  0.
         14    1    1    2    0    0  0.18479222092E-01 -0.75554667923E-02  0.12267580991E-01  0.23432035143E-01  0.00000000000E+00 0. -1.
     999901    1    3    3    0    0  0.10637777011E+00  0.25345456953E-01 -0.47411724081E-01  0.88803518722E+00  0.88000000000E+00 0. -1.
        -11    1    4    4    0    0 -0.40503890461E-01 -0.88558505096E-02  0.23914361793E-02  0.41532774031E-01  0.51100000000E-03 0.  1.
         11    1    4    4    0    0 -0.84353101741E-01 -0.89341396512E-02  0.32752706911E-01  0.90930003605E-01  0.51100000000E-03 0. -1.
</event>
<event>
 8    1  0.1148277E+005  0.1043930E+01  0.7957747E-01            NaN
         13   -1    0    0    0    0  0.00000000000E+00  0.00000000000E+00  0.74505805969E-08  0.10566000000E+00  0.10566000000E+00 0. -1.
     999900   -1    0    0    0    0 -0.00000000000E+00 -0.00000000000E+00 -0.74505805969E-08  0.93827000000E+00  0.93827000000E+00 0.  1.
     999902    2    1    2    0    0 -0.10836519844E-01  0.12988925336E-01  0.16535048268E-01  0.10202751873E+01  0.10200009351E+01 0.  0.
     999903    2    3    3    0    0 -0.61241866513E-01 -0.90277677325E-01  0.69746439265E-01  0.13121043017E+00  0.21236429977E-01 0.  0.
         14    1    1    2    0    0  0.10836519844E-01 -0.12988925336E-01 -0.16535048268E-01  0.23654812723E-01  0.00000000000E+00 0.  1.
     999901    1    3    3    0    0  0.50405346669E-01  0.10326660266E+00 -0.53211390997E-01  0.88906475711E+00  0.88000000000E+00 0. -1.
        -11    1    4    4    0    0 -0.26111256066E-01 -0.27954683619E-01  0.34235448054E-01  0.51337988410E-01  0.51100000000E-03 0.  1.
         11    1    4    4    0    0 -0.35130610447E-01 -0.62322993706E-01  0.35510991210E-01  0.79872441760E-01  0.51100000000E-03 0. -1.
</event>
<event>
 8    1  0.1138737E+005  0.1043930E+01  0.7957747E-01            NaN
         13   -1    0    0    0    0  0.00000000000E+00  0.00000000000E+00  0.74505805969E-08  0.10566000000E+00  0.10566000000E+00 0.  1.
     999900   -1    0    0    0    0 -0.00000000000E+00 -0.00000000000E+00 -0.74505805969E-08  0.93827000000E+00  0.93827000000E+00 0. -1.
     999902    2    1    2    0    0  0.13578819339E-01  0.85670897927E-02  0.16745388140E-01  0.10207311339E+01  0.10204674715E+01 0.  0.
     999903    2    3    3    0    0  0.92659002042E-01  0.46069397523E-01 -0.78146229080E-01  0.13131305599E+00  0.20693127027E-01 0.  0.
         14    1    1    2    0    0 -0.13578819339E-01 -0.85670897927E-02 -0.16745388140E-01  0.23198866052E-01  0.00000000000E+00 0. -1.
     999901    1    3    3    0    0 -0.79080182703E-01 -0.37502307730E-01  0.94891617220E-01  0.88941807796E+00  0.88000000000E+00 0.  1.
        -11    1    4    4    0    0  0.10884495416E-01  0.93486969379E-02 -0.19405567719E-01  0.24139336246E-01  0.51100000000E-03 0.  1.
         11    1    4    4    0    0  0.81774506626E-01  0.36720700585E-01 -0.58740661361E-01  0.10717371974E+00  0.51100000000E-03 0. -1.
</event>
<event>
 8    1  0.1138737E+005  0.1043930E+01  0.7957747E-01            NaN
         13   -1    0    0    0    0  0.00000000000E+00  0.00000000000E+00  0.74505805969E-08  0.10566000000E+00  0.10566000000E+00 0.  1.
     999900   -1    0    0    0    0 -0.00000000000E+00 -0.00000000000E+00 -0.74505805969E-08  0.93827000000E+00  0.93827000000E+00 0. -1.
     999902    2    1    2    0    0  0.14512000915E-01  0.15257149646E-01  0.10474657887E-01  0.10204119804E+01  0.10201409278E+01 0.  0.
     999903    2    3    3    0    0 -0.88796451467E-01 -0.86651180557E-01  0.26255523860E-01  0.12838788894E+00  0.20021503636E-01 0.  0.
         14    1    1    2    0    0 -0.14512000915E-01 -0.15257149646E-01 -0.10474657887E-01  0.23518019554E-01  0.00000000000E+00 0.  1.
     999901    1    3    3    0    0  0.10330845238E+00  0.10190833020E+00 -0.15780865973E-01  0.89202409151E+00  0.88000000000E+00 0. -1.
        -11    1    4    4    0    0 -0.29107162541E-01 -0.19062072273E-01  0.12878763192E-02  0.34821103614E-01  0.51100000000E-03 0.  1.
         11    1    4    4    0    0 -0.59689288927E-01 -0.67589108284E-01  0.24967647541E-01  0.93566785325E-01  0.51100000000E-03 0. -1.
</event>
<event>
 8    1  0.1138737E+005  0.1043930E+01  0.7957747E-01            NaN
         13   -1    0    0    0    0  0.00000000000E+00  0.00000000000E+00  0.74505805969E-08  0.10566000000E+00  0.10566000000E+00 0. -1.
     999900   -1    0    0    0    0 -0.00000000000E+00 -0.00000000000E+00 -0.74505805969E-08  0.93827000000E+00  0.93827000000E+00 0. -1.
     999902    2    1    2    0    0  0.99508227872E-02  0.12906984274E-01  0.13581882569E-01  0.10227149900E+01  0.10224949262E+01 0.  0.
     999903    2    3    3    0    0  0.88103457005E-02 -0.87571534080E-01  0.97711991557E-01  0.13300992164E+00  0.19940165214E-01 0.  0.
         14    1    1    2    0    0 -0.99508227872E-02 -0.12906984274E-01 -0.13581882569E-01  0.21215010048E-01  0.00000000000E+00 0.  1.
     999901    1    3    3    0    0  0.11404770867E-02  0.10047851835E+00 -0.84130108987E-01  0.88970506831E+00  0.88000000000E+00 0. -1.
        -11    1    4    4    0    0  0.14147011050E-01 -0.77848307573E-01  0.84853383911E-01  0.11602092396E+00  0.51100000000E-03 0.  1.
         11    1    4    4    0    0 -0.53366653500E-02 -0.97232265074E-02  0.12858607646E-01  0.16988997686E-01  0.51100000000E-03 0. -1.
</event>
<event>
 8    1  0.1138737E+005  0.1043930E+01  0.7957747E-01            NaN
         13   -1    0    0    0    0  0.00000000000E+00  0.00000000000E+00  0.74505805969E-08  0.10566000000E+00  0.10566000000E+00 0.  1.
     999900   -1    0    0    0    0 -0.00000000000E+00 -0.00000000000E+00 -0.74505805969E-08  0.93827000000E+00  0.93827000000E+00 0.  1.
     999902    2    1    2    0    0  0.96725944739E-02  0.19264435232E-02  0.21405083995E-01  0.10203620580E+01  0.10200898399E+01 0.  0.
     999903    2    3    3    0    0 -0.59223627174E-01  0.11391899832E+00  0.13372197097E-01  0.13055671472E+00  0.19525980382E-01 0.  0.
         14    1    1    2    0    0 -0.96725944739E-02 -0.19264435232E-02 -0.21405083995E-01  0.23567941984E-01  0.00000000000E+00 0. -1.
     999901    1    3    3    0    0  0.68896221648E-01 -0.11199255479E+00  0.80328868984E-02  0.88980534330E+00  0.88000000000E+00 0. -1.
        -11    1    4    4    0    0 -0.38989262421E-01  0.91834530767E-01  0.76898012586E-02  0.10006566739E+00  0.51100000000E-03 0. -1.
         11    1    4    4    0    0 -0.20234364753E-01  0.22084467551E-01  0.56823958381E-02  0.30491047332E-01  0.51100000000E-03 0.  1.
</event>
<event>
 8    1  0.1138737E+005  0.1043930E+01  0.7957747E-01            NaN
         13   -1    0    0    0    0  0.00000000000E+00  0.00000000000E+00  0.74505805969E-08  0.10566000000E+00  0.10566000000E+00 0.  1.
     999900   -1    0    0    0    0 -0.00000000000E+00 -0.00000000000E+00 -0.74505805969E-08  0.93827000000E+00  0.93827000000E+00 0. -1.
     999902    2    1    2    0    0  0.53914342004E-02  0.24531806326E-01 -0.55392533917E-02  0.10182091833E+01  0.10178842668E+01 0.  0.
     999903    2    3    3    0    0 -0.46923453429E-01  0.12103642053E+00  0.57200760679E-02  0.13131755488E+00  0.18972489953E-01 0.  0.
         14    1    1    2    0    0 -0.53914342004E-02 -0.24531806326E-01  0.55392533917E-02  0.25720816715E-01  0.00000000000E+00 0.  1.
     999901    1    3    3    0    0  0.52314887629E-01 -0.96504614200E-01 -0.11259329460E-01  0.88689162840E+00  0.88000000000E+00 0. -1.
        -11    1    4    4    0    0 -0.29963173309E-01  0.65920689236E-01  0.11654506480E-01  0.73344513540E-01  0.51100000000E-03 0.  1.
         11    1    4    4    0    0 -0.16960280119E-01  0.55115731289E-01 -0.59344304118E-02  0.57973041343E-01  0.51100000000E-03 0. -1.
</event>
<event>
 8    1  0.1138737E+005  0.1043930E+01  0.7957747E-01            NaN
         13   -1    0    0    0    0  0.00000000000E+00  0.00000000000E+00  0.74505805969E-08  0.10566000000E+00  0.10566000000E+00 0.  1.
     999900   -1    0    0    0    0 -0.00000000000E+00 -0.00000000000E+00 -0.74505805969E-08  0.93827000000E+00  0.93827000000E+00 0. -1.
     999902    2    1    2    0    0  0.71246292401E-02 -0.42844512690E-02 -0.22296058016E-01  0.10201343897E+01  0.10198568243E+01 0.  0.
     999903    2    3    3    0    0  0.48781628540E-01 -0.41781267838E-01  0.10966887104E+00  0.12853130577E+00  0.19175861498E-01 0.  0.
         14    1    1    2    0    0 -0.71246292401E-02  0.42844512690E-02  0.22296058016E-01  0.23795610258E-01  0.00000000000E+00 0.  1.
     999901    1    3    3    0    0 -0.41656999300E-01  0.37496816569E-01 -0.13196492905E+00  0.89160308397E+00  0.88000000000E+00 0. -1.
        -11    1    4    4    0    0  0.28278047694E-01 -0.32581104444E-01  0.58925647202E-01  0.73031974966E-01  0.51100000000E-03 0. -1.
         11    1    4    4    0    0  0.20503580845E-01 -0.92001633932E-02  0.50743223834E-01  0.55499330807E-01  0.51100000000E-03 0.  1.
</event>
<event>
 8    1  0.1138737E+005  0.1043930E+01  0.7957747E-01            NaN
         13   -1    0    0    0    0  0.00000000000E+00  0.00000000000E+00  0.74505805969E-08  0.10566000000E+00  0.10566000000E+00 0. -1.
     999900   -1    0    0    0    0 -0.00000000000E+00 -0.00000000000E+00 -0.74505805969E-08  0.93827000000E+00  0.93827000000E+00 0. -1.
     999902    2    1    2    0    0 -0.11922585112E-01 -0.15961836317E-01 -0.13158007655E-01  0.10200540410E+01  0.10197745756E+01 0.  0.
     999903    2    3    3    0    0 -0.11854318497E+00  0.47989114412E-01 -0.22024733819E-01  0.13127043668E+00  0.19783751944E-01 0.  0.
         14    1    1    2    0    0  0.11922585112E-01  0.15961836317E-01  0.13158007655E-01  0.23875959034E-01  0.00000000000E+00 0. -1.
     999901    1    3    3    0    0  0.10662059986E+00 -0.63950950729E-01  0.88667261637E-02  0.88878360429E+00  0.88000000000E+00 0. -1.
        -11    1    4    4    0    0 -0.99145008539E-01  0.32991212037E-01 -0.13777229015E-01  0.10539556893E+00  0.51100000000E-03 0.  1.
         11    1    4    4    0    0 -0.19398176434E-01  0.14997902374E-01 -0.82475048031E-02  0.25874867750E-01  0.51100000000E-03 0. -1.
</event>
<event>
 8    1  0.1138737E+005  0.1043930E+01  0.7957747E-01            NaN
         13   -1    0    0    0    0  0.00000000000E+00  0.00000000000E+00  0.74505805969E-08  0.10566000000E+00  0.10566000000E+00 0. -1.
     999900   -1    0    0    0    0 -0.00000000000E+00 -0.00000000000E+00 -0.74505805969E-08  0.93827000000E+00  0.93827000000E+00 0.  1.
     999902    2    1    2    0    0  0.12977101483E-02  0.19201510589E-01  0.14524029260E-01  0.10198192247E+01  0.10195341689E+01 0.  0.
     999903    2    3    3    0    0 -0.23384113994E-01 -0.95946092194E-01 -0.77624553239E-01  0.12720535288E+00  0.20078873026E-01 0.  0.
         14    1    1    2    0    0 -0.12977101483E-02 -0.19201510589E-01 -0.14524029260E-01  0.24110775319E-01  0.00000000000E+00 0. -1.
     999901    1    3    3    0    0  0.24681824143E-01  0.11514760278E+00  0.92148582498E-01  0.89261387180E+00  0.88000000000E+00 0. -1.
        -11    1    4    4    0    0 -0.17810878753E-01 -0.32460328007E-01 -0.29550944590E-01  0.47375307318E-01  0.51100000000E-03 0.  1.
         11    1    4    4    0    0 -0.55732352409E-02 -0.63485764187E-01 -0.48073608649E-01  0.79830045565E-01  0.51100000000E-03 0. -1.
</event>
<event>
 8    1  0.1138737E+005  0.1043930E+01  0.7957747E-01            NaN
         13   -1    0    0    0    0  0.00000000000E+00  0.00000000000E+00  0.74505805969E-08  0.10566000000E+00  0.10566000000E+00 0. -1.
     999900   -1    0    0    0    0 -0.00000000000E+00 -0.00000000000E+00 -0.74505805969E-08  0.93827000000E+00  0.93827000000E+00 0. -1.
     999902    2    1    2    0    0 -0.21623951037E-01 -0.52160052804E-02 -0.78993243006E-02  0.10203248884E+01  0.10200518009E+01 0.  0.
     999903    2    3    3    0    0 -0.32935721826E-01 -0.70014613078E-01  0.10348417812E+00  0.13086825632E+00  0.20753736359E-01 0.  0.
         14    1    1    2    0    0  0.21623951037E-01  0.52160052804E-02  0.78993243006E-02  0.23605111606E-01  0.00000000000E+00 0.  1.
     999901    1    3    3    0    0  0.11311770790E-01  0.64798607798E-01 -0.11138350243E+00  0.88945663208E+00  0.88000000000E+00 0. -1.
        -11    1    4    4    0    0 -0.16396825674E-01 -0.35098599871E-01  0.34877013304E-01  0.52129020546E-01  0.51100000000E-03 0. -1.
         11    1    4    4    0    0 -0.16538896152E-01 -0.34916013207E-01  0.68607164821E-01  0.78739235772E-01  0.51100000000E-03 0.  1.
</event>
<event>
 8    1  0.1138737E+005  0.1043930E+01  0.7957747E-01            NaN
         13   -1    0    0    0    0  0.00000000000E+00  0.00000000000E+00  0.74505805969E-08  0.10566000000E+00  0.10566000000E+00 0.  1.
     999900   -1    0    0    0    0 -0.00000000000E+00 -0.00000000000E+00 -0.74505805969E-08  0.93827000000E+00  0.93827000000E+00 0. -1.
     999902    2    1    2    0    0  0.46965891844E-02  0.11841781128E-01  0.20078293721E-01  0.10201513623E+01  0.10198741974E+01 0.  0.
     999903    2    3    3    0    0 -0.49559249253E-01 -0.23414655960E-01  0.11874927244E+00  0.13227599135E+00  0.19778343802E-01 0.  0.
         14    1    1    2    0    0 -0.46965891844E-02 -0.11841781128E-01 -0.20078293721E-01  0.23778637660E-01  0.00000000000E+00 0. -1.
     999901    1    3    3    0    0  0.54255838437E-01  0.35256437087E-01 -0.98670978719E-01  0.88787537099E+00  0.88000000000E+00 0.  1.
        -11    1    4    4    0    0 -0.71016668504E-02  0.32998941679E-02  0.20722953602E-01  0.22159081673E-01  0.51100000000E-03 0.  1.
         11    1    4    4    0    0 -0.42457582402E-01 -0.26714550128E-01  0.98026318838E-01  0.11011690968E+00  0.51100000000E-03 0. -1.
</event>
<event>
 8    1  0.1138737E+005  0.1043930E+01  0.7957747E-01            NaN
         13   -1    0    0    0    0  0.00000000000E+00  0.00000000000E+00  0.74505805969E-08  0.10566000000E+00  0.10566000000E+00 0. -1.
     999900   -1    0    0    0    0 -0.00000000000E+00 -0.00000000000E+00 -0.74505805969E-08  0.93827000000E+00  0.93827000000E+00 0. -1.
     999902    2    1    2    0    0 -0.19199362715E-01  0.17437778241E-02  0.13643488101E-01  0.10203121877E+01  0.10200388029E+01 0.  0.
     999903    2    3    3    0    0 -0.44994335150E-01 -0.88830857219E-01  0.84780572089E-01  0.13243289984E+00  0.20864231733E-01 0.  0.
         14    1    1    2    0    0  0.19199362715E-01 -0.17437778241E-02 -0.13643488101E-01  0.23617812289E-01  0.00000000000E+00 0. -1.
     999901    1    3    3    0    0  0.25794972436E-01  0.90574635043E-01 -0.71137083988E-01  0.88787928787E+00  0.88000000000E+00 0. -1.
        -11    1    4    4    0    0 -0.36057759680E-01 -0.81191985631E-01  0.67719529377E-01  0.11170719021E+00  0.51100000000E-03 0. -1.
         11    1    4    4    0    0 -0.89365754704E-02 -0.76388715877E-02  0.17061042713E-01  0.20725709631E-01  0.51100000000E-03 0.  1.
</event>
<event>
 8    1  0.1138737E+005  0.1043930E+01  0.7957747E-01            NaN
         13   -1    0    0    0    0  0.00000000000E+00  0.00000000000E+00  0.74505805969E-08  0.10566000000E+00  0.10566000000E+00 0.  1.
     999900   -1    0    0    0    0 -0.00000000000E+00 -0.00000000000E+00 -0.74505805969E-08  0.93827000000E+00  0.93827000000E+00 0.  1.
     999902    2    1    2    0    0  0.15828446987E-01 -0.11611076146E-01 -0.11198571445E-01  0.10213298932E+01  0.10210798137E+01 0.  0.
     999903    2    3    3    0    0 -0.26455145937E-01 -0.39042405857E-02  0.12536368541E+00  0.12976018338E+00  0.20162681614E-01 0.  0.
         14    1    1    2    0    0 -0.15828446987E-01  0.11611076146E-01  0.11198571445E-01  0.22600106763E-01  0.00000000000E+00 0.  1.
     999901    1    3    3    0    0  0.42283592924E-01 -0.77068355599E-02 -0.13656225685E+00  0.89156970986E+00  0.88000000000E+00 0.  1.
        -11    1    4    4    0    0 -0.42379097975E-02  0.64250742836E-02  0.47762945539E-01  0.48381830749E-01  0.51100000000E-03 0. -1.
         11    1    4    4    0    0 -0.22217236140E-01 -0.10329314869E-01  0.77600739868E-01  0.81378352628E-01  0.51100000000E-03 0.  1.
</event>
<event>
 8    1  0.1138737E+005  0.1043930E+01  0.7957747E-01            NaN
         13   -1    0    0    0    0  0.00000000000E+00  0.00000000000E+00  0.74505805969E-08  0.10566000000E+00  0.10566000000E+00 0.  1.
     999900   -1    0    0    0    0 -0.00000000000E+00 -0.00000000000E+00 -0.74505805969E-08  0.93827000000E+00  0.93827000000E+00 0.  1.
     999902    2    1    2    0    0  0.82186486575E-02  0.11908901721E-01  0.19052798223E-01  0.10200055931E+01  0.10197249789E+01 0.  0.
     999903    2    3    3    0    0 -0.12084941339E+00  0.39823923823E-01  0.18334140731E-01  0.13015261109E+00  0.20323283016E-01 0.  0.
         14    1    1    2    0    0 -0.82186486575E-02 -0.11908901721E-01 -0.19052798223E-01  0.23924406912E-01  0.00000000000E+00 0. -1.
     999901    1    3    3    0    0  0.12906806205E+00 -0.27915022102E-01  0.71865749171E-03  0.88985298200E+00  0.88000000000E+00 0. -1.
        -11    1    4    4    0    0 -0.76578531175E-01  0.14904585256E-01  0.12534569832E-01  0.79017685745E-01  0.51100000000E-03 0.  1.
         11    1    4    4    0    0 -0.44270882214E-01  0.24919338567E-01  0.57995708991E-02  0.51134925347E-01  0.51100000000E-03 0. -1.
</event>
<event>
 8    1  0.1138737E+005  0.1043930E+01  0.7957747E-01            NaN
         13   -1    0    0    0    0  0.00000000000E+00  0.00000000000E+00  0.74505805969E-08  0.10566000000E+00  0.10566000000E+00 0. -1.
     999900   -1    0    0    0    0 -0.00000000000E+00 -0.00000000000E+00 -0.74505805969E-08  0.93827000000E+00  0.93827000000E+00 0.  1.
     999902    2    1    2    0    0  0.10594483585E-01  0.20941942320E-01  0.23077615472E-02  0.10203475109E+01  0.10200749527E+01 0.  0.
     999903    2    3    3    0    0  0.12536845925E+00 -0.33374019781E-02  0.35729831971E-01  0.13193342563E+00  0.20035445574E-01 0.  0.
         14    1    1    2    0    0 -0.10594483585E-01 -0.20941942320E-01 -0.23077615472E-02  0.23582489137E-01  0.00000000000E+00 0.  1.
     999901    1    3    3    0    0 -0.11477397566E+00  0.24279344298E-01 -0.33422070424E-01  0.88841408523E+00  0.88000000000E+00 0.  1.
        -11    1    4    4    0    0  0.82041034782E-01  0.73271111233E-02  0.22364220652E-01  0.85351259111E-01  0.51100000000E-03 0. -1.
         11    1    4    4    0    0  0.43327424467E-01 -0.10664513101E-01  0.13365611320E-01  0.46582166519E-01  0.51100000000E-03 0.  1.
</event>
<event>
 8    1  0.1138737E+005  0.1043930E+01  0.7957747E-01            NaN
         13   -1    0    0    0    0  0.00000000000E+00  0.00000000000E+00  0.74505805969E-08  0.10566000000E+00  0.10566000000E+00 0.  1.
     999900   -1    0    0    0    0 -0.00000000000E+00 -0.00000000000E+00 -0.74505805969E-08  0.93827000000E+00  0.93827000000E+00 0. -1.
     999902    2    1    2    0    0 -0.23418715704E-01  0.14053111049E-02 -0.43820544663E-02  0.10200634220E+01  0.10197841788E+01 0.  0.
     999903    2    3    3    0    0 -0.14370070431E-01 -0.66160180172E-01 -0.11032328203E+00  0.13109181542E+00  0.20740519465E-01 0.  0.
         14    1    1    2    0    0  0.23418715704E-01 -0.14053111049E-02  0.43820544663E-02  0.23866578009E-01  0.00000000000E+00 0.  1.
     999901    1    3    3    0    0 -0.90486452727E-02  0.67565491277E-01  0.10594122756E+00  0.88897160657E+00  0.88000000000E+00 0.  1.
        -11    1    4    4    0    0 -0.64185633728E-02 -0.68332284720E-02 -0.26306484132E-01  0.27931759620E-01  0.51100000000E-03 0.  1.
         11    1    4    4    0    0 -0.79515070582E-02 -0.59326951700E-01 -0.84016797898E-01  0.10316005580E+00  0.51100000000E-03 0. -1.
</event>
<event>
 7    1  0.1138737E+005  0.1043930E+01  0.7957747E-01            NaN
         13   -1    0    0    0    0  0.00000000000E+00  0.00000000000E+00  0.74505805969E-08  0.10566000000E+00  0.10566000000E+00 0.  1.
     999900   -1    0    0    0    0 -0.00000000000E+00 -0.00000000000E+00 -0.74505805969E-08  0.93827000000E+00  0.93827000000E+00 0.  1.
     999903    2    1    2    0    0  0.15980790771E-01 -0.78797585144E-01 -0.32861299654E-01  0.89394515498E-01  0.21144013052E-01 0.  0.
         14    1    1    2    0    0 -0.26580171998E-03 -0.13111329647E-01  0.67666127694E-01  0.68925194615E-01  0.00000000000E+00 0.  1.
     999901    1    1    2    0    0 -0.15714989051E-01  0.91908914791E-01 -0.34804828039E-01  0.88561028989E+00  0.88000000000E+00 0. -1.
        -11    1    3    3    0    0  0.20655454384E-01 -0.69512926565E-01 -0.30781795798E-01  0.78781183216E-01  0.51100000000E-03 0.  1.
         11    1    3    3    0    0 -0.46746636132E-02 -0.92846585795E-02 -0.20795038565E-02  0.10613332282E-01  0.51100000000E-03 0. -1.
</event>
<event>
 8    1  0.1138737E+005  0.1043930E+01  0.7957747E-01            NaN
         13   -1    0    0    0    0  0.00000000000E+00  0.00000000000E+00  0.74505805969E-08  0.10566000000E+00  0.10566000000E+00 0. -1.
     999900   -1    0    0    0    0 -0.00000000000E+00 -0.00000000000E+00 -0.74505805969E-08  0.93827000000E+00  0.93827000000E+00 0.  1.
     999902    2    1    2    0    0  0.22193611424E-01 -0.48690262980E-02 -0.44092672824E-02  0.10207846885E+01  0.10205222560E+01 0.  0.
     999903    2    3    3    0    0 -0.35414461722E-01 -0.25329805776E-02  0.12308826166E+00  0.12972926540E+00  0.20453900674E-01 0.  0.
         14    1    1    2    0    0 -0.22193611424E-01  0.48690262980E-02  0.44092672824E-02  0.23145311471E-01  0.00000000000E+00 0.  1.
     999901    1    3    3    0    0  0.57608073146E-01 -0.23360457205E-02 -0.12749752894E+00  0.89105542313E+00  0.88000000000E+00 0.  1.
        -11    1    4    4    0    0 -0.23399688497E-01  0.81660845465E-02  0.70371581314E-01  0.74609992200E-01  0.51100000000E-03 0.  1.
         11    1    4    4    0    0 -0.12014773225E-01 -0.10699065124E-01  0.52716680347E-01  0.55119273199E-01  0.51100000000E-03 0. -1.
</event>
<event>
 8    1  0.1138737E+005  0.1043930E+01  0.7957747E-01            NaN
         13   -1    0    0    0    0  0.00000000000E+00  0.00000000000E+00  0.74505805969E-08  0.10566000000E+00  0.10566000000E+00 0. -1.
     999900   -1    0    0    0    0 -0.00000000000E+00 -0.00000000000E+00 -0.74505805969E-08  0.93827000000E+00  0.93827000000E+00 0.  1.
     999902    2    1    2    0    0  0.21087519389E-01  0.21832169048E-01  0.35282540444E-02  0.10133722570E+01  0.10129114254E+01 0.  0.
     999903    2    3    3    0    0  0.83543217707E-01 -0.70305045174E-01 -0.55753884581E-01  0.12438162014E+00  0.20976729530E-01 0.  0.
         14    1    1    2    0    0 -0.21087519389E-01 -0.21832169048E-01 -0.35282540444E-02  0.30557742979E-01  0.00000000000E+00 0. -1.
     999901    1    3    3    0    0 -0.62455698318E-01  0.92137214222E-01  0.59282138626E-01  0.88899063688E+00  0.88000000000E+00 0.  1.
        -11    1    4    4    0    0  0.75536883335E-01 -0.54188379134E-01 -0.49509355337E-01  0.10532634316E+00  0.51100000000E-03 0.  1.
         11    1    4    4    0    0  0.80063343717E-02 -0.16116666040E-01 -0.62445292442E-02  0.19055276980E-01  0.51100000000E-03 0. -1.
</event>
<event>
 8    1  0.1138737E+005  0.1043930E+01  0.7957747E-01            NaN
         13   -1    0    0    0    0  0.00000000000E+00  0.00000000000E+00  0.74505805969E-08  0.10566000000E+00  0.10566000000E+00 0. -1.
     999900   -1    0    0    0    0 -0.00000000000E+00 -0.00000000000E+00 -0.74505805969E-08  0.93827000000E+00  0.93827000000E+00 0. -1.
     999902    2    1    2    0    0  0.33485432903E-01  0.13103437893E-01 -0.26744046053E-02  0.10078727297E+01  0.10072275376E+01 0.  0.
     999903    2    3    3    0    0  0.33530923514E-02  0.20024416310E-01  0.11594840044E+00  0.11937555595E+00  0.19856266444E-01 0.  0.
         14    1    1    2    0    0 -0.33485432903E-01 -0.13103437893E-01  0.26744046053E-02  0.36057270298E-01  0.00000000000E+00 0.  1.
     999901    1    3    3    0    0  0.30132340552E-01 -0.69209784166E-02 -0.11862280504E+00  0.88849717375E+00  0.88000000000E+00 0. -1.
        -11    1    4    4    0    0 -0.14120139837E-02  0.22267276472E-01  0.80579583714E-01  0.83613131848E-01  0.51100000000E-03 0. -1.
         11    1    4    4    0    0  0.47651063350E-02 -0.22428601619E-02  0.35368816725E-01  0.35762424102E-01  0.51100000000E-03 0.  1.
</event>
<event>
 8    1  0.1138737E+005  0.1043930E+01  0.7957747E-01            NaN
         13   -1    0    0    0    0  0.00000000000E+00  0.00000000000E+00  0.74505805969E-08  0.10566000000E+00  0.10566000000E+00 0.  1.
     999900   -1    0    0    0    0 -0.00000000000E+00 -0.00000000000E+00 -0.74505805969E-08  0.93827000000E+00  0.93827000000E+00 0. -1.
     999902    2    1    2    0    0  0.16408163375E-01 -0.96968961845E-02 -0.13461485306E-01  0.10205961360E+01  0.10203293604E+01 0.  0.
     999903    2    3    3    0    0 -0.10505659373E-01  0.12615431579E+00 -0.21003537885E-01  0.12973319023E+00  0.19085905074E-01 0.  0.
         14    1    1    2    0    0 -0.16408163375E-01  0.96968961845E-02  0.13461485306E-01  0.23333863967E-01  0.00000000000E+00 0.  1.
     999901    1    3    3    0    0  0.26913822748E-01 -0.13585121197E+00  0.75420525785E-02  0.89086294580E+00  0.88000000000E+00 0.  1.
        -11    1    4    4    0    0 -0.11114876197E-01  0.67510633179E-01 -0.19167131535E-01  0.71055373599E-01  0.51100000000E-03 0.  1.
         11    1    4    4    0    0  0.60921682432E-03  0.58643682610E-01 -0.18364063499E-02  0.58677816630E-01  0.51100000000E-03 0. -1.
</event>
<event>
 8    1  0.1138737E+005  0.1043930E+01  0.7957747E-01            NaN
         13   -1    0    0    0    0  0.00000000000E+00  0.00000000000E+00  0.74505805969E-08  0.10566000000E+00  0.10566000000E+00 0. -1.
     999900   -1    0    0    0    0 -0.00000000000E+00 -0.00000000000E+00 -0.74505805969E-08  0.93827000000E+00  0.93827000000E+00 0. -1.
     999902    2    1    2    0    0  0.16893610763E-01  0.15454909386E-01 -0.64834291523E-02  0.10201332951E+01  0.10198557039E+01 0.  0.
     999903    2    3    3    0    0 -0.64384882100E-01  0.31503771003E-01 -0.10714335334E+00  0.13052878767E+00  0.20497941770E-01 0.  0.
         14    1    1    2    0    0 -0.16893610763E-01 -0.15454909386E-01  0.64834291523E-02  0.23796704863E-01  0.00000000000E+00 0. -1.
     999901    1    3    3    0    0  0.81278492863E-01 -0.16048861617E-01  0.10065992419E+00  0.88960450746E+00  0.88000000000E+00 0.  1.
        -11    1    4    4    0    0 -0.12825252987E-01  0.15805031941E-01 -0.24404074359E-01  0.31782166622E-01  0.51100000000E-03 0.  1.
         11    1    4    4    0    0 -0.51559629113E-01  0.15698739062E-01 -0.82739278979E-01  0.98746621053E-01  0.51100000000E-03 0. -1.
</event>
<event>
 8    1  0.1138737E+005  0.1043930E+01  0.7957747E-01            NaN
         13   -1    0    0    0    0  0.00000000000E+00  0.00000000000E+00  0.74505805969E-08  0.10566000000E+00  0.10566000000E+00 0. -1.
     999900   -1    0    0    0    0 -0.00000000000E+00 -0.00000000000E+00 -0.74505805969E-08  0.93827000000E+00  0.93827000000E+00 0.  1.
     999902    2    1    2    0    0  0.77586559684E-02  0.26094990200E-01  0.70863234617E-02  0.10157988565E+01  0.10154092552E+01 0.  0.
     999903    2    3    3    0    0  0.26007663646E-01  0.11297300874E+00  0.49209101942E-01  0.13032997229E+00  0.33542013828E-01 0.  0.
         14    1    1    2    0    0 -0.77586559684E-02 -0.26094990200E-01 -0.70863234617E-02  0.28131143528E-01  0.00000000000E+00 0.  1.
     999901    1    3    3    0    0 -0.18249007678E-01 -0.86878018539E-01 -0.42122778480E-01  0.88546888418E+00  0.88000000000E+00 0. -1.
        -11    1    4    4    0    0  0.17035202108E-01  0.10977833198E+00  0.44271280570E-01  0.11958966380E+00  0.51100000000E-03 0.  1.
         11    1    4    4    0    0  0.89724615382E-02  0.31946767614E-02  0.49378213716E-02  0.10740308495E-01  0.51100000000E-03 0. -1.
</event>
<event>
 8    1  0.1138737E+005  0.1043930E+01  0.7957747E-01            NaN
         13   -1    0    0    0    0  0.00000000000E+00  0.00000000000E+00  0.74505805969E-08  0.10566000000E+00  0.10566000000E+00 0. -1.
     999900   -1    0    0    0    0 -0.00000000000E+00 -0.00000000000E+00 -0.74505805969E-08  0.93827000000E+00  0.93827000000E+00 0.  1.
     999902    2    1    2    0    0 -0.18626445367E-01  0.14640325084E-01  0.55598213235E-02  0.10195949389E+01  0.10193044904E+01 0.  0.
     999903    2    3    3    0    0  0.46140290127E-01 -0.60075878087E-01 -0.10040988575E+00  0.12773910982E+00  0.22295683896E-01 0.  0.
         14    1    1    2    0    0  0.18626445367E-01 -0.14640325084E-01 -0.55598213235E-02  0.24335061100E-01  0.00000000000E+00 0.  1.
     999901    1    3    3    0    0 -0.64766735493E-01  0.74716203171E-01  0.10596970708E+00  0.89185582908E+00  0.88000000000E+00 0. -1.
        -11    1    4    4    0    0  0.81789661900E-02 -0.24478128278E-01 -0.43808575163E-01  0.50848074012E-01  0.51100000000E-03 0. -1.
         11    1    4    4    0    0  0.37961323937E-01 -0.35597749809E-01 -0.56601310590E-01  0.76891035811E-01  0.51100000000E-03 0.  1.
</event>
<event>
 8    1  0.1138737E+005  0.1043930E+01  0.7957747E-01            NaN
         13   -1    0    0    0    0  0.00000000000E+00  0.00000000000E+00  0.74505805969E-08  0.10566000000E+00  0.10566000000E+00 0. -1.
     999900   -1    0    0    0    0 -0.00000000000E+00 -0.00000000000E+00 -0.74505805969E-08  0.93827000000E+00  0.93827000000E+00 0. -1.
     999902    2    1    2    0    0 -0.22617596161E-01  0.15156831403E-02 -0.61191830905E-03  0.10212534175E+01  0.10210016235E+01 0.  0.
     999903    2    3    3    0    0 -0.24732726527E-01  0.14040377859E-01 -0.12726608427E+00  0.13209504040E+00  0.21061897367E-01 0.  0.
         14    1    1    2    0    0  0.22617596161E-01 -0.15156831403E-02  0.61191830905E-03  0.22676582536E-01  0.00000000000E+00 0. -1.
     999901    1    3    3    0    0  0.21151303661E-02 -0.12524694719E-01  0.12665416596E+00  0.88915837707E+00  0.88000000000E+00 0.  1.
        -11    1    4    4    0    0 -0.24436298942E-01  0.33585635894E-02 -0.86681732970E-01  0.90124339704E-01  0.51100000000E-03 0.  1.
         11    1    4    4    0    0 -0.29642758531E-03  0.10681814270E-01 -0.40584351298E-01  0.41970700693E-01  0.51100000000E-03 0. -1.
</event>
<event>
 8    1  0.1138737E+005  0.1043930E+01  0.7957747E-01            NaN
         13   -1    0    0    0    0  0.00000000000E+00  0.00000000000E+00  0.74505805969E-08  0.10566000000E+00  0.10566000000E+00 0. -1.
     999900   -1    0    0    0    0 -0.00000000000E+00 -0.00000000000E+00 -0.74505805969E-08  0.93827000000E+00  0.93827000000E+00 0. -1.
     999902    2    1    2    0    0 -0.13756106157E-01  0.17724241794E-01 -0.10149395716E-01  0.10193050241E+01  0.10190075283E+01 0.  0.
     999903    2    3    3    0    0  0.39349870489E-01  0.10184345089E+00 -0.70488353459E-01  0.13164682643E+00  0.21018518971E-01 0.  0.
         14    1    1    2    0    0  0.13756106157E-01 -0.17724241794E-01  0.10149395716E-01  0.24624975882E-01  0.00000000000E+00 0. -1.
     999901    1    3    3    0    0 -0.53105976647E-01 -0.84119209097E-01  0.60338957743E-01  0.88765819768E+00  0.88000000000E+00 0. -1.
        -11    1    4    4    0    0  0.31800885366E-01  0.59704360364E-01 -0.35747741455E-01  0.76511888597E-01  0.51100000000E-03 0.  1.
         11    1    4    4    0    0  0.75489851237E-02  0.42139090527E-01 -0.34740612004E-01  0.55134937836E-01  0.51100000000E-03 0. -1.
</event>
<event>
 8    1  0.1138737E+005  0.1043930E+01  0.7957747E-01            NaN
         13   -1    0    0    0    0  0.00000000000E+00  0.00000000000E+00  0.74505805969E-08  0.10566000000E+00  0.10566000000E+00 0. -1.
     999900   -1    0    0    0    0 -0.00000000000E+00 -0.00000000000E+00 -0.74505805969E-08  0.93827000000E+00  0.93827000000E+00 0. -1.
     999902    2    1    2    0    0 -0.10176079202E-01  0.12337096023E-01 -0.24095447198E-01  0.10150103336E+01  0.10145982606E+01 0.  0.
     999903    2    3    3    0    0 -0.12204806267E+00  0.21761202202E-01 -0.25329961483E-01  0.12787692852E+00  0.18483029476E-01 0.  0.
         14    1    1    2    0    0  0.10176079202E-01 -0.12337096023E-01  0.24095447198E-01  0.28919666351E-01  0.00000000000E+00 0. -1.
     999901    1    3    3    0    0  0.11187198346E+00 -0.94241061784E-02  0.12345142854E-02  0.88713340512E+00  0.88000000000E+00 0.  1.
        -11    1    4    4    0    0 -0.96806032643E-01  0.12447701016E-01 -0.25821427507E-01  0.10096217339E+00  0.51100000000E-03 0. -1.
         11    1    4    4    0    0 -0.25242030022E-01  0.93135011854E-02  0.49146602367E-03  0.26914755132E-01  0.51100000000E-03 0.  1.
</event>
<event>
 8    1  0.1138737E+005  0.1043930E+01  0.7957747E-01            NaN
         13   -1    0    0    0    0  0.00000000000E+00  0.00000000000E+00  0.74505805969E-08  0.10566000000E+00  0.10566000000E+00 0.  1.
     999900   -1    0    0    0    0 -0.00000000000E+00 -0.00000000000E+00 -0.74505805969E-08  0.93827000000E+00  0.93827000000E+00 0. -1.
     999902    2    1    2    0    0  0.22751208870E-01  0.21448362527E-02 -0.74379539429E-02  0.10198979176E+01  0.10196147416E+01 0.  0.
     999903    2    3    3    0    0 -0.41678421836E-01 -0.11253641512E+00 -0.43908611319E-01  0.12937387208E+00  0.20201412180E-01 0.  0.
         14    1    1    2    0    0 -0.22751208870E-01 -0.21448362527E-02  0.74379539429E-02  0.24032082442E-01  0.00000000000E+00 0. -1.
     999901    1    3    3    0    0  0.64429630706E-01  0.11468125137E+00  0.36470657376E-01  0.89052404548E+00  0.88000000000E+00 0.  1.
        -11    1    4    4    0    0 -0.26137713153E-01 -0.82366345685E-01 -0.39947738651E-01  0.95202299839E-01  0.51100000000E-03 0. -1.
         11    1    4    4    0    0 -0.15540708683E-01 -0.30170069434E-01 -0.39608726684E-02  0.34171572239E-01  0.51100000000E-03 0.  1.
</event>
<event>
 8    1  0.1138737E+005  0.1043930E+01  0.7957747E-01            NaN
         13   -1    0    0    0    0  0.00000000000E+00  0.00000000000E+00  0.74505805969E-08  0.10566000000E+00  0.10566000000E+00 0.  1.
     999900   -1    0    0    0    0 -0.00000000000E+00 -0.00000000000E+00 -0.74505805969E-08  0.93827000000E+00  0.93827000000E+00 0. -1.
     999902    2    1    2    0    0  0.45657371479E-02 -0.55401645903E-02  0.22771461201E-01  0.10200536765E+01  0.10197742025E+01 0.  0.
     999903    2    3    3    0    0  0.71907645400E-01 -0.10784657639E+00 -0.28428867458E-02  0.13120181632E+00  0.20105747771E-01 0.  0.
         14    1    1    2    0    0 -0.45657371479E-02  0.55401645903E-02 -0.22771461201E-01  0.23876323515E-01  0.00000000000E+00 0. -1.
     999901    1    3    3    0    0 -0.67341908252E-01  0.10230641180E+00  0.25614347946E-01  0.88885186017E+00  0.88000000000E+00 0.  1.
        -11    1    4    4    0    0  0.31553916353E-01 -0.62286553603E-01  0.40888420635E-02  0.69944579114E-01  0.51100000000E-03 0. -1.
         11    1    4    4    0    0  0.40353729047E-01 -0.45560022789E-01 -0.69317288093E-02  0.61257237203E-01  0.51100000000E-03 0.  1.
</event>
<event>
 8    1  0.1138737E+005  0.1043930E+01  0.7957747E-01            NaN
         13   -1    0    0    0    0  0.00000000000E+00  0.00000000000E+00  0.74505805969E-08  0.10566000000E+00  0.10566000000E+00 0.  1.
     999900   -1    0    0    0    0 -0.00000000000E+00 -0.00000000000E+00 -0.74505805969E-08  0.93827000000E+00  0.93827000000E+00 0.  1.
     999902    2    1    2    0    0 -0.91997006154E-02  0.15263222626E-01  0.12948817481E-01  0.10219011024E+01  0.10216636387E+01 0.  0.
     999903    2    3    3    0    0  0.10646404043E+00 -0.24415109682E-01 -0.66228825193E-01  0.12992488624E+00  0.23738771959E-01 0.  0.
         14    1    1    2    0    0  0.91997006154E-02 -0.15263222626E-01 -0.12948817481E-01  0.22028897624E-01  0.00000000000E+00 0. -1.
     999901    1    3    3    0    0 -0.11566374104E+00  0.39678332308E-01  0.79177642675E-01  0.89197621613E+00  0.88000000000E+00 0. -1.
        -11    1    4    4    0    0  0.69266151088E-01 -0.93756088661E-02 -0.52837656938E-01  0.87622946993E-01  0.51100000000E-03 0.  1.
         11    1    4    4    0    0  0.37197889339E-01 -0.15039500816E-01 -0.13391168255E-01  0.42301939250E-01  0.51100000000E-03 0. -1.
</event>
<event>
 7    1  0.1138737E+005  0.1043930E+01  0.7957747E-01            NaN
         13   -1    0    0    0    0  0.00000000000E+00  0.00000000000E+00  0.74505805969E-08  0.10566000000E+00  0.10566000000E+00 0. -1.
     999900   -1    0    0    0    0 -0.00000000000E+00 -0.00000000000E+00 -0.74505805969E-08  0.93827000000E+00  0.93827000000E+00 0.  1.
     999903    2    1    2    0    0 -0.76705074753E-01  0.27881466222E-01 -0.76017121704E-01  0.11336471708E+00  0.20295606322E-01 0.  0.
         14    1    1    2    0    0 -0.10997503195E-01  0.38495565726E-01 -0.33404047641E-02  0.40174767717E-01  0.00000000000E+00 0.  1.
     999901    1    1    2    0    0  0.87702577948E-01 -0.66377031948E-01  0.79357526468E-01  0.89039051520E+00  0.88000000000E+00 0. -1.
        -11    1    3    3    0    0 -0.28615241243E-01  0.15326299521E-02 -0.19826561769E-01  0.34850174440E-01  0.51100000000E-03 0.  1.
         11    1    3    3    0    0 -0.48089833510E-01  0.26348836270E-01 -0.56190559935E-01  0.78514542644E-01  0.51100000000E-03 0. -1.
</event>
<event>
 8    1  0.1138737E+005  0.1043930E+01  0.7957747E-01            NaN
         13   -1    0    0    0    0  0.00000000000E+00  0.00000000000E+00  0.74505805969E-08  0.10566000000E+00  0.10566000000E+00 0.  1.
     999900   -1    0    0    0    0 -0.00000000000E+00 -0.00000000000E+00 -0.74505805969E-08  0.93827000000E+00  0.93827000000E+00 0.  1.
     999902    2    1    2    0    0  0.43765137707E-02 -0.30038854921E-01  0.15515710145E-02  0.10135343745E+01  0.10130784936E+01 0.  0.
     999903    2    3    3    0    0  0.78157196923E-01 -0.48997392846E-01 -0.83226033561E-01  0.12618424201E+00  0.22058973978E-01 0.  0.
         14    1    1    2    0    0 -0.43765137707E-02  0.30038854921E-01 -0.15515710145E-02  0.30395625514E-01  0.00000000000E+00 0. -1.
     999901    1    3    3    0    0 -0.73780683152E-01  0.18958537926E-01  0.84777604576E-01  0.88735013248E+00  0.88000000000E+00 0. -1.
        -11    1    4    4    0    0  0.59536409690E-01 -0.26748320787E-01 -0.51110288081E-01  0.82901021782E-01  0.51100000000E-03 0.  1.
         11    1    4    4    0    0  0.18620787233E-01 -0.22249072060E-01 -0.32115745480E-01  0.43283220229E-01  0.51100000000E-03 0. -1.
</event>
<event>
 8    1  0.1138737E+005  0.1043930E+01  0.7957747E-01            NaN
         13   -1    0    0    0    0  0.00000000000E+00  0.00000000000E+00  0.74505805969E-08  0.10566000000E+00  0.10566000000E+00 0. -1.
     999900   -1    0    0    0    0 -0.00000000000E+00 -0.00000000000E+00 -0.74505805969E-08  0.93827000000E+00  0.93827000000E+00 0.  1.
     999902    2    1    2    0    0  0.63519700941E-02 -0.17781248351E-01 -0.96139884828E-02  0.10227415812E+01  0.10225220745E+01 0.  0.
     999903    2    3    3    0    0 -0.54661451417E-01  0.11660054783E+00 -0.61643229610E-02  0.13044510303E+00  0.19858600193E-01 0.  0.
         14    1    1    2    0    0 -0.63519700941E-02  0.17781248351E-01  0.96139884828E-02  0.21188418807E-01  0.00000000000E+00 0. -1.
     999901    1    3    3    0    0  0.61013421511E-01 -0.13438179618E+00 -0.34496655218E-02  0.89229647816E+00  0.88000000000E+00 0. -1.
        -11    1    4    4    0    0 -0.37888962734E-01  0.63360224055E-01  0.29419679864E-02  0.73885098538E-01  0.51100000000E-03 0.  1.
         11    1    4    4    0    0 -0.16772488683E-01  0.53240323775E-01 -0.91062909474E-02  0.56560004492E-01  0.51100000000E-03 0. -1.
</event>
<event>
 8    1  0.1138737E+005  0.1043930E+01  0.7957747E-01            NaN
         13   -1    0    0    0    0  0.00000000000E+00  0.00000000000E+00  0.74505805969E-08  0.10566000000E+00  0.10566000000E+00 0.  1.
     999900   -1    0    0    0    0 -0.00000000000E+00 -0.00000000000E+00 -0.74505805969E-08  0.93827000000E+00  0.93827000000E+00 0.  1.
     999902    2    1    2    0    0  0.11627603937E-01  0.10274690360E-01 -0.17360130813E-01  0.10206460017E+01  0.10203803782E+01 0.  0.
     999903    2    3    3    0    0  0.68796563994E-01  0.10129347751E+00 -0.49417825863E-01  0.13352684091E+00  0.19848423822E-01 0.  0.
         14    1    1    2    0    0 -0.11627603937E-01 -0.10274690360E-01  0.17360130813E-01  0.23283998307E-01  0.00000000000E+00 0.  1.
     999901    1    3    3    0    0 -0.57168960057E-01 -0.91018787150E-01  0.32057695050E-01  0.88711916078E+00  0.88000000000E+00 0. -1.
        -11    1    4    4    0    0  0.50913948381E-01  0.85556170551E-01 -0.45153731343E-01  0.10932158540E+00  0.51100000000E-03 0. -1.
         11    1    4    4    0    0  0.17882615613E-01  0.15737306959E-01 -0.42640945202E-02  0.24205255515E-01  0.51100000000E-03 0.  1.
</event>
<event>
 8    1  0.1138737E+005  0.1043930E+01  0.7957747E-01            NaN
         13   -1    0    0    0    0  0.00000000000E+00  0.00000000000E+00  0.74505805969E-08  0.10566000000E+00  0.10566000000E+00 0. -1.
     999900   -1    0    0    0    0 -0.00000000000E+00 -0.00000000000E+00 -0.74505805969E-08  0.93827000000E+00  0.93827000000E+00 0.  1.
     999902    2    1    2    0    0 -0.15232263843E-01  0.18006454402E-01  0.15574282645E-01  0.10156667280E+01  0.10152734065E+01 0.  0.
     999903    2    3    3    0    0  0.11072636150E+00 -0.36863238998E-01 -0.34896052401E-01  0.12357731925E+00  0.20842116964E-01 0.  0.
         14    1    1    2    0    0  0.15232263843E-01 -0.18006454402E-01 -0.15574282645E-01  0.28263271959E-01  0.00000000000E+00 0.  1.
     999901    1    3    3    0    0 -0.12595862535E+00  0.54869693400E-01  0.50470335046E-01  0.89208940879E+00  0.88000000000E+00 0. -1.
        -11    1    4    4    0    0  0.72725691594E-01 -0.26259579245E-01 -0.33016235276E-01  0.84076897140E-01  0.51100000000E-03 0. -1.
         11    1    4    4    0    0  0.38000669908E-01 -0.10603659753E-01 -0.18798171254E-02  0.39500422112E-01  0.51100000000E-03 0.  1.
</event>
<event>
 8    1  0.1138737E+005  0.1043930E+01  0.7957747E-01            NaN
         13   -1    0    0    0    0  0.00000000000E+00  0.00000000000E+00  0.74505805969E-08  0.10566000000E+00  0.10566000000E+00 0.  1.
     999900   -1    0    0    0    0 -0.00000000000E+00 -0.00000000000E+00 -0.74505805969E-08  0.93827000000E+00  0.93827000000E+00 0. -1.
     999902    2    1    2    0    0  0.97885161361E-02  0.22732173629E-01  0.20209017802E-02  0.10190975452E+01  0.10187949528E+01 0.  0.
     999903    2    3    3    0    0  0.96249778410E-01 -0.64935363920E-01 -0.51138864285E-01  0.12893626336E+00  0.22994678438E-01 0.  0.
         14    1    1    2    0    0 -0.97885161361E-02 -0.22732173629E-01 -0.20209017802E-02  0.24832454773E-01  0.00000000000E+00 0. -1.
     999901    1    3    3    0    0 -0.86461262274E-01  0.87667537549E-01  0.53159766065E-01  0.89016128187E+00  0.88000000000E+00 0.  1.
        -11    1    4    4    0    0  0.33785710996E-01 -0.29527825521E-01 -0.30387954999E-01  0.54194609303E-01  0.51100000000E-03 0. -1.
         11    1    4    4    0    0  0.62464067414E-01 -0.35407538399E-01 -0.20750909286E-01  0.74741654053E-01  0.51100000000E-03 0.  1.
</event>
<event>
 8    1  0.1138737E+005  0.1043930E+01  0.7957747E-01            NaN
         13   -1    0    0    0    0  0.00000000000E+00  0.00000000000E+00  0.74505805969E-08  0.10566000000E+00  0.10566000000E+00 0. -1.
     999900   -1    0    0    0    0 -0.00000000000E+00 -0.00000000000E+00 -0.74505805969E-08  0.93827000000E+00  0.93827000000E+00 0. -1.
     999902    2    1    2    0    0 -0.73462806126E-02  0.18617618945E-01 -0.14832511943E-01  0.10190184167E+01  0.10187138688E+01 0.  0.
     999903    2    3    3    0    0 -0.86856080403E-02 -0.51721354635E-01 -0.11758680036E+00  0.13025083805E+00  0.19699920844E-01 0.  0.
         14    1    1    2    0    0  0.73462806126E-02 -0.18617618945E-01  0.14832511943E-01  0.24911583341E-01  0.00000000000E+00 0. -1.
     999901    1    3    3    0    0  0.13393274277E-02  0.70338973580E-01  0.10275428842E+00  0.88876757861E+00  0.88000000000E+00 0.  1.
        -11    1    4    4    0    0  0.97786278292E-03 -0.13687514220E-01 -0.14616525973E-01  0.20055129360E-01  0.51100000000E-03 0.  1.
         11    1    4    4    0    0 -0.96634708232E-02 -0.38033840415E-01 -0.10297027439E+00  0.11019570869E+00  0.51100000000E-03 0. -1.
</event>
<event>
 8    1  0.1138737E+005  0.1043930E+01  0.7957747E-01            NaN
         13   -1    0    0    0    0  0.00000000000E+00  0.00000000000E+00  0.74505805969E-08  0.10566000000E+00  0.10566000000E+00 0. -1.
     999900   -1    0    0    0    0 -0.00000000000E+00 -0.00000000000E+00 -0.74505805969E-08  0.93827000000E+00  0.93827000000E+00 0. -1.
     999902    2    1    2    0    0 -0.32467062311E-02 -0.27761628814E-01 -0.97210299421E-02  0.10143369677E+01  0.10139051911E+01 0.  0.
     999903    2    3    3    0    0  0.75812289427E-01 -0.74146083831E-01  0.65689049877E-01  0.12636820555E+00  0.20217000908E-01 0.  0.
         14    1    1    2    0    0  0.32467062311E-02  0.27761628814E-01  0.97210299421E-02  0.29593032270E-01  0.00000000000E+00 0.  1.
     999901    1    3    3    0    0 -0.79058995658E-01  0.46384455017E-01 -0.75410079819E-01  0.88796876218E+00  0.88000000000E+00 0. -1.
        -11    1    4    4    0    0  0.52604793638E-01 -0.46346865312E-01  0.53372320687E-01  0.88114482206E-01  0.51100000000E-03 0.  1.
         11    1    4    4    0    0  0.23207495790E-01 -0.27799218520E-01  0.12316729189E-01  0.38253723349E-01  0.51100000000E-03 0. -1.
</event>
<event>
 8    1  0.1138737E+005  0.1043930E+01  0.7957747E-01            NaN
         13   -1    0    0    0    0  0.00000000000E+00  0.00000000000E+00  0.74505805969E-08  0.10566000000E+00  0.10566000000E+00 0. -1.
     999900   -1    0    0    0    0 -0.00000000000E+00 -0.00000000000E+00 -0.74505805969E-08  0.93827000000E+00  0.93827000000E+00 0.  1.
     999902    2    1    2    0    0 -0.16298739573E-01  0.17162822983E-01  0.10752012952E-02  0.10202368056E+01  0.10199616522E+01 0.  0.
     999903    2    3    3    0    0  0.28243899669E-02 -0.31105856152E-01 -0.12437129689E+00  0.12982544930E+00  0.20270084596E-01 0.  0.
         14    1    1    2    0    0  0.16298739573E-01 -0.17162822983E-01 -0.10752012952E-02  0.23693194429E-01  0.00000000000E+00 0.  1.
     999901    1    3    3    0    0 -0.19123129540E-01  0.48268679135E-01  0.12544649819E+00  0.89041135627E+00  0.88000000000E+00 0. -1.
        -11    1    4    4    0    0  0.22425502224E-02  0.26020511056E-02 -0.98735763750E-02  0.10466533948E-01  0.51100000000E-03 0.  1.
         11    1    4    4    0    0  0.58183974458E-03 -0.33707907258E-01 -0.11449772052E+00  0.11935891535E+00  0.51100000000E-03 0. -1.
</event>
<event>
 8    1  0.1138737E+005  0.1043930E+01  0.7957747E-01            NaN
         13   -1    0    0    0    0  0.00000000000E+00  0.00000000000E+00  0.74505805969E-08  0.10566000000E+00  0.10566000000E+00 0.  1.
     999900   -1    0    0    0    0 -0.00000000000E+00 -0.00000000000E+00 -0.74505805969E-08  0.93827000000E+00  0.93827000000E+00 0.  1.
     999902    2    1    2    0    0 -0.14476953400E-01  0.23190245062E-01 -0.38536039721E-02  0.10163216696E+01  0.10159466109E+01 0.  0.
     999903    2    3    3    0    0 -0.10226357216E+00  0.40835846794E-01  0.64480888623E-01  0.12914217219E+00  0.19862302636E-01 0.  0.
         14    1    1    2    0    0  0.14476953400E-01 -0.23190245062E-01  0.38536039721E-02  0.27608330434E-01  0.00000000000E+00 0. -1.
     999901    1    3    3    0    0  0.87786618756E-01 -0.17645601732E-01 -0.68334492596E-01  0.88717949738E+00  0.88000000000E+00 0.  1.
        -11    1    4    4    0    0 -0.82700173158E-01  0.41024643583E-01  0.53589624360E-01  0.10674478433E+00  0.51100000000E-03 0.  1.
         11    1    4    4    0    0 -0.19563398997E-01 -0.18879678933E-03  0.10891264263E-01  0.22397387857E-01  0.51100000000E-03 0. -1.
</event>
<event>
 8    1  0.1138737E+005  0.1043930E+01  0.7957747E-01            NaN
         13   -1    0    0    0    0  0.00000000000E+00  0.00000000000E+00  0.74505805969E-08  0.10566000000E+00  0.10566000000E+00 0.  1.
     999900   -1    0    0    0    0 -0.00000000000E+00 -0.00000000000E+00 -0.74505805969E-08  0.93827000000E+00  0.93827000000E+00 0.  1.
     999902    2    1    2    0    0  0.10227775638E-01  0.10843723879E-01  0.18735802441E-01  0.10199879024E+01  0.10197068682E+01 0.  0.
     999903    2    3    3    0    0  0.28907514877E-01  0.12503077016E+00 -0.20849862665E-01  0.13153157877E+00  0.19937440598E-01 0.  0.
         14    1    1    2    0    0 -0.10227775638E-01 -0.10843723879E-01 -0.18735802441E-01  0.23942097552E-01  0.00000000000E+00 0. -1.
     999901    1    3    3    0    0 -0.18679739240E-01 -0.11418704628E+00  0.39585665106E-01  0.88845632368E+00  0.88000000000E+00 0. -1.
        -11    1    4    4    0    0  0.28595759983E-01  0.10598221920E+00 -0.11712962258E-01  0.11039657097E+00  0.51100000000E-03 0. -1.
         11    1    4    4    0    0  0.31175489478E-03  0.19048550960E-01 -0.91369004073E-02  0.21135007803E-01  0.51100000000E-03 0.  1.
</event>
<event>
 8    1  0.1138737E+005  0.1043930E+01  0.7957747E-01            NaN
         13   -1    0    0    0    0  0.00000000000E+00  0.00000000000E+00  0.74505805969E-08  0.10566000000E+00  0.10566000000E+00 0. -1.
     999900   -1    0    0    0    0 -0.00000000000E+00 -0.00000000000E+00 -0.74505805969E-08  0.93827000000E+00  0.93827000000E+00 0.  1.
     999902    2    1    2    0    0 -0.75009470752E-02  0.16235127694E-01  0.14864208968E-01  0.10206751449E+01  0.10204101935E+01 0.  0.
     999903    2    3    3    0    0 -0.24854282794E-02  0.12324783284E+00 -0.43631207177E-01  0.13225036574E+00  0.19755286486E-01 0.  0.
         14    1    1    2    0    0  0.75009470752E-02 -0.16235127694E-01 -0.14864208968E-01  0.23254855117E-01  0.00000000000E+00 0.  1.
     999901    1    3    3    0    0 -0.50155187959E-02 -0.10701270515E+00  0.58495416145E-01  0.88842477915E+00  0.88000000000E+00 0. -1.
        -11    1    4    4    0    0  0.37947863095E-02  0.94814679730E-01 -0.26757853798E-01  0.98592432551E-01  0.51100000000E-03 0.  1.
         11    1    4    4    0    0 -0.62802145889E-02  0.28433153111E-01 -0.16873353379E-01  0.33657933186E-01  0.51100000000E-03 0. -1.
</event>
<event>
 8    1  0.1138737E+005  0.1043930E+01  0.7957747E-01            NaN
         13   -1    0    0    0    0  0.00000000000E+00  0.00000000000E+00  0.74505805969E-08  0.10566000000E+00  0.10566000000E+00 0.  1.
     999900   -1    0    0    0    0 -0.00000000000E+00 -0.00000000000E+00 -0.74505805969E-08  0.93827000000E+00  0.93827000000E+00 0. -1.
     999902    2    1    2    0    0 -0.19587722118E-01  0.31738665464E-02 -0.14005824029E-01  0.10196418261E+01  0.10193525092E+01 0.  0.
     999903    2    3    3    0    0 -0.27207637876E-01  0.24442281320E-01  0.12199413366E+00  0.12890819748E+00  0.19926717176E-01 0.  0.
         14    1    1    2    0    0  0.19587722118E-01 -0.31738665464E-02  0.14005824029E-01  0.24288173941E-01  0.00000000000E+00 0.  1.
     999901    1    3    3    0    0  0.76199157575E-02 -0.21268414774E-01 -0.13599995769E+00  0.89073362857E+00  0.88000000000E+00 0. -1.
        -11    1    4    4    0    0 -0.70933099575E-02  0.12431950421E-01  0.22345635911E-01  0.26541608894E-01  0.51100000000E-03 0. -1.
         11    1    4    4    0    0 -0.20114327918E-01  0.12010330900E-01  0.99648497745E-01  0.10236658859E+00  0.51100000000E-03 0.  1.
</event>
<event>
 8    1  0.1138737E+005  0.1043930E+01  0.7957747E-01            NaN
         13   -1    0    0    0    0  0.00000000000E+00  0.00000000000E+00  0.74505805969E-08  0.10566000000E+00  0.10566000000E+00 0. -1.
     999900   -1    0    0    0    0 -0.00000000000E+00 -0.00000000000E+00 -0.74505805969E-08  0.93827000000E+00  0.93827000000E+00 0. -1.
     999902    2    1    2    0    0 -0.91715540811E-02 -0.58826468755E-02 -0.21518507334E-01  0.10198101099E+01  0.10195248360E+01 0.  0.
     999903    2    3    3    0    0 -0.83263529393E-01 -0.36525943129E-02 -0.10165700253E+00  0.13306506634E+00  0.20639984111E-01 0.  0.
         14    1    1    2    0    0  0.91715540811E-02  0.58826468755E-02  0.21518507334E-01  0.24119890058E-01  0.00000000000E+00 0.  1.
     999901    1    3    3    0    0  0.74091975312E-01 -0.22300525626E-02  0.80138495198E-01  0.88674504360E+00  0.88000000000E+00 0.  1.
        -11    1    4    4    0    0 -0.38741564221E-01 -0.95444023528E-02 -0.58230302813E-01  0.70590606324E-01  0.51100000000E-03 0.  1.
         11    1    4    4    0    0 -0.44521965172E-01  0.58918080400E-02 -0.43426699719E-01  0.62474460016E-01  0.51100000000E-03 0. -1.
</event>
<event>
 8    1  0.1138737E+005  0.1043930E+01  0.7957747E-01            NaN
         13   -1    0    0    0    0  0.00000000000E+00  0.00000000000E+00  0.74505805969E-08  0.10566000000E+00  0.10566000000E+00 0.  1.
     999900   -1    0    0    0    0 -0.00000000000E+00 -0.00000000000E+00 -0.74505805969E-08  0.93827000000E+00  0.93827000000E+00 0.  1.
     999902    2    1    2    0    0  0.35808438112E-02  0.14108101057E-01  0.19740704490E-01  0.10194033538E+01  0.10191082580E+01 0.  0.
     999903    2    3    3    0    0  0.86880383349E-01 -0.14726167369E-01 -0.91067416054E-01  0.12808485415E+00  0.18638524066E-01 0.  0.
         14    1    1    2    0    0 -0.35808438112E-02 -0.14108101057E-01 -0.19740704490E-01  0.24526646155E-01  0.00000000000E+00 0. -1.
     999901    1    3    3    0    0 -0.83299539538E-01  0.28834268426E-01  0.11080812054E+00  0.89131849970E+00  0.88000000000E+00 0. -1.
        -11    1    4    4    0    0  0.28142096793E-01 -0.10510500920E-01 -0.21543587100E-01  0.36970738533E-01  0.51100000000E-03 0. -1.
         11    1    4    4    0    0  0.58738286556E-01 -0.42156664487E-02 -0.69523828954E-01  0.91114115616E-01  0.51100000000E-03 0.  1.
</event>
<event>
 8    1  0.1138737E+005  0.1043930E+01  0.7957747E-01            NaN
         13   -1    0    0    0    0  0.00000000000E+00  0.00000000000E+00  0.74505805969E-08  0.10566000000E+00  0.10566000000E+00 0.  1.
     999900   -1    0    0    0    0 -0.00000000000E+00 -0.00000000000E+00 -0.74505805969E-08  0.93827000000E+00  0.93827000000E+00 0.  1.
     999902    2    1    2    0    0  0.19702922525E-01  0.12376149023E-01  0.59452751827E-02  0.10199149939E+01  0.10196322250E+01 0.  0.
     999903    2    3    3    0    0  0.83828597237E-01 -0.89068925279E-01  0.43223526414E-01  0.13098705910E+00  0.18133649720E-01 0.  0.
         14    1    1    2    0    0 -0.19702922525E-01 -0.12376149023E-01 -0.59452751827E-02  0.24015006093E-01  0.00000000000E+00 0. -1.
     999901    1    3    3    0    0 -0.64125674712E-01  0.10144507430E+00 -0.37278251232E-01  0.88892793480E+00  0.88000000000E+00 0.  1.
        -11    1    4    4    0    0  0.58917079820E-01 -0.64942592075E-01  0.39271156608E-01  0.96079380838E-01  0.51100000000E-03 0. -1.
         11    1    4    4    0    0  0.24911517416E-01 -0.24126333204E-01  0.39523698068E-02  0.34907678266E-01  0.51100000000E-03 0.  1.
</event>
<event>
 8    1  0.1138737E+005  0.1043930E+01  0.7957747E-01            NaN
         13   -1    0    0    0    0  0.00000000000E+00  0.00000000000E+00  0.74505805969E-08  0.10566000000E+00  0.10566000000E+00 0.  1.
     999900   -1    0    0    0    0 -0.00000000000E+00 -0.00000000000E+00 -0.74505805969E-08  0.93827000000E+00  0.93827000000E+00 0. -1.
     999902    2    1    2    0    0  0.91718616110E-02 -0.11191173446E-01 -0.19024527649E-01  0.10200281578E+01  0.10197480790E+01 0.  0.
     999903    2    3    3    0    0 -0.10596461124E+00  0.36424368927E-02 -0.73348806134E-01  0.13074329308E+00  0.21725449184E-01 0.  0.
         14    1    1    2    0    0 -0.91718616110E-02  0.11191173446E-01  0.19024527649E-01  0.23901842205E-01  0.00000000000E+00 0.  1.
     999901    1    3    3    0    0  0.11513647285E+00 -0.14833610339E-01  0.54324278485E-01  0.88928486471E+00  0.88000000000E+00 0.  1.
        -11    1    4    4    0    0 -0.82872990746E-01  0.99417583980E-02 -0.49982969383E-01  0.97289924990E-01  0.51100000000E-03 0. -1.
         11    1    4    4    0    0 -0.23091620496E-01 -0.62993215053E-02 -0.23365836751E-01  0.33453368091E-01  0.51100000000E-03 0.  1.
</event>
<event>
 8    1  0.1138737E+005  0.1043930E+01  0.7957747E-01            NaN
         13   -1    0    0    0    0  0.00000000000E+00  0.00000000000E+00  0.74505805969E-08  0.10566000000E+00  0.10566000000E+00 0. -1.
     999900   -1    0    0    0    0 -0.00000000000E+00 -0.00000000000E+00 -0.74505805969E-08  0.93827000000E+00  0.93827000000E+00 0.  1.
     999902    2    1    2    0    0 -0.16333328865E-01 -0.71582829043E-02 -0.15374252462E-01  0.10203845910E+01  0.10201128993E+01 0.  0.
     999903    2    3    3    0    0 -0.94674295562E-02 -0.12838084547E+00  0.17864741102E-01  0.13142627874E+00  0.19556177146E-01 0.  0.
         14    1    1    2    0    0  0.16333328865E-01  0.71582829043E-02  0.15374252462E-01  0.23545408994E-01  0.00000000000E+00 0. -1.
     999901    1    3    3    0    0 -0.68658993083E-02  0.12122256256E+00 -0.33238993564E-01  0.88895831226E+00  0.88000000000E+00 0.  1.
        -11    1    4    4    0    0 -0.12670280480E-01 -0.77115405946E-01  0.41603989086E-02  0.78261688467E-01  0.51100000000E-03 0.  1.
         11    1    4    4    0    0  0.32028509241E-02 -0.51265439521E-01  0.13704342193E-01  0.53164590276E-01  0.51100000000E-03 0. -1.
</event>
<event>
 8    1  0.1138737E+005  0.1043930E+01  0.7957747E-01            NaN
         13   -1    0    0    0    0  0.00000000000E+00  0.00000000000E+00  0.74505805969E-08  0.10566000000E+00  0.10566000000E+00 0.  1.
     999900   -1    0    0    0    0 -0.00000000000E+00 -0.00000000000E+00 -0.74505805969E-08  0.93827000000E+00  0.93827000000E+00 0. -1.
     999902    2    1    2    0    0  0.22076682816E-01 -0.51898731542E-02  0.29331246686E-02  0.10210626012E+01  0.10208065035E+01 0.  0.
     999903    2    3    3    0    0  0.38620880441E-01 -0.95531280910E-02  0.12576601695E+00  0.13236655198E+00  0.10999018225E-01 0.  0.
         14    1    1    2    0    0 -0.22076682816E-01  0.51898731542E-02 -0.29331246686E-02  0.22867398799E-01  0.00000000000E+00 0.  1.
     999901    1    3    3    0    0 -0.16544197624E-01  0.43632549368E-02 -0.12283289228E+00  0.88869604922E+00  0.88000000000E+00 0. -1.
        -11    1    4    4    0    0  0.17227777562E-01  0.12962202764E-02  0.52241550757E-01  0.55026514093E-01  0.51100000000E-03 0.  1.
         11    1    4    4    0    0  0.21393102878E-01 -0.10849348367E-01  0.73524466194E-01  0.77340037890E-01  0.51100000000E-03 0. -1.
</event>
<event>
 8    1  0.1138737E+005  0.1043930E+01  0.7957747E-01            NaN
         13   -1    0    0    0    0  0.00000000000E+00  0.00000000000E+00  0.74505805969E-08  0.10566000000E+00  0.10566000000E+00 0. -1.
     999900   -1    0    0    0    0 -0.00000000000E+00 -0.00000000000E+00 -0.74505805969E-08  0.93827000000E+00  0.93827000000E+00 0. -1.
     999902    2    1    2    0    0  0.21757342572E-01 -0.41010403189E-02  0.75838989732E-02  0.10205266667E+01  0.10202582817E+01 0.  0.
     999903    2    3    3    0    0 -0.45831715129E-03 -0.12676290837E+00  0.29195090925E-01  0.13147857290E+00  0.19110646399E-01 0.  0.
         14    1    1    2    0    0 -0.21757342572E-01  0.41010403189E-02 -0.75838989732E-02  0.23403333333E-01  0.00000000000E+00 0.  1.
     999901    1    3    3    0    0  0.22215659723E-01  0.12266186805E+00 -0.21611191952E-01  0.88904809377E+00  0.88000000000E+00 0. -1.
        -11    1    4    4    0    0 -0.58637548897E-02 -0.85057409453E-01  0.12252244236E-01  0.86136665445E-01  0.51100000000E-03 0. -1.
         11    1    4    4    0    0  0.54054377384E-02 -0.41705498914E-01  0.16942846689E-01  0.45341907456E-01  0.51100000000E-03 0.  1.
</event>
<event>
 8    1  0.1138737E+005  0.1043930E+01  0.7957747E-01            NaN
         13   -1    0    0    0    0  0.00000000000E+00  0.00000000000E+00  0.74505805969E-08  0.10566000000E+00  0.10566000000E+00 0.  1.
     999900   -1    0    0    0    0 -0.00000000000E+00 -0.00000000000E+00 -0.74505805969E-08  0.93827000000E+00  0.93827000000E+00 0. -1.
     999902    2    1    2    0    0  0.81403391245E-02  0.20926633375E-01 -0.72780036819E-02  0.10203257961E+01  0.10200527299E+01 0.  0.
     999903    2    3    3    0    0  0.60715071791E-02 -0.12349515390E+00 -0.28374594650E-01  0.12830169390E+00  0.19190904123E-01 0.  0.
         14    1    1    2    0    0 -0.81403391245E-02 -0.20926633375E-01  0.72780036819E-02  0.23604203928E-01  0.00000000000E+00 0. -1.
     999901    1    3    3    0    0  0.20688319454E-02  0.14442178727E+00  0.21096590968E-01  0.89202410217E+00  0.88000000000E+00 0.  1.
        -11    1    4    4    0    0  0.11227644959E-01 -0.56404514533E-01 -0.85037684623E-02  0.58138665878E-01  0.51100000000E-03 0.  1.
         11    1    4    4    0    0 -0.51561377798E-02 -0.67090639363E-01 -0.19870826188E-01  0.70163028022E-01  0.51100000000E-03 0. -1.
</event>
<event>
 8    1  0.1138737E+005  0.1043930E+01  0.7957747E-01            NaN
         13   -1    0    0    0    0  0.00000000000E+00  0.00000000000E+00  0.74505805969E-08  0.10566000000E+00  0.10566000000E+00 0. -1.
     999900   -1    0    0    0    0 -0.00000000000E+00 -0.00000000000E+00 -0.74505805969E-08  0.93827000000E+00  0.93827000000E+00 0. -1.
     999902    2    1    2    0    0  0.23789079938E-01  0.30317679155E-02 -0.25017409215E-02  0.10198183711E+01  0.10195332949E+01 0.  0.
     999903    2    3    3    0    0 -0.96997198358E-01 -0.28628209857E-01 -0.75839489448E-01  0.12798312589E+00  0.20000536620E-01 0.  0.
         14    1    1    2    0    0 -0.23789079938E-01 -0.30317679155E-02  0.25017409215E-02  0.24111628908E-01  0.00000000000E+00 0. -1.
     999901    1    3    3    0    0  0.12078627830E+00  0.31659977773E-01  0.73337748526E-01  0.89183524520E+00  0.88000000000E+00 0.  1.
        -11    1    4    4    0    0 -0.92310480464E-01 -0.22079194594E-01 -0.68257223487E-01  0.11691033024E+00  0.51100000000E-03 0. -1.
         11    1    4    4    0    0 -0.46867178944E-02 -0.65490152628E-02 -0.75822659604E-02  0.11072795655E-01  0.51100000000E-03 0.  1.
</event>
<event>
 8    1  0.1138737E+005  0.1043930E+01  0.7957747E-01            NaN
         13   -1    0    0    0    0  0.00000000000E+00  0.00000000000E+00  0.74505805969E-08  0.10566000000E+00  0.10566000000E+00 0.  1.
     999900   -1    0    0    0    0 -0.00000000000E+00 -0.00000000000E+00 -0.74505805969E-08  0.93827000000E+00  0.93827000000E+00 0. -1.
     999902    2    1    2    0    0  0.37496805542E-02 -0.12153410266E-01 -0.18749596680E-01  0.10212735912E+01  0.10210222501E+01 0.  0.
     999903    2    3    3    0    0  0.60481616596E-01 -0.99018258150E-01 -0.63422521401E-01  0.13405339045E+00  0.22028478776E-01 0.  0.
         14    1    1    2    0    0 -0.37496805542E-02  0.12153410266E-01  0.18749596680E-01  0.22656408828E-01  0.00000000000E+00 0.  1.
     999901    1    3    3    0    0 -0.56731936042E-01  0.86864847884E-01  0.44672924721E-01  0.88722020072E+00  0.88000000000E+00 0.  1.
        -11    1    4    4    0    0  0.25083684116E-01 -0.59765286680E-01 -0.29262224559E-01  0.71116943184E-01  0.51100000000E-03 0.  1.
         11    1    4    4    0    0  0.35397932480E-01 -0.39252971471E-01 -0.34160296842E-01  0.62936447266E-01  0.51100000000E-03 0. -1.
</event>
<event>
 8    1  0.1138737E+005  0.1043930E+01  0.7957747E-01            NaN
         13   -1    0    0    0    0  0.00000000000E+00  0.00000000000E+00  0.74505805969E-08  0.10566000000E+00  0.10566000000E+00 0.  1.
     999900   -1    0    0    0    0 -0.00000000000E+00 -0.00000000000E+00 -0.74505805969E-08  0.93827000000E+00  0.93827000000E+00 0. -1.
     999902    2    1    2    0    0  0.50236634029E-02  0.19698878889E-01  0.11586351283E-01  0.10205307146E+01  0.10202624235E+01 0.  0.
     999903    2    3    3    0    0  0.29374779590E-01 -0.10678832037E+00  0.64362639487E-01  0.12958889544E+00  0.19598709598E-01 0.  0.
         14    1    1    2    0    0 -0.50236634029E-02 -0.19698878889E-01 -0.11586351283E-01  0.23399285449E-01  0.00000000000E+00 0.  1.
     999901    1    3    3    0    0 -0.24351116187E-01  0.12648719926E+00 -0.52776288204E-01  0.89094181911E+00  0.88000000000E+00 0. -1.
        -11    1    4    4    0    0  0.16919929095E-02 -0.41144641359E-01  0.25426941280E-01  0.48399739838E-01  0.51100000000E-03 0. -1.
         11    1    4    4    0    0  0.27682786680E-01 -0.65643679009E-01  0.38935698208E-01  0.81189155607E-01  0.51100000000E-03 0.  1.
</event>
<event>
 8    1  0.1138737E+005  0.1043930E+01  0.7957747E-01            NaN
         13   -1    0    0    0    0  0.00000000000E+00  0.00000000000E+00  0.74505805969E-08  0.10566000000E+00  0.10566000000E+00 0.  1.
     999900   -1    0    0    0    0 -0.00000000000E+00 -0.00000000000E+00 -0.74505805969E-08  0.93827000000E+00  0.93827000000E+00 0.  1.
     999902    2    1    2    0    0 -0.44994590057E-02  0.80589623980E-03  0.23120712868E-01  0.10203617594E+01  0.10200895344E+01 0.  0.
     999903    2    3    3    0    0  0.11512369397E+00  0.56842498123E-01  0.96605692416E-02  0.13040053840E+00  0.20650407032E-01 0.  0.
         14    1    1    2    0    0  0.44994590057E-02 -0.80589623980E-03 -0.23120712868E-01  0.23568240571E-01  0.00000000000E+00 0. -1.
     999901    1    3    3    0    0 -0.11962315297E+00 -0.56036601884E-01  0.13460143626E-01  0.88996122103E+00  0.88000000000E+00 0. -1.
        -11    1    4    4    0    0  0.50612953523E-01  0.35514187409E-01  0.46155446014E-03  0.61833669834E-01  0.51100000000E-03 0.  1.
         11    1    4    4    0    0  0.64510740442E-01  0.21328310715E-01  0.91990147814E-02  0.68566868561E-01  0.51100000000E-03 0. -1.
</event>
<event>
 8    1  0.1138737E+005  0.1043930E+01  0.7957747E-01            NaN
         13   -1    0    0    0    0  0.00000000000E+00  0.00000000000E+00  0.74505805969E-08  0.10566000000E+00  0.10566000000E+00 0.  1.
     999900   -1    0    0    0    0 -0.00000000000E+00 -0.00000000000E+00 -0.74505805969E-08  0.93827000000E+00  0.93827000000E+00 0.  1.
     999902    2    1    2    0    0 -0.14821939098E-01  0.17491033987E-01  0.27198303743E-02  0.10208426956E+01  0.10205815918E+01 0.  0.
     999903    2    3    3    0    0 -0.64852342700E-01 -0.10960037839E+00  0.18779188024E-01  0.13016139940E+00  0.19268178240E-01 0.  0.
         14    1    1    2    0    0  0.14821939098E-01 -0.17491033987E-01 -0.27198303743E-02  0.23087304429E-01  0.00000000000E+00 0.  1.
     999901    1    3    3    0    0  0.50030403602E-01  0.12709141238E+00 -0.16059357649E-01  0.89068129617E+00  0.88000000000E+00 0.  1.
        -11    1    4    4    0    0 -0.61900306801E-01 -0.94603123765E-01  0.12952825057E-01  0.11379558781E+00  0.51100000000E-03 0.  1.
         11    1    4    4    0    0 -0.29520358983E-02 -0.14997254628E-01  0.58263629669E-02  0.16365811583E-01  0.51100000000E-03 0. -1.
</event>
<event>
 8    1  0.1138737E+005  0.1043930E+01  0.7957747E-01            NaN
         13   -1    0    0    0    0  0.00000000000E+00  0.00000000000E+00  0.74505805969E-08  0.10566000000E+00  0.10566000000E+00 0.  1.
     999900   -1    0    0    0    0 -0.00000000000E+00 -0.00000000000E+00 -0.74505805969E-08  0.93827000000E+00  0.93827000000E+00 0. -1.
     999902    2    1    2    0    0 -0.93535649097E-02  0.80895712108E-02  0.19083123104E-01  0.10211902567E+01  0.10209370423E+01 0.  0.
     999903    2    3    3    0    0  0.20992705185E-01  0.11672736219E+00 -0.52175124567E-01  0.13113362725E+00  0.20194400603E-01 0.  0.
         14    1    1    2    0    0  0.93535649097E-02 -0.80895712108E-02 -0.19083123104E-01  0.22739743320E-01  0.00000000000E+00 0. -1.
     999901    1    3    3    0    0 -0.30346270095E-01 -0.10863779098E+00  0.71258247670E-01  0.89005662943E+00  0.88000000000E+00 0. -1.
        -11    1    4    4    0    0  0.89587096083E-02  0.46523066758E-01 -0.31743202416E-01  0.57031098876E-01  0.51100000000E-03 0.  1.
         11    1    4    4    0    0  0.12033995577E-01  0.70204295435E-01 -0.20431922151E-01  0.74102528370E-01  0.51100000000E-03 0. -1.
</event>
<event>
 8    1  0.1138737E+005  0.1043930E+01  0.7957747E-01            NaN
         13   -1    0    0    0    0  0.00000000000E+00  0.00000000000E+00  0.74505805969E-08  0.10566000000E+00  0.10566000000E+00 0. -1.
     999900   -1    0    0    0    0 -0.00000000000E+00 -0.00000000000E+00 -0.74505805969E-08  0.93827000000E+00  0.93827000000E+00 0. -1.
     999902    2    1    2    0    0  0.23860174567E-01  0.59336988917E-03  0.24108897970E-02  0.10199409940E+01  0.10196588444E+01 0.  0.
     999903    2    3    3    0    0  0.11732342668E-01 -0.11993367675E+00  0.45940147899E-01  0.13057681126E+00  0.20446803304E-01 0.  0.
         14    1    1    2    0    0 -0.23860174567E-01 -0.59336988917E-03 -0.24108897970E-02  0.23989005978E-01  0.00000000000E+00 0.  1.
     999901    1    3    3    0    0  0.12127831899E-01  0.12052704664E+00 -0.43529258102E-01  0.88936418277E+00  0.88000000000E+00 0. -1.
        -11    1    4    4    0    0  0.89444471075E-02 -0.63876867050E-01  0.35021168184E-01  0.73396189412E-01  0.51100000000E-03 0.  1.
         11    1    4    4    0    0  0.27878955602E-02 -0.56056809700E-01  0.10918979715E-01  0.57180621844E-01  0.51100000000E-03 0. -1.
</event>
<event>
 8    1  0.1138737E+005  0.1043930E+01  0.7957747E-01            NaN
         13   -1    0    0    0    0  0.00000000000E+00  0.00000000000E+00  0.74505805969E-08  0.10566000000E+00  0.10566000000E+00 0. -1.
     999900   -1    0    0    0    0 -0.00000000000E+00 -0.00000000000E+00 -0.74505805969E-08  0.93827000000E+00  0.93827000000E+00 0.  1.
     999902    2    1    2    0    0 -0.24592495130E-01 -0.19522232406E-02 -0.12736173088E-01  0.10161664970E+01  0.10157871517E+01 0.  0.
     999903    2    3    3    0    0  0.42102860835E-01 -0.10492086117E+00 -0.53708095060E-01  0.12671188363E+00  0.19756112477E-01 0.  0.
         14    1    1    2    0    0  0.24592495130E-01  0.19522232406E-02  0.12736173088E-01  0.27763502971E-01  0.00000000000E+00 0. -1.
     999901    1    3    3    0    0 -0.66695355965E-01  0.10296863793E+00  0.40971921972E-01  0.88945461340E+00  0.88000000000E+00 0.  1.
        -11    1    4    4    0    0  0.21487792416E-01 -0.37663588335E-01 -0.12272690706E-01  0.45068294480E-01  0.51100000000E-03 0. -1.
         11    1    4    4    0    0  0.20615068420E-01 -0.67257272832E-01 -0.41435404354E-01  0.81643589152E-01  0.51100000000E-03 0.  1.
</event>
<event>
 8    1  0.1138737E+005  0.1043930E+01  0.7957747E-01            NaN
         13   -1    0    0    0    0  0.00000000000E+00  0.00000000000E+00  0.74505805969E-08  0.10566000000E+00  0.10566000000E+00 0. -1.
     999900   -1    0    0    0    0 -0.00000000000E+00 -0.00000000000E+00 -0.74505805969E-08  0.93827000000E+00  0.93827000000E+00 0.  1.
     999902    2    1    2    0    0 -0.20396492226E-01 -0.11109128602E-01  0.80972327516E-02  0.10193333577E+01  0.10190365545E+01 0.  0.
     999903    2    3    3    0    0 -0.12065154318E+00 -0.32782647419E-01  0.39988412551E-01  0.13280199109E+00  0.20144449784E-01 0.  0.
         14    1    1    2    0    0  0.20396492226E-01  0.11109128602E-01 -0.80972327516E-02  0.24596642284E-01  0.00000000000E+00 0.  1.
     999901    1    3    3    0    0  0.10025505095E+00  0.21673518817E-01 -0.31891179800E-01  0.88653136662E+00  0.88000000000E+00 0.  1.
        -11    1    4    4    0    0 -0.45341342601E-01 -0.21898192739E-01  0.12385679802E-01  0.51855900139E-01  0.51100000000E-03 0.  1.
         11    1    4    4    0    0 -0.75310200575E-01 -0.10884454680E-01  0.27602732749E-01  0.80946090953E-01  0.51100000000E-03 0. -1.
</event>
<event>
 8    1  0.1138737E+005  0.1043930E+01  0.7957747E-01            NaN
         13   -1    0    0    0    0  0.00000000000E+00  0.00000000000E+00  0.74505805969E-08  0.10566000000E+00  0.10566000000E+00 0.  1.
     999900   -1    0    0    0    0 -0.00000000000E+00 -0.00000000000E+00 -0.74505805969E-08  0.93827000000E+00  0.93827000000E+00 0.  1.
     999902    2    1    2    0    0  0.16959274014E-01 -0.13929367981E-01  0.41222809599E-02  0.10215998082E+01  0.10213557316E+01 0.  0.
     999903    2    3    3    0    0  0.60176615015E-01 -0.92020912170E-01  0.74529484564E-01  0.13428746058E+00  0.19733340550E-01 0.  0.
         14    1    1    2    0    0 -0.16959274014E-01  0.13929367981E-01 -0.41222809599E-02  0.22330191843E-01  0.00000000000E+00 0. -1.
     999901    1    3    3    0    0 -0.43217341000E-01  0.78091544189E-01 -0.70407203604E-01  0.88731234757E+00  0.88000000000E+00 0.  1.
        -11    1    4    4    0    0  0.44383739013E-01 -0.71910542296E-01  0.46942425000E-01  0.96668995898E-01  0.51100000000E-03 0. -1.
         11    1    4    4    0    0  0.15792876002E-01 -0.20110369874E-01  0.27587059564E-01  0.37618464685E-01  0.51100000000E-03 0.  1.
</event>
<event>
 8    1  0.1138737E+005  0.1043930E+01  0.7957747E-01            NaN
         13   -1    0    0    0    0  0.00000000000E+00  0.00000000000E+00  0.74505805969E-08  0.10566000000E+00  0.10566000000E+00 0.  1.
     999900   -1    0    0    0    0 -0.00000000000E+00 -0.00000000000E+00 -0.74505805969E-08  0.93827000000E+00  0.93827000000E+00 0.  1.
     999902    2    1    2    0    0  0.10078598860E-01  0.39782166621E-02  0.20507896311E-01  0.10207356435E+01  0.10204720847E+01 0.  0.
     999903    2    3    3    0    0 -0.12750369384E+00  0.71377520191E-02 -0.91071506663E-02  0.12954771666E+00  0.19787148645E-01 0.  0.
         14    1    1    2    0    0 -0.10078598860E-01 -0.39782166621E-02 -0.20507896311E-01  0.23194356509E-01  0.00000000000E+00 0. -1.
     999901    1    3    3    0    0  0.13758229270E+00 -0.31595353570E-02  0.29615046977E-01  0.89118792683E+00  0.88000000000E+00 0.  1.
        -11    1    4    4    0    0 -0.56483971470E-01 -0.11442960204E-02 -0.12872710440E-01  0.57945804348E-01  0.51100000000E-03 0.  1.
         11    1    4    4    0    0 -0.71019722368E-01  0.82820480395E-02  0.37655597733E-02  0.71601912309E-01  0.51100000000E-03 0. -1.
</event>
<event>
 8    1  0.1138737E+005  0.1043930E+01  0.7957747E-01            NaN
         13   -1    0    0    0    0  0.00000000000E+00  0.00000000000E+00  0.74505805969E-08  0.10566000000E+00  0.10566000000E+00 0. -1.
     999900   -1    0    0    0    0 -0.00000000000E+00 -0.00000000000E+00 -0.74505805969E-08  0.93827000000E+00  0.93827000000E+00 0.  1.
     999902    2    1    2    0    0 -0.23073998279E-01 -0.71250904112E-02 -0.54595532317E-02  0.10191715059E+01  0.10188707353E+01 0.  0.
     999903    2    3    3    0    0  0.13529350011E-01  0.12593975471E+00  0.17831519845E-02  0.12838616984E+00  0.20879747304E-01 0.  0.
         14    1    1    2    0    0  0.23073998279E-01  0.71250904112E-02  0.54595532317E-02  0.24758494127E-01  0.00000000000E+00 0. -1.
     999901    1    3    3    0    0 -0.36603348290E-01 -0.13306484512E+00 -0.72427052161E-02  0.89078533603E+00  0.88000000000E+00 0. -1.
        -11    1    4    4    0    0  0.88890522130E-02  0.18117798278E-01 -0.27170040214E-02  0.20369415690E-01  0.51100000000E-03 0.  1.
         11    1    4    4    0    0  0.46402977983E-02  0.10782195643E+00  0.45001560059E-02  0.10801675415E+00  0.51100000000E-03 0. -1.
</event>
<event>
 8    1  0.1138737E+005  0.1043930E+01  0.7957747E-01            NaN
         13   -1    0    0    0    0  0.00000000000E+00  0.00000000000E+00  0.74505805969E-08  0.10566000000E+00  0.10566000000E+00 0. -1.
     999900   -1    0    0    0    0 -0.00000000000E+00 -0.00000000000E+00 -0.74505805969E-08  0.93827000000E+00  0.93827000000E+00 0.  1.
     999902    2    1    2    0    0  0.32056865307E-02 -0.14796398870E-01  0.18627058112E-01  0.10199263099E+01  0.10196438106E+01 0.  0.
     999903    2    3    3    0    0 -0.74110584260E-01 -0.92143247370E-01 -0.51132846036E-01  0.13041701542E+00  0.20279872572E-01 0.  0.
         14    1    1    2    0    0 -0.32056865307E-02  0.14796398870E-01 -0.18627058112E-01  0.24003690124E-01  0.00000000000E+00 0.  1.
     999901    1    3    3    0    0  0.77316270790E-01  0.77346848500E-01  0.69759904148E-01  0.88950929446E+00  0.88000000000E+00 0. -1.
        -11    1    4    4    0    0 -0.24610127086E-01 -0.31681334124E-01 -0.71664138605E-02  0.40755170172E-01  0.51100000000E-03 0.  1.
         11    1    4    4    0    0 -0.49500457173E-01 -0.60461913246E-01 -0.43966432175E-01  0.89661845246E-01  0.51100000000E-03 0. -1.
</event>
<event>
 8    1  0.1138737E+005  0.1043930E+01  0.7957747E-01            NaN
         13   -1    0    0    0    0  0.00000000000E+00  0.00000000000E+00  0.74505805969E-08  0.10566000000E+00  0.10566000000E+00 0. -1.
     999900   -1    0    0    0    0 -0.00000000000E+00 -0.00000000000E+00 -0.74505805969E-08  0.93827000000E+00  0.93827000000E+00 0. -1.
     999902    2    1    2    0    0 -0.86992992939E-02  0.60001676962E-02  0.23082129366E-01  0.10185436943E+01  0.10182272795E+01 0.  0.
     999903    2    3    3    0    0 -0.17625493184E-01  0.37129229615E-01  0.12396814893E+00  0.13218784908E+00  0.20403131960E-01 0.  0.
         14    1    1    2    0    0  0.86992992939E-02 -0.60001676962E-02 -0.23082129366E-01  0.25386305691E-01  0.00000000000E+00 0.  1.
     999901    1    3    3    0    0  0.89261938903E-02 -0.31129061919E-01 -0.10088601956E+00  0.88635584523E+00  0.88000000000E+00 0. -1.
        -11    1    4    4    0    0 -0.69850913948E-02  0.19989094317E-01  0.91813409958E-01  0.94224830923E-01  0.51100000000E-03 0.  1.
         11    1    4    4    0    0 -0.10640401789E-01  0.17140135298E-01  0.32154738968E-01  0.37963018154E-01  0.51100000000E-03 0. -1.
</event>
<event>
 8    1  0.1138737E+005  0.1043930E+01  0.7957747E-01            NaN
         13   -1    0    0    0    0  0.00000000000E+00  0.00000000000E+00  0.74505805969E-08  0.10566000000E+00  0.10566000000E+00 0. -1.
     999900   -1    0    0    0    0 -0.00000000000E+00 -0.00000000000E+00 -0.74505805969E-08  0.93827000000E+00  0.93827000000E+00 0.  1.
     999902    2    1    2    0    0  0.21220875269E-01  0.10173988648E-01  0.73502367205E-03  0.10203848126E+01  0.10201131260E+01 0.  0.
     999903    2    3    3    0    0 -0.11567016313E+00 -0.46107338359E-01 -0.20084990854E-01  0.12778175566E+00  0.20476741306E-01 0.  0.
         14    1    1    2    0    0 -0.21220875269E-01 -0.10173988648E-01 -0.73502367205E-03  0.23545187449E-01  0.00000000000E+00 0.  1.
     999901    1    3    3    0    0  0.13689103840E+00  0.56281327006E-01  0.20820014526E-01  0.89260305689E+00  0.88000000000E+00 0. -1.
        -11    1    4    4    0    0 -0.14443919078E-01  0.11059269748E-02 -0.20965753386E-02  0.14646044584E-01  0.51100000000E-03 0. -1.
         11    1    4    4    0    0 -0.10122624405E+00 -0.47213265333E-01 -0.17988415515E-01  0.11313571108E+00  0.51100000000E-03 0.  1.
</event>
<event>
 8    1  0.1138737E+005  0.1043930E+01  0.7957747E-01            NaN
         13   -1    0    0    0    0  0.00000000000E+00  0.00000000000E+00  0.74505805969E-08  0.10566000000E+00  0.10566000000E+00 0.  1.
     999900   -1    0    0    0    0 -0.00000000000E+00 -0.00000000000E+00 -0.74505805969E-08  0.93827000000E+00  0.93827000000E+00 0. -1.
     999902    2    1    2    0    0 -0.15130760207E-01  0.20497457882E-01 -0.41866411387E-02  0.10181111377E+01  0.10177837075E+01 0.  0.
     999903    2    3    3    0    0  0.10872578575E+00 -0.59743177045E-01 -0.35241111457E-02  0.12582225940E+00  0.20694876433E-01 0.  0.
         14    1    1    2    0    0  0.15130760207E-01 -0.20497457882E-01  0.41866411387E-02  0.25818862254E-01  0.00000000000E+00 0.  1.
     999901    1    3    3    0    0 -0.12385654596E+00  0.80240634927E-01 -0.66252999303E-03  0.89228887834E+00  0.88000000000E+00 0. -1.
        -11    1    4    4    0    0  0.55385852679E-01 -0.22389053212E-01  0.58590742308E-02  0.60028761878E-01  0.51100000000E-03 0.  1.
         11    1    4    4    0    0  0.53339933074E-01 -0.37354123833E-01 -0.93831853765E-02  0.65793497524E-01  0.51100000000E-03 0. -1.
</event>
<event>
 8    1  0.1138737E+005  0.1043930E+01  0.7957747E-01            NaN
         13   -1    0    0    0    0  0.00000000000E+00  0.00000000000E+00  0.74505805969E-08  0.10566000000E+00  0.10566000000E+00 0. -1.
     999900   -1    0    0    0    0 -0.00000000000E+00 -0.00000000000E+00 -0.74505805969E-08  0.93827000000E+00  0.93827000000E+00 0.  1.
     999902    2    1    2    0    0 -0.19480975357E-01  0.15252699928E-02 -0.12911640659E-01  0.10205089557E+01  0.10202401597E+01 0.  0.
     999903    2    3    3    0    0 -0.97026829668E-01 -0.17419871822E-02  0.86521796098E-01  0.13151455597E+00  0.19819612429E-01 0.  0.
         14    1    1    2    0    0  0.19480975357E-01 -0.15252699928E-02  0.12911640659E-01  0.23421044254E-01  0.00000000000E+00 0. -1.
     999901    1    3    3    0    0  0.77545854311E-01  0.32672571750E-02 -0.99433436757E-01  0.88899439978E+00  0.88000000000E+00 0.  1.
        -11    1    4    4    0    0 -0.52934394451E-01  0.82117627962E-02  0.51747005051E-01  0.74481519969E-01  0.51100000000E-03 0. -1.
         11    1    4    4    0    0 -0.44092435217E-01 -0.99537499784E-02  0.34774791047E-01  0.57033036000E-01  0.51100000000E-03 0.  1.
</event>
<event>
 8    1  0.1138737E+005  0.1043930E+01  0.7957747E-01            NaN
         13   -1    0    0    0    0  0.00000000000E+00  0.00000000000E+00  0.74505805969E-08  0.10566000000E+00  0.10566000000E+00 0. -1.
     999900   -1    0    0    0    0 -0.00000000000E+00 -0.00000000000E+00 -0.74505805969E-08  0.93827000000E+00  0.93827000000E+00 0.  1.
     999902    2    1    2    0    0 -0.25671744741E-01 -0.70320236412E-02  0.58442060262E-02  0.10166785307E+01  0.10163132353E+01 0.  0.
     999903    2    3    3    0    0  0.60757904073E-01  0.27276039138E-01 -0.10391364448E+00  0.12499814340E+00  0.19773343813E-01 0.  0.
         14    1    1    2    0    0  0.25671744741E-01  0.70320236412E-02 -0.58442060262E-02  0.27251469293E-01  0.00000000000E+00 0.  1.
     999901    1    3    3    0    0 -0.86429648814E-01 -0.34308062779E-01  0.10975785050E+00  0.89168038731E+00  0.88000000000E+00 0. -1.
        -11    1    4    4    0    0  0.22072703241E-01  0.37129074514E-02 -0.21973850450E-01  0.31370386270E-01  0.51100000000E-03 0.  1.
         11    1    4    4    0    0  0.38685200832E-01  0.23563131687E-01 -0.81939794029E-01  0.93627757127E-01  0.51100000000E-03 0. -1.
</event>
<event>
 8    1  0.1138737E+005  0.1043930E+01  0.7957747E-01            NaN
         13   -1    0    0    0    0  0.00000000000E+00  0.00000000000E+00  0.74505805969E-08  0.10566000000E+00  0.10566000000E+00 0.  1.
     999900   -1    0    0    0    0 -0.00000000000E+00 -0.00000000000E+00 -0.74505805969E-08  0.93827000000E+00  0.93827000000E+00 0.  1.
     999902    2    1    2    0    0  0.48364020548E-02  0.10992577285E-02  0.22789377393E-01  0.10206071598E+01  0.10203406391E+01 0.  0.
     999903    2    3    3    0    0  0.72384805721E-01  0.51218747503E-01  0.97272878942E-01  0.13346425019E+00  0.22085581407E-01 0.  0.
         14    1    1    2    0    0 -0.48364020548E-02 -0.10992577285E-02 -0.22789377393E-01  0.23322840187E-01  0.00000000000E+00 0. -1.
     999901    1    3    3    0    0 -0.67548403666E-01 -0.50119489774E-01 -0.74483501548E-01  0.88714290962E+00  0.88000000000E+00 0.  1.
        -11    1    4    4    0    0  0.41897010070E-01  0.40801064941E-01  0.54751032683E-01  0.80112564895E-01  0.51100000000E-03 0.  1.
         11    1    4    4    0    0  0.30487795651E-01  0.10417682562E-01  0.42521846258E-01  0.53351685295E-01  0.51100000000E-03 0. -1.
</event>
<event>
 8    1  0.1399177E+005  0.1043930E+01  0.7957747E-01            NaN
         13   -1    0    0    0    0  0.00000000000E+00  0.00000000000E+00  0.74505805969E-08  0.10566000000E+00  0.10566000000E+00 0. -1.
     999900   -1    0    0    0    0 -0.00000000000E+00 -0.00000000000E+00 -0.74505805969E-08  0.93827000000E+00  0.93827000000E+00 0.  1.
     999902    2    1    2    0    0 -0.14305628421E-01 -0.74784415782E-02  0.17041053698E-01  0.10204571305E+01  0.10201871297E+01 0.  0.
     999903    2    3    3    0    0  0.76876710486E-01  0.99729224072E-01  0.19832300121E-01  0.12926944341E+00  0.21478410627E-01 0.  0.
         14    1    1    2    0    0  0.14305628421E-01  0.74784415782E-02 -0.17041053698E-01  0.23472869532E-01  0.00000000000E+00 0.  1.
     999901    1    3    3    0    0 -0.91182338906E-01 -0.10720766565E+00 -0.27912464230E-02  0.89118768706E+00  0.88000000000E+00 0.  1.
        -11    1    4    4    0    0  0.30526642102E-01  0.36388858957E-01  0.17884921535E-01  0.50755851618E-01  0.51100000000E-03 0.  1.
         11    1    4    4    0    0  0.46350068384E-01  0.63340365115E-01  0.19473785861E-02  0.78513591794E-01  0.51100000000E-03 0. -1.
</event>
<event>
 8    1  0.1138737E+005  0.1043930E+01  0.7957747E-01            NaN
         13   -1    0    0    0    0  0.00000000000E+00  0.00000000000E+00  0.74505805969E-08  0.10566000000E+00  0.10566000000E+00 0.  1.
     999900   -1    0    0    0    0 -0.00000000000E+00 -0.00000000000E+00 -0.74505805969E-08  0.93827000000E+00  0.93827000000E+00 0. -1.
     999902    2    1    2    0    0  0.12229838995E-01  0.12156373367E-01  0.20711798179E-01  0.10169795833E+01  0.10166224215E+01 0.  0.
     999903    2    3    3    0    0  0.10304820315E+00  0.18520609192E-01 -0.70025887775E-01  0.12764173615E+00  0.20660172107E-01 0.  0.
         14    1    1    2    0    0 -0.12229838995E-01 -0.12156373367E-01 -0.20711798179E-01  0.26950416677E-01  0.00000000000E+00 0. -1.
     999901    1    3    3    0    0 -0.90818364152E-01 -0.63642358253E-02  0.90737685953E-01  0.88933784717E+00  0.88000000000E+00 0.  1.
        -11    1    4    4    0    0  0.21669106692E-01 -0.43966992382E-02 -0.16213908491E-01  0.27423221885E-01  0.51100000000E-03 0. -1.
         11    1    4    4    0    0  0.81379096456E-01  0.22917308430E-01 -0.53811979283E-01  0.10021851426E+00  0.51100000000E-03 0.  1.
</event>
<event>
 8    1  0.1138737E+005  0.1043930E+01  0.7957747E-01            NaN
         13   -1    0    0    0    0  0.00000000000E+00  0.00000000000E+00  0.74505805969E-08  0.10566000000E+00  0.10566000000E+00 0.  1.
     999900   -1    0    0    0    0 -0.00000000000E+00 -0.00000000000E+00 -0.74505805969E-08  0.93827000000E+00  0.93827000000E+00 0. -1.
     999902    2    1    2    0    0  0.91502335457E-02 -0.23776174698E-01  0.56785219208E-04  0.10184538056E+01  0.10181351176E+01 0.  0.
     999903    2    3    3    0    0  0.14745008724E-01  0.93382914042E-01 -0.82190939098E-01  0.12686968631E+00  0.20069452371E-01 0.  0.
         14    1    1    2    0    0 -0.91502335457E-02  0.23776174698E-01 -0.56785219208E-04  0.25476194413E-01  0.00000000000E+00 0. -1.
     999901    1    3    3    0    0 -0.55947751786E-02 -0.11715908874E+00  0.82247724317E-01  0.89158411927E+00  0.88000000000E+00 0.  1.
        -11    1    4    4    0    0  0.26985571559E-02  0.25475141692E-02  0.45935976528E-04  0.37463676114E-02  0.51100000000E-03 0.  1.
         11    1    4    4    0    0  0.12046451568E-01  0.90835399873E-01 -0.82236875075E-01  0.12312331870E+00  0.51100000000E-03 0. -1.
</event>
<event>
 8    1  0.1138737E+005  0.1043930E+01  0.7957747E-01            NaN
         13   -1    0    0    0    0  0.00000000000E+00  0.00000000000E+00  0.74505805969E-08  0.10566000000E+00  0.10566000000E+00 0.  1.
     999900   -1    0    0    0    0 -0.00000000000E+00 -0.00000000000E+00 -0.74505805969E-08  0.93827000000E+00  0.93827000000E+00 0.  1.
     999902    2    1    2    0    0  0.38268709145E-02  0.22641510302E-01 -0.56282082527E-02  0.10202876723E+01  0.10200137130E+01 0.  0.
     999903    2    3    3    0    0 -0.74259283654E-01 -0.10244619323E+00 -0.17318953109E-02  0.12800993397E+00  0.19335977266E-01 0.  0.
         14    1    1    2    0    0 -0.38268709145E-02 -0.22641510302E-01  0.56282082527E-02  0.23642327675E-01  0.00000000000E+00 0.  1.
     999901    1    3    3    0    0  0.78086154569E-01  0.12508770353E+00 -0.38963129418E-02  0.89227773836E+00  0.88000000000E+00 0. -1.
        -11    1    4    4    0    0 -0.47078972958E-01 -0.77942226764E-01  0.29900251243E-02  0.91107748183E-01  0.51100000000E-03 0. -1.
         11    1    4    4    0    0 -0.27180310696E-01 -0.24503966468E-01 -0.47219204352E-02  0.36902185786E-01  0.51100000000E-03 0.  1.
</event>
<event>
 8    1  0.1138737E+005  0.1043930E+01  0.7957747E-01            NaN
         13   -1    0    0    0    0  0.00000000000E+00  0.00000000000E+00  0.74505805969E-08  0.10566000000E+00  0.10566000000E+00 0. -1.
     999900   -1    0    0    0    0 -0.00000000000E+00 -0.00000000000E+00 -0.74505805969E-08  0.93827000000E+00  0.93827000000E+00 0. -1.
     999902    2    1    2    0    0  0.62027639582E-02  0.98417197047E-02  0.20245928641E-01  0.10205798104E+01  0.10203126570E+01 0.  0.
     999903    2    3    3    0    0  0.13002175275E+00 -0.11384311277E-02  0.55113186723E-03  0.13162559858E+00  0.20446081372E-01 0.  0.
         14    1    1    2    0    0 -0.62027639582E-02 -0.98417197047E-02 -0.20245928641E-01  0.23350189592E-01  0.00000000000E+00 0.  1.
     999901    1    3    3    0    0 -0.12381898879E+00  0.10980150832E-01  0.19694796774E-01  0.88895421182E+00  0.88000000000E+00 0.  1.
        -11    1    4    4    0    0  0.37245705061E-01 -0.95865474235E-02  0.84125478979E-04  0.38463133454E-01  0.51100000000E-03 0. -1.
         11    1    4    4    0    0  0.92776047687E-01  0.84481162957E-02  0.46700638825E-03  0.93162465131E-01  0.51100000000E-03 0.  1.
</event>
<event>
 8    1  0.1138737E+005  0.1043930E+01  0.7957747E-01            NaN
         13   -1    0    0    0    0  0.00000000000E+00  0.00000000000E+00  0.74505805969E-08  0.10566000000E+00  0.10566000000E+00 0.  1.
     999900   -1    0    0    0    0 -0.00000000000E+00 -0.00000000000E+00 -0.74505805969E-08  0.93827000000E+00  0.93827000000E+00 0. -1.
     999902    2    1    2    0    0 -0.91821131137E-02 -0.20194787585E-01 -0.79077196324E-02  0.10203785101E+01  0.10201066764E+01 0.  0.
     999903    2    3    3    0    0  0.12097072152E+00  0.29498849188E-01 -0.27959151967E-01  0.12919318827E+00  0.20126304867E-01 0.  0.
         14    1    1    2    0    0  0.91821131137E-02  0.20194787585E-01  0.79077196324E-02  0.23551489902E-01  0.00000000000E+00 0. -1.
     999901    1    3    3    0    0 -0.13015283464E+00 -0.49693636773E-01  0.20051432335E-01  0.89118532183E+00  0.88000000000E+00 0. -1.
        -11    1    4    4    0    0  0.10071991557E+00  0.19101770470E-01 -0.16974255718E-01  0.10391229718E+00  0.51100000000E-03 0.  1.
         11    1    4    4    0    0  0.20250805952E-01  0.10397078718E-01 -0.10984896249E-01  0.25280891087E-01  0.51100000000E-03 0. -1.
</event>
<event>
 7    1  0.1138737E+005  0.1043930E+01  0.7957747E-01            NaN
         13   -1    0    0    0    0  0.00000000000E+00  0.00000000000E+00  0.74505805969E-08  0.10566000000E+00  0.10566000000E+00 0. -1.
     999900   -1    0    0    0    0 -0.00000000000E+00 -0.00000000000E+00 -0.74505805969E-08  0.93827000000E+00  0.93827000000E+00 0.  1.
     999903    2    1    2    0    0 -0.12530811999E-01  0.87562911723E-01  0.46236491387E-01  0.10133990994E+00  0.17540793930E-01 0.  0.
         14    1    1    2    0    0 -0.54143396516E-01  0.26176284120E-02  0.99613481390E-03  0.54215787823E-01  0.00000000000E+00 0.  1.
     999901    1    1    2    0    0  0.66674208515E-01 -0.90180540135E-01 -0.47232626201E-01  0.88837430224E+00  0.88000000000E+00 0.  1.
        -11    1    3    3    0    0 -0.16334493494E-01  0.76592709760E-01  0.42649620953E-01  0.89176847637E-01  0.51100000000E-03 0. -1.
         11    1    3    3    0    0  0.38036814948E-02  0.10970201963E-01  0.35868704343E-02  0.12163062301E-01  0.51100000000E-03 0.  1.
</event>
<event>
 8    1  0.1138737E+005  0.1043930E+01  0.7957747E-01            NaN
         13   -1    0    0    0    0  0.00000000000E+00  0.00000000000E+00  0.74505805969E-08  0.10566000000E+00  0.10566000000E+00 0. -1.
     999900   -1    0    0    0    0 -0.00000000000E+00 -0.00000000000E+00 -0.74505805969E-08  0.93827000000E+00  0.93827000000E+00 0. -1.
     999902    2    1    2    0    0  0.20841815728E-01  0.73330716140E-02 -0.78471824077E-02  0.10204836038E+01  0.10202142188E+01 0.  0.
     999903    2    3    3    0    0 -0.12094891900E+00  0.22977382362E-02  0.37431210509E-01  0.12797024263E+00  0.18476116184E-01 0.  0.
         14    1    1    2    0    0 -0.20841815728E-01 -0.73330716140E-02  0.78471824077E-02  0.23446396181E-01  0.00000000000E+00 0. -1.
     999901    1    3    3    0    0  0.14179073473E+00  0.50353333778E-02 -0.45278392917E-01  0.89251336119E+00  0.88000000000E+00 0. -1.
        -11    1    4    4    0    0 -0.78587004180E-01  0.39410431244E-02  0.15360522758E-01  0.80172662594E-01  0.51100000000E-03 0.  1.
         11    1    4    4    0    0 -0.42361914823E-01 -0.16433048882E-02  0.22070687751E-01  0.47797580035E-01  0.51100000000E-03 0. -1.
</event>
<event>
 8    1  0.1138737E+005  0.1043930E+01  0.7957747E-01            NaN
         13   -1    0    0    0    0  0.00000000000E+00  0.00000000000E+00  0.74505805969E-08  0.10566000000E+00  0.10566000000E+00 0. -1.
     999900   -1    0    0    0    0 -0.00000000000E+00 -0.00000000000E+00 -0.74505805969E-08  0.93827000000E+00  0.93827000000E+00 0. -1.
     999902    2    1    2    0    0  0.31814949049E-02  0.18582502298E-01  0.12589996968E-01  0.10212597701E+01  0.10210081188E+01 0.  0.
     999903    2    3    3    0    0  0.35519057769E-01 -0.25944713472E-01  0.12350834320E+00  0.13259151338E+00  0.19785523954E-01 0.  0.
         14    1    1    2    0    0 -0.31814949049E-02 -0.18582502298E-01 -0.12589996968E-01  0.22670229932E-01  0.00000000000E+00 0.  1.
     999901    1    3    3    0    0 -0.32337562864E-01  0.44527215770E-01 -0.11091834623E+00  0.88866825669E+00  0.88000000000E+00 0. -1.
        -11    1    4    4    0    0  0.26696254203E-01 -0.10870638553E-01  0.93746842476E-01  0.98079520626E-01  0.51100000000E-03 0.  1.
         11    1    4    4    0    0  0.88228035655E-02 -0.15074074919E-01  0.29761500725E-01  0.34511992753E-01  0.51100000000E-03 0. -1.
</event>
<event>
 8    1  0.1138737E+005  0.1043930E+01  0.7957747E-01            NaN
         13   -1    0    0    0    0  0.00000000000E+00  0.00000000000E+00  0.74505805969E-08  0.10566000000E+00  0.10566000000E+00 0.  1.
     999900   -1    0    0    0    0 -0.00000000000E+00 -0.00000000000E+00 -0.74505805969E-08  0.93827000000E+00  0.93827000000E+00 0.  1.
     999902    2    1    2    0    0  0.10330179665E-01  0.10375682060E-01 -0.18552914088E-01  0.10202957450E+01  0.10200219748E+01 0.  0.
     999903    2    3    3    0    0 -0.66970747998E-02 -0.12334239809E+00  0.30053272682E-01  0.12870558477E+00  0.20093042915E-01 0.  0.
         14    1    1    2    0    0 -0.10330179665E-01 -0.10375682060E-01  0.18552914088E-01  0.23634255040E-01  0.00000000000E+00 0.  1.
     999901    1    3    3    0    0  0.17027254464E-01  0.13371808016E+00 -0.48606186770E-01  0.89159016019E+00  0.88000000000E+00 0.  1.
        -11    1    4    4    0    0 -0.39876196679E-02 -0.44356779896E-01  0.20721078663E-01  0.49122797715E-01  0.51100000000E-03 0.  1.
         11    1    4    4    0    0 -0.27094551318E-02 -0.78985618199E-01  0.93321940186E-02  0.79582787056E-01  0.51100000000E-03 0. -1.
</event>
<event>
 8    1  0.1138737E+005  0.1043930E+01  0.7957747E-01            NaN
         13   -1    0    0    0    0  0.00000000000E+00  0.00000000000E+00  0.74505805969E-08  0.10566000000E+00  0.10566000000E+00 0.  1.
     999900   -1    0    0    0    0 -0.00000000000E+00 -0.00000000000E+00 -0.74505805969E-08  0.93827000000E+00  0.93827000000E+00 0. -1.
     999902    2    1    2    0    0  0.74180789431E-02 -0.15856773154E-01 -0.16592937508E-01  0.10198096616E+01  0.10195243769E+01 0.  0.
     999903    2    3    3    0    0  0.53973900140E-01  0.10332229668E+00  0.49417206159E-01  0.12810991714E+00  0.19529764952E-01 0.  0.
         14    1    1    2    0    0 -0.74180789431E-02  0.15856773154E-01  0.16592937508E-01  0.24120338415E-01  0.00000000000E+00 0.  1.
     999901    1    3    3    0    0 -0.46555821197E-01 -0.11917906983E+00 -0.66010143667E-01  0.89169974444E+00  0.88000000000E+00 0.  1.
        -11    1    4    4    0    0  0.46590880663E-02  0.24811365731E-01  0.13907439604E-01  0.28826879269E-01  0.51100000000E-03 0. -1.
         11    1    4    4    0    0  0.49314812073E-01  0.78510930945E-01  0.35509766555E-01  0.99283037874E-01  0.51100000000E-03 0.  1.
</event>
<event>
 8    1  0.1138737E+005  0.1043930E+01  0.7957747E-01            NaN
         13   -1    0    0    0    0  0.00000000000E+00  0.00000000000E+00  0.74505805969E-08  0.10566000000E+00  0.10566000000E+00 0.  1.
     999900   -1    0    0    0    0 -0.00000000000E+00 -0.00000000000E+00 -0.74505805969E-08  0.93827000000E+00  0.93827000000E+00 0.  1.
     999902    2    1    2    0    0 -0.20892145579E-01 -0.31938351717E-02  0.10376587964E-01  0.10203852361E+01  0.10201135594E+01 0.  0.
     999903    2    3    3    0    0  0.40239658924E-01  0.11969025727E+00 -0.20391713015E-01  0.12921505815E+00  0.18322703339E-01 0.  0.
         14    1    1    2    0    0  0.20892145579E-01  0.31938351717E-02 -0.10376587964E-01  0.23544763914E-01  0.00000000000E+00 0. -1.
     999901    1    3    3    0    0 -0.61131804504E-01 -0.12288409244E+00  0.30768300979E-01  0.89117017794E+00  0.88000000000E+00 0. -1.
        -11    1    4    4    0    0  0.13851311061E-01  0.53907224406E-01 -0.75814668998E-03  0.55665820471E-01  0.51100000000E-03 0.  1.
         11    1    4    4    0    0  0.26388347863E-01  0.65783032862E-01 -0.19633566325E-01  0.73549237679E-01  0.51100000000E-03 0. -1.
</event>
<event>
 8    1  0.1138737E+005  0.1043930E+01  0.7957747E-01            NaN
         13   -1    0    0    0    0  0.00000000000E+00  0.00000000000E+00  0.74505805969E-08  0.10566000000E+00  0.10566000000E+00 0. -1.
     999900   -1    0    0    0    0 -0.00000000000E+00 -0.00000000000E+00 -0.74505805969E-08  0.93827000000E+00  0.93827000000E+00 0. -1.
     999902    2    1    2    0    0 -0.15950725661E-01  0.17644667963E-01 -0.21123052244E-02  0.10200506828E+01  0.10197711379E+01 0.  0.
     999903    2    3    3    0    0  0.37845911451E-01 -0.12013686007E+00  0.29279443300E-02  0.12769244098E+00  0.20775188668E-01 0.  0.
         14    1    1    2    0    0  0.15950725661E-01 -0.17644667963E-01  0.21123052244E-02  0.23879317202E-01  0.00000000000E+00 0. -1.
     999901    1    3    3    0    0 -0.53796637113E-01  0.13778152803E+00 -0.50402495544E-02  0.89235824182E+00  0.88000000000E+00 0. -1.
        -11    1    4    4    0    0  0.13340598471E-01 -0.71731319799E-01  0.69070542726E-02  0.73289305683E-01  0.51100000000E-03 0. -1.
         11    1    4    4    0    0  0.24505312980E-01 -0.48405540268E-01 -0.39791099426E-02  0.54403135294E-01  0.51100000000E-03 0.  1.
</event>
<event>
 8    1  0.1138737E+005  0.1043930E+01  0.7957747E-01            NaN
         13   -1    0    0    0    0  0.00000000000E+00  0.00000000000E+00  0.74505805969E-08  0.10566000000E+00  0.10566000000E+00 0. -1.
     999900   -1    0    0    0    0 -0.00000000000E+00 -0.00000000000E+00 -0.74505805969E-08  0.93827000000E+00  0.93827000000E+00 0.  1.
     999902    2    1    2    0    0  0.13691793588E-01  0.16635021758E-02 -0.18745924965E-01  0.10206567932E+01  0.10203914187E+01 0.  0.
     999903    2    3    3    0    0  0.72172993526E-01  0.32313527979E-01  0.10144646466E+00  0.13003583829E+00  0.19100496428E-01 0.  0.
         14    1    1    2    0    0 -0.13691793588E-01 -0.16635021758E-02  0.18745924965E-01  0.23273206783E-01  0.00000000000E+00 0. -1.
     999901    1    3    3    0    0 -0.58481199938E-01 -0.30650025803E-01 -0.12019238962E+00  0.89062095492E+00  0.88000000000E+00 0.  1.
        -11    1    4    4    0    0  0.43034515302E-01  0.11590205867E-01  0.66351096577E-01  0.79931417586E-01  0.51100000000E-03 0. -1.
         11    1    4    4    0    0  0.29138478224E-01  0.20723322112E-01  0.35095368081E-01  0.50104420706E-01  0.51100000000E-03 0.  1.
</event>
<event>
 8    1  0.1138737E+005  0.1043930E+01  0.7957747E-01            NaN
         13   -1    0    0    0    0  0.00000000000E+00  0.00000000000E+00  0.74505805969E-08  0.10566000000E+00  0.10566000000E+00 0. -1.
     999900   -1    0    0    0    0 -0.00000000000E+00 -0.00000000000E+00 -0.74505805969E-08  0.93827000000E+00  0.93827000000E+00 0.  1.
     999902    2    1    2    0    0  0.10396669035E-02 -0.23077245760E-01 -0.19826410497E-02  0.10207444216E+01  0.10204810646E+01 0.  0.
     999903    2    3    3    0    0 -0.68451863113E-01  0.23891652654E-01  0.10620111700E+00  0.13016097485E+00  0.20167634741E-01 0.  0.
         14    1    1    2    0    0 -0.10396669035E-02  0.23077245760E-01  0.19826410497E-02  0.23185578377E-01  0.00000000000E+00 0. -1.
     999901    1    3    3    0    0  0.69491530016E-01 -0.46968898413E-01 -0.10818375805E+00  0.89058344677E+00  0.88000000000E+00 0.  1.
        -11    1    4    4    0    0 -0.22050187514E-01  0.70084641395E-02  0.51542322415E-01  0.56499570440E-01  0.51100000000E-03 0. -1.
         11    1    4    4    0    0 -0.46401675599E-01  0.16883188514E-01  0.54658794587E-01  0.73661404409E-01  0.51100000000E-03 0.  1.
</event>
<event>
 8    1  0.1138737E+005  0.1043930E+01  0.7957747E-01            NaN
         13   -1    0    0    0    0  0.00000000000E+00  0.00000000000E+00  0.74505805969E-08  0.10566000000E+00  0.10566000000E+00 0.  1.
     999900   -1    0    0    0    0 -0.00000000000E+00 -0.00000000000E+00 -0.74505805969E-08  0.93827000000E+00  0.93827000000E+00 0. -1.
     999902    2    1    2    0    0  0.18361458463E-01  0.64304900113E-02  0.19378851910E-01  0.10164703157E+01  0.10160993399E+01 0.  0.
     999903    2    3    3    0    0 -0.11416448556E+00  0.33712591425E-01 -0.30759240411E-01  0.12471851888E+00  0.20940618333E-01 0.  0.
         14    1    1    2    0    0 -0.18361458463E-01 -0.64304900113E-02 -0.19378851910E-01  0.27459684266E-01  0.00000000000E+00 0.  1.
     999901    1    3    3    0    0  0.13252594402E+00 -0.27282101414E-01  0.50138092321E-01  0.89175179686E+00  0.88000000000E+00 0.  1.
        -11    1    4    4    0    0 -0.89098888157E-01  0.28478169591E-01 -0.15245849606E-01  0.94775076182E-01  0.51100000000E-03 0. -1.
         11    1    4    4    0    0 -0.25065597403E-01  0.52344218343E-02 -0.15513390805E-01  0.29943442694E-01  0.51100000000E-03 0.  1.
</event>
<event>
 8    1  0.1138737E+005  0.1043930E+01  0.7957747E-01            NaN
         13   -1    0    0    0    0  0.00000000000E+00  0.00000000000E+00  0.74505805969E-08  0.10566000000E+00  0.10566000000E+00 0.  1.
     999900   -1    0    0    0    0 -0.00000000000E+00 -0.00000000000E+00 -0.74505805969E-08  0.93827000000E+00  0.93827000000E+00 0.  1.
     999902    2    1    2    0    0 -0.67414804559E-02  0.12151832610E-01  0.19766800814E-01  0.10197671978E+01  0.10194808957E+01 0.  0.
     999903    2    3    3    0    0  0.11470035934E+00 -0.44414281732E-01 -0.30385722225E-01  0.12821623388E+00  0.19680184454E-01 0.  0.
         14    1    1    2    0    0  0.67414804559E-02 -0.12151832610E-01 -0.19766800814E-01  0.24162802174E-01  0.00000000000E+00 0. -1.
     999901    1    3    3    0    0 -0.12144183980E+00  0.56566114342E-01  0.50152523039E-01  0.89155096395E+00  0.88000000000E+00 0.  1.
        -11    1    4    4    0    0  0.58846632586E-01 -0.20237239540E-01 -0.25171527331E-01  0.67129270368E-01  0.51100000000E-03 0. -1.
         11    1    4    4    0    0  0.55853726756E-01 -0.24177042193E-01 -0.52141948935E-02  0.61086963512E-01  0.51100000000E-03 0.  1.
</event>
<event>
 8    1  0.1138737E+005  0.1043930E+01  0.7957747E-01            NaN
         13   -1    0    0    0    0  0.00000000000E+00  0.00000000000E+00  0.74505805969E-08  0.10566000000E+00  0.10566000000E+00 0.  1.
     999900   -1    0    0    0    0 -0.00000000000E+00 -0.00000000000E+00 -0.74505805969E-08  0.93827000000E+00  0.93827000000E+00 0. -1.
     999902    2    1    2    0    0 -0.19993460003E-01  0.19395113638E-02  0.15799040236E-01  0.10183739866E+01  0.10180532731E+01 0.  0.
     999903    2    3    3    0    0 -0.95372272767E-01 -0.68910429982E-01 -0.50659894794E-01  0.12982546817E+00  0.21064412460E-01 0.  0.
         14    1    1    2    0    0  0.19993460003E-01 -0.19395113638E-02 -0.15799040236E-01  0.25556013374E-01  0.00000000000E+00 0.  1.
     999901    1    3    3    0    0  0.75378812764E-01  0.70849941346E-01  0.66458935030E-01  0.88854851845E+00  0.88000000000E+00 0.  1.
        -11    1    4    4    0    0 -0.40375299881E-01 -0.21068554030E-01 -0.11060650591E-01  0.46868410703E-01  0.51100000000E-03 0.  1.
         11    1    4    4    0    0 -0.54996972886E-01 -0.47841875952E-01 -0.39599244203E-01  0.82957057468E-01  0.51100000000E-03 0. -1.
</event>
<event>
 8    1  0.1138737E+005  0.1043930E+01  0.7957747E-01            NaN
         13   -1    0    0    0    0  0.00000000000E+00  0.00000000000E+00  0.74505805969E-08  0.10566000000E+00  0.10566000000E+00 0.  1.
     999900   -1    0    0    0    0 -0.00000000000E+00 -0.00000000000E+00 -0.74505805969E-08  0.93827000000E+00  0.93827000000E+00 0.  1.
     999902    2    1    2    0    0 -0.23345589352E-01  0.10195412289E-02 -0.29102347436E-02  0.10203816355E+01  0.10201098747E+01 0.  0.
     999903    2    3    3    0    0  0.63155763675E-02 -0.12814364665E+00  0.10706414027E-01  0.13035448588E+00  0.20420186269E-01 0.  0.
         14    1    1    2    0    0  0.23345589352E-01 -0.10195412289E-02  0.29102347436E-02  0.23548364545E-01  0.00000000000E+00 0.  1.
     999901    1    3    3    0    0 -0.29661165719E-01  0.12916318788E+00 -0.13616648770E-01  0.89002714957E+00  0.88000000000E+00 0. -1.
        -11    1    4    4    0    0  0.10254594297E-02 -0.11349479773E+00  0.45270059024E-02  0.11359082526E+00  0.51100000000E-03 0. -1.
         11    1    4    4    0    0  0.52901169378E-02 -0.14648848917E-01  0.61794081243E-02  0.16763660625E-01  0.51100000000E-03 0.  1.
</event>
<event>
 8    1  0.1138737E+005  0.1043930E+01  0.7957747E-01            NaN
         13   -1    0    0    0    0  0.00000000000E+00  0.00000000000E+00  0.74505805969E-08  0.10566000000E+00  0.10566000000E+00 0.  1.
     999900   -1    0    0    0    0 -0.00000000000E+00 -0.00000000000E+00 -0.74505805969E-08  0.93827000000E+00  0.93827000000E+00 0. -1.
     999902    2    1    2    0    0 -0.21633482282E-01  0.35841804601E-02  0.10427049314E-01  0.10196487879E+01  0.10193596389E+01 0.  0.
     999903    2    3    3    0    0 -0.10704504726E+00 -0.73003624443E-01 -0.13753764601E-01  0.13187317486E+00  0.20327244806E-01 0.  0.
         14    1    1    2    0    0  0.21633482282E-01 -0.35841804601E-02 -0.10427049314E-01  0.24281212132E-01  0.00000000000E+00 0.  1.
     999901    1    3    3    0    0  0.85411564980E-01  0.76587804903E-01  0.24180813916E-01  0.88777561301E+00  0.88000000000E+00 0.  1.
        -11    1    4    4    0    0 -0.15689935943E-01 -0.14645192415E-01  0.45167027832E-02  0.21938948831E-01  0.51100000000E-03 0. -1.
         11    1    4    4    0    0 -0.91355111319E-01 -0.58358432028E-01 -0.18270467385E-01  0.10993422603E+00  0.51100000000E-03 0.  1.
</event>
<event>
 8    1  0.1138737E+005  0.1043930E+01  0.7957747E-01            NaN
         13   -1    0    0    0    0  0.00000000000E+00  0.00000000000E+00  0.74505805969E-08  0.10566000000E+00  0.10566000000E+00 0.  1.
     999900   -1    0    0    0    0 -0.00000000000E+00 -0.00000000000E+00 -0.74505805969E-08  0.93827000000E+00  0.93827000000E+00 0. -1.
     999902    2    1    2    0    0 -0.15036893187E-01  0.39923910697E-02 -0.17661980374E-01  0.10203929464E+01  0.10201214497E+01 0.  0.
     999903    2    3    3    0    0  0.40936971063E-01  0.11837379739E+00 -0.33106138581E-01  0.13109282739E+00  0.20028017180E-01 0.  0.
         14    1    1    2    0    0  0.15036893187E-01 -0.39923910697E-02  0.17661980374E-01  0.23537053637E-01  0.00000000000E+00 0.  1.
     999901    1    3    3    0    0 -0.55973864250E-01 -0.11438140632E+00  0.15444158208E-01  0.88930011898E+00  0.88000000000E+00 0. -1.
        -11    1    4    4    0    0  0.36485116227E-01  0.76815824493E-01 -0.22624120863E-01  0.87999696388E-01  0.51100000000E-03 0.  1.
         11    1    4    4    0    0  0.44518548359E-02  0.41557972896E-01 -0.10482017719E-01  0.43093130998E-01  0.51100000000E-03 0. -1.
</event>
<event>
 8    1  0.1138737E+005  0.1043930E+01  0.7957747E-01            NaN
         13   -1    0    0    0    0  0.00000000000E+00  0.00000000000E+00  0.74505805969E-08  0.10566000000E+00  0.10566000000E+00 0. -1.
     999900   -1    0    0    0    0 -0.00000000000E+00 -0.00000000000E+00 -0.74505805969E-08  0.93827000000E+00  0.93827000000E+00 0.  1.
     999902    2    1    2    0    0  0.22638007104E-01  0.10720753537E-02  0.76743482366E-02  0.10200025193E+01  0.10197218322E+01 0.  0.
     999903    2    3    3    0    0  0.96532298700E-03  0.97133478327E-01  0.85756567835E-01  0.13107376435E+00  0.19755969075E-01 0.  0.
         14    1    1    2    0    0 -0.22638007104E-01 -0.10720753537E-02 -0.76743482366E-02  0.23927480688E-01  0.00000000000E+00 0.  1.
     999901    1    3    3    0    0  0.21672684117E-01 -0.96061402973E-01 -0.78082219598E-01  0.88892875496E+00  0.88000000000E+00 0.  1.
        -11    1    4    4    0    0 -0.44190316592E-02  0.70505412065E-01  0.51893021788E-01  0.87656647224E-01  0.51100000000E-03 0.  1.
         11    1    4    4    0    0  0.53843546462E-02  0.26628066263E-01  0.33863546047E-01  0.43417117128E-01  0.51100000000E-03 0. -1.
</event>
<event>
 8    1  0.1138737E+005  0.1043930E+01  0.7957747E-01            NaN
         13   -1    0    0    0    0  0.00000000000E+00  0.00000000000E+00  0.74505805969E-08  0.10566000000E+00  0.10566000000E+00 0.  1.
     999900   -1    0    0    0    0 -0.00000000000E+00 -0.00000000000E+00 -0.74505805969E-08  0.93827000000E+00  0.93827000000E+00 0.  1.
     999902    2    1    2    0    0  0.15990843955E-01 -0.31993436895E-01  0.67414672860E-02  0.10075330980E+01  0.10068754685E+01 0.  0.
     999903    2    3    3    0    0 -0.10578046564E+00  0.21483527192E-01 -0.38602156482E-01  0.11638547737E+00  0.20109798722E-01 0.  0.
         14    1    1    2    0    0 -0.15990843955E-01  0.31993436895E-01 -0.67414672860E-02  0.36396902010E-01  0.00000000000E+00 0.  1.
     999901    1    3    3    0    0  0.12177130960E+00 -0.53476964087E-01  0.45343623768E-01  0.89114762062E+00  0.88000000000E+00 0. -1.
        -11    1    4    4    0    0 -0.94676555141E-02 -0.37957049784E-02 -0.40000734556E-02  0.10968390304E-01  0.51100000000E-03 0. -1.
         11    1    4    4    0    0 -0.96312810127E-01  0.25279232171E-01 -0.34602083027E-01  0.10541708706E+00  0.51100000000E-03 0.  1.
</event>
<event>
 8    1  0.1138737E+005  0.1043930E+01  0.7957747E-01            NaN
         13   -1    0    0    0    0  0.00000000000E+00  0.00000000000E+00  0.74505805969E-08  0.10566000000E+00  0.10566000000E+00 0.  1.
     999900   -1    0    0    0    0 -0.00000000000E+00 -0.00000000000E+00 -0.74505805969E-08  0.93827000000E+00  0.93827000000E+00 0.  1.
     999902    2    1    2    0    0  0.65810173650E-02 -0.98842134775E-02 -0.21529829507E-01  0.10193425840E+01  0.10190460061E+01 0.  0.
     999903    2    3    3    0    0 -0.84815409082E-01 -0.81365201329E-01 -0.54737126521E-01  0.13110524921E+00  0.19454658694E-01 0.  0.
         14    1    1    2    0    0 -0.65810173650E-02  0.98842134775E-02  0.21529829507E-01  0.24587415973E-01  0.00000000000E+00 0.  1.
     999901    1    3    3    0    0  0.91396426447E-01  0.71480987852E-01  0.33207297014E-01  0.88823733482E+00  0.88000000000E+00 0. -1.
        -11    1    4    4    0    0 -0.38268343163E-01 -0.44064690924E-01 -0.36029433743E-01  0.68589680649E-01  0.51100000000E-03 0.  1.
         11    1    4    4    0    0 -0.46547065919E-01 -0.37300510406E-01 -0.18707692778E-01  0.62515568559E-01  0.51100000000E-03 0. -1.
</event>
<event>
 8    1  0.1138737E+005  0.1043930E+01  0.7957747E-01            NaN
         13   -1    0    0    0    0  0.00000000000E+00  0.00000000000E+00  0.74505805969E-08  0.10566000000E+00  0.10566000000E+00 0. -1.
     999900   -1    0    0    0    0 -0.00000000000E+00 -0.00000000000E+00 -0.74505805969E-08  0.93827000000E+00  0.93827000000E+00 0.  1.
     999902    2    1    2    0    0  0.14243230636E-01  0.84165149497E-02  0.16847499015E-01  0.10203175972E+01  0.10200443390E+01 0.  0.
     999903    2    3    3    0    0 -0.62698681550E-01 -0.11067775938E+00  0.64971143437E-02  0.12890824427E+00  0.19860308599E-01 0.  0.
         14    1    1    2    0    0 -0.14243230636E-01 -0.84165149497E-02 -0.16847499015E-01  0.23612402799E-01  0.00000000000E+00 0.  1.
     999901    1    3    3    0    0  0.76941912186E-01  0.11909427433E+00  0.10350384672E-01  0.89140935293E+00  0.88000000000E+00 0.  1.
        -11    1    4    4    0    0 -0.38848155232E-01 -0.58046668726E-01 -0.48591576135E-02  0.70017622416E-01  0.51100000000E-03 0. -1.
         11    1    4    4    0    0 -0.23850526317E-01 -0.52631090651E-01  0.11356271957E-01  0.58890621855E-01  0.51100000000E-03 0.  1.
</event>
<event>
 8    1  0.1138737E+005  0.1043930E+01  0.7957747E-01            NaN
         13   -1    0    0    0    0  0.00000000000E+00  0.00000000000E+00  0.74505805969E-08  0.10566000000E+00  0.10566000000E+00 0.  1.
     999900   -1    0    0    0    0 -0.00000000000E+00 -0.00000000000E+00 -0.74505805969E-08  0.93827000000E+00  0.93827000000E+00 0. -1.
     999902    2    1    2    0    0  0.91165261412E-02  0.57421661070E-02  0.20881573390E-01  0.10204326889E+01  0.10201621190E+01 0.  0.
     999903    2    3    3    0    0 -0.47785533495E-01 -0.11698754299E+00  0.20443067044E-01  0.13009532693E+00  0.23180437276E-01 0.  0.
         14    1    1    2    0    0 -0.91165261412E-02 -0.57421661070E-02 -0.20881573390E-01  0.23497311075E-01  0.00000000000E+00 0. -1.
     999901    1    3    3    0    0  0.56902059637E-01  0.12272970909E+00  0.43850634648E-03  0.89033736200E+00  0.88000000000E+00 0. -1.
        -11    1    4    4    0    0 -0.24151644793E-01 -0.49367634881E-01 -0.20932718115E-02  0.55000983880E-01  0.51100000000E-03 0. -1.
         11    1    4    4    0    0 -0.23633888703E-01 -0.67619908105E-01  0.22536338855E-01  0.75094343045E-01  0.51100000000E-03 0.  1.
</event>
<event>
 7    1  0.1138737E+005  0.1043930E+01  0.7957747E-01            NaN
         13   -1    0    0    0    0  0.00000000000E+00  0.00000000000E+00  0.74505805969E-08  0.10566000000E+00  0.10566000000E+00 0.  1.
     999900   -1    0    0    0    0 -0.00000000000E+00 -0.00000000000E+00 -0.74505805969E-08  0.93827000000E+00  0.93827000000E+00 0. -1.
     999903    2    1    2    0    0 -0.32990173127E-02 -0.38966787632E-01 -0.10485205490E+00  0.11383071594E+00  0.20837092415E-01 0.  0.
         14    1    1    2    0    0 -0.13637336163E-01  0.30223325210E-01 -0.23421207360E-01  0.40595311042E-01  0.00000000000E+00 0. -1.
     999901    1    1    2    0    0  0.16936353476E-01  0.87434624215E-02  0.12827326226E+00  0.88950397302E+00  0.88000000000E+00 0.  1.
        -11    1    3    3    0    0 -0.68617919684E-02 -0.38870431429E-01 -0.85850961006E-01  0.94491498322E-01  0.51100000000E-03 0. -1.
         11    1    3    3    0    0  0.35627746557E-02 -0.96356202715E-04 -0.19001093897E-01  0.19339217617E-01  0.51100000000E-03 0.  1.
</event>
<event>
 8    1  0.1138737E+005  0.1043930E+01  0.7957747E-01            NaN
         13   -1    0    0    0    0  0.00000000000E+00  0.00000000000E+00  0.74505805969E-08  0.10566000000E+00  0.10566000000E+00 0.  1.
     999900   -1    0    0    0    0 -0.00000000000E+00 -0.00000000000E+00 -0.74505805969E-08  0.93827000000E+00  0.93827000000E+00 0.  1.
     999902    2    1    2    0    0 -0.16596778636E-02 -0.83237136896E-03  0.23939330690E-01  0.10199187750E+01  0.10196360962E+01 0.  0.
     999903    2    3    3    0    0 -0.41245310967E-01 -0.78073198322E-01 -0.90691763598E-01  0.12824985915E+00  0.20650191620E-01 0.  0.
         14    1    1    2    0    0  0.16596778636E-02  0.83237136896E-03 -0.23939330690E-01  0.24011225012E-01  0.00000000000E+00 0. -1.
     999901    1    3    3    0    0  0.39585633103E-01  0.77240826953E-01  0.11463109429E+00  0.89166891584E+00  0.88000000000E+00 0. -1.
        -11    1    4    4    0    0 -0.23883277421E-01 -0.39604429913E-01 -0.33226019598E-01  0.56948672578E-01  0.51100000000E-03 0. -1.
         11    1    4    4    0    0 -0.17362033546E-01 -0.38468768409E-01 -0.57465744000E-01  0.71301186570E-01  0.51100000000E-03 0.  1.
</event>
<event>
 8    1  0.1138737E+005  0.1043930E+01  0.7957747E-01            NaN
         13   -1    0    0    0    0  0.00000000000E+00  0.00000000000E+00  0.74505805969E-08  0.10566000000E+00  0.10566000000E+00 0. -1.
     999900   -1    0    0    0    0 -0.00000000000E+00 -0.00000000000E+00 -0.74505805969E-08  0.93827000000E+00  0.93827000000E+00 0. -1.
     999902    2    1    2    0    0  0.15110638425E-01  0.21102061832E-02 -0.17652206286E-01  0.10205979459E+01  0.10203312121E+01 0.  0.
     999903    2    3    3    0    0 -0.43576794046E-01 -0.11598644411E+00 -0.36453862211E-01  0.13057292609E+00  0.19199290680E-01 0.  0.
         14    1    1    2    0    0 -0.15110638425E-01 -0.21102061832E-02  0.17652206286E-01  0.23332054143E-01  0.00000000000E+00 0. -1.
     999901    1    3    3    0    0  0.58687432471E-01  0.11809665029E+00  0.18801655925E-01  0.89002501976E+00  0.88000000000E+00 0.  1.
        -11    1    4    4    0    0 -0.17856173923E-01 -0.56770787031E-01 -0.26883471328E-01  0.65305033182E-01  0.51100000000E-03 0.  1.
         11    1    4    4    0    0 -0.25720620123E-01 -0.59215657076E-01 -0.95703908838E-02  0.65267892912E-01  0.51100000000E-03 0. -1.
</event>
<event>
 8    1  0.1138737E+005  0.1043930E+01  0.7957747E-01            NaN
         13   -1    0    0    0    0  0.00000000000E+00  0.00000000000E+00  0.74505805969E-08  0.10566000000E+00  0.10566000000E+00 0.  1.
     999900   -1    0    0    0    0 -0.00000000000E+00 -0.00000000000E+00 -0.74505805969E-08  0.93827000000E+00  0.93827000000E+00 0. -1.
     999902    2    1    2    0    0 -0.17290109528E-01 -0.16900132390E-01  0.12084341251E-02  0.10197220948E+01  0.10194347100E+01 0.  0.
     999903    2    3    3    0    0 -0.69350570231E-01  0.46201404154E-01  0.98288083022E-01  0.13061211636E+00  0.21328533466E-01 0.  0.
         14    1    1    2    0    0  0.17290109528E-01  0.16900132390E-01 -0.12084341251E-02  0.24207905224E-01  0.00000000000E+00 0.  1.
     999901    1    3    3    0    0  0.52060460703E-01 -0.63101536543E-01 -0.97079648897E-01  0.88910997841E+00  0.88000000000E+00 0. -1.
        -11    1    4    4    0    0 -0.48024949503E-01  0.19586315029E-01  0.57321197756E-01  0.77304594588E-01  0.51100000000E-03 0. -1.
         11    1    4    4    0    0 -0.21325620728E-01  0.26615089125E-01  0.40966885266E-01  0.53307521776E-01  0.51100000000E-03 0.  1.
</event>
<event>
 8    1  0.1138737E+005  0.1043930E+01  0.7957747E-01            NaN
         13   -1    0    0    0    0  0.00000000000E+00  0.00000000000E+00  0.74505805969E-08  0.10566000000E+00  0.10566000000E+00 0. -1.
     999900   -1    0    0    0    0 -0.00000000000E+00 -0.00000000000E+00 -0.74505805969E-08  0.93827000000E+00  0.93827000000E+00 0.  1.
     999902    2    1    2    0    0 -0.83268181764E-02  0.84621553655E-02  0.17020265134E-01  0.10231782916E+01  0.10229678309E+01 0.  0.
     999903    2    3    3    0    0 -0.88537612197E-02  0.10351634614E+00 -0.80148079170E-01  0.13274173355E+00  0.20065647936E-01 0.  0.
         14    1    1    2    0    0  0.83268181764E-02 -0.84621553655E-02 -0.17020265134E-01  0.20751708354E-01  0.00000000000E+00 0.  1.
     999901    1    3    3    0    0  0.52694304334E-03 -0.95054190771E-01  0.97168344304E-01  0.89043655809E+00  0.88000000000E+00 0. -1.
        -11    1    4    4    0    0  0.58719111080E-03  0.52273873135E-01 -0.29274518032E-01  0.59917953344E-01  0.51100000000E-03 0. -1.
         11    1    4    4    0    0 -0.94409523305E-02  0.51242473002E-01 -0.50873561138E-01  0.72823780210E-01  0.51100000000E-03 0.  1.
</event>
<event>
 8    1  0.1138737E+005  0.1043930E+01  0.7957747E-01            NaN
         13   -1    0    0    0    0  0.00000000000E+00  0.00000000000E+00  0.74505805969E-08  0.10566000000E+00  0.10566000000E+00 0.  1.
     999900   -1    0    0    0    0 -0.00000000000E+00 -0.00000000000E+00 -0.74505805969E-08  0.93827000000E+00  0.93827000000E+00 0. -1.
     999902    2    1    2    0    0 -0.18351635725E-01  0.91667356807E-02 -0.12400673542E-01  0.10199594289E+01  0.10196777178E+01 0.  0.
     999903    2    3    3    0    0  0.14038465056E-01 -0.11487761315E+00  0.51762977162E-01  0.12835800828E+00  0.20060607676E-01 0.  0.
         14    1    1    2    0    0  0.18351635725E-01 -0.91667356807E-02  0.12400673542E-01  0.23970571147E-01  0.00000000000E+00 0. -1.
     999901    1    3    3    0    0 -0.32390100781E-01  0.12404434883E+00 -0.64163650704E-01  0.89160142058E+00  0.88000000000E+00 0. -1.
        -11    1    4    4    0    0 -0.11479773172E-02 -0.57079253377E-01  0.18805780442E-01  0.60110544141E-01  0.51100000000E-03 0. -1.
         11    1    4    4    0    0  0.15186442374E-01 -0.57798359770E-01  0.32957196720E-01  0.68247464134E-01  0.51100000000E-03 0.  1.
</event>
<event>
 8    1  0.1138737E+005  0.1043930E+01  0.7957747E-01            NaN
         13   -1    0    0    0    0  0.00000000000E+00  0.00000000000E+00  0.74505805969E-08  0.10566000000E+00  0.10566000000E+00 0. -1.
     999900   -1    0    0    0    0 -0.00000000000E+00 -0.00000000000E+00 -0.74505805969E-08  0.93827000000E+00  0.93827000000E+00 0. -1.
     999902    2    1    2    0    0  0.87112428345E-02  0.16308416622E-01 -0.15043396279E-01  0.10200940193E+01  0.10198155001E+01 0.  0.
     999903    2    3    3    0    0  0.19797355323E-01  0.10308422352E+00 -0.79791857453E-01  0.13338927375E+00  0.20190726091E-01 0.  0.
         14    1    1    2    0    0 -0.87112428345E-02 -0.16308416622E-01  0.15043396279E-01  0.23835980703E-01  0.00000000000E+00 0. -1.
     999901    1    3    3    0    0 -0.11086112489E-01 -0.86775806893E-01  0.64748461173E-01  0.88670474555E+00  0.88000000000E+00 0. -1.
        -11    1    4    4    0    0  0.20002998174E-01  0.73064760152E-01 -0.48111387489E-01  0.89741550238E-01  0.51100000000E-03 0. -1.
         11    1    4    4    0    0 -0.20564285091E-03  0.30019463364E-01 -0.31680469964E-01  0.43647723512E-01  0.51100000000E-03 0.  1.
</event>
<event>
 8    1  0.1138737E+005  0.1043930E+01  0.7957747E-01            NaN
         13   -1    0    0    0    0  0.00000000000E+00  0.00000000000E+00  0.74505805969E-08  0.10566000000E+00  0.10566000000E+00 0.  1.
     999900   -1    0    0    0    0 -0.00000000000E+00 -0.00000000000E+00 -0.74505805969E-08  0.93827000000E+00  0.93827000000E+00 0. -1.
     999902    2    1    2    0    0 -0.72267327928E-02 -0.23484043056E-01 -0.44403663336E-02  0.10189611635E+01  0.10186551967E+01 0.  0.
     999903    2    3    3    0    0 -0.12714030143E+00 -0.23461517386E-01  0.38139809255E-02  0.13079034729E+00  0.19402820572E-01 0.  0.
         14    1    1    2    0    0  0.72267327928E-02  0.23484043056E-01  0.44403663336E-02  0.24968836543E-01  0.00000000000E+00 0.  1.
     999901    1    3    3    0    0  0.11991356864E+00 -0.22525670319E-04 -0.82543472591E-02  0.88817081617E+00  0.88000000000E+00 0. -1.
        -11    1    4    4    0    0 -0.45276321023E-01  0.95229058745E-04  0.53116077173E-02  0.45589786262E-01  0.51100000000E-03 0. -1.
         11    1    4    4    0    0 -0.81863980410E-01 -0.23556746445E-01 -0.14976267918E-02  0.85200561023E-01  0.51100000000E-03 0.  1.
</event>
<event>
 8    1  0.1138737E+005  0.1043930E+01  0.7957747E-01            NaN
         13   -1    0    0    0    0  0.00000000000E+00  0.00000000000E+00  0.74505805969E-08  0.10566000000E+00  0.10566000000E+00 0. -1.
     999900   -1    0    0    0    0 -0.00000000000E+00 -0.00000000000E+00 -0.74505805969E-08  0.93827000000E+00  0.93827000000E+00 0.  1.
     999902    2    1    2    0    0 -0.11592862535E-01  0.10337792814E-01 -0.18095336112E-01  0.10200824506E+01  0.10198036578E+01 0.  0.
     999903    2    3    3    0    0  0.78780180389E-01 -0.68570066766E-01  0.70499373702E-01  0.12753398707E+00  0.19661772236E-01 0.  0.
         14    1    1    2    0    0  0.11592862535E-01 -0.10337792814E-01  0.18095336112E-01  0.23847549372E-01  0.00000000000E+00 0. -1.
     999901    1    3    3    0    0 -0.90373042924E-01  0.78907859580E-01 -0.88594709814E-01  0.89254846356E+00  0.88000000000E+00 0. -1.
        -11    1    4    4    0    0  0.49690880448E-01 -0.41941597947E-01  0.54963917244E-01  0.85144433510E-01  0.51100000000E-03 0. -1.
         11    1    4    4    0    0  0.29089299942E-01 -0.26628468819E-01  0.15535456458E-01  0.42389553561E-01  0.51100000000E-03 0.  1.
</event>
<event>
 8    1  0.1138737E+005  0.1043930E+01  0.7957747E-01            NaN
         13   -1    0    0    0    0  0.00000000000E+00  0.00000000000E+00  0.74505805969E-08  0.10566000000E+00  0.10566000000E+00 0.  1.
     999900   -1    0    0    0    0 -0.00000000000E+00 -0.00000000000E+00 -0.74505805969E-08  0.93827000000E+00  0.93827000000E+00 0. -1.
     999902    2    1    2    0    0  0.41371848204E-02 -0.20991485621E-01 -0.10141452190E-01  0.10202528418E+01  0.10199780652E+01 0.  0.
     999903    2    3    3    0    0  0.44921823463E-01  0.11097892171E+00  0.40828195115E-01  0.12802110057E+00  0.19702014816E-01 0.  0.
         14    1    1    2    0    0 -0.41371848204E-02  0.20991485621E-01  0.10141452190E-01  0.23677158177E-01  0.00000000000E+00 0. -1.
     999901    1    3    3    0    0 -0.40784638643E-01 -0.13197040733E+00 -0.50969647305E-01  0.89223174126E+00  0.88000000000E+00 0. -1.
        -11    1    4    4    0    0  0.28071208356E-01  0.43914277931E-01  0.19591531957E-01  0.55682544753E-01  0.51100000000E-03 0.  1.
         11    1    4    4    0    0  0.16850615107E-01  0.67064643775E-01  0.21236663158E-01  0.72338555814E-01  0.51100000000E-03 0. -1.
</event>
<event>
 8    1  0.1138737E+005  0.1043930E+01  0.7957747E-01            NaN
         13   -1    0    0    0    0  0.00000000000E+00  0.00000000000E+00  0.74505805969E-08  0.10566000000E+00  0.10566000000E+00 0.  1.
     999900   -1    0    0    0    0 -0.00000000000E+00 -0.00000000000E+00 -0.74505805969E-08  0.93827000000E+00  0.93827000000E+00 0. -1.
     999902    2    1    2    0    0  0.21301799889E-01  0.87501064014E-02 -0.18472571925E-02  0.10208271127E+01  0.10205656523E+01 0.  0.
     999903    2    3    3    0    0  0.29398119655E-01 -0.57074405721E-01 -0.11297095864E+00  0.13136272683E+00  0.19287075336E-01 0.  0.
         14    1    1    2    0    0 -0.21301799889E-01 -0.87501064014E-02  0.18472571925E-02  0.23102887258E-01  0.00000000000E+00 0. -1.
     999901    1    3    3    0    0 -0.80963197663E-02  0.65824512122E-01  0.11112370145E+00  0.88946438592E+00  0.88000000000E+00 0.  1.
        -11    1    4    4    0    0  0.95880595921E-02 -0.39142209533E-01 -0.68848181435E-01  0.79777043450E-01  0.51100000000E-03 0. -1.
         11    1    4    4    0    0  0.19810060063E-01 -0.17932196188E-01 -0.44122777207E-01  0.51585683375E-01  0.51100000000E-03 0.  1.
</event>
<event>
 8    1  0.1138737E+005  0.1043930E+01  0.7957747E-01            NaN
         13   -1    0    0    0    0  0.00000000000E+00  0.00000000000E+00  0.74505805969E-08  0.10566000000E+00  0.10566000000E+00 0. -1.
     999900   -1    0    0    0    0 -0.00000000000E+00 -0.00000000000E+00 -0.74505805969E-08  0.93827000000E+00  0.93827000000E+00 0. -1.
     999902    2    1    2    0    0  0.17677839861E-01 -0.16709926267E-01 -0.58394671126E-02  0.10189134648E+01  0.10186063134E+01 0.  0.
     999903    2    3    3    0    0  0.95686430014E-01  0.57242271318E-01  0.62628220690E-01  0.12973289148E+00  0.21811891048E-01 0.  0.
         14    1    1    2    0    0 -0.17677839861E-01  0.16709926267E-01  0.58394671126E-02  0.25016535215E-01  0.00000000000E+00 0.  1.
     999901    1    3    3    0    0 -0.78008590153E-01 -0.73952197585E-01 -0.68467687802E-01  0.88918057330E+00  0.88000000000E+00 0. -1.
        -11    1    4    4    0    0  0.46426185067E-01  0.40104820175E-01  0.31075420950E-01  0.68773033737E-01  0.51100000000E-03 0. -1.
         11    1    4    4    0    0  0.49260244947E-01  0.17137451143E-01  0.31552799740E-01  0.60959857746E-01  0.51100000000E-03 0.  1.
</event>
<event>
 8    1  0.1138737E+005  0.1043930E+01  0.7957747E-01            NaN
         13   -1    0    0    0    0  0.00000000000E+00  0.00000000000E+00  0.74505805969E-08  0.10566000000E+00  0.10566000000E+00 0. -1.
     999900   -1    0    0    0    0 -0.00000000000E+00 -0.00000000000E+00 -0.74505805969E-08  0.93827000000E+00  0.93827000000E+00 0.  1.
     999902    2    1    2    0    0 -0.81583106108E-02  0.18507945907E-01  0.12013276796E-01  0.10204051001E+01  0.10201338870E+01 0.  0.
     999903    2    3    3    0    0  0.11233417364E+00  0.49990991346E-01  0.40374742166E-01  0.13118409633E+00  0.21472809346E-01 0.  0.
         14    1    1    2    0    0  0.81583106108E-02 -0.18507945907E-01 -0.12013276796E-01  0.23524899853E-01  0.00000000000E+00 0.  1.
     999901    1    3    3    0    0 -0.12049248425E+00 -0.31483045439E-01 -0.28361465370E-01  0.88922100382E+00  0.88000000000E+00 0.  1.
        -11    1    4    4    0    0  0.43850481596E-02 -0.17924581169E-02 -0.19655923002E-03  0.47687849599E-02  0.51100000000E-03 0.  1.
         11    1    4    4    0    0  0.10794912548E+00  0.51783449463E-01  0.40571301396E-01  0.12641531137E+00  0.51100000000E-03 0. -1.
</event>
<event>
 8    1  0.1138737E+005  0.1043930E+01  0.7957747E-01            NaN
         13   -1    0    0    0    0  0.00000000000E+00  0.00000000000E+00  0.74505805969E-08  0.10566000000E+00  0.10566000000E+00 0. -1.
     999900   -1    0    0    0    0 -0.00000000000E+00 -0.00000000000E+00 -0.74505805969E-08  0.93827000000E+00  0.93827000000E+00 0.  1.
     999902    2    1    2    0    0 -0.16683329926E-01 -0.81650989443E-02 -0.15203909907E-01  0.10199266416E+01  0.10196441502E+01 0.  0.
     999903    2    3    3    0    0 -0.10302582724E+00  0.76209800166E-01 -0.22367107403E-01  0.13165558959E+00  0.20264551675E-01 0.  0.
         14    1    1    2    0    0  0.16683329926E-01  0.81650989443E-02  0.15203909907E-01  0.24003358403E-01  0.00000000000E+00 0. -1.
     999901    1    3    3    0    0  0.86342497319E-01 -0.84374899110E-01  0.71631974965E-02  0.88827105201E+00  0.88000000000E+00 0. -1.
        -11    1    4    4    0    0 -0.38966885966E-01  0.40948792916E-01 -0.73376202869E-02  0.57002838839E-01  0.51100000000E-03 0.  1.
         11    1    4    4    0    0 -0.64058941279E-01  0.35261007250E-01 -0.15029487116E-01  0.74652750747E-01  0.51100000000E-03 0. -1.
</event>
<event>
 8    1  0.1138737E+005  0.1043930E+01  0.7957747E-01            NaN
         13   -1    0    0    0    0  0.00000000000E+00  0.00000000000E+00  0.74505805969E-08  0.10566000000E+00  0.10566000000E+00 0.  1.
     999900   -1    0    0    0    0 -0.00000000000E+00 -0.00000000000E+00 -0.74505805969E-08  0.93827000000E+00  0.93827000000E+00 0. -1.
     999902    2    1    2    0    0 -0.89792470564E-02 -0.20573868465E-01 -0.14406679380E-01  0.10172567296E+01  0.10169069725E+01 0.  0.
     999903    2    3    3    0    0  0.29897355580E-01  0.10618199904E+00  0.53026732559E-01  0.12477384172E+00  0.24253008451E-01 0.  0.
         14    1    1    2    0    0  0.89792470564E-02  0.20573868465E-01  0.14406679380E-01  0.26673270367E-01  0.00000000000E+00 0.  1.
     999901    1    3    3    0    0 -0.38876602636E-01 -0.12675586751E+00 -0.67433411939E-01  0.89248288792E+00  0.88000000000E+00 0. -1.
        -11    1    4    4    0    0  0.10665897200E-01  0.56855206934E-01  0.15537640189E-01  0.59899543423E-01  0.51100000000E-03 0. -1.
         11    1    4    4    0    0  0.19231458380E-01  0.49326792109E-01  0.37489092370E-01  0.64874298292E-01  0.51100000000E-03 0.  1.
</event>
<event>
 8    1  0.1138737E+005  0.1043930E+01  0.7957747E-01            NaN
         13   -1    0    0    0    0  0.00000000000E+00  0.00000000000E+00  0.74505805969E-08  0.10566000000E+00  0.10566000000E+00 0.  1.
     999900   -1    0    0    0    0 -0.00000000000E+00 -0.00000000000E+00 -0.74505805969E-08  0.93827000000E+00  0.93827000000E+00 0. -1.
     999902    2    1    2    0    0  0.23422010263E-01  0.18113723923E-02  0.31531292559E-02  0.10202273871E+01  0.10199520124E+01 0.  0.
     999903    2    3    3    0    0  0.76604265411E-01 -0.73139582118E-02 -0.10519107397E+00  0.13194247205E+00  0.20541334490E-01 0.  0.
         14    1    1    2    0    0 -0.23422010263E-01 -0.18113723923E-02 -0.31531292559E-02  0.23702612911E-01  0.00000000000E+00 0. -1.
     999901    1    3    3    0    0 -0.53182255148E-01  0.91253306041E-02  0.10834420323E+00  0.88828491504E+00  0.88000000000E+00 0.  1.
        -11    1    4    4    0    0  0.72250767080E-01 -0.23702696479E-02 -0.90459762734E-01  0.11579732862E+00  0.51100000000E-03 0. -1.
         11    1    4    4    0    0  0.43534983317E-02 -0.49436885639E-02 -0.14731311236E-01  0.16145143421E-01  0.51100000000E-03 0.  1.
</event>
<event>
 8    1  0.1138737E+005  0.1043930E+01  0.7957747E-01            NaN
         13   -1    0    0    0    0  0.00000000000E+00  0.00000000000E+00  0.74505805969E-08  0.10566000000E+00  0.10566000000E+00 0.  1.
     999900   -1    0    0    0    0 -0.00000000000E+00 -0.00000000000E+00 -0.74505805969E-08  0.93827000000E+00  0.93827000000E+00 0.  1.
     999902    2    1    2    0    0 -0.16165278049E-01  0.10622110943E-03 -0.15309511634E-01  0.10216654846E+01  0.10214228575E+01 0.  0.
     999903    2    3    3    0    0  0.12072647502E+00 -0.97459750765E-02  0.42816724453E-01  0.12913252887E+00  0.13117633880E-01 0.  0.
         14    1    1    2    0    0  0.16165278049E-01 -0.10622110943E-03  0.15309511634E-01  0.22264515351E-01  0.00000000000E+00 0.  1.
     999901    1    3    3    0    0 -0.13689175307E+00  0.98521961860E-02 -0.58126236087E-01  0.89253295578E+00  0.88000000000E+00 0. -1.
        -11    1    4    4    0    0  0.27694122915E-01  0.31156162484E-02  0.84980200830E-02  0.29140160860E-01  0.51100000000E-03 0.  1.
         11    1    4    4    0    0  0.93032352106E-01 -0.12861591325E-01  0.34318704370E-01  0.99992368010E-01  0.51100000000E-03 0. -1.
</event>
<event>
 8    1  0.1138737E+005  0.1043930E+01  0.7957747E-01            NaN
         13   -1    0    0    0    0  0.00000000000E+00  0.00000000000E+00  0.74505805969E-08  0.10566000000E+00  0.10566000000E+00 0.  1.
     999900   -1    0    0    0    0 -0.00000000000E+00 -0.00000000000E+00 -0.74505805969E-08  0.93827000000E+00  0.93827000000E+00 0.  1.
     999902    2    1    2    0    0 -0.57346130496E-02  0.22216277554E-01  0.67643272851E-02  0.10200091953E+01  0.10197286666E+01 0.  0.
     999903    2    3    3    0    0 -0.17550884155E-01  0.93973741804E-01  0.90335592815E-01  0.13306336020E+00  0.20155416495E-01 0.  0.
         14    1    1    2    0    0  0.57346130496E-02 -0.22216277554E-01 -0.67643272851E-02  0.23920804727E-01  0.00000000000E+00 0.  1.
     999901    1    3    3    0    0  0.11816271105E-01 -0.71757464250E-01 -0.83571265530E-01  0.88694583508E+00  0.88000000000E+00 0.  1.
        -11    1    4    4    0    0 -0.22141205483E-03  0.53285570126E-01  0.53412026230E-01  0.75448702268E-01  0.51100000000E-03 0.  1.
         11    1    4    4    0    0 -0.17329472100E-01  0.40688171678E-01  0.36923566586E-01  0.57614657928E-01  0.51100000000E-03 0. -1.
</event>
<event>
 8    1  0.1138737E+005  0.1043930E+01  0.7957747E-01            NaN
         13   -1    0    0    0    0  0.00000000000E+00  0.00000000000E+00  0.74505805969E-08  0.10566000000E+00  0.10566000000E+00 0. -1.
     999900   -1    0    0    0    0 -0.00000000000E+00 -0.00000000000E+00 -0.74505805969E-08  0.93827000000E+00  0.93827000000E+00 0.  1.
     999902    2    1    2    0    0  0.19083727753E-01  0.14179384842E-01 -0.48643933777E-02  0.10196626157E+01  0.10193737999E+01 0.  0.
     999903    2    3    3    0    0 -0.41615756559E-01  0.10971190441E+00 -0.54820273236E-01  0.13100830739E+00  0.19731727858E-01 0.  0.
         14    1    1    2    0    0 -0.19083727753E-01 -0.14179384842E-01  0.48643933777E-02  0.24267384333E-01  0.00000000000E+00 0. -1.
     999901    1    3    3    0    0  0.60699484311E-01 -0.95532519566E-01  0.49955879858E-01  0.88865430828E+00  0.88000000000E+00 0. -1.
        -11    1    4    4    0    0 -0.37863387950E-01  0.79892782153E-01 -0.35483746142E-01  0.95267256434E-01  0.51100000000E-03 0.  1.
         11    1    4    4    0    0 -0.37523686082E-02  0.29819122255E-01 -0.19336527094E-01  0.35741050954E-01  0.51100000000E-03 0. -1.
</event>
<event>
 8    1  0.1138737E+005  0.1043930E+01  0.7957747E-01            NaN
         13   -1    0    0    0    0  0.00000000000E+00  0.00000000000E+00  0.74505805969E-08  0.10566000000E+00  0.10566000000E+00 0.  1.
     999900   -1    0    0    0    0 -0.00000000000E+00 -0.00000000000E+00 -0.74505805969E-08  0.93827000000E+00  0.93827000000E+00 0.  1.
     999902    2    1    2    0    0  0.47838639671E-02 -0.17994098775E-01 -0.10402789784E-01  0.10226018266E+01  0.10223793840E+01 0.  0.
     999903    2    3    3    0    0  0.31985767392E-02 -0.94701234791E-01 -0.94442766857E-01  0.13527482059E+00  0.20032126947E-01 0.  0.
         14    1    1    2    0    0 -0.47838639671E-02  0.17994098775E-01  0.10402789784E-01  0.21328173397E-01  0.00000000000E+00 0. -1.
     999901    1    3    3    0    0  0.15852872278E-02  0.76707136016E-01  0.84039977074E-01  0.88732700601E+00  0.88000000000E+00 0. -1.
        -11    1    4    4    0    0 -0.44832009894E-02 -0.62162725377E-01 -0.70791707247E-01  0.94318770419E-01  0.51100000000E-03 0. -1.
         11    1    4    4    0    0  0.76817777286E-02 -0.32538509414E-01 -0.23651059611E-01  0.40956050172E-01  0.51100000000E-03 0.  1.
</event>
<event>
 8    1  0.1138737E+005  0.1043930E+01  0.7957747E-01            NaN
         13   -1    0    0    0    0  0.00000000000E+00  0.00000000000E+00  0.74505805969E-08  0.10566000000E+00  0.10566000000E+00 0. -1.
     999900   -1    0    0    0    0 -0.00000000000E+00 -0.00000000000E+00 -0.74505805969E-08  0.93827000000E+00  0.93827000000E+00 0.  1.
     999902    2    1    2    0    0  0.80973738038E-02 -0.14411674227E-01 -0.18110057283E-01  0.10194098452E+01  0.10191149074E+01 0.  0.
     999903    2    3    3    0    0 -0.12207599401E+00  0.28725523249E-01  0.16846999564E-01  0.12810298485E+00  0.19971212584E-01 0.  0.
         14    1    1    2    0    0 -0.80973738038E-02  0.14411674227E-01  0.18110057283E-01  0.24520154799E-01  0.00000000000E+00 0. -1.
     999901    1    3    3    0    0  0.13017336782E+00 -0.43137197476E-01 -0.34957056848E-01  0.89130686036E+00  0.88000000000E+00 0.  1.
        -11    1    4    4    0    0 -0.11555091877E+00  0.30999898071E-01  0.13467195140E-01  0.12039366667E+00  0.51100000000E-03 0.  1.
         11    1    4    4    0    0 -0.65250752424E-02 -0.22743748215E-02  0.33798044245E-02  0.77093181732E-02  0.51100000000E-03 0. -1.
</event>
<event>
 7    1  0.1138737E+005  0.1043930E+01  0.7957747E-01            NaN
         13   -1    0    0    0    0  0.00000000000E+00  0.00000000000E+00  0.74505805969E-08  0.10566000000E+00  0.10566000000E+00 0. -1.
     999900   -1    0    0    0    0 -0.00000000000E+00 -0.00000000000E+00 -0.74505805969E-08  0.93827000000E+00  0.93827000000E+00 0. -1.
     999903    2    1    2    0    0 -0.69870145839E-01  0.47058190001E-01 -0.77887973748E-01  0.11652343558E+00  0.20368211985E-01 0.  0.
         14    1    1    2    0    0  0.41771121032E-01  0.53438634356E-02  0.45351563767E-02  0.42355059580E-01  0.00000000000E+00 0.  1.
     999901    1    1    2    0    0  0.28099024807E-01 -0.52402053437E-01  0.73352817371E-01  0.88505150484E+00  0.88000000000E+00 0.  1.
        -11    1    3    3    0    0 -0.59345700348E-01  0.47614508887E-01 -0.69351662586E-01  0.10295128863E+00  0.51100000000E-03 0.  1.
         11    1    3    3    0    0 -0.10524445491E-01 -0.55631888575E-03 -0.85363111618E-02  0.13572146951E-01  0.51100000000E-03 0. -1.
</event>
<event>
 8    1  0.1138737E+005  0.1043930E+01  0.7957747E-01            NaN
         13   -1    0    0    0    0  0.00000000000E+00  0.00000000000E+00  0.74505805969E-08  0.10566000000E+00  0.10566000000E+00 0.  1.
     999900   -1    0    0    0    0 -0.00000000000E+00 -0.00000000000E+00 -0.74505805969E-08  0.93827000000E+00  0.93827000000E+00 0.  1.
     999902    2    1    2    0    0 -0.17424612058E-01  0.29036569164E-02 -0.15962340005E-01  0.10201215009E+01  0.10198436312E+01 0.  0.
     999903    2    3    3    0    0  0.16994118925E-01 -0.57501486376E-02  0.12527544834E+00  0.12815308769E+00  0.20184440554E-01 0.  0.
         14    1    1    2    0    0  0.17424612058E-01 -0.29036569164E-02  0.15962340005E-01  0.23808499056E-01  0.00000000000E+00 0.  1.
     999901    1    3    3    0    0 -0.34418730983E-01  0.86538055540E-02 -0.14123778834E+00  0.89196841326E+00  0.88000000000E+00 0.  1.
        -11    1    4    4    0    0  0.49502299754E-02 -0.12274725611E-01  0.65571093195E-01  0.66895463594E-01  0.51100000000E-03 0.  1.
         11    1    4    4    0    0  0.12043888949E-01  0.65245769735E-02  0.59704355141E-01  0.61257624093E-01  0.51100000000E-03 0. -1.
</event>
<event>
 8    1  0.1138737E+005  0.1043930E+01  0.7957747E-01            NaN
         13   -1    0    0    0    0  0.00000000000E+00  0.00000000000E+00  0.74505805969E-08  0.10566000000E+00  0.10566000000E+00 0. -1.
     999900   -1    0    0    0    0 -0.00000000000E+00 -0.00000000000E+00 -0.74505805969E-08  0.93827000000E+00  0.93827000000E+00 0.  1.
     999902    2    1    2    0    0  0.23443506439E-01 -0.12907813524E-02 -0.21102084455E-02  0.10203563475E+01  0.10200839960E+01 0.  0.
     999903    2    3    3    0    0  0.21291242419E-01 -0.48890755048E-01 -0.11851940689E+00  0.13141231599E+00  0.19460833796E-01 0.  0.
         14    1    1    2    0    0 -0.23443506439E-01  0.12907813524E-02  0.21102084455E-02  0.23573652461E-01  0.00000000000E+00 0.  1.
     999901    1    3    3    0    0  0.21522640204E-02  0.47599973695E-01  0.11640919845E+00  0.88894403154E+00  0.88000000000E+00 0. -1.
        -11    1    4    4    0    0  0.18474129153E-01 -0.26837594332E-01 -0.86446146749E-01  0.92383696214E-01  0.51100000000E-03 0.  1.
         11    1    4    4    0    0  0.28171132660E-02 -0.22053160716E-01 -0.32073260144E-01  0.39028619780E-01  0.51100000000E-03 0. -1.
</event>
<event>
 8    1  0.1138737E+005  0.1043930E+01  0.7957747E-01            NaN
         13   -1    0    0    0    0  0.00000000000E+00  0.00000000000E+00  0.74505805969E-08  0.10566000000E+00  0.10566000000E+00 0.  1.
     999900   -1    0    0    0    0 -0.00000000000E+00 -0.00000000000E+00 -0.74505805969E-08  0.93827000000E+00  0.93827000000E+00 0.  1.
     999902    2    1    2    0    0 -0.18052604804E-01  0.13721132914E-01 -0.65945414582E-02  0.10203153011E+01  0.10200419891E+01 0.  0.
     999903    2    3    3    0    0  0.52391435069E-01  0.11327488253E+00  0.34279925222E-01  0.13096495737E+00  0.20016126104E-01 0.  0.
         14    1    1    2    0    0  0.18052604804E-01 -0.13721132914E-01  0.65945414582E-02  0.23614698933E-01  0.00000000000E+00 0. -1.
     999901    1    3    3    0    0 -0.70444039873E-01 -0.99553749614E-01 -0.40874466680E-01  0.88935034370E+00  0.88000000000E+00 0.  1.
        -11    1    4    4    0    0  0.45154918278E-01  0.88939734733E-01  0.19668591592E-01  0.10166787927E+00  0.51100000000E-03 0.  1.
         11    1    4    4    0    0  0.72365167906E-02  0.24335147795E-01  0.14611333630E-01  0.29297078095E-01  0.51100000000E-03 0. -1.
</event>
<event>
 8    1  0.1174597E+005  0.1043930E+01  0.7957747E-01            NaN
         13   -1    0    0    0    0  0.00000000000E+00  0.00000000000E+00  0.74505805969E-08  0.10566000000E+00  0.10566000000E+00 0.  1.
     999900   -1    0    0    0    0 -0.00000000000E+00 -0.00000000000E+00 -0.74505805969E-08  0.93827000000E+00  0.93827000000E+00 0. -1.
     999902    2    1    2    0    0 -0.10575574459E-01  0.18053846073E-01  0.24656045688E-01  0.10115926420E+01  0.10110756493E+01 0.  0.
     999903    2    3    3    0    0 -0.98655661530E-02  0.57959390818E-01  0.11008856626E+00  0.12655497490E+00  0.20977341858E-01 0.  0.
         14    1    1    2    0    0  0.10575574459E-01 -0.18053846073E-01 -0.24656045688E-01  0.32337357995E-01  0.00000000000E+00 0. -1.
     999901    1    3    3    0    0 -0.71000830594E-03 -0.39905544745E-01 -0.85432520577E-01  0.88503766710E+00  0.88000000000E+00 0. -1.
        -11    1    4    4    0    0  0.28029535333E-02  0.32488013009E-01  0.71731317323E-01  0.78797021160E-01  0.51100000000E-03 0.  1.
         11    1    4    4    0    0 -0.12668519686E-01  0.25471377808E-01  0.38357248942E-01  0.47757953745E-01  0.51100000000E-03 0. -1.
</event>
<event>
 8    1  0.1138737E+005  0.1043930E+01  0.7957747E-01            NaN
         13   -1    0    0    0    0  0.00000000000E+00  0.00000000000E+00  0.74505805969E-08  0.10566000000E+00  0.10566000000E+00 0.  1.
     999900   -1    0    0    0    0 -0.00000000000E+00 -0.00000000000E+00 -0.74505805969E-08  0.93827000000E+00  0.93827000000E+00 0.  1.
     999902    2    1    2    0    0 -0.72878691442E-04 -0.16540051700E-01 -0.17593454335E-01  0.10197823654E+01  0.10194964269E+01 0.  0.
     999903    2    3    3    0    0  0.10958990580E+00  0.52610487404E-01  0.36552841342E-01  0.12863729040E+00  0.20823818889E-01 0.  0.
         14    1    1    2    0    0  0.72878691442E-04  0.16540051700E-01  0.17593454335E-01  0.24147634604E-01  0.00000000000E+00 0.  1.
     999901    1    3    3    0    0 -0.10966278449E+00 -0.69150539104E-01 -0.54146295677E-01  0.89114507500E+00  0.88000000000E+00 0.  1.
        -11    1    4    4    0    0  0.72844649334E-01  0.23810066270E-01  0.22101820619E-01  0.79762232843E-01  0.51100000000E-03 0.  1.
         11    1    4    4    0    0  0.36745256461E-01  0.28800421134E-01  0.14451020724E-01  0.48875057554E-01  0.51100000000E-03 0. -1.
</event>
<event>
 8    1  0.1138737E+005  0.1043930E+01  0.7957747E-01            NaN
         13   -1    0    0    0    0  0.00000000000E+00  0.00000000000E+00  0.74505805969E-08  0.10566000000E+00  0.10566000000E+00 0.  1.
     999900   -1    0    0    0    0 -0.00000000000E+00 -0.00000000000E+00 -0.74505805969E-08  0.93827000000E+00  0.93827000000E+00 0.  1.
     999902    2    1    2    0    0 -0.21708961614E-01  0.49561086980E-02  0.54953597774E-02  0.10209944161E+01  0.10207367715E+01 0.  0.
     999903    2    3    3    0    0 -0.40300181131E-01  0.11543671045E+00  0.47641602391E-01  0.13289087343E+00  0.20988645614E-01 0.  0.
         14    1    1    2    0    0  0.21708961614E-01 -0.49561086980E-02 -0.54953597774E-02  0.22935583857E-01  0.00000000000E+00 0.  1.
     999901    1    3    3    0    0  0.18591219517E-01 -0.11048060175E+00 -0.42146242613E-01  0.88810354271E+00  0.88000000000E+00 0. -1.
        -11    1    4    4    0    0 -0.51328445395E-02  0.43941617952E-01  0.20009159421E-01  0.48557589139E-01  0.51100000000E-03 0. -1.
         11    1    4    4    0    0 -0.35167336592E-01  0.71495092499E-01  0.27632442969E-01  0.84333284294E-01  0.51100000000E-03 0.  1.
</event>
<event>
 8    1  0.1138737E+005  0.1043930E+01  0.7957747E-01            NaN
         13   -1    0    0    0    0  0.00000000000E+00  0.00000000000E+00  0.74505805969E-08  0.10566000000E+00  0.10566000000E+00 0. -1.
     999900   -1    0    0    0    0 -0.00000000000E+00 -0.00000000000E+00 -0.74505805969E-08  0.93827000000E+00  0.93827000000E+00 0. -1.
     999902    2    1    2    0    0 -0.16905933558E-01 -0.14261354990E-01 -0.80717359321E-02  0.10203853667E+01  0.10201136931E+01 0.  0.
     999903    2    3    3    0    0 -0.93541733792E-01 -0.86151455363E-01  0.33999670844E-01  0.13313611443E+00  0.19927822921E-01 0.  0.
         14    1    1    2    0    0  0.16905933558E-01  0.14261354990E-01  0.80717359321E-02  0.23544633286E-01  0.00000000000E+00 0. -1.
     999901    1    3    3    0    0  0.76635800234E-01  0.71890100373E-01 -0.42071406776E-01  0.88724925228E+00  0.88000000000E+00 0.  1.
        -11    1    4    4    0    0 -0.67414905391E-01 -0.73297258643E-01  0.27085823271E-01  0.10320445987E+00  0.51100000000E-03 0. -1.
         11    1    4    4    0    0 -0.26126828401E-01 -0.12854196720E-01  0.69138475724E-02  0.29931654563E-01  0.51100000000E-03 0.  1.
</event>
<event>
 8    1  0.1138737E+005  0.1043930E+01  0.7957747E-01            NaN
         13   -1    0    0    0    0  0.00000000000E+00  0.00000000000E+00  0.74505805969E-08  0.10566000000E+00  0.10566000000E+00 0.  1.
     999900   -1    0    0    0    0 -0.00000000000E+00 -0.00000000000E+00 -0.74505805969E-08  0.93827000000E+00  0.93827000000E+00 0. -1.
     999902    2    1    2    0    0  0.30637757275E-02  0.22111878526E-01 -0.70511541579E-02  0.10205197316E+01  0.10202511857E+01 0.  0.
     999903    2    3    3    0    0  0.48594296407E-01 -0.92064158817E-01 -0.74339371277E-01  0.12943224989E+00  0.19726890482E-01 0.  0.
         14    1    1    2    0    0 -0.30637757275E-02 -0.22111878526E-01  0.70511541579E-02  0.23410268444E-01  0.00000000000E+00 0.  1.
     999901    1    3    3    0    0 -0.45530520680E-01  0.11417603734E+00  0.67288217119E-01  0.89108748166E+00  0.88000000000E+00 0.  1.
        -11    1    4    4    0    0  0.32419176887E-01 -0.49209096386E-01 -0.32021881130E-01  0.67068622986E-01  0.51100000000E-03 0. -1.
         11    1    4    4    0    0  0.16175119521E-01 -0.42855062431E-01 -0.42317490146E-01  0.62363626905E-01  0.51100000000E-03 0.  1.
</event>
<event>
 8    1  0.1138737E+005  0.1043930E+01  0.7957747E-01            NaN
         13   -1    0    0    0    0  0.00000000000E+00  0.00000000000E+00  0.74505805969E-08  0.10566000000E+00  0.10566000000E+00 0. -1.
     999900   -1    0    0    0    0 -0.00000000000E+00 -0.00000000000E+00 -0.74505805969E-08  0.93827000000E+00  0.93827000000E+00 0. -1.
     999902    2    1    2    0    0 -0.17601527930E-01 -0.10756790683E-01 -0.11146261329E-01  0.10204830072E+01  0.10202136082E+01 0.  0.
     999903    2    3    3    0    0  0.95393339476E-02  0.68887445165E-01 -0.10927928340E+00  0.13103940541E+00  0.19821326787E-01 0.  0.
         14    1    1    2    0    0  0.17601527930E-01  0.10756790683E-01  0.11146261329E-01  0.23446992832E-01  0.00000000000E+00 0.  1.
     999901    1    3    3    0    0 -0.27140861877E-01 -0.79644235848E-01  0.98133022073E-01  0.88944360176E+00  0.88000000000E+00 0.  1.
        -11    1    4    4    0    0  0.72820458232E-02  0.31527436725E-01 -0.33834743600E-01  0.46819423889E-01  0.51100000000E-03 0. -1.
         11    1    4    4    0    0  0.22572881243E-02  0.37360008440E-01 -0.75444539803E-01  0.84219981521E-01  0.51100000000E-03 0.  1.
</event>
<event>
 8    1  0.1138737E+005  0.1043930E+01  0.7957747E-01            NaN
         13   -1    0    0    0    0  0.00000000000E+00  0.00000000000E+00  0.74505805969E-08  0.10566000000E+00  0.10566000000E+00 0. -1.
     999900   -1    0    0    0    0 -0.00000000000E+00 -0.00000000000E+00 -0.74505805969E-08  0.93827000000E+00  0.93827000000E+00 0.  1.
     999902    2    1    2    0    0  0.17161657874E-01 -0.15713447246E-01  0.16628178419E-02  0.10206019077E+01  0.10203352656E+01 0.  0.
     999903    2    3    3    0    0  0.13000813608E+00  0.74655857480E-02  0.16373349674E-01  0.13297135680E+00  0.21341151125E-01 0.  0.
         14    1    1    2    0    0 -0.17161657874E-01  0.15713447246E-01 -0.16628178419E-02  0.23328092260E-01  0.00000000000E+00 0.  1.
     999901    1    3    3    0    0 -0.11284647821E+00 -0.23179032994E-01 -0.14710531832E-01  0.88763055094E+00  0.88000000000E+00 0.  1.
        -11    1    4    4    0    0  0.23217753932E-01  0.96403303211E-02  0.33123204524E-02  0.25362031743E-01  0.51100000000E-03 0.  1.
         11    1    4    4    0    0  0.10679038215E+00 -0.21747445731E-02  0.13061029222E-01  0.10760932506E+00  0.51100000000E-03 0. -1.
</event>
<event>
 8    1  0.1138737E+005  0.1043930E+01  0.7957747E-01            NaN
         13   -1    0    0    0    0  0.00000000000E+00  0.00000000000E+00  0.74505805969E-08  0.10566000000E+00  0.10566000000E+00 0. -1.
     999900   -1    0    0    0    0 -0.00000000000E+00 -0.00000000000E+00 -0.74505805969E-08  0.93827000000E+00  0.93827000000E+00 0. -1.
     999902    2    1    2    0    0 -0.24533698439E-01  0.66398617100E-03  0.58933068055E-02  0.10186896691E+01  0.10183769281E+01 0.  0.
     999903    2    3    3    0    0 -0.52025886868E-01  0.11608641347E+00 -0.19975176971E-01  0.13035001811E+00  0.20232924341E-01 0.  0.
         14    1    1    2    0    0  0.24533698439E-01 -0.66398617100E-03 -0.58933068055E-02  0.25240330858E-01  0.00000000000E+00 0.  1.
     999901    1    3    3    0    0  0.27492188429E-01 -0.11542242730E+00  0.25868483776E-01  0.88833965104E+00  0.88000000000E+00 0.  1.
        -11    1    4    4    0    0 -0.40825315167E-01  0.81427349691E-01 -0.22524024997E-01  0.93833429327E-01  0.51100000000E-03 0.  1.
         11    1    4    4    0    0 -0.11200571701E-01  0.34659063784E-01  0.25488480264E-02  0.36516588779E-01  0.51100000000E-03 0. -1.
</event>
<event>
 8    1  0.1138737E+005  0.1043930E+01  0.7957747E-01            NaN
         13   -1    0    0    0    0  0.00000000000E+00  0.00000000000E+00  0.74505805969E-08  0.10566000000E+00  0.10566000000E+00 0. -1.
     999900   -1    0    0    0    0 -0.00000000000E+00 -0.00000000000E+00 -0.74505805969E-08  0.93827000000E+00  0.93827000000E+00 0.  1.
     999902    2    1    2    0    0  0.62772458332E-02  0.21224649056E-01  0.87625923160E-02  0.10201251146E+01  0.10198473302E+01 0.  0.
     999903    2    3    3    0    0  0.26019283072E-01  0.41879604047E-01  0.12137389357E+00  0.13248910795E+00  0.19769606966E-01 0.  0.
         14    1    1    2    0    0 -0.62772458332E-02 -0.21224649056E-01 -0.87625923160E-02  0.23804885358E-01  0.00000000000E+00 0.  1.
     999901    1    3    3    0    0 -0.19742037239E-01 -0.20654954991E-01 -0.11261130125E+00  0.88763600669E+00  0.88000000000E+00 0.  1.
        -11    1    4    4    0    0  0.90000046904E-02  0.32401125580E-01  0.76467647266E-01  0.83536789636E-01  0.51100000000E-03 0.  1.
         11    1    4    4    0    0  0.17019278381E-01  0.94784784675E-02  0.44906246302E-01  0.48952318317E-01  0.51100000000E-03 0. -1.
</event>
<event>
 8    1  0.1138737E+005  0.1043930E+01  0.7957747E-01            NaN
         13   -1    0    0    0    0  0.00000000000E+00  0.00000000000E+00  0.74505805969E-08  0.10566000000E+00  0.10566000000E+00 0.  1.
     999900   -1    0    0    0    0 -0.00000000000E+00 -0.00000000000E+00 -0.74505805969E-08  0.93827000000E+00  0.93827000000E+00 0. -1.
     999902    2    1    2    0    0  0.17932930642E-01  0.95731020349E-02  0.12979880687E-01  0.10198113021E+01  0.10195260567E+01 0.  0.
     999903    2    3    3    0    0 -0.69338796325E-01 -0.90916682507E-01  0.55686471557E-01  0.12877908946E+00  0.20232620533E-01 0.  0.
         14    1    1    2    0    0 -0.17932930642E-01 -0.95731020349E-02 -0.12979880687E-01  0.24118697863E-01  0.00000000000E+00 0. -1.
     999901    1    3    3    0    0  0.87271726967E-01  0.10048978454E+00 -0.42706590871E-01  0.89103221268E+00  0.88000000000E+00 0.  1.
        -11    1    4    4    0    0 -0.42178522423E-01 -0.54520095312E-01  0.44355964503E-01  0.81970612140E-01  0.51100000000E-03 0.  1.
         11    1    4    4    0    0 -0.27160273902E-01 -0.36396587195E-01  0.11330507055E-01  0.46808477320E-01  0.51100000000E-03 0. -1.
</event>
<event>
 8    1  0.1138737E+005  0.1043930E+01  0.7957747E-01            NaN
         13   -1    0    0    0    0  0.00000000000E+00  0.00000000000E+00  0.74505805969E-08  0.10566000000E+00  0.10566000000E+00 0.  1.
     999900   -1    0    0    0    0 -0.00000000000E+00 -0.00000000000E+00 -0.74505805969E-08  0.93827000000E+00  0.93827000000E+00 0.  1.
     999902    2    1    2    0    0 -0.51353330550E-02  0.22358522552E-01 -0.23964908000E-02  0.10208644771E+01  0.10206038714E+01 0.  0.
     999903    2    3    3    0    0  0.36564489195E-01 -0.51752388043E-01 -0.11166161943E+00  0.13003892151E+00  0.20652658766E-01 0.  0.
         14    1    1    2    0    0  0.51353330550E-02 -0.22358522552E-01  0.23964908000E-02  0.23065522852E-01  0.00000000000E+00 0.  1.
     999901    1    3    3    0    0 -0.41699822250E-01  0.74110910595E-01  0.10926512863E+00  0.89082555564E+00  0.88000000000E+00 0.  1.
        -11    1    4    4    0    0  0.18838709268E-01 -0.32719032959E-01 -0.46651361501E-01  0.60017020382E-01  0.51100000000E-03 0.  1.
         11    1    4    4    0    0  0.17725779927E-01 -0.19033355084E-01 -0.65010257933E-01  0.70021901126E-01  0.51100000000E-03 0. -1.
</event>
<event>
 8    1  0.1138737E+005  0.1043930E+01  0.7957747E-01            NaN
         13   -1    0    0    0    0  0.00000000000E+00  0.00000000000E+00  0.74505805969E-08  0.10566000000E+00  0.10566000000E+00 0. -1.
     999900   -1    0    0    0    0 -0.00000000000E+00 -0.00000000000E+00 -0.74505805969E-08  0.93827000000E+00  0.93827000000E+00 0.  1.
     999902    2    1    2    0    0 -0.31376570760E-02  0.24009636469E-01  0.50734309041E-02  0.10191904116E+01  0.10188901058E+01 0.  0.
     999903    2    3    3    0    0 -0.98062081210E-02  0.99166146569E-01 -0.83009948513E-01  0.13158033257E+00  0.22195630751E-01 0.  0.
         14    1    1    2    0    0  0.31376570760E-02 -0.24009636469E-01 -0.50734309041E-02  0.24739588445E-01  0.00000000000E+00 0. -1.
     999901    1    3    3    0    0  0.66685510450E-02 -0.75156510100E-01  0.88083379417E-01  0.88761007898E+00  0.88000000000E+00 0. -1.
        -11    1    4    4    0    0 -0.91031610100E-02  0.20512281008E-01 -0.26486761370E-01  0.34719315394E-01  0.51100000000E-03 0.  1.
         11    1    4    4    0    0 -0.70304711092E-03  0.78653865561E-01 -0.56523187143E-01  0.96861017178E-01  0.51100000000E-03 0. -1.
</event>
<event>
 8    1  0.1138737E+005  0.1043930E+01  0.7957747E-01            NaN
         13   -1    0    0    0    0  0.00000000000E+00  0.00000000000E+00  0.74505805969E-08  0.10566000000E+00  0.10566000000E+00 0.  1.
     999900   -1    0    0    0    0 -0.00000000000E+00 -0.00000000000E+00 -0.74505805969E-08  0.93827000000E+00  0.93827000000E+00 0.  1.
     999902    2    1    2    0    0  0.13700271414E-01 -0.20775442541E-01 -0.23762922396E-02  0.10189307357E+01  0.10186240136E+01 0.  0.
     999903    2    3    3    0    0 -0.75574822756E-01 -0.10432438230E+00 -0.52537399208E-02  0.13047209995E+00  0.20005911748E-01 0.  0.
         14    1    1    2    0    0 -0.13700271414E-01  0.20775442541E-01  0.23762922396E-02  0.24999264277E-01  0.00000000000E+00 0.  1.
     999901    1    3    3    0    0  0.89275094170E-01  0.83548939762E-01  0.28774476812E-02  0.88845863577E+00  0.88000000000E+00 0.  1.
        -11    1    4    4    0    0 -0.29583215730E-01 -0.26726051830E-01  0.23957399487E-02  0.39943074372E-01  0.51100000000E-03 0.  1.
         11    1    4    4    0    0 -0.45991607026E-01 -0.77598330472E-01 -0.76494798695E-02  0.90529025578E-01  0.51100000000E-03 0. -1.
</event>
<event>
 7    1  0.1138737E+005  0.1043930E+01  0.7957747E-01            NaN
         13   -1    0    0    0    0  0.00000000000E+00  0.00000000000E+00  0.74505805969E-08  0.10566000000E+00  0.10566000000E+00 0.  1.
     999900   -1    0    0    0    0 -0.00000000000E+00 -0.00000000000E+00 -0.74505805969E-08  0.93827000000E+00  0.93827000000E+00 0.  1.
     999903    2    1    2    0    0 -0.72354470911E-01  0.41213209249E-01  0.76894031278E-01  0.11551692455E+00  0.22310753764E-01 0.  0.
         14    1    1    2    0    0  0.40602233655E-01 -0.17282610210E-01  0.41551848525E-03  0.44129385324E-01  0.00000000000E+00 0.  1.
     999901    1    1    2    0    0  0.31752237255E-01 -0.23930599039E-01 -0.77309549763E-01  0.88428369013E+00  0.88000000000E+00 0.  1.
        -11    1    3    3    0    0 -0.22639042987E-01  0.17932544418E-02  0.18720466824E-01  0.29435676109E-01  0.51100000000E-03 0. -1.
         11    1    3    3    0    0 -0.49715427924E-01  0.39419954808E-01  0.58173564454E-01  0.86081248440E-01  0.51100000000E-03 0.  1.
</event>
<event>
 8    1  0.1138737E+005  0.1043930E+01  0.7957747E-01            NaN
         13   -1    0    0    0    0  0.00000000000E+00  0.00000000000E+00  0.74505805969E-08  0.10566000000E+00  0.10566000000E+00 0.  1.
     999900   -1    0    0    0    0 -0.00000000000E+00 -0.00000000000E+00 -0.74505805969E-08  0.93827000000E+00  0.93827000000E+00 0.  1.
     999902    2    1    2    0    0 -0.95857853135E-02  0.13789921736E-01 -0.18033288685E-01  0.10192875829E+01  0.10189896603E+01 0.  0.
     999903    2    3    3    0    0 -0.96297437150E-01 -0.60927227132E-01 -0.61574880601E-01  0.13080717614E+00  0.18268223827E-01 0.  0.
         14    1    1    2    0    0  0.95857853135E-02 -0.13789921736E-01  0.18033288685E-01  0.24642417137E-01  0.00000000000E+00 0.  1.
     999901    1    3    3    0    0  0.86711651836E-01  0.74717148867E-01  0.43541591916E-01  0.88848040672E+00  0.88000000000E+00 0. -1.
        -11    1    4    4    0    0 -0.32322152407E-01 -0.15757999643E-01 -0.28092457585E-01  0.45634234771E-01  0.51100000000E-03 0.  1.
         11    1    4    4    0    0 -0.63975284743E-01 -0.45169227489E-01 -0.33482423016E-01  0.85172941372E-01  0.51100000000E-03 0. -1.
</event>
<event>
 8    1  0.1138737E+005  0.1043930E+01  0.7957747E-01            NaN
         13   -1    0    0    0    0  0.00000000000E+00  0.00000000000E+00  0.74505805969E-08  0.10566000000E+00  0.10566000000E+00 0. -1.
     999900   -1    0    0    0    0 -0.00000000000E+00 -0.00000000000E+00 -0.74505805969E-08  0.93827000000E+00  0.93827000000E+00 0.  1.
     999902    2    1    2    0    0  0.20557925493E-01 -0.68304362867E-02  0.95685991130E-02  0.10202479129E+01  0.10199730205E+01 0.  0.
     999903    2    3    3    0    0  0.23379232701E-01  0.77620205012E-01 -0.98917567158E-01  0.12956889167E+00  0.20782873905E-01 0.  0.
         14    1    1    2    0    0 -0.20557925493E-01  0.68304362867E-02 -0.95685991130E-02  0.23682087101E-01  0.00000000000E+00 0.  1.
     999901    1    3    3    0    0 -0.28213072080E-02 -0.84450641299E-01  0.10848616627E+00  0.89067902123E+00  0.88000000000E+00 0. -1.
        -11    1    4    4    0    0  0.13539230216E-01  0.20801616097E-01 -0.40359528165E-01  0.47383231441E-01  0.51100000000E-03 0. -1.
         11    1    4    4    0    0  0.98400024849E-02  0.56818588915E-01 -0.58558038993E-01  0.82185660226E-01  0.51100000000E-03 0.  1.
</event>
<event>
 8    1  0.1138737E+005  0.1043930E+01  0.7957747E-01            NaN
         13   -1    0    0    0    0  0.00000000000E+00  0.00000000000E+00  0.74505805969E-08  0.10566000000E+00  0.10566000000E+00 0. -1.
     999900   -1    0    0    0    0 -0.00000000000E+00 -0.00000000000E+00 -0.74505805969E-08  0.93827000000E+00  0.93827000000E+00 0. -1.
     999902    2    1    2    0    0  0.16139787143E-02 -0.24902927486E-01 -0.35496620065E-02  0.10187236352E+01  0.10184117459E+01 0.  0.
     999903    2    3    3    0    0 -0.57038841438E-01  0.10757019088E+00 -0.28183596232E-01  0.12653749371E+00  0.19815317763E-01 0.  0.
         14    1    1    2    0    0 -0.16139787143E-02  0.24902927486E-01  0.35496620065E-02  0.25206364772E-01  0.00000000000E+00 0.  1.
     999901    1    3    3    0    0  0.58652820153E-01 -0.13247311837E+00  0.24633934225E-01  0.89218614152E+00  0.88000000000E+00 0.  1.
        -11    1    4    4    0    0 -0.40063730993E-01  0.79356093906E-01 -0.11551780273E-01  0.89644837719E-01  0.51100000000E-03 0.  1.
         11    1    4    4    0    0 -0.16975110445E-01  0.28214096979E-01 -0.16631815959E-01  0.36892655991E-01  0.51100000000E-03 0. -1.
</event>
<event>
 8    1  0.1138737E+005  0.1043930E+01  0.7957747E-01            NaN
         13   -1    0    0    0    0  0.00000000000E+00  0.00000000000E+00  0.74505805969E-08  0.10566000000E+00  0.10566000000E+00 0.  1.
     999900   -1    0    0    0    0 -0.00000000000E+00 -0.00000000000E+00 -0.74505805969E-08  0.93827000000E+00  0.93827000000E+00 0.  1.
     999902    2    1    2    0    0 -0.20362644798E-01  0.68405386220E-02 -0.90814731013E-02  0.10206082628E+01  0.10203417676E+01 0.  0.
     999903    2    3    3    0    0 -0.18198015969E-01  0.12886581827E+00 -0.81890852773E-02  0.13218513679E+00  0.21639832910E-01 0.  0.
         14    1    1    2    0    0  0.20362644798E-01 -0.68405386220E-02  0.90814731013E-02  0.23321737189E-01  0.00000000000E+00 0.  1.
     999901    1    3    3    0    0 -0.21646288293E-02 -0.12202527964E+00 -0.89238782397E-03  0.88842312602E+00  0.88000000000E+00 0. -1.
        -11    1    4    4    0    0 -0.10628550563E-01  0.79611266089E-01  0.54894068208E-02  0.80506611428E-01  0.51100000000E-03 0.  1.
         11    1    4    4    0    0 -0.75694654052E-02  0.49254552178E-01 -0.13678492098E-01  0.51678525364E-01  0.51100000000E-03 0. -1.
</event>
<event>
 8    1  0.1138737E+005  0.1043930E+01  0.7957747E-01            NaN
         13   -1    0    0    0    0  0.00000000000E+00  0.00000000000E+00  0.74505805969E-08  0.10566000000E+00  0.10566000000E+00 0.  1.
     999900   -1    0    0    0    0 -0.00000000000E+00 -0.00000000000E+00 -0.74505805969E-08  0.93827000000E+00  0.93827000000E+00 0. -1.
     999902    2    1    2    0    0  0.21912132035E-01  0.65388606592E-02  0.42745343411E-02  0.10206669419E+01  0.10204018014E+01 0.  0.
     999903    2    3    3    0    0  0.37159638227E-03  0.70937081691E-01 -0.10825498195E+00  0.13090629003E+00  0.19624169026E-01 0.  0.
         14    1    1    2    0    0 -0.21912132035E-01 -0.65388606592E-02 -0.42745343411E-02  0.23263058116E-01  0.00000000000E+00 0. -1.
     999901    1    3    3    0    0  0.21540535653E-01 -0.64398221032E-01  0.11252951629E+00  0.88976065185E+00  0.88000000000E+00 0.  1.
        -11    1    4    4    0    0  0.60567763646E-02  0.19810371298E-01 -0.20282569292E-01  0.28996190939E-01  0.51100000000E-03 0. -1.
         11    1    4    4    0    0 -0.56851799824E-02  0.51126710393E-01 -0.87972412659E-01  0.10191009909E+00  0.51100000000E-03 0.  1.
</event>
<event>
 8    1  0.1138737E+005  0.1043930E+01  0.7957747E-01            NaN
         13   -1    0    0    0    0  0.00000000000E+00  0.00000000000E+00  0.74505805969E-08  0.10566000000E+00  0.10566000000E+00 0. -1.
     999900   -1    0    0    0    0 -0.00000000000E+00 -0.00000000000E+00 -0.74505805969E-08  0.93827000000E+00  0.93827000000E+00 0.  1.
     999902    2    1    2    0    0 -0.15440455674E-01  0.98203856275E-02  0.15232858473E-01  0.10201205980E+01  0.10198427069E+01 0.  0.
     999903    2    3    3    0    0  0.14812863762E-01 -0.64773091232E-01  0.11140521632E+00  0.13122883153E+00  0.19872335567E-01 0.  0.
         14    1    1    2    0    0  0.15440455674E-01 -0.98203856275E-02 -0.15232858473E-01  0.23809401978E-01  0.00000000000E+00 0.  1.
     999901    1    3    3    0    0 -0.30253319436E-01  0.74593476860E-01 -0.96172357845E-01  0.88889176649E+00  0.88000000000E+00 0.  1.
        -11    1    4    4    0    0  0.17152031948E-01 -0.62745730727E-01  0.10999217580E+00  0.12778794459E+00  0.51100000000E-03 0.  1.
         11    1    4    4    0    0 -0.23391681860E-02 -0.20273605053E-02  0.14130405192E-02  0.34408869394E-02  0.51100000000E-03 0. -1.
</event>
<event>
 8    1  0.1138737E+005  0.1043930E+01  0.7957747E-01            NaN
         13   -1    0    0    0    0  0.00000000000E+00  0.00000000000E+00  0.74505805969E-08  0.10566000000E+00  0.10566000000E+00 0. -1.
     999900   -1    0    0    0    0 -0.00000000000E+00 -0.00000000000E+00 -0.74505805969E-08  0.93827000000E+00  0.93827000000E+00 0.  1.
     999902    2    1    2    0    0 -0.23077901084E-01  0.23295782098E-02 -0.50486308454E-02  0.10201917371E+01  0.10199155236E+01 0.  0.
     999903    2    3    3    0    0  0.25917919520E-01 -0.82830791027E-01 -0.94493565101E-01  0.13021798736E+00  0.22248862720E-01 0.  0.
         14    1    1    2    0    0  0.23077901084E-01 -0.23295782098E-02  0.50486308454E-02  0.23738262920E-01  0.00000000000E+00 0. -1.
     999901    1    3    3    0    0 -0.48995820604E-01  0.85160369237E-01  0.89444934256E-01  0.88997374972E+00  0.88000000000E+00 0. -1.
        -11    1    4    4    0    0  0.15506205542E-01 -0.26726767406E-01 -0.45525520651E-01  0.55023600916E-01  0.51100000000E-03 0.  1.
         11    1    4    4    0    0  0.10411713978E-01 -0.56104023621E-01 -0.48968044450E-01  0.75194386444E-01  0.51100000000E-03 0. -1.
</event>
<event>
 8    1  0.1138737E+005  0.1043930E+01  0.7957747E-01            NaN
         13   -1    0    0    0    0  0.00000000000E+00  0.00000000000E+00  0.74505805969E-08  0.10566000000E+00  0.10566000000E+00 0.  1.
     999900   -1    0    0    0    0 -0.00000000000E+00 -0.00000000000E+00 -0.74505805969E-08  0.93827000000E+00  0.93827000000E+00 0.  1.
     999902    2    1    2    0    0 -0.21707876909E-01  0.37791963998E-02  0.72705987010E-02  0.10207270724E+01  0.10204633165E+01 0.  0.
     999903    2    3    3    0    0 -0.84432090343E-01  0.12490043023E-01  0.97376016344E-01  0.13386226187E+00  0.33944624619E-01 0.  0.
         14    1    1    2    0    0  0.21707876909E-01 -0.37791963998E-02 -0.72705987010E-02  0.23202927634E-01  0.00000000000E+00 0.  1.
     999901    1    3    3    0    0  0.62724213434E-01 -0.87108466233E-02 -0.90105417643E-01  0.88686481049E+00  0.88000000000E+00 0.  1.
        -11    1    4    4    0    0 -0.49898812725E-01  0.30006127713E-02  0.32113969069E-01  0.59417702066E-01  0.51100000000E-03 0.  1.
         11    1    4    4    0    0 -0.34533277618E-01  0.94894302517E-02  0.65262047275E-01  0.74444559809E-01  0.51100000000E-03 0. -1.
</event>
<event>
 8    1  0.1138737E+005  0.1043930E+01  0.7957747E-01            NaN
         13   -1    0    0    0    0  0.00000000000E+00  0.00000000000E+00  0.74505805969E-08  0.10566000000E+00  0.10566000000E+00 0.  1.
     999900   -1    0    0    0    0 -0.00000000000E+00 -0.00000000000E+00 -0.74505805969E-08  0.93827000000E+00  0.93827000000E+00 0.  1.
     999902    2    1    2    0    0 -0.13854673590E-01 -0.18709278161E-01 -0.44715964155E-02  0.10202237931E+01  0.10199483339E+01 0.  0.
     999903    2    3    3    0    0  0.29464286927E-01 -0.12674015155E+00  0.14336466935E-01  0.13236065886E+00  0.19560151121E-01 0.  0.
         14    1    1    2    0    0  0.13854673590E-01  0.18709278161E-01  0.44715964155E-02  0.23706206868E-01  0.00000000000E+00 0. -1.
     999901    1    3    3    0    0 -0.43318960517E-01  0.10803087339E+00 -0.18808063351E-01  0.88786313427E+00  0.88000000000E+00 0.  1.
        -11    1    4    4    0    0  0.75426264569E-02 -0.65913396047E-01  0.13455444595E-01  0.67696211878E-01  0.51100000000E-03 0.  1.
         11    1    4    4    0    0  0.21921660470E-01 -0.60826755501E-01  0.88102234045E-03  0.64664446986E-01  0.51100000000E-03 0. -1.
</event>
<event>
 8    1  0.1138737E+005  0.1043930E+01  0.7957747E-01            NaN
         13   -1    0    0    0    0  0.00000000000E+00  0.00000000000E+00  0.74505805969E-08  0.10566000000E+00  0.10566000000E+00 0. -1.
     999900   -1    0    0    0    0 -0.00000000000E+00 -0.00000000000E+00 -0.74505805969E-08  0.93827000000E+00  0.93827000000E+00 0.  1.
     999902    2    1    2    0    0  0.21479986702E-01 -0.64368578255E-02 -0.82621471105E-02  0.10200325934E+01  0.10197526198E+01 0.  0.
     999903    2    3    3    0    0 -0.53267343437E-01 -0.97029049566E-01 -0.66088798927E-01  0.13034836277E+00  0.19259283395E-01 0.  0.
         14    1    1    2    0    0 -0.21479986702E-01  0.64368578255E-02  0.82621471105E-02  0.23897406602E-01  0.00000000000E+00 0. -1.
     999901    1    3    3    0    0  0.74747330139E-01  0.90592191740E-01  0.57826651817E-01  0.88968423063E+00  0.88000000000E+00 0. -1.
        -11    1    4    4    0    0 -0.30649846190E-01 -0.36976162614E-01 -0.24984950617E-01  0.54140175022E-01  0.51100000000E-03 0. -1.
         11    1    4    4    0    0 -0.22617497247E-01 -0.60052886952E-01 -0.41103848311E-01  0.76208187749E-01  0.51100000000E-03 0.  1.
</event>
<event>
 8    1  0.1138737E+005  0.1043930E+01  0.7957747E-01            NaN
         13   -1    0    0    0    0  0.00000000000E+00  0.00000000000E+00  0.74505805969E-08  0.10566000000E+00  0.10566000000E+00 0. -1.
     999900   -1    0    0    0    0 -0.00000000000E+00 -0.00000000000E+00 -0.74505805969E-08  0.93827000000E+00  0.93827000000E+00 0. -1.
     999902    2    1    2    0    0  0.11443163712E-01 -0.10393894158E-01  0.17388163941E-01  0.10206635590E+01  0.10203983405E+01 0.  0.
     999903    2    3    3    0    0 -0.63684411765E-01  0.59401435264E-01 -0.91753818901E-01  0.12801160386E+00  0.19595219455E-01 0.  0.
         14    1    1    2    0    0 -0.11443163712E-01  0.10393894158E-01 -0.17388163941E-01  0.23266440999E-01  0.00000000000E+00 0.  1.
     999901    1    3    3    0    0  0.75127575477E-01 -0.69795329422E-01  0.10914198284E+00  0.89265195515E+00  0.88000000000E+00 0.  1.
        -11    1    4    4    0    0 -0.43269702997E-01  0.29338934443E-01 -0.46473759480E-01  0.69950780645E-01  0.51100000000E-03 0.  1.
         11    1    4    4    0    0 -0.20414708769E-01  0.30062500821E-01 -0.45280059421E-01  0.58060823211E-01  0.51100000000E-03 0. -1.
</event>
<event>
 8    1  0.1138737E+005  0.1043930E+01  0.7957747E-01            NaN
         13   -1    0    0    0    0  0.00000000000E+00  0.00000000000E+00  0.74505805969E-08  0.10566000000E+00  0.10566000000E+00 0.  1.
     999900   -1    0    0    0    0 -0.00000000000E+00 -0.00000000000E+00 -0.74505805969E-08  0.93827000000E+00  0.93827000000E+00 0. -1.
     999902    2    1    2    0    0  0.22979883159E-01 -0.12508723687E-02  0.48087614357E-02  0.10204190685E+01  0.10201481812E+01 0.  0.
     999903    2    3    3    0    0  0.63911142710E-01  0.11340205018E+00 -0.82918610199E-02  0.13194155787E+00  0.19878646454E-01 0.  0.
         14    1    1    2    0    0 -0.22979883159E-01  0.12508723687E-02 -0.48087614357E-02  0.23510931463E-01  0.00000000000E+00 0.  1.
     999901    1    3    3    0    0 -0.40931259551E-01 -0.11465292255E+00  0.13100622456E-01  0.88847751067E+00  0.88000000000E+00 0. -1.
        -11    1    4    4    0    0  0.30088742710E-01  0.37132857000E-01 -0.82798527119E-02  0.48507716796E-01  0.51100000000E-03 0. -1.
         11    1    4    4    0    0  0.33822400001E-01  0.76269193183E-01 -0.12008308057E-04  0.83433841071E-01  0.51100000000E-03 0.  1.
</event>
<event>
 8    1  0.1138737E+005  0.1043930E+01  0.7957747E-01            NaN
         13   -1    0    0    0    0  0.00000000000E+00  0.00000000000E+00  0.74505805969E-08  0.10566000000E+00  0.10566000000E+00 0.  1.
     999900   -1    0    0    0    0 -0.00000000000E+00 -0.00000000000E+00 -0.74505805969E-08  0.93827000000E+00  0.93827000000E+00 0.  1.
     999902    2    1    2    0    0  0.22034828937E-01  0.11636550926E-01 -0.55915153228E-02  0.10183916358E+01  0.10180713707E+01 0.  0.
     999903    2    3    3    0    0 -0.11489933192E+00 -0.11011051995E-01  0.46291635691E-01  0.12600397355E+00  0.20272791478E-01 0.  0.
         14    1    1    2    0    0 -0.22034828937E-01 -0.11636550926E-01  0.55915153228E-02  0.25538364226E-01  0.00000000000E+00 0. -1.
     999901    1    3    3    0    0  0.13693416086E+00  0.22647602921E-01 -0.51883151014E-01  0.89238766222E+00  0.88000000000E+00 0. -1.
        -11    1    4    4    0    0 -0.96795791359E-01 -0.89020366586E-02  0.46532545635E-01  0.10776924610E+00  0.51100000000E-03 0.  1.
         11    1    4    4    0    0 -0.18103540560E-01 -0.21090153364E-02 -0.24090994340E-03  0.18234727448E-01  0.51100000000E-03 0. -1.
</event>
<event>
 8    1  0.1138737E+005  0.1043930E+01  0.7957747E-01            NaN
         13   -1    0    0    0    0  0.00000000000E+00  0.00000000000E+00  0.74505805969E-08  0.10566000000E+00  0.10566000000E+00 0.  1.
     999900   -1    0    0    0    0 -0.00000000000E+00 -0.00000000000E+00 -0.74505805969E-08  0.93827000000E+00  0.93827000000E+00 0.  1.
     999902    2    1    2    0    0 -0.96002023046E-02 -0.13109042633E-01 -0.17546191601E-01  0.10200159932E+01  0.10197356258E+01 0.  0.
     999903    2    3    3    0    0 -0.75776825911E-01  0.12808774849E-01 -0.10624160733E+00  0.13270660206E+00  0.20434555142E-01 0.  0.
         14    1    1    2    0    0  0.96002023046E-02  0.13109042633E-01  0.17546191601E-01  0.23914006832E-01  0.00000000000E+00 0.  1.
     999901    1    3    3    0    0  0.66176623606E-01 -0.25917817482E-01  0.88695415732E-01  0.88730939111E+00  0.88000000000E+00 0. -1.
        -11    1    4    4    0    0 -0.32372363109E-01 -0.79939701409E-03 -0.57792142376E-01  0.66248032199E-01  0.51100000000E-03 0. -1.
         11    1    4    4    0    0 -0.43404462802E-01  0.13608171863E-01 -0.48449464957E-01  0.66458569863E-01  0.51100000000E-03 0.  1.
</event>
<event>
 8    1  0.1138737E+005  0.1043930E+01  0.7957747E-01            NaN
         13   -1    0    0    0    0  0.00000000000E+00  0.00000000000E+00  0.74505805969E-08  0.10566000000E+00  0.10566000000E+00 0.  1.
     999900   -1    0    0    0    0 -0.00000000000E+00 -0.00000000000E+00 -0.74505805969E-08  0.93827000000E+00  0.93827000000E+00 0. -1.
     999902    2    1    2    0    0 -0.16659570839E-01  0.16081675141E-01  0.50708079756E-02  0.10202261043E+01  0.10199506995E+01 0.  0.
     999903    2    3    3    0    0  0.35970014427E-01 -0.11588286820E+00 -0.35541101042E-01  0.12790674386E+00  0.19346425549E-01 0.  0.
         14    1    1    2    0    0  0.16659570839E-01 -0.16081675141E-01 -0.50708079756E-02  0.23703895659E-01  0.00000000000E+00 0.  1.
     999901    1    3    3    0    0 -0.52629585266E-01  0.13196454334E+00  0.40611909018E-01  0.89231936049E+00  0.88000000000E+00 0.  1.
        -11    1    4    4    0    0  0.15781209861E-01 -0.71483963462E-01 -0.28794155677E-01  0.78666181673E-01  0.51100000000E-03 0.  1.
         11    1    4    4    0    0  0.20188804566E-01 -0.44398904733E-01 -0.67469453656E-02  0.49240562183E-01  0.51100000000E-03 0. -1.
</event>
<event>
 8    1  0.1138737E+005  0.1043930E+01  0.7957747E-01            NaN
         13   -1    0    0    0    0  0.00000000000E+00  0.00000000000E+00  0.74505805969E-08  0.10566000000E+00  0.10566000000E+00 0.  1.
     999900   -1    0    0    0    0 -0.00000000000E+00 -0.00000000000E+00 -0.74505805969E-08  0.93827000000E+00  0.93827000000E+00 0.  1.
     999902    2    1    2    0    0  0.11928340278E-01 -0.15624903652E-01 -0.15208964563E-01  0.10190757143E+01  0.10187725830E+01 0.  0.
     999903    2    3    3    0    0 -0.69880121717E-01 -0.21760121240E-01  0.10231707374E+00  0.12748015853E+00  0.20631843128E-01 0.  0.
         14    1    1    2    0    0 -0.11928340278E-01  0.15624903652E-01  0.15208964563E-01  0.24854285727E-01  0.00000000000E+00 0.  1.
     999901    1    3    3    0    0  0.81808461996E-01  0.61352175886E-02 -0.11752603831E+00  0.89159555575E+00  0.88000000000E+00 0. -1.
        -11    1    4    4    0    0 -0.53653575913E-01 -0.11798182599E-01  0.87632947754E-01  0.10342967647E+00  0.51100000000E-03 0. -1.
         11    1    4    4    0    0 -0.16226545804E-01 -0.99619386409E-02  0.14684125988E-01  0.24050482059E-01  0.51100000000E-03 0.  1.
</event>
<event>
 8    1  0.1138737E+005  0.1043930E+01  0.7957747E-01            NaN
         13   -1    0    0    0    0  0.00000000000E+00  0.00000000000E+00  0.74505805969E-08  0.10566000000E+00  0.10566000000E+00 0.  1.
     999900   -1    0    0    0    0 -0.00000000000E+00 -0.00000000000E+00 -0.74505805969E-08  0.93827000000E+00  0.93827000000E+00 0. -1.
     999902    2    1    2    0    0 -0.12596688716E-01 -0.29118462474E-02 -0.20198219254E-01  0.10199482679E+01  0.10196662913E+01 0.  0.
     999903    2    3    3    0    0 -0.40366117588E-01  0.73892312800E-01  0.95388740161E-01  0.12864003543E+00  0.18967066845E-01 0.  0.
         14    1    1    2    0    0  0.12596688716E-01  0.29118462474E-02  0.20198219254E-01  0.23981732135E-01  0.00000000000E+00 0.  1.
     999901    1    3    3    0    0  0.27769428872E-01 -0.76804159048E-01 -0.11558695941E+00  0.89130823244E+00  0.88000000000E+00 0. -1.
        -11    1    4    4    0    0 -0.83061943067E-02  0.72855757733E-02  0.21186047565E-01  0.23899418625E-01  0.51100000000E-03 0. -1.
         11    1    4    4    0    0 -0.32059923282E-01  0.66606737027E-01  0.74202692596E-01  0.10474061680E+00  0.51100000000E-03 0.  1.
</event>
<event>
 8    1  0.1138737E+005  0.1043930E+01  0.7957747E-01            NaN
         13   -1    0    0    0    0  0.00000000000E+00  0.00000000000E+00  0.74505805969E-08  0.10566000000E+00  0.10566000000E+00 0. -1.
     999900   -1    0    0    0    0 -0.00000000000E+00 -0.00000000000E+00 -0.74505805969E-08  0.93827000000E+00  0.93827000000E+00 0. -1.
     999902    2    1    2    0    0  0.15827084013E-01  0.21853105817E-02 -0.18326939217E-01  0.10196164467E+01  0.10193265177E+01 0.  0.
     999903    2    3    3    0    0  0.63633363695E-01 -0.84718981501E-01 -0.76370428115E-01  0.13214428213E+00  0.20078799982E-01 0.  0.
         14    1    1    2    0    0 -0.15827084013E-01 -0.21853105817E-02  0.18326939217E-01  0.24313553252E-01  0.00000000000E+00 0. -1.
     999901    1    3    3    0    0 -0.47806279682E-01  0.86904292082E-01  0.58043488899E-01  0.88747216461E+00  0.88000000000E+00 0. -1.
        -11    1    4    4    0    0  0.51545526450E-01 -0.55035055091E-01 -0.58556489968E-01  0.95472101811E-01  0.51100000000E-03 0.  1.
         11    1    4    4    0    0  0.12087837245E-01 -0.29683926410E-01 -0.17813938147E-01  0.36672180324E-01  0.51100000000E-03 0. -1.
</event>
<event>
 8    1  0.1138737E+005  0.1043930E+01  0.7957747E-01            NaN
         13   -1    0    0    0    0  0.00000000000E+00  0.00000000000E+00  0.74505805969E-08  0.10566000000E+00  0.10566000000E+00 0. -1.
     999900   -1    0    0    0    0 -0.00000000000E+00 -0.00000000000E+00 -0.74505805969E-08  0.93827000000E+00  0.93827000000E+00 0. -1.
     999902    2    1    2    0    0  0.82687565084E-02  0.21224730932E-01 -0.62239021711E-02  0.10203164764E+01  0.10200431920E+01 0.  0.
     999903    2    3    3    0    0  0.10121775697E-01 -0.88887819318E-01  0.89786008098E-01  0.12827045168E+00  0.19704993187E-01 0.  0.
         14    1    1    2    0    0 -0.82687565084E-02 -0.21224730932E-01  0.62239021711E-02  0.23613523574E-01  0.00000000000E+00 0.  1.
     999901    1    3    3    0    0 -0.18530191889E-02  0.11011255025E+00 -0.96009910269E-01  0.89204602475E+00  0.88000000000E+00 0. -1.
        -11    1    4    4    0    0  0.18279746169E-03 -0.23571195282E-01  0.36200765230E-01  0.43201749804E-01  0.51100000000E-03 0.  1.
         11    1    4    4    0    0  0.99389782356E-02 -0.65316624036E-01  0.53585242868E-01  0.85068701871E-01  0.51100000000E-03 0. -1.
</event>
<event>
 8    1  0.1138737E+005  0.1043930E+01  0.7957747E-01            NaN
         13   -1    0    0    0    0  0.00000000000E+00  0.00000000000E+00  0.74505805969E-08  0.10566000000E+00  0.10566000000E+00 0.  1.
     999900   -1    0    0    0    0 -0.00000000000E+00 -0.00000000000E+00 -0.74505805969E-08  0.93827000000E+00  0.93827000000E+00 0.  1.
     999902    2    1    2    0    0 -0.15214367187E-02  0.21602874237E-01 -0.90287597517E-02  0.10204668918E+01  0.10201971181E+01 0.  0.
     999903    2    3    3    0    0 -0.90282308220E-01 -0.80930802404E-01 -0.40159076578E-01  0.12953437818E+00  0.21580401830E-01 0.  0.
         14    1    1    2    0    0  0.15214367187E-02 -0.21602874237E-01  0.90287597517E-02  0.23463108226E-01  0.00000000000E+00 0.  1.
     999901    1    3    3    0    0  0.88760871502E-01  0.10253367664E+00  0.31130316827E-01  0.89093251360E+00  0.88000000000E+00 0.  1.
        -11    1    4    4    0    0 -0.47415933814E-01 -0.48086067772E-01 -0.11871416554E-01  0.68569179267E-01  0.51100000000E-03 0. -1.
         11    1    4    4    0    0 -0.42866374406E-01 -0.32844734632E-01 -0.28287660024E-01  0.60965198912E-01  0.51100000000E-03 0.  1.
</event>
<event>
 8    1  0.1138737E+005  0.1043930E+01  0.7957747E-01            NaN
         13   -1    0    0    0    0  0.00000000000E+00  0.00000000000E+00  0.74505805969E-08  0.10566000000E+00  0.10566000000E+00 0.  1.
     999900   -1    0    0    0    0 -0.00000000000E+00 -0.00000000000E+00 -0.74505805969E-08  0.93827000000E+00  0.93827000000E+00 0. -1.
     999902    2    1    2    0    0  0.16418221693E-01  0.12370678203E-01 -0.77136957701E-02  0.10219733886E+01  0.10217374977E+01 0.  0.
     999903    2    3    3    0    0 -0.11357557294E+00 -0.36871487421E-01 -0.47649441476E-01  0.13016733270E+00  0.20350623436E-01 0.  0.
         14    1    1    2    0    0 -0.16418221693E-01 -0.12370678203E-01  0.77136957701E-02  0.21956611424E-01  0.00000000000E+00 0. -1.
     999901    1    3    3    0    0  0.12999379464E+00  0.49242165624E-01  0.39935745706E-01  0.89180605588E+00  0.88000000000E+00 0.  1.
        -11    1    4    4    0    0 -0.62720519189E-01 -0.10824537561E-01 -0.20214391444E-01  0.66782609138E-01  0.51100000000E-03 0. -1.
         11    1    4    4    0    0 -0.50855053754E-01 -0.26046949860E-01 -0.27435050032E-01  0.63384723558E-01  0.51100000000E-03 0.  1.
</event>
<event>
 8    1  0.1138737E+005  0.1043930E+01  0.7957747E-01            NaN
         13   -1    0    0    0    0  0.00000000000E+00  0.00000000000E+00  0.74505805969E-08  0.10566000000E+00  0.10566000000E+00 0.  1.
     999900   -1    0    0    0    0 -0.00000000000E+00 -0.00000000000E+00 -0.74505805969E-08  0.93827000000E+00  0.93827000000E+00 0.  1.
     999902    2    1    2    0    0 -0.17789803501E-01 -0.11028548552E-01  0.10260934557E-01  0.10206192134E+01  0.10203529713E+01 0.  0.
     999903    2    3    3    0    0  0.80687832177E-01  0.67803667916E-01  0.72358057336E-01  0.12945793975E+00  0.20391323104E-01 0.  0.
         14    1    1    2    0    0  0.17789803501E-01  0.11028548552E-01 -0.10260934557E-01  0.23310786554E-01  0.00000000000E+00 0. -1.
     999901    1    3    3    0    0 -0.98477635678E-01 -0.78832216469E-01 -0.62097122779E-01  0.89116127370E+00  0.88000000000E+00 0.  1.
        -11    1    4    4    0    0  0.67033489749E-01  0.63877639719E-01  0.58052363358E-01  0.10928943049E+00  0.51100000000E-03 0. -1.
         11    1    4    4    0    0  0.13654342427E-01  0.39260281967E-02  0.14305693978E-01  0.20168509258E-01  0.51100000000E-03 0.  1.
</event>
<event>
 8    1  0.1138737E+005  0.1043930E+01  0.7957747E-01            NaN
         13   -1    0    0    0    0  0.00000000000E+00  0.00000000000E+00  0.74505805969E-08  0.10566000000E+00  0.10566000000E+00 0. -1.
     999900   -1    0    0    0    0 -0.00000000000E+00 -0.00000000000E+00 -0.74505805969E-08  0.93827000000E+00  0.93827000000E+00 0.  1.
     999902    2    1    2    0    0 -0.77530474489E-02 -0.20326005338E-01  0.95765760525E-02  0.10201609645E+01  0.10198840260E+01 0.  0.
     999903    2    3    3    0    0 -0.10737498097E+00  0.69510572556E-01 -0.93011404918E-02  0.12979502374E+00  0.19978256605E-01 0.  0.
         14    1    1    2    0    0  0.77530474489E-02  0.20326005338E-01 -0.95765760525E-02  0.23769035458E-01  0.00000000000E+00 0.  1.
     999901    1    3    3    0    0  0.99621933519E-01 -0.89836577894E-01  0.18877716544E-01  0.89036594081E+00  0.88000000000E+00 0. -1.
        -11    1    4    4    0    0 -0.61938616911E-01  0.31072428747E-01 -0.11463151610E-01  0.70239255825E-01  0.51100000000E-03 0.  1.
         11    1    4    4    0    0 -0.45436364057E-01  0.38438143809E-01  0.21620111187E-02  0.59555767910E-01  0.51100000000E-03 0. -1.
</event>
<event>
 8    1  0.1138737E+005  0.1043930E+01  0.7957747E-01            NaN
         13   -1    0    0    0    0  0.00000000000E+00  0.00000000000E+00  0.74505805969E-08  0.10566000000E+00  0.10566000000E+00 0. -1.
     999900   -1    0    0    0    0 -0.00000000000E+00 -0.00000000000E+00 -0.74505805969E-08  0.93827000000E+00  0.93827000000E+00 0.  1.
     999902    2    1    2    0    0 -0.19918193380E-01  0.67696918371E-02 -0.95863032211E-02  0.10208116012E+01  0.10205497855E+01 0.  0.
     999903    2    3    3    0    0  0.66303313594E-02 -0.83272274385E-01 -0.99549433984E-01  0.13125792390E+00  0.18447758800E-01 0.  0.
         14    1    1    2    0    0  0.19918193380E-01 -0.67696918371E-02  0.95863032211E-02  0.23118398831E-01  0.00000000000E+00 0.  1.
     999901    1    3    3    0    0 -0.26548524739E-01  0.90041966222E-01  0.89963130763E-01  0.88955367727E+00  0.88000000000E+00 0. -1.
        -11    1    4    4    0    0 -0.26427587739E-03 -0.61848245064E-01 -0.62676748782E-01  0.88056295732E-01  0.51100000000E-03 0.  1.
         11    1    4    4    0    0  0.68946072368E-02 -0.21424029321E-01 -0.36872685202E-01  0.43201628167E-01  0.51100000000E-03 0. -1.
</event>
<event>
 8    1  0.1138737E+005  0.1043930E+01  0.7957747E-01            NaN
         13   -1    0    0    0    0  0.00000000000E+00  0.00000000000E+00  0.74505805969E-08  0.10566000000E+00  0.10566000000E+00 0.  1.
     999900   -1    0    0    0    0 -0.00000000000E+00 -0.00000000000E+00 -0.74505805969E-08  0.93827000000E+00  0.93827000000E+00 0.  1.
     999902    2    1    2    0    0 -0.12790562842E-01 -0.22067350731E-02 -0.20414950781E-01  0.10197382991E+01  0.10194513035E+01 0.  0.
     999903    2    3    3    0    0 -0.10774261046E-01 -0.91474584830E-02  0.12522729291E+00  0.12773835388E+00  0.20867473800E-01 0.  0.
         14    1    1    2    0    0  0.12790562842E-01  0.22067350731E-02  0.20414950781E-01  0.24191700909E-01  0.00000000000E+00 0.  1.
     999901    1    3    3    0    0 -0.20163017964E-02  0.69407234099E-02 -0.14564224369E+00  0.89199994521E+00  0.88000000000E+00 0.  1.
        -11    1    4    4    0    0  0.10038766248E-02 -0.37657684207E-02  0.91840633224E-01  0.91924707299E-01  0.51100000000E-03 0. -1.
         11    1    4    4    0    0 -0.11778137671E-01 -0.53816900622E-02  0.33386659689E-01  0.35813646577E-01  0.51100000000E-03 0.  1.
</event>
<event>
 8    1  0.1138737E+005  0.1043930E+01  0.7957747E-01            NaN
         13   -1    0    0    0    0  0.00000000000E+00  0.00000000000E+00  0.74505805969E-08  0.10566000000E+00  0.10566000000E+00 0. -1.
     999900   -1    0    0    0    0 -0.00000000000E+00 -0.00000000000E+00 -0.74505805969E-08  0.93827000000E+00  0.93827000000E+00 0.  1.
     999902    2    1    2    0    0 -0.19916210104E-01  0.94418618284E-02 -0.84934551521E-02  0.10203091838E+01  0.10200357285E+01 0.  0.
     999903    2    3    3    0    0  0.19276006559E-01  0.93831016933E-02 -0.12809882820E+00  0.13135391010E+00  0.19619706595E-01 0.  0.
         14    1    1    2    0    0  0.19916210104E-01 -0.94418618284E-02  0.84934551521E-02  0.23620816246E-01  0.00000000000E+00 0. -1.
     999901    1    3    3    0    0 -0.39192216664E-01  0.58760135115E-04  0.11960537304E+00  0.88895527366E+00  0.88000000000E+00 0. -1.
        -11    1    4    4    0    0  0.10578600019E-01  0.13562315435E-01 -0.10358125618E+00  0.10500086157E+00  0.51100000000E-03 0. -1.
         11    1    4    4    0    0  0.86974065407E-02 -0.41792137422E-02 -0.24517572014E-01  0.26353048524E-01  0.51100000000E-03 0.  1.
</event>
<event>
 8    1  0.1138737E+005  0.1043930E+01  0.7957747E-01            NaN
         13   -1    0    0    0    0  0.00000000000E+00  0.00000000000E+00  0.74505805969E-08  0.10566000000E+00  0.10566000000E+00 0.  1.
     999900   -1    0    0    0    0 -0.00000000000E+00 -0.00000000000E+00 -0.74505805969E-08  0.93827000000E+00  0.93827000000E+00 0.  1.
     999902    2    1    2    0    0 -0.20649327732E-01 -0.36761090108E-02 -0.11683458531E-01  0.10199214241E+01  0.10196388084E+01 0.  0.
     999903    2    3    3    0    0 -0.43154075203E-01  0.76502106577E-01  0.93362079410E-01  0.12976999038E+00  0.20221919182E-01 0.  0.
         14    1    1    2    0    0  0.20649327732E-01  0.36761090108E-02  0.11683458531E-01  0.24008575894E-01  0.00000000000E+00 0.  1.
     999901    1    3    3    0    0  0.22504747471E-01 -0.80178215588E-01 -0.10504553794E+00  0.89015143372E+00  0.88000000000E+00 0. -1.
        -11    1    4    4    0    0 -0.35932310061E-01  0.63915313033E-01  0.65358648370E-01  0.98225822390E-01  0.51100000000E-03 0.  1.
         11    1    4    4    0    0 -0.72217651416E-02  0.12586793544E-01  0.28003431040E-01  0.31544167995E-01  0.51100000000E-03 0. -1.
</event>
<event>
 8    1  0.1511736E+005  0.1043930E+01  0.7957747E-01            NaN
         13   -1    0    0    0    0  0.00000000000E+00  0.00000000000E+00  0.74505805969E-08  0.10566000000E+00  0.10566000000E+00 0.  1.
     999900   -1    0    0    0    0 -0.00000000000E+00 -0.00000000000E+00 -0.74505805969E-08  0.93827000000E+00  0.93827000000E+00 0. -1.
     999902    2    1    2    0    0 -0.18111151420E-01 -0.10823684533E-01 -0.10611136265E-01  0.10203130111E+01  0.10200396455E+01 0.  0.
     999903    2    3    3    0    0  0.12502209110E+00  0.51835663907E-02 -0.23158798816E-01  0.12851662119E+00  0.17966617275E-01 0.  0.
         14    1    1    2    0    0  0.18111151420E-01  0.10823684533E-01  0.10611136265E-01  0.23616988916E-01  0.00000000000E+00 0.  1.
     999901    1    3    3    0    0 -0.14313324252E+00 -0.16007250924E-01  0.12547662550E-01  0.89179638990E+00  0.88000000000E+00 0. -1.
        -11    1    4    4    0    0  0.51751331184E-01 -0.66556881586E-02 -0.10350408789E-01  0.53196715569E-01  0.51100000000E-03 0. -1.
         11    1    4    4    0    0  0.73270759913E-01  0.11839254549E-01 -0.12808390027E-01  0.75319905620E-01  0.51100000000E-03 0.  1.
</event>
<event>
 8    1  0.1138737E+005  0.1043930E+01  0.7957747E-01            NaN
         13   -1    0    0    0    0  0.00000000000E+00  0.00000000000E+00  0.74505805969E-08  0.10566000000E+00  0.10566000000E+00 0. -1.
     999900   -1    0    0    0    0 -0.00000000000E+00 -0.00000000000E+00 -0.74505805969E-08  0.93827000000E+00  0.93827000000E+00 0.  1.
     999902    2    1    2    0    0  0.21195850559E-01 -0.69449723179E-02  0.10090014937E-01  0.10194492908E+01  0.10191553127E+01 0.  0.
     999903    2    3    3    0    0 -0.55526152493E-01  0.69136523686E-02 -0.11276569341E+00  0.12750094459E+00  0.20234551183E-01 0.  0.
         14    1    1    2    0    0 -0.21195850559E-01  0.69449723179E-02 -0.10090014937E-01  0.24480709198E-01  0.00000000000E+00 0.  1.
     999901    1    3    3    0    0  0.76722003052E-01 -0.13858624686E-01  0.12285570835E+00  0.89194834621E+00  0.88000000000E+00 0. -1.
        -11    1    4    4    0    0 -0.45895517580E-01  0.17436929812E-02 -0.10322695347E+00  0.11298453011E+00  0.51100000000E-03 0.  1.
         11    1    4    4    0    0 -0.96306349135E-02  0.51699593874E-02 -0.95387399387E-02  0.14516414486E-01  0.51100000000E-03 0. -1.
</event>
<event>
 8    1  0.1138737E+005  0.1043930E+01  0.7957747E-01            NaN
         13   -1    0    0    0    0  0.00000000000E+00  0.00000000000E+00  0.74505805969E-08  0.10566000000E+00  0.10566000000E+00 0. -1.
     999900   -1    0    0    0    0 -0.00000000000E+00 -0.00000000000E+00 -0.74505805969E-08  0.93827000000E+00  0.93827000000E+00 0. -1.
     999902    2    1    2    0    0 -0.20409306019E-01  0.10773989912E-01  0.61210820015E-02  0.10200535205E+01  0.10197740428E+01 0.  0.
     999903    2    3    3    0    0 -0.75547082547E-01  0.96727387520E-01 -0.45190029722E-01  0.13266353226E+00  0.22224419607E-01 0.  0.
         14    1    1    2    0    0  0.20409306019E-01 -0.10773989912E-01 -0.61210820015E-02  0.23876479549E-01  0.00000000000E+00 0.  1.
     999901    1    3    3    0    0  0.55137776528E-01 -0.85953397608E-01  0.51311111723E-01  0.88738998819E+00  0.88000000000E+00 0.  1.
        -11    1    4    4    0    0 -0.19231763865E-01  0.25331984079E-01 -0.16730113715E-02  0.31853261164E-01  0.51100000000E-03 0. -1.
         11    1    4    4    0    0 -0.56315318682E-01  0.71395403441E-01 -0.43517018350E-01  0.10081027109E+00  0.51100000000E-03 0.  1.
</event>
<event>
 8    1  0.1138737E+005  0.1043930E+01  0.7957747E-01            NaN
         13   -1    0    0    0    0  0.00000000000E+00  0.00000000000E+00  0.74505805969E-08  0.10566000000E+00  0.10566000000E+00 0. -1.
     999900   -1    0    0    0    0 -0.00000000000E+00 -0.00000000000E+00 -0.74505805969E-08  0.93827000000E+00  0.93827000000E+00 0.  1.
     999902    2    1    2    0    0  0.47921243103E-02 -0.23188909177E-01  0.93285941649E-03  0.10202327387E+01  0.10199574898E+01 0.  0.
     999903    2    3    3    0    0  0.46244182926E-01  0.11343648394E+00  0.31918504507E-01  0.12818740278E+00  0.20170745115E-01 0.  0.
         14    1    1    2    0    0 -0.47921243103E-02  0.23188909177E-01 -0.93285941649E-03  0.23697261254E-01  0.00000000000E+00 0.  1.
     999901    1    3    3    0    0 -0.41452058615E-01 -0.13662539312E+00 -0.30985645090E-01  0.89204533596E+00  0.88000000000E+00 0.  1.
        -11    1    4    4    0    0  0.18516583956E-01  0.51751492158E-01  0.24398386372E-01  0.60138367126E-01  0.51100000000E-03 0.  1.
         11    1    4    4    0    0  0.27727598969E-01  0.61684991787E-01  0.75201181348E-02  0.68049035659E-01  0.51100000000E-03 0. -1.
</event>
<event>
 8    1  0.1138737E+005  0.1043930E+01  0.7957747E-01            NaN
         13   -1    0    0    0    0  0.00000000000E+00  0.00000000000E+00  0.74505805969E-08  0.10566000000E+00  0.10566000000E+00 0. -1.
     999900   -1    0    0    0    0 -0.00000000000E+00 -0.00000000000E+00 -0.74505805969E-08  0.93827000000E+00  0.93827000000E+00 0.  1.
     999902    2    1    2    0    0 -0.64442394506E-02 -0.20315970666E-01 -0.11941087052E-01  0.10194993544E+01  0.10192065920E+01 0.  0.
     999903    2    3    3    0    0  0.14221215401E-01 -0.12911212777E+00 -0.17138752790E-01  0.13254350397E+00  0.20046423399E-01 0.  0.
         14    1    1    2    0    0  0.64442394506E-02  0.20315970666E-01  0.11941087052E-01  0.24430645636E-01  0.00000000000E+00 0.  1.
     999901    1    3    3    0    0 -0.20665454852E-01  0.10879615711E+00  0.51976657377E-02  0.88695585040E+00  0.88000000000E+00 0. -1.
        -11    1    4    4    0    0 -0.48490417433E-02 -0.31893307190E-01 -0.63746795850E-02  0.32887595080E-01  0.51100000000E-03 0. -1.
         11    1    4    4    0    0  0.19070257145E-01 -0.97218820583E-01 -0.10764073205E-01  0.99655908887E-01  0.51100000000E-03 0.  1.
</event>
<event>
 8    1  0.1138737E+005  0.1043930E+01  0.7957747E-01            NaN
         13   -1    0    0    0    0  0.00000000000E+00  0.00000000000E+00  0.74505805969E-08  0.10566000000E+00  0.10566000000E+00 0. -1.
     999900   -1    0    0    0    0 -0.00000000000E+00 -0.00000000000E+00 -0.74505805969E-08  0.93827000000E+00  0.93827000000E+00 0. -1.
     999902    2    1    2    0    0  0.18598529637E-01 -0.99677450996E-02 -0.11519028869E-01  0.10198894244E+01  0.10196060459E+01 0.  0.
     999903    2    3    3    0    0 -0.39302140826E-02 -0.16563208129E-01 -0.12910063560E+00  0.13175853394E+00  0.20088571527E-01 0.  0.
         14    1    1    2    0    0 -0.18598529637E-01  0.99677450996E-02  0.11519028869E-01  0.24040575557E-01  0.00000000000E+00 0. -1.
     999901    1    3    3    0    0  0.22528743719E-01  0.65954630291E-02  0.11758160674E+00  0.88813089050E+00  0.88000000000E+00 0.  1.
        -11    1    4    4    0    0  0.39026255071E-02 -0.23176014246E-02 -0.77959797028E-01  0.78093487794E-01  0.51100000000E-03 0. -1.
         11    1    4    4    0    0 -0.78328395897E-02 -0.14245606704E-01 -0.51140838577E-01  0.53665046145E-01  0.51100000000E-03 0.  1.
</event>
<event>
 8    1  0.1138737E+005  0.1043930E+01  0.7957747E-01            NaN
         13   -1    0    0    0    0  0.00000000000E+00  0.00000000000E+00  0.74505805969E-08  0.10566000000E+00  0.10566000000E+00 0.  1.
     999900   -1    0    0    0    0 -0.00000000000E+00 -0.00000000000E+00 -0.74505805969E-08  0.93827000000E+00  0.93827000000E+00 0. -1.
     999902    2    1    2    0    0 -0.12782883043E-01 -0.35707076470E-01 -0.45737924327E-03  0.10060010321E+01  0.10052857654E+01 0.  0.
     999903    2    3    3    0    0 -0.98179833790E-01  0.34387291652E-02 -0.63707121569E-01  0.11874370575E+00  0.19757674311E-01 0.  0.
         14    1    1    2    0    0  0.12782883043E-01  0.35707076470E-01  0.45737924327E-03  0.37928967883E-01  0.00000000000E+00 0.  1.
     999901    1    3    3    0    0  0.85396950747E-01 -0.39145805635E-01  0.63249742326E-01  0.88725732637E+00  0.88000000000E+00 0.  1.
        -11    1    4    4    0    0 -0.18833587334E-01 -0.56212905665E-02 -0.18376822508E-01  0.26912295442E-01  0.51100000000E-03 0. -1.
         11    1    4    4    0    0 -0.79346246456E-01  0.90600197317E-02 -0.45330299061E-01  0.91831410303E-01  0.51100000000E-03 0.  1.
</event>
<event>
 8    1  0.1138737E+005  0.1043930E+01  0.7957747E-01            NaN
         13   -1    0    0    0    0  0.00000000000E+00  0.00000000000E+00  0.74505805969E-08  0.10566000000E+00  0.10566000000E+00 0. -1.
     999900   -1    0    0    0    0 -0.00000000000E+00 -0.00000000000E+00 -0.74505805969E-08  0.93827000000E+00  0.93827000000E+00 0.  1.
     999902    2    1    2    0    0 -0.17303399936E-01  0.33850846405E-02 -0.15074801241E-01  0.10207326708E+01  0.10204690438E+01 0.  0.
     999903    2    3    3    0    0  0.98592572022E-02 -0.12555320327E+00  0.26127727528E-01  0.12996865024E+00  0.18664942967E-01 0.  0.
         14    1    1    2    0    0  0.17303399936E-01 -0.33850846405E-02  0.15074801241E-01  0.23197329153E-01  0.00000000000E+00 0. -1.
     999901    1    3    3    0    0 -0.27162657138E-01  0.12893828791E+00 -0.41202528770E-01  0.89076402061E+00  0.88000000000E+00 0.  1.
        -11    1    4    4    0    0  0.69634644932E-02 -0.57253525725E-01  0.28381677239E-02  0.57747487934E-01  0.51100000000E-03 0. -1.
         11    1    4    4    0    0  0.28957927090E-02 -0.68299677543E-01  0.23289559804E-01  0.72221162306E-01  0.51100000000E-03 0.  1.
</event>
<event>
 8    1  0.1138737E+005  0.1043930E+01  0.7957747E-01            NaN
         13   -1    0    0    0    0  0.00000000000E+00  0.00000000000E+00  0.74505805969E-08  0.10566000000E+00  0.10566000000E+00 0. -1.
     999900   -1    0    0    0    0 -0.00000000000E+00 -0.00000000000E+00 -0.74505805969E-08  0.93827000000E+00  0.93827000000E+00 0. -1.
     999902    2    1    2    0    0  0.13005292451E-01  0.15597815589E-01  0.14351321001E-01  0.10190625535E+01  0.10187590971E+01 0.  0.
     999903    2    3    3    0    0 -0.24924830195E-01  0.89210739423E-02 -0.12315121500E+00  0.12755247472E+00  0.20064379675E-01 0.  0.
         14    1    1    2    0    0 -0.13005292451E-01 -0.15597815589E-01 -0.14351321001E-01  0.24867446539E-01  0.00000000000E+00 0.  1.
     999901    1    3    3    0    0  0.37930122646E-01  0.66767416471E-02  0.13750253600E+00  0.89151007874E+00  0.88000000000E+00 0.  1.
        -11    1    4    4    0    0 -0.23189683836E-01  0.14423133615E-01 -0.10532227406E+00  0.10880639114E+00  0.51100000000E-03 0.  1.
         11    1    4    4    0    0 -0.17351463589E-02 -0.55020596731E-02 -0.17828940939E-01  0.18746083579E-01  0.51100000000E-03 0. -1.
</event>
<event>
 8    1  0.1138737E+005  0.1043930E+01  0.7957747E-01            NaN
         13   -1    0    0    0    0  0.00000000000E+00  0.00000000000E+00  0.74505805969E-08  0.10566000000E+00  0.10566000000E+00 0.  1.
     999900   -1    0    0    0    0 -0.00000000000E+00 -0.00000000000E+00 -0.74505805969E-08  0.93827000000E+00  0.93827000000E+00 0. -1.
     999902    2    1    2    0    0 -0.17457627063E-01  0.89368794511E-02 -0.14373212426E-01  0.10196148650E+01  0.10193248977E+01 0.  0.
     999903    2    3    3    0    0  0.96123546623E-02  0.73720434433E-01  0.10397584839E+00  0.12892064520E+00  0.16806424181E-01 0.  0.
         14    1    1    2    0    0  0.17457627063E-01 -0.89368794511E-02  0.14373212426E-01  0.24315135049E-01  0.00000000000E+00 0.  1.
     999901    1    3    3    0    0 -0.27069981725E-01 -0.64783554982E-01 -0.11834906082E+00  0.89069421975E+00  0.88000000000E+00 0. -1.
        -11    1    4    4    0    0  0.20211956210E-02  0.43973633632E-01  0.48393524115E-01  0.65421403102E-01  0.51100000000E-03 0. -1.
         11    1    4    4    0    0  0.75911590413E-02  0.29746800801E-01  0.55582324278E-01  0.63499242095E-01  0.51100000000E-03 0.  1.
</event>
<event>
 8    1  0.1138737E+005  0.1043930E+01  0.7957747E-01            NaN
         13   -1    0    0    0    0  0.00000000000E+00  0.00000000000E+00  0.74505805969E-08  0.10566000000E+00  0.10566000000E+00 0.  1.
     999900   -1    0    0    0    0 -0.00000000000E+00 -0.00000000000E+00 -0.74505805969E-08  0.93827000000E+00  0.93827000000E+00 0. -1.
     999902    2    1    2    0    0  0.14374952635E-01  0.92499921538E-02 -0.14494524078E-01  0.10215181093E+01  0.10212722236E+01 0.  0.
     999903    2    3    3    0    0  0.12380536648E+00  0.30040212356E-01 -0.37292547336E-01  0.13420362240E+00  0.19740695331E-01 0.  0.
         14    1    1    2    0    0 -0.14374952635E-01 -0.92499921538E-02  0.14494524078E-01  0.22411890735E-01  0.00000000000E+00 0.  1.
     999901    1    3    3    0    0 -0.10943041384E+00 -0.20790220203E-01  0.22798023258E-01  0.88731448686E+00  0.88000000000E+00 0. -1.
        -11    1    4    4    0    0  0.30182921373E-01 -0.78588965530E-03 -0.11535495866E-01  0.32325766055E-01  0.51100000000E-03 0.  1.
         11    1    4    4    0    0  0.93622445105E-01  0.30826102012E-01 -0.25757051469E-01  0.10187785635E+00  0.51100000000E-03 0. -1.
</event>
<event>
 8    1  0.1138737E+005  0.1043930E+01  0.7957747E-01            NaN
         13   -1    0    0    0    0  0.00000000000E+00  0.00000000000E+00  0.74505805969E-08  0.10566000000E+00  0.10566000000E+00 0.  1.
     999900   -1    0    0    0    0 -0.00000000000E+00 -0.00000000000E+00 -0.74505805969E-08  0.93827000000E+00  0.93827000000E+00 0.  1.
     999902    2    1    2    0    0 -0.57571019462E-02 -0.20364999534E-01  0.11654794949E-01  0.10197698743E+01  0.10194836364E+01 0.  0.
     999903    2    3    3    0    0 -0.12684166966E-01  0.97694364494E-01 -0.78260440863E-01  0.12731777625E+00  0.19494681349E-01 0.  0.
         14    1    1    2    0    0  0.57571019462E-02  0.20364999534E-01 -0.11654794949E-01  0.24160125706E-01  0.00000000000E+00 0.  1.
     999901    1    3    3    0    0  0.69270650197E-02 -0.11805936403E+00  0.89915235812E-01  0.89245209804E+00  0.88000000000E+00 0. -1.
        -11    1    4    4    0    0 -0.99530346570E-02  0.29371935838E-01 -0.16283732224E-01  0.35031336970E-01  0.51100000000E-03 0. -1.
         11    1    4    4    0    0 -0.27311323088E-02  0.68322428655E-01 -0.61976708639E-01  0.92286439284E-01  0.51100000000E-03 0.  1.
</event>
<event>
 8    1  0.1138737E+005  0.1043930E+01  0.7957747E-01            NaN
         13   -1    0    0    0    0  0.00000000000E+00  0.00000000000E+00  0.74505805969E-08  0.10566000000E+00  0.10566000000E+00 0. -1.
     999900   -1    0    0    0    0 -0.00000000000E+00 -0.00000000000E+00 -0.74505805969E-08  0.93827000000E+00  0.93827000000E+00 0. -1.
     999902    2    1    2    0    0  0.15851015355E-01 -0.13902975615E-01  0.65303819978E-02  0.10218575441E+01  0.10216191302E+01 0.  0.
     999903    2    3    3    0    0  0.63595196284E-01 -0.10192666301E+00 -0.56258955932E-01  0.13395542267E+00  0.18590091894E-01 0.  0.
         14    1    1    2    0    0 -0.15851015355E-01  0.13902975615E-01 -0.65303819978E-02  0.22072455862E-01  0.00000000000E+00 0. -1.
     999901    1    3    3    0    0 -0.47744180929E-01  0.88023687396E-01  0.62789337929E-01  0.88790212147E+00  0.88000000000E+00 0.  1.
        -11    1    4    4    0    0  0.36850451719E-01 -0.74601695226E-01 -0.41309515916E-01  0.92898363541E-01  0.51100000000E-03 0.  1.
         11    1    4    4    0    0  0.26744744565E-01 -0.27324967785E-01 -0.14949440015E-01  0.41057059126E-01  0.51100000000E-03 0. -1.
</event>
<event>
 8    1  0.1138737E+005  0.1043930E+01  0.7957747E-01            NaN
         13   -1    0    0    0    0  0.00000000000E+00  0.00000000000E+00  0.74505805969E-08  0.10566000000E+00  0.10566000000E+00 0.  1.
     999900   -1    0    0    0    0 -0.00000000000E+00 -0.00000000000E+00 -0.74505805969E-08  0.93827000000E+00  0.93827000000E+00 0.  1.
     999902    2    1    2    0    0 -0.19294492409E-01  0.65380275840E-02 -0.93538395969E-02  0.10215130966E+01  0.10212670997E+01 0.  0.
     999903    2    3    3    0    0  0.79770867992E-01 -0.47835931892E-01  0.87038882819E-01  0.12906588247E+00  0.20750111712E-01 0.  0.
         14    1    1    2    0    0  0.19294492409E-01 -0.65380275840E-02  0.93538395969E-02  0.22416903382E-01  0.00000000000E+00 0. -1.
     999901    1    3    3    0    0 -0.99065360401E-01  0.54373959476E-01 -0.96392722416E-01  0.89244721415E+00  0.88000000000E+00 0.  1.
        -11    1    4    4    0    0  0.18719622197E-01 -0.17297195991E-01  0.34638408603E-01  0.43008112210E-01  0.51100000000E-03 0. -1.
         11    1    4    4    0    0  0.61051245795E-01 -0.30538735900E-01  0.52400474216E-01  0.86057770263E-01  0.51100000000E-03 0.  1.
</event>
<event>
 8    1  0.1138737E+005  0.1043930E+01  0.7957747E-01            NaN
         13   -1    0    0    0    0  0.00000000000E+00  0.00000000000E+00  0.74505805969E-08  0.10566000000E+00  0.10566000000E+00 0. -1.
     999900   -1    0    0    0    0 -0.00000000000E+00 -0.00000000000E+00 -0.74505805969E-08  0.93827000000E+00  0.93827000000E+00 0. -1.
     999902    2    1    2    0    0  0.21417846655E-01 -0.30870839444E-02 -0.98345110046E-02  0.10201608635E+01  0.10198839226E+01 0.  0.
     999903    2    3    3    0    0 -0.12228948601E+00  0.17255945386E-01 -0.28588275956E-01  0.12807491474E+00  0.18259469408E-01 0.  0.
         14    1    1    2    0    0 -0.21417846655E-01  0.30870839444E-02  0.98345110046E-02  0.23769136486E-01  0.00000000000E+00 0. -1.
     999901    1    3    3    0    0  0.14370733267E+00 -0.20343029331E-01  0.18753764951E-01  0.89208594878E+00  0.88000000000E+00 0. -1.
        -11    1    4    4    0    0 -0.35117713464E-01  0.11148843757E-01 -0.14308067443E-01  0.39528880973E-01  0.51100000000E-03 0.  1.
         11    1    4    4    0    0 -0.87171772546E-01  0.61071016293E-02 -0.14280208512E-01  0.88546033764E-01  0.51100000000E-03 0. -1.
</event>
<event>
 8    1  0.1153585E+005  0.1043930E+01  0.7957747E-01            NaN
         13   -1    0    0    0    0  0.00000000000E+00  0.00000000000E+00  0.74505805969E-08  0.10566000000E+00  0.10566000000E+00 0. -1.
     999900   -1    0    0    0    0 -0.00000000000E+00 -0.00000000000E+00 -0.74505805969E-08  0.93827000000E+00  0.93827000000E+00 0.  1.
     999902    2    1    2    0    0  0.29912115493E-02 -0.90322569547E-02  0.19595351144E-01  0.10221468230E+01  0.10219146838E+01 0.  0.
     999903    2    3    3    0    0 -0.85196058045E-02  0.33748717414E-01 -0.12310364230E+00  0.12955189060E+00  0.20435899745E-01 0.  0.
         14    1    1    2    0    0 -0.29912115493E-02  0.90322569547E-02 -0.19595351144E-01  0.21783176965E-01  0.00000000000E+00 0.  1.
     999901    1    3    3    0    0  0.11510817354E-01 -0.42780974368E-01  0.14269899345E+00  0.89259493244E+00  0.88000000000E+00 0. -1.
        -11    1    4    4    0    0 -0.12292164116E-01  0.12541565961E-01 -0.71582672420E-01  0.73707043674E-01  0.51100000000E-03 0.  1.
         11    1    4    4    0    0  0.37725583110E-02  0.21207151453E-01 -0.51520969884E-01  0.55844846922E-01  0.51100000000E-03 0. -1.
</event>
<event>
 8    1  0.1138737E+005  0.1043930E+01  0.7957747E-01            NaN
         13   -1    0    0    0    0  0.00000000000E+00  0.00000000000E+00  0.74505805969E-08  0.10566000000E+00  0.10566000000E+00 0. -1.
     999900   -1    0    0    0    0 -0.00000000000E+00 -0.00000000000E+00 -0.74505805969E-08  0.93827000000E+00  0.93827000000E+00 0. -1.
     999902    2    1    2    0    0  0.19523867810E-02  0.48362706472E-02 -0.27642076591E-01  0.10158001986E+01  0.10154106350E+01 0.  0.
     999903    2    3    3    0    0 -0.40555401144E-02 -0.11611928682E+00 -0.47937129469E-01  0.12727432322E+00  0.20016213206E-01 0.  0.
         14    1    1    2    0    0 -0.19523867810E-02 -0.48362706472E-02  0.27642076591E-01  0.28129801389E-01  0.00000000000E+00 0. -1.
     999901    1    3    3    0    0  0.60079268954E-02  0.12095555747E+00  0.20295052878E-01  0.88852587539E+00  0.88000000000E+00 0. -1.
        -11    1    4    4    0    0  0.31268569851E-02 -0.97293027464E-01 -0.43569597108E-01  0.10665027586E+00  0.51100000000E-03 0. -1.
         11    1    4    4    0    0 -0.71823970995E-02 -0.18826259360E-01 -0.43675323605E-02  0.20624047360E-01  0.51100000000E-03 0.  1.
</event>
<event>
 8    1  0.1138737E+005  0.1043930E+01  0.7957747E-01            NaN
         13   -1    0    0    0    0  0.00000000000E+00  0.00000000000E+00  0.74505805969E-08  0.10566000000E+00  0.10566000000E+00 0. -1.
     999900   -1    0    0    0    0 -0.00000000000E+00 -0.00000000000E+00 -0.74505805969E-08  0.93827000000E+00  0.93827000000E+00 0.  1.
     999902    2    1    2    0    0 -0.87589802528E-03  0.23223603454E-01 -0.69107352151E-02  0.10196841505E+01  0.10193958533E+01 0.  0.
     999903    2    3    3    0    0 -0.10559707448E+00  0.31804522208E-01 -0.68373106391E-01  0.13130485090E+00  0.20095084482E-01 0.  0.
         14    1    1    2    0    0  0.87589802528E-03 -0.23223603454E-01  0.69107352151E-02  0.24245849458E-01  0.00000000000E+00 0. -1.
     999901    1    3    3    0    0  0.10472117645E+00 -0.85809187537E-02  0.61462371176E-01  0.88837929964E+00  0.88000000000E+00 0. -1.
        -11    1    4    4    0    0 -0.63713886262E-01  0.14071993851E-01 -0.30098356293E-01  0.71858558892E-01  0.51100000000E-03 0. -1.
         11    1    4    4    0    0 -0.41883188218E-01  0.17732528357E-01 -0.38274750098E-01  0.59446292006E-01  0.51100000000E-03 0.  1.
</event>
<event>
 8    1  0.1138737E+005  0.1043930E+01  0.7957747E-01            NaN
         13   -1    0    0    0    0  0.00000000000E+00  0.00000000000E+00  0.74505805969E-08  0.10566000000E+00  0.10566000000E+00 0.  1.
     999900   -1    0    0    0    0 -0.00000000000E+00 -0.00000000000E+00 -0.74505805969E-08  0.93827000000E+00  0.93827000000E+00 0.  1.
     999902    2    1    2    0    0  0.21575874903E-01 -0.63151047141E-02 -0.27126037198E-02  0.10212858585E+01  0.10210347926E+01 0.  0.
     999903    2    3    3    0    0  0.48091051285E-01 -0.59880605165E-01 -0.10690592955E+00  0.13312564403E+00  0.19877707055E-01 0.  0.
         14    1    1    2    0    0 -0.21575874903E-01  0.63151047141E-02  0.27126037198E-02  0.22644141501E-01  0.00000000000E+00 0. -1.
     999901    1    3    3    0    0 -0.26515176383E-01  0.53565500451E-01  0.10419332583E+00  0.88816021447E+00  0.88000000000E+00 0. -1.
        -11    1    4    4    0    0  0.40998914358E-01 -0.36851313640E-01 -0.77423135871E-01  0.95044901939E-01  0.51100000000E-03 0. -1.
         11    1    4    4    0    0  0.70921369274E-02 -0.23029291525E-01 -0.29482793676E-01  0.38080742092E-01  0.51100000000E-03 0.  1.
</event>
<event>
 8    1  0.1138737E+005  0.1043930E+01  0.7957747E-01            NaN
         13   -1    0    0    0    0  0.00000000000E+00  0.00000000000E+00  0.74505805969E-08  0.10566000000E+00  0.10566000000E+00 0.  1.
     999900   -1    0    0    0    0 -0.00000000000E+00 -0.00000000000E+00 -0.74505805969E-08  0.93827000000E+00  0.93827000000E+00 0.  1.
     999902    2    1    2    0    0 -0.22780549836E-01  0.16293900449E-02  0.53267307647E-02  0.10204782959E+01  0.10202087875E+01 0.  0.
     999903    2    3    3    0    0 -0.20885664064E-01  0.85693937599E-01  0.95918800606E-01  0.13184037087E+00  0.20045078635E-01 0.  0.
         14    1    1    2    0    0  0.22780549836E-01 -0.16293900449E-02 -0.53267307647E-02  0.23451704061E-01  0.00000000000E+00 0.  1.
     999901    1    3    3    0    0 -0.18948857714E-02 -0.84064547555E-01 -0.90592069841E-01  0.88863792507E+00  0.88000000000E+00 0.  1.
        -11    1    4    4    0    0 -0.11629438294E-01  0.41744216631E-01  0.32700950077E-01  0.54290300368E-01  0.51100000000E-03 0. -1.
         11    1    4    4    0    0 -0.92562257706E-02  0.43949720968E-01  0.63217850529E-01  0.77550070505E-01  0.51100000000E-03 0.  1.
</event>
<event>
 8    1  0.1138737E+005  0.1043930E+01  0.7957747E-01            NaN
         13   -1    0    0    0    0  0.00000000000E+00  0.00000000000E+00  0.74505805969E-08  0.10566000000E+00  0.10566000000E+00 0.  1.
     999900   -1    0    0    0    0 -0.00000000000E+00 -0.00000000000E+00 -0.74505805969E-08  0.93827000000E+00  0.93827000000E+00 0. -1.
     999902    2    1    2    0    0 -0.13853478261E-01 -0.25806910387E-01 -0.11654223926E-01  0.10124064149E+01  0.10119155165E+01 0.  0.
     999903    2    3    3    0    0  0.97180599434E-01 -0.24263067426E-01 -0.70235505781E-01  0.12349544271E+00  0.16891795345E-01 0.  0.
         14    1    1    2    0    0  0.13853478261E-01  0.25806910387E-01  0.11654223926E-01  0.31523585122E-01  0.00000000000E+00 0.  1.
     999901    1    3    3    0    0 -0.11103407769E+00 -0.15438429618E-02  0.58581281855E-01  0.88891097217E+00  0.88000000000E+00 0. -1.
        -11    1    4    4    0    0  0.94428337864E-01 -0.21011372101E-01 -0.64251935239E-01  0.11613251505E+00  0.51100000000E-03 0.  1.
         11    1    4    4    0    0  0.27522615699E-02 -0.32516953246E-02 -0.59835705412E-02  0.73629276551E-02  0.51100000000E-03 0. -1.
</event>
<event>
 8    1  0.1138737E+005  0.1043930E+01  0.7957747E-01            NaN
         13   -1    0    0    0    0  0.00000000000E+00  0.00000000000E+00  0.74505805969E-08  0.10566000000E+00  0.10566000000E+00 0.  1.
     999900   -1    0    0    0    0 -0.00000000000E+00 -0.00000000000E+00 -0.74505805969E-08  0.93827000000E+00  0.93827000000E+00 0. -1.
     999902    2    1    2    0    0 -0.14638031466E-01 -0.15622870360E-01 -0.80984352171E-02  0.10210404675E+01  0.10207838682E+01 0.  0.
     999903    2    3    3    0    0  0.97585462530E-01  0.62172534040E-01  0.52154149340E-01  0.12847304067E+00  0.19922861245E-01 0.  0.
         14    1    1    2    0    0  0.14638031466E-01  0.15622870360E-01  0.80984352171E-02  0.22889532465E-01  0.00000000000E+00 0.  1.
     999901    1    3    3    0    0 -0.11222349400E+00 -0.77795404400E-01 -0.60252584557E-01  0.89256742686E+00  0.88000000000E+00 0. -1.
        -11    1    4    4    0    0  0.54515251792E-01  0.23675603164E-01  0.30236566935E-01  0.66685515400E-01  0.51100000000E-03 0.  1.
         11    1    4    4    0    0  0.43070210738E-01  0.38496930876E-01  0.21917582405E-01  0.61787525273E-01  0.51100000000E-03 0. -1.
</event>
<event>
 8    1  0.1138737E+005  0.1043930E+01  0.7957747E-01            NaN
         13   -1    0    0    0    0  0.00000000000E+00  0.00000000000E+00  0.74505805969E-08  0.10566000000E+00  0.10566000000E+00 0. -1.
     999900   -1    0    0    0    0 -0.00000000000E+00 -0.00000000000E+00 -0.74505805969E-08  0.93827000000E+00  0.93827000000E+00 0.  1.
     999902    2    1    2    0    0 -0.21893764633E-01  0.65683265615E-03 -0.82874555666E-02  0.10205109847E+01  0.10202422357E+01 0.  0.
     999903    2    3    3    0    0  0.36589072931E-02  0.87544930931E-01 -0.96710837637E-01  0.13145464498E+00  0.15806170794E-01 0.  0.
         14    1    1    2    0    0  0.21893764633E-01 -0.65683265615E-03  0.82874555666E-02  0.23419015323E-01  0.00000000000E+00 0. -1.
     999901    1    3    3    0    0 -0.25552671926E-01 -0.86888098275E-01  0.88423382071E-01  0.88905633970E+00  0.88000000000E+00 0. -1.
        -11    1    4    4    0    0  0.10691271354E-02  0.48929575161E-01 -0.42352997848E-01  0.64724677720E-01  0.51100000000E-03 0. -1.
         11    1    4    4    0    0  0.25897801577E-02  0.38615355770E-01 -0.54357839789E-01  0.66729967257E-01  0.51100000000E-03 0.  1.
</event>
<event>
 8    1  0.1138737E+005  0.1043930E+01  0.7957747E-01            NaN
         13   -1    0    0    0    0  0.00000000000E+00  0.00000000000E+00  0.74505805969E-08  0.10566000000E+00  0.10566000000E+00 0. -1.
     999900   -1    0    0    0    0 -0.00000000000E+00 -0.00000000000E+00 -0.74505805969E-08  0.93827000000E+00  0.93827000000E+00 0.  1.
     999902    2    1    2    0    0  0.12210992561E-01  0.16395392972E-01  0.10914621116E-01  0.10207557426E+01  0.10204926457E+01 0.  0.
     999903    2    3    3    0    0  0.32355709179E-02 -0.10144546446E+00 -0.76606884738E-01  0.12855226817E+00  0.18852577654E-01 0.  0.
         14    1    1    2    0    0 -0.12210992561E-01 -0.16395392972E-01 -0.10914621116E-01  0.23174257358E-01  0.00000000000E+00 0.  1.
     999901    1    3    3    0    0  0.89754216429E-02  0.11784085743E+00  0.87521505853E-01  0.89220347447E+00  0.88000000000E+00 0. -1.
        -11    1    4    4    0    0  0.39656151466E-02 -0.65111835956E-01 -0.37848921835E-01  0.75419356203E-01  0.51100000000E-03 0. -1.
         11    1    4    4    0    0 -0.73004422878E-03 -0.36333628501E-01 -0.38757962903E-01  0.53132911966E-01  0.51100000000E-03 0.  1.
</event>
<event>
 8    1  0.1138737E+005  0.1043930E+01  0.7957747E-01            NaN
         13   -1    0    0    0    0  0.00000000000E+00  0.00000000000E+00  0.74505805969E-08  0.10566000000E+00  0.10566000000E+00 0.  1.
     999900   -1    0    0    0    0 -0.00000000000E+00 -0.00000000000E+00 -0.74505805969E-08  0.93827000000E+00  0.93827000000E+00 0.  1.
     999902    2    1    2    0    0  0.29551545718E-01  0.16653836444E-01  0.10112518010E-01  0.10085335716E+01  0.10079122273E+01 0.  0.
     999903    2    3    3    0    0 -0.80256739786E-01  0.82749668435E-01  0.23877624704E-01  0.11914277070E+00  0.18335946698E-01 0.  0.
         14    1    1    2    0    0 -0.29551545718E-01 -0.16653836444E-01 -0.10112518010E-01  0.35396428395E-01  0.00000000000E+00 0.  1.
     999901    1    3    3    0    0  0.10980828550E+00 -0.66095831991E-01 -0.13765106694E-01  0.88939080090E+00  0.88000000000E+00 0. -1.
        -11    1    4    4    0    0 -0.97222224141E-02  0.48246213723E-02 -0.16217567494E-02  0.10985890770E-01  0.51100000000E-03 0.  1.
         11    1    4    4    0    0 -0.70534517372E-01  0.77925047063E-01  0.25499381454E-01  0.10815687993E+00  0.51100000000E-03 0. -1.
</event>
<event>
 8    1  0.1138737E+005  0.1043930E+01  0.7957747E-01            NaN
         13   -1    0    0    0    0  0.00000000000E+00  0.00000000000E+00  0.74505805969E-08  0.10566000000E+00  0.10566000000E+00 0. -1.
     999900   -1    0    0    0    0 -0.00000000000E+00 -0.00000000000E+00 -0.74505805969E-08  0.93827000000E+00  0.93827000000E+00 0.  1.
     999902    2    1    2    0    0 -0.12404016771E-01  0.23479476891E-01  0.10678815459E-01  0.10153086344E+01  0.10149051387E+01 0.  0.
     999903    2    3    3    0    0  0.85356042694E-01  0.70769468988E-01  0.59183833479E-01  0.12730744674E+00  0.20260505532E-01 0.  0.
         14    1    1    2    0    0  0.12404016771E-01 -0.23479476891E-01 -0.10678815459E-01  0.28621365564E-01  0.00000000000E+00 0.  1.
     999901    1    3    3    0    0 -0.97760059465E-01 -0.47289992097E-01 -0.48505018021E-01  0.88800118770E+00  0.88000000000E+00 0.  1.
        -11    1    4    4    0    0  0.70393584802E-01  0.47530653042E-01  0.41974699183E-01  0.94744689837E-01  0.51100000000E-03 0. -1.
         11    1    4    4    0    0  0.14962457892E-01  0.23238815946E-01  0.17209134297E-01  0.32562756901E-01  0.51100000000E-03 0.  1.
</event>
<event>
 8    1  0.1138737E+005  0.1043930E+01  0.7957747E-01            NaN
         13   -1    0    0    0    0  0.00000000000E+00  0.00000000000E+00  0.74505805969E-08  0.10566000000E+00  0.10566000000E+00 0.  1.
     999900   -1    0    0    0    0 -0.00000000000E+00 -0.00000000000E+00 -0.74505805969E-08  0.93827000000E+00  0.93827000000E+00 0. -1.
     999902    2    1    2    0    0  0.66245687237E-02 -0.18159068640E-02 -0.22659021210E-01  0.10202527183E+01  0.10199779387E+01 0.  0.
     999903    2    3    3    0    0  0.26226004457E-02  0.53270550402E-01  0.11453042412E+00  0.12791226897E+00  0.19992521844E-01 0.  0.
         14    1    1    2    0    0 -0.66245687237E-02  0.18159068640E-02  0.22659021210E-01  0.23677281742E-01  0.00000000000E+00 0.  1.
     999901    1    3    3    0    0  0.40019682780E-02 -0.55086457267E-01 -0.13718944533E+00  0.89234044929E+00  0.88000000000E+00 0. -1.
        -11    1    4    4    0    0  0.10360168468E-01  0.39380952632E-01  0.88234203249E-01  0.97178846797E-01  0.51100000000E-03 0.  1.
         11    1    4    4    0    0 -0.77375680220E-02  0.13889597771E-01  0.26296220875E-01  0.30733422172E-01  0.51100000000E-03 0. -1.
</event>
<event>
 8    1  0.1138737E+005  0.1043930E+01  0.7957747E-01            NaN
         13   -1    0    0    0    0  0.00000000000E+00  0.00000000000E+00  0.74505805969E-08  0.10566000000E+00  0.10566000000E+00 0. -1.
     999900   -1    0    0    0    0 -0.00000000000E+00 -0.00000000000E+00 -0.74505805969E-08  0.93827000000E+00  0.93827000000E+00 0. -1.
     999902    2    1    2    0    0 -0.66394513250E-02 -0.22384322788E-01 -0.70447319787E-02  0.10195421245E+01  0.10192503987E+01 0.  0.
     999903    2    3    3    0    0 -0.23425468524E-01  0.10957750007E+00 -0.58749035776E-01  0.12804393156E+00  0.19693097958E-01 0.  0.
         14    1    1    2    0    0  0.66394513250E-02  0.22384322788E-01  0.70447319787E-02  0.24387875455E-01  0.00000000000E+00 0.  1.
     999901    1    3    3    0    0  0.16786017199E-01 -0.13196182286E+00  0.51704303797E-01  0.89149819299E+00  0.88000000000E+00 0.  1.
        -11    1    4    4    0    0 -0.15533475756E-01  0.41894663843E-01 -0.31416657688E-01  0.54623431134E-01  0.51100000000E-03 0.  1.
         11    1    4    4    0    0 -0.78919927673E-02  0.67682836228E-01 -0.27332378088E-01  0.73420500425E-01  0.51100000000E-03 0. -1.
</event>
<event>
 7    1  0.1138737E+005  0.1043930E+01  0.7957747E-01            NaN
         13   -1    0    0    0    0  0.00000000000E+00  0.00000000000E+00  0.74505805969E-08  0.10566000000E+00  0.10566000000E+00 0.  1.
     999900   -1    0    0    0    0 -0.00000000000E+00 -0.00000000000E+00 -0.74505805969E-08  0.93827000000E+00  0.93827000000E+00 0.  1.
     999903    2    1    2    0    0 -0.28508026711E-01  0.53498290917E-01  0.39563513466E-01  0.75602229373E-01  0.21809419305E-01 0.  0.
         14    1    1    2    0    0  0.65252839414E-02  0.53530794487E-01  0.54408028984E-01  0.76605214619E-01  0.00000000000E+00 0.  1.
     999901    1    1    2    0    0  0.21982742770E-01 -0.10702908540E+00 -0.93971542450E-01  0.89172255601E+00  0.88000000000E+00 0.  1.
        -11    1    3    3    0    0  0.44415862787E-03  0.14914481473E-01  0.16102296669E-01  0.21958691070E-01  0.51100000000E-03 0.  1.
         11    1    3    3    0    0 -0.28952185339E-01  0.38583809443E-01  0.23461216798E-01  0.53643538303E-01  0.51100000000E-03 0. -1.
</event>
<event>
 8    1  0.1138737E+005  0.1043930E+01  0.7957747E-01            NaN
         13   -1    0    0    0    0  0.00000000000E+00  0.00000000000E+00  0.74505805969E-08  0.10566000000E+00  0.10566000000E+00 0.  1.
     999900   -1    0    0    0    0 -0.00000000000E+00 -0.00000000000E+00 -0.74505805969E-08  0.93827000000E+00  0.93827000000E+00 0. -1.
     999902    2    1    2    0    0  0.21624696910E-01  0.89175760239E-02 -0.41558004491E-02  0.10201724463E+01  0.10198957785E+01 0.  0.
     999903    2    3    3    0    0  0.92090615740E-01  0.20218667020E-01 -0.91716803095E-01  0.13295201738E+00  0.19359518394E-01 0.  0.
         14    1    1    2    0    0 -0.21624696910E-01 -0.89175760239E-02  0.41558004491E-02  0.23757553661E-01  0.00000000000E+00 0.  1.
     999901    1    3    3    0    0 -0.70465918830E-01 -0.11301090996E-01  0.87561002646E-01  0.88722042896E+00  0.88000000000E+00 0.  1.
        -11    1    4    4    0    0  0.43994391648E-01  0.53736693468E-02 -0.31034588306E-01  0.54109052949E-01  0.51100000000E-03 0. -1.
         11    1    4    4    0    0  0.48096224092E-01  0.14844997673E-01 -0.60682214789E-01  0.78842964433E-01  0.51100000000E-03 0.  1.
</event>
<event>
 8    1  0.1138737E+005  0.1043930E+01  0.7957747E-01            NaN
         13   -1    0    0    0    0  0.00000000000E+00  0.00000000000E+00  0.74505805969E-08  0.10566000000E+00  0.10566000000E+00 0. -1.
     999900   -1    0    0    0    0 -0.00000000000E+00 -0.00000000000E+00 -0.74505805969E-08  0.93827000000E+00  0.93827000000E+00 0. -1.
     999902    2    1    2    0    0  0.72023776569E-02 -0.12878542584E-03  0.23837383963E-01  0.10190279578E+01  0.10187236461E+01 0.  0.
     999903    2    3    3    0    0 -0.61864818310E-01  0.15582299243E-02  0.11455230799E+00  0.13167102795E+00  0.19630193865E-01 0.  0.
         14    1    1    2    0    0 -0.72023776569E-02  0.12878542584E-03 -0.23837383963E-01  0.24902042161E-01  0.00000000000E+00 0.  1.
     999901    1    3    3    0    0  0.69067195967E-01 -0.16870153501E-02 -0.90714924026E-01  0.88735692989E+00  0.88000000000E+00 0. -1.
        -11    1    4    4    0    0 -0.10541438420E-01 -0.33590145704E-02  0.36356974248E-01  0.38006520497E-01  0.51100000000E-03 0. -1.
         11    1    4    4    0    0 -0.51323379890E-01  0.49172444946E-02  0.78195333740E-01  0.93664507454E-01  0.51100000000E-03 0.  1.
</event>
<event>
 8    1  0.1138737E+005  0.1043930E+01  0.7957747E-01            NaN
         13   -1    0    0    0    0  0.00000000000E+00  0.00000000000E+00  0.74505805969E-08  0.10566000000E+00  0.10566000000E+00 0.  1.
     999900   -1    0    0    0    0 -0.00000000000E+00 -0.00000000000E+00 -0.74505805969E-08  0.93827000000E+00  0.93827000000E+00 0. -1.
     999902    2    1    2    0    0 -0.41062760793E-02 -0.13636058483E-01  0.18573523008E-01  0.10205253135E+01  0.10202568971E+01 0.  0.
     999903    2    3    3    0    0 -0.42037026406E-01  0.69320835718E-02  0.12461947981E+00  0.13310910040E+00  0.19309388641E-01 0.  0.
         14    1    1    2    0    0  0.41062760793E-02  0.13636058483E-01 -0.18573523008E-01  0.23404686520E-01  0.00000000000E+00 0. -1.
     999901    1    3    3    0    0  0.37930750327E-01 -0.20568142055E-01 -0.10604595680E+00  0.88741621308E+00  0.88000000000E+00 0. -1.
        -11    1    4    4    0    0 -0.26640705638E-01  0.89629737054E-02  0.54901508705E-01  0.61680619919E-01  0.51100000000E-03 0. -1.
         11    1    4    4    0    0 -0.15396320768E-01 -0.20308901336E-02  0.69717971101E-01  0.71428480478E-01  0.51100000000E-03 0.  1.
</event>
<event>
 7    1  0.1138737E+005  0.1043930E+01  0.7957747E-01            NaN
         13   -1    0    0    0    0  0.00000000000E+00  0.00000000000E+00  0.74505805969E-08  0.10566000000E+00  0.10566000000E+00 0.  1.
     999900   -1    0    0    0    0 -0.00000000000E+00 -0.00000000000E+00 -0.74505805969E-08  0.93827000000E+00  0.93827000000E+00 0. -1.
     999902    2    1    2    0    0 -0.17430483908E-01  0.72967055925E-02 -0.14503506790E-01  0.10201095174E+01  0.10198313645E+01 0.  0.
         14    1    1    2    0    0  0.17430483908E-01 -0.72967055925E-02  0.14503506790E-01  0.23820482593E-01  0.00000000000E+00 0. -1.
     999901    1    3    3    0    0 -0.49468502835E-01  0.50660693923E-01 -0.12550417710E+00  0.89172021237E+00  0.88000000000E+00 0. -1.
        -11    1    3    3    0    0  0.20905180897E-01 -0.46019808469E-02  0.22120199379E-01  0.30785859702E-01  0.51100000000E-03 0. -1.
         11    1    3    3    0    0  0.11132838031E-01 -0.38762007484E-01  0.88880470932E-01  0.97603445333E-01  0.51100000000E-03 0.  1.
</event>
<event>
 8    1  0.1138737E+005  0.1043930E+01  0.7957747E-01            NaN
         13   -1    0    0    0    0  0.00000000000E+00  0.00000000000E+00  0.74505805969E-08  0.10566000000E+00  0.10566000000E+00 0.  1.
     999900   -1    0    0    0    0 -0.00000000000E+00 -0.00000000000E+00 -0.74505805969E-08  0.93827000000E+00  0.93827000000E+00 0.  1.
     999902    2    1    2    0    0 -0.12827519666E-01 -0.10416626301E-01  0.15667076642E-01  0.10211592149E+01  0.10209053009E+01 0.  0.
     999903    2    3    3    0    0 -0.82323970486E-01 -0.39972111194E-01 -0.92312243026E-01  0.13134866379E+00  0.18865722278E-01 0.  0.
         14    1    1    2    0    0  0.12827519666E-01  0.10416626301E-01 -0.15667076642E-01  0.22770785115E-01  0.00000000000E+00 0. -1.
     999901    1    3    3    0    0  0.69496450819E-01  0.29555484893E-01  0.10797931967E+00  0.88981055109E+00  0.88000000000E+00 0.  1.
        -11    1    4    4    0    0 -0.56848779494E-01 -0.17728492576E-01 -0.61206369076E-01  0.85396509972E-01  0.51100000000E-03 0.  1.
         11    1    4    4    0    0 -0.25475190992E-01 -0.22243618618E-01 -0.31105873950E-01  0.45952153818E-01  0.51100000000E-03 0. -1.
</event>
<event>
 8    1  0.1138737E+005  0.1043930E+01  0.7957747E-01            NaN
         13   -1    0    0    0    0  0.00000000000E+00  0.00000000000E+00  0.74505805969E-08  0.10566000000E+00  0.10566000000E+00 0.  1.
     999900   -1    0    0    0    0 -0.00000000000E+00 -0.00000000000E+00 -0.74505805969E-08  0.93827000000E+00  0.93827000000E+00 0.  1.
     999902    2    1    2    0    0  0.87025002365E-02  0.16140134929E-01  0.23062982694E-01  0.10144658076E+01  0.10140378376E+01 0.  0.
     999903    2    3    3    0    0  0.10041533746E+00  0.75522004301E-01  0.92473620996E-02  0.12760148744E+00  0.20243832615E-01 0.  0.
         14    1    1    2    0    0 -0.87025002365E-02 -0.16140134929E-01 -0.23062982694E-01  0.29464192448E-01  0.00000000000E+00 0. -1.
     999901    1    3    3    0    0 -0.91712837225E-01 -0.59381869371E-01  0.13815620594E-01  0.88686432012E+00  0.88000000000E+00 0. -1.
        -11    1    4    4    0    0  0.75967656562E-01  0.63945455194E-01  0.95379738545E-03  0.99303962328E-01  0.51100000000E-03 0.  1.
         11    1    4    4    0    0  0.24447680900E-01  0.11576549106E-01  0.82935647141E-02  0.28297525108E-01  0.51100000000E-03 0. -1.
</event>
<event>
 8    1  0.1138737E+005  0.1043930E+01  0.7957747E-01            NaN
         13   -1    0    0    0    0  0.00000000000E+00  0.00000000000E+00  0.74505805969E-08  0.10566000000E+00  0.10566000000E+00 0.  1.
     999900   -1    0    0    0    0 -0.00000000000E+00 -0.00000000000E+00 -0.74505805969E-08  0.93827000000E+00  0.93827000000E+00 0.  1.
     999902    2    1    2    0    0 -0.20894473158E-01 -0.11239530899E-01  0.72821393800E-03  0.10201931856E+01  0.10199170062E+01 0.  0.
     999903    2    3    3    0    0 -0.15856754983E-01 -0.85483052741E-01  0.97165490058E-01  0.13180271548E+00  0.19288192360E-01 0.  0.
         14    1    1    2    0    0  0.20894473158E-01  0.11239530899E-01 -0.72821393800E-03  0.23736814422E-01  0.00000000000E+00 0. -1.
     999901    1    3    3    0    0 -0.50377181748E-02  0.74243521842E-01 -0.96437276120E-01  0.88839047010E+00  0.88000000000E+00 0.  1.
        -11    1    4    4    0    0  0.79453837704E-03 -0.45317357504E-01  0.44706602725E-01  0.63665026747E-01  0.51100000000E-03 0.  1.
         11    1    4    4    0    0 -0.16651293360E-01 -0.40165695237E-01  0.52458887333E-01  0.68137688731E-01  0.51100000000E-03 0. -1.
</event>
<event>
 8    1  0.1138737E+005  0.1043930E+01  0.7957747E-01            NaN
         13   -1    0    0    0    0  0.00000000000E+00  0.00000000000E+00  0.74505805969E-08  0.10566000000E+00  0.10566000000E+00 0. -1.
     999900   -1    0    0    0    0 -0.00000000000E+00 -0.00000000000E+00 -0.74505805969E-08  0.93827000000E+00  0.93827000000E+00 0. -1.
     999902    2    1    2    0    0  0.17300860102E-01  0.12586782459E-01  0.10092631278E-01  0.10202739636E+01  0.10199996827E+01 0.  0.
     999903    2    3    3    0    0 -0.48580847111E-01 -0.77307117316E-01  0.89499707653E-01  0.12969729853E+00  0.21787668101E-01 0.  0.
         14    1    1    2    0    0 -0.17300860102E-01 -0.12586782459E-01 -0.10092631278E-01  0.23656036419E-01  0.00000000000E+00 0.  1.
     999901    1    3    3    0    0  0.65881707214E-01  0.89893899775E-01 -0.79407076375E-01  0.89057666506E+00  0.88000000000E+00 0. -1.
        -11    1    4    4    0    0 -0.26002690541E-01 -0.22405352879E-01  0.36648454506E-01  0.50214640212E-01  0.51100000000E-03 0. -1.
         11    1    4    4    0    0 -0.22578156571E-01 -0.54901764437E-01  0.52851253147E-01  0.79482658313E-01  0.51100000000E-03 0.  1.
</event>
<event>
 8    1  0.1138737E+005  0.1043930E+01  0.7957747E-01            NaN
         13   -1    0    0    0    0  0.00000000000E+00  0.00000000000E+00  0.74505805969E-08  0.10566000000E+00  0.10566000000E+00 0.  1.
     999900   -1    0    0    0    0 -0.00000000000E+00 -0.00000000000E+00 -0.74505805969E-08  0.93827000000E+00  0.93827000000E+00 0.  1.
     999902    2    1    2    0    0 -0.89074846863E-02 -0.20565662535E-01 -0.89585075025E-02  0.10197940390E+01  0.10195083802E+01 0.  0.
     999903    2    3    3    0    0 -0.12574201166E+00  0.28141935658E-01  0.66229433097E-02  0.13060029267E+00  0.20237367176E-01 0.  0.
         14    1    1    2    0    0  0.89074846863E-02  0.20565662535E-01  0.89585075025E-02  0.24135961046E-01  0.00000000000E+00 0.  1.
     999901    1    3    3    0    0  0.11683452697E+00 -0.48707598194E-01 -0.15581450812E-01  0.88919374628E+00  0.88000000000E+00 0.  1.
        -11    1    4    4    0    0 -0.30773133995E-02  0.45074065666E-02 -0.27141611026E-03  0.54882929423E-02  0.51100000000E-03 0. -1.
         11    1    4    4    0    0 -0.12266469826E+00  0.23634529092E-01  0.68943594200E-02  0.12511199973E+00  0.51100000000E-03 0.  1.
</event>
<event>
 8    1  0.1138737E+005  0.1043930E+01  0.7957747E-01            NaN
         13   -1    0    0    0    0  0.00000000000E+00  0.00000000000E+00  0.74505805969E-08  0.10566000000E+00  0.10566000000E+00 0.  1.
     999900   -1    0    0    0    0 -0.00000000000E+00 -0.00000000000E+00 -0.74505805969E-08  0.93827000000E+00  0.93827000000E+00 0.  1.
     999902    2    1    2    0    0  0.16986521981E-01  0.66523028812E-02 -0.14203080752E-01  0.10208102559E+01  0.10205484095E+01 0.  0.
     999903    2    3    3    0    0 -0.10630936768E+00  0.70115674374E-01  0.17317925306E-01  0.12939393920E+00  0.14999717150E-01 0.  0.
         14    1    1    2    0    0 -0.16986521981E-01 -0.66523028812E-02  0.14203080752E-01  0.23119744062E-01  0.00000000000E+00 0.  1.
     999901    1    3    3    0    0  0.12329588966E+00 -0.63463371493E-01 -0.31521006057E-01  0.89141631674E+00  0.88000000000E+00 0.  1.
        -11    1    4    4    0    0 -0.25703044980E-01  0.24937760539E-01  0.55105226707E-02  0.36237624137E-01  0.51100000000E-03 0. -1.
         11    1    4    4    0    0 -0.80606322700E-01  0.45177913835E-01  0.11807402635E-01  0.93156315061E-01  0.51100000000E-03 0.  1.
</event>
<event>
 8    1  0.1138737E+005  0.1043930E+01  0.7957747E-01            NaN
         13   -1    0    0    0    0  0.00000000000E+00  0.00000000000E+00  0.74505805969E-08  0.10566000000E+00  0.10566000000E+00 0.  1.
     999900   -1    0    0    0    0 -0.00000000000E+00 -0.00000000000E+00 -0.74505805969E-08  0.93827000000E+00  0.93827000000E+00 0. -1.
     999902    2    1    2    0    0  0.10948654607E-01 -0.80661270134E-02 -0.19517892694E-01  0.10201416924E+01  0.10198642993E+01 0.  0.
     999903    2    3    3    0    0  0.19111694294E-01  0.10492984542E+00  0.68791535153E-01  0.12849530508E+00  0.20080806718E-01 0.  0.
         14    1    1    2    0    0 -0.10948654607E-01  0.80661270134E-02  0.19517892694E-01  0.23788307588E-01  0.00000000000E+00 0.  1.
     999901    1    3    3    0    0 -0.81630396872E-02 -0.11299597244E+00 -0.88309427847E-01  0.89164638734E+00  0.88000000000E+00 0. -1.
        -11    1    4    4    0    0  0.11102731428E-01  0.86554715966E-01  0.62981490699E-01  0.10761932351E+00  0.51100000000E-03 0.  1.
         11    1    4    4    0    0  0.80089628663E-02  0.18375129457E-01  0.58100444538E-02  0.20875981566E-01  0.51100000000E-03 0. -1.
</event>
<event>
 8    1  0.1138737E+005  0.1043930E+01  0.7957747E-01            NaN
         13   -1    0    0    0    0  0.00000000000E+00  0.00000000000E+00  0.74505805969E-08  0.10566000000E+00  0.10566000000E+00 0. -1.
     999900   -1    0    0    0    0 -0.00000000000E+00 -0.00000000000E+00 -0.74505805969E-08  0.93827000000E+00  0.93827000000E+00 0.  1.
     999902    2    1    2    0    0  0.19541148207E-01 -0.13083093716E-01  0.31646394073E-02  0.10202015623E+01  0.10199255801E+01 0.  0.
     999903    2    3    3    0    0  0.54658544050E-01  0.55998957770E-01  0.10355586433E+00  0.13110991381E+00  0.18508180708E-01 0.  0.
         14    1    1    2    0    0 -0.19541148207E-01  0.13083093716E-01 -0.31646394073E-02  0.23728437728E-01  0.00000000000E+00 0.  1.
     999901    1    3    3    0    0 -0.35117395843E-01 -0.69082051486E-01 -0.10039122492E+00  0.88909164846E+00  0.88000000000E+00 0.  1.
        -11    1    4    4    0    0  0.56918815024E-04  0.47068945875E-02  0.11403355812E-01  0.12347296918E-01  0.51100000000E-03 0. -1.
         11    1    4    4    0    0  0.54601625235E-01  0.51292063182E-01  0.92152508515E-01  0.11876261689E+00  0.51100000000E-03 0.  1.
</event>
<event>
 8    1  0.1138737E+005  0.1043930E+01  0.7957747E-01            NaN
         13   -1    0    0    0    0  0.00000000000E+00  0.00000000000E+00  0.74505805969E-08  0.10566000000E+00  0.10566000000E+00 0.  1.
     999900   -1    0    0    0    0 -0.00000000000E+00 -0.00000000000E+00 -0.74505805969E-08  0.93827000000E+00  0.93827000000E+00 0. -1.
     999902    2    1    2    0    0  0.20713493426E-02 -0.23741615736E-01  0.27528024910E-02  0.10199397368E+01  0.10196575572E+01 0.  0.
     999903    2    3    3    0    0 -0.12444139212E+00  0.19579040009E-01  0.22836864915E-01  0.12961085235E+00  0.20210189662E-01 0.  0.
         14    1    1    2    0    0 -0.20713493426E-02  0.23741615736E-01 -0.27528024910E-02  0.23990263179E-01  0.00000000000E+00 0. -1.
     999901    1    3    3    0    0  0.12651274146E+00 -0.43320655746E-01 -0.20084062424E-01  0.89032888447E+00  0.88000000000E+00 0.  1.
        -11    1    4    4    0    0 -0.10328648342E+00  0.23541841473E-01  0.21051023604E-01  0.10800797505E+00  0.51100000000E-03 0. -1.
         11    1    4    4    0    0 -0.21154908695E-01 -0.39628014639E-02  0.17858413112E-02  0.21602877298E-01  0.51100000000E-03 0.  1.
</event>
<event>
 8    1  0.1138737E+005  0.1043930E+01  0.7957747E-01            NaN
         13   -1    0    0    0    0  0.00000000000E+00  0.00000000000E+00  0.74505805969E-08  0.10566000000E+00  0.10566000000E+00 0.  1.
     999900   -1    0    0    0    0 -0.00000000000E+00 -0.00000000000E+00 -0.74505805969E-08  0.93827000000E+00  0.93827000000E+00 0. -1.
     999902    2    1    2    0    0  0.14002297281E-01 -0.19118028891E-01 -0.98679636156E-03  0.10202121349E+01  0.10199364015E+01 0.  0.
     999903    2    3    3    0    0  0.25294028528E-01  0.49393991429E-01  0.11552169002E+00  0.12982141869E+00  0.20707139278E-01 0.  0.
         14    1    1    2    0    0 -0.14002297281E-01  0.19118028891E-01  0.98679636156E-03  0.23717865099E-01  0.00000000000E+00 0.  1.
     999901    1    3    3    0    0 -0.11291731247E-01 -0.68512020320E-01 -0.11650848638E+00  0.89039071621E+00  0.88000000000E+00 0. -1.
        -11    1    4    4    0    0  0.16750077828E-01  0.15412442531E-01  0.32253328705E-01  0.39479701437E-01  0.51100000000E-03 0. -1.
         11    1    4    4    0    0  0.85439507003E-02  0.33981548898E-01  0.83268361312E-01  0.90341717250E-01  0.51100000000E-03 0.  1.
</event>
<event>
 8    1  0.1138737E+005  0.1043930E+01  0.7957747E-01            NaN
         13   -1    0    0    0    0  0.00000000000E+00  0.00000000000E+00  0.74505805969E-08  0.10566000000E+00  0.10566000000E+00 0.  1.
     999900   -1    0    0    0    0 -0.00000000000E+00 -0.00000000000E+00 -0.74505805969E-08  0.93827000000E+00  0.93827000000E+00 0.  1.
     999902    2    1    2    0    0  0.10371267615E-01  0.11010235998E-01 -0.17633365305E-01  0.10206980380E+01  0.10204336140E+01 0.  0.
     999903    2    3    3    0    0 -0.94059894275E-01  0.87560613140E-01  0.12681733722E-01  0.13070655875E+00  0.20230013510E-01 0.  0.
         14    1    1    2    0    0 -0.10371267615E-01 -0.11010235998E-01  0.17633365305E-01  0.23231962049E-01  0.00000000000E+00 0. -1.
     999901    1    3    3    0    0  0.10443116189E+00 -0.76550377142E-01 -0.30315099027E-01  0.88999147920E+00  0.88000000000E+00 0.  1.
        -11    1    4    4    0    0 -0.16137034560E-01  0.22950317098E-01  0.87931020420E-02  0.29405793711E-01  0.51100000000E-03 0. -1.
         11    1    4    4    0    0 -0.77922859715E-01  0.64610296042E-01  0.38886316801E-02  0.10130076504E+00  0.51100000000E-03 0.  1.
</event>
<event>
 8    1  0.1138737E+005  0.1043930E+01  0.7957747E-01            NaN
         13   -1    0    0    0    0  0.00000000000E+00  0.00000000000E+00  0.74505805969E-08  0.10566000000E+00  0.10566000000E+00 0.  1.
     999900   -1    0    0    0    0 -0.00000000000E+00 -0.00000000000E+00 -0.74505805969E-08  0.93827000000E+00  0.93827000000E+00 0. -1.
     999902    2    1    2    0    0 -0.13685728295E-01  0.18635918418E-01 -0.32179310751E-02  0.10205857996E+01  0.10203187848E+01 0.  0.
     999903    2    3    3    0    0 -0.52469227456E-01  0.91471308147E-01  0.78300539737E-01  0.13297416438E+00  0.20763762317E-01 0.  0.
         14    1    1    2    0    0  0.13685728295E-01 -0.18635918418E-01  0.32179310751E-02  0.23344200450E-01  0.00000000000E+00 0.  1.
     999901    1    3    3    0    0  0.38783499161E-01 -0.72835389730E-01 -0.81518470812E-01  0.88761163517E+00  0.88000000000E+00 0. -1.
        -11    1    4    4    0    0 -0.10002970184E-01  0.34994289531E-01  0.32240050089E-01  0.48624496532E-01  0.51100000000E-03 0. -1.
         11    1    4    4    0    0 -0.42466257272E-01  0.56477018617E-01  0.46060489649E-01  0.84349667849E-01  0.51100000000E-03 0.  1.
</event>
<event>
 8    1  0.1138737E+005  0.1043930E+01  0.7957747E-01            NaN
         13   -1    0    0    0    0  0.00000000000E+00  0.00000000000E+00  0.74505805969E-08  0.10566000000E+00  0.10566000000E+00 0. -1.
     999900   -1    0    0    0    0 -0.00000000000E+00 -0.00000000000E+00 -0.74505805969E-08  0.93827000000E+00  0.93827000000E+00 0.  1.
     999902    2    1    2    0    0 -0.22432075857E-01 -0.55808783285E-02 -0.59864484268E-02  0.10200515203E+01  0.10197719952E+01 0.  0.
     999903    2    3    3    0    0 -0.10134874893E+00  0.12418230890E-01  0.81348003463E-01  0.13203174812E+00  0.19725705936E-01 0.  0.
         14    1    1    2    0    0  0.22432075857E-01  0.55808783285E-02  0.59864484268E-02  0.23878479745E-01  0.00000000000E+00 0.  1.
     999901    1    3    3    0    0  0.78916673076E-01 -0.17999109218E-01 -0.87334451890E-01  0.88801977214E+00  0.88000000000E+00 0.  1.
        -11    1    4    4    0    0 -0.58168079533E-01 -0.25385762678E-02  0.43192537922E-01  0.72497077866E-01  0.51100000000E-03 0. -1.
         11    1    4    4    0    0 -0.43180669400E-01  0.14956807157E-01  0.38155465542E-01  0.59534670251E-01  0.51100000000E-03 0.  1.
</event>
<event>
 8    1  0.1138737E+005  0.1043930E+01  0.7957747E-01            NaN
         13   -1    0    0    0    0  0.00000000000E+00  0.00000000000E+00  0.74505805969E-08  0.10566000000E+00  0.10566000000E+00 0.  1.
     999900   -1    0    0    0    0 -0.00000000000E+00 -0.00000000000E+00 -0.74505805969E-08  0.93827000000E+00  0.93827000000E+00 0.  1.
     999902    2    1    2    0    0  0.23245391598E-03 -0.27557002443E-01 -0.33268199978E-02  0.10161719354E+01  0.10157927408E+01 0.  0.
     999903    2    3    3    0    0 -0.31502780104E-01 -0.12354014978E+00 -0.17798931652E-01  0.13026599703E+00  0.19945782786E-01 0.  0.
         14    1    1    2    0    0 -0.23245391598E-03  0.27557002443E-01  0.33268199978E-02  0.27758064589E-01  0.00000000000E+00 0.  1.
     999901    1    3    3    0    0  0.31735234020E-01  0.95983147338E-01  0.14472111655E-01  0.88590593839E+00  0.88000000000E+00 0.  1.
        -11    1    4    4    0    0 -0.10260026984E-01 -0.43907051835E-01  0.32235053248E-02  0.45207847351E-01  0.51100000000E-03 0. -1.
         11    1    4    4    0    0 -0.21242753120E-01 -0.79633097946E-01 -0.21022436977E-01  0.85058149674E-01  0.51100000000E-03 0.  1.
</event>
<event>
 7    1  0.1138737E+005  0.1043930E+01  0.7957747E-01            NaN
         13   -1    0    0    0    0  0.00000000000E+00  0.00000000000E+00  0.74505805969E-08  0.10566000000E+00  0.10566000000E+00 0.  1.
     999900   -1    0    0    0    0 -0.00000000000E+00 -0.00000000000E+00 -0.74505805969E-08  0.93827000000E+00  0.93827000000E+00 0. -1.
     999903    2    1    2    0    0  0.87478284470E-01 -0.19574174287E-01 -0.64961779223E-01  0.11238113407E+00  0.19336183252E-01 0.  0.
         14    1    1    2    0    0  0.32009236780E-01 -0.23660369457E-01 -0.23787022048E-02  0.39875588350E-01  0.00000000000E+00 0. -1.
     999901    1    1    2    0    0 -0.11948752125E+00  0.43234543744E-01  0.67340481428E-01  0.89167327758E+00  0.88000000000E+00 0.  1.
        -11    1    3    3    0    0  0.73051566461E-01 -0.13125041550E-01 -0.44566073307E-01  0.86574788993E-01  0.51100000000E-03 0. -1.
         11    1    3    3    0    0  0.14426718009E-01 -0.64491327371E-02 -0.20395705916E-01  0.25806345080E-01  0.51100000000E-03 0.  1.
</event>
<event>
 8    1  0.1138737E+005  0.1043930E+01  0.7957747E-01            NaN
         13   -1    0    0    0    0  0.00000000000E+00  0.00000000000E+00  0.74505805969E-08  0.10566000000E+00  0.10566000000E+00 0. -1.
     999900   -1    0    0    0    0 -0.00000000000E+00 -0.00000000000E+00 -0.74505805969E-08  0.93827000000E+00  0.93827000000E+00 0.  1.
     999902    2    1    2    0    0 -0.52973971198E-02 -0.11395840604E-01  0.20107929951E-01  0.10202180527E+01  0.10199424584E+01 0.  0.
     999903    2    3    3    0    0  0.46564863276E-01  0.10838242719E+00  0.50858342897E-01  0.13005957499E+00  0.20344163486E-01 0.  0.
         14    1    1    2    0    0  0.52973971198E-02  0.11395840604E-01 -0.20107929951E-01  0.23711947331E-01  0.00000000000E+00 0.  1.
     999901    1    3    3    0    0 -0.51862260396E-01 -0.11977826780E+00 -0.30750412946E-01  0.89015847768E+00  0.88000000000E+00 0.  1.
        -11    1    4    4    0    0  0.26911621131E-01  0.82027151979E-01  0.42011228006E-01  0.96009861021E-01  0.51100000000E-03 0. -1.
         11    1    4    4    0    0  0.19653242145E-01  0.26355275213E-01  0.88471148915E-02  0.34049713968E-01  0.51100000000E-03 0.  1.
</event>
<event>
 8    1  0.1138737E+005  0.1043930E+01  0.7957747E-01            NaN
         13   -1    0    0    0    0  0.00000000000E+00  0.00000000000E+00  0.74505805969E-08  0.10566000000E+00  0.10566000000E+00 0. -1.
     999900   -1    0    0    0    0 -0.00000000000E+00 -0.00000000000E+00 -0.74505805969E-08  0.93827000000E+00  0.93827000000E+00 0. -1.
     999902    2    1    2    0    0 -0.44776438736E-02  0.21036214704E-01 -0.14601963294E-01  0.10179340589E+01  0.10176020633E+01 0.  0.
     999903    2    3    3    0    0 -0.48903645379E-01  0.13800229250E-01  0.11494314817E+00  0.12731182413E+00  0.20355844202E-01 0.  0.
         14    1    1    2    0    0  0.44776438736E-02 -0.21036214704E-01  0.14601963294E-01  0.25995941140E-01  0.00000000000E+00 0.  1.
     999901    1    3    3    0    0  0.44426001505E-01  0.72359854538E-02 -0.12954511146E+00  0.89062223473E+00  0.88000000000E+00 0. -1.
        -11    1    4    4    0    0 -0.12926431642E-01  0.13377292012E-01  0.43692807881E-01  0.47490706018E-01  0.51100000000E-03 0.  1.
         11    1    4    4    0    0 -0.35977213737E-01  0.42293723742E-03  0.71250340288E-01  0.79821118110E-01  0.51100000000E-03 0. -1.
</event>
<event>
 8    1  0.1138737E+005  0.1043930E+01  0.7957747E-01            NaN
         13   -1    0    0    0    0  0.00000000000E+00  0.00000000000E+00  0.74505805969E-08  0.10566000000E+00  0.10566000000E+00 0.  1.
     999900   -1    0    0    0    0 -0.00000000000E+00 -0.00000000000E+00 -0.74505805969E-08  0.93827000000E+00  0.93827000000E+00 0.  1.
     999902    2    1    2    0    0  0.22993348962E-01 -0.44710603717E-02 -0.64256945275E-03  0.10204971732E+01  0.10202281035E+01 0.  0.
     999903    2    3    3    0    0  0.11597073953E+00 -0.61801704075E-01  0.14542460570E-01  0.13361376314E+00  0.19300038536E-01 0.  0.
         14    1    1    2    0    0 -0.22993348962E-01  0.44710603717E-02  0.64256945275E-03  0.23432826821E-01  0.00000000000E+00 0. -1.
     999901    1    3    3    0    0 -0.92977390567E-01  0.57330643703E-01 -0.15185030023E-01  0.88688341004E+00  0.88000000000E+00 0.  1.
        -11    1    4    4    0    0  0.23409604230E-01 -0.13602164372E-01 -0.47293356687E-02  0.27489201202E-01  0.51100000000E-03 0.  1.
         11    1    4    4    0    0  0.92561135299E-01 -0.48199539703E-01  0.19271796239E-01  0.10612456194E+00  0.51100000000E-03 0. -1.
</event>
<event>
 8    1  0.1138737E+005  0.1043930E+01  0.7957747E-01            NaN
         13   -1    0    0    0    0  0.00000000000E+00  0.00000000000E+00  0.74505805969E-08  0.10566000000E+00  0.10566000000E+00 0. -1.
     999900   -1    0    0    0    0 -0.00000000000E+00 -0.00000000000E+00 -0.74505805969E-08  0.93827000000E+00  0.93827000000E+00 0.  1.
     999902    2    1    2    0    0  0.15201403258E-02 -0.15334476029E-01 -0.17107950630E-01  0.10209052534E+01  0.10206455788E+01 0.  0.
     999903    2    3    3    0    0 -0.42197883425E-03  0.81038594701E-01 -0.10162054323E+00  0.13161681936E+00  0.20707980005E-01 0.  0.
         14    1    1    2    0    0 -0.15201403258E-02  0.15334476029E-01  0.17107950630E-01  0.23024746610E-01  0.00000000000E+00 0. -1.
     999901    1    3    3    0    0  0.19421191601E-02 -0.96373070730E-01  0.84512592598E-01  0.88928843403E+00  0.88000000000E+00 0. -1.
        -11    1    4    4    0    0 -0.57642726913E-02  0.67804229886E-01 -0.74068391011E-01  0.10058343849E+00  0.51100000000E-03 0.  1.
         11    1    4    4    0    0  0.53422938571E-02  0.13234364815E-01 -0.27552152217E-01  0.31033380874E-01  0.51100000000E-03 0. -1.
</event>
<event>
 8    1  0.1138737E+005  0.1043930E+01  0.7957747E-01            NaN
         13   -1    0    0    0    0  0.00000000000E+00  0.00000000000E+00  0.74505805969E-08  0.10566000000E+00  0.10566000000E+00 0. -1.
     999900   -1    0    0    0    0 -0.00000000000E+00 -0.00000000000E+00 -0.74505805969E-08  0.93827000000E+00  0.93827000000E+00 0. -1.
     999902    2    1    2    0    0  0.62968180651E-02  0.86557686321E-03 -0.22446939946E-01  0.10206005282E+01  0.10203338542E+01 0.  0.
     999903    2    3    3    0    0  0.26650302234E-01  0.12679161354E+00 -0.87212020955E-02  0.13129741514E+00  0.19406184179E-01 0.  0.
         14    1    1    2    0    0 -0.62968180651E-02 -0.86557686321E-03  0.22446939946E-01  0.23329471789E-01  0.00000000000E+00 0. -1.
     999901    1    3    3    0    0 -0.20353484169E-01 -0.12592603668E+00 -0.13725737850E-01  0.88930311307E+00  0.88000000000E+00 0. -1.
        -11    1    4    4    0    0  0.21207007760E-01  0.10630149907E+00 -0.14383413132E-01  0.10934756320E+00  0.51100000000E-03 0.  1.
         11    1    4    4    0    0  0.54432944739E-02  0.20490114471E-01  0.56622110362E-02  0.21949851949E-01  0.51100000000E-03 0. -1.
</event>
<event>
 8    1  0.1138737E+005  0.1043930E+01  0.7957747E-01            NaN
         13   -1    0    0    0    0  0.00000000000E+00  0.00000000000E+00  0.74505805969E-08  0.10566000000E+00  0.10566000000E+00 0.  1.
     999900   -1    0    0    0    0 -0.00000000000E+00 -0.00000000000E+00 -0.74505805969E-08  0.93827000000E+00  0.93827000000E+00 0. -1.
     999902    2    1    2    0    0  0.12273278291E-01  0.11454732401E-01  0.16471727170E-01  0.10204106027E+01  0.10201395179E+01 0.  0.
     999903    2    3    3    0    0 -0.92498651324E-01 -0.11585752970E-01 -0.85361523661E-01  0.12806648062E+00  0.20596202748E-01 0.  0.
         14    1    1    2    0    0 -0.12273278291E-01 -0.11454732401E-01 -0.16471727170E-01  0.23519397321E-01  0.00000000000E+00 0. -1.
     999901    1    3    3    0    0  0.10477192961E+00  0.23040485371E-01  0.10183325083E+00  0.89234412206E+00  0.88000000000E+00 0.  1.
        -11    1    4    4    0    0 -0.85224630056E-01 -0.46118080732E-02 -0.77282474847E-01  0.11514055924E+00  0.51100000000E-03 0. -1.
         11    1    4    4    0    0 -0.72740212682E-02 -0.69739448966E-02 -0.80790488141E-02  0.12925921382E-01  0.51100000000E-03 0.  1.
</event>
<event>
 8    1  0.1138737E+005  0.1043930E+01  0.7957747E-01            NaN
         13   -1    0    0    0    0  0.00000000000E+00  0.00000000000E+00  0.74505805969E-08  0.10566000000E+00  0.10566000000E+00 0.  1.
     999900   -1    0    0    0    0 -0.00000000000E+00 -0.00000000000E+00 -0.74505805969E-08  0.93827000000E+00  0.93827000000E+00 0.  1.
     999902    2    1    2    0    0  0.18915045885E-01  0.72601502924E-02  0.10927211963E-01  0.10209106016E+01  0.10206510489E+01 0.  0.
     999903    2    3    3    0    0  0.91188548173E-01 -0.80911240181E-01  0.48589968273E-01  0.13275738480E+00  0.20038914570E-01 0.  0.
         14    1    1    2    0    0 -0.18915045885E-01 -0.72601502924E-02 -0.10927211963E-01  0.23019398437E-01  0.00000000000E+00 0. -1.
     999901    1    3    3    0    0 -0.72273502288E-01  0.88171390473E-01 -0.37662756309E-01  0.88815321676E+00  0.88000000000E+00 0.  1.
        -11    1    4    4    0    0  0.48692376289E-01 -0.43434428325E-01  0.36686424651E-01  0.74857544358E-01  0.51100000000E-03 0. -1.
         11    1    4    4    0    0  0.42496171884E-01 -0.37476811856E-01  0.11903543621E-01  0.57899840444E-01  0.51100000000E-03 0.  1.
</event>
<event>
 8    1  0.1138737E+005  0.1043930E+01  0.7957747E-01            NaN
         13   -1    0    0    0    0  0.00000000000E+00  0.00000000000E+00  0.74505805969E-08  0.10566000000E+00  0.10566000000E+00 0. -1.
     999900   -1    0    0    0    0 -0.00000000000E+00 -0.00000000000E+00 -0.74505805969E-08  0.93827000000E+00  0.93827000000E+00 0. -1.
     999902    2    1    2    0    0  0.22336932218E-01  0.60431778177E-02 -0.67202421626E-02  0.10198339382E+01  0.10195492344E+01 0.  0.
     999903    2    3    3    0    0 -0.10925347136E+00  0.12331061407E-01 -0.62228886687E-01  0.12829774634E+00  0.22349525711E-01 0.  0.
         14    1    1    2    0    0 -0.22336932218E-01 -0.60431778177E-02  0.67202421626E-02  0.24096061790E-01  0.00000000000E+00 0. -1.
     999901    1    3    3    0    0  0.13159040357E+00 -0.62878835888E-02  0.55508644525E-01  0.89153619187E+00  0.88000000000E+00 0. -1.
        -11    1    4    4    0    0 -0.51789474542E-01  0.11601477424E-01 -0.40863960950E-01  0.66984090479E-01  0.51100000000E-03 0.  1.
         11    1    4    4    0    0 -0.57463996814E-01  0.72958398255E-03 -0.21364925738E-01  0.61313655864E-01  0.51100000000E-03 0. -1.
</event>
<event>
 8    1  0.1138737E+005  0.1043930E+01  0.7957747E-01            NaN
         13   -1    0    0    0    0  0.00000000000E+00  0.00000000000E+00  0.74505805969E-08  0.10566000000E+00  0.10566000000E+00 0.  1.
     999900   -1    0    0    0    0 -0.00000000000E+00 -0.00000000000E+00 -0.74505805969E-08  0.93827000000E+00  0.93827000000E+00 0. -1.
     999902    2    1    2    0    0  0.15280655599E-01 -0.67383161401E-02 -0.16551100525E-01  0.10204174019E+01  0.10201464757E+01 0.  0.
     999903    2    3    3    0    0 -0.97668612529E-01  0.74712226766E-01  0.29960072804E-01  0.12825429051E+00  0.20748069085E-01 0.  0.
         14    1    1    2    0    0 -0.15280655599E-01  0.67383161401E-02  0.16551100525E-01  0.23512598081E-01  0.00000000000E+00 0.  1.
     999901    1    3    3    0    0  0.11294926813E+00 -0.81450542906E-01 -0.46511173328E-01  0.89216311141E+00  0.88000000000E+00 0.  1.
        -11    1    4    4    0    0 -0.61663756222E-01  0.43717455870E-01  0.28300516150E-01  0.80714404629E-01  0.51100000000E-03 0.  1.
         11    1    4    4    0    0 -0.36004856307E-01  0.30994770896E-01  0.16595566535E-02  0.47539885884E-01  0.51100000000E-03 0. -1.
</event>
<event>
 8    1  0.1138737E+005  0.1043930E+01  0.7957747E-01            NaN
         13   -1    0    0    0    0  0.00000000000E+00  0.00000000000E+00  0.74505805969E-08  0.10566000000E+00  0.10566000000E+00 0.  1.
     999900   -1    0    0    0    0 -0.00000000000E+00 -0.00000000000E+00 -0.74505805969E-08  0.93827000000E+00  0.93827000000E+00 0.  1.
     999902    2    1    2    0    0  0.80039055268E-02  0.21697239718E-01  0.14281314287E-02  0.10207594956E+01  0.10204964848E+01 0.  0.
     999903    2    3    3    0    0  0.77009790015E-02 -0.98374191475E-01 -0.80086740935E-01  0.12887277926E+00  0.21389729660E-01 0.  0.
         14    1    1    2    0    0 -0.80039055268E-02 -0.21697239718E-01 -0.14281314287E-02  0.23170504407E-01  0.00000000000E+00 0. -1.
     999901    1    3    3    0    0  0.30292652535E-03  0.12007143119E+00  0.81514872364E-01  0.89188671633E+00  0.88000000000E+00 0.  1.
        -11    1    4    4    0    0 -0.38763373616E-02 -0.72184298711E-01 -0.58932589449E-01  0.93267948363E-01  0.51100000000E-03 0. -1.
         11    1    4    4    0    0  0.11577316363E-01 -0.26189892765E-01 -0.21154151486E-01  0.35604830898E-01  0.51100000000E-03 0.  1.
</event>
<event>
 8    1  0.1138737E+005  0.1043930E+01  0.7957747E-01            NaN
         13   -1    0    0    0    0  0.00000000000E+00  0.00000000000E+00  0.74505805969E-08  0.10566000000E+00  0.10566000000E+00 0. -1.
     999900   -1    0    0    0    0 -0.00000000000E+00 -0.00000000000E+00 -0.74505805969E-08  0.93827000000E+00  0.93827000000E+00 0.  1.
     999902    2    1    2    0    0 -0.14904167702E-02 -0.10908154843E-01  0.13391714817E-01  0.10265937025E+01  0.10264473113E+01 0.  0.
     999903    2    3    3    0    0  0.12147807498E+00 -0.21726174268E-01  0.56072958291E-01  0.13695334371E+00  0.19572745144E-01 0.  0.
         14    1    1    2    0    0  0.14904167702E-02  0.10908154843E-01 -0.13391714817E-01  0.17336297470E-01  0.00000000000E+00 0.  1.
     999901    1    3    3    0    0 -0.12296849175E+00  0.10818019425E-01 -0.42681243474E-01  0.88964035883E+00  0.88000000000E+00 0.  1.
        -11    1    4    4    0    0  0.38686056605E-01  0.19457535035E-02  0.14898027212E-01  0.41504328307E-01  0.51100000000E-03 0. -1.
         11    1    4    4    0    0  0.82792018370E-01 -0.23671927772E-01  0.41174931079E-01  0.95449015398E-01  0.51100000000E-03 0.  1.
</event>
<event>
 8    1  0.1138737E+005  0.1043930E+01  0.7957747E-01            NaN
         13   -1    0    0    0    0  0.00000000000E+00  0.00000000000E+00  0.74505805969E-08  0.10566000000E+00  0.10566000000E+00 0.  1.
     999900   -1    0    0    0    0 -0.00000000000E+00 -0.00000000000E+00 -0.74505805969E-08  0.93827000000E+00  0.93827000000E+00 0. -1.
     999902    2    1    2    0    0 -0.18582425906E-01 -0.10232140282E-01  0.12552457818E-01  0.10192811168E+01  0.10189830360E+01 0.  0.
     999903    2    3    3    0    0  0.67494757058E-01 -0.68181116360E-01 -0.82599882197E-01  0.12809015347E+00  0.19497179750E-01 0.  0.
         14    1    1    2    0    0  0.18582425906E-01  0.10232140282E-01 -0.12552457818E-01  0.24648883232E-01  0.00000000000E+00 0. -1.
     999901    1    3    3    0    0 -0.86077182965E-01  0.57948976078E-01  0.95152340015E-01  0.89119096330E+00  0.88000000000E+00 0. -1.
        -11    1    4    4    0    0  0.34664144618E-02 -0.12662664246E-01 -0.10372880063E-01  0.16739679114E-01  0.51100000000E-03 0.  1.
         11    1    4    4    0    0  0.64028342597E-01 -0.55518452114E-01 -0.72227002134E-01  0.11135047435E+00  0.51100000000E-03 0. -1.
</event>
<event>
 8    1  0.1138737E+005  0.1043930E+01  0.7957747E-01            NaN
         13   -1    0    0    0    0  0.00000000000E+00  0.00000000000E+00  0.74505805969E-08  0.10566000000E+00  0.10566000000E+00 0.  1.
     999900   -1    0    0    0    0 -0.00000000000E+00 -0.00000000000E+00 -0.74505805969E-08  0.93827000000E+00  0.93827000000E+00 0.  1.
     999902    2    1    2    0    0 -0.12835601286E-01 -0.62150481610E-02 -0.18252815913E-01  0.10207665639E+01  0.10205037154E+01 0.  0.
     999903    2    3    3    0    0  0.75938607155E-01 -0.10087556166E+00 -0.29236455265E-01  0.13118120360E+00  0.20277743043E-01 0.  0.
         14    1    1    2    0    0  0.12835601286E-01  0.62150481610E-02  0.18252815913E-01  0.23163436118E-01  0.00000000000E+00 0. -1.
     999901    1    3    3    0    0 -0.88774208441E-01  0.94660513503E-01  0.10983639352E-01  0.88958536029E+00  0.88000000000E+00 0.  1.
        -11    1    4    4    0    0  0.29548052920E-01 -0.28099795816E-01 -0.26145656949E-02  0.40862978734E-01  0.51100000000E-03 0.  1.
         11    1    4    4    0    0  0.46390554235E-01 -0.72775765848E-01 -0.26621889570E-01  0.90318224862E-01  0.51100000000E-03 0. -1.
</event>
<event>
 8    1  0.1138737E+005  0.1043930E+01  0.7957747E-01            NaN
         13   -1    0    0    0    0  0.00000000000E+00  0.00000000000E+00  0.74505805969E-08  0.10566000000E+00  0.10566000000E+00 0. -1.
     999900   -1    0    0    0    0 -0.00000000000E+00 -0.00000000000E+00 -0.74505805969E-08  0.93827000000E+00  0.93827000000E+00 0. -1.
     999902    2    1    2    0    0 -0.18033300535E-01  0.16941756058E-03  0.12898887986E-01  0.10217577213E+01  0.10215171223E+01 0.  0.
     999903    2    3    3    0    0  0.97766496364E-01  0.89206636276E-02  0.84711950755E-01  0.13122793897E+00  0.20169068274E-01 0.  0.
         14    1    1    2    0    0  0.18033300535E-01 -0.16941756058E-03 -0.12898887986E-01  0.22172278678E-01  0.00000000000E+00 0. -1.
     999901    1    3    3    0    0 -0.11579979690E+00 -0.87512460671E-02 -0.71813062769E-01  0.89052978235E+00  0.88000000000E+00 0. -1.
        -11    1    4    4    0    0  0.14064617240E-01  0.67197481762E-02  0.74017169830E-02  0.17263111219E-01  0.51100000000E-03 0.  1.
         11    1    4    4    0    0  0.83701879124E-01  0.22009154515E-02  0.77310233772E-01  0.11396482775E+00  0.51100000000E-03 0. -1.
</event>
<event>
 8    1  0.1138737E+005  0.1043930E+01  0.7957747E-01            NaN
         13   -1    0    0    0    0  0.00000000000E+00  0.00000000000E+00  0.74505805969E-08  0.10566000000E+00  0.10566000000E+00 0.  1.
     999900   -1    0    0    0    0 -0.00000000000E+00 -0.00000000000E+00 -0.74505805969E-08  0.93827000000E+00  0.93827000000E+00 0.  1.
     999902    2    1    2    0    0 -0.74521201904E-02  0.62774349328E-02  0.21679091915E-01  0.10201618846E+01  0.10198849677E+01 0.  0.
     999903    2    3    3    0    0  0.25737901959E-01 -0.10131534874E+00  0.76896076948E-01  0.13127117132E+00  0.19795814785E-01 0.  0.
         14    1    1    2    0    0  0.74521201904E-02 -0.62774349328E-02 -0.21679091915E-01  0.23768115426E-01  0.00000000000E+00 0. -1.
     999901    1    3    3    0    0 -0.33190022149E-01  0.10759278367E+00 -0.55216985033E-01  0.88889071325E+00  0.88000000000E+00 0.  1.
        -11    1    4    4    0    0  0.93376709667E-02 -0.23194493710E-01  0.28517253026E-01  0.37929823077E-01  0.51100000000E-03 0.  1.
         11    1    4    4    0    0  0.16400230992E-01 -0.78120855030E-01  0.48378823922E-01  0.93341348245E-01  0.51100000000E-03 0. -1.
</event>
<event>
 8    1  0.1138737E+005  0.1043930E+01  0.7957747E-01            NaN
         13   -1    0    0    0    0  0.00000000000E+00  0.00000000000E+00  0.74505805969E-08  0.10566000000E+00  0.10566000000E+00 0.  1.
     999900   -1    0    0    0    0 -0.00000000000E+00 -0.00000000000E+00 -0.74505805969E-08  0.93827000000E+00  0.93827000000E+00 0. -1.
     999902    2    1    2    0    0  0.18553141709E-01  0.98791572205E-02 -0.10714022680E-01  0.10203374780E+01  0.10200646851E+01 0.  0.
     999903    2    3    3    0    0  0.75143695373E-01 -0.10433587519E+00 -0.16497377007E-01  0.13113501980E+00  0.19790911157E-01 0.  0.
         14    1    1    2    0    0 -0.18553141709E-01 -0.98791572205E-02  0.10714022680E-01  0.23592522049E-01  0.00000000000E+00 0.  1.
     999901    1    3    3    0    0 -0.56590553664E-01  0.11421503241E+00  0.57833543272E-02  0.88920245815E+00  0.88000000000E+00 0.  1.
        -11    1    4    4    0    0  0.23605985917E-01 -0.37093175230E-01 -0.14802002442E-01  0.46395114151E-01  0.51100000000E-03 0. -1.
         11    1    4    4    0    0  0.51537709456E-01 -0.67242699958E-01 -0.16953745648E-02  0.84739905650E-01  0.51100000000E-03 0.  1.
</event>
<event>
 8    1  0.1138737E+005  0.1043930E+01  0.7957747E-01            NaN
         13   -1    0    0    0    0  0.00000000000E+00  0.00000000000E+00  0.74505805969E-08  0.10566000000E+00  0.10566000000E+00 0. -1.
     999900   -1    0    0    0    0 -0.00000000000E+00 -0.00000000000E+00 -0.74505805969E-08  0.93827000000E+00  0.93827000000E+00 0. -1.
     999902    2    1    2    0    0 -0.17226877554E-01 -0.15809775615E-01  0.34241565058E-02  0.10202986826E+01  0.10200249813E+01 0.  0.
     999903    2    3    3    0    0  0.42308633277E-01  0.38800216472E-01  0.11447121274E+00  0.12964825902E+00  0.20236977848E-01 0.  0.
         14    1    1    2    0    0  0.17226877554E-01  0.15809775615E-01 -0.34241565058E-02  0.23631317420E-01  0.00000000000E+00 0.  1.
     999901    1    3    3    0    0 -0.59535510831E-01 -0.54609992087E-01 -0.11104705624E+00  0.89065042356E+00  0.88000000000E+00 0. -1.
        -11    1    4    4    0    0  0.25430443506E-01  0.32352089524E-01  0.92181833431E-01  0.10095106086E+00  0.51100000000E-03 0.  1.
         11    1    4    4    0    0  0.16878189771E-01  0.64481269477E-02  0.22289379312E-01  0.28697198159E-01  0.51100000000E-03 0. -1.
</event>
<event>
 8    1  0.1138737E+005  0.1043930E+01  0.7957747E-01            NaN
         13   -1    0    0    0    0  0.00000000000E+00  0.00000000000E+00  0.74505805969E-08  0.10566000000E+00  0.10566000000E+00 0.  1.
     999900   -1    0    0    0    0 -0.00000000000E+00 -0.00000000000E+00 -0.74505805969E-08  0.93827000000E+00  0.93827000000E+00 0. -1.
     999902    2    1    2    0    0  0.14260975779E-02  0.18473498569E-01  0.15002241433E-01  0.10200894641E+01  0.10198108372E+01 0.  0.
     999903    2    3    3    0    0 -0.84302120486E-01  0.14317007124E-01  0.98084272188E-01  0.13201895585E+00  0.22285781176E-01 0.  0.
         14    1    1    2    0    0 -0.14260975779E-02 -0.18473498569E-01 -0.15002241433E-01  0.23840535894E-01  0.00000000000E+00 0. -1.
     999901    1    3    3    0    0  0.85728218064E-01  0.41564914450E-02 -0.83082030755E-01  0.88807050825E+00  0.88000000000E+00 0. -1.
        -11    1    4    4    0    0 -0.59054403965E-01  0.26529058434E-02  0.55059906382E-01  0.80785611026E-01  0.51100000000E-03 0. -1.
         11    1    4    4    0    0 -0.25247716521E-01  0.11664101281E-01  0.43024365806E-01  0.51233344827E-01  0.51100000000E-03 0.  1.
</event>
<event>
 8    1  0.1138737E+005  0.1043930E+01  0.7957747E-01            NaN
         13   -1    0    0    0    0  0.00000000000E+00  0.00000000000E+00  0.74505805969E-08  0.10566000000E+00  0.10566000000E+00 0. -1.
     999900   -1    0    0    0    0 -0.00000000000E+00 -0.00000000000E+00 -0.74505805969E-08  0.93827000000E+00  0.93827000000E+00 0.  1.
     999902    2    1    2    0    0 -0.12925966902E-01  0.16232663042E-01  0.98065021366E-02  0.10209790206E+01  0.10207210261E+01 0.  0.
     999903    2    3    3    0    0  0.33966363770E-01 -0.11071393378E+00 -0.52026734877E-01  0.12848942500E+00  0.19785403554E-01 0.  0.
         14    1    1    2    0    0  0.12925966902E-01 -0.16232663042E-01 -0.98065021366E-02  0.22950979368E-01  0.00000000000E+00 0.  1.
     999901    1    3    3    0    0 -0.46892330672E-01  0.12694659682E+00  0.61833237013E-01  0.89248959564E+00  0.88000000000E+00 0.  1.
        -11    1    4    4    0    0  0.52271555107E-02 -0.16805261276E-01 -0.16270805639E-01  0.23973739767E-01  0.51100000000E-03 0. -1.
         11    1    4    4    0    0  0.28739208259E-01 -0.93908672501E-01 -0.35755929238E-01  0.10451568523E+00  0.51100000000E-03 0.  1.
</event>
<event>
 8    1  0.1138737E+005  0.1043930E+01  0.7957747E-01            NaN
         13   -1    0    0    0    0  0.00000000000E+00  0.00000000000E+00  0.74505805969E-08  0.10566000000E+00  0.10566000000E+00 0.  1.
     999900   -1    0    0    0    0 -0.00000000000E+00 -0.00000000000E+00 -0.74505805969E-08  0.93827000000E+00  0.93827000000E+00 0.  1.
     999902    2    1    2    0    0 -0.10861922661E-01  0.87716051400E-04  0.18693078610E-01  0.10223100961E+01  0.10220814607E+01 0.  0.
     999903    2    3    3    0    0 -0.55028694099E-01  0.99157006887E-01  0.68978409103E-01  0.13422561667E+00  0.19955602206E-01 0.  0.
         14    1    1    2    0    0  0.10861922661E-01 -0.87716051400E-04 -0.18693078610E-01  0.21619903930E-01  0.00000000000E+00 0. -1.
     999901    1    3    3    0    0  0.44166771438E-01 -0.99069290836E-01 -0.50285330493E-01  0.88808447940E+00  0.88000000000E+00 0.  1.
        -11    1    4    4    0    0 -0.10000837832E-01  0.85736468392E-02  0.13429539705E-01  0.18818550293E-01  0.51100000000E-03 0.  1.
         11    1    4    4    0    0 -0.45027856267E-01  0.90583360048E-01  0.55548869398E-01  0.11540706638E+00  0.51100000000E-03 0. -1.
</event>
<event>
 8    1  0.1138737E+005  0.1043930E+01  0.7957747E-01            NaN
         13   -1    0    0    0    0  0.00000000000E+00  0.00000000000E+00  0.74505805969E-08  0.10566000000E+00  0.10566000000E+00 0. -1.
     999900   -1    0    0    0    0 -0.00000000000E+00 -0.00000000000E+00 -0.74505805969E-08  0.93827000000E+00  0.93827000000E+00 0. -1.
     999902    2    1    2    0    0  0.18194252120E-01  0.14036313217E-01  0.60953185922E-02  0.10201560267E+01  0.10198789717E+01 0.  0.
     999903    2    3    3    0    0 -0.44198700428E-01  0.67639901457E-01 -0.10000385292E+00  0.12997443880E+00  0.19076235293E-01 0.  0.
         14    1    1    2    0    0 -0.18194252120E-01 -0.14036313217E-01 -0.60953185922E-02  0.23773973325E-01  0.00000000000E+00 0. -1.
     999901    1    3    3    0    0  0.62392952547E-01 -0.53603588240E-01  0.10609917151E+00  0.89018158788E+00  0.88000000000E+00 0.  1.
        -11    1    4    4    0    0 -0.28298101404E-01  0.25955881218E-01 -0.45764520124E-01  0.59742302735E-01  0.51100000000E-03 0.  1.
         11    1    4    4    0    0 -0.15900599024E-01  0.41684020239E-01 -0.54239332798E-01  0.70232136063E-01  0.51100000000E-03 0. -1.
</event>
<event>
 8    1  0.1138737E+005  0.1043930E+01  0.7957747E-01            NaN
         13   -1    0    0    0    0  0.00000000000E+00  0.00000000000E+00  0.74505805969E-08  0.10566000000E+00  0.10566000000E+00 0.  1.
     999900   -1    0    0    0    0 -0.00000000000E+00 -0.00000000000E+00 -0.74505805969E-08  0.93827000000E+00  0.93827000000E+00 0.  1.
     999902    2    1    2    0    0  0.22531103814E-01  0.17607510505E-02 -0.62799880034E-02  0.10204738892E+01  0.10202042783E+01 0.  0.
     999903    2    3    3    0    0  0.66890441239E-01 -0.11184333162E+00  0.57111407607E-02  0.13198223165E+00  0.20085576553E-01 0.  0.
         14    1    1    2    0    0 -0.22531103814E-01 -0.17607510505E-02  0.62799880034E-02  0.23456110774E-01  0.00000000000E+00 0. -1.
     999901    1    3    3    0    0 -0.44359337425E-01  0.11360408267E+00 -0.11991128764E-01  0.88849165758E+00  0.88000000000E+00 0.  1.
        -11    1    4    4    0    0  0.43941204199E-01 -0.85572343582E-01  0.10502576625E-01  0.96767869922E-01  0.51100000000E-03 0.  1.
         11    1    4    4    0    0  0.22949237041E-01 -0.26270988036E-01 -0.47914358639E-02  0.35214361726E-01  0.51100000000E-03 0. -1.
</event>
<event>
 8    1  0.1138737E+005  0.1043930E+01  0.7957747E-01            NaN
         13   -1    0    0    0    0  0.00000000000E+00  0.00000000000E+00  0.74505805969E-08  0.10566000000E+00  0.10566000000E+00 0. -1.
     999900   -1    0    0    0    0 -0.00000000000E+00 -0.00000000000E+00 -0.74505805969E-08  0.93827000000E+00  0.93827000000E+00 0.  1.
     999902    2    1    2    0    0 -0.82255301967E-02 -0.27473255052E-03 -0.24393462656E-01  0.10181855667E+01  0.10178600456E+01 0.  0.
     999903    2    3    3    0    0 -0.16707183685E-01  0.12304237785E+00 -0.31261414416E-01  0.12952015334E+00  0.19484284867E-01 0.  0.
         14    1    1    2    0    0  0.82255301967E-02  0.27473255052E-03  0.24393462656E-01  0.25744433289E-01  0.00000000000E+00 0. -1.
     999901    1    3    3    0    0  0.84816534881E-02 -0.12331711040E+00  0.68679517593E-02  0.88866541337E+00  0.88000000000E+00 0.  1.
        -11    1    4    4    0    0 -0.15252959476E-01  0.42993570509E-01 -0.10776613748E-01  0.46877461565E-01  0.51100000000E-03 0. -1.
         11    1    4    4    0    0 -0.14542242088E-02  0.80048807338E-01 -0.20484800667E-01  0.82642691774E-01  0.51100000000E-03 0.  1.
</event>
<event>
 8    1  0.1138737E+005  0.1043930E+01  0.7957747E-01            NaN
         13   -1    0    0    0    0  0.00000000000E+00  0.00000000000E+00  0.74505805969E-08  0.10566000000E+00  0.10566000000E+00 0. -1.
     999900   -1    0    0    0    0 -0.00000000000E+00 -0.00000000000E+00 -0.74505805969E-08  0.93827000000E+00  0.93827000000E+00 0.  1.
     999902    2    1    2    0    0 -0.51814280458E-02 -0.35086531873E-02  0.22037487028E-01  0.10210212969E+01  0.10207642627E+01 0.  0.
     999903    2    3    3    0    0  0.88608349114E-01  0.69416136037E-01 -0.60367108104E-01  0.12922251662E+00  0.19601826096E-01 0.  0.
         14    1    1    2    0    0  0.51814280458E-02  0.35086531873E-02 -0.22037487028E-01  0.22908703112E-01  0.00000000000E+00 0.  1.
     999901    1    3    3    0    0 -0.93789777160E-01 -0.72924789225E-01  0.82404595132E-01  0.89179878026E+00  0.88000000000E+00 0. -1.
        -11    1    4    4    0    0  0.54734872477E-01  0.38080569060E-01 -0.25525325178E-01  0.71399155117E-01  0.51100000000E-03 0.  1.
         11    1    4    4    0    0  0.33873476637E-01  0.31335566977E-01 -0.34841782927E-01  0.57823361505E-01  0.51100000000E-03 0. -1.
</event>
<event>
 8    1  0.1138737E+005  0.1043930E+01  0.7957747E-01            NaN
         13   -1    0    0    0    0  0.00000000000E+00  0.00000000000E+00  0.74505805969E-08  0.10566000000E+00  0.10566000000E+00 0. -1.
     999900   -1    0    0    0    0 -0.00000000000E+00 -0.00000000000E+00 -0.74505805969E-08  0.93827000000E+00  0.93827000000E+00 0.  1.
     999902    2    1    2    0    0 -0.11355088532E-01  0.27918390451E-01  0.73593436170E-02  0.10129052599E+01  0.10124300129E+01 0.  0.
     999903    2    3    3    0    0  0.73137711300E-01  0.26040986544E-01  0.95185415431E-01  0.12450446252E+00  0.20343059781E-01 0.  0.
         14    1    1    2    0    0  0.11355088532E-01 -0.27918390451E-01 -0.73593436170E-02  0.31024740118E-01  0.00000000000E+00 0.  1.
     999901    1    3    3    0    0 -0.84492799833E-01  0.18774039070E-02 -0.87826071814E-01  0.88840079737E+00  0.88000000000E+00 0. -1.
        -11    1    4    4    0    0  0.28486338905E-01  0.19437945647E-01  0.49021214071E-01  0.59938683546E-01  0.51100000000E-03 0. -1.
         11    1    4    4    0    0  0.44651372395E-01  0.66030408971E-02  0.46164201360E-01  0.64565778971E-01  0.51100000000E-03 0.  1.
</event>
<event>
 8    1  0.1138737E+005  0.1043930E+01  0.7957747E-01            NaN
         13   -1    0    0    0    0  0.00000000000E+00  0.00000000000E+00  0.74505805969E-08  0.10566000000E+00  0.10566000000E+00 0. -1.
     999900   -1    0    0    0    0 -0.00000000000E+00 -0.00000000000E+00 -0.74505805969E-08  0.93827000000E+00  0.93827000000E+00 0.  1.
     999902    2    1    2    0    0  0.14460597737E-01 -0.17383400345E-01 -0.35823923072E-02  0.10210362229E+01  0.10207795274E+01 0.  0.
     999903    2    3    3    0    0 -0.90920108088E-01 -0.31127468484E-01  0.85458390095E-01  0.13018143481E+00  0.20215938803E-01 0.  0.
         14    1    1    2    0    0 -0.14460597737E-01  0.17383400345E-01  0.35823923072E-02  0.22893777082E-01  0.00000000000E+00 0. -1.
     999901    1    3    3    0    0  0.10538070583E+00  0.13744068139E-01 -0.89040782403E-01  0.89085478811E+00  0.88000000000E+00 0. -1.
        -11    1    4    4    0    0 -0.50086259481E-01 -0.24681572337E-01  0.39708399612E-01  0.68518840640E-01  0.51100000000E-03 0.  1.
         11    1    4    4    0    0 -0.40833848607E-01 -0.64458961466E-02  0.45749990483E-01  0.61662594167E-01  0.51100000000E-03 0. -1.
</event>
<event>
 8    1  0.1138737E+005  0.1043930E+01  0.7957747E-01            NaN
         13   -1    0    0    0    0  0.00000000000E+00  0.00000000000E+00  0.74505805969E-08  0.10566000000E+00  0.10566000000E+00 0.  1.
     999900   -1    0    0    0    0 -0.00000000000E+00 -0.00000000000E+00 -0.74505805969E-08  0.93827000000E+00  0.93827000000E+00 0. -1.
     999902    2    1    2    0    0 -0.71629958284E-02  0.80858463596E-02 -0.21043681786E-01  0.10202756988E+01  0.10200014587E+01 0.  0.
     999903    2    3    3    0    0 -0.11250065550E-01 -0.94522719805E-01 -0.88909729561E-01  0.13170886261E+00  0.19523727768E-01 0.  0.
         14    1    1    2    0    0  0.71629958284E-02 -0.80858463596E-02  0.21043681786E-01  0.23654301167E-01  0.00000000000E+00 0.  1.
     999901    1    3    3    0    0  0.40870697213E-02  0.10260856616E+00  0.67866047775E-01  0.88856683622E+00  0.88000000000E+00 0.  1.
        -11    1    4    4    0    0  0.18655996777E-02 -0.17293379439E-01 -0.82103660362E-02  0.19240911258E-01  0.51100000000E-03 0. -1.
         11    1    4    4    0    0 -0.13115665227E-01 -0.77229340366E-01 -0.80699363525E-01  0.11246795136E+00  0.51100000000E-03 0.  1.
</event>
<event>
 8    1  0.1138737E+005  0.1043930E+01  0.7957747E-01            NaN
         13   -1    0    0    0    0  0.00000000000E+00  0.00000000000E+00  0.74505805969E-08  0.10566000000E+00  0.10566000000E+00 0. -1.
     999900   -1    0    0    0    0 -0.00000000000E+00 -0.00000000000E+00 -0.74505805969E-08  0.93827000000E+00  0.93827000000E+00 0. -1.
     999902    2    1    2    0    0 -0.69298546377E-02  0.29844475777E-01 -0.10414700466E-02  0.10132738378E+01  0.10128099872E+01 0.  0.
     999903    2    3    3    0    0  0.11490619655E+00  0.13326050972E-02  0.39773644146E-01  0.12348575986E+00  0.21484419373E-01 0.  0.
         14    1    1    2    0    0  0.69298546377E-02 -0.29844475777E-01  0.10414700466E-02  0.30656162179E-01  0.00000000000E+00 0. -1.
     999901    1    3    3    0    0 -0.12183605119E+00  0.28511870680E-01 -0.40815114193E-01  0.88978807796E+00  0.88000000000E+00 0.  1.
        -11    1    4    4    0    0  0.70333695801E-01  0.15727781165E-02  0.13172245673E-01  0.71575635331E-01  0.51100000000E-03 0.  1.
         11    1    4    4    0    0  0.44572500754E-01 -0.24017301929E-03  0.26601398474E-01  0.51910124526E-01  0.51100000000E-03 0. -1.
</event>
<event>
 8    1  0.1138737E+005  0.1043930E+01  0.7957747E-01            NaN
         13   -1    0    0    0    0  0.00000000000E+00  0.00000000000E+00  0.74505805969E-08  0.10566000000E+00  0.10566000000E+00 0.  1.
     999900   -1    0    0    0    0 -0.00000000000E+00 -0.00000000000E+00 -0.74505805969E-08  0.93827000000E+00  0.93827000000E+00 0.  1.
     999902    2    1    2    0    0 -0.26446234698E-02  0.17297043210E-01  0.16470156657E-01  0.10198998565E+01  0.10196167267E+01 0.  0.
     999903    2    3    3    0    0 -0.90509829387E-01 -0.13801605974E-01 -0.88180196500E-01  0.12881113093E+00  0.20833791153E-01 0.  0.
         14    1    1    2    0    0  0.26446234698E-02 -0.17297043210E-01 -0.16470156657E-01  0.24030143516E-01  0.00000000000E+00 0. -1.
     999901    1    3    3    0    0  0.87865205917E-01  0.31098649184E-01  0.10465035316E+00  0.89108872555E+00  0.88000000000E+00 0.  1.
        -11    1    4    4    0    0 -0.25902989978E-01  0.53746414881E-02 -0.23137919281E-01  0.35149339831E-01  0.51100000000E-03 0. -1.
         11    1    4    4    0    0 -0.64606839409E-01 -0.19176247462E-01 -0.65042277219E-01  0.93661791100E-01  0.51100000000E-03 0.  1.
</event>
<event>
 8    1  0.1138737E+005  0.1043930E+01  0.7957747E-01            NaN
         13   -1    0    0    0    0  0.00000000000E+00  0.00000000000E+00  0.74505805969E-08  0.10566000000E+00  0.10566000000E+00 0. -1.
     999900   -1    0    0    0    0 -0.00000000000E+00 -0.00000000000E+00 -0.74505805969E-08  0.93827000000E+00  0.93827000000E+00 0.  1.
     999902    2    1    2    0    0 -0.12532129110E-01 -0.20148369955E-01  0.47984072879E-02  0.10197218240E+01  0.10194344327E+01 0.  0.
     999903    2    3    3    0    0  0.21565551149E-02 -0.80572703427E-01  0.10260107855E+00  0.13212269151E+00  0.20804158876E-01 0.  0.
         14    1    1    2    0    0  0.12532129110E-01  0.20148369955E-01 -0.47984072879E-02  0.24208175981E-01  0.00000000000E+00 0.  1.
     999901    1    3    3    0    0 -0.14688684225E-01  0.60424333472E-01 -0.97802671257E-01  0.88759913251E+00  0.88000000000E+00 0.  1.
        -11    1    4    4    0    0 -0.36148921702E-02 -0.49742033723E-01  0.48408213191E-01  0.69505061611E-01  0.51100000000E-03 0. -1.
         11    1    4    4    0    0  0.57714472851E-02 -0.30830669704E-01  0.54192865354E-01  0.62617629901E-01  0.51100000000E-03 0.  1.
</event>
<event>
 8    1  0.1138737E+005  0.1043930E+01  0.7957747E-01            NaN
         13   -1    0    0    0    0  0.00000000000E+00  0.00000000000E+00  0.74505805969E-08  0.10566000000E+00  0.10566000000E+00 0. -1.
     999900   -1    0    0    0    0 -0.00000000000E+00 -0.00000000000E+00 -0.74505805969E-08  0.93827000000E+00  0.93827000000E+00 0. -1.
     999902    2    1    2    0    0  0.58501806380E-02 -0.23597491783E-01 -0.21214021788E-02  0.10195257672E+01  0.10192336451E+01 0.  0.
     999903    2    3    3    0    0 -0.82585755461E-01  0.78961916974E-01  0.52665809750E-01  0.12748261481E+00  0.20560598830E-01 0.  0.
         14    1    1    2    0    0 -0.58501806380E-02  0.23597491783E-01  0.21214021788E-02  0.24404232812E-01  0.00000000000E+00 0. -1.
     999901    1    3    3    0    0  0.88435936099E-01 -0.10255940876E+00 -0.54787211928E-01  0.89204315238E+00  0.88000000000E+00 0. -1.
        -11    1    4    4    0    0 -0.64566831650E-01  0.49692659792E-01  0.40765565145E-01  0.91106139251E-01  0.51100000000E-03 0.  1.
         11    1    4    4    0    0 -0.18018923811E-01  0.29269257182E-01  0.11900244605E-01  0.36376475557E-01  0.51100000000E-03 0. -1.
</event>
<event>
 8    1  0.1138737E+005  0.1043930E+01  0.7957747E-01            NaN
         13   -1    0    0    0    0  0.00000000000E+00  0.00000000000E+00  0.74505805969E-08  0.10566000000E+00  0.10566000000E+00 0. -1.
     999900   -1    0    0    0    0 -0.00000000000E+00 -0.00000000000E+00 -0.74505805969E-08  0.93827000000E+00  0.93827000000E+00 0.  1.
     999902    2    1    2    0    0 -0.16028281046E-01  0.16004547439E-02 -0.11566070691E-01  0.10240996889E+01  0.10239076772E+01 0.  0.
     999903    2    3    3    0    0  0.76029653009E-01 -0.47337484468E-01  0.94254770726E-01  0.13164933417E+00  0.20645576020E-01 0.  0.
         14    1    1    2    0    0  0.16028281046E-01 -0.16004547439E-02  0.11566070691E-01  0.19830311140E-01  0.00000000000E+00 0. -1.
     999901    1    3    3    0    0 -0.92057934055E-01  0.48937939212E-01 -0.10582084142E+00  0.89245035469E+00  0.88000000000E+00 0.  1.
        -11    1    4    4    0    0  0.53020975097E-01 -0.41160152612E-01  0.77455939111E-01  0.10249422222E+00  0.51100000000E-03 0. -1.
         11    1    4    4    0    0  0.23008677911E-01 -0.61773318561E-02  0.16798831614E-01  0.29155111948E-01  0.51100000000E-03 0.  1.
</event>
<event>
 8    1  0.1138737E+005  0.1043930E+01  0.7957747E-01            NaN
         13   -1    0    0    0    0  0.00000000000E+00  0.00000000000E+00  0.74505805969E-08  0.10566000000E+00  0.10566000000E+00 0.  1.
     999900   -1    0    0    0    0 -0.00000000000E+00 -0.00000000000E+00 -0.74505805969E-08  0.93827000000E+00  0.93827000000E+00 0.  1.
     999902    2    1    2    0    0 -0.19296900903E-01 -0.88838219426E-02  0.10193428291E-01  0.10203673461E+01  0.10200952516E+01 0.  0.
     999903    2    3    3    0    0 -0.88247995909E-01  0.59557810278E-01  0.76448711956E-01  0.13254513807E+00  0.19722234132E-01 0.  0.
         14    1    1    2    0    0  0.19296900903E-01  0.88838219426E-02 -0.10193428291E-01  0.23562653863E-01  0.00000000000E+00 0. -1.
     999901    1    3    3    0    0  0.68951095007E-01 -0.68441632220E-01 -0.66255283664E-01  0.88782220807E+00  0.88000000000E+00 0.  1.
        -11    1    4    4    0    0 -0.87366822216E-01  0.59969466688E-01  0.77290003646E-01  0.13116136757E+00  0.51100000000E-03 0. -1.
         11    1    4    4    0    0 -0.88117369332E-03 -0.41165641046E-03 -0.84129169086E-03  0.13837704966E-02  0.51100000000E-03 0.  1.
</event>
<event>
 8    1  0.1138737E+005  0.1043930E+01  0.7957747E-01            NaN
         13   -1    0    0    0    0  0.00000000000E+00  0.00000000000E+00  0.74505805969E-08  0.10566000000E+00  0.10566000000E+00 0.  1.
     999900   -1    0    0    0    0 -0.00000000000E+00 -0.00000000000E+00 -0.74505805969E-08  0.93827000000E+00  0.93827000000E+00 0.  1.
     999902    2    1    2    0    0 -0.21018193918E-01 -0.29884560332E-02  0.10608193283E-01  0.10201975515E+01  0.10199214749E+01 0.  0.
     999903    2    3    3    0    0 -0.11012378443E+00  0.23716110583E-01 -0.65760778142E-01  0.13200547776E+00  0.20279655277E-01 0.  0.
         14    1    1    2    0    0  0.21018193918E-01  0.29884560332E-02 -0.10608193283E-01  0.23732448457E-01  0.00000000000E+00 0. -1.
     999901    1    3    3    0    0  0.89105590510E-01 -0.26704566616E-01  0.76368971425E-01  0.88819207379E+00  0.88000000000E+00 0. -1.
        -11    1    4    4    0    0 -0.49218933674E-01  0.16534688575E-01 -0.39730948194E-01  0.65381256669E-01  0.51100000000E-03 0. -1.
         11    1    4    4    0    0 -0.60904850754E-01  0.71814220079E-02 -0.26029829948E-01  0.66624221088E-01  0.51100000000E-03 0.  1.
</event>
<event>
 8    1  0.1138737E+005  0.1043930E+01  0.7957747E-01            NaN
         13   -1    0    0    0    0  0.00000000000E+00  0.00000000000E+00  0.74505805969E-08  0.10566000000E+00  0.10566000000E+00 0.  1.
     999900   -1    0    0    0    0 -0.00000000000E+00 -0.00000000000E+00 -0.74505805969E-08  0.93827000000E+00  0.93827000000E+00 0.  1.
     999902    2    1    2    0    0  0.11566234028E-01 -0.19762512909E-01 -0.63748939291E-02  0.10201608191E+01  0.10198838772E+01 0.  0.
     999903    2    3    3    0    0  0.13821688972E-01 -0.14523363650E-01 -0.12851234282E+00  0.13170705434E+00  0.20720973196E-01 0.  0.
         14    1    1    2    0    0 -0.11566234028E-01  0.19762512909E-01  0.63748939291E-02  0.23769180858E-01  0.00000000000E+00 0.  1.
     999901    1    3    3    0    0 -0.22554549446E-02 -0.52391492589E-02  0.12213744889E+00  0.88845376480E+00  0.88000000000E+00 0. -1.
        -11    1    4    4    0    0  0.76603933239E-02 -0.14133475843E-01 -0.12055251128E+00  0.12162074601E+00  0.51100000000E-03 0.  1.
         11    1    4    4    0    0  0.61612956485E-02 -0.38988780743E-03 -0.79598315404E-02  0.10086308330E-01  0.51100000000E-03 0. -1.
</event>
<event>
 8    1  0.1138737E+005  0.1043930E+01  0.7957747E-01            NaN
         13   -1    0    0    0    0  0.00000000000E+00  0.00000000000E+00  0.74505805969E-08  0.10566000000E+00  0.10566000000E+00 0.  1.
     999900   -1    0    0    0    0 -0.00000000000E+00 -0.00000000000E+00 -0.74505805969E-08  0.93827000000E+00  0.93827000000E+00 0.  1.
     999902    2    1    2    0    0  0.17613495399E-01 -0.90652797722E-02 -0.13296941043E-01  0.10200716019E+01  0.10197925524E+01 0.  0.
     999903    2    3    3    0    0  0.11358728439E+00  0.49164688431E-01  0.39645501163E-01  0.13136208833E+00  0.19104835116E-01 0.  0.
         14    1    1    2    0    0 -0.17613495399E-01  0.90652797722E-02  0.13296941043E-01  0.23858398073E-01  0.00000000000E+00 0.  1.
     999901    1    3    3    0    0 -0.95973788989E-01 -0.58229968203E-01 -0.52942442206E-01  0.88870951360E+00  0.88000000000E+00 0. -1.
        -11    1    4    4    0    0  0.49590111918E-01  0.20358936174E-01  0.73698864610E-02  0.54113231558E-01  0.51100000000E-03 0. -1.
         11    1    4    4    0    0  0.63997172470E-01  0.28805752257E-01  0.32275614702E-01  0.77248856772E-01  0.51100000000E-03 0.  1.
</event>
<event>
 8    1  0.1138737E+005  0.1043930E+01  0.7957747E-01            NaN
         13   -1    0    0    0    0  0.00000000000E+00  0.00000000000E+00  0.74505805969E-08  0.10566000000E+00  0.10566000000E+00 0. -1.
     999900   -1    0    0    0    0 -0.00000000000E+00 -0.00000000000E+00 -0.74505805969E-08  0.93827000000E+00  0.93827000000E+00 0.  1.
     999902    2    1    2    0    0  0.15462885587E-01  0.86889306505E-02 -0.16289631098E-01  0.10198478401E+01  0.10195634686E+01 0.  0.
     999903    2    3    3    0    0 -0.15430385288E-01 -0.12511401566E+00 -0.16181376608E-01  0.12919772112E+00  0.23207767896E-01 0.  0.
         14    1    1    2    0    0 -0.15462885587E-01 -0.86889306505E-02  0.16289631098E-01  0.24082159950E-01  0.00000000000E+00 0.  1.
     999901    1    3    3    0    0  0.30893270875E-01  0.13380294631E+00 -0.10825449086E-03  0.89065011893E+00  0.88000000000E+00 0. -1.
        -11    1    4    4    0    0 -0.74584958418E-02 -0.40020869732E-01  0.53416023287E-02  0.41062062914E-01  0.51100000000E-03 0.  1.
         11    1    4    4    0    0 -0.79718894463E-02 -0.85093145924E-01 -0.21522978936E-01  0.88135658209E-01  0.51100000000E-03 0. -1.
</event>
<event>
 8    1  0.1138737E+005  0.1043930E+01  0.7957747E-01            NaN
         13   -1    0    0    0    0  0.00000000000E+00  0.00000000000E+00  0.74505805969E-08  0.10566000000E+00  0.10566000000E+00 0.  1.
     999900   -1    0    0    0    0 -0.00000000000E+00 -0.00000000000E+00 -0.74505805969E-08  0.93827000000E+00  0.93827000000E+00 0.  1.
     999902    2    1    2    0    0  0.68855097875E-02  0.62642785265E-02 -0.21643463964E-01  0.10203696315E+01  0.10200975904E+01 0.  0.
     999903    2    3    3    0    0 -0.63846964218E-01  0.53099065401E-03 -0.11446748557E+00  0.13264655958E+00  0.20385968831E-01 0.  0.
         14    1    1    2    0    0 -0.68855097875E-02 -0.62642785265E-02  0.21643463964E-01  0.23560368478E-01  0.00000000000E+00 0.  1.
     999901    1    3    3    0    0  0.70732474005E-01  0.57332878725E-02  0.92824021606E-01  0.88772307194E+00  0.88000000000E+00 0.  1.
        -11    1    4    4    0    0 -0.74659051408E-02 -0.39157443463E-02 -0.28639426973E-01  0.29858846122E-01  0.51100000000E-03 0.  1.
         11    1    4    4    0    0 -0.56381059077E-01  0.44467350004E-02 -0.85828058596E-01  0.10278771346E+00  0.51100000000E-03 0. -1.
</event>
<event>
 8    1  0.1138737E+005  0.1043930E+01  0.7957747E-01            NaN
         13   -1    0    0    0    0  0.00000000000E+00  0.00000000000E+00  0.74505805969E-08  0.10566000000E+00  0.10566000000E+00 0. -1.
     999900   -1    0    0    0    0 -0.00000000000E+00 -0.00000000000E+00 -0.74505805969E-08  0.93827000000E+00  0.93827000000E+00 0. -1.
     999902    2    1    2    0    0 -0.66617535599E-02 -0.14425127120E-02 -0.22335428264E-01  0.10205776734E+01  0.10203104705E+01 0.  0.
     999903    2    3    3    0    0 -0.80924257187E-01 -0.13086383362E-01  0.97937121537E-01  0.12922141159E+00  0.19659720452E-01 0.  0.
         14    1    1    2    0    0  0.66617535599E-02  0.14425127120E-02  0.22335428264E-01  0.23352326633E-01  0.00000000000E+00 0. -1.
     999901    1    3    3    0    0  0.74262503628E-01  0.11643870650E-01 -0.12027254980E+00  0.89135626177E+00  0.88000000000E+00 0. -1.
        -11    1    4    4    0    0 -0.49337410625E-01 -0.11609099188E-02  0.47311976034E-01  0.68368208959E-01  0.51100000000E-03 0. -1.
         11    1    4    4    0    0 -0.31586846563E-01 -0.11925473443E-01  0.50625145503E-01  0.60853202634E-01  0.51100000000E-03 0.  1.
</event>
<event>
 8    1  0.1138737E+005  0.1043930E+01  0.7957747E-01            NaN
         13   -1    0    0    0    0  0.00000000000E+00  0.00000000000E+00  0.74505805969E-08  0.10566000000E+00  0.10566000000E+00 0.  1.
     999900   -1    0    0    0    0 -0.00000000000E+00 -0.00000000000E+00 -0.74505805969E-08  0.93827000000E+00  0.93827000000E+00 0. -1.
     999902    2    1    2    0    0 -0.22302952316E-01  0.41791709100E-02  0.62190882703E-02  0.10204020547E+01  0.10201307705E+01 0.  0.
     999903    2    3    3    0    0  0.50576943166E-01 -0.11712082445E+00  0.25050291658E-02  0.12908899954E+00  0.19554537361E-01 0.  0.
         14    1    1    2    0    0  0.22302952316E-01 -0.41791709100E-02 -0.62190882703E-02  0.23527945308E-01  0.00000000000E+00 0. -1.
     999901    1    3    3    0    0 -0.72879895482E-01  0.12129999536E+00  0.37140591045E-02  0.89131305515E+00  0.88000000000E+00 0. -1.
        -11    1    4    4    0    0  0.21173350544E-01 -0.27566136759E-01 -0.78777520924E-03  0.34771890657E-01  0.51100000000E-03 0. -1.
         11    1    4    4    0    0  0.29403592622E-01 -0.89554687695E-01  0.32928043751E-02  0.94317108887E-01  0.51100000000E-03 0.  1.
</event>
<event>
 8    1  0.1138737E+005  0.1043930E+01  0.7957747E-01            NaN
         13   -1    0    0    0    0  0.00000000000E+00  0.00000000000E+00  0.74505805969E-08  0.10566000000E+00  0.10566000000E+00 0.  1.
     999900   -1    0    0    0    0 -0.00000000000E+00 -0.00000000000E+00 -0.74505805969E-08  0.93827000000E+00  0.93827000000E+00 0.  1.
     999902    2    1    2    0    0  0.46254748708E-03  0.31375480352E-02 -0.22864313648E-01  0.10208467811E+01  0.10205857707E+01 0.  0.
     999903    2    3    3    0    0 -0.10282540897E+00 -0.78603261301E-01  0.87354586676E-03  0.13072687463E+00  0.18363421507E-01 0.  0.
         14    1    1    2    0    0 -0.46254748708E-03 -0.31375480352E-02  0.22864313648E-01  0.23083218936E-01  0.00000000000E+00 0.  1.
     999901    1    3    3    0    0  0.10328795646E+00  0.81740809336E-01 -0.23737859515E-01  0.89011990644E+00  0.88000000000E+00 0. -1.
        -11    1    4    4    0    0 -0.59505346553E-01 -0.56093497702E-01  0.33026201918E-02  0.81844579381E-01  0.51100000000E-03 0. -1.
         11    1    4    4    0    0 -0.43320062421E-01 -0.22509763599E-01 -0.24290743250E-02  0.48882295246E-01  0.51100000000E-03 0.  1.
</event>
<event>
 8    1  0.1138737E+005  0.1043930E+01  0.7957747E-01            NaN
         13   -1    0    0    0    0  0.00000000000E+00  0.00000000000E+00  0.74505805969E-08  0.10566000000E+00  0.10566000000E+00 0. -1.
     999900   -1    0    0    0    0 -0.00000000000E+00 -0.00000000000E+00 -0.74505805969E-08  0.93827000000E+00  0.93827000000E+00 0. -1.
     999902    2    1    2    0    0  0.64366105715E-02  0.23117220205E-02 -0.22759882371E-01  0.10201647678E+01  0.10198879190E+01 0.  0.
     999903    2    3    3    0    0  0.40898954965E-01 -0.56706265349E-01  0.10579191864E+00  0.12820269378E+00  0.18859363586E-01 0.  0.
         14    1    1    2    0    0 -0.64366105715E-02 -0.23117220205E-02  0.22759882371E-01  0.23765232166E-01  0.00000000000E+00 0. -1.
     999901    1    3    3    0    0 -0.34462344393E-01  0.59017987370E-01 -0.12855180101E+00  0.89196207406E+00  0.88000000000E+00 0. -1.
        -11    1    4    4    0    0  0.78092515898E-02 -0.35303750317E-02  0.63438701124E-02  0.10674912986E-01  0.51100000000E-03 0.  1.
         11    1    4    4    0    0  0.33089703375E-01 -0.53175890317E-01  0.99448048528E-01  0.11752778079E+00  0.51100000000E-03 0. -1.
</event>
<event>
 8    1  0.1138737E+005  0.1043930E+01  0.7957747E-01            NaN
         13   -1    0    0    0    0  0.00000000000E+00  0.00000000000E+00  0.74505805969E-08  0.10566000000E+00  0.10566000000E+00 0. -1.
     999900   -1    0    0    0    0 -0.00000000000E+00 -0.00000000000E+00 -0.74505805969E-08  0.93827000000E+00  0.93827000000E+00 0.  1.
     999902    2    1    2    0    0  0.19609570532E-01 -0.12163095960E-01  0.48859789046E-02  0.10203429495E+01  0.10200702847E+01 0.  0.
     999903    2    3    3    0    0 -0.59600987029E-01 -0.10645808262E+00  0.43229909025E-01  0.13094083917E+00  0.19775674913E-01 0.  0.
         14    1    1    2    0    0 -0.19609570532E-01  0.12163095960E-01 -0.48859789046E-02  0.23587050465E-01  0.00000000000E+00 0. -1.
     999901    1    3    3    0    0  0.79210557562E-01  0.94294986663E-01 -0.38343930120E-01  0.88940211036E+00  0.88000000000E+00 0.  1.
        -11    1    4    4    0    0 -0.44930576706E-01 -0.71918772954E-01  0.38439571655E-01  0.93107080377E-01  0.51100000000E-03 0.  1.
         11    1    4    4    0    0 -0.14670410323E-01 -0.34539309669E-01  0.47903373702E-02  0.37833758796E-01  0.51100000000E-03 0. -1.
</event>
<event>
 8    1  0.1138737E+005  0.1043930E+01  0.7957747E-01            NaN
         13   -1    0    0    0    0  0.00000000000E+00  0.00000000000E+00  0.74505805969E-08  0.10566000000E+00  0.10566000000E+00 0. -1.
     999900   -1    0    0    0    0 -0.00000000000E+00 -0.00000000000E+00 -0.74505805969E-08  0.93827000000E+00  0.93827000000E+00 0.  1.
     999902    2    1    2    0    0  0.17265815986E-01  0.10024219189E-01 -0.13503739282E-01  0.10198272129E+01  0.10195423482E+01 0.  0.
     999903    2    3    3    0    0  0.73012455006E-01  0.47497955212E-01 -0.98774354196E-01  0.13315757519E+00  0.19689907239E-01 0.  0.
         14    1    1    2    0    0 -0.17265815986E-01 -0.10024219189E-01  0.13503739282E-01  0.24102787113E-01  0.00000000000E+00 0. -1.
     999901    1    3    3    0    0 -0.55746639020E-01 -0.37473736023E-01  0.85270614914E-01  0.88666963770E+00  0.88000000000E+00 0. -1.
        -11    1    4    4    0    0  0.21774086534E-01  0.25471240744E-01 -0.38147343494E-01  0.50777710524E-01  0.51100000000E-03 0.  1.
         11    1    4    4    0    0  0.51238368473E-01  0.22026714468E-01 -0.60627010702E-01  0.82379864661E-01  0.51100000000E-03 0. -1.
</event>
<event>
 8    1  0.1138737E+005  0.1043930E+01  0.7957747E-01            NaN
         13   -1    0    0    0    0  0.00000000000E+00  0.00000000000E+00  0.74505805969E-08  0.10566000000E+00  0.10566000000E+00 0.  1.
     999900   -1    0    0    0    0 -0.00000000000E+00 -0.00000000000E+00 -0.74505805969E-08  0.93827000000E+00  0.93827000000E+00 0. -1.
     999902    2    1    2    0    0  0.10381306796E-01  0.23047552650E-01 -0.79208054902E-03  0.10186399109E+01  0.10183259201E+01 0.  0.
     999903    2    3    3    0    0  0.67510293960E-01 -0.98484097602E-01  0.39954900020E-01  0.12752040176E+00  0.20206473174E-01 0.  0.
         14    1    1    2    0    0 -0.10381306796E-01 -0.23047552650E-01  0.79208054902E-03  0.25290089077E-01  0.00000000000E+00 0.  1.
     999901    1    3    3    0    0 -0.57128987163E-01  0.12153165025E+00 -0.40746980569E-01  0.89111950916E+00  0.88000000000E+00 0. -1.
        -11    1    4    4    0    0  0.45766229672E-01 -0.80719795130E-01  0.27356539406E-01  0.96741275955E-01  0.51100000000E-03 0. -1.
         11    1    4    4    0    0  0.21744064288E-01 -0.17764302472E-01  0.12598360614E-01  0.30779125803E-01  0.51100000000E-03 0.  1.
</event>
<event>
 8    1  0.1138737E+005  0.1043930E+01  0.7957747E-01            NaN
         13   -1    0    0    0    0  0.00000000000E+00  0.00000000000E+00  0.74505805969E-08  0.10566000000E+00  0.10566000000E+00 0.  1.
     999900   -1    0    0    0    0 -0.00000000000E+00 -0.00000000000E+00 -0.74505805969E-08  0.93827000000E+00  0.93827000000E+00 0.  1.
     999902    2    1    2    0    0  0.20278266084E-01  0.22464396759E-02  0.62840809081E-02  0.10225818329E+01  0.10223589686E+01 0.  0.
     999903    2    3    3    0    0  0.57698214399E-01 -0.11088493929E+00  0.43384334584E-01  0.13377623532E+00  0.19731369501E-01 0.  0.
         14    1    1    2    0    0 -0.20278266084E-01 -0.22464396759E-02 -0.62840809081E-02  0.21348167121E-01  0.00000000000E+00 0. -1.
     999901    1    3    3    0    0 -0.37419948316E-01  0.11313137896E+00 -0.37100253676E-01  0.88880559756E+00  0.88000000000E+00 0. -1.
        -11    1    4    4    0    0  0.41591962303E-01 -0.71244667024E-01  0.19500783253E-01  0.84771667296E-01  0.51100000000E-03 0.  1.
         11    1    4    4    0    0  0.16106252096E-01 -0.39640272262E-01  0.23883551330E-01  0.49004568019E-01  0.51100000000E-03 0. -1.
</event>
<event>
 8    1  0.1138737E+005  0.1043930E+01  0.7957747E-01            NaN
         13   -1    0    0    0    0  0.00000000000E+00  0.00000000000E+00  0.74505805969E-08  0.10566000000E+00  0.10566000000E+00 0. -1.
     999900   -1    0    0    0    0 -0.00000000000E+00 -0.00000000000E+00 -0.74505805969E-08  0.93827000000E+00  0.93827000000E+00 0. -1.
     999902    2    1    2    0    0  0.62651422388E-02 -0.14156263805E-01  0.17176288862E-01  0.10208069225E+01  0.10205449997E+01 0.  0.
     999903    2    3    3    0    0 -0.12679866923E+00 -0.18260213247E-01 -0.14349096219E-01  0.13023594265E+00  0.18551719285E-01 0.  0.
         14    1    1    2    0    0 -0.62651422388E-02  0.14156263805E-01 -0.17176288862E-01  0.23123077461E-01  0.00000000000E+00 0. -1.
     999901    1    3    3    0    0  0.13306381147E+00  0.41039494421E-02  0.31525385081E-01  0.89057097989E+00  0.88000000000E+00 0.  1.
        -11    1    4    4    0    0 -0.19737660095E-01 -0.90220343171E-02  0.74667532623E-03  0.21720749856E-01  0.51100000000E-03 0.  1.
         11    1    4    4    0    0 -0.10706100913E+00 -0.92381789303E-02 -0.15095771545E-01  0.10851519279E+00  0.51100000000E-03 0. -1.
</event>
<event>
 8    1  0.1138737E+005  0.1043930E+01  0.7957747E-01            NaN
         13   -1    0    0    0    0  0.00000000000E+00  0.00000000000E+00  0.74505805969E-08  0.10566000000E+00  0.10566000000E+00 0. -1.
     999900   -1    0    0    0    0 -0.00000000000E+00 -0.00000000000E+00 -0.74505805969E-08  0.93827000000E+00  0.93827000000E+00 0. -1.
     999902    2    1    2    0    0  0.55695572597E-02  0.15937681875E-01  0.52710358543E-02  0.10262434658E+01  0.10260910475E+01 0.  0.
     999903    2    3    3    0    0  0.16377712558E-01 -0.10772809676E+00  0.76606327479E-01  0.13467251249E+00  0.19864136283E-01 0.  0.
         14    1    1    2    0    0 -0.55695572597E-02 -0.15937681875E-01 -0.52710358543E-02  0.17686534160E-01  0.00000000000E+00 0.  1.
     999901    1    3    3    0    0 -0.10808155298E-01  0.12366577864E+00 -0.71335291625E-01  0.89157095335E+00  0.88000000000E+00 0. -1.
        -11    1    4    4    0    0  0.20301982407E-01 -0.72888779349E-01  0.53874912265E-01  0.92885477537E-01  0.51100000000E-03 0. -1.
         11    1    4    4    0    0 -0.39242698496E-02 -0.34839317412E-01  0.22731415214E-01  0.41787034953E-01  0.51100000000E-03 0.  1.
</event>
<event>
 8    1  0.1138737E+005  0.1043930E+01  0.7957747E-01            NaN
         13   -1    0    0    0    0  0.00000000000E+00  0.00000000000E+00  0.74505805969E-08  0.10566000000E+00  0.10566000000E+00 0. -1.
     999900   -1    0    0    0    0 -0.00000000000E+00 -0.00000000000E+00 -0.74505805969E-08  0.93827000000E+00  0.93827000000E+00 0. -1.
     999902    2    1    2    0    0  0.58216676224E-02  0.20465591967E-01 -0.25698201617E-02  0.10224978689E+01  0.10222732294E+01 0.  0.
     999903    2    3    3    0    0 -0.38818046203E-01  0.12731790966E+00 -0.86797691954E-02  0.13489015524E+00  0.20082946872E-01 0.  0.
         14    1    1    2    0    0 -0.58216676224E-02 -0.20465591967E-01  0.25698201617E-02  0.21432131115E-01  0.00000000000E+00 0. -1.
     999901    1    3    3    0    0  0.44639713825E-01 -0.10685231770E+00  0.61099490336E-02  0.88760771365E+00  0.88000000000E+00 0.  1.
        -11    1    4    4    0    0 -0.24559528915E-01  0.75026834602E-01  0.46156773597E-02  0.79080730709E-01  0.51100000000E-03 0. -1.
         11    1    4    4    0    0 -0.14258517288E-01  0.52291075061E-01 -0.13295446555E-01  0.55809424530E-01  0.51100000000E-03 0.  1.
</event>
<event>
 8    1  0.1138737E+005  0.1043930E+01  0.7957747E-01            NaN
         13   -1    0    0    0    0  0.00000000000E+00  0.00000000000E+00  0.74505805969E-08  0.10566000000E+00  0.10566000000E+00 0.  1.
     999900   -1    0    0    0    0 -0.00000000000E+00 -0.00000000000E+00 -0.74505805969E-08  0.93827000000E+00  0.93827000000E+00 0.  1.
     999902    2    1    2    0    0  0.11925737264E-01  0.16270245951E-01  0.66670266432E-02  0.10226839802E+01  0.10224632659E+01 0.  0.
     999903    2    3    3    0    0 -0.58885737150E-01  0.11826507322E+00 -0.21830544209E-02  0.13392330735E+00  0.21829542825E-01 0.  0.
         14    1    1    2    0    0 -0.11925737264E-01 -0.16270245951E-01 -0.66670266432E-02  0.21246019789E-01  0.00000000000E+00 0. -1.
     999901    1    3    3    0    0  0.70811474414E-01 -0.10199482727E+00  0.88500810642E-02  0.88876067287E+00  0.88000000000E+00 0. -1.
        -11    1    4    4    0    0 -0.21882737673E-01  0.39382558916E-01  0.93949932236E-02  0.46025722955E-01  0.51100000000E-03 0. -1.
         11    1    4    4    0    0 -0.37002999477E-01  0.78882514305E-01 -0.11578047645E-01  0.87897584390E-01  0.51100000000E-03 0.  1.
</event>
<event>
 8    1  0.1138737E+005  0.1043930E+01  0.7957747E-01            NaN
         13   -1    0    0    0    0  0.00000000000E+00  0.00000000000E+00  0.74505805969E-08  0.10566000000E+00  0.10566000000E+00 0. -1.
     999900   -1    0    0    0    0 -0.00000000000E+00 -0.00000000000E+00 -0.74505805969E-08  0.93827000000E+00  0.93827000000E+00 0.  1.
     999902    2    1    2    0    0 -0.57516647231E-02 -0.98731206790E-02 -0.19954389277E-01  0.10209357005E+01  0.10206767200E+01 0.  0.
     999903    2    3    3    0    0 -0.69703925019E-01 -0.60235067075E-01 -0.94566441783E-01  0.13403481784E+00  0.23143465908E-01 0.  0.
         14    1    1    2    0    0  0.57516647231E-02  0.98731206790E-02  0.19954389277E-01  0.22994299520E-01  0.00000000000E+00 0. -1.
     999901    1    3    3    0    0  0.63952260296E-01  0.50361946396E-01  0.74612052507E-01  0.88690088264E+00  0.88000000000E+00 0. -1.
        -11    1    4    4    0    0 -0.39772574271E-01 -0.19216253828E-01 -0.42269154570E-01  0.61139713971E-01  0.51100000000E-03 0.  1.
         11    1    4    4    0    0 -0.29931350747E-01 -0.41018813247E-01 -0.52297287213E-01  0.72895103873E-01  0.51100000000E-03 0. -1.
</event>
<event>
 8    1  0.1138737E+005  0.1043930E+01  0.7957747E-01            NaN
         13   -1    0    0    0    0  0.00000000000E+00  0.00000000000E+00  0.74505805969E-08  0.10566000000E+00  0.10566000000E+00 0.  1.
     999900   -1    0    0    0    0 -0.00000000000E+00 -0.00000000000E+00 -0.74505805969E-08  0.93827000000E+00  0.93827000000E+00 0.  1.
     999902    2    1    2    0    0 -0.88974662908E-02 -0.19680783834E-02 -0.21600528802E-01  0.10204860011E+01  0.10202166718E+01 0.  0.
     999903    2    3    3    0    0  0.10887612405E+00 -0.33579226538E-01  0.51269455485E-01  0.12909387760E+00  0.32482261688E-01 0.  0.
         14    1    1    2    0    0  0.88974662908E-02  0.19680783834E-02  0.21600528802E-01  0.23443998879E-01  0.00000000000E+00 0.  1.
     999901    1    3    3    0    0 -0.11777359034E+00  0.31611148154E-01 -0.72869984287E-01  0.89139212352E+00  0.88000000000E+00 0.  1.
        -11    1    4    4    0    0  0.98046303021E-01 -0.39609166598E-01  0.42835039145E-01  0.11409235432E+00  0.51100000000E-03 0.  1.
         11    1    4    4    0    0  0.10829821029E-01  0.60299400603E-02  0.84344163409E-02  0.15001523278E-01  0.51100000000E-03 0. -1.
</event>
<event>
 8    1  0.1241002E+005  0.1043930E+01  0.7957747E-01            NaN
         13   -1    0    0    0    0  0.00000000000E+00  0.00000000000E+00  0.74505805969E-08  0.10566000000E+00  0.10566000000E+00 0. -1.
     999900   -1    0    0    0    0 -0.00000000000E+00 -0.00000000000E+00 -0.74505805969E-08  0.93827000000E+00  0.93827000000E+00 0.  1.
     999902    2    1    2    0    0 -0.23145431260E-01 -0.54665853088E-02  0.31490374472E-02  0.10199401901E+01  0.10196580213E+01 0.  0.
     999903    2    3    3    0    0 -0.11377433564E+00 -0.33892633172E-01 -0.55619134862E-01  0.13288025040E+00  0.21687848005E-01 0.  0.
         14    1    1    2    0    0  0.23145431260E-01  0.54665853088E-02 -0.31490374472E-02  0.23989809920E-01  0.00000000000E+00 0.  1.
     999901    1    3    3    0    0  0.90628904376E-01  0.28426047863E-01  0.58768172310E-01  0.88705993968E+00  0.88000000000E+00 0. -1.
        -11    1    4    4    0    0 -0.55525520231E-01 -0.27702996789E-01 -0.30448555173E-01  0.69122464230E-01  0.51100000000E-03 0. -1.
         11    1    4    4    0    0 -0.58248815405E-01 -0.61896363829E-02 -0.25170579689E-01  0.63757786172E-01  0.51100000000E-03 0.  1.
</event>
<event>
 8    1  0.1138737E+005  0.1043930E+01  0.7957747E-01            NaN
         13   -1    0    0    0    0  0.00000000000E+00  0.00000000000E+00  0.74505805969E-08  0.10566000000E+00  0.10566000000E+00 0.  1.
     999900   -1    0    0    0    0 -0.00000000000E+00 -0.00000000000E+00 -0.74505805969E-08  0.93827000000E+00  0.93827000000E+00 0. -1.
     999902    2    1    2    0    0 -0.20300888820E-01  0.14567877164E-01  0.46126837640E-02  0.10185208288E+01  0.10182038365E+01 0.  0.
     999903    2    3    3    0    0  0.10445097597E+00 -0.24518271414E-01  0.64722322789E-01  0.12683482826E+00  0.19670856031E-01 0.  0.
         14    1    1    2    0    0  0.20300888820E-01 -0.14567877164E-01 -0.46126837640E-02  0.25409171247E-01  0.00000000000E+00 0. -1.
     999901    1    3    3    0    0 -0.12475186479E+00  0.39086148579E-01 -0.60109639025E-01  0.89168600050E+00  0.88000000000E+00 0.  1.
        -11    1    4    4    0    0  0.40892371658E-01 -0.29432478840E-03  0.20984797368E-01  0.45966243359E-01  0.51100000000E-03 0.  1.
         11    1    4    4    0    0  0.63558604312E-01 -0.24223946626E-01  0.43737525421E-01  0.80868584897E-01  0.51100000000E-03 0. -1.
</event>
<event>
 8    1  0.1138737E+005  0.1043930E+01  0.7957747E-01            NaN
         13   -1    0    0    0    0  0.00000000000E+00  0.00000000000E+00  0.74505805969E-08  0.10566000000E+00  0.10566000000E+00 0. -1.
     999900   -1    0    0    0    0 -0.00000000000E+00 -0.00000000000E+00 -0.74505805969E-08  0.93827000000E+00  0.93827000000E+00 0.  1.
     999902    2    1    2    0    0 -0.12862558164E-01 -0.30665546162E-02 -0.18739244531E-01  0.10209951260E+01  0.10207374975E+01 0.  0.
     999903    2    3    3    0    0  0.69214978483E-01 -0.93678355832E-01 -0.58124355748E-01  0.13167043416E+00  0.19806940747E-01 0.  0.
         14    1    1    2    0    0  0.12862558164E-01  0.30665546162E-02  0.18739244531E-01  0.22934873999E-01  0.00000000000E+00 0. -1.
     999901    1    3    3    0    0 -0.82077536646E-01  0.90611801216E-01  0.39385111217E-01  0.88932469185E+00  0.88000000000E+00 0. -1.
        -11    1    4    4    0    0  0.29911314902E-01 -0.30559394622E-01 -0.13022142689E-01  0.44703475033E-01  0.51100000000E-03 0. -1.
         11    1    4    4    0    0  0.39303663581E-01 -0.63118961210E-01 -0.45102213059E-01  0.86966959122E-01  0.51100000000E-03 0.  1.
</event>
<event>
 8    1  0.1138737E+005  0.1043930E+01  0.7957747E-01            NaN
         13   -1    0    0    0    0  0.00000000000E+00  0.00000000000E+00  0.74505805969E-08  0.10566000000E+00  0.10566000000E+00 0. -1.
     999900   -1    0    0    0    0 -0.00000000000E+00 -0.00000000000E+00 -0.74505805969E-08  0.93827000000E+00  0.93827000000E+00 0.  1.
     999902    2    1    2    0    0  0.74956341037E-02 -0.17088341622E-01  0.13336437656E-01  0.10209940780E+01  0.10207364257E+01 0.  0.
     999903    2    3    3    0    0 -0.26765210760E-01  0.65305407666E-01 -0.10564102974E+00  0.12851540979E+00  0.19365190696E-01 0.  0.
         14    1    1    2    0    0 -0.74956341037E-02  0.17088341622E-01 -0.13336437656E-01  0.22935922030E-01  0.00000000000E+00 0.  1.
     999901    1    3    3    0    0  0.34260844864E-01 -0.82393749288E-01  0.11897746740E+00  0.89247866818E+00  0.88000000000E+00 0. -1.
        -11    1    4    4    0    0 -0.47687519023E-02  0.35445379258E-01 -0.45805799488E-01  0.58116678270E-01  0.51100000000E-03 0. -1.
         11    1    4    4    0    0 -0.21996458858E-01  0.29860028408E-01 -0.59835230254E-01  0.70398731518E-01  0.51100000000E-03 0.  1.
</event>
<event>
 8    1  0.1138737E+005  0.1043930E+01  0.7957747E-01            NaN
         13   -1    0    0    0    0  0.00000000000E+00  0.00000000000E+00  0.74505805969E-08  0.10566000000E+00  0.10566000000E+00 0.  1.
     999900   -1    0    0    0    0 -0.00000000000E+00 -0.00000000000E+00 -0.74505805969E-08  0.93827000000E+00  0.93827000000E+00 0.  1.
     999902    2    1    2    0    0  0.81616868525E-02  0.17969131590E-01  0.13153917200E-01  0.10202123197E+01  0.10199365906E+01 0.  0.
     999903    2    3    3    0    0  0.24207312981E-01 -0.73835587589E-01 -0.99715936557E-01  0.12812198094E+00  0.20839529721E-01 0.  0.
         14    1    1    2    0    0 -0.81616868525E-02 -0.17969131590E-01 -0.13153917200E-01  0.23717680327E-01  0.00000000000E+00 0.  1.
     999901    1    3    3    0    0 -0.16045626129E-01  0.91804719179E-01  0.11286985376E+00  0.89209033874E+00  0.88000000000E+00 0. -1.
        -11    1    4    4    0    0  0.20844724554E-01 -0.35027216652E-01 -0.42371661615E-01  0.58796490347E-01  0.51100000000E-03 0. -1.
         11    1    4    4    0    0  0.33625884275E-02 -0.38808370936E-01 -0.57344274942E-01  0.69325490588E-01  0.51100000000E-03 0.  1.
</event>
<event>
 8    1  0.1138737E+005  0.1043930E+01  0.7957747E-01            NaN
         13   -1    0    0    0    0  0.00000000000E+00  0.00000000000E+00  0.74505805969E-08  0.10566000000E+00  0.10566000000E+00 0.  1.
     999900   -1    0    0    0    0 -0.00000000000E+00 -0.00000000000E+00 -0.74505805969E-08  0.93827000000E+00  0.93827000000E+00 0. -1.
     999902    2    1    2    0    0  0.21489563763E-01  0.10136812196E-02 -0.91784423504E-02  0.10205404146E+01  0.10202723485E+01 0.  0.
     999903    2    3    3    0    0  0.10670027374E+00  0.16935861269E-01  0.73817799890E-01  0.13239472998E+00  0.20187251757E-01 0.  0.
         14    1    1    2    0    0 -0.21489563763E-01 -0.10136812196E-02  0.91784423504E-02  0.23389585382E-01  0.00000000000E+00 0.  1.
     999901    1    3    3    0    0 -0.85210709976E-01 -0.15922180050E-01 -0.82996242241E-01  0.88814568464E+00  0.88000000000E+00 0. -1.
        -11    1    4    4    0    0  0.64559665751E-01  0.15710793721E-01  0.54862924761E-01  0.86168330119E-01  0.51100000000E-03 0.  1.
         11    1    4    4    0    0  0.42140607988E-01  0.12250675482E-02  0.18954875129E-01  0.46226399863E-01  0.51100000000E-03 0. -1.
</event>
<event>
 8    1  0.1138737E+005  0.1043930E+01  0.7957747E-01            NaN
         13   -1    0    0    0    0  0.00000000000E+00  0.00000000000E+00  0.74505805969E-08  0.10566000000E+00  0.10566000000E+00 0.  1.
     999900   -1    0    0    0    0 -0.00000000000E+00 -0.00000000000E+00 -0.74505805969E-08  0.93827000000E+00  0.93827000000E+00 0.  1.
     999902    2    1    2    0    0 -0.13921807004E-01  0.14023390697E-01  0.48550658030E-02  0.10235819323E+01  0.10233796598E+01 0.  0.
     999903    2    3    3    0    0 -0.69985232308E-01  0.25574699805E-01  0.11123994189E+00  0.13532843113E+00  0.19684044053E-01 0.  0.
         14    1    1    2    0    0  0.13921807004E-01 -0.14023390697E-01 -0.48550658030E-02  0.20348067742E-01  0.00000000000E+00 0.  1.
     999901    1    3    3    0    0  0.56063425304E-01 -0.11551309108E-01 -0.10638487609E+00  0.88825350112E+00  0.88000000000E+00 0.  1.
        -11    1    4    4    0    0 -0.19406274250E-01  0.16900659386E-01  0.36185771807E-01  0.44406159148E-01  0.51100000000E-03 0. -1.
         11    1    4    4    0    0 -0.50578958058E-01  0.86740404185E-02  0.75054170082E-01  0.90922271986E-01  0.51100000000E-03 0.  1.
</event>
<event>
 8    1  0.1138737E+005  0.1043930E+01  0.7957747E-01            NaN
         13   -1    0    0    0    0  0.00000000000E+00  0.00000000000E+00  0.74505805969E-08  0.10566000000E+00  0.10566000000E+00 0. -1.
     999900   -1    0    0    0    0 -0.00000000000E+00 -0.00000000000E+00 -0.74505805969E-08  0.93827000000E+00  0.93827000000E+00 0.  1.
     999902    2    1    2    0    0 -0.54652809910E-02  0.10022761175E-02  0.23359913975E-01  0.10199183479E+01  0.10196356590E+01 0.  0.
     999903    2    3    3    0    0  0.26004348535E-02 -0.61643316742E-01 -0.10998387518E+00  0.12763470908E+00  0.19685156895E-01 0.  0.
         14    1    1    2    0    0  0.54652809910E-02 -0.10022761175E-02 -0.23359913975E-01  0.24011652060E-01  0.00000000000E+00 0.  1.
     999901    1    3    3    0    0 -0.80657158445E-02  0.62645592859E-01  0.13334378915E+00  0.89228363886E+00  0.88000000000E+00 0. -1.
        -11    1    4    4    0    0  0.54037330756E-02 -0.26900139140E-01 -0.66240906550E-01  0.71700325232E-01  0.51100000000E-03 0.  1.
         11    1    4    4    0    0 -0.28032982221E-02 -0.34743177602E-01 -0.43742968627E-01  0.55934383845E-01  0.51100000000E-03 0. -1.
</event>
<event>
 8    1  0.1138737E+005  0.1043930E+01  0.7957747E-01            NaN
         13   -1    0    0    0    0  0.00000000000E+00  0.00000000000E+00  0.74505805969E-08  0.10566000000E+00  0.10566000000E+00 0.  1.
     999900   -1    0    0    0    0 -0.00000000000E+00 -0.00000000000E+00 -0.74505805969E-08  0.93827000000E+00  0.93827000000E+00 0. -1.
     999902    2    1    2    0    0 -0.58131108706E-02  0.21815010836E-01 -0.94864419252E-02  0.10194416449E+01  0.10191474809E+01 0.  0.
     999903    2    3    3    0    0  0.11771276506E+00 -0.46287368276E-01 -0.87359440647E-02  0.12820815174E+00  0.19031498457E-01 0.  0.
         14    1    1    2    0    0  0.58131108706E-02 -0.21815010836E-01  0.94864419252E-02  0.24488355114E-01  0.00000000000E+00 0.  1.
     999901    1    3    3    0    0 -0.12352587593E+00  0.68102379112E-01 -0.75049786055E-03  0.89123349315E+00  0.88000000000E+00 0.  1.
        -11    1    4    4    0    0  0.35056600911E-01 -0.21244106923E-01 -0.83651500030E-02  0.41839146764E-01  0.51100000000E-03 0. -1.
         11    1    4    4    0    0  0.82656164147E-01 -0.25043261353E-01 -0.37079406164E-03  0.86369004972E-01  0.51100000000E-03 0.  1.
</event>
<event>
 8    1  0.1138737E+005  0.1043930E+01  0.7957747E-01            NaN
         13   -1    0    0    0    0  0.00000000000E+00  0.00000000000E+00  0.74505805969E-08  0.10566000000E+00  0.10566000000E+00 0. -1.
     999900   -1    0    0    0    0 -0.00000000000E+00 -0.00000000000E+00 -0.74505805969E-08  0.93827000000E+00  0.93827000000E+00 0.  1.
     999902    2    1    2    0    0  0.24688941321E-01  0.49865344052E-02  0.17043359912E-01  0.10135180703E+01  0.10130616928E+01 0.  0.
     999903    2    3    3    0    0  0.41819864192E-01 -0.69416933680E-01  0.94946993209E-01  0.12678343096E+00  0.22169689315E-01 0.  0.
         14    1    1    2    0    0 -0.24688941321E-01 -0.49865344052E-02 -0.17043359912E-01  0.30411929666E-01  0.00000000000E+00 0.  1.
     999901    1    3    3    0    0 -0.17130922871E-01  0.74403468085E-01 -0.77903633297E-01  0.88673463937E+00  0.88000000000E+00 0.  1.
        -11    1    4    4    0    0  0.29846819995E-01 -0.52667928176E-01  0.54781218842E-01  0.81645492105E-01  0.51100000000E-03 0.  1.
         11    1    4    4    0    0  0.11973044196E-01 -0.16749005504E-01  0.40165774368E-01  0.45137938857E-01  0.51100000000E-03 0. -1.
</event>
<event>
 8    1  0.1138737E+005  0.1043930E+01  0.7957747E-01            NaN
         13   -1    0    0    0    0  0.00000000000E+00  0.00000000000E+00  0.74505805969E-08  0.10566000000E+00  0.10566000000E+00 0. -1.
     999900   -1    0    0    0    0 -0.00000000000E+00 -0.00000000000E+00 -0.74505805969E-08  0.93827000000E+00  0.93827000000E+00 0. -1.
     999902    2    1    2    0    0  0.18894019087E-01 -0.39992089021E-02 -0.14640261185E-01  0.10196954198E+01  0.10194073937E+01 0.  0.
     999903    2    3    3    0    0  0.73609139653E-01  0.35076333633E-01  0.98275105825E-01  0.12993673200E+00  0.24018810870E-01 0.  0.
         14    1    1    2    0    0 -0.18894019087E-01  0.39992089021E-02  0.14640261185E-01  0.24234580183E-01  0.00000000000E+00 0. -1.
     999901    1    3    3    0    0 -0.54715120566E-01 -0.39075542535E-01 -0.11291536701E+00  0.88975868782E+00  0.88000000000E+00 0. -1.
        -11    1    4    4    0    0  0.36486410017E-01  0.15789545298E-01  0.66187437151E-01  0.77211435774E-01  0.51100000000E-03 0. -1.
         11    1    4    4    0    0  0.37122729636E-01  0.19286788335E-01  0.32087668674E-01  0.52725296224E-01  0.51100000000E-03 0.  1.
</event>
<event>
 8    1  0.1138737E+005  0.1043930E+01  0.7957747E-01            NaN
         13   -1    0    0    0    0  0.00000000000E+00  0.00000000000E+00  0.74505805969E-08  0.10566000000E+00  0.10566000000E+00 0. -1.
     999900   -1    0    0    0    0 -0.00000000000E+00 -0.00000000000E+00 -0.74505805969E-08  0.93827000000E+00  0.93827000000E+00 0.  1.
     999902    2    1    2    0    0  0.19828604727E-01  0.13113182764E-02  0.27372980582E-02  0.10238704406E+01  0.10236739194E+01 0.  0.
     999903    2    3    3    0    0  0.10156011078E+00 -0.85758786292E-01 -0.18014133877E-01  0.13556201215E+00  0.19583783910E-01 0.  0.
         14    1    1    2    0    0 -0.19828604727E-01 -0.13113182764E-02 -0.27372980582E-02  0.20059559360E-01  0.00000000000E+00 0.  1.
     999901    1    3    3    0    0 -0.81731506053E-01  0.87070104568E-01  0.20751431936E-01  0.88830842849E+00  0.88000000000E+00 0. -1.
        -11    1    4    4    0    0  0.58663187382E-01 -0.61715989867E-01 -0.99910968543E-02  0.85733984489E-01  0.51100000000E-03 0. -1.
         11    1    4    4    0    0  0.42896923398E-01 -0.24042796425E-01 -0.80230370232E-02  0.49828027666E-01  0.51100000000E-03 0.  1.
</event>
<event>
 8    1  0.1138737E+005  0.1043930E+01  0.7957747E-01            NaN
         13   -1    0    0    0    0  0.00000000000E+00  0.00000000000E+00  0.74505805969E-08  0.10566000000E+00  0.10566000000E+00 0.  1.
     999900   -1    0    0    0    0 -0.00000000000E+00 -0.00000000000E+00 -0.74505805969E-08  0.93827000000E+00  0.93827000000E+00 0.  1.
     999902    2    1    2    0    0  0.24971207789E-02 -0.22245783809E-01  0.54572264876E-02  0.10208889100E+01  0.10206288623E+01 0.  0.
     999903    2    3    3    0    0 -0.33326997976E-01 -0.26797177762E-01 -0.12210177867E+00  0.13095892256E+00  0.20312988796E-01 0.  0.
         14    1    1    2    0    0 -0.24971207789E-02  0.22245783809E-01 -0.54572264876E-02  0.23041090043E-01  0.00000000000E+00 0. -1.
     999901    1    3    3    0    0  0.35824118755E-01  0.45513939537E-02  0.12755900516E+00  0.88992998740E+00  0.88000000000E+00 0. -1.
        -11    1    4    4    0    0 -0.29438574057E-01 -0.16102022667E-01 -0.70026976929E-01  0.77652710160E-01  0.51100000000E-03 0.  1.
         11    1    4    4    0    0 -0.38884239186E-02 -0.10695155095E-01 -0.52074801740E-01  0.53306212399E-01  0.51100000000E-03 0. -1.
</event>
<event>
 8    1  0.1138737E+005  0.1043930E+01  0.7957747E-01            NaN
         13   -1    0    0    0    0  0.00000000000E+00  0.00000000000E+00  0.74505805969E-08  0.10566000000E+00  0.10566000000E+00 0. -1.
     999900   -1    0    0    0    0 -0.00000000000E+00 -0.00000000000E+00 -0.74505805969E-08  0.93827000000E+00  0.93827000000E+00 0.  1.
     999902    2    1    2    0    0 -0.14109708017E-01 -0.26727082247E-02 -0.18976702086E-01  0.10201320494E+01  0.10198544287E+01 0.  0.
     999903    2    3    3    0    0 -0.27010617614E-01 -0.12558921158E+00  0.15266033068E-01  0.13083599907E+00  0.19564850067E-01 0.  0.
         14    1    1    2    0    0  0.14109708017E-01  0.26727082247E-02  0.18976702086E-01  0.23797950576E-01  0.00000000000E+00 0. -1.
     999901    1    3    3    0    0  0.12900909597E-01  0.12291650335E+00 -0.34242735153E-01  0.88929605035E+00  0.88000000000E+00 0.  1.
        -11    1    4    4    0    0 -0.19080474253E-02 -0.52029174309E-01  0.91946540825E-02  0.52872283939E-01  0.51100000000E-03 0. -1.
         11    1    4    4    0    0 -0.25102570189E-01 -0.73560037269E-01  0.60713789851E-02  0.77963715130E-01  0.51100000000E-03 0.  1.
</event>
<event>
 8    1  0.1138737E+005  0.1043930E+01  0.7957747E-01            NaN
         13   -1    0    0    0    0  0.00000000000E+00  0.00000000000E+00  0.74505805969E-08  0.10566000000E+00  0.10566000000E+00 0.  1.
     999900   -1    0    0    0    0 -0.00000000000E+00 -0.00000000000E+00 -0.74505805969E-08  0.93827000000E+00  0.93827000000E+00 0. -1.
     999902    2    1    2    0    0 -0.19661451124E-01 -0.14527085473E-01  0.37412435421E-02  0.10191993353E+01  0.10188992489E+01 0.  0.
     999903    2    3    3    0    0  0.15017430985E-01  0.64939188098E-01 -0.10708016608E+00  0.12802095904E+00  0.21922194287E-01 0.  0.
         14    1    1    2    0    0  0.19661451124E-01  0.14527085473E-01 -0.37412435421E-02  0.24730664687E-01  0.00000000000E+00 0. -1.
     999901    1    3    3    0    0 -0.34678882108E-01 -0.79466273571E-01  0.11082140962E+00  0.89117837627E+00  0.88000000000E+00 0.  1.
        -11    1    4    4    0    0 -0.40088967566E-02  0.17010726211E-01 -0.18021974680E-01  0.25109535077E-01  0.51100000000E-03 0.  1.
         11    1    4    4    0    0  0.19026327741E-01  0.47928461886E-01 -0.89058191401E-01  0.10291142397E+00  0.51100000000E-03 0. -1.
</event>
<event>
 8    1  0.1138737E+005  0.1043930E+01  0.7957747E-01            NaN
         13   -1    0    0    0    0  0.00000000000E+00  0.00000000000E+00  0.74505805969E-08  0.10566000000E+00  0.10566000000E+00 0. -1.
     999900   -1    0    0    0    0 -0.00000000000E+00 -0.00000000000E+00 -0.74505805969E-08  0.93827000000E+00  0.93827000000E+00 0.  1.
     999902    2    1    2    0    0  0.59637656787E-02 -0.22865135137E-01 -0.12051396017E-02  0.10202692040E+01  0.10199948114E+01 0.  0.
     999903    2    3    3    0    0 -0.80784390135E-01 -0.10002413615E+00  0.23553783502E-01  0.13229861989E+00  0.20425440133E-01 0.  0.
         14    1    1    2    0    0 -0.59637656787E-02  0.22865135137E-01  0.12051396017E-02  0.23660796001E-01  0.00000000000E+00 0. -1.
     999901    1    3    3    0    0  0.86748155814E-01  0.77159001014E-01 -0.24758923104E-01  0.88797058411E+00  0.88000000000E+00 0.  1.
        -11    1    4    4    0    0 -0.10846245423E-01 -0.24484481361E-01  0.42962932937E-03  0.26787619709E-01  0.51100000000E-03 0.  1.
         11    1    4    4    0    0 -0.69938144712E-01 -0.75539654790E-01  0.23124154173E-01  0.10551100018E+00  0.51100000000E-03 0. -1.
</event>
<event>
 8    1  0.1138737E+005  0.1043930E+01  0.7957747E-01            NaN
         13   -1    0    0    0    0  0.00000000000E+00  0.00000000000E+00  0.74505805969E-08  0.10566000000E+00  0.10566000000E+00 0. -1.
     999900   -1    0    0    0    0 -0.00000000000E+00 -0.00000000000E+00 -0.74505805969E-08  0.93827000000E+00  0.93827000000E+00 0. -1.
     999902    2    1    2    0    0 -0.11701834034E-01  0.22387715431E-02  0.19731465350E-01  0.10208805804E+01  0.10206203426E+01 0.  0.
     999903    2    3    3    0    0  0.50919092787E-01  0.10650268309E-01 -0.11550671772E+00  0.12831041517E+00  0.20385744444E-01 0.  0.
         14    1    1    2    0    0  0.11701834034E-01 -0.22387715431E-02 -0.19731465350E-01  0.23049419573E-01  0.00000000000E+00 0.  1.
     999901    1    3    3    0    0 -0.62620926821E-01 -0.84114967656E-02  0.13523818307E+00  0.89257016526E+00  0.88000000000E+00 0.  1.
        -11    1    4    4    0    0  0.34225567869E-01 -0.27101947832E-02 -0.75648521671E-01  0.83076438319E-01  0.51100000000E-03 0.  1.
         11    1    4    4    0    0  0.16693524918E-01  0.13360463092E-01 -0.39858196048E-01  0.45233976847E-01  0.51100000000E-03 0. -1.
</event>
<event>
 8    1  0.1138737E+005  0.1043930E+01  0.7957747E-01            NaN
         13   -1    0    0    0    0  0.00000000000E+00  0.00000000000E+00  0.74505805969E-08  0.10566000000E+00  0.10566000000E+00 0. -1.
     999900   -1    0    0    0    0 -0.00000000000E+00 -0.00000000000E+00 -0.74505805969E-08  0.93827000000E+00  0.93827000000E+00 0. -1.
     999902    2    1    2    0    0 -0.13046676154E-01 -0.18774595732E-01 -0.70952709075E-02  0.10199916610E+01  0.10197107161E+01 0.  0.
     999903    2    3    3    0    0 -0.91500717981E-01  0.83671217707E-02  0.91682214034E-01  0.13058247452E+00  0.14274598563E-01 0.  0.
         14    1    1    2    0    0  0.13046676154E-01  0.18774595732E-01  0.70952709075E-02  0.23938338974E-01  0.00000000000E+00 0. -1.
     999901    1    3    3    0    0  0.78454041827E-01 -0.27141717502E-01 -0.98777484942E-01  0.88940918650E+00  0.88000000000E+00 0. -1.
        -11    1    4    4    0    0 -0.59982290975E-01  0.94513098126E-02  0.52422785993E-01  0.80222266859E-01  0.51100000000E-03 0.  1.
         11    1    4    4    0    0 -0.31518427007E-01 -0.10841880419E-02  0.39259428041E-01  0.50360207662E-01  0.51100000000E-03 0. -1.
</event>
<event>
 8    1  0.1138737E+005  0.1043930E+01  0.7957747E-01            NaN
         13   -1    0    0    0    0  0.00000000000E+00  0.00000000000E+00  0.74505805969E-08  0.10566000000E+00  0.10566000000E+00 0.  1.
     999900   -1    0    0    0    0 -0.00000000000E+00 -0.00000000000E+00 -0.74505805969E-08  0.93827000000E+00  0.93827000000E+00 0. -1.
     999902    2    1    2    0    0 -0.11808091697E-01  0.43240032831E-02 -0.20558663478E-01  0.10198304839E+01  0.10195456974E+01 0.  0.
     999903    2    3    3    0    0  0.50421543855E-01 -0.28904521258E-02  0.11513442095E+00  0.12722912320E+00  0.19509692542E-01 0.  0.
         14    1    1    2    0    0  0.11808091697E-01 -0.43240032831E-02  0.20558663478E-01  0.24099516135E-01  0.00000000000E+00 0.  1.
     999901    1    3    3    0    0 -0.62229635552E-01  0.72144554090E-02 -0.13569308443E+00  0.89260136067E+00  0.88000000000E+00 0. -1.
        -11    1    4    4    0    0  0.21871164667E-01 -0.10431529781E-01  0.59370534948E-01  0.64127109700E-01  0.51100000000E-03 0. -1.
         11    1    4    4    0    0  0.28550379188E-01  0.75410776557E-02  0.55763886004E-01  0.63102013496E-01  0.51100000000E-03 0.  1.
</event>
<event>
 8    1  0.1138737E+005  0.1043930E+01  0.7957747E-01            NaN
         13   -1    0    0    0    0  0.00000000000E+00  0.00000000000E+00  0.74505805969E-08  0.10566000000E+00  0.10566000000E+00 0.  1.
     999900   -1    0    0    0    0 -0.00000000000E+00 -0.00000000000E+00 -0.74505805969E-08  0.93827000000E+00  0.93827000000E+00 0.  1.
     999902    2    1    2    0    0  0.86218109523E-02  0.16153538629E-01 -0.14970652641E-01  0.10202785122E+01  0.10200043380E+01 0.  0.
     999903    2    3    3    0    0 -0.11086005517E+00 -0.56706409727E-01 -0.23189223265E-01  0.12918253909E+00  0.25393298211E-01 0.  0.
         14    1    1    2    0    0 -0.86218109523E-02 -0.16153538629E-01  0.14970652641E-01  0.23651487793E-01  0.00000000000E+00 0.  1.
     999901    1    3    3    0    0  0.11948186612E+00  0.72859948356E-01  0.82185706235E-02  0.89109597312E+00  0.88000000000E+00 0. -1.
        -11    1    4    4    0    0 -0.20933773826E-01 -0.10624315625E-01 -0.14869751824E-01  0.27793337500E-01  0.51100000000E-03 0.  1.
         11    1    4    4    0    0 -0.89926281340E-01 -0.46082094102E-01 -0.83194714401E-02  0.10138920159E+00  0.51100000000E-03 0. -1.
</event>
<event>
 8    1  0.1138737E+005  0.1043930E+01  0.7957747E-01            NaN
         13   -1    0    0    0    0  0.00000000000E+00  0.00000000000E+00  0.74505805969E-08  0.10566000000E+00  0.10566000000E+00 0.  1.
     999900   -1    0    0    0    0 -0.00000000000E+00 -0.00000000000E+00 -0.74505805969E-08  0.93827000000E+00  0.93827000000E+00 0.  1.
     999902    2    1    2    0    0 -0.18875246264E-01  0.64657836596E-02 -0.12628706517E-01  0.10203171749E+01  0.10200439069E+01 0.  0.
     999903    2    3    3    0    0 -0.17769465577E-01  0.31534448539E-01  0.12212881991E+00  0.12970544603E+00  0.24451558767E-01 0.  0.
         14    1    1    2    0    0  0.18875246264E-01 -0.64657836596E-02  0.12628706517E-01  0.23612825078E-01  0.00000000000E+00 0.  1.
     999901    1    3    3    0    0 -0.11057806872E-02 -0.25068664879E-01 -0.13475752643E+00  0.89061172889E+00  0.88000000000E+00 0.  1.
        -11    1    4    4    0    0 -0.13052423547E-01  0.33595705958E-01  0.86603464952E-01  0.93805428851E-01  0.51100000000E-03 0. -1.
         11    1    4    4    0    0 -0.47170420292E-02 -0.20612574195E-02  0.35525354958E-01  0.35900017180E-01  0.51100000000E-03 0.  1.
</event>
<event>
 8    1  0.1138737E+005  0.1043930E+01  0.7957747E-01            NaN
         13   -1    0    0    0    0  0.00000000000E+00  0.00000000000E+00  0.74505805969E-08  0.10566000000E+00  0.10566000000E+00 0.  1.
     999900   -1    0    0    0    0 -0.00000000000E+00 -0.00000000000E+00 -0.74505805969E-08  0.93827000000E+00  0.93827000000E+00 0. -1.
     999902    2    1    2    0    0 -0.12849535740E-01  0.11557069682E-01 -0.10387905814E-01  0.10237660466E+01  0.10235674542E+01 0.  0.
     999903    2    3    3    0    0 -0.85949261165E-03  0.11116105285E+00  0.72389070553E-01  0.13420618782E+00  0.20337278942E-01 0.  0.
         14    1    1    2    0    0  0.12849535740E-01 -0.11557069682E-01  0.10387905814E-01  0.20163953371E-01  0.00000000000E+00 0.  1.
     999901    1    3    3    0    0 -0.11990043128E-01 -0.99603983165E-01 -0.82776976367E-01  0.88955985881E+00  0.88000000000E+00 0. -1.
        -11    1    4    4    0    0  0.52818026489E-02  0.65880102178E-01  0.32993955992E-01  0.73871155096E-01  0.51100000000E-03 0. -1.
         11    1    4    4    0    0 -0.61412952606E-02  0.45280950669E-01  0.39395114561E-01  0.60335032719E-01  0.51100000000E-03 0.  1.
</event>
<event>
 8    1  0.1138737E+005  0.1043930E+01  0.7957747E-01            NaN
         13   -1    0    0    0    0  0.00000000000E+00  0.00000000000E+00  0.74505805969E-08  0.10566000000E+00  0.10566000000E+00 0.  1.
     999900   -1    0    0    0    0 -0.00000000000E+00 -0.00000000000E+00 -0.74505805969E-08  0.93827000000E+00  0.93827000000E+00 0.  1.
     999902    2    1    2    0    0 -0.10885905245E-01  0.20333722409E-01  0.10108288460E-01  0.10187478497E+01  0.10184365668E+01 0.  0.
     999903    2    3    3    0    0 -0.16915195753E-01  0.83549458866E-01  0.98954729216E-01  0.13199744977E+00  0.19095873551E-01 0.  0.
         14    1    1    2    0    0  0.10885905245E-01 -0.20333722409E-01 -0.10108288460E-01  0.25182150337E-01  0.00000000000E+00 0. -1.
     999901    1    3    3    0    0  0.60292905082E-02 -0.63215736458E-01 -0.88846440756E-01  0.88675039990E+00  0.88000000000E+00 0. -1.
        -11    1    4    4    0    0 -0.15412833425E-01  0.72769186333E-01  0.94404911715E-01  0.12018926071E+00  0.51100000000E-03 0.  1.
         11    1    4    4    0    0 -0.15023623276E-02  0.10780272533E-01  0.45498175009E-02  0.11808189055E-01  0.51100000000E-03 0. -1.
</event>
<event>
 8    1  0.1138737E+005  0.1043930E+01  0.7957747E-01            NaN
         13   -1    0    0    0    0  0.00000000000E+00  0.00000000000E+00  0.74505805969E-08  0.10566000000E+00  0.10566000000E+00 0.  1.
     999900   -1    0    0    0    0 -0.00000000000E+00 -0.00000000000E+00 -0.74505805969E-08  0.93827000000E+00  0.93827000000E+00 0. -1.
     999902    2    1    2    0    0  0.73755498964E-02  0.22464449271E-01  0.49611864939E-03  0.10202805528E+01  0.10200064265E+01 0.  0.
     999903    2    3    3    0    0 -0.77242367908E-01  0.70317674916E-01 -0.77473339985E-01  0.13150085027E+00  0.19478100721E-01 0.  0.
         14    1    1    2    0    0 -0.73755498964E-02 -0.22464449271E-01 -0.49611864939E-03  0.23649447162E-01  0.00000000000E+00 0. -1.
     999901    1    3    3    0    0  0.84617917804E-01 -0.47853225645E-01  0.77969458634E-01  0.88877970257E+00  0.88000000000E+00 0. -1.
        -11    1    4    4    0    0 -0.37739127949E-01  0.22767616013E-01 -0.37604376608E-01  0.57939247306E-01  0.51100000000E-03 0. -1.
         11    1    4    4    0    0 -0.39503239959E-01  0.47550058903E-01 -0.39868963377E-01  0.73561602964E-01  0.51100000000E-03 0.  1.
</event>
<event>
 8    1  0.1138737E+005  0.1043930E+01  0.7957747E-01            NaN
         13   -1    0    0    0    0  0.00000000000E+00  0.00000000000E+00  0.74505805969E-08  0.10566000000E+00  0.10566000000E+00 0. -1.
     999900   -1    0    0    0    0 -0.00000000000E+00 -0.00000000000E+00 -0.74505805969E-08  0.93827000000E+00  0.93827000000E+00 0.  1.
     999902    2    1    2    0    0 -0.14566984980E-01  0.13001388170E-01 -0.12747318835E-01  0.10206120395E+01  0.10203456316E+01 0.  0.
     999903    2    3    3    0    0 -0.80610388562E-01  0.77593709325E-01  0.67450149506E-01  0.13214958498E+00  0.19878925306E-01 0.  0.
         14    1    1    2    0    0  0.14566984980E-01 -0.13001388170E-01  0.12747318835E-01  0.23317960529E-01  0.00000000000E+00 0. -1.
     999901    1    3    3    0    0  0.66043403582E-01 -0.64592321155E-01 -0.80197468341E-01  0.88846245449E+00  0.88000000000E+00 0.  1.
        -11    1    4    4    0    0 -0.28009277642E-01  0.16308550215E-01  0.14063341153E-01  0.35334503386E-01  0.51100000000E-03 0.  1.
         11    1    4    4    0    0 -0.52601110921E-01  0.61285159110E-01  0.53386808352E-01  0.96815081596E-01  0.51100000000E-03 0. -1.
</event>
<event>
 8    1  0.1138737E+005  0.1043930E+01  0.7957747E-01            NaN
         13   -1    0    0    0    0  0.00000000000E+00  0.00000000000E+00  0.74505805969E-08  0.10566000000E+00  0.10566000000E+00 0.  1.
     999900   -1    0    0    0    0 -0.00000000000E+00 -0.00000000000E+00 -0.74505805969E-08  0.93827000000E+00  0.93827000000E+00 0.  1.
     999902    2    1    2    0    0 -0.13007431410E-01  0.18591488178E-01 -0.52095814982E-02  0.10206496125E+01  0.10203840723E+01 0.  0.
     999903    2    3    3    0    0  0.48138811388E-01  0.12156108108E+00  0.75278922802E-02  0.13244702110E+00  0.19776315108E-01 0.  0.
         14    1    1    2    0    0  0.13007431410E-01 -0.18591488178E-01  0.52095814982E-02  0.23280387539E-01  0.00000000000E+00 0. -1.
     999901    1    3    3    0    0 -0.61146242798E-01 -0.10296959290E+00 -0.12737473778E-01  0.88820259137E+00  0.88000000000E+00 0. -1.
        -11    1    4    4    0    0  0.20441543298E-01  0.29260998460E-01  0.50016400515E-02  0.36046362473E-01  0.51100000000E-03 0.  1.
         11    1    4    4    0    0  0.27697268090E-01  0.92300082621E-01  0.25262522286E-02  0.96400658623E-01  0.51100000000E-03 0. -1.
</event>
<event>
 8    1  0.1138737E+005  0.1043930E+01  0.7957747E-01            NaN
         13   -1    0    0    0    0  0.00000000000E+00  0.00000000000E+00  0.74505805969E-08  0.10566000000E+00  0.10566000000E+00 0.  1.
     999900   -1    0    0    0    0 -0.00000000000E+00 -0.00000000000E+00 -0.74505805969E-08  0.93827000000E+00  0.93827000000E+00 0. -1.
     999902    2    1    2    0    0 -0.34824989188E-01 -0.29883603562E-02  0.36031523758E-02  0.10087918032E+01  0.10081796513E+01 0.  0.
     999903    2    3    3    0    0 -0.89474159062E-01  0.32607218433E-03 -0.81848878880E-01  0.12295910628E+00  0.20346286640E-01 0.  0.
         14    1    1    2    0    0  0.34824989188E-01  0.29883603562E-02 -0.36031523758E-02  0.35138196832E-01  0.00000000000E+00 0. -1.
     999901    1    3    3    0    0  0.54649169874E-01 -0.33144325406E-02  0.85452031256E-01  0.88583269689E+00  0.88000000000E+00 0.  1.
        -11    1    4    4    0    0 -0.63450258382E-01 -0.89585865842E-02 -0.55464374846E-01  0.84751103594E-01  0.51100000000E-03 0. -1.
         11    1    4    4    0    0 -0.26023900680E-01  0.92846587685E-02 -0.26384504034E-01  0.38208002685E-01  0.51100000000E-03 0.  1.
</event>
<event>
 8    1  0.1138737E+005  0.1043930E+01  0.7957747E-01            NaN
         13   -1    0    0    0    0  0.00000000000E+00  0.00000000000E+00  0.74505805969E-08  0.10566000000E+00  0.10566000000E+00 0.  1.
     999900   -1    0    0    0    0 -0.00000000000E+00 -0.00000000000E+00 -0.74505805969E-08  0.93827000000E+00  0.93827000000E+00 0.  1.
     999902    2    1    2    0    0 -0.65827029347E-02  0.20018327383E-01  0.84370099704E-02  0.10212309131E+01  0.10209786135E+01 0.  0.
     999903    2    3    3    0    0 -0.76537811001E-01 -0.70423471208E-02 -0.10413443965E+00  0.13089483693E+00  0.19540871229E-01 0.  0.
         14    1    1    2    0    0  0.65827029347E-02 -0.20018327383E-01 -0.84370099704E-02  0.22699086906E-01  0.00000000000E+00 0. -1.
     999901    1    3    3    0    0  0.69955108066E-01  0.27060674504E-01  0.11257144962E+00  0.89033607616E+00  0.88000000000E+00 0. -1.
        -11    1    4    4    0    0 -0.70207705750E-01 -0.12013111342E-01 -0.94208018403E-01  0.11810524393E+00  0.51100000000E-03 0.  1.
         11    1    4    4    0    0 -0.63301052508E-02  0.49707642215E-02 -0.99264212446E-02  0.12789593002E-01  0.51100000000E-03 0. -1.
</event>
<event>
 8    1  0.1138737E+005  0.1043930E+01  0.7957747E-01            NaN
         13   -1    0    0    0    0  0.00000000000E+00  0.00000000000E+00  0.74505805969E-08  0.10566000000E+00  0.10566000000E+00 0.  1.
     999900   -1    0    0    0    0 -0.00000000000E+00 -0.00000000000E+00 -0.74505805969E-08  0.93827000000E+00  0.93827000000E+00 0. -1.
     999902    2    1    2    0    0  0.90592574154E-02 -0.17777345249E-01  0.12580536669E-01  0.10203424174E+01  0.10200697401E+01 0.  0.
     999903    2    3    3    0    0 -0.12096946405E+00  0.17962350992E-01  0.38195703716E-01  0.12970167555E+00  0.20183051666E-01 0.  0.
         14    1    1    2    0    0 -0.90592574154E-02  0.17777345249E-01 -0.12580536669E-01  0.23587582578E-01  0.00000000000E+00 0. -1.
     999901    1    3    3    0    0  0.13002872146E+00 -0.35739696240E-01 -0.25615167047E-01  0.89064074187E+00  0.88000000000E+00 0. -1.
        -11    1    4    4    0    0 -0.50202958042E-01  0.17315934851E-01  0.14206699958E-01  0.54975176586E-01  0.51100000000E-03 0.  1.
         11    1    4    4    0    0 -0.70766506003E-01  0.64641614090E-03  0.23989003758E-01  0.74726498968E-01  0.51100000000E-03 0. -1.
</event>
<event>
 8    1  0.1138737E+005  0.1043930E+01  0.7957747E-01            NaN
         13   -1    0    0    0    0  0.00000000000E+00  0.00000000000E+00  0.74505805969E-08  0.10566000000E+00  0.10566000000E+00 0.  1.
     999900   -1    0    0    0    0 -0.00000000000E+00 -0.00000000000E+00 -0.74505805969E-08  0.93827000000E+00  0.93827000000E+00 0. -1.
     999902    2    1    2    0    0 -0.10666564157E-01  0.19027844389E-01  0.10056159983E-01  0.10199099915E+01  0.10196271034E+01 0.  0.
     999903    2    3    3    0    0  0.47303556031E-02  0.12835613572E+00 -0.24448930832E-01  0.13234008346E+00  0.20456628044E-01 0.  0.
         14    1    1    2    0    0  0.10666564157E-01 -0.19027844389E-01 -0.10056159983E-01  0.24020008464E-01  0.00000000000E+00 0. -1.
     999901    1    3    3    0    0 -0.15396919760E-01 -0.10932829133E+00  0.34505090814E-01  0.88756990807E+00  0.88000000000E+00 0.  1.
        -11    1    4    4    0    0  0.78773428601E-02  0.10633689354E+00 -0.13304981989E-01  0.10745636847E+00  0.51100000000E-03 0. -1.
         11    1    4    4    0    0 -0.31469872571E-02  0.22019242183E-01 -0.11143948842E-01  0.24883714994E-01  0.51100000000E-03 0.  1.
</event>
<event>
 8    1  0.1138737E+005  0.1043930E+01  0.7957747E-01            NaN
         13   -1    0    0    0    0  0.00000000000E+00  0.00000000000E+00  0.74505805969E-08  0.10566000000E+00  0.10566000000E+00 0.  1.
     999900   -1    0    0    0    0 -0.00000000000E+00 -0.00000000000E+00 -0.74505805969E-08  0.93827000000E+00  0.93827000000E+00 0.  1.
     999902    2    1    2    0    0  0.18504592304E-01 -0.77132197516E-03 -0.14196107360E-01  0.10205945262E+01  0.10203277133E+01 0.  0.
     999903    2    3    3    0    0 -0.43065912179E-01  0.92385144127E-01  0.76212173077E-01  0.12894285015E+00  0.20694821426E-01 0.  0.
         14    1    1    2    0    0 -0.18504592304E-01  0.77132197516E-03  0.14196107360E-01  0.23335473813E-01  0.00000000000E+00 0.  1.
     999901    1    3    3    0    0  0.61570504483E-01 -0.93156466102E-01 -0.90408280437E-01  0.89165167603E+00  0.88000000000E+00 0.  1.
        -11    1    4    4    0    0 -0.25066998105E-01  0.32755400527E-01  0.36433011347E-01  0.55035407643E-01  0.51100000000E-03 0. -1.
         11    1    4    4    0    0 -0.17998914074E-01  0.59629743600E-01  0.39779161730E-01  0.73907442511E-01  0.51100000000E-03 0.  1.
</event>
<event>
 8    1  0.1138737E+005  0.1043930E+01  0.7957747E-01            NaN
         13   -1    0    0    0    0  0.00000000000E+00  0.00000000000E+00  0.74505805969E-08  0.10566000000E+00  0.10566000000E+00 0. -1.
     999900   -1    0    0    0    0 -0.00000000000E+00 -0.00000000000E+00 -0.74505805969E-08  0.93827000000E+00  0.93827000000E+00 0.  1.
     999902    2    1    2    0    0 -0.66236304613E-02 -0.19338872654E-01  0.10819059066E-01  0.10208017377E+01  0.10205396961E+01 0.  0.
     999903    2    3    3    0    0  0.87161503162E-01 -0.87525071452E-01 -0.41212604287E-01  0.13167165559E+00  0.19523841007E-01 0.  0.
         14    1    1    2    0    0  0.66236304613E-02  0.19338872654E-01 -0.10819059066E-01  0.23128262258E-01  0.00000000000E+00 0.  1.
     999901    1    3    3    0    0 -0.93785133623E-01  0.68186198798E-01  0.52031663353E-01  0.88913008215E+00  0.88000000000E+00 0. -1.
        -11    1    4    4    0    0  0.36881502148E-01 -0.44762312144E-01 -0.27781133828E-01  0.64311447713E-01  0.51100000000E-03 0. -1.
         11    1    4    4    0    0  0.50280001014E-01 -0.42762759308E-01 -0.13431470459E-01  0.67360207878E-01  0.51100000000E-03 0.  1.
</event>
<event>
 8    1  0.1138737E+005  0.1043930E+01  0.7957747E-01            NaN
         13   -1    0    0    0    0  0.00000000000E+00  0.00000000000E+00  0.74505805969E-08  0.10566000000E+00  0.10566000000E+00 0.  1.
     999900   -1    0    0    0    0 -0.00000000000E+00 -0.00000000000E+00 -0.74505805969E-08  0.93827000000E+00  0.93827000000E+00 0.  1.
     999902    2    1    2    0    0  0.11771301542E-01 -0.14020047602E-01 -0.13029257416E-01  0.10214603132E+01  0.10212131436E+01 0.  0.
     999903    2    3    3    0    0  0.94984533682E-01  0.51495449612E-01 -0.74868831790E-01  0.13295547062E+00  0.19949241213E-01 0.  0.
         14    1    1    2    0    0 -0.11771301542E-01  0.14020047602E-01  0.13029257416E-01  0.22469686771E-01  0.00000000000E+00 0. -1.
     999901    1    3    3    0    0 -0.83213232140E-01 -0.65515497214E-01  0.61839574373E-01  0.88850484261E+00  0.88000000000E+00 0. -1.
        -11    1    4    4    0    0  0.29991529304E-01  0.25043186948E-01 -0.33687298372E-01  0.51592133461E-01  0.51100000000E-03 0.  1.
         11    1    4    4    0    0  0.64993004378E-01  0.26452262664E-01 -0.41181533418E-01  0.81363337160E-01  0.51100000000E-03 0. -1.
</event>
<event>
 8    1  0.1138737E+005  0.1043930E+01  0.7957747E-01            NaN
         13   -1    0    0    0    0  0.00000000000E+00  0.00000000000E+00  0.74505805969E-08  0.10566000000E+00  0.10566000000E+00 0.  1.
     999900   -1    0    0    0    0 -0.00000000000E+00 -0.00000000000E+00 -0.74505805969E-08  0.93827000000E+00  0.93827000000E+00 0.  1.
     999902    2    1    2    0    0 -0.51402514179E-02 -0.20930948748E-01  0.94767645006E-02  0.10203856617E+01  0.10201139950E+01 0.  0.
     999903    2    3    3    0    0 -0.10465247706E+00 -0.65193612087E-01  0.45502039392E-01  0.13294006515E+00  0.20006931857E-01 0.  0.
         14    1    1    2    0    0  0.51402514179E-02  0.20930948748E-01 -0.94767645006E-02  0.23544338290E-01  0.00000000000E+00 0. -1.
     999901    1    3    3    0    0  0.99512225641E-01  0.44262663339E-01 -0.36025274891E-01  0.88744559656E+00  0.88000000000E+00 0.  1.
        -11    1    4    4    0    0 -0.11439734830E-01 -0.22032033277E-02  0.87787665443E-02  0.14596215295E-01  0.51100000000E-03 0.  1.
         11    1    4    4    0    0 -0.93212742229E-01 -0.62990408759E-01  0.36723272848E-01  0.11834384986E+00  0.51100000000E-03 0. -1.
</event>
<event>
 8    1  0.1138737E+005  0.1043930E+01  0.7957747E-01            NaN
         13   -1    0    0    0    0  0.00000000000E+00  0.00000000000E+00  0.74505805969E-08  0.10566000000E+00  0.10566000000E+00 0.  1.
     999900   -1    0    0    0    0 -0.00000000000E+00 -0.00000000000E+00 -0.74505805969E-08  0.93827000000E+00  0.93827000000E+00 0. -1.
     999902    2    1    2    0    0  0.69758777708E-02  0.77146110596E-02 -0.22713510553E-01  0.10189483736E+01  0.10186420895E+01 0.  0.
     999903    2    3    3    0    0 -0.11613387166E-01  0.39051826811E-01 -0.12430319944E+00  0.13235486658E+00  0.20164557452E-01 0.  0.
         14    1    1    2    0    0 -0.69758777708E-02 -0.77146110596E-02  0.22713510553E-01  0.24981626370E-01  0.00000000000E+00 0.  1.
     999901    1    3    3    0    0  0.18589264937E-01 -0.31337215752E-01  0.10158968888E+00  0.88659350705E+00  0.88000000000E+00 0.  1.
        -11    1    4    4    0    0 -0.99841983967E-02  0.88261509581E-02 -0.57274074095E-01  0.58806171809E-01  0.51100000000E-03 0. -1.
         11    1    4    4    0    0 -0.16291887695E-02  0.30225675853E-01 -0.67029125342E-01  0.73548694767E-01  0.51100000000E-03 0.  1.
</event>
<event>
 7    1  0.1138737E+005  0.1043930E+01  0.7957747E-01            NaN
         13   -1    0    0    0    0  0.00000000000E+00  0.00000000000E+00  0.74505805969E-08  0.10566000000E+00  0.10566000000E+00 0.  1.
     999900   -1    0    0    0    0 -0.00000000000E+00 -0.00000000000E+00 -0.74505805969E-08  0.93827000000E+00  0.93827000000E+00 0. -1.
     999903    2    1    2    0    0  0.82162705801E-01  0.48951414687E-01  0.10361035640E-01  0.98324937254E-01  0.20334478161E-01 0.  0.
         14    1    1    2    0    0 -0.11975756952E-01  0.15499403364E-02  0.57512027764E-01  0.58766099132E-01  0.00000000000E+00 0.  1.
     999901    1    1    2    0    0 -0.70186948849E-01 -0.50501355023E-01 -0.67873063404E-01  0.88683896361E+00  0.88000000000E+00 0. -1.
        -11    1    3    3    0    0  0.56666517664E-01  0.29327482613E-01  0.15690225500E-01  0.65708749477E-01  0.51100000000E-03 0. -1.
         11    1    3    3    0    0  0.25496188137E-01  0.19623932074E-01 -0.53291898596E-02  0.32616187777E-01  0.51100000000E-03 0.  1.
</event>
<event>
 8    1  0.1138737E+005  0.1043930E+01  0.7957747E-01            NaN
         13   -1    0    0    0    0  0.00000000000E+00  0.00000000000E+00  0.74505805969E-08  0.10566000000E+00  0.10566000000E+00 0. -1.
     999900   -1    0    0    0    0 -0.00000000000E+00 -0.00000000000E+00 -0.74505805969E-08  0.93827000000E+00  0.93827000000E+00 0.  1.
     999902    2    1    2    0    0  0.10167294264E-02 -0.62650977036E-02 -0.23254933079E-01  0.10198244591E+01  0.10195395286E+01 0.  0.
     999903    2    3    3    0    0  0.42933717499E-01  0.44942190895E-01  0.10949754275E+00  0.12741063129E+00  0.19510317189E-01 0.  0.
         14    1    1    2    0    0 -0.10167294264E-02  0.62650977036E-02  0.23254933079E-01  0.24105540867E-01  0.00000000000E+00 0. -1.
     999901    1    3    3    0    0 -0.41916988072E-01 -0.51207288599E-01 -0.13275247582E+00  0.89241382785E+00  0.88000000000E+00 0.  1.
        -11    1    4    4    0    0  0.19433099019E-02  0.10979046288E-01  0.27142465091E-01  0.29347750220E-01  0.51100000000E-03 0.  1.
         11    1    4    4    0    0  0.40990407597E-01  0.33963144607E-01  0.82355077654E-01  0.98062881066E-01  0.51100000000E-03 0. -1.
</event>
<event>
 8    1  0.1138737E+005  0.1043930E+01  0.7957747E-01            NaN
         13   -1    0    0    0    0  0.00000000000E+00  0.00000000000E+00  0.74505805969E-08  0.10566000000E+00  0.10566000000E+00 0.  1.
     999900   -1    0    0    0    0 -0.00000000000E+00 -0.00000000000E+00 -0.74505805969E-08  0.93827000000E+00  0.93827000000E+00 0. -1.
     999902    2    1    2    0    0  0.16508109520E-01  0.16105203907E-01  0.89395865938E-04  0.10208669719E+01  0.10206064232E+01 0.  0.
     999903    2    3    3    0    0  0.11243663134E+00 -0.16332869910E-01  0.65392310348E-01  0.13265585930E+00  0.20314134181E-01 0.  0.
         14    1    1    2    0    0 -0.16508109520E-01 -0.16105203907E-01 -0.89395865938E-04  0.23063028084E-01  0.00000000000E+00 0. -1.
     999901    1    3    3    0    0 -0.95928521821E-01  0.32438073817E-01 -0.65302914482E-01  0.88821111261E+00  0.88000000000E+00 0.  1.
        -11    1    4    4    0    0  0.27849788409E-01 -0.82366519821E-02  0.80452209207E-02  0.30140335947E-01  0.51100000000E-03 0. -1.
         11    1    4    4    0    0  0.84586842932E-01 -0.80962179278E-02  0.57347089427E-01  0.10251552335E+00  0.51100000000E-03 0.  1.
</event>
<event>
 8    1  0.1138737E+005  0.1043930E+01  0.7957747E-01            NaN
         13   -1    0    0    0    0  0.00000000000E+00  0.00000000000E+00  0.74505805969E-08  0.10566000000E+00  0.10566000000E+00 0.  1.
     999900   -1    0    0    0    0 -0.00000000000E+00 -0.00000000000E+00 -0.74505805969E-08  0.93827000000E+00  0.93827000000E+00 0.  1.
     999902    2    1    2    0    0  0.74792168264E-02 -0.14836476963E-01 -0.17199798987E-01  0.10200157194E+01  0.10197353455E+01 0.  0.
     999903    2    3    3    0    0  0.70660017193E-01 -0.28953685616E-01  0.10285058766E+00  0.12950844570E+00  0.19053613472E-01 0.  0.
         14    1    1    2    0    0 -0.74792168264E-02  0.14836476963E-01  0.17199798987E-01  0.23914280634E-01  0.00000000000E+00 0.  1.
     999901    1    3    3    0    0 -0.63180800366E-01  0.14117208653E-01 -0.12005038664E+00  0.89050727366E+00  0.88000000000E+00 0.  1.
        -11    1    4    4    0    0  0.61932315926E-01 -0.18554339674E-01  0.79259363636E-01  0.10228481374E+00  0.51100000000E-03 0. -1.
         11    1    4    4    0    0  0.87277012662E-02 -0.10399345942E-01  0.23591224022E-01  0.27223631963E-01  0.51100000000E-03 0.  1.
</event>
<event>
 8    1  0.1138737E+005  0.1043930E+01  0.7957747E-01            NaN
         13   -1    0    0    0    0  0.00000000000E+00  0.00000000000E+00  0.74505805969E-08  0.10566000000E+00  0.10566000000E+00 0.  1.
     999900   -1    0    0    0    0 -0.00000000000E+00 -0.00000000000E+00 -0.74505805969E-08  0.93827000000E+00  0.93827000000E+00 0.  1.
     999902    2    1    2    0    0 -0.14202917444E-01  0.15009331152E-01  0.11730123094E-01  0.10201687148E+01  0.10198919590E+01 0.  0.
     999903    2    3    3    0    0  0.39024011423E-01  0.65498405283E-01 -0.10300211667E+00  0.12969370708E+00  0.19952620282E-01 0.  0.
         14    1    1    2    0    0  0.14202917444E-01 -0.15009331152E-01 -0.11730123094E-01  0.23761285179E-01  0.00000000000E+00 0. -1.
     999901    1    3    3    0    0 -0.53226928867E-01 -0.50489074131E-01  0.11473223977E+00  0.89047500774E+00  0.88000000000E+00 0.  1.
        -11    1    4    4    0    0  0.22198276117E-01  0.24026574885E-01 -0.55517409694E-01  0.64439767717E-01  0.51100000000E-03 0.  1.
         11    1    4    4    0    0  0.16825735305E-01  0.41471830397E-01 -0.47484706978E-01  0.65253939366E-01  0.51100000000E-03 0. -1.
</event>
<event>
 8    1  0.1138737E+005  0.1043930E+01  0.7957747E-01            NaN
         13   -1    0    0    0    0  0.00000000000E+00  0.00000000000E+00  0.74505805969E-08  0.10566000000E+00  0.10566000000E+00 0.  1.
     999900   -1    0    0    0    0 -0.00000000000E+00 -0.00000000000E+00 -0.74505805969E-08  0.93827000000E+00  0.93827000000E+00 0. -1.
     999902    2    1    2    0    0  0.35616635130E-02 -0.21863482315E-01 -0.27587236705E-02  0.10216071896E+01  0.10213632762E+01 0.  0.
     999903    2    3    3    0    0  0.85087107792E-01  0.95221835699E-01  0.13236804079E-01  0.12997316906E+00  0.20268147083E-01 0.  0.
         14    1    1    2    0    0 -0.35616635130E-02  0.21863482315E-01  0.27587236705E-02  0.22322810357E-01  0.00000000000E+00 0.  1.
     999901    1    3    3    0    0 -0.81525444279E-01 -0.11708531801E+00 -0.15995527750E-01  0.89163402059E+00  0.88000000000E+00 0.  1.
        -11    1    4    4    0    0  0.30300082054E-01  0.20286918452E-01  0.39547319059E-02  0.36681808274E-01  0.51100000000E-03 0.  1.
         11    1    4    4    0    0  0.54787025738E-01  0.74934917247E-01  0.92820721732E-02  0.93291360783E-01  0.51100000000E-03 0. -1.
</event>
<event>
 7    1  0.1138737E+005  0.1043930E+01  0.7957747E-01            NaN
         13   -1    0    0    0    0  0.00000000000E+00  0.00000000000E+00  0.74505805969E-08  0.10566000000E+00  0.10566000000E+00 0. -1.
     999900   -1    0    0    0    0 -0.00000000000E+00 -0.00000000000E+00 -0.74505805969E-08  0.93827000000E+00  0.93827000000E+00 0. -1.
     999903    2    1    2    0    0  0.18890010118E-01 -0.68356170893E-01 -0.12655685377E+00  0.14621399658E+00  0.18234499648E-01 0.  0.
         14    1    1    2    0    0 -0.57986914056E-02 -0.66723134516E-03  0.20123818750E-02  0.61741153614E-02  0.00000000000E+00 0. -1.
     999901    1    1    2    0    0 -0.13091318712E-01  0.69023402238E-01  0.12454447190E+00  0.89154188806E+00  0.88000000000E+00 0.  1.
        -11    1    3    3    0    0  0.14501149744E-01 -0.33513732813E-01 -0.79579182642E-01  0.87558900530E-01  0.51100000000E-03 0. -1.
         11    1    3    3    0    0  0.43888603739E-02 -0.34842438080E-01 -0.46977671132E-01  0.58655096051E-01  0.51100000000E-03 0.  1.
</event>
<event>
 8    1  0.1138737E+005  0.1043930E+01  0.7957747E-01            NaN
         13   -1    0    0    0    0  0.00000000000E+00  0.00000000000E+00  0.74505805969E-08  0.10566000000E+00  0.10566000000E+00 0. -1.
     999900   -1    0    0    0    0 -0.00000000000E+00 -0.00000000000E+00 -0.74505805969E-08  0.93827000000E+00  0.93827000000E+00 0. -1.
     999902    2    1    2    0    0 -0.43153599369E-02  0.23466032012E-01 -0.64913147536E-02  0.10192032097E+01  0.10189032185E+01 0.  0.
     999903    2    3    3    0    0  0.91321308411E-01 -0.86044074562E-01  0.89792414089E-03  0.12724276407E+00  0.21136475650E-01 0.  0.
         14    1    1    2    0    0  0.43153599369E-02 -0.23466032012E-01  0.64913147536E-02  0.24726790269E-01  0.00000000000E+00 0. -1.
     999901    1    3    3    0    0 -0.95636668348E-01  0.10951010657E+00 -0.73892388945E-02  0.89196044566E+00  0.88000000000E+00 0. -1.
        -11    1    4    4    0    0  0.34340478247E-01 -0.45085307637E-01 -0.45288981871E-02  0.56857061573E-01  0.51100000000E-03 0. -1.
         11    1    4    4    0    0  0.56980830164E-01 -0.40958766925E-01  0.54268223280E-02  0.70385702495E-01  0.51100000000E-03 0.  1.
</event>
<event>
 8    1  0.1138737E+005  0.1043930E+01  0.7957747E-01            NaN
         13   -1    0    0    0    0  0.00000000000E+00  0.00000000000E+00  0.74505805969E-08  0.10566000000E+00  0.10566000000E+00 0. -1.
     999900   -1    0    0    0    0 -0.00000000000E+00 -0.00000000000E+00 -0.74505805969E-08  0.93827000000E+00  0.93827000000E+00 0. -1.
     999902    2    1    2    0    0 -0.17826648031E-01  0.11288375450E-02  0.14336359182E-01  0.10210259644E+01  0.10207690361E+01 0.  0.
     999903    2    3    3    0    0 -0.42580022829E-01  0.93134391231E-01 -0.79138409088E-01  0.13096120054E+00  0.20021865073E-01 0.  0.
         14    1    1    2    0    0  0.17826648031E-01 -0.11288375450E-02 -0.14336359182E-01  0.22904035645E-01  0.00000000000E+00 0. -1.
     999901    1    3    3    0    0  0.24753374798E-01 -0.92005553686E-01  0.93474768271E-01  0.89006476381E+00  0.88000000000E+00 0.  1.
        -11    1    4    4    0    0 -0.90694344421E-02  0.40018042591E-01 -0.37636968357E-01  0.55682141500E-01  0.51100000000E-03 0.  1.
         11    1    4    4    0    0 -0.33510588387E-01  0.53116348640E-01 -0.41501440731E-01  0.75279059045E-01  0.51100000000E-03 0. -1.
</event>
<event>
 8    1  0.1138737E+005  0.1043930E+01  0.7957747E-01            NaN
         13   -1    0    0    0    0  0.00000000000E+00  0.00000000000E+00  0.74505805969E-08  0.10566000000E+00  0.10566000000E+00 0.  1.
     999900   -1    0    0    0    0 -0.00000000000E+00 -0.00000000000E+00 -0.74505805969E-08  0.93827000000E+00  0.93827000000E+00 0.  1.
     999902    2    1    2    0    0 -0.11659725934E-01  0.17877886793E-01  0.72393975148E-02  0.10213916566E+01  0.10211429573E+01 0.  0.
     999903    2    3    3    0    0 -0.61383617585E-01 -0.30723835528E-01 -0.10957040657E+00  0.13095405459E+00  0.20769878205E-01 0.  0.
         14    1    1    2    0    0  0.11659725934E-01 -0.17877886793E-01 -0.72393975148E-02  0.22538343360E-01  0.00000000000E+00 0. -1.
     999901    1    3    3    0    0  0.49723891652E-01  0.48601722321E-01  0.11680980408E+00  0.89043760205E+00  0.88000000000E+00 0. -1.
        -11    1    4    4    0    0 -0.18834447586E-01 -0.63487576021E-02 -0.49918946963E-01  0.53732723045E-01  0.51100000000E-03 0. -1.
         11    1    4    4    0    0 -0.42549170000E-01 -0.24375077925E-01 -0.59651459606E-01  0.77221331545E-01  0.51100000000E-03 0.  1.
</event>
<event>
 8    1  0.1138737E+005  0.1043930E+01  0.7957747E-01            NaN
         13   -1    0    0    0    0  0.00000000000E+00  0.00000000000E+00  0.74505805969E-08  0.10566000000E+00  0.10566000000E+00 0. -1.
     999900   -1    0    0    0    0 -0.00000000000E+00 -0.00000000000E+00 -0.74505805969E-08  0.93827000000E+00  0.93827000000E+00 0.  1.
     999902    2    1    2    0    0  0.18957903639E-01 -0.67374740854E-02 -0.12822468950E-01  0.10200718488E+01  0.10197928051E+01 0.  0.
     999903    2    3    3    0    0  0.18345978000E-01 -0.20571446428E-01 -0.12801176227E+00  0.13245688357E+00  0.19951326015E-01 0.  0.
         14    1    1    2    0    0 -0.18957903639E-01  0.67374740854E-02  0.12822468950E-01  0.23858151173E-01  0.00000000000E+00 0. -1.
     999901    1    3    3    0    0  0.61192563961E-03  0.13833972343E-01  0.11518929332E+00  0.88761496525E+00  0.88000000000E+00 0. -1.
        -11    1    4    4    0    0  0.51375711267E-02 -0.13337845124E-01 -0.29329684203E-01  0.32631031949E-01  0.51100000000E-03 0.  1.
         11    1    4    4    0    0  0.13208406873E-01 -0.72336013043E-02 -0.98682078068E-01  0.99825851625E-01  0.51100000000E-03 0. -1.
</event>
<event>
 8    1  0.1138737E+005  0.1043930E+01  0.7957747E-01            NaN
         13   -1    0    0    0    0  0.00000000000E+00  0.00000000000E+00  0.74505805969E-08  0.10566000000E+00  0.10566000000E+00 0. -1.
     999900   -1    0    0    0    0 -0.00000000000E+00 -0.00000000000E+00 -0.74505805969E-08  0.93827000000E+00  0.93827000000E+00 0. -1.
     999902    2    1    2    0    0 -0.25646469602E-01  0.12320994680E-02  0.29640359812E-02  0.10180834339E+01  0.10177552915E+01 0.  0.
     999903    2    3    3    0    0  0.12301707775E+00  0.94355348340E-02  0.11380161740E-01  0.12553708893E+00  0.20194600264E-01 0.  0.
         14    1    1    2    0    0  0.25646469602E-01 -0.12320994680E-02 -0.29640359812E-02  0.25846566144E-01  0.00000000000E+00 0. -1.
     999901    1    3    3    0    0 -0.14866354735E+00 -0.82034353660E-02 -0.84161257591E-02  0.89254634492E+00  0.88000000000E+00 0.  1.
        -11    1    4    4    0    0  0.49381104888E-01 -0.37873683752E-02 -0.18380294457E-02  0.49562860616E-01  0.51100000000E-03 0. -1.
         11    1    4    4    0    0  0.73635972865E-01  0.13222903209E-01  0.13218191186E-01  0.75974228316E-01  0.51100000000E-03 0.  1.
</event>
<event>
 8    1  0.1138737E+005  0.1043930E+01  0.7957747E-01            NaN
         13   -1    0    0    0    0  0.00000000000E+00  0.00000000000E+00  0.74505805969E-08  0.10566000000E+00  0.10566000000E+00 0. -1.
     999900   -1    0    0    0    0 -0.00000000000E+00 -0.00000000000E+00 -0.74505805969E-08  0.93827000000E+00  0.93827000000E+00 0.  1.
     999902    2    1    2    0    0  0.12392535138E-01  0.18203892097E-01 -0.25699064370E-02  0.10217588243E+01  0.10215182494E+01 0.  0.
     999903    2    3    3    0    0 -0.37910211950E-01 -0.12198423453E+00 -0.23430402002E-02  0.12924376630E+00  0.19522388373E-01 0.  0.
         14    1    1    2    0    0 -0.12392535138E-01 -0.18203892097E-01  0.25699064370E-02  0.22171175741E-01  0.00000000000E+00 0. -1.
     999901    1    3    3    0    0  0.50302747088E-01  0.14018812662E+00 -0.22686623682E-03  0.89251505796E+00  0.88000000000E+00 0. -1.
        -11    1    4    4    0    0 -0.11450684819E-01 -0.62809664064E-01  0.48078619150E-02  0.64027718528E-01  0.51100000000E-03 0.  1.
         11    1    4    4    0    0 -0.26459527131E-01 -0.59174570461E-01 -0.71509021152E-02  0.65216047775E-01  0.51100000000E-03 0. -1.
</event>
<event>
 8    1  0.1138737E+005  0.1043930E+01  0.7957747E-01            NaN
         13   -1    0    0    0    0  0.00000000000E+00  0.00000000000E+00  0.74505805969E-08  0.10566000000E+00  0.10566000000E+00 0. -1.
     999900   -1    0    0    0    0 -0.00000000000E+00 -0.00000000000E+00 -0.74505805969E-08  0.93827000000E+00  0.93827000000E+00 0. -1.
     999902    2    1    2    0    0  0.24965016288E-02 -0.20753211856E-02  0.23294387675E-01  0.10204104767E+01  0.10201393890E+01 0.  0.
     999903    2    3    3    0    0  0.79358149666E-02  0.12819486769E+00  0.11886471697E-01  0.13073073164E+00  0.21268162227E-01 0.  0.
         14    1    1    2    0    0 -0.24965016288E-02  0.20753211856E-02 -0.23294387675E-01  0.23519523286E-01  0.00000000000E+00 0.  1.
     999901    1    3    3    0    0 -0.54393133379E-02 -0.13027018888E+00  0.11407915978E-01  0.88967974507E+00  0.88000000000E+00 0.  1.
        -11    1    4    4    0    0  0.12488153035E-01  0.69060435311E-01 -0.28615524122E-03  0.70182908870E-01  0.51100000000E-03 0.  1.
         11    1    4    4    0    0 -0.45523380685E-02  0.59134432384E-01  0.12172626938E-01  0.60547822775E-01  0.51100000000E-03 0. -1.
</event>
<event>
 8    1  0.1138737E+005  0.1043930E+01  0.7957747E-01            NaN
         13   -1    0    0    0    0  0.00000000000E+00  0.00000000000E+00  0.74505805969E-08  0.10566000000E+00  0.10566000000E+00 0. -1.
     999900   -1    0    0    0    0 -0.00000000000E+00 -0.00000000000E+00 -0.74505805969E-08  0.93827000000E+00  0.93827000000E+00 0.  1.
     999902    2    1    2    0    0  0.28645991501E-02  0.16013887143E-01  0.17684232146E-01  0.10199012136E+01  0.10196181162E+01 0.  0.
     999903    2    3    3    0    0  0.84642378309E-02 -0.81711587026E-01 -0.95198807735E-01  0.12730712614E+00  0.19896346298E-01 0.  0.
         14    1    1    2    0    0 -0.28645991501E-02 -0.16013887143E-01 -0.17684232146E-01  0.24028786410E-01  0.00000000000E+00 0. -1.
     999901    1    3    3    0    0 -0.55996386808E-02  0.97725474169E-01  0.11288303988E+00  0.89259408745E+00  0.88000000000E+00 0. -1.
        -11    1    4    4    0    0 -0.22311126718E-02 -0.43821959639E-01 -0.39128475884E-01  0.58793203318E-01  0.51100000000E-03 0.  1.
         11    1    4    4    0    0  0.10695350503E-01 -0.37889627387E-01 -0.56070331850E-01  0.68513922824E-01  0.51100000000E-03 0. -1.
</event>
<event>
 8    1  0.1138737E+005  0.1043930E+01  0.7957747E-01            NaN
         13   -1    0    0    0    0  0.00000000000E+00  0.00000000000E+00  0.74505805969E-08  0.10566000000E+00  0.10566000000E+00 0. -1.
     999900   -1    0    0    0    0 -0.00000000000E+00 -0.00000000000E+00 -0.74505805969E-08  0.93827000000E+00  0.93827000000E+00 0. -1.
     999902    2    1    2    0    0  0.15142708138E-01 -0.10391043536E-01  0.21337051055E-01  0.10157778217E+01  0.10153876294E+01 0.  0.
     999903    2    3    3    0    0  0.10206772896E+00  0.33548763499E-02 -0.68978923784E-01  0.12678857268E+00  0.29802243970E-01 0.  0.
         14    1    1    2    0    0 -0.15142708138E-01  0.10391043536E-01 -0.21337051055E-01  0.28152178304E-01  0.00000000000E+00 0.  1.
     999901    1    3    3    0    0 -0.86925020818E-01 -0.13745919886E-01  0.90315974840E-01  0.88898924902E+00  0.88000000000E+00 0. -1.
        -11    1    4    4    0    0  0.86330354782E-01 -0.34439571779E-02 -0.67371438283E-01  0.10956259770E+00  0.51100000000E-03 0.  1.
         11    1    4    4    0    0  0.15737374174E-01  0.67988335278E-02 -0.16074855012E-02  0.17225974976E-01  0.51100000000E-03 0. -1.
</event>
<event>
 8    1  0.1138737E+005  0.1043930E+01  0.7957747E-01            NaN
         13   -1    0    0    0    0  0.00000000000E+00  0.00000000000E+00  0.74505805969E-08  0.10566000000E+00  0.10566000000E+00 0.  1.
     999900   -1    0    0    0    0 -0.00000000000E+00 -0.00000000000E+00 -0.74505805969E-08  0.93827000000E+00  0.93827000000E+00 0. -1.
     999902    2    1    2    0    0  0.20137139659E-01 -0.10983996260E-01  0.20506394599E-02  0.10209005039E+01  0.10206407209E+01 0.  0.
     999903    2    3    3    0    0 -0.94231410230E-02 -0.50391361005E-01  0.11965787250E+00  0.13171086619E+00  0.20041481260E-01 0.  0.
         14    1    1    2    0    0 -0.20137139659E-01  0.10983996260E-01 -0.20506394599E-02  0.23029496079E-01  0.00000000000E+00 0.  1.
     999901    1    3    3    0    0  0.29560280682E-01  0.39407364746E-01 -0.11760723304E+00  0.88918963773E+00  0.88000000000E+00 0.  1.
        -11    1    4    4    0    0 -0.13953700634E-01 -0.25131169414E-01  0.53258702187E-01  0.60522986684E-01  0.51100000000E-03 0. -1.
         11    1    4    4    0    0  0.45305596105E-02 -0.25260191591E-01  0.66399170308E-01  0.71187879504E-01  0.51100000000E-03 0.  1.
</event>
<event>
 8    1  0.1138737E+005  0.1043930E+01  0.7957747E-01            NaN
         13   -1    0    0    0    0  0.00000000000E+00  0.00000000000E+00  0.74505805969E-08  0.10566000000E+00  0.10566000000E+00 0. -1.
     999900   -1    0    0    0    0 -0.00000000000E+00 -0.00000000000E+00 -0.74505805969E-08  0.93827000000E+00  0.93827000000E+00 0. -1.
     999902    2    1    2    0    0  0.24206834061E-01  0.14694000933E-01  0.51783595546E-02  0.10151428521E+01  0.10147346009E+01 0.  0.
     999903    2    3    3    0    0  0.11574836024E-01 -0.10408610242E+00 -0.64301767379E-01  0.12435905766E+00  0.19041123618E-01 0.  0.
         14    1    1    2    0    0 -0.24206834061E-01 -0.14694000933E-01 -0.51783595546E-02  0.28787147937E-01  0.00000000000E+00 0.  1.
     999901    1    3    3    0    0  0.12631998038E-01  0.11878010335E+00  0.69480126933E-01  0.89078379440E+00  0.88000000000E+00 0. -1.
        -11    1    4    4    0    0  0.48070925919E-02 -0.65332298544E-01 -0.50315293794E-01  0.82603312784E-01  0.51100000000E-03 0. -1.
         11    1    4    4    0    0  0.67677434320E-02 -0.38753803876E-01 -0.13986473584E-01  0.41755744879E-01  0.51100000000E-03 0.  1.
</event>
<event>
 8    1  0.1138737E+005  0.1043930E+01  0.7957747E-01            NaN
         13   -1    0    0    0    0  0.00000000000E+00  0.00000000000E+00  0.74505805969E-08  0.10566000000E+00  0.10566000000E+00 0.  1.
     999900   -1    0    0    0    0 -0.00000000000E+00 -0.00000000000E+00 -0.74505805969E-08  0.93827000000E+00  0.93827000000E+00 0. -1.
     999902    2    1    2    0    0  0.12825269264E-01  0.16961677018E-01  0.88108516597E-02  0.10209122432E+01  0.10206527281E+01 0.  0.
     999903    2    3    3    0    0  0.28687558020E-02  0.12288118891E+00  0.48356224456E-01  0.13362316315E+00  0.20219024160E-01 0.  0.
         14    1    1    2    0    0 -0.12825269264E-01 -0.16961677018E-01 -0.88108516597E-02  0.23017756752E-01  0.00000000000E+00 0. -1.
     999901    1    3    3    0    0  0.99565134617E-02 -0.10591951189E+00 -0.39545372797E-01  0.88728908010E+00  0.88000000000E+00 0. -1.
        -11    1    4    4    0    0  0.93920032631E-02  0.59165951413E-01  0.16792676280E-01  0.62217960667E-01  0.51100000000E-03 0.  1.
         11    1    4    4    0    0 -0.65232474611E-02  0.63715237495E-01  0.31563548177E-01  0.71405202478E-01  0.51100000000E-03 0. -1.
</event>
<event>
 8    1  0.1138737E+005  0.1043930E+01  0.7957747E-01            NaN
         13   -1    0    0    0    0  0.00000000000E+00  0.00000000000E+00  0.74505805969E-08  0.10566000000E+00  0.10566000000E+00 0. -1.
     999900   -1    0    0    0    0 -0.00000000000E+00 -0.00000000000E+00 -0.74505805969E-08  0.93827000000E+00  0.93827000000E+00 0.  1.
     999902    2    1    2    0    0 -0.20271736700E-01 -0.10762501271E-01 -0.85005703287E-02  0.10194548200E+01  0.10191609762E+01 0.  0.
     999903    2    3    3    0    0 -0.57081267527E-01  0.11466146648E+00  0.25402493930E-02  0.12973126011E+00  0.20450525244E-01 0.  0.
         14    1    1    2    0    0  0.20271736700E-01  0.10762501271E-01  0.85005703287E-02  0.24475180047E-01  0.00000000000E+00 0. -1.
     999901    1    3    3    0    0  0.36809530827E-01 -0.12542396776E+00 -0.11040819722E-01  0.88972355985E+00  0.88000000000E+00 0.  1.
        -11    1    4    4    0    0 -0.15003213413E-01  0.37043331339E-01  0.97633712109E-02  0.41144736575E-01  0.51100000000E-03 0.  1.
         11    1    4    4    0    0 -0.42078054114E-01  0.77618135145E-01 -0.72231218179E-02  0.88586523530E-01  0.51100000000E-03 0. -1.
</event>
<event>
 8    1  0.1138737E+005  0.1043930E+01  0.7957747E-01            NaN
         13   -1    0    0    0    0  0.00000000000E+00  0.00000000000E+00  0.74505805969E-08  0.10566000000E+00  0.10566000000E+00 0. -1.
     999900   -1    0    0    0    0 -0.00000000000E+00 -0.00000000000E+00 -0.74505805969E-08  0.93827000000E+00  0.93827000000E+00 0. -1.
     999902    2    1    2    0    0  0.13518416621E-01  0.19240703572E-01  0.97249901483E-03  0.10203949619E+01  0.10201235123E+01 0.  0.
     999903    2    3    3    0    0 -0.37237732848E-01  0.12233970113E+00 -0.28148783761E-01  0.13244584228E+00  0.19897132673E-01 0.  0.
         14    1    1    2    0    0 -0.13518416621E-01 -0.19240703572E-01 -0.97249901483E-03  0.23535038055E-01  0.00000000000E+00 0. -1.
     999901    1    3    3    0    0  0.50756149469E-01 -0.10309899756E+00  0.29121282775E-01  0.88794911967E+00  0.88000000000E+00 0. -1.
        -11    1    4    4    0    0 -0.23276053201E-01  0.53130253838E-01 -0.53635643991E-02  0.58254849322E-01  0.51100000000E-03 0.  1.
         11    1    4    4    0    0 -0.13961679648E-01  0.69209447295E-01 -0.22785219361E-01  0.74190992956E-01  0.51100000000E-03 0. -1.
</event>
<event>
 8    1  0.1138737E+005  0.1043930E+01  0.7957747E-01            NaN
         13   -1    0    0    0    0  0.00000000000E+00  0.00000000000E+00  0.74505805969E-08  0.10566000000E+00  0.10566000000E+00 0. -1.
     999900   -1    0    0    0    0 -0.00000000000E+00 -0.00000000000E+00 -0.74505805969E-08  0.93827000000E+00  0.93827000000E+00 0.  1.
     999902    2    1    2    0    0 -0.75833128957E-02  0.41216547341E-02  0.23796217960E-01  0.10186168678E+01  0.10183022973E+01 0.  0.
     999903    2    3    3    0    0  0.25774848717E-01  0.71610065107E-01 -0.99385709992E-01  0.12685387247E+00  0.20543645213E-01 0.  0.
         14    1    1    2    0    0  0.75833128957E-02 -0.41216547341E-02 -0.23796217960E-01  0.25313132193E-01  0.00000000000E+00 0.  1.
     999901    1    3    3    0    0 -0.33358161612E-01 -0.67488410373E-01  0.12318192795E+00  0.89176299534E+00  0.88000000000E+00 0. -1.
        -11    1    4    4    0    0  0.17311104911E-01  0.46496343785E-01 -0.79517723765E-01  0.93727871268E-01  0.51100000000E-03 0. -1.
         11    1    4    4    0    0  0.84637438053E-02  0.25113721321E-01 -0.19867986227E-01  0.33126001201E-01  0.51100000000E-03 0.  1.
</event>
<event>
 8    1  0.1428215E+005  0.1043930E+01  0.7957747E-01            NaN
         13   -1    0    0    0    0  0.00000000000E+00  0.00000000000E+00  0.74505805969E-08  0.10566000000E+00  0.10566000000E+00 0.  1.
     999900   -1    0    0    0    0 -0.00000000000E+00 -0.00000000000E+00 -0.74505805969E-08  0.93827000000E+00  0.93827000000E+00 0.  1.
     999902    2    1    2    0    0 -0.16368082586E-01  0.16794040968E-01  0.14540808567E-01  0.10163367209E+01  0.10159620766E+01 0.  0.
     999903    2    3    3    0    0  0.27444396687E-01 -0.45905267601E-01  0.11440057312E+00  0.12739200424E+00  0.16755390548E-01 0.  0.
         14    1    1    2    0    0  0.16368082586E-01 -0.16794040968E-01 -0.14540808567E-01  0.27593279134E-01  0.00000000000E+00 0. -1.
     999901    1    3    3    0    0 -0.43812479273E-01  0.62699308569E-01 -0.99859764552E-01  0.88894471662E+00  0.88000000000E+00 0.  1.
        -11    1    4    4    0    0  0.23831490879E-01 -0.27980972257E-01  0.64418248246E-01  0.74167692387E-01  0.51100000000E-03 0.  1.
         11    1    4    4    0    0  0.36129058076E-02 -0.17924295344E-01  0.49982324872E-01  0.53224311856E-01  0.51100000000E-03 0. -1.
</event>
<event>
 8    1  0.1290609E+005  0.1043930E+01  0.7957747E-01            NaN
         13   -1    0    0    0    0  0.00000000000E+00  0.00000000000E+00  0.74505805969E-08  0.10566000000E+00  0.10566000000E+00 0. -1.
     999900   -1    0    0    0    0 -0.00000000000E+00 -0.00000000000E+00 -0.74505805969E-08  0.93827000000E+00  0.93827000000E+00 0. -1.
     999902    2    1    2    0    0  0.86091928748E-02 -0.10780293145E-01  0.19009755884E-01  0.10204416254E+01  0.10201712636E+01 0.  0.
     999903    2    3    3    0    0  0.37480570517E-01 -0.14630935276E-01 -0.12089187093E+00  0.12891436891E+00  0.19626834174E-01 0.  0.
         14    1    1    2    0    0 -0.86091928748E-02  0.10780293145E-01 -0.19009755884E-01  0.23488374593E-01  0.00000000000E+00 0.  1.
     999901    1    3    3    0    0 -0.28871377643E-01  0.38506421310E-02  0.13990162682E+00  0.89152725650E+00  0.88000000000E+00 0.  1.
        -11    1    4    4    0    0  0.21052446055E-01 -0.18317380602E-01 -0.76828586129E-01  0.81741205549E-01  0.51100000000E-03 0. -1.
         11    1    4    4    0    0  0.16428124462E-01  0.36864453264E-02 -0.44063284806E-01  0.47173163360E-01  0.51100000000E-03 0.  1.
</event>
<event>
 8    1  0.1138737E+005  0.1043930E+01  0.7957747E-01            NaN
         13   -1    0    0    0    0  0.00000000000E+00  0.00000000000E+00  0.74505805969E-08  0.10566000000E+00  0.10566000000E+00 0. -1.
     999900   -1    0    0    0    0 -0.00000000000E+00 -0.00000000000E+00 -0.74505805969E-08  0.93827000000E+00  0.93827000000E+00 0.  1.
     999902    2    1    2    0    0 -0.70111843664E-02  0.19803448874E-01 -0.11849718856E-01  0.10198105238E+01  0.10195252598E+01 0.  0.
     999903    2    3    3    0    0 -0.19732524641E-02  0.30758253114E-01  0.12396880713E+00  0.12930950728E+00  0.20067876612E-01 0.  0.
         14    1    1    2    0    0  0.70111843664E-02 -0.19803448874E-01  0.11849718856E-01  0.24119476165E-01  0.00000000000E+00 0. -1.
     999901    1    3    3    0    0 -0.50379319023E-02 -0.10954804240E-01 -0.13581852598E+00  0.89050101656E+00  0.88000000000E+00 0.  1.
        -11    1    4    4    0    0  0.55747408276E-02  0.27219993572E-01  0.10434982987E+00  0.10798682281E+00  0.51100000000E-03 0.  1.
         11    1    4    4    0    0 -0.75479932917E-02  0.35382595423E-02  0.19618977257E-01  0.21322684468E-01  0.51100000000E-03 0. -1.
</event>
<event>
 8    1  0.1138737E+005  0.1043930E+01  0.7957747E-01            NaN
         13   -1    0    0    0    0  0.00000000000E+00  0.00000000000E+00  0.74505805969E-08  0.10566000000E+00  0.10566000000E+00 0.  1.
     999900   -1    0    0    0    0 -0.00000000000E+00 -0.00000000000E+00 -0.74505805969E-08  0.93827000000E+00  0.93827000000E+00 0. -1.
     999902    2    1    2    0    0 -0.54655353212E-02  0.23678941349E-01 -0.71944330489E-03  0.10196178232E+01  0.10193279274E+01 0.  0.
     999903    2    3    3    0    0  0.80775627454E-01 -0.74995323233E-01 -0.61319745274E-01  0.12785185325E+00  0.20904179526E-01 0.  0.
         14    1    1    2    0    0  0.54655353212E-02 -0.23678941349E-01  0.71944330489E-03  0.24312176752E-01  0.00000000000E+00 0.  1.
     999901    1    3    3    0    0 -0.86241162775E-01  0.98674264582E-01  0.60600301969E-01  0.89176597000E+00  0.88000000000E+00 0. -1.
        -11    1    4    4    0    0  0.36299164997E-01 -0.19985290985E-01 -0.22112153928E-01  0.46970732457E-01  0.51100000000E-03 0.  1.
         11    1    4    4    0    0  0.44476462457E-01 -0.55010032248E-01 -0.39207591346E-01  0.80881120793E-01  0.51100000000E-03 0. -1.
</event>
<event>
 8    1  0.1138737E+005  0.1043930E+01  0.7957747E-01            NaN
         13   -1    0    0    0    0  0.00000000000E+00  0.00000000000E+00  0.74505805969E-08  0.10566000000E+00  0.10566000000E+00 0. -1.
     999900   -1    0    0    0    0 -0.00000000000E+00 -0.00000000000E+00 -0.74505805969E-08  0.93827000000E+00  0.93827000000E+00 0. -1.
     999902    2    1    2    0    0 -0.37755284537E-02 -0.22427789666E-01 -0.24212008997E-02  0.10210581269E+01  0.10208019279E+01 0.  0.
     999903    2    3    3    0    0 -0.17648282464E-01 -0.11829602708E+00  0.57845866329E-01  0.13369388849E+00  0.14916422930E-01 0.  0.
         14    1    1    2    0    0  0.37755284537E-02  0.22427789666E-01  0.24212008997E-02  0.22871873080E-01  0.00000000000E+00 0. -1.
     999901    1    3    3    0    0  0.13872754010E-01  0.95868237410E-01 -0.60267067229E-01  0.88736423843E+00  0.88000000000E+00 0. -1.
        -11    1    4    4    0    0 -0.20111592870E-01 -0.10485236163E+00  0.52882671780E-01  0.11914416479E+00  0.51100000000E-03 0.  1.
         11    1    4    4    0    0  0.24633104062E-02 -0.13443665447E-01  0.49631945485E-02  0.14549723706E-01  0.51100000000E-03 0. -1.
</event>
<event>
 8    1  0.1138737E+005  0.1043930E+01  0.7957747E-01            NaN
         13   -1    0    0    0    0  0.00000000000E+00  0.00000000000E+00  0.74505805969E-08  0.10566000000E+00  0.10566000000E+00 0. -1.
     999900   -1    0    0    0    0 -0.00000000000E+00 -0.00000000000E+00 -0.74505805969E-08  0.93827000000E+00  0.93827000000E+00 0. -1.
     999902    2    1    2    0    0 -0.20412378752E-03  0.16536109441E-01  0.15971043022E-01  0.10209395934E+01  0.10206807015E+01 0.  0.
     999903    2    3    3    0    0  0.99319163331E-01 -0.15686350120E-01  0.83903423454E-01  0.13214379011E+00  0.17658964058E-01 0.  0.
         14    1    1    2    0    0  0.20412378752E-03 -0.16536109441E-01 -0.15971043022E-01  0.22990406634E-01  0.00000000000E+00 0.  1.
     999901    1    3    3    0    0 -0.99523287119E-01  0.32222459561E-01 -0.67932380432E-01  0.88879580326E+00  0.88000000000E+00 0.  1.
        -11    1    4    4    0    0  0.58781752745E-01 -0.63680801817E-02  0.59661927550E-01  0.83997938194E-01  0.51100000000E-03 0.  1.
         11    1    4    4    0    0  0.40537410587E-01 -0.93182699384E-02  0.24241495904E-01  0.48145851913E-01  0.51100000000E-03 0. -1.
</event>
<event>
 8    1  0.1138737E+005  0.1043930E+01  0.7957747E-01            NaN
         13   -1    0    0    0    0  0.00000000000E+00  0.00000000000E+00  0.74505805969E-08  0.10566000000E+00  0.10566000000E+00 0.  1.
     999900   -1    0    0    0    0 -0.00000000000E+00 -0.00000000000E+00 -0.74505805969E-08  0.93827000000E+00  0.93827000000E+00 0. -1.
     999902    2    1    2    0    0  0.18195806835E-01  0.13321761955E-01 -0.78817345257E-02  0.10200411225E+01  0.10197613511E+01 0.  0.
     999903    2    3    3    0    0 -0.27368817329E-01  0.18896677500E-01  0.12314623467E+00  0.12915642551E+00  0.20254642811E-01 0.  0.
         14    1    1    2    0    0 -0.18195806835E-01 -0.13321761955E-01  0.78817345257E-02  0.23888877476E-01  0.00000000000E+00 0.  1.
     999901    1    3    3    0    0  0.45564624164E-01 -0.55749155449E-02 -0.13102796919E+00  0.89088469701E+00  0.88000000000E+00 0. -1.
        -11    1    4    4    0    0 -0.87349239504E-02  0.17481549561E-01  0.50737207193E-01  0.54373052022E-01  0.51100000000E-03 0.  1.
         11    1    4    4    0    0 -0.18633893379E-01  0.14151279392E-02  0.72409027476E-01  0.74783373490E-01  0.51100000000E-03 0. -1.
</event>
<event>
 8    1  0.1138737E+005  0.1043930E+01  0.7957747E-01            NaN
         13   -1    0    0    0    0  0.00000000000E+00  0.00000000000E+00  0.74505805969E-08  0.10566000000E+00  0.10566000000E+00 0. -1.
     999900   -1    0    0    0    0 -0.00000000000E+00 -0.00000000000E+00 -0.74505805969E-08  0.93827000000E+00  0.93827000000E+00 0. -1.
     999902    2    1    2    0    0  0.27890261992E-02 -0.19658155596E-01 -0.13348926692E-01  0.10200047917E+01  0.10197241585E+01 0.  0.
     999903    2    3    3    0    0  0.33937489904E-01 -0.11060019284E+00  0.59656970684E-01  0.13176465413E+00  0.20464946841E-01 0.  0.
         14    1    1    2    0    0 -0.27890261992E-02  0.19658155596E-01  0.13348926692E-01  0.23925208305E-01  0.00000000000E+00 0. -1.
     999901    1    3    3    0    0 -0.31148463705E-01  0.90942037246E-01 -0.73005897376E-01  0.88824013756E+00  0.88000000000E+00 0. -1.
        -11    1    4    4    0    0  0.16140048043E-02 -0.37327012513E-01  0.17529603471E-01  0.41272981399E-01  0.51100000000E-03 0.  1.
         11    1    4    4    0    0  0.32323485100E-01 -0.73273180329E-01  0.42127367213E-01  0.90491672732E-01  0.51100000000E-03 0. -1.
</event>
<event>
 8    1  0.1138737E+005  0.1043930E+01  0.7957747E-01            NaN
         13   -1    0    0    0    0  0.00000000000E+00  0.00000000000E+00  0.74505805969E-08  0.10566000000E+00  0.10566000000E+00 0. -1.
     999900   -1    0    0    0    0 -0.00000000000E+00 -0.00000000000E+00 -0.74505805969E-08  0.93827000000E+00  0.93827000000E+00 0.  1.
     999902    2    1    2    0    0  0.14354468069E-01 -0.18520800799E-01  0.83476290884E-02  0.10190552392E+01  0.10187516021E+01 0.  0.
     999903    2    3    3    0    0 -0.69199800339E-01  0.89784469983E-01  0.54385669893E-01  0.12729807005E+00  0.19928224494E-01 0.  0.
         14    1    1    2    0    0 -0.14354468069E-01  0.18520800799E-01 -0.83476290884E-02  0.24874760846E-01  0.00000000000E+00 0.  1.
     999901    1    3    3    0    0  0.83554268407E-01 -0.10830527078E+00 -0.46038040804E-01  0.89175716910E+00  0.88000000000E+00 0.  1.
        -11    1    4    4    0    0 -0.14188051325E-01  0.33152373340E-01  0.19227972147E-01  0.40869997460E-01  0.51100000000E-03 0. -1.
         11    1    4    4    0    0 -0.55011749014E-01  0.56632096643E-01  0.35157697745E-01  0.86428072590E-01  0.51100000000E-03 0.  1.
</event>
<event>
 8    1  0.1138737E+005  0.1043930E+01  0.7957747E-01            NaN
         13   -1    0    0    0    0  0.00000000000E+00  0.00000000000E+00  0.74505805969E-08  0.10566000000E+00  0.10566000000E+00 0. -1.
     999900   -1    0    0    0    0 -0.00000000000E+00 -0.00000000000E+00 -0.74505805969E-08  0.93827000000E+00  0.93827000000E+00 0. -1.
     999902    2    1    2    0    0  0.16456057619E-01 -0.13464207640E-01 -0.10030277924E-01  0.10204205722E+01  0.10201497199E+01 0.  0.
     999903    2    3    3    0    0  0.44401159778E-01  0.10237277798E+00 -0.65367196573E-01  0.13066706110E+00  0.18691222705E-01 0.  0.
         14    1    1    2    0    0 -0.16456057619E-01  0.13464207640E-01  0.10030277924E-01  0.23509427789E-01  0.00000000000E+00 0.  1.
     999901    1    3    3    0    0 -0.27945102159E-01 -0.11583698562E+00  0.55336918649E-01  0.88975351111E+00  0.88000000000E+00 0.  1.
        -11    1    4    4    0    0  0.40778349573E-01  0.76024269941E-01 -0.46058507900E-01  0.97796782590E-01  0.51100000000E-03 0. -1.
         11    1    4    4    0    0  0.36228102043E-02  0.26348508043E-01 -0.19308688673E-01  0.32870278507E-01  0.51100000000E-03 0.  1.
</event>
<event>
 8    1  0.1138737E+005  0.1043930E+01  0.7957747E-01            NaN
         13   -1    0    0    0    0  0.00000000000E+00  0.00000000000E+00  0.74505805969E-08  0.10566000000E+00  0.10566000000E+00 0. -1.
     999900   -1    0    0    0    0 -0.00000000000E+00 -0.00000000000E+00 -0.74505805969E-08  0.93827000000E+00  0.93827000000E+00 0. -1.
     999902    2    1    2    0    0 -0.14297561399E-01  0.85872783705E-02 -0.16295470397E-01  0.10206125394E+01  0.10203461431E+01 0.  0.
     999903    2    3    3    0    0  0.11813403441E+00  0.25480282382E-01 -0.44174037453E-01  0.13010666317E+00  0.19274421972E-01 0.  0.
         14    1    1    2    0    0  0.14297561399E-01 -0.85872783705E-02  0.16295470397E-01  0.23317460566E-01  0.00000000000E+00 0. -1.
     999901    1    3    3    0    0 -0.13243159580E+00 -0.16893004012E-01  0.27878567056E-01  0.89050587626E+00  0.88000000000E+00 0.  1.
        -11    1    4    4    0    0  0.56414071449E-01  0.90951109488E-02 -0.11184697781E-01  0.58229091407E-01  0.51100000000E-03 0.  1.
         11    1    4    4    0    0  0.61719962957E-01  0.16385171433E-01 -0.32989339672E-01  0.71877571768E-01  0.51100000000E-03 0. -1.
</event>
<event>
 8    1  0.1138737E+005  0.1043930E+01  0.7957747E-01            NaN
         13   -1    0    0    0    0  0.00000000000E+00  0.00000000000E+00  0.74505805969E-08  0.10566000000E+00  0.10566000000E+00 0.  1.
     999900   -1    0    0    0    0 -0.00000000000E+00 -0.00000000000E+00 -0.74505805969E-08  0.93827000000E+00  0.93827000000E+00 0. -1.
     999902    2    1    2    0    0  0.17594772973E-02  0.82987395099E-02  0.21709569706E-01  0.10206218415E+01  0.10203556601E+01 0.  0.
     999903    2    3    3    0    0  0.61801299138E-01 -0.62465937471E-01  0.97038959831E-01  0.13254122750E+00  0.20717705998E-01 0.  0.
         14    1    1    2    0    0 -0.17594772973E-02 -0.82987395099E-02 -0.21709569706E-01  0.23308158542E-01  0.00000000000E+00 0. -1.
     999901    1    3    3    0    0 -0.60041821841E-01  0.70764676981E-01 -0.75329390125E-01  0.88808061396E+00  0.88000000000E+00 0. -1.
        -11    1    4    4    0    0  0.70618253529E-02 -0.51536861689E-02  0.23621416206E-02  0.90703193151E-02  0.51100000000E-03 0. -1.
         11    1    4    4    0    0  0.54739473785E-01 -0.57312251302E-01  0.94676818211E-01  0.12347090818E+00  0.51100000000E-03 0.  1.
</event>
<event>
 7    1  0.1138737E+005  0.1043930E+01  0.7957747E-01            NaN
         13   -1    0    0    0    0  0.00000000000E+00  0.00000000000E+00  0.74505805969E-08  0.10566000000E+00  0.10566000000E+00 0. -1.
     999900   -1    0    0    0    0 -0.00000000000E+00 -0.00000000000E+00 -0.74505805969E-08  0.93827000000E+00  0.93827000000E+00 0. -1.
     999902    2    1    2    0    0  0.48997836179E-02 -0.15553449051E-01  0.17643873551E-01  0.10199045150E+01  0.10196214963E+01 0.  0.
         14    1    1    2    0    0 -0.48997836179E-02  0.15553449051E-01 -0.17643873551E-01  0.24025485027E-01  0.00000000000E+00 0.  1.
     999901    1    3    3    0    0 -0.83099752281E-01 -0.37975732537E-02 -0.73572664080E-01  0.88697966566E+00  0.88000000000E+00 0.  1.
        -11    1    3    3    0    0  0.39971972266E-01 -0.35498988074E-02  0.67978334319E-01  0.78940961523E-01  0.51100000000E-03 0.  1.
         11    1    3    3    0    0  0.48027563633E-01 -0.82059769900E-02  0.23238203313E-01  0.53983887791E-01  0.51100000000E-03 0. -1.
</event>
<event>
 8    1  0.1138737E+005  0.1043930E+01  0.7957747E-01            NaN
         13   -1    0    0    0    0  0.00000000000E+00  0.00000000000E+00  0.74505805969E-08  0.10566000000E+00  0.10566000000E+00 0. -1.
     999900   -1    0    0    0    0 -0.00000000000E+00 -0.00000000000E+00 -0.74505805969E-08  0.93827000000E+00  0.93827000000E+00 0. -1.
     999902    2    1    2    0    0 -0.21466852915E-01 -0.35230202667E-02 -0.93098807791E-02  0.10202675545E+01  0.10199931233E+01 0.  0.
     999903    2    3    3    0    0  0.71526608958E-01  0.74703291621E-01  0.73437138628E-01  0.12807127060E+00  0.17680482333E-01 0.  0.
         14    1    1    2    0    0  0.21466852915E-01  0.35230202667E-02  0.93098807791E-02  0.23662445478E-01  0.00000000000E+00 0.  1.
     999901    1    3    3    0    0 -0.92993461872E-01 -0.78226311887E-01 -0.82747019407E-01  0.89219628392E+00  0.88000000000E+00 0.  1.
        -11    1    4    4    0    0  0.23601108593E-01  0.17070178296E-01  0.28062914141E-01  0.40449865080E-01  0.51100000000E-03 0. -1.
         11    1    4    4    0    0  0.47925500364E-01  0.57633113325E-01  0.45374224487E-01  0.87621405521E-01  0.51100000000E-03 0.  1.
</event>
<event>
 8    1  0.1138737E+005  0.1043930E+01  0.7957747E-01            NaN
         13   -1    0    0    0    0  0.00000000000E+00  0.00000000000E+00  0.74505805969E-08  0.10566000000E+00  0.10566000000E+00 0. -1.
     999900   -1    0    0    0    0 -0.00000000000E+00 -0.00000000000E+00 -0.74505805969E-08  0.93827000000E+00  0.93827000000E+00 0.  1.
     999902    2    1    2    0    0 -0.79590669439E-02  0.22236032602E-01  0.58606567467E-02  0.10195961719E+01  0.10193057532E+01 0.  0.
     999903    2    3    3    0    0  0.11779610567E+00 -0.73020328136E-03  0.49387454333E-01  0.12929487821E+00  0.20039690091E-01 0.  0.
         14    1    1    2    0    0  0.79590669439E-02 -0.22236032602E-01 -0.58606567467E-02  0.24333828100E-01  0.00000000000E+00 0. -1.
     999901    1    3    3    0    0 -0.12575517261E+00  0.22966235883E-01 -0.43526797587E-01  0.89030129369E+00  0.88000000000E+00 0.  1.
        -11    1    4    4    0    0  0.62461519064E-01 -0.91350248239E-02  0.20950779974E-01  0.66513805671E-01  0.51100000000E-03 0.  1.
         11    1    4    4    0    0  0.55334586607E-01  0.84048215425E-02  0.28436674359E-01  0.62781072544E-01  0.51100000000E-03 0. -1.
</event>
<event>
 8    1  0.1138737E+005  0.1043930E+01  0.7957747E-01            NaN
         13   -1    0    0    0    0  0.00000000000E+00  0.00000000000E+00  0.74505805969E-08  0.10566000000E+00  0.10566000000E+00 0. -1.
     999900   -1    0    0    0    0 -0.00000000000E+00 -0.00000000000E+00 -0.74505805969E-08  0.93827000000E+00  0.93827000000E+00 0. -1.
     999902    2    1    2    0    0  0.11214419209E-01 -0.33790256328E-02 -0.15929968658E-01  0.10241576730E+01  0.10239667936E+01 0.  0.
     999903    2    3    3    0    0  0.13137913982E+00 -0.75237395318E-03 -0.28399500152E-01  0.13589985652E+00  0.20029851383E-01 0.  0.
         14    1    1    2    0    0 -0.11214419209E-01  0.33790256328E-02  0.15929968658E-01  0.19772326971E-01  0.00000000000E+00 0. -1.
     999901    1    3    3    0    0 -0.12016472061E+00 -0.26266516797E-02  0.12469531494E-01  0.88825781651E+00  0.88000000000E+00 0. -1.
        -11    1    4    4    0    0  0.98070100752E-01 -0.80983188828E-02 -0.16550417399E-01  0.99787298126E-01  0.51100000000E-03 0. -1.
         11    1    4    4    0    0  0.33309039066E-01  0.73459449296E-02 -0.11849082753E-01  0.36112558391E-01  0.51100000000E-03 0.  1.
</event>
<event>
 8    1  0.1138737E+005  0.1043930E+01  0.7957747E-01            NaN
         13   -1    0    0    0    0  0.00000000000E+00  0.00000000000E+00  0.74505805969E-08  0.10566000000E+00  0.10566000000E+00 0. -1.
     999900   -1    0    0    0    0 -0.00000000000E+00 -0.00000000000E+00 -0.74505805969E-08  0.93827000000E+00  0.93827000000E+00 0. -1.
     999902    2    1    2    0    0  0.15330930800E-01  0.17011203911E-01 -0.89604521900E-02  0.10193391846E+01  0.10190425237E+01 0.  0.
     999903    2    3    3    0    0 -0.64518345288E-01 -0.91223036063E-01  0.50173060355E-01  0.12715796429E+00  0.34169470446E-01 0.  0.
         14    1    1    2    0    0 -0.15330930800E-01 -0.17011203911E-01  0.89604521900E-02  0.24590815382E-01  0.00000000000E+00 0.  1.
     999901    1    3    3    0    0  0.79849276088E-01  0.10823423997E+00 -0.59133512545E-01  0.89218122032E+00  0.88000000000E+00 0. -1.
        -11    1    4    4    0    0 -0.37753449158E-01 -0.78675722968E-01  0.36752387591E-01  0.94689975301E-01  0.51100000000E-03 0. -1.
         11    1    4    4    0    0 -0.26764896130E-01 -0.12547313095E-01  0.13420672764E-01  0.32467988992E-01  0.51100000000E-03 0.  1.
</event>
<event>
 8    1  0.1138737E+005  0.1043930E+01  0.7957747E-01            NaN
         13   -1    0    0    0    0  0.00000000000E+00  0.00000000000E+00  0.74505805969E-08  0.10566000000E+00  0.10566000000E+00 0. -1.
     999900   -1    0    0    0    0 -0.00000000000E+00 -0.00000000000E+00 -0.74505805969E-08  0.93827000000E+00  0.93827000000E+00 0.  1.
     999902    2    1    2    0    0 -0.36207999685E-02 -0.45384683739E-02 -0.14823565009E-01  0.10280100136E+01  0.10278867360E+01 0.  0.
     999903    2    3    3    0    0  0.70865265891E-01  0.10962334700E+00  0.33138442290E-01  0.13622447422E+00  0.20488701803E-01 0.  0.
         14    1    1    2    0    0  0.36207999685E-02  0.45384683739E-02  0.14823565009E-01  0.15919986406E-01  0.00000000000E+00 0. -1.
     999901    1    3    3    0    0 -0.74486065859E-01 -0.11416181537E+00 -0.47962007300E-01  0.89178553938E+00  0.88000000000E+00 0.  1.
        -11    1    4    4    0    0  0.38323274224E-01  0.44914806161E-01  0.81582696515E-02  0.59605634335E-01  0.51100000000E-03 0. -1.
         11    1    4    4    0    0  0.32541991666E-01  0.64708540838E-01  0.24980172639E-01  0.76618839883E-01  0.51100000000E-03 0.  1.
</event>
<event>
 8    1  0.1138737E+005  0.1043930E+01  0.7957747E-01            NaN
         13   -1    0    0    0    0  0.00000000000E+00  0.00000000000E+00  0.74505805969E-08  0.10566000000E+00  0.10566000000E+00 0.  1.
     999900   -1    0    0    0    0 -0.00000000000E+00 -0.00000000000E+00 -0.74505805969E-08  0.93827000000E+00  0.93827000000E+00 0. -1.
     999902    2    1    2    0    0 -0.21918984126E-01  0.10368935652E-01 -0.54421109595E-03  0.10196760754E+01  0.10193875838E+01 0.  0.
     999903    2    3    3    0    0 -0.79484949344E-01  0.62236219647E-01 -0.83216480500E-01  0.13241131244E+00  0.20410017821E-01 0.  0.
         14    1    1    2    0    0  0.21918984126E-01 -0.10368935652E-01  0.54421109595E-03  0.24253924577E-01  0.00000000000E+00 0. -1.
     999901    1    3    3    0    0  0.57565965218E-01 -0.51867283996E-01  0.82672269404E-01  0.88726476298E+00  0.88000000000E+00 0.  1.
        -11    1    4    4    0    0 -0.12962042469E-01  0.16656243857E-01 -0.94885197622E-02  0.23146017642E-01  0.51100000000E-03 0. -1.
         11    1    4    4    0    0 -0.66522906874E-01  0.45579975791E-01 -0.73727960738E-01  0.10926529480E+00  0.51100000000E-03 0.  1.
</event>
<event>
 8    1  0.1138737E+005  0.1043930E+01  0.7957747E-01            NaN
         13   -1    0    0    0    0  0.00000000000E+00  0.00000000000E+00  0.74505805969E-08  0.10566000000E+00  0.10566000000E+00 0.  1.
     999900   -1    0    0    0    0 -0.00000000000E+00 -0.00000000000E+00 -0.74505805969E-08  0.93827000000E+00  0.93827000000E+00 0. -1.
     999902    2    1    2    0    0 -0.14297276137E-01  0.39385713335E-02  0.21625348614E-01  0.10177082504E+01  0.10173703862E+01 0.  0.
     999903    2    3    3    0    0 -0.76347523022E-01  0.36554743246E-02  0.10251665441E+00  0.13182241316E+00  0.32018391840E-01 0.  0.
         14    1    1    2    0    0  0.14297276137E-01 -0.39385713335E-02 -0.21625348614E-01  0.26221749593E-01  0.00000000000E+00 0. -1.
     999901    1    3    3    0    0  0.62050246885E-01  0.28309700887E-03 -0.80891305794E-01  0.88588583725E+00  0.88000000000E+00 0.  1.
        -11    1    4    4    0    0 -0.32463966923E-01  0.17276728823E-01  0.49400469577E-01  0.61587839892E-01  0.51100000000E-03 0. -1.
         11    1    4    4    0    0 -0.43883556099E-01 -0.13621254498E-01  0.53116184831E-01  0.70234573267E-01  0.51100000000E-03 0.  1.
</event>
<event>
 8    1  0.1138737E+005  0.1043930E+01  0.7957747E-01            NaN
         13   -1    0    0    0    0  0.00000000000E+00  0.00000000000E+00  0.74505805969E-08  0.10566000000E+00  0.10566000000E+00 0.  1.
     999900   -1    0    0    0    0 -0.00000000000E+00 -0.00000000000E+00 -0.74505805969E-08  0.93827000000E+00  0.93827000000E+00 0.  1.
     999902    2    1    2    0    0  0.69699118889E-02  0.20867087569E-01  0.10531034435E-01  0.10195390652E+01  0.10192472652E+01 0.  0.
     999903    2    3    3    0    0 -0.51679755873E-01  0.11500544820E+00 -0.31916501160E-01  0.13156180885E+00  0.19819087206E-01 0.  0.
         14    1    1    2    0    0 -0.69699118889E-02 -0.20867087569E-01 -0.10531034435E-01  0.24390934825E-01  0.00000000000E+00 0.  1.
     999901    1    3    3    0    0  0.58649667762E-01 -0.94138360636E-01  0.42447535596E-01  0.88797725632E+00  0.88000000000E+00 0.  1.
        -11    1    4    4    0    0 -0.44627698194E-02  0.27903154870E-01 -0.10817233904E-01  0.30261791693E-01  0.51100000000E-03 0.  1.
         11    1    4    4    0    0 -0.47216986054E-01  0.87102293335E-01 -0.21099267257E-01  0.10130001716E+00  0.51100000000E-03 0. -1.
</event>
<event>
 8    1  0.1138737E+005  0.1043930E+01  0.7957747E-01            NaN
         13   -1    0    0    0    0  0.00000000000E+00  0.00000000000E+00  0.74505805969E-08  0.10566000000E+00  0.10566000000E+00 0. -1.
     999900   -1    0    0    0    0 -0.00000000000E+00 -0.00000000000E+00 -0.74505805969E-08  0.93827000000E+00  0.93827000000E+00 0.  1.
     999902    2    1    2    0    0 -0.17323447129E-01  0.20612036800E-02  0.14431416841E-01  0.10212889715E+01  0.10210379753E+01 0.  0.
     999903    2    3    3    0    0 -0.10645231031E+00  0.56440141391E-01 -0.51594503941E-01  0.13266056469E+00  0.20475562393E-01 0.  0.
         14    1    1    2    0    0  0.17323447129E-01 -0.20612036800E-02 -0.14431416841E-01  0.22641028534E-01  0.00000000000E+00 0. -1.
     999901    1    3    3    0    0  0.89128863183E-01 -0.54378937711E-01  0.66025920782E-01  0.88862840678E+00  0.88000000000E+00 0. -1.
        -11    1    4    4    0    0 -0.82675296378E-02  0.11649168900E-01 -0.62984458985E-02  0.15620074395E-01  0.51100000000E-03 0. -1.
         11    1    4    4    0    0 -0.98184780674E-01  0.44790972492E-01 -0.45296058043E-01  0.11704049029E+00  0.51100000000E-03 0.  1.
</event>
<event>
 8    1  0.1138737E+005  0.1043930E+01  0.7957747E-01            NaN
         13   -1    0    0    0    0  0.00000000000E+00  0.00000000000E+00  0.74505805969E-08  0.10566000000E+00  0.10566000000E+00 0. -1.
     999900   -1    0    0    0    0 -0.00000000000E+00 -0.00000000000E+00 -0.74505805969E-08  0.93827000000E+00  0.93827000000E+00 0.  1.
     999902    2    1    2    0    0  0.97508708854E-02  0.46890783423E-03 -0.21539919960E-01  0.10202811626E+01  0.10200070506E+01 0.  0.
     999903    2    3    3    0    0  0.34221210677E-01 -0.25475696030E-03 -0.12762777068E+00  0.13357154088E+00  0.19528249354E-01 0.  0.
         14    1    1    2    0    0 -0.97508708854E-02 -0.46890783423E-03  0.21539919960E-01  0.23648837381E-01  0.00000000000E+00 0. -1.
     999901    1    3    3    0    0 -0.24470339792E-01  0.72366479453E-03  0.10608785072E+00  0.88670962174E+00  0.88000000000E+00 0. -1.
        -11    1    4    4    0    0  0.22685247837E-01 -0.78525749203E-02 -0.61640598281E-01  0.66152157030E-01  0.51100000000E-03 0.  1.
         11    1    4    4    0    0  0.11535962840E-01  0.75978179600E-02 -0.65987172396E-01  0.67419383847E-01  0.51100000000E-03 0. -1.
</event>
<event>
 8    1  0.1138737E+005  0.1043930E+01  0.7957747E-01            NaN
         13   -1    0    0    0    0  0.00000000000E+00  0.00000000000E+00  0.74505805969E-08  0.10566000000E+00  0.10566000000E+00 0. -1.
     999900   -1    0    0    0    0 -0.00000000000E+00 -0.00000000000E+00 -0.74505805969E-08  0.93827000000E+00  0.93827000000E+00 0. -1.
     999902    2    1    2    0    0 -0.18069356646E-01  0.13671385853E-01  0.62626202055E-02  0.10204219407E+01  0.10201511203E+01 0.  0.
     999903    2    3    3    0    0  0.31369195391E-01 -0.19094740373E-01 -0.12214277718E+00  0.12912752495E+00  0.20159964088E-01 0.  0.
         14    1    1    2    0    0  0.18069356646E-01 -0.13671385853E-01 -0.62626202055E-02  0.23508059311E-01  0.00000000000E+00 0.  1.
     999901    1    3    3    0    0 -0.49438552036E-01  0.32766126226E-01  0.12840539739E+00  0.89129441574E+00  0.88000000000E+00 0.  1.
        -11    1    4    4    0    0  0.22875629818E-01 -0.21312970316E-01 -0.76476544268E-01  0.82622394588E-01  0.51100000000E-03 0. -1.
         11    1    4    4    0    0  0.84935655730E-02  0.22182299439E-02 -0.45666232913E-01  0.46505130359E-01  0.51100000000E-03 0.  1.
</event>
<event>
 8    1  0.1138737E+005  0.1043930E+01  0.7957747E-01            NaN
         13   -1    0    0    0    0  0.00000000000E+00  0.00000000000E+00  0.74505805969E-08  0.10566000000E+00  0.10566000000E+00 0. -1.
     999900   -1    0    0    0    0 -0.00000000000E+00 -0.00000000000E+00 -0.74505805969E-08  0.93827000000E+00  0.93827000000E+00 0. -1.
     999902    2    1    2    0    0 -0.19467912611E-01  0.68756396874E-02 -0.12632569581E-01  0.10197255406E+01  0.10194382385E+01 0.  0.
     999903    2    3    3    0    0 -0.97514641797E-01 -0.86266811496E-01 -0.98262693459E-02  0.13137049697E+00  0.14511504907E-01 0.  0.
         14    1    1    2    0    0  0.19467912611E-01 -0.68756396874E-02  0.12632569581E-01  0.24204459440E-01  0.00000000000E+00 0. -1.
     999901    1    3    3    0    0  0.78046729186E-01  0.93142451183E-01 -0.28063002355E-02  0.88835504359E+00  0.88000000000E+00 0.  1.
        -11    1    4    4    0    0 -0.40433430720E-01 -0.37130728103E-01 -0.11247492236E-01  0.56038562542E-01  0.51100000000E-03 0. -1.
         11    1    4    4    0    0 -0.57081211078E-01 -0.49136083393E-01  0.14212228897E-02  0.75331934429E-01  0.51100000000E-03 0.  1.
</event>
<event>
 7    1  0.1138737E+005  0.1043930E+01  0.7957747E-01            NaN
         13   -1    0    0    0    0  0.00000000000E+00  0.00000000000E+00  0.74505805969E-08  0.10566000000E+00  0.10566000000E+00 0. -1.
     999900   -1    0    0    0    0 -0.00000000000E+00 -0.00000000000E+00 -0.74505805969E-08  0.93827000000E+00  0.93827000000E+00 0.  1.
     999902    2    1    2    0    0 -0.40022968396E-02  0.14280397181E-01  0.18554499291E-01  0.10201767356E+01  0.10199001688E+01 0.  0.
         14    1    1    2    0    0  0.40022968396E-02 -0.14280397181E-01 -0.18554499291E-01  0.23753264357E-01  0.00000000000E+00 0.  1.
     999901    1    3    3    0    0  0.76778254801E-01  0.87337124526E-01 -0.42423631006E-01  0.88866328730E+00  0.88000000000E+00 0.  1.
        -11    1    3    3    0    0 -0.15892611307E-02 -0.22491638501E-01  0.11142083186E-01  0.25155649308E-01  0.51100000000E-03 0.  1.
         11    1    3    3    0    0 -0.79191290510E-01 -0.50565088843E-01  0.49836047111E-01  0.10635779903E+00  0.51100000000E-03 0. -1.
</event>
<event>
 8    1  0.1138737E+005  0.1043930E+01  0.7957747E-01            NaN
         13   -1    0    0    0    0  0.00000000000E+00  0.00000000000E+00  0.74505805969E-08  0.10566000000E+00  0.10566000000E+00 0. -1.
     999900   -1    0    0    0    0 -0.00000000000E+00 -0.00000000000E+00 -0.74505805969E-08  0.93827000000E+00  0.93827000000E+00 0.  1.
     999902    2    1    2    0    0  0.16383227498E-01 -0.15942660625E-01  0.16330054621E-01  0.10158364197E+01  0.10154478728E+01 0.  0.
     999903    2    3    3    0    0 -0.10562553104E+00  0.58620982626E-01  0.21890542465E-01  0.12427778836E+00  0.19302860409E-01 0.  0.
         14    1    1    2    0    0 -0.16383227498E-01  0.15942660625E-01 -0.16330054621E-01  0.28093580316E-01  0.00000000000E+00 0.  1.
     999901    1    3    3    0    0  0.12200875854E+00 -0.74563643252E-01 -0.55604878438E-02  0.89155863132E+00  0.88000000000E+00 0. -1.
        -11    1    4    4    0    0 -0.25865168907E-01  0.19342936778E-01 -0.15232909615E-02  0.32337867928E-01  0.51100000000E-03 0.  1.
         11    1    4    4    0    0 -0.79760362132E-01  0.39278045848E-01  0.23413833426E-01  0.91939920436E-01  0.51100000000E-03 0. -1.
</event>
<event>
 8    1  0.1138737E+005  0.1043930E+01  0.7957747E-01            NaN
         13   -1    0    0    0    0  0.00000000000E+00  0.00000000000E+00  0.74505805969E-08  0.10566000000E+00  0.10566000000E+00 0. -1.
     999900   -1    0    0    0    0 -0.00000000000E+00 -0.00000000000E+00 -0.74505805969E-08  0.93827000000E+00  0.93827000000E+00 0. -1.
     999902    2    1    2    0    0  0.18459470361E-01 -0.96817841120E-02  0.83816032174E-02  0.10214635748E+01  0.10212164777E+01 0.  0.
     999903    2    3    3    0    0 -0.63572382613E-01  0.10301010652E+00  0.42281317898E-01  0.12984825539E+00  0.20501944038E-01 0.  0.
         14    1    1    2    0    0 -0.18459470361E-01  0.96817841120E-02 -0.83816032174E-02  0.22466425219E-01  0.00000000000E+00 0.  1.
     999901    1    3    3    0    0  0.82031852974E-01 -0.11269189063E+00 -0.33899714681E-01  0.89161531939E+00  0.88000000000E+00 0.  1.
        -11    1    4    4    0    0 -0.83225693297E-02  0.83039531799E-02  0.10287706642E-01  0.15630701443E-01  0.51100000000E-03 0.  1.
         11    1    4    4    0    0 -0.55249813283E-01  0.94706153336E-01  0.31993611257E-01  0.11421755395E+00  0.51100000000E-03 0. -1.
</event>
<event>
 8    1  0.1138737E+005  0.1043930E+01  0.7957747E-01            NaN
         13   -1    0    0    0    0  0.00000000000E+00  0.00000000000E+00  0.74505805969E-08  0.10566000000E+00  0.10566000000E+00 0.  1.
     999900   -1    0    0    0    0 -0.00000000000E+00 -0.00000000000E+00 -0.74505805969E-08  0.93827000000E+00  0.93827000000E+00 0.  1.
     999902    2    1    2    0    0 -0.60819626049E-02  0.68750997909E-02  0.21783692916E-01  0.10202913337E+01  0.10200174602E+01 0.  0.
     999903    2    3    3    0    0  0.12366416546E+00  0.99870213844E-02 -0.30340586749E-01  0.12924661973E+00  0.19788155355E-01 0.  0.
         14    1    1    2    0    0  0.60819626049E-02 -0.68750997909E-02 -0.21783692916E-01  0.23638666277E-01  0.00000000000E+00 0. -1.
     999901    1    3    3    0    0 -0.12974612807E+00 -0.31119215935E-02  0.52124279665E-01  0.89104471399E+00  0.88000000000E+00 0. -1.
        -11    1    4    4    0    0  0.49957999349E-01 -0.22294071778E-02 -0.19826197964E-01  0.53796944170E-01  0.51100000000E-03 0. -1.
         11    1    4    4    0    0  0.73706166112E-01  0.12216428562E-01 -0.10514388784E-01  0.75449675561E-01  0.51100000000E-03 0.  1.
</event>
<event>
 8    1  0.1138737E+005  0.1043930E+01  0.7957747E-01            NaN
         13   -1    0    0    0    0  0.00000000000E+00  0.00000000000E+00  0.74505805969E-08  0.10566000000E+00  0.10566000000E+00 0. -1.
     999900   -1    0    0    0    0 -0.00000000000E+00 -0.00000000000E+00 -0.74505805969E-08  0.93827000000E+00  0.93827000000E+00 0. -1.
     999902    2    1    2    0    0 -0.83890098044E-03 -0.22311144417E-01  0.12709656464E-01  0.10182390232E+01  0.10179148698E+01 0.  0.
     999903    2    3    3    0    0 -0.74489626002E-01 -0.10084220946E+00 -0.31481803287E-01  0.13057667606E+00  0.18474544679E-01 0.  0.
         14    1    1    2    0    0  0.83890098044E-03  0.22311144417E-01 -0.12709656464E-01  0.25690976772E-01  0.00000000000E+00 0.  1.
     999901    1    3    3    0    0  0.73650725021E-01  0.78531065042E-01  0.44191459752E-01  0.88766234717E+00  0.88000000000E+00 0.  1.
        -11    1    4    4    0    0 -0.22956952545E-01 -0.32768268267E-01 -0.13539345059E-02  0.40035925554E-01  0.51100000000E-03 0.  1.
         11    1    4    4    0    0 -0.51532673457E-01 -0.68073941192E-01 -0.30127868781E-01  0.90540750502E-01  0.51100000000E-03 0. -1.
</event>
<event>
 8    1  0.1138737E+005  0.1043930E+01  0.7957747E-01            NaN
         13   -1    0    0    0    0  0.00000000000E+00  0.00000000000E+00  0.74505805969E-08  0.10566000000E+00  0.10566000000E+00 0. -1.
     999900   -1    0    0    0    0 -0.00000000000E+00 -0.00000000000E+00 -0.74505805969E-08  0.93827000000E+00  0.93827000000E+00 0. -1.
     999902    2    1    2    0    0 -0.11554032846E-01  0.14122213158E-01 -0.15460482718E-01  0.10200143335E+01  0.10197339268E+01 0.  0.
     999903    2    3    3    0    0 -0.66341534875E-01  0.60671662914E-01 -0.96406282222E-01  0.13337982923E+00  0.20341034009E-01 0.  0.
         14    1    1    2    0    0  0.11554032846E-01 -0.14122213158E-01  0.15460482718E-01  0.23915666526E-01  0.00000000000E+00 0. -1.
     999901    1    3    3    0    0  0.54787502028E-01 -0.46549449756E-01  0.80945799504E-01  0.88663450424E+00  0.88000000000E+00 0.  1.
        -11    1    4    4    0    0 -0.54573166256E-01  0.44147547865E-01 -0.84494830531E-01  0.10984932392E+00  0.51100000000E-03 0.  1.
         11    1    4    4    0    0 -0.11768368619E-01  0.16524115049E-01 -0.11911451691E-01  0.23530505317E-01  0.51100000000E-03 0. -1.
</event>
<event>
 8    1  0.1138737E+005  0.1043930E+01  0.7957747E-01            NaN
         13   -1    0    0    0    0  0.00000000000E+00  0.00000000000E+00  0.74505805969E-08  0.10566000000E+00  0.10566000000E+00 0. -1.
     999900   -1    0    0    0    0 -0.00000000000E+00 -0.00000000000E+00 -0.74505805969E-08  0.93827000000E+00  0.93827000000E+00 0. -1.
     999902    2    1    2    0    0 -0.40096814297E-02 -0.17292375896E-01  0.11715465284E-01  0.10226613391E+01  0.10224401491E+01 0.  0.
     999903    2    3    3    0    0 -0.12955850540E+00 -0.47194634335E-02  0.25406188767E-01  0.13355615903E+00  0.19598304281E-01 0.  0.
         14    1    1    2    0    0  0.40096814297E-02  0.17292375896E-01 -0.11715465284E-01  0.21268660891E-01  0.00000000000E+00 0. -1.
     999901    1    3    3    0    0  0.12554882397E+00 -0.12572912462E-01 -0.13690723483E-01  0.88910518008E+00  0.88000000000E+00 0. -1.
        -11    1    4    4    0    0 -0.45068449347E-01  0.67674109208E-02  0.47684259829E-02  0.45825342165E-01  0.51100000000E-03 0.  1.
         11    1    4    4    0    0 -0.84490056055E-01 -0.11486874354E-01  0.20637762784E-01  0.87730816868E-01  0.51100000000E-03 0. -1.
</event>
<event>
 8    1  0.1138737E+005  0.1043930E+01  0.7957747E-01            NaN
         13   -1    0    0    0    0  0.00000000000E+00  0.00000000000E+00  0.74505805969E-08  0.10566000000E+00  0.10566000000E+00 0.  1.
     999900   -1    0    0    0    0 -0.00000000000E+00 -0.00000000000E+00 -0.74505805969E-08  0.93827000000E+00  0.93827000000E+00 0.  1.
     999902    2    1    2    0    0  0.21706291235E-01  0.88369672542E-02 -0.14848867318E-02  0.10204468154E+01  0.10201765745E+01 0.  0.
     999903    2    3    3    0    0  0.66124534178E-01  0.95016724215E-01 -0.62262684335E-01  0.13303830098E+00  0.20540588267E-01 0.  0.
         14    1    1    2    0    0 -0.21706291235E-01 -0.88369672542E-02  0.14848867318E-02  0.23483184581E-01  0.00000000000E+00 0. -1.
     999901    1    3    3    0    0 -0.44418242943E-01 -0.86179756961E-01  0.60777797603E-01  0.88740851444E+00  0.88000000000E+00 0. -1.
        -11    1    4    4    0    0  0.10130095242E-01  0.12573466586E-01 -0.12940925499E-02  0.16206378008E-01  0.51100000000E-03 0.  1.
         11    1    4    4    0    0  0.55994438936E-01  0.82443257630E-01 -0.60968591785E-01  0.11683192297E+00  0.51100000000E-03 0. -1.
</event>
<event>
 8    1  0.1138737E+005  0.1043930E+01  0.7957747E-01            NaN
         13   -1    0    0    0    0  0.00000000000E+00  0.00000000000E+00  0.74505805969E-08  0.10566000000E+00  0.10566000000E+00 0. -1.
     999900   -1    0    0    0    0 -0.00000000000E+00 -0.00000000000E+00 -0.74505805969E-08  0.93827000000E+00  0.93827000000E+00 0.  1.
     999902    2    1    2    0    0  0.38896881972E-02 -0.26791155421E-01 -0.22320421960E-02  0.10167660957E+01  0.10164031758E+01 0.  0.
     999903    2    3    3    0    0  0.10426632339E+00  0.65997582143E-01 -0.15865931224E-01  0.12610841646E+00  0.20602375740E-01 0.  0.
         14    1    1    2    0    0 -0.38896881972E-02  0.26791155421E-01  0.22320421960E-02  0.27163904274E-01  0.00000000000E+00 0. -1.
     999901    1    3    3    0    0 -0.10037663519E+00 -0.92788737564E-01  0.13633889028E-01  0.89065767927E+00  0.88000000000E+00 0.  1.
        -11    1    4    4    0    0  0.27221118608E-01  0.27083859241E-01 -0.94829190450E-02  0.39556435687E-01  0.51100000000E-03 0. -1.
         11    1    4    4    0    0  0.77045204780E-01  0.38913722901E-01 -0.63830121791E-02  0.86551980769E-01  0.51100000000E-03 0.  1.
</event>
<event>
 8    1  0.1138737E+005  0.1043930E+01  0.7957747E-01            NaN
         13   -1    0    0    0    0  0.00000000000E+00  0.00000000000E+00  0.74505805969E-08  0.10566000000E+00  0.10566000000E+00 0. -1.
     999900   -1    0    0    0    0 -0.00000000000E+00 -0.00000000000E+00 -0.74505805969E-08  0.93827000000E+00  0.93827000000E+00 0. -1.
     999902    2    1    2    0    0  0.66147686687E-02  0.16665014278E-01  0.15424020434E-01  0.10202788209E+01  0.10200046540E+01 0.  0.
     999903    2    3    3    0    0  0.11132802528E+00 -0.10513801141E-01  0.67205971224E-01  0.13214317557E+00  0.20993023924E-01 0.  0.
         14    1    1    2    0    0 -0.66147686687E-02 -0.16665014278E-01 -0.15424020434E-01  0.23651179077E-01  0.00000000000E+00 0.  1.
     999901    1    3    3    0    0 -0.10471325662E+00  0.27178815419E-01 -0.51781950790E-01  0.88813564535E+00  0.88000000000E+00 0.  1.
        -11    1    4    4    0    0  0.36170284884E-01  0.15886465665E-02  0.12148417042E-01  0.38192387515E-01  0.51100000000E-03 0. -1.
         11    1    4    4    0    0  0.75157740400E-01 -0.12102447708E-01  0.55057554182E-01  0.93950788055E-01  0.51100000000E-03 0.  1.
</event>
<event>
 8    1  0.1138737E+005  0.1043930E+01  0.7957747E-01            NaN
         13   -1    0    0    0    0  0.00000000000E+00  0.00000000000E+00  0.74505805969E-08  0.10566000000E+00  0.10566000000E+00 0. -1.
     999900   -1    0    0    0    0 -0.00000000000E+00 -0.00000000000E+00 -0.74505805969E-08  0.93827000000E+00  0.93827000000E+00 0.  1.
     999902    2    1    2    0    0 -0.73196698491E-02 -0.15679389678E-01  0.16426418335E-01  0.10200710804E+01  0.10197920185E+01 0.  0.
     999903    2    3    3    0    0  0.12658281730E+00 -0.66266109515E-02  0.20504144479E-01  0.12988657323E+00  0.19569883965E-01 0.  0.
         14    1    1    2    0    0  0.73196698491E-02  0.15679389678E-01 -0.16426418335E-01  0.23858919647E-01  0.00000000000E+00 0.  1.
     999901    1    3    3    0    0 -0.13390248714E+00 -0.90527787264E-02 -0.40777261437E-02  0.89018450712E+00  0.88000000000E+00 0. -1.
        -11    1    4    4    0    0  0.82075440345E-01  0.45920008614E-02  0.16164296046E-01  0.83779531912E-01  0.51100000000E-03 0.  1.
         11    1    4    4    0    0  0.44507376950E-01 -0.11218611813E-01  0.43398484333E-02  0.46107041322E-01  0.51100000000E-03 0. -1.
</event>
<event>
 8    1  0.1138737E+005  0.1043930E+01  0.7957747E-01            NaN
         13   -1    0    0    0    0  0.00000000000E+00  0.00000000000E+00  0.74505805969E-08  0.10566000000E+00  0.10566000000E+00 0.  1.
     999900   -1    0    0    0    0 -0.00000000000E+00 -0.00000000000E+00 -0.74505805969E-08  0.93827000000E+00  0.93827000000E+00 0.  1.
     999902    2    1    2    0    0  0.14126914206E-01 -0.18935581580E-01 -0.23507883353E-02  0.10201886403E+01  0.10199123539E+01 0.  0.
     999903    2    3    3    0    0 -0.28493188537E-01  0.64161056031E-01 -0.10649622146E+00  0.12913993479E+00  0.20178569571E-01 0.  0.
         14    1    1    2    0    0 -0.14126914206E-01  0.18935581580E-01  0.23507883353E-02  0.23741359703E-01  0.00000000000E+00 0.  1.
     999901    1    3    3    0    0  0.42620102743E-01 -0.83096637611E-01  0.10414543312E+00  0.89104870550E+00  0.88000000000E+00 0. -1.
        -11    1    4    4    0    0 -0.26244688079E-01  0.46466017908E-01 -0.65933066533E-01  0.84825142829E-01  0.51100000000E-03 0.  1.
         11    1    4    4    0    0 -0.22485004586E-02  0.17695038123E-01 -0.40563154923E-01  0.44314791964E-01  0.51100000000E-03 0. -1.
</event>
<event>
 8    1  0.1138737E+005  0.1043930E+01  0.7957747E-01            NaN
         13   -1    0    0    0    0  0.00000000000E+00  0.00000000000E+00  0.74505805969E-08  0.10566000000E+00  0.10566000000E+00 0. -1.
     999900   -1    0    0    0    0 -0.00000000000E+00 -0.00000000000E+00 -0.74505805969E-08  0.93827000000E+00  0.93827000000E+00 0. -1.
     999902    2    1    2    0    0  0.75757976365E-02  0.13335248056E-01 -0.60634795868E-02  0.10274379615E+01  0.10273055910E+01 0.  0.
     999903    2    3    3    0    0 -0.12996935590E+00  0.17470790565E-01 -0.31877670195E-01  0.13636998178E+00  0.19578663833E-01 0.  0.
         14    1    1    2    0    0 -0.75757976365E-02 -0.13335248056E-01  0.60634795868E-02  0.16492038541E-01  0.00000000000E+00 0. -1.
     999901    1    3    3    0    0  0.13754515354E+00 -0.41355425093E-02  0.25814190608E-01  0.89106797968E+00  0.88000000000E+00 0.  1.
        -11    1    4    4    0    0 -0.55964272427E-01  0.68403348288E-02 -0.23685838745E-01  0.61156112098E-01  0.51100000000E-03 0. -1.
         11    1    4    4    0    0 -0.74005083473E-01  0.10630455736E-01 -0.81918314496E-02  0.75213869682E-01  0.51100000000E-03 0.  1.
</event>
<event>
 8    1  0.1138737E+005  0.1043930E+01  0.7957747E-01            NaN
         13   -1    0    0    0    0  0.00000000000E+00  0.00000000000E+00  0.74505805969E-08  0.10566000000E+00  0.10566000000E+00 0.  1.
     999900   -1    0    0    0    0 -0.00000000000E+00 -0.00000000000E+00 -0.74505805969E-08  0.93827000000E+00  0.93827000000E+00 0.  1.
     999902    2    1    2    0    0  0.20131949056E-01  0.56940090120E-02 -0.11493596128E-01  0.10200591001E+01  0.10197797545E+01 0.  0.
     999903    2    3    3    0    0  0.88612596726E-01 -0.90609615544E-01  0.25954112184E-01  0.13137112442E+00  0.22857420346E-01 0.  0.
         14    1    1    2    0    0 -0.20131949056E-01 -0.56940090120E-02  0.11493596128E-01  0.23870899928E-01  0.00000000000E+00 0.  1.
     999901    1    3    3    0    0 -0.68480647670E-01  0.96303624556E-01 -0.37447708312E-01  0.88868797565E+00  0.88000000000E+00 0. -1.
        -11    1    4    4    0    0  0.28654791017E-01 -0.42372125180E-01  0.16959838135E-01  0.53892404577E-01  0.51100000000E-03 0.  1.
         11    1    4    4    0    0  0.59957805709E-01 -0.48237490363E-01  0.89942740489E-02  0.77478719844E-01  0.51100000000E-03 0. -1.
</event>
<event>
 8    1  0.1138737E+005  0.1043930E+01  0.7957747E-01            NaN
         13   -1    0    0    0    0  0.00000000000E+00  0.00000000000E+00  0.74505805969E-08  0.10566000000E+00  0.10566000000E+00 0. -1.
     999900   -1    0    0    0    0 -0.00000000000E+00 -0.00000000000E+00 -0.74505805969E-08  0.93827000000E+00  0.93827000000E+00 0. -1.
     999902    2    1    2    0    0  0.13325631045E-01 -0.35450920278E-04 -0.20196986014E-01  0.10197330592E+01  0.10194459378E+01 0.  0.
     999903    2    3    3    0    0 -0.48043253086E-01 -0.10627222576E+00  0.49544706453E-01  0.12848881887E+00  0.21278122626E-01 0.  0.
         14    1    1    2    0    0 -0.13325631045E-01  0.35450920278E-04  0.20196986014E-01  0.24196940789E-01  0.00000000000E+00 0. -1.
     999901    1    3    3    0    0  0.61368884131E-01  0.10623677484E+00 -0.69741692467E-01  0.89124424034E+00  0.88000000000E+00 0. -1.
        -11    1    4    4    0    0  0.95311560693E-03 -0.90788062971E-02  0.74225147757E-02  0.11776586931E-01  0.51100000000E-03 0.  1.
         11    1    4    4    0    0 -0.48996368693E-01 -0.97193419464E-01  0.42122191678E-01  0.11671223194E+00  0.51100000000E-03 0. -1.
</event>
<event>
 8    1  0.1138737E+005  0.1043930E+01  0.7957747E-01            NaN
         13   -1    0    0    0    0  0.00000000000E+00  0.00000000000E+00  0.74505805969E-08  0.10566000000E+00  0.10566000000E+00 0.  1.
     999900   -1    0    0    0    0 -0.00000000000E+00 -0.00000000000E+00 -0.74505805969E-08  0.93827000000E+00  0.93827000000E+00 0.  1.
     999902    2    1    2    0    0 -0.16477255105E-01 -0.97443417392E-02 -0.12834506942E-01  0.10208827290E+01  0.10206225403E+01 0.  0.
     999903    2    3    3    0    0  0.12857317646E-01 -0.61457099036E-01 -0.11520434734E+00  0.13295575529E+00  0.21515240671E-01 0.  0.
         14    1    1    2    0    0  0.16477255105E-01  0.97443417392E-02  0.12834506942E-01  0.23047270992E-01  0.00000000000E+00 0.  1.
     999901    1    3    3    0    0 -0.29334572750E-01  0.51712757297E-01  0.10236984040E+00  0.88792697371E+00  0.88000000000E+00 0. -1.
        -11    1    4    4    0    0  0.22668975760E-02 -0.31302011339E-01 -0.76944235827E-01  0.83100128078E-01  0.51100000000E-03 0.  1.
         11    1    4    4    0    0  0.10590420070E-01 -0.30155087697E-01 -0.38260111512E-01  0.49855627217E-01  0.51100000000E-03 0. -1.
</event>
<event>
 8    1  0.1138737E+005  0.1043930E+01  0.7957747E-01            NaN
         13   -1    0    0    0    0  0.00000000000E+00  0.00000000000E+00  0.74505805969E-08  0.10566000000E+00  0.10566000000E+00 0. -1.
     999900   -1    0    0    0    0 -0.00000000000E+00 -0.00000000000E+00 -0.74505805969E-08  0.93827000000E+00  0.93827000000E+00 0. -1.
     999902    2    1    2    0    0  0.36110668308E-02  0.47093902076E-02 -0.21222875916E-01  0.10218930170E+01  0.10216553771E+01 0.  0.
     999903    2    3    3    0    0 -0.16746314735E-01 -0.66906565128E-01 -0.11310824036E+00  0.13398187937E+00  0.20018552568E-01 0.  0.
         14    1    1    2    0    0 -0.36110668308E-02 -0.47093902076E-02  0.21222875916E-01  0.22036983049E-01  0.00000000000E+00 0. -1.
     999901    1    3    3    0    0  0.20357381565E-01  0.71615955336E-01  0.91885364446E-01  0.88791113758E+00  0.88000000000E+00 0.  1.
        -11    1    4    4    0    0 -0.15484676821E-01 -0.39606713571E-01 -0.83363691047E-01  0.93585431998E-01  0.51100000000E-03 0.  1.
         11    1    4    4    0    0 -0.12616379133E-02 -0.27299851557E-01 -0.29744549315E-01  0.40396447371E-01  0.51100000000E-03 0. -1.
</event>
<event>
 8    1  0.1138737E+005  0.1043930E+01  0.7957747E-01            NaN
         13   -1    0    0    0    0  0.00000000000E+00  0.00000000000E+00  0.74505805969E-08  0.10566000000E+00  0.10566000000E+00 0.  1.
     999900   -1    0    0    0    0 -0.00000000000E+00 -0.00000000000E+00 -0.74505805969E-08  0.93827000000E+00  0.93827000000E+00 0.  1.
     999902    2    1    2    0    0  0.13847540562E-01  0.72900740788E-02  0.17442971243E-01  0.10204959051E+01  0.10202268059E+01 0.  0.
     999903    2    3    3    0    0 -0.63850262919E-01  0.10987092516E+00  0.25471412741E-01  0.13110047245E+00  0.19750056707E-01 0.  0.
         14    1    1    2    0    0 -0.13847540562E-01 -0.72900740788E-02 -0.17442971243E-01  0.23434094936E-01  0.00000000000E+00 0. -1.
     999901    1    3    3    0    0  0.77697803481E-01 -0.10258085108E+00 -0.80284414983E-02  0.88939543261E+00  0.88000000000E+00 0. -1.
        -11    1    4    4    0    0 -0.25558616208E-01  0.26367611312E-01  0.80541802002E-02  0.37598201134E-01  0.51100000000E-03 0.  1.
         11    1    4    4    0    0 -0.38291646711E-01  0.83503313849E-01  0.17417232541E-01  0.93502271320E-01  0.51100000000E-03 0. -1.
</event>
<event>
 8    1  0.1138737E+005  0.1043930E+01  0.7957747E-01            NaN
         13   -1    0    0    0    0  0.00000000000E+00  0.00000000000E+00  0.74505805969E-08  0.10566000000E+00  0.10566000000E+00 0. -1.
     999900   -1    0    0    0    0 -0.00000000000E+00 -0.00000000000E+00 -0.74505805969E-08  0.93827000000E+00  0.93827000000E+00 0. -1.
     999902    2    1    2    0    0 -0.12301892148E-01 -0.77052787952E-02  0.22593130581E-01  0.10170756257E+01  0.10167210389E+01 0.  0.
     999903    2    3    3    0    0 -0.95451275226E-01 -0.13383561716E-01  0.86124335140E-01  0.13085766333E+00  0.20402482258E-01 0.  0.
         14    1    1    2    0    0  0.12301892148E-01  0.77052787952E-02 -0.22593130581E-01  0.26854374340E-01  0.00000000000E+00 0.  1.
     999901    1    3    3    0    0  0.83149383079E-01  0.56782829209E-02 -0.63531204559E-01  0.88621796233E+00  0.88000000000E+00 0. -1.
        -11    1    4    4    0    0 -0.85564346316E-01 -0.17903429811E-01  0.73696588097E-01  0.11433826296E+00  0.51100000000E-03 0.  1.
         11    1    4    4    0    0 -0.98869289100E-02  0.45198680951E-02  0.12427747044E-01  0.16519400366E-01  0.51100000000E-03 0. -1.
</event>
<event>
 8    1  0.1138737E+005  0.1043930E+01  0.7957747E-01            NaN
         13   -1    0    0    0    0  0.00000000000E+00  0.00000000000E+00  0.74505805969E-08  0.10566000000E+00  0.10566000000E+00 0. -1.
     999900   -1    0    0    0    0 -0.00000000000E+00 -0.00000000000E+00 -0.74505805969E-08  0.93827000000E+00  0.93827000000E+00 0. -1.
     999902    2    1    2    0    0 -0.15309078256E-01  0.15965261330E-01 -0.91074081491E-02  0.10200092490E+01  0.10197287216E+01 0.  0.
     999903    2    3    3    0    0  0.97220848934E-01  0.61988923946E-01 -0.57269610092E-01  0.13034596451E+00  0.20389753891E-01 0.  0.
         14    1    1    2    0    0  0.15309078256E-01 -0.15965261330E-01  0.91074081491E-02  0.23920751025E-01  0.00000000000E+00 0. -1.
     999901    1    3    3    0    0 -0.11252992719E+00 -0.46023662616E-01  0.48162201943E-01  0.88966328447E+00  0.88000000000E+00 0.  1.
        -11    1    4    4    0    0  0.83229385299E-01  0.56725140188E-01 -0.42490907603E-01  0.10931884767E+00  0.51100000000E-03 0. -1.
         11    1    4    4    0    0  0.13991463636E-01  0.52637837581E-02 -0.14778702489E-01  0.21027116835E-01  0.51100000000E-03 0.  1.
</event>
<event>
 8    1  0.1138737E+005  0.1043930E+01  0.7957747E-01            NaN
         13   -1    0    0    0    0  0.00000000000E+00  0.00000000000E+00  0.74505805969E-08  0.10566000000E+00  0.10566000000E+00 0.  1.
     999900   -1    0    0    0    0 -0.00000000000E+00 -0.00000000000E+00 -0.74505805969E-08  0.93827000000E+00  0.93827000000E+00 0. -1.
     999902    2    1    2    0    0 -0.40149194360E-02 -0.15160306806E-01 -0.17293132713E-01  0.10205846167E+01  0.10203175746E+01 0.  0.
     999903    2    3    3    0    0  0.63103264928E-01 -0.96788799425E-01  0.58056710044E-01  0.13106471236E+00  0.21384188244E-01 0.  0.
         14    1    1    2    0    0  0.40149194360E-02  0.15160306806E-01  0.17293132713E-01  0.23345383260E-01  0.00000000000E+00 0.  1.
     999901    1    3    3    0    0 -0.67118184364E-01  0.81628492620E-01 -0.75349842757E-01  0.88951990438E+00  0.88000000000E+00 0. -1.
        -11    1    4    4    0    0  0.52606476953E-01 -0.69995644811E-01  0.35444527140E-01  0.94463788486E-01  0.51100000000E-03 0. -1.
         11    1    4    4    0    0  0.10496787975E-01 -0.26793154614E-01  0.22612182904E-01  0.36600923877E-01  0.51100000000E-03 0.  1.
</event>
<event>
 8    1  0.1138737E+005  0.1043930E+01  0.7957747E-01            NaN
         13   -1    0    0    0    0  0.00000000000E+00  0.00000000000E+00  0.74505805969E-08  0.10566000000E+00  0.10566000000E+00 0.  1.
     999900   -1    0    0    0    0 -0.00000000000E+00 -0.00000000000E+00 -0.74505805969E-08  0.93827000000E+00  0.93827000000E+00 0.  1.
     999902    2    1    2    0    0 -0.15102790674E-02  0.21557299454E-01  0.10250484448E-01  0.10200120040E+01  0.10197315420E+01 0.  0.
     999903    2    3    3    0    0 -0.60340928631E-01 -0.11025789730E+00  0.14786485954E-01  0.12824024689E+00  0.20714467673E-01 0.  0.
         14    1    1    2    0    0  0.15102790674E-02 -0.21557299454E-01 -0.10250484448E-01  0.23917996029E-01  0.00000000000E+00 0. -1.
     999901    1    3    3    0    0  0.58830649563E-01  0.13181519675E+00 -0.45360015065E-02  0.89177175708E+00  0.88000000000E+00 0. -1.
        -11    1    4    4    0    0 -0.21750948655E-01 -0.53220931481E-01  0.14810468702E-01  0.59373246663E-01  0.51100000000E-03 0.  1.
         11    1    4    4    0    0 -0.38589979976E-01 -0.57036965814E-01 -0.23982747574E-04  0.68867000225E-01  0.51100000000E-03 0. -1.
</event>
<event>
 8    1  0.1138737E+005  0.1043930E+01  0.7957747E-01            NaN
         13   -1    0    0    0    0  0.00000000000E+00  0.00000000000E+00  0.74505805969E-08  0.10566000000E+00  0.10566000000E+00 0. -1.
     999900   -1    0    0    0    0 -0.00000000000E+00 -0.00000000000E+00 -0.74505805969E-08  0.93827000000E+00  0.93827000000E+00 0.  1.
     999902    2    1    2    0    0 -0.19951318637E-01  0.77973896816E-02 -0.65321582493E-02  0.10215352798E+01  0.10212897749E+01 0.  0.
     999903    2    3    3    0    0 -0.28502130679E-01  0.81605391488E-01  0.98113672540E-01  0.13222572323E+00  0.19635115757E-01 0.  0.
         14    1    1    2    0    0  0.19951318637E-01 -0.77973896816E-02  0.65321582493E-02  0.22394720195E-01  0.00000000000E+00 0. -1.
     999901    1    3    3    0    0  0.85508120423E-02 -0.73808001807E-01 -0.10464583079E+00  0.88930955658E+00  0.88000000000E+00 0. -1.
        -11    1    4    4    0    0 -0.19221805065E-01  0.58269564164E-01  0.55378023427E-01  0.82654742741E-01  0.51100000000E-03 0.  1.
         11    1    4    4    0    0 -0.92803256141E-02  0.23335827324E-01  0.42735649113E-01  0.49570980487E-01  0.51100000000E-03 0. -1.
</event>
<event>
 8    1  0.1138737E+005  0.1043930E+01  0.7957747E-01            NaN
         13   -1    0    0    0    0  0.00000000000E+00  0.00000000000E+00  0.74505805969E-08  0.10566000000E+00  0.10566000000E+00 0. -1.
     999900   -1    0    0    0    0 -0.00000000000E+00 -0.00000000000E+00 -0.74505805969E-08  0.93827000000E+00  0.93827000000E+00 0. -1.
     999902    2    1    2    0    0  0.30463946559E-02 -0.20062383359E-01  0.11719144778E-01  0.10204967309E+01  0.10202276509E+01 0.  0.
     999903    2    3    3    0    0 -0.88693070960E-01 -0.61679525787E-01  0.74033430001E-01  0.13256025443E+00  0.20504817972E-01 0.  0.
         14    1    1    2    0    0 -0.30463946559E-02  0.20062383359E-01 -0.11719144778E-01  0.23433269101E-01  0.00000000000E+00 0.  1.
     999901    1    3    3    0    0  0.91739465616E-01  0.41617142428E-01 -0.62314285222E-01  0.88793647647E+00  0.88000000000E+00 0. -1.
        -11    1    4    4    0    0 -0.51226790563E-01 -0.23167270454E-01  0.37319246392E-01  0.67482544142E-01  0.51100000000E-03 0. -1.
         11    1    4    4    0    0 -0.37466280397E-01 -0.38512255333E-01  0.36714183609E-01  0.65077710291E-01  0.51100000000E-03 0.  1.
</event>
<event>
 8    1  0.1138737E+005  0.1043930E+01  0.7957747E-01            NaN
         13   -1    0    0    0    0  0.00000000000E+00  0.00000000000E+00  0.74505805969E-08  0.10566000000E+00  0.10566000000E+00 0.  1.
     999900   -1    0    0    0    0 -0.00000000000E+00 -0.00000000000E+00 -0.74505805969E-08  0.93827000000E+00  0.93827000000E+00 0.  1.
     999902    2    1    2    0    0 -0.20846850429E-01 -0.51102293278E-02  0.46550356919E-02  0.10219669635E+01  0.10217309330E+01 0.  0.
     999903    2    3    3    0    0 -0.99621633601E-01  0.73543759593E-01  0.46813700857E-01  0.13395273526E+00  0.20461139764E-01 0.  0.
         14    1    1    2    0    0  0.20846850429E-01  0.51102293278E-02 -0.46550356919E-02  0.21963036536E-01  0.00000000000E+00 0.  1.
     999901    1    3    3    0    0  0.78774783172E-01 -0.78653988921E-01 -0.42158665165E-01  0.88801422820E+00  0.88000000000E+00 0. -1.
        -11    1    4    4    0    0 -0.27214536441E-01  0.21880222116E-01  0.23180810467E-01  0.41916419318E-01  0.51100000000E-03 0. -1.
         11    1    4    4    0    0 -0.72407097159E-01  0.51663537477E-01  0.23632890390E-01  0.92036315946E-01  0.51100000000E-03 0.  1.
</event>
<event>
 8    1  0.1138737E+005  0.1043930E+01  0.7957747E-01            NaN
         13   -1    0    0    0    0  0.00000000000E+00  0.00000000000E+00  0.74505805969E-08  0.10566000000E+00  0.10566000000E+00 0. -1.
     999900   -1    0    0    0    0 -0.00000000000E+00 -0.00000000000E+00 -0.74505805969E-08  0.93827000000E+00  0.93827000000E+00 0. -1.
     999902    2    1    2    0    0 -0.20997287650E-01 -0.10023159800E-01  0.58152865636E-02  0.10199473525E+01  0.10196653542E+01 0.  0.
     999903    2    3    3    0    0 -0.65957457824E-01 -0.79536597708E-01  0.81092450400E-01  0.13286213322E+00  0.19997607726E-01 0.  0.
         14    1    1    2    0    0  0.20997287650E-01  0.10023159800E-01 -0.58152865636E-02  0.23982647453E-01  0.00000000000E+00 0. -1.
     999901    1    3    3    0    0  0.44960170174E-01  0.69513437908E-01 -0.75277163836E-01  0.88708521933E+00  0.88000000000E+00 0. -1.
        -11    1    4    4    0    0 -0.27950058564E-01 -0.47605978991E-01  0.36940919820E-01  0.66426106973E-01  0.51100000000E-03 0. -1.
         11    1    4    4    0    0 -0.38007399261E-01 -0.31930618717E-01  0.44151530579E-01  0.66436026248E-01  0.51100000000E-03 0.  1.
</event>
<event>
 8    1  0.1138737E+005  0.1043930E+01  0.7957747E-01            NaN
         13   -1    0    0    0    0  0.00000000000E+00  0.00000000000E+00  0.74505805969E-08  0.10566000000E+00  0.10566000000E+00 0.  1.
     999900   -1    0    0    0    0 -0.00000000000E+00 -0.00000000000E+00 -0.74505805969E-08  0.93827000000E+00  0.93827000000E+00 0. -1.
     999902    2    1    2    0    0 -0.12297055294E-02  0.16520334953E-01 -0.17844792805E-01  0.10195810724E+01  0.10192902889E+01 0.  0.
     999903    2    3    3    0    0  0.98669173863E-01 -0.62915871416E-01  0.48236522090E-01  0.12792158746E+00  0.18524516973E-01 0.  0.
         14    1    1    2    0    0  0.12297055294E-02 -0.16520334953E-01  0.17844792805E-01  0.24348927551E-01  0.00000000000E+00 0.  1.
     999901    1    3    3    0    0 -0.99898879392E-01  0.79436206369E-01 -0.66081314894E-01  0.89165948499E+00  0.88000000000E+00 0.  1.
        -11    1    4    4    0    0  0.52523328419E-01 -0.37607077932E-01  0.17328815929E-01  0.66884537236E-01  0.51100000000E-03 0. -1.
         11    1    4    4    0    0  0.46145845444E-01 -0.25308793484E-01  0.30907706161E-01  0.61037050228E-01  0.51100000000E-03 0.  1.
</event>
<event>
 8    1  0.1138737E+005  0.1043930E+01  0.7957747E-01            NaN
         13   -1    0    0    0    0  0.00000000000E+00  0.00000000000E+00  0.74505805969E-08  0.10566000000E+00  0.10566000000E+00 0.  1.
     999900   -1    0    0    0    0 -0.00000000000E+00 -0.00000000000E+00 -0.74505805969E-08  0.93827000000E+00  0.93827000000E+00 0.  1.
     999902    2    1    2    0    0  0.25797506309E-01  0.43895966922E-02  0.18465988368E-02  0.10176966278E+01  0.10173584601E+01 0.  0.
     999903    2    3    3    0    0 -0.43604499178E-03 -0.12277234243E+00 -0.28110489703E-01  0.12766528837E+00  0.20856366439E-01 0.  0.
         14    1    1    2    0    0 -0.25797506309E-01 -0.43895966922E-02 -0.18465988368E-02  0.26233372222E-01  0.00000000000E+00 0.  1.
     999901    1    3    3    0    0  0.26233551300E-01  0.12716193913E+00  0.29957088540E-01  0.89003133941E+00  0.88000000000E+00 0. -1.
        -11    1    4    4    0    0  0.23144635423E-02 -0.61357323332E-01 -0.36895100237E-02  0.61513831560E-01  0.51100000000E-03 0. -1.
         11    1    4    4    0    0 -0.27505085340E-02 -0.61415019102E-01 -0.24420979679E-01  0.66151456809E-01  0.51100000000E-03 0.  1.
</event>
<event>
 8    1  0.1138737E+005  0.1043930E+01  0.7957747E-01            NaN
         13   -1    0    0    0    0  0.00000000000E+00  0.00000000000E+00  0.74505805969E-08  0.10566000000E+00  0.10566000000E+00 0. -1.
     999900   -1    0    0    0    0 -0.00000000000E+00 -0.00000000000E+00 -0.74505805969E-08  0.93827000000E+00  0.93827000000E+00 0. -1.
     999902    2    1    2    0    0  0.14439508480E-01  0.80963291889E-02  0.16461689532E-01  0.10205839688E+01  0.10203169116E+01 0.  0.
     999903    2    3    3    0    0 -0.10161191582E+00 -0.68933375158E-01  0.35777422258E-01  0.12941922197E+00  0.19812102947E-01 0.  0.
         14    1    1    2    0    0 -0.14439508480E-01 -0.80963291889E-02 -0.16461689532E-01  0.23346031220E-01  0.00000000000E+00 0.  1.
     999901    1    3    3    0    0  0.11605142430E+00  0.77029704347E-01 -0.19315732725E-01  0.89116474681E+00  0.88000000000E+00 0. -1.
        -11    1    4    4    0    0 -0.43018957083E-01 -0.24007610803E-01  0.23442823989E-01  0.54560270917E-01  0.51100000000E-03 0.  1.
         11    1    4    4    0    0 -0.58592958738E-01 -0.44925764356E-01  0.12334598269E-01  0.74858951048E-01  0.51100000000E-03 0. -1.
</event>
<event>
 8    1  0.1138737E+005  0.1043930E+01  0.7957747E-01            NaN
         13   -1    0    0    0    0  0.00000000000E+00  0.00000000000E+00  0.74505805969E-08  0.10566000000E+00  0.10566000000E+00 0.  1.
     999900   -1    0    0    0    0 -0.00000000000E+00 -0.00000000000E+00 -0.74505805969E-08  0.93827000000E+00  0.93827000000E+00 0.  1.
     999902    2    1    2    0    0 -0.56272439311E-02  0.14173094150E-01 -0.13447878797E-01  0.10235980568E+01  0.10233961080E+01 0.  0.
     999903    2    3    3    0    0 -0.24418883789E-01  0.12359350037E+00  0.43240018955E-01  0.13481266715E+00  0.20811553660E-01 0.  0.
         14    1    1    2    0    0  0.56272439311E-02 -0.14173094150E-01  0.13447878797E-01  0.20331943247E-01  0.00000000000E+00 0.  1.
     999901    1    3    3    0    0  0.18791639858E-01 -0.10942040622E+00 -0.56687897752E-01  0.88878538961E+00  0.88000000000E+00 0.  1.
        -11    1    4    4    0    0 -0.14639960054E-01  0.50194391740E-01  0.27615661098E-01  0.59132827189E-01  0.51100000000E-03 0. -1.
         11    1    4    4    0    0 -0.97789237346E-02  0.73399108627E-01  0.15624357857E-01  0.75679839958E-01  0.51100000000E-03 0.  1.
</event>
<event>
 8    1  0.1138737E+005  0.1043930E+01  0.7957747E-01            NaN
         13   -1    0    0    0    0  0.00000000000E+00  0.00000000000E+00  0.74505805969E-08  0.10566000000E+00  0.10566000000E+00 0.  1.
     999900   -1    0    0    0    0 -0.00000000000E+00 -0.00000000000E+00 -0.74505805969E-08  0.93827000000E+00  0.93827000000E+00 0. -1.
     999902    2    1    2    0    0 -0.10714937920E-01 -0.18774703064E-01  0.98441359985E-02  0.10201769711E+01  0.10199004098E+01 0.  0.
     999903    2    3    3    0    0 -0.42161943579E-01  0.16518497579E-01 -0.11973379236E+00  0.12943292046E+00  0.19136604121E-01 0.  0.
         14    1    1    2    0    0  0.10714937920E-01  0.18774703064E-01 -0.98441359985E-02  0.23753028930E-01  0.00000000000E+00 0. -1.
     999901    1    3    3    0    0  0.31447005659E-01 -0.35293200643E-01  0.12957792836E+00  0.89074405061E+00  0.88000000000E+00 0.  1.
        -11    1    4    4    0    0 -0.16371732757E-01  0.88303750309E-02 -0.26425722421E-01  0.32320103390E-01  0.51100000000E-03 0. -1.
         11    1    4    4    0    0 -0.25790210822E-01  0.76881225483E-02 -0.93308069941E-01  0.97112817072E-01  0.51100000000E-03 0.  1.
</event>
<event>
 8    1  0.1138737E+005  0.1043930E+01  0.7957747E-01            NaN
         13   -1    0    0    0    0  0.00000000000E+00  0.00000000000E+00  0.74505805969E-08  0.10566000000E+00  0.10566000000E+00 0.  1.
     999900   -1    0    0    0    0 -0.00000000000E+00 -0.00000000000E+00 -0.74505805969E-08  0.93827000000E+00  0.93827000000E+00 0.  1.
     999902    2    1    2    0    0  0.19325710179E-01 -0.74794441494E-02  0.11093781675E-01  0.10204247421E+01  0.10201539869E+01 0.  0.
     999903    2    3    3    0    0 -0.12431100271E+00  0.15864591553E-01 -0.13517079459E-01  0.12813435000E+00  0.23038870481E-01 0.  0.
         14    1    1    2    0    0 -0.19325710179E-01  0.74794441494E-02 -0.11093781675E-01  0.23505257934E-01  0.00000000000E+00 0. -1.
     999901    1    3    3    0    0  0.14363671289E+00 -0.23344035703E-01  0.24610861134E-01  0.89229039207E+00  0.88000000000E+00 0. -1.
        -11    1    4    4    0    0 -0.80770573927E-01 -0.54955411048E-03 -0.11147045687E-01  0.81539593884E-01  0.51100000000E-03 0.  1.
         11    1    4    4    0    0 -0.43540428780E-01  0.16414145664E-01 -0.23700337727E-02  0.46594756114E-01  0.51100000000E-03 0. -1.
</event>
<event>
 8    1  0.1138737E+005  0.1043930E+01  0.7957747E-01            NaN
         13   -1    0    0    0    0  0.00000000000E+00  0.00000000000E+00  0.74505805969E-08  0.10566000000E+00  0.10566000000E+00 0.  1.
     999900   -1    0    0    0    0 -0.00000000000E+00 -0.00000000000E+00 -0.74505805969E-08  0.93827000000E+00  0.93827000000E+00 0.  1.
     999902    2    1    2    0    0 -0.10646607924E-02 -0.10259838271E-02  0.23250671952E-01  0.10206323630E+01  0.10203664246E+01 0.  0.
     999903    2    3    3    0    0 -0.53138301967E-01 -0.24300069985E-01 -0.11244790825E+00  0.12840624147E+00  0.20723374285E-01 0.  0.
         14    1    1    2    0    0  0.10646607924E-02  0.10259838271E-02 -0.23250671952E-01  0.23297637040E-01  0.00000000000E+00 0. -1.
     999901    1    3    3    0    0  0.52073641175E-01  0.23274086158E-01  0.13569858021E+00  0.89222612149E+00  0.88000000000E+00 0. -1.
        -11    1    4    4    0    0 -0.20361574685E-01 -0.11084791015E-01 -0.25067402185E-01  0.34148236979E-01  0.51100000000E-03 0. -1.
         11    1    4    4    0    0 -0.32776727282E-01 -0.13215278970E-01 -0.87380506068E-01  0.94258004495E-01  0.51100000000E-03 0.  1.
</event>
<event>
 8    1  0.1138737E+005  0.1043930E+01  0.7957747E-01            NaN
         13   -1    0    0    0    0  0.00000000000E+00  0.00000000000E+00  0.74505805969E-08  0.10566000000E+00  0.10566000000E+00 0.  1.
     999900   -1    0    0    0    0 -0.00000000000E+00 -0.00000000000E+00 -0.74505805969E-08  0.93827000000E+00  0.93827000000E+00 0. -1.
     999902    2    1    2    0    0 -0.10867248589E-01  0.13964897653E-01  0.15144497087E-01  0.10206389878E+01  0.10203732024E+01 0.  0.
     999903    2    3    3    0    0 -0.47945387550E-01  0.61822079643E-01  0.10673201377E+00  0.13381692475E+00  0.19862448689E-01 0.  0.
         14    1    1    2    0    0  0.10867248589E-01 -0.13964897653E-01 -0.15144497087E-01  0.23291012223E-01  0.00000000000E+00 0. -1.
     999901    1    3    3    0    0  0.37078138961E-01 -0.47857181990E-01 -0.91587516682E-01  0.88682206303E+00  0.88000000000E+00 0. -1.
        -11    1    4    4    0    0 -0.34072372604E-01  0.32779098827E-01  0.74685868884E-01  0.88394773753E-01  0.51100000000E-03 0.  1.
         11    1    4    4    0    0 -0.13873014946E-01  0.29042980815E-01  0.32046144885E-01  0.45422150998E-01  0.51100000000E-03 0. -1.
</event>
<event>
 8    1  0.1138737E+005  0.1043930E+01  0.7957747E-01            NaN
         13   -1    0    0    0    0  0.00000000000E+00  0.00000000000E+00  0.74505805969E-08  0.10566000000E+00  0.10566000000E+00 0. -1.
     999900   -1    0    0    0    0 -0.00000000000E+00 -0.00000000000E+00 -0.74505805969E-08  0.93827000000E+00  0.93827000000E+00 0.  1.
     999902    2    1    2    0    0 -0.44386106135E-02 -0.18046469779E-01 -0.15365406157E-01  0.10198162686E+01  0.10195311421E+01 0.  0.
     999903    2    3    3    0    0  0.36875574738E-01  0.82483972435E-01 -0.91143786622E-01  0.12989739889E+00  0.20068150818E-01 0.  0.
         14    1    1    2    0    0  0.44386106135E-02  0.18046469779E-01  0.15365406157E-01  0.24113731400E-01  0.00000000000E+00 0. -1.
     999901    1    3    3    0    0 -0.41314185352E-01 -0.10053044221E+00  0.75778380465E-01  0.88991886971E+00  0.88000000000E+00 0.  1.
        -11    1    4    4    0    0  0.36697147003E-01  0.65451301270E-01 -0.79095908672E-01  0.10902741548E+00  0.51100000000E-03 0. -1.
         11    1    4    4    0    0  0.17842773524E-03  0.17032671164E-01 -0.12047877950E-01  0.20869983410E-01  0.51100000000E-03 0.  1.
</event>
<event>
 8    1  0.1138737E+005  0.1043930E+01  0.7957747E-01            NaN
         13   -1    0    0    0    0  0.00000000000E+00  0.00000000000E+00  0.74505805969E-08  0.10566000000E+00  0.10566000000E+00 0.  1.
     999900   -1    0    0    0    0 -0.00000000000E+00 -0.00000000000E+00 -0.74505805969E-08  0.93827000000E+00  0.93827000000E+00 0.  1.
     999902    2    1    2    0    0  0.19410021804E-01  0.93528501068E-02  0.42992289240E-02  0.10219593805E+01  0.10217231853E+01 0.  0.
     999903    2    3    3    0    0 -0.10443652916E+00 -0.66109944623E-01  0.33863029281E-01  0.12959924028E+00  0.19280687968E-01 0.  0.
         14    1    1    2    0    0 -0.19410021804E-01 -0.93528501068E-02 -0.42992289240E-02  0.21970619493E-01  0.00000000000E+00 0. -1.
     999901    1    3    3    0    0  0.12384655096E+00  0.75462794730E-01 -0.29563800357E-01  0.89236014023E+00  0.88000000000E+00 0.  1.
        -11    1    4    4    0    0 -0.52104636994E-01 -0.42264895103E-01  0.23955509654E-01  0.71241435402E-01  0.51100000000E-03 0.  1.
         11    1    4    4    0    0 -0.52331892164E-01 -0.23845049520E-01  0.99075196270E-02  0.58357804879E-01  0.51100000000E-03 0. -1.
</event>
<event>
 8    1  0.1138737E+005  0.1043930E+01  0.7957747E-01            NaN
         13   -1    0    0    0    0  0.00000000000E+00  0.00000000000E+00  0.74505805969E-08  0.10566000000E+00  0.10566000000E+00 0.  1.
     999900   -1    0    0    0    0 -0.00000000000E+00 -0.00000000000E+00 -0.74505805969E-08  0.93827000000E+00  0.93827000000E+00 0. -1.
     999902    2    1    2    0    0  0.11548022380E-01 -0.18632996997E-01  0.99794626447E-02  0.10198440067E+01  0.10195595436E+01 0.  0.
     999903    2    3    3    0    0  0.16046308484E-01 -0.10665723655E+00  0.75349724246E-01  0.13302848338E+00  0.19640425684E-01 0.  0.
         14    1    1    2    0    0 -0.11548022380E-01  0.18632996997E-01 -0.99794626447E-02  0.24085993287E-01  0.00000000000E+00 0. -1.
     999901    1    3    3    0    0 -0.44982861040E-02  0.88024239554E-01 -0.65370261601E-01  0.88681552334E+00  0.88000000000E+00 0.  1.
        -11    1    4    4    0    0  0.18020123228E-01 -0.75459757757E-01  0.60675116934E-01  0.98491780458E-01  0.51100000000E-03 0. -1.
         11    1    4    4    0    0 -0.19738147441E-02 -0.31197478794E-01  0.14674607312E-01  0.34536702919E-01  0.51100000000E-03 0.  1.
</event>
<event>
 8    1  0.1138737E+005  0.1043930E+01  0.7957747E-01            NaN
         13   -1    0    0    0    0  0.00000000000E+00  0.00000000000E+00  0.74505805969E-08  0.10566000000E+00  0.10566000000E+00 0. -1.
     999900   -1    0    0    0    0 -0.00000000000E+00 -0.00000000000E+00 -0.74505805969E-08  0.93827000000E+00  0.93827000000E+00 0. -1.
     999902    2    1    2    0    0 -0.20703655016E-01 -0.10739661955E-01 -0.21173632006E-03  0.10206056243E+01  0.10203390681E+01 0.  0.
     999903    2    3    3    0    0  0.81654734022E-01 -0.13987442907E-01  0.97208632120E-01  0.12932647830E+00  0.20314420604E-01 0.  0.
         14    1    1    2    0    0  0.20703655016E-01  0.10739661955E-01  0.21173632006E-03  0.23324375708E-01  0.00000000000E+00 0. -1.
     999901    1    3    3    0    0 -0.10235838904E+00  0.32477809527E-02 -0.97420368440E-01  0.89127914599E+00  0.88000000000E+00 0. -1.
        -11    1    4    4    0    0  0.11396069880E-01 -0.53916037601E-02  0.26114913145E-01  0.29003268943E-01  0.51100000000E-03 0.  1.
         11    1    4    4    0    0  0.70258664142E-01 -0.85958391473E-02  0.71093718975E-01  0.10032320936E+00  0.51100000000E-03 0. -1.
</event>
<event>
 8    1  0.1138737E+005  0.1043930E+01  0.7957747E-01            NaN
         13   -1    0    0    0    0  0.00000000000E+00  0.00000000000E+00  0.74505805969E-08  0.10566000000E+00  0.10566000000E+00 0. -1.
     999900   -1    0    0    0    0 -0.00000000000E+00 -0.00000000000E+00 -0.74505805969E-08  0.93827000000E+00  0.93827000000E+00 0.  1.
     999902    2    1    2    0    0  0.62436448098E-02  0.21955616897E-01  0.59863764929E-02  0.10203319298E+01  0.10200590071E+01 0.  0.
     999903    2    3    3    0    0 -0.11203441292E+00 -0.70618561396E-02 -0.61129094670E-01  0.12941319099E+00  0.20234334617E-01 0.  0.
         14    1    1    2    0    0 -0.62436448098E-02 -0.21955616897E-01 -0.59863764929E-02  0.23598070204E-01  0.00000000000E+00 0.  1.
     999901    1    3    3    0    0  0.11827805773E+00  0.29017473037E-01  0.67115471162E-01  0.89091873880E+00  0.88000000000E+00 0. -1.
        -11    1    4    4    0    0 -0.93175805246E-01  0.60997852567E-03 -0.54740448912E-01  0.10806886982E+00  0.51100000000E-03 0.  1.
         11    1    4    4    0    0 -0.18858607673E-01 -0.76718346652E-02 -0.63886457579E-02  0.21344321168E-01  0.51100000000E-03 0. -1.
</event>
<event>
 8    1  0.1138737E+005  0.1043930E+01  0.7957747E-01            NaN
         13   -1    0    0    0    0  0.00000000000E+00  0.00000000000E+00  0.74505805969E-08  0.10566000000E+00  0.10566000000E+00 0. -1.
     999900   -1    0    0    0    0 -0.00000000000E+00 -0.00000000000E+00 -0.74505805969E-08  0.93827000000E+00  0.93827000000E+00 0. -1.
     999902    2    1    2    0    0 -0.16838024648E-01  0.60288476090E-02  0.14733304431E-01  0.10207581132E+01  0.10204950707E+01 0.  0.
     999903    2    3    3    0    0 -0.12232790803E+00  0.39856649683E-01  0.30166938589E-01  0.13367827873E+00  0.20178414591E-01 0.  0.
         14    1    1    2    0    0  0.16838024648E-01 -0.60288476090E-02 -0.14733304431E-01  0.23171886781E-01  0.00000000000E+00 0. -1.
     999901    1    3    3    0    0  0.10548988338E+00 -0.33827802074E-01 -0.15433634158E-01  0.88707983449E+00  0.88000000000E+00 0.  1.
        -11    1    4    4    0    0 -0.13258711704E-01  0.24470299320E-02  0.95797130830E-02  0.16547308400E-01  0.51100000000E-03 0.  1.
         11    1    4    4    0    0 -0.10906919632E+00  0.37409619751E-01  0.20587225506E-01  0.11713097033E+00  0.51100000000E-03 0. -1.
</event>
<event>
 8    1  0.1138737E+005  0.1043930E+01  0.7957747E-01            NaN
         13   -1    0    0    0    0  0.00000000000E+00  0.00000000000E+00  0.74505805969E-08  0.10566000000E+00  0.10566000000E+00 0. -1.
     999900   -1    0    0    0    0 -0.00000000000E+00 -0.00000000000E+00 -0.74505805969E-08  0.93827000000E+00  0.93827000000E+00 0. -1.
     999902    2    1    2    0    0 -0.24531882554E-01 -0.32588263565E-02 -0.33826535962E-02  0.10189524990E+01  0.10186463173E+01 0.  0.
     999903    2    3    3    0    0 -0.85531458850E-01 -0.27131147118E-01  0.93336685261E-01  0.13123324917E+00  0.21417265830E-01 0.  0.
         14    1    1    2    0    0  0.24531882554E-01  0.32588263565E-02  0.33826535962E-02  0.24977501000E-01  0.00000000000E+00 0. -1.
     999901    1    3    3    0    0  0.60999576295E-01  0.23872320761E-01 -0.96719338857E-01  0.88771924983E+00  0.88000000000E+00 0. -1.
        -11    1    4    4    0    0 -0.26432528245E-01 -0.18026445078E-01  0.38882974864E-01  0.50356510273E-01  0.51100000000E-03 0.  1.
         11    1    4    4    0    0 -0.59098930605E-01 -0.91047020400E-02  0.54453710397E-01  0.80876738898E-01  0.51100000000E-03 0. -1.
</event>
<event>
 8    1  0.1281075E+005  0.1043930E+01  0.7957747E-01            NaN
         13   -1    0    0    0    0  0.00000000000E+00  0.00000000000E+00  0.74505805969E-08  0.10566000000E+00  0.10566000000E+00 0.  1.
     999900   -1    0    0    0    0 -0.00000000000E+00 -0.00000000000E+00 -0.74505805969E-08  0.93827000000E+00  0.93827000000E+00 0.  1.
     999902    2    1    2    0    0 -0.16779569638E-01  0.93800044318E-02  0.14181941708E-01  0.10200413853E+01  0.10197616201E+01 0.  0.
     999903    2    3    3    0    0 -0.48901823558E-01 -0.11795700959E+00  0.17804223433E-01  0.13028879316E+00  0.18786558809E-01 0.  0.
         14    1    1    2    0    0  0.16779569638E-01 -0.93800044318E-02 -0.14181941708E-01  0.23888614673E-01  0.00000000000E+00 0. -1.
     999901    1    3    3    0    0  0.32122253920E-01  0.12733701403E+00 -0.36222817255E-02  0.88975259216E+00  0.88000000000E+00 0.  1.
        -11    1    4    4    0    0 -0.10696702381E-01 -0.49370270010E-01  0.54522179325E-02  0.50811719161E-01  0.51100000000E-03 0.  1.
         11    1    4    4    0    0 -0.38205121177E-01 -0.68586739585E-01  0.12352005501E-01  0.79477074002E-01  0.51100000000E-03 0. -1.
</event>
<event>
 8    1  0.1138737E+005  0.1043930E+01  0.7957747E-01            NaN
         13   -1    0    0    0    0  0.00000000000E+00  0.00000000000E+00  0.74505805969E-08  0.10566000000E+00  0.10566000000E+00 0.  1.
     999900   -1    0    0    0    0 -0.00000000000E+00 -0.00000000000E+00 -0.74505805969E-08  0.93827000000E+00  0.93827000000E+00 0. -1.
     999902    2    1    2    0    0  0.74346975152E-02 -0.18807294631E-01  0.16796710048E-01  0.10176408668E+01  0.10173012411E+01 0.  0.
     999903    2    3    3    0    0 -0.25874474156E-01 -0.12416017392E+00  0.24677554273E-01  0.13069620230E+00  0.19679390496E-01 0.  0.
         14    1    1    2    0    0 -0.74346975152E-02  0.18807294631E-01 -0.16796710048E-01  0.26289133247E-01  0.00000000000E+00 0. -1.
     999901    1    3    3    0    0  0.33309171671E-01  0.10535287929E+00 -0.78808442252E-02  0.88694466445E+00  0.88000000000E+00 0. -1.
        -11    1    4    4    0    0 -0.15522238452E-01 -0.92151878176E-01  0.26080033071E-01  0.97022357134E-01  0.51100000000E-03 0. -1.
         11    1    4    4    0    0 -0.10352235704E-01 -0.32008295745E-01 -0.14024787986E-02  0.33673845167E-01  0.51100000000E-03 0.  1.
</event>
<event>
 8    1  0.1138737E+005  0.1043930E+01  0.7957747E-01            NaN
         13   -1    0    0    0    0  0.00000000000E+00  0.00000000000E+00  0.74505805969E-08  0.10566000000E+00  0.10566000000E+00 0.  1.
     999900   -1    0    0    0    0 -0.00000000000E+00 -0.00000000000E+00 -0.74505805969E-08  0.93827000000E+00  0.93827000000E+00 0.  1.
     999902    2    1    2    0    0 -0.14110196964E-01 -0.23510559246E-02  0.26052251627E-01  0.10142088806E+01  0.10137733024E+01 0.  0.
     999903    2    3    3    0    0 -0.78172460482E-01 -0.83671368568E-01  0.52801110896E-01  0.12773695871E+00  0.20419153118E-01 0.  0.
         14    1    1    2    0    0  0.14110196964E-01  0.23510559246E-02 -0.26052251627E-01  0.29721119379E-01  0.00000000000E+00 0. -1.
     999901    1    3    3    0    0  0.64062263518E-01  0.81320312643E-01 -0.26748859269E-01  0.88647192191E+00  0.88000000000E+00 0.  1.
        -11    1    4    4    0    0 -0.15177386081E-01 -0.28761790884E-01  0.18364950312E-01  0.37351387980E-01  0.51100000000E-03 0. -1.
         11    1    4    4    0    0 -0.62995074402E-01 -0.54909577684E-01  0.34436160585E-01  0.90385570735E-01  0.51100000000E-03 0.  1.
</event>
<event>
 8    1  0.1138737E+005  0.1043930E+01  0.7957747E-01            NaN
         13   -1    0    0    0    0  0.00000000000E+00  0.00000000000E+00  0.74505805969E-08  0.10566000000E+00  0.10566000000E+00 0. -1.
     999900   -1    0    0    0    0 -0.00000000000E+00 -0.00000000000E+00 -0.74505805969E-08  0.93827000000E+00  0.93827000000E+00 0.  1.
     999902    2    1    2    0    0  0.14606243402E-01 -0.35657205362E-02 -0.17942230723E-01  0.10205210198E+01  0.10202525038E+01 0.  0.
     999903    2    3    3    0    0 -0.12622434780E+00  0.12931529303E-01 -0.13595847115E-01  0.12916009085E+00  0.19941704566E-01 0.  0.
         14    1    1    2    0    0 -0.14606243402E-01  0.35657205362E-02  0.17942230723E-01  0.23408980169E-01  0.00000000000E+00 0. -1.
     999901    1    3    3    0    0  0.14083059120E+00 -0.16497249839E-01 -0.43463836083E-02  0.89136092898E+00  0.88000000000E+00 0.  1.
        -11    1    4    4    0    0 -0.93677898813E-01  0.92630692547E-02 -0.18793375396E-01  0.95993777183E-01  0.51100000000E-03 0. -1.
         11    1    4    4    0    0 -0.32546448986E-01  0.36684600484E-02  0.51975282815E-02  0.33166313663E-01  0.51100000000E-03 0.  1.
</event>
<event>
 7    1  0.1138737E+005  0.1043930E+01  0.7957747E-01            NaN
         13   -1    0    0    0    0  0.00000000000E+00  0.00000000000E+00  0.74505805969E-08  0.10566000000E+00  0.10566000000E+00 0. -1.
     999900   -1    0    0    0    0 -0.00000000000E+00 -0.00000000000E+00 -0.74505805969E-08  0.93827000000E+00  0.93827000000E+00 0.  1.
     999903    2    1    2    0    0  0.47212193450E-01  0.54863158972E-01 -0.47487147346E-01  0.88778120061E-01  0.19686747209E-01 0.  0.
         14    1    1    2    0    0 -0.38882380582E-01  0.36077094122E-01  0.46328691328E-01  0.70425449094E-01  0.00000000000E+00 0. -1.
     999901    1    1    2    0    0 -0.83298128678E-02 -0.90940253094E-01  0.11584560188E-02  0.88472643084E+00  0.88000000000E+00 0. -1.
        -11    1    3    3    0    0  0.23678042612E-01  0.41803327953E-01 -0.31889477938E-01  0.57666002584E-01  0.51100000000E-03 0.  1.
         11    1    3    3    0    0  0.23534150838E-01  0.13059831019E-01 -0.15597669409E-01  0.31112117477E-01  0.51100000000E-03 0. -1.
</event>
<event>
 8    1  0.1138737E+005  0.1043930E+01  0.7957747E-01            NaN
         13   -1    0    0    0    0  0.00000000000E+00  0.00000000000E+00  0.74505805969E-08  0.10566000000E+00  0.10566000000E+00 0. -1.
     999900   -1    0    0    0    0 -0.00000000000E+00 -0.00000000000E+00 -0.74505805969E-08  0.93827000000E+00  0.93827000000E+00 0. -1.
     999902    2    1    2    0    0 -0.95683111839E-02  0.78113794265E-02  0.19579720614E-01  0.10207797152E+01  0.10205171685E+01 0.  0.
     999903    2    3    3    0    0 -0.82948672838E-01  0.39983822424E-01 -0.90266954039E-01  0.13033823171E+00  0.18993242838E-01 0.  0.
         14    1    1    2    0    0  0.95683111839E-02 -0.78113794265E-02 -0.19579720614E-01  0.23150284810E-01  0.00000000000E+00 0.  1.
     999901    1    3    3    0    0  0.73380361654E-01 -0.32172442997E-01  0.10984667465E+00  0.89044148348E+00  0.88000000000E+00 0.  1.
        -11    1    4    4    0    0 -0.13314937530E-01  0.31391904054E-02 -0.22902617887E-01  0.26682074599E-01  0.51100000000E-03 0. -1.
         11    1    4    4    0    0 -0.69633735308E-01  0.36844632018E-01 -0.67364336152E-01  0.10365615711E+00  0.51100000000E-03 0.  1.
</event>
<event>
 8    1  0.1138737E+005  0.1043930E+01  0.7957747E-01            NaN
         13   -1    0    0    0    0  0.00000000000E+00  0.00000000000E+00  0.74505805969E-08  0.10566000000E+00  0.10566000000E+00 0.  1.
     999900   -1    0    0    0    0 -0.00000000000E+00 -0.00000000000E+00 -0.74505805969E-08  0.93827000000E+00  0.93827000000E+00 0. -1.
     999902    2    1    2    0    0 -0.11848294974E-01  0.20334824121E-01  0.19558964301E-02  0.10203140584E+01  0.10200407174E+01 0.  0.
     999903    2    3    3    0    0 -0.10130059515E+00 -0.70295730849E-01 -0.37123513324E-01  0.13029000719E+00  0.19850198476E-01 0.  0.
         14    1    1    2    0    0  0.11848294974E-01 -0.20334824121E-01 -0.19558964301E-02  0.23615941579E-01  0.00000000000E+00 0. -1.
     999901    1    3    3    0    0  0.89452300173E-01  0.90630554970E-01  0.39079409754E-01  0.89002405123E+00  0.88000000000E+00 0.  1.
        -11    1    4    4    0    0 -0.32198960541E-01 -0.25333059395E-01 -0.21879374050E-01  0.46448951420E-01  0.51100000000E-03 0.  1.
         11    1    4    4    0    0 -0.69101634607E-01 -0.44962671454E-01 -0.15244139274E-01  0.83841055771E-01  0.51100000000E-03 0. -1.
</event>
<event>
 8    1  0.1138737E+005  0.1043930E+01  0.7957747E-01            NaN
         13   -1    0    0    0    0  0.00000000000E+00  0.00000000000E+00  0.74505805969E-08  0.10566000000E+00  0.10566000000E+00 0.  1.
     999900   -1    0    0    0    0 -0.00000000000E+00 -0.00000000000E+00 -0.74505805969E-08  0.93827000000E+00  0.93827000000E+00 0.  1.
     999902    2    1    2    0    0 -0.23391124482E-01  0.42637767887E-02  0.67803559237E-02  0.10192055642E+01  0.10189056308E+01 0.  0.
     999903    2    3    3    0    0 -0.59631541656E-01 -0.60379024016E-01  0.98148217430E-01  0.13137666989E+00  0.20620608746E-01 0.  0.
         14    1    1    2    0    0  0.23391124482E-01 -0.42637767887E-02 -0.67803559237E-02  0.24724435757E-01  0.00000000000E+00 0. -1.
     999901    1    3    3    0    0  0.36240417175E-01  0.64642800805E-01 -0.91367861507E-01  0.88782889435E+00  0.88000000000E+00 0.  1.
        -11    1    4    4    0    0 -0.40433623951E-01 -0.52696289889E-01  0.78712966196E-01  0.10299402450E+00  0.51100000000E-03 0.  1.
         11    1    4    4    0    0 -0.19197917706E-01 -0.76827341273E-02  0.19435251235E-01  0.28382645392E-01  0.51100000000E-03 0. -1.
</event>
<event>
 8    1  0.1138737E+005  0.1043930E+01  0.7957747E-01            NaN
         13   -1    0    0    0    0  0.00000000000E+00  0.00000000000E+00  0.74505805969E-08  0.10566000000E+00  0.10566000000E+00 0.  1.
     999900   -1    0    0    0    0 -0.00000000000E+00 -0.00000000000E+00 -0.74505805969E-08  0.93827000000E+00  0.93827000000E+00 0. -1.
     999902    2    1    2    0    0  0.11144234006E-01  0.14589234326E-01  0.15334931537E-01  0.10200093011E+01  0.10197287750E+01 0.  0.
     999903    2    3    3    0    0  0.42977433549E-01 -0.44458229531E-01  0.11483138697E+00  0.13186545003E+00  0.19459072686E-01 0.  0.
         14    1    1    2    0    0 -0.11144234006E-01 -0.14589234326E-01 -0.15334931537E-01  0.23920698883E-01  0.00000000000E+00 0. -1.
     999901    1    3    3    0    0 -0.31833199543E-01  0.59047463857E-01 -0.99496455437E-01  0.88814385109E+00  0.88000000000E+00 0. -1.
        -11    1    4    4    0    0  0.10939109244E-01 -0.17089901108E-01  0.55475489991E-01  0.59072158770E-01  0.51100000000E-03 0.  1.
         11    1    4    4    0    0  0.32038324304E-01 -0.27368328423E-01  0.59355896982E-01  0.72793291260E-01  0.51100000000E-03 0. -1.
</event>
<event>
 8    1  0.1138737E+005  0.1043930E+01  0.7957747E-01            NaN
         13   -1    0    0    0    0  0.00000000000E+00  0.00000000000E+00  0.74505805969E-08  0.10566000000E+00  0.10566000000E+00 0.  1.
     999900   -1    0    0    0    0 -0.00000000000E+00 -0.00000000000E+00 -0.74505805969E-08  0.93827000000E+00  0.93827000000E+00 0. -1.
     999902    2    1    2    0    0  0.18590940897E-01 -0.66486316820E-02  0.12992011410E-01  0.10202948620E+01  0.10200210712E+01 0.  0.
     999903    2    3    3    0    0 -0.55068515558E-01 -0.16987846618E-01 -0.11287790860E+00  0.12823216711E+00  0.19517635486E-01 0.  0.
         14    1    1    2    0    0 -0.18590940897E-01  0.66486316820E-02 -0.12992011410E-01  0.23635137976E-01  0.00000000000E+00 0. -1.
     999901    1    3    3    0    0  0.73659456454E-01  0.10339214936E-01  0.12586992001E+00  0.89206269491E+00  0.88000000000E+00 0.  1.
        -11    1    4    4    0    0 -0.37059438779E-01 -0.17366097121E-02 -0.64752291241E-01  0.74629338452E-01  0.51100000000E-03 0.  1.
         11    1    4    4    0    0 -0.18009076779E-01 -0.15251236906E-01 -0.48125617354E-01  0.53602828660E-01  0.51100000000E-03 0. -1.
</event>
<event>
 8    1  0.1138737E+005  0.1043930E+01  0.7957747E-01            NaN
         13   -1    0    0    0    0  0.00000000000E+00  0.00000000000E+00  0.74505805969E-08  0.10566000000E+00  0.10566000000E+00 0.  1.
     999900   -1    0    0    0    0 -0.00000000000E+00 -0.00000000000E+00 -0.74505805969E-08  0.93827000000E+00  0.93827000000E+00 0.  1.
     999902    2    1    2    0    0  0.53198688269E-02  0.24274473693E-02 -0.22027563573E-01  0.10211394962E+01  0.10208851374E+01 0.  0.
     999903    2    3    3    0    0  0.11634265810E+00 -0.37855651320E-01 -0.48078574723E-01  0.13286732907E+00  0.19326493629E-01 0.  0.
         14    1    1    2    0    0 -0.53198688269E-02 -0.24274473693E-02  0.22027563573E-01  0.22790503769E-01  0.00000000000E+00 0.  1.
     999901    1    3    3    0    0 -0.11102278927E+00  0.40283098689E-01  0.26051011150E-01  0.88827216716E+00  0.88000000000E+00 0. -1.
        -11    1    4    4    0    0  0.58073734353E-01 -0.13570391455E-01 -0.32174360310E-01  0.67765512824E-01  0.51100000000E-03 0. -1.
         11    1    4    4    0    0  0.58268923744E-01 -0.24285259865E-01 -0.15904214413E-01  0.65101816243E-01  0.51100000000E-03 0.  1.
</event>
<event>
 8    1  0.1138737E+005  0.1043930E+01  0.7957747E-01            NaN
         13   -1    0    0    0    0  0.00000000000E+00  0.00000000000E+00  0.74505805969E-08  0.10566000000E+00  0.10566000000E+00 0. -1.
     999900   -1    0    0    0    0 -0.00000000000E+00 -0.00000000000E+00 -0.74505805969E-08  0.93827000000E+00  0.93827000000E+00 0. -1.
     999902    2    1    2    0    0 -0.79536133599E-02  0.22979434502E-01  0.51343248570E-02  0.10190769184E+01  0.10187738168E+01 0.  0.
     999903    2    3    3    0    0  0.32426381820E-01 -0.68562143161E-01  0.10149504734E+00  0.12818085635E+00  0.19412614148E-01 0.  0.
         14    1    1    2    0    0  0.79536133599E-02 -0.22979434502E-01 -0.51343248570E-02  0.24853081644E-01  0.00000000000E+00 0.  1.
     999901    1    3    3    0    0 -0.40379995180E-01  0.91541577662E-01 -0.96360722485E-01  0.89089606200E+00  0.88000000000E+00 0. -1.
        -11    1    4    4    0    0  0.31768212323E-02 -0.28469332797E-01  0.36326426431E-01  0.46265164879E-01  0.51100000000E-03 0.  1.
         11    1    4    4    0    0  0.29249560587E-01 -0.40092810364E-01  0.65168620911E-01  0.81915691475E-01  0.51100000000E-03 0. -1.
</event>
<event>
 8    1  0.1138737E+005  0.1043930E+01  0.7957747E-01            NaN
         13   -1    0    0    0    0  0.00000000000E+00  0.00000000000E+00  0.74505805969E-08  0.10566000000E+00  0.10566000000E+00 0.  1.
     999900   -1    0    0    0    0 -0.00000000000E+00 -0.00000000000E+00 -0.74505805969E-08  0.93827000000E+00  0.93827000000E+00 0. -1.
     999902    2    1    2    0    0 -0.99693907702E-02 -0.12654175496E-01  0.19860977816E-01  0.10183570583E+01  0.10180359143E+01 0.  0.
     999903    2    3    3    0    0 -0.54854675941E-01 -0.92126887076E-01 -0.69163686363E-01  0.12916866902E+00  0.20112949825E-01 0.  0.
         14    1    1    2    0    0  0.99693907702E-02  0.12654175496E-01 -0.19860977816E-01  0.25572941747E-01  0.00000000000E+00 0. -1.
     999901    1    3    3    0    0  0.44885285171E-01  0.79472711580E-01  0.89024664179E-01  0.88918838923E+00  0.88000000000E+00 0.  1.
        -11    1    4    4    0    0 -0.18727805360E-01 -0.21471794512E-01 -0.10058307921E-01  0.30219188149E-01  0.51100000000E-03 0.  1.
         11    1    4    4    0    0 -0.36126870582E-01 -0.70655092564E-01 -0.59105378443E-01  0.98949480873E-01  0.51100000000E-03 0. -1.
</event>
<event>
 8    1  0.1138737E+005  0.1043930E+01  0.7957747E-01            NaN
         13   -1    0    0    0    0  0.00000000000E+00  0.00000000000E+00  0.74505805969E-08  0.10566000000E+00  0.10566000000E+00 0.  1.
     999900   -1    0    0    0    0 -0.00000000000E+00 -0.00000000000E+00 -0.74505805969E-08  0.93827000000E+00  0.93827000000E+00 0.  1.
     999902    2    1    2    0    0  0.65795639999E-03  0.15484130127E-01 -0.17523227262E-01  0.10205365247E+01  0.10202683684E+01 0.  0.
     999903    2    3    3    0    0  0.32260035571E-01  0.34663471073E-01 -0.12321053854E+00  0.13344219698E+00  0.19588695871E-01 0.  0.
         14    1    1    2    0    0 -0.65795639999E-03 -0.15484130127E-01  0.17523227262E-01  0.23393475289E-01  0.00000000000E+00 0.  1.
     999901    1    3    3    0    0 -0.31602079171E-01 -0.19179340946E-01  0.10568731128E+00  0.88709432773E+00  0.88000000000E+00 0. -1.
        -11    1    4    4    0    0  0.11656280498E-01  0.80223225965E-02 -0.17589774208E-01  0.22580695573E-01  0.51100000000E-03 0. -1.
         11    1    4    4    0    0  0.20603755073E-01  0.26641148476E-01 -0.10562076433E+00  0.11086150141E+00  0.51100000000E-03 0.  1.
</event>
<event>
 8    1  0.1138737E+005  0.1043930E+01  0.7957747E-01            NaN
         13   -1    0    0    0    0  0.00000000000E+00  0.00000000000E+00  0.74505805969E-08  0.10566000000E+00  0.10566000000E+00 0. -1.
     999900   -1    0    0    0    0 -0.00000000000E+00 -0.00000000000E+00 -0.74505805969E-08  0.93827000000E+00  0.93827000000E+00 0.  1.
     999902    2    1    2    0    0 -0.65332633378E-03  0.24738200942E-01  0.27906023419E-02  0.10190263279E+01  0.10187219759E+01 0.  0.
     999903    2    3    3    0    0 -0.53141001196E-01 -0.10671457554E+00 -0.38302182266E-01  0.12676885085E+00  0.19781752668E-01 0.  0.
         14    1    1    2    0    0  0.65332633378E-03 -0.24738200942E-01 -0.27906023419E-02  0.24903672070E-01  0.00000000000E+00 0.  1.
     999901    1    3    3    0    0  0.52487674862E-01  0.13145277648E+00  0.41092784608E-01  0.89225747708E+00  0.88000000000E+00 0. -1.
        -11    1    4    4    0    0 -0.36547696286E-01 -0.73321528887E-01 -0.16502569918E-01  0.83572583047E-01  0.51100000000E-03 0.  1.
         11    1    4    4    0    0 -0.16593304910E-01 -0.33393046654E-01 -0.21799612349E-01  0.43196267804E-01  0.51100000000E-03 0. -1.
</event>
<event>
 7    1  0.1138737E+005  0.1043930E+01  0.7957747E-01            NaN
         13   -1    0    0    0    0  0.00000000000E+00  0.00000000000E+00  0.74505805969E-08  0.10566000000E+00  0.10566000000E+00 0. -1.
     999900   -1    0    0    0    0 -0.00000000000E+00 -0.00000000000E+00 -0.74505805969E-08  0.93827000000E+00  0.93827000000E+00 0.  1.
     999902    2    1    2    0    0 -0.20167538836E-01  0.11429347842E-01  0.72205950497E-02  0.10196504488E+01  0.10193613398E+01 0.  0.
         14    1    1    2    0    0  0.20167538836E-01 -0.11429347842E-01 -0.72205950497E-02  0.24279551225E-01  0.00000000000E+00 0.  1.
     999901    1    3    3    0    0  0.14756096237E-01 -0.19123089361E-01 -0.11054524051E+00  0.88724499724E+00  0.88000000000E+00 0.  1.
        -11    1    3    3    0    0 -0.74777896237E-02  0.27206964604E-01  0.33961051728E-01  0.44155978260E-01  0.51100000000E-03 0. -1.
         11    1    3    3    0    0 -0.27445845449E-01  0.33454725989E-02  0.83804783834E-01  0.88249473278E-01  0.51100000000E-03 0.  1.
</event>
<event>
 8    1  0.1138737E+005  0.1043930E+01  0.7957747E-01            NaN
         13   -1    0    0    0    0  0.00000000000E+00  0.00000000000E+00  0.74505805969E-08  0.10566000000E+00  0.10566000000E+00 0. -1.
     999900   -1    0    0    0    0 -0.00000000000E+00 -0.00000000000E+00 -0.74505805969E-08  0.93827000000E+00  0.93827000000E+00 0.  1.
     999902    2    1    2    0    0  0.52242501198E-02  0.20096100725E-01  0.12656842372E-01  0.10196124814E+01  0.10193224566E+01 0.  0.
     999903    2    3    3    0    0  0.78899624854E-01  0.46378012770E-02 -0.10024388081E+00  0.12921167658E+00  0.20004042670E-01 0.  0.
         14    1    1    2    0    0 -0.52242501198E-02 -0.20096100725E-01 -0.12656842372E-01  0.24317518633E-01  0.00000000000E+00 0. -1.
     999901    1    3    3    0    0 -0.73675374734E-01  0.15458299448E-01  0.11290072318E+00  0.89040080478E+00  0.88000000000E+00 0. -1.
        -11    1    4    4    0    0  0.37510874106E-01 -0.14832740311E-02 -0.32856185306E-01  0.49890438081E-01  0.51100000000E-03 0.  1.
         11    1    4    4    0    0  0.41388750748E-01  0.61210753081E-02 -0.67387695503E-01  0.79321238502E-01  0.51100000000E-03 0. -1.
</event>
<event>
 8    1  0.1345733E+005  0.1043930E+01  0.7957747E-01            NaN
         13   -1    0    0    0    0  0.00000000000E+00  0.00000000000E+00  0.74505805969E-08  0.10566000000E+00  0.10566000000E+00 0.  1.
     999900   -1    0    0    0    0 -0.00000000000E+00 -0.00000000000E+00 -0.74505805969E-08  0.93827000000E+00  0.93827000000E+00 0. -1.
     999902    2    1    2    0    0  0.14944676222E-01 -0.17794741560E-01  0.47516892392E-02  0.10202113423E+01  0.10199355902E+01 0.  0.
     999903    2    3    3    0    0 -0.26724503974E-02 -0.35682723712E-01 -0.12379244193E+00  0.13051817227E+00  0.20737064694E-01 0.  0.
         14    1    1    2    0    0 -0.14944676222E-01  0.17794741560E-01 -0.47516892392E-02  0.23718657745E-01  0.00000000000E+00 0.  1.
     999901    1    3    3    0    0  0.17617126620E-01  0.17887982151E-01  0.12854413117E+00  0.88969316998E+00  0.88000000000E+00 0.  1.
        -11    1    4    4    0    0 -0.10859960254E-01 -0.13327167845E-01 -0.43778188042E-01  0.47035550478E-01  0.51100000000E-03 0. -1.
         11    1    4    4    0    0  0.81875098564E-02 -0.22355555867E-01 -0.80014253886E-01  0.83482621795E-01  0.51100000000E-03 0.  1.
</event>
<event>
 8    1  0.1138737E+005  0.1043930E+01  0.7957747E-01            NaN
         13   -1    0    0    0    0  0.00000000000E+00  0.00000000000E+00  0.74505805969E-08  0.10566000000E+00  0.10566000000E+00 0.  1.
     999900   -1    0    0    0    0 -0.00000000000E+00 -0.00000000000E+00 -0.74505805969E-08  0.93827000000E+00  0.93827000000E+00 0. -1.
     999902    2    1    2    0    0  0.21109110150E-01 -0.11023199214E-01  0.27684853110E-02  0.10199556395E+01  0.10196738383E+01 0.  0.
     999903    2    3    3    0    0 -0.68397424093E-02 -0.51784418620E-04 -0.12839277795E+00  0.12972825992E+00  0.17260684689E-01 0.  0.
         14    1    1    2    0    0 -0.21109110150E-01  0.11023199214E-01 -0.27684853110E-02  0.23974360537E-01  0.00000000000E+00 0.  1.
     999901    1    3    3    0    0  0.27948852560E-01 -0.10971414795E-01  0.13116126326E+00  0.89022737954E+00  0.88000000000E+00 0.  1.
        -11    1    4    4    0    0 -0.10132904481E-01 -0.59295441711E-02 -0.86359077398E-01  0.87154957503E-01  0.51100000000E-03 0. -1.
         11    1    4    4    0    0  0.32931620713E-02  0.58777597525E-02 -0.42033700550E-01  0.42573302421E-01  0.51100000000E-03 0.  1.
</event>
<event>
 8    1  0.1138737E+005  0.1043930E+01  0.7957747E-01            NaN
         13   -1    0    0    0    0  0.00000000000E+00  0.00000000000E+00  0.74505805969E-08  0.10566000000E+00  0.10566000000E+00 0.  1.
     999900   -1    0    0    0    0 -0.00000000000E+00 -0.00000000000E+00 -0.74505805969E-08  0.93827000000E+00  0.93827000000E+00 0. -1.
     999902    2    1    2    0    0  0.49610776887E-02 -0.23814656715E-01  0.15360046479E-02  0.10195556390E+01  0.10192642402E+01 0.  0.
     999903    2    3    3    0    0 -0.32503430553E-01  0.82728243199E-01 -0.89454661958E-01  0.12768441489E+00  0.20018442471E-01 0.  0.
         14    1    1    2    0    0 -0.49610776887E-02  0.23814656715E-01 -0.15360046479E-02  0.24374361050E-01  0.00000000000E+00 0. -1.
     999901    1    3    3    0    0  0.37464508242E-01 -0.10654289991E+00  0.90990666606E-01  0.89187122406E+00  0.88000000000E+00 0. -1.
        -11    1    4    4    0    0 -0.30586705887E-01  0.55943943516E-01 -0.68801488525E-01  0.93803930288E-01  0.51100000000E-03 0.  1.
         11    1    4    4    0    0 -0.19167246658E-02  0.26784299683E-01 -0.20653173432E-01  0.33880484601E-01  0.51100000000E-03 0. -1.
</event>
<event>
 8    1  0.1138737E+005  0.1043930E+01  0.7957747E-01            NaN
         13   -1    0    0    0    0  0.00000000000E+00  0.00000000000E+00  0.74505805969E-08  0.10566000000E+00  0.10566000000E+00 0. -1.
     999900   -1    0    0    0    0 -0.00000000000E+00 -0.00000000000E+00 -0.74505805969E-08  0.93827000000E+00  0.93827000000E+00 0. -1.
     999902    2    1    2    0    0 -0.18207741721E-01 -0.10050157693E-01  0.86588463106E-02  0.10214021695E+01  0.10211537047E+01 0.  0.
     999903    2    3    3    0    0 -0.98117815319E-01 -0.73646127481E-01  0.51197800482E-01  0.13447509816E+00  0.20284956843E-01 0.  0.
         14    1    1    2    0    0  0.18207741721E-01  0.10050157693E-01 -0.86588463106E-02  0.22527830514E-01  0.00000000000E+00 0.  1.
     999901    1    3    3    0    0  0.79910073598E-01  0.63595969788E-01 -0.42538954171E-01  0.88692707133E+00  0.88000000000E+00 0. -1.
        -11    1    4    4    0    0 -0.28179162965E-01 -0.33198971212E-01  0.18505905661E-01  0.47317719517E-01  0.51100000000E-03 0.  1.
         11    1    4    4    0    0 -0.69938652354E-01 -0.40447156269E-01  0.32691894820E-01  0.87157378639E-01  0.51100000000E-03 0. -1.
</event>
<event>
 8    1  0.1138737E+005  0.1043930E+01  0.7957747E-01            NaN
         13   -1    0    0    0    0  0.00000000000E+00  0.00000000000E+00  0.74505805969E-08  0.10566000000E+00  0.10566000000E+00 0. -1.
     999900   -1    0    0    0    0 -0.00000000000E+00 -0.00000000000E+00 -0.74505805969E-08  0.93827000000E+00  0.93827000000E+00 0. -1.
     999902    2    1    2    0    0  0.34592340311E-02 -0.20391398799E-01 -0.13449957943E-01  0.10192586236E+01  0.10189599918E+01 0.  0.
     999903    2    3    3    0    0  0.75141353394E-01  0.84846863201E-01 -0.57991097145E-01  0.12897926794E+00  0.20675372432E-01 0.  0.
         14    1    1    2    0    0 -0.34592340311E-02  0.20391398799E-01  0.13449957943E-01  0.24671376405E-01  0.00000000000E+00 0. -1.
     999901    1    3    3    0    0 -0.71682119363E-01 -0.10523826200E+00  0.44541139202E-01  0.89027935566E+00  0.88000000000E+00 0.  1.
        -11    1    4    4    0    0  0.35680944874E-01  0.27213685457E-01 -0.16994631140E-01  0.47987426602E-01  0.51100000000E-03 0.  1.
         11    1    4    4    0    0  0.39460408520E-01  0.57633177744E-01 -0.40996466005E-01  0.80991841338E-01  0.51100000000E-03 0. -1.
</event>
<event>
 8    1  0.1138737E+005  0.1043930E+01  0.7957747E-01            NaN
         13   -1    0    0    0    0  0.00000000000E+00  0.00000000000E+00  0.74505805969E-08  0.10566000000E+00  0.10566000000E+00 0. -1.
     999900   -1    0    0    0    0 -0.00000000000E+00 -0.00000000000E+00 -0.74505805969E-08  0.93827000000E+00  0.93827000000E+00 0. -1.
     999902    2    1    2    0    0  0.18686818309E-01 -0.15096407986E-01  0.14847962388E-01  0.10156888828E+01  0.10152961863E+01 0.  0.
     999903    2    3    3    0    0 -0.59849168574E-01 -0.69399636436E-01 -0.83088488888E-01  0.12512260772E+00  0.18807909508E-01 0.  0.
         14    1    1    2    0    0 -0.18686818309E-01  0.15096407986E-01 -0.14847962388E-01  0.28241117182E-01  0.00000000000E+00 0.  1.
     999901    1    3    3    0    0  0.78535986883E-01  0.54303228450E-01  0.97936451277E-01  0.89056627510E+00  0.88000000000E+00 0. -1.
        -11    1    4    4    0    0 -0.40237808756E-01 -0.39088705049E-01 -0.60624786754E-01  0.82599237320E-01  0.51100000000E-03 0.  1.
         11    1    4    4    0    0 -0.19611359818E-01 -0.30310931387E-01 -0.22463702134E-01  0.42523370398E-01  0.51100000000E-03 0. -1.
</event>
<event>
 8    1  0.1138737E+005  0.1043930E+01  0.7957747E-01            NaN
         13   -1    0    0    0    0  0.00000000000E+00  0.00000000000E+00  0.74505805969E-08  0.10566000000E+00  0.10566000000E+00 0.  1.
     999900   -1    0    0    0    0 -0.00000000000E+00 -0.00000000000E+00 -0.74505805969E-08  0.93827000000E+00  0.93827000000E+00 0.  1.
     999902    2    1    2    0    0  0.20881171972E-01  0.30426866820E-02  0.11547060240E-01  0.10198755641E+01  0.10195918548E+01 0.  0.
     999903    2    3    3    0    0  0.73491917989E-01  0.22955306607E-01 -0.10401387947E+00  0.13053944442E+00  0.17136257287E-01 0.  0.
         14    1    1    2    0    0 -0.20881171972E-01 -0.30426866820E-02 -0.11547060240E-01  0.24054435877E-01  0.00000000000E+00 0. -1.
     999901    1    3    3    0    0 -0.52610746018E-01 -0.19912619925E-01  0.11556093971E+00  0.88933611971E+00  0.88000000000E+00 0. -1.
        -11    1    4    4    0    0  0.12469808898E-01  0.77891092276E-03 -0.87853003193E-02  0.15282194178E-01  0.51100000000E-03 0.  1.
         11    1    4    4    0    0  0.61022109091E-01  0.22176395684E-01 -0.95228579155E-01  0.11525725024E+00  0.51100000000E-03 0. -1.
</event>
<event>
 8    1  0.1138737E+005  0.1043930E+01  0.7957747E-01            NaN
         13   -1    0    0    0    0  0.00000000000E+00  0.00000000000E+00  0.74505805969E-08  0.10566000000E+00  0.10566000000E+00 0. -1.
     999900   -1    0    0    0    0 -0.00000000000E+00 -0.00000000000E+00 -0.74505805969E-08  0.93827000000E+00  0.93827000000E+00 0.  1.
     999902    2    1    2    0    0  0.38593190723E-03  0.17116676104E-01 -0.16078443746E-01  0.10204428568E+01  0.10201725237E+01 0.  0.
     999903    2    3    3    0    0 -0.81208690019E-01  0.72110131618E-01 -0.73584939980E-01  0.13309345569E+00  0.22458898863E-01 0.  0.
         14    1    1    2    0    0 -0.38593190723E-03 -0.17116676104E-01  0.16078443746E-01  0.23487143240E-01  0.00000000000E+00 0. -1.
     999901    1    3    3    0    0  0.81594621926E-01 -0.54993455514E-01  0.57506496233E-01  0.88734940107E+00  0.88000000000E+00 0. -1.
        -11    1    4    4    0    0 -0.43710681655E-01  0.52714250043E-01 -0.49368284750E-01  0.84420995662E-01  0.51100000000E-03 0. -1.
         11    1    4    4    0    0 -0.37498008364E-01  0.19395881575E-01 -0.24216655229E-01  0.48672460024E-01  0.51100000000E-03 0.  1.
</event>
<event>
 8    1  0.1138737E+005  0.1043930E+01  0.7957747E-01            NaN
         13   -1    0    0    0    0  0.00000000000E+00  0.00000000000E+00  0.74505805969E-08  0.10566000000E+00  0.10566000000E+00 0.  1.
     999900   -1    0    0    0    0 -0.00000000000E+00 -0.00000000000E+00 -0.74505805969E-08  0.93827000000E+00  0.93827000000E+00 0. -1.
     999902    2    1    2    0    0  0.47271327179E-02  0.22558036762E-01  0.11727625479E-02  0.10208521713E+01  0.10205912842E+01 0.  0.
     999903    2    3    3    0    0 -0.20625816222E-01  0.12074845046E+00  0.49730352909E-01  0.13369831262E+00  0.19912765058E-01 0.  0.
         14    1    1    2    0    0 -0.47271327179E-02 -0.22558036762E-01 -0.11727625479E-02  0.23077828717E-01  0.00000000000E+00 0. -1.
     999901    1    3    3    0    0  0.25352948940E-01 -0.98190413702E-01 -0.48557590361E-01  0.88715385867E+00  0.88000000000E+00 0.  1.
        -11    1    4    4    0    0 -0.51006780369E-02  0.57787781396E-02  0.57397693660E-02  0.96237865000E-02  0.51100000000E-03 0.  1.
         11    1    4    4    0    0 -0.15525138185E-01  0.11496967232E+00  0.43990583543E-01  0.12407452612E+00  0.51100000000E-03 0. -1.
</event>
<event>
 8    1  0.1138737E+005  0.1043930E+01  0.7957747E-01            NaN
         13   -1    0    0    0    0  0.00000000000E+00  0.00000000000E+00  0.74505805969E-08  0.10566000000E+00  0.10566000000E+00 0. -1.
     999900   -1    0    0    0    0 -0.00000000000E+00 -0.00000000000E+00 -0.74505805969E-08  0.93827000000E+00  0.93827000000E+00 0. -1.
     999902    2    1    2    0    0 -0.40862486592E-02  0.15391095166E-03 -0.27379304331E-01  0.10162470193E+01  0.10158699015E+01 0.  0.
     999903    2    3    3    0    0 -0.11207212256E+00  0.41502959292E-01 -0.42938526557E-01  0.12854617880E+00  0.19943588847E-01 0.  0.
         14    1    1    2    0    0  0.40862486592E-02 -0.15391095166E-03  0.27379304331E-01  0.27682980734E-01  0.00000000000E+00 0. -1.
     999901    1    3    3    0    0  0.10798587390E+00 -0.41349048341E-01  0.15559222226E-01  0.88770084046E+00  0.88000000000E+00 0. -1.
        -11    1    4    4    0    0 -0.46162125065E-01  0.19082932965E-01 -0.28265625380E-01  0.57396052305E-01  0.51100000000E-03 0. -1.
         11    1    4    4    0    0 -0.65909997499E-01  0.22420026327E-01 -0.14672901177E-01  0.71150126498E-01  0.51100000000E-03 0.  1.
</event>
<event>
 8    1  0.1138737E+005  0.1043930E+01  0.7957747E-01            NaN
         13   -1    0    0    0    0  0.00000000000E+00  0.00000000000E+00  0.74505805969E-08  0.10566000000E+00  0.10566000000E+00 0. -1.
     999900   -1    0    0    0    0 -0.00000000000E+00 -0.00000000000E+00 -0.74505805969E-08  0.93827000000E+00  0.93827000000E+00 0.  1.
     999902    2    1    2    0    0 -0.10699722264E-01  0.18737169253E-01 -0.99863615534E-02  0.10201541092E+01  0.10198770090E+01 0.  0.
     999903    2    3    3    0    0 -0.12535091730E+00  0.37726462559E-01 -0.70636540755E-03  0.13246519512E+00  0.20258097633E-01 0.  0.
         14    1    1    2    0    0  0.10699722264E-01 -0.18737169253E-01  0.99863615534E-02  0.23775890840E-01  0.00000000000E+00 0.  1.
     999901    1    3    3    0    0  0.11465119504E+00 -0.18989293306E-01 -0.92799961459E-02  0.88768891404E+00  0.88000000000E+00 0. -1.
        -11    1    4    4    0    0 -0.71419844192E-01  0.13698448344E-01  0.63552858785E-02  0.73000632950E-01  0.51100000000E-03 0.  1.
         11    1    4    4    0    0 -0.53931073111E-01  0.24028014215E-01 -0.70616512860E-02  0.59464562169E-01  0.51100000000E-03 0. -1.
</event>
<event>
 8    1  0.1138737E+005  0.1043930E+01  0.7957747E-01            NaN
         13   -1    0    0    0    0  0.00000000000E+00  0.00000000000E+00  0.74505805969E-08  0.10566000000E+00  0.10566000000E+00 0.  1.
     999900   -1    0    0    0    0 -0.00000000000E+00 -0.00000000000E+00 -0.74505805969E-08  0.93827000000E+00  0.93827000000E+00 0.  1.
     999902    2    1    2    0    0  0.18354665305E-01 -0.78381386685E-02 -0.80960724090E-02  0.10223922066E+01  0.10221653230E+01 0.  0.
     999903    2    3    3    0    0  0.69455827083E-01 -0.10186062226E+00 -0.51141119901E-01  0.13486506207E+00  0.19325437638E-01 0.  0.
         14    1    1    2    0    0 -0.18354665305E-01  0.78381386685E-02  0.80960724090E-02  0.21537793404E-01  0.00000000000E+00 0.  1.
     999901    1    3    3    0    0 -0.51101161778E-01  0.94022483590E-01  0.43045047492E-01  0.88752714453E+00  0.88000000000E+00 0.  1.
        -11    1    4    4    0    0  0.30628586717E-01 -0.29131811617E-01 -0.15153425149E-01  0.44907239808E-01  0.51100000000E-03 0.  1.
         11    1    4    4    0    0  0.38827240366E-01 -0.72728810642E-01 -0.35987694751E-01  0.89957822263E-01  0.51100000000E-03 0. -1.
</event>
<event>
 8    1  0.1138737E+005  0.1043930E+01  0.7957747E-01            NaN
         13   -1    0    0    0    0  0.00000000000E+00  0.00000000000E+00  0.74505805969E-08  0.10566000000E+00  0.10566000000E+00 0. -1.
     999900   -1    0    0    0    0 -0.00000000000E+00 -0.00000000000E+00 -0.74505805969E-08  0.93827000000E+00  0.93827000000E+00 0. -1.
     999902    2    1    2    0    0  0.19618334191E-01  0.71172724417E-02 -0.12850430067E-01  0.10194214677E+01  0.10191268128E+01 0.  0.
     999903    2    3    3    0    0  0.11704809017E+00  0.51785639922E-01  0.25755657773E-01  0.13207810098E+00  0.19981564926E-01 0.  0.
         14    1    1    2    0    0 -0.19618334191E-01 -0.71172724417E-02  0.12850430067E-01  0.24508532317E-01  0.00000000000E+00 0. -1.
     999901    1    3    3    0    0 -0.97429755983E-01 -0.44668367480E-01 -0.38606087840E-01  0.88734336670E+00  0.88000000000E+00 0.  1.
        -11    1    4    4    0    0  0.58883984363E-01  0.33489765118E-01  0.61225965495E-02  0.68019374385E-01  0.51100000000E-03 0. -1.
         11    1    4    4    0    0  0.58164105811E-01  0.18295874804E-01  0.19633061224E-01  0.64058726600E-01  0.51100000000E-03 0.  1.
</event>
<event>
 8    1  0.1138737E+005  0.1043930E+01  0.7957747E-01            NaN
         13   -1    0    0    0    0  0.00000000000E+00  0.00000000000E+00  0.74505805969E-08  0.10566000000E+00  0.10566000000E+00 0.  1.
     999900   -1    0    0    0    0 -0.00000000000E+00 -0.00000000000E+00 -0.74505805969E-08  0.93827000000E+00  0.93827000000E+00 0. -1.
     999902    2    1    2    0    0  0.12186610888E-01  0.19234795698E-01 -0.72225710520E-02  0.10200415848E+01  0.10197618243E+01 0.  0.
     999903    2    3    3    0    0 -0.70749287212E-01  0.19560301722E-01  0.10403237117E+00  0.12916778263E+00  0.21760394605E-01 0.  0.
         14    1    1    2    0    0 -0.12186610888E-01 -0.19234795698E-01  0.72225710520E-02  0.23888415248E-01  0.00000000000E+00 0. -1.
     999901    1    3    3    0    0  0.82935898099E-01 -0.32550602366E-03 -0.11125494222E+00  0.89087380213E+00  0.88000000000E+00 0. -1.
        -11    1    4    4    0    0 -0.49800170577E-01  0.40212179349E-02  0.75187617675E-01  0.90275501415E-01  0.51100000000E-03 0. -1.
         11    1    4    4    0    0 -0.20949116634E-01  0.15539083787E-01  0.28844753492E-01  0.38892281210E-01  0.51100000000E-03 0.  1.
</event>
<event>
 8    1  0.1138737E+005  0.1043930E+01  0.7957747E-01            NaN
         13   -1    0    0    0    0  0.00000000000E+00  0.00000000000E+00  0.74505805969E-08  0.10566000000E+00  0.10566000000E+00 0.  1.
     999900   -1    0    0    0    0 -0.00000000000E+00 -0.00000000000E+00 -0.74505805969E-08  0.93827000000E+00  0.93827000000E+00 0. -1.
     999902    2    1    2    0    0  0.11426773115E-01 -0.79099341050E-02 -0.18861186892E-01  0.10205017570E+01  0.10202327937E+01 0.  0.
     999903    2    3    3    0    0  0.92405421891E-01 -0.68558221319E-01  0.59629856369E-01  0.13123430552E+00  0.20681669903E-01 0.  0.
         14    1    1    2    0    0 -0.11426773115E-01  0.79099341050E-02  0.18861186892E-01  0.23428243048E-01  0.00000000000E+00 0.  1.
     999901    1    3    3    0    0 -0.80978648776E-01  0.60648287214E-01 -0.78491043261E-01  0.88926745143E+00  0.88000000000E+00 0. -1.
        -11    1    4    4    0    0  0.80449090027E-01 -0.66130502730E-01  0.49216509383E-01  0.11518604687E+00  0.51100000000E-03 0.  1.
         11    1    4    4    0    0  0.11956331863E-01 -0.24277185885E-02  0.10413346987E-01  0.16048258648E-01  0.51100000000E-03 0. -1.
</event>
<event>
 8    1  0.1138737E+005  0.1043930E+01  0.7957747E-01            NaN
         13   -1    0    0    0    0  0.00000000000E+00  0.00000000000E+00  0.74505805969E-08  0.10566000000E+00  0.10566000000E+00 0.  1.
     999900   -1    0    0    0    0 -0.00000000000E+00 -0.00000000000E+00 -0.74505805969E-08  0.93827000000E+00  0.93827000000E+00 0. -1.
     999902    2    1    2    0    0  0.36020017127E-02  0.94229206541E-02 -0.21673994619E-01  0.10200233504E+01  0.10197431576E+01 0.  0.
     999903    2    3    3    0    0  0.96457786757E-01 -0.49073074485E-01 -0.72620818328E-01  0.13174436437E+00  0.19248974600E-01 0.  0.
         14    1    1    2    0    0 -0.36020017127E-02 -0.94229206541E-02  0.21673994619E-01  0.23906649551E-01  0.00000000000E+00 0.  1.
     999901    1    3    3    0    0 -0.92855785045E-01  0.58495995139E-01  0.50946823709E-01  0.88827898608E+00  0.88000000000E+00 0. -1.
        -11    1    4    4    0    0  0.76637776409E-01 -0.45713616204E-01 -0.53794492748E-01  0.10419785051E+00  0.51100000000E-03 0.  1.
         11    1    4    4    0    0  0.19820010348E-01 -0.33594582813E-02 -0.18826325580E-01  0.27546513863E-01  0.51100000000E-03 0. -1.
</event>
<event>
 8    1  0.1138737E+005  0.1043930E+01  0.7957747E-01            NaN
         13   -1    0    0    0    0  0.00000000000E+00  0.00000000000E+00  0.74505805969E-08  0.10566000000E+00  0.10566000000E+00 0. -1.
     999900   -1    0    0    0    0 -0.00000000000E+00 -0.00000000000E+00 -0.74505805969E-08  0.93827000000E+00  0.93827000000E+00 0.  1.
     999902    2    1    2    0    0  0.22328006314E-01  0.35832420318E-02 -0.20715663578E-02  0.10212216122E+01  0.10209691035E+01 0.  0.
     999903    2    3    3    0    0  0.11185773053E+00  0.81588044645E-02  0.70521589815E-01  0.13369343033E+00  0.17942149079E-01 0.  0.
         14    1    1    2    0    0 -0.22328006314E-01 -0.35832420318E-02  0.20715663578E-02  0.22708387802E-01  0.00000000000E+00 0.  1.
     999901    1    3    3    0    0 -0.89529724215E-01 -0.45755624327E-02 -0.72593156173E-01  0.88752818187E+00  0.88000000000E+00 0.  1.
        -11    1    4    4    0    0  0.36507659013E-01 -0.56001809761E-02  0.24718174542E-01  0.44445702461E-01  0.51100000000E-03 0. -1.
         11    1    4    4    0    0  0.75350071515E-01  0.13758985441E-01  0.45803415273E-01  0.89247727867E-01  0.51100000000E-03 0.  1.
</event>
<event>
 8    1  0.1138737E+005  0.1043930E+01  0.7957747E-01            NaN
         13   -1    0    0    0    0  0.00000000000E+00  0.00000000000E+00  0.74505805969E-08  0.10566000000E+00  0.10566000000E+00 0.  1.
     999900   -1    0    0    0    0 -0.00000000000E+00 -0.00000000000E+00 -0.74505805969E-08  0.93827000000E+00  0.93827000000E+00 0.  1.
     999902    2    1    2    0    0  0.11395581039E-01 -0.20267689577E-01 -0.58315370066E-02  0.10199582389E+01  0.10196764995E+01 0.  0.
     999903    2    3    3    0    0  0.57444804053E-01 -0.76235231438E-01 -0.90382117933E-01  0.13293980759E+00  0.19807805934E-01 0.  0.
         14    1    1    2    0    0 -0.11395581039E-01  0.20267689577E-01  0.58315370066E-02  0.23971761134E-01  0.00000000000E+00 0. -1.
     999901    1    3    3    0    0 -0.46049223013E-01  0.55967541861E-01  0.84550580927E-01  0.88701843127E+00  0.88000000000E+00 0. -1.
        -11    1    4    4    0    0  0.86352022318E-02 -0.13015553859E-01 -0.26068963990E-01  0.30394462725E-01  0.51100000000E-03 0.  1.
         11    1    4    4    0    0  0.48809601821E-01 -0.63219677579E-01 -0.64313153943E-01  0.10254534487E+00  0.51100000000E-03 0. -1.
</event>
<event>
 8    1  0.1138737E+005  0.1043930E+01  0.7957747E-01            NaN
         13   -1    0    0    0    0  0.00000000000E+00  0.00000000000E+00  0.74505805969E-08  0.10566000000E+00  0.10566000000E+00 0. -1.
     999900   -1    0    0    0    0 -0.00000000000E+00 -0.00000000000E+00 -0.74505805969E-08  0.93827000000E+00  0.93827000000E+00 0. -1.
     999902    2    1    2    0    0  0.98465128334E-03  0.23518122896E-01 -0.62503182338E-02  0.10195755729E+01  0.10192846564E+01 0.  0.
     999903    2    3    3    0    0  0.11779910381E+00  0.52826260545E-01  0.13108667475E-01  0.13116161892E+00  0.19086394462E-01 0.  0.
         14    1    1    2    0    0 -0.98465128334E-03 -0.23518122896E-01  0.62503182338E-02  0.24354427128E-01  0.00000000000E+00 0.  1.
     999901    1    3    3    0    0 -0.11681445252E+00 -0.29308137648E-01 -0.19358985709E-01  0.88841395395E+00  0.88000000000E+00 0. -1.
        -11    1    4    4    0    0  0.43983054879E-01  0.14837092171E-01 -0.32919582547E-02  0.46537581917E-01  0.51100000000E-03 0. -1.
         11    1    4    4    0    0  0.73816048928E-01  0.37989168374E-01  0.16400625730E-01  0.84624037001E-01  0.51100000000E-03 0.  1.
</event>
<event>
 8    1  0.1138737E+005  0.1043930E+01  0.7957747E-01            NaN
         13   -1    0    0    0    0  0.00000000000E+00  0.00000000000E+00  0.74505805969E-08  0.10566000000E+00  0.10566000000E+00 0.  1.
     999900   -1    0    0    0    0 -0.00000000000E+00 -0.00000000000E+00 -0.74505805969E-08  0.93827000000E+00  0.93827000000E+00 0. -1.
     999902    2    1    2    0    0 -0.14260014990E-01  0.18208957944E-01 -0.32518738425E-02  0.10205742970E+01  0.10203070160E+01 0.  0.
     999903    2    3    3    0    0  0.11594944667E+00  0.38878276214E-01  0.38272936692E-01  0.12978474024E+00  0.20578303453E-01 0.  0.
         14    1    1    2    0    0  0.14260014990E-01 -0.18208957944E-01  0.32518738425E-02  0.23355702953E-01  0.00000000000E+00 0. -1.
     999901    1    3    3    0    0 -0.13020946166E+00 -0.20669318270E-01 -0.41524810534E-01  0.89078955680E+00  0.88000000000E+00 0.  1.
        -11    1    4    4    0    0  0.64832066558E-01  0.13111183449E-01  0.14039464105E-01  0.67620024098E-01  0.51100000000E-03 0.  1.
         11    1    4    4    0    0  0.51117380110E-01  0.25767092764E-01  0.24233472586E-01  0.62164716145E-01  0.51100000000E-03 0. -1.
</event>
<event>
 8    1  0.1138737E+005  0.1043930E+01  0.7957747E-01            NaN
         13   -1    0    0    0    0  0.00000000000E+00  0.00000000000E+00  0.74505805969E-08  0.10566000000E+00  0.10566000000E+00 0.  1.
     999900   -1    0    0    0    0 -0.00000000000E+00 -0.00000000000E+00 -0.74505805969E-08  0.93827000000E+00  0.93827000000E+00 0. -1.
     999902    2    1    2    0    0  0.10242326511E-01  0.14728821278E-01 -0.15641959448E-01  0.10201284386E+01  0.10198507327E+01 0.  0.
     999903    2    3    3    0    0  0.59683484224E-02 -0.11940465259E+00 -0.45860759076E-01  0.12944149499E+00  0.18941994613E-01 0.  0.
         14    1    1    2    0    0 -0.10242326511E-01 -0.14728821278E-01  0.15641959448E-01  0.23801561377E-01  0.00000000000E+00 0.  1.
     999901    1    3    3    0    0  0.42739780887E-02  0.13413347387E+00  0.30218799628E-01  0.89068694363E+00  0.88000000000E+00 0.  1.
        -11    1    4    4    0    0  0.75749746154E-02 -0.69501276846E-01 -0.35638493588E-01  0.78474015253E-01  0.51100000000E-03 0. -1.
         11    1    4    4    0    0 -0.16066261930E-02 -0.49903375744E-01 -0.10222265489E-01  0.50967479741E-01  0.51100000000E-03 0.  1.
</event>
<event>
 8    1  0.1138737E+005  0.1043930E+01  0.7957747E-01            NaN
         13   -1    0    0    0    0  0.00000000000E+00  0.00000000000E+00  0.74505805969E-08  0.10566000000E+00  0.10566000000E+00 0. -1.
     999900   -1    0    0    0    0 -0.00000000000E+00 -0.00000000000E+00 -0.74505805969E-08  0.93827000000E+00  0.93827000000E+00 0.  1.
     999902    2    1    2    0    0  0.16727961448E-01  0.97791384638E-02 -0.14838138740E-01  0.10195245374E+01  0.10192323856E+01 0.  0.
     999903    2    3    3    0    0 -0.22913196284E-01 -0.97915232869E-01  0.75881506796E-01  0.12744855797E+00  0.19306073197E-01 0.  0.
         14    1    1    2    0    0 -0.16727961448E-01 -0.97791384638E-02  0.14838138740E-01  0.24405462596E-01  0.00000000000E+00 0.  1.
     999901    1    3    3    0    0  0.39641157732E-01  0.10769437133E+00 -0.90719645536E-01  0.89207597944E+00  0.88000000000E+00 0.  1.
        -11    1    4    4    0    0 -0.13677328150E-01 -0.40311057486E-01  0.42861034091E-01  0.60410098703E-01  0.51100000000E-03 0. -1.
         11    1    4    4    0    0 -0.92358681343E-02 -0.57604175382E-01  0.33020472706E-01  0.67038459263E-01  0.51100000000E-03 0.  1.
</event>
<event>
 8    1  0.1138737E+005  0.1043930E+01  0.7957747E-01            NaN
         13   -1    0    0    0    0  0.00000000000E+00  0.00000000000E+00  0.74505805969E-08  0.10566000000E+00  0.10566000000E+00 0. -1.
     999900   -1    0    0    0    0 -0.00000000000E+00 -0.00000000000E+00 -0.74505805969E-08  0.93827000000E+00  0.93827000000E+00 0.  1.
     999902    2    1    2    0    0 -0.40670780036E-02  0.19499996053E-01  0.12698021112E-01  0.10203073264E+01  0.10200338276E+01 0.  0.
     999903    2    3    3    0    0  0.41422556149E-01  0.10683137114E+00 -0.61768512447E-01  0.13168966926E+00  0.19951186484E-01 0.  0.
         14    1    1    2    0    0  0.40670780036E-02 -0.19499996053E-01 -0.12698021112E-01  0.23622673636E-01  0.00000000000E+00 0.  1.
     999901    1    3    3    0    0 -0.45489634152E-01 -0.87331375092E-01  0.74466533559E-01  0.88861765710E+00  0.88000000000E+00 0. -1.
        -11    1    4    4    0    0  0.31296344830E-01  0.86317191504E-01 -0.40157547085E-01  0.10021481157E+00  0.51100000000E-03 0. -1.
         11    1    4    4    0    0  0.10126211318E-01  0.20514179641E-01 -0.21610965362E-01  0.31474857694E-01  0.51100000000E-03 0.  1.
</event>
<event>
 8    1  0.1138737E+005  0.1043930E+01  0.7957747E-01            NaN
         13   -1    0    0    0    0  0.00000000000E+00  0.00000000000E+00  0.74505805969E-08  0.10566000000E+00  0.10566000000E+00 0. -1.
     999900   -1    0    0    0    0 -0.00000000000E+00 -0.00000000000E+00 -0.74505805969E-08  0.93827000000E+00  0.93827000000E+00 0. -1.
     999902    2    1    2    0    0 -0.22681442078E-01  0.57825363613E-02  0.34041590322E-02  0.10202768006E+01  0.10200025863E+01 0.  0.
     999903    2    3    3    0    0 -0.82212274350E-01  0.77668784376E-01  0.67307036579E-01  0.13303662436E+00  0.19421846637E-01 0.  0.
         14    1    1    2    0    0  0.22681442078E-01 -0.57825363613E-02 -0.34041590322E-02  0.23653199365E-01  0.00000000000E+00 0. -1.
     999901    1    3    3    0    0  0.59530832273E-01 -0.71886248014E-01 -0.63902877546E-01  0.88724017628E+00  0.88000000000E+00 0. -1.
        -11    1    4    4    0    0 -0.25687375115E-01  0.21834745808E-01  0.10324900159E-01  0.35262757253E-01  0.51100000000E-03 0.  1.
         11    1    4    4    0    0 -0.56524899235E-01  0.55834038568E-01  0.56982136419E-01  0.97773867103E-01  0.51100000000E-03 0. -1.
</event>
<event>
 8    1  0.1138737E+005  0.1043930E+01  0.7957747E-01            NaN
         13   -1    0    0    0    0  0.00000000000E+00  0.00000000000E+00  0.74505805969E-08  0.10566000000E+00  0.10566000000E+00 0. -1.
     999900   -1    0    0    0    0 -0.00000000000E+00 -0.00000000000E+00 -0.74505805969E-08  0.93827000000E+00  0.93827000000E+00 0. -1.
     999902    2    1    2    0    0  0.17161247491E-01  0.11111321057E-05  0.15166229924E-01  0.10210275340E+01  0.10207706414E+01 0.  0.
     999903    2    3    3    0    0  0.32149129776E-01 -0.82178715434E-01  0.97500709711E-01  0.13324539463E+00  0.21471818258E-01 0.  0.
         14    1    1    2    0    0 -0.17161247491E-01 -0.11111321057E-05 -0.15166229924E-01  0.22902465954E-01  0.00000000000E+00 0.  1.
     999901    1    3    3    0    0 -0.14987882286E-01  0.82179826566E-01 -0.82334479786E-01  0.88778213942E+00  0.88000000000E+00 0. -1.
        -11    1    4    4    0    0 -0.17904864331E-03 -0.18464877487E-02  0.98382939189E-02  0.10024705664E-01  0.51100000000E-03 0.  1.
         11    1    4    4    0    0  0.32328178420E-01 -0.80332227685E-01  0.87662415792E-01  0.12322068896E+00  0.51100000000E-03 0. -1.
</event>
<event>
 8    1  0.1138737E+005  0.1043930E+01  0.7957747E-01            NaN
         13   -1    0    0    0    0  0.00000000000E+00  0.00000000000E+00  0.74505805969E-08  0.10566000000E+00  0.10566000000E+00 0.  1.
     999900   -1    0    0    0    0 -0.00000000000E+00 -0.00000000000E+00 -0.74505805969E-08  0.93827000000E+00  0.93827000000E+00 0. -1.
     999902    2    1    2    0    0  0.19898024398E-01 -0.93931642775E-02  0.81397460941E-02  0.10204690031E+01  0.10201992785E+01 0.  0.
     999903    2    3    3    0    0  0.99283352838E-01 -0.66130986583E-01 -0.54681026668E-01  0.13284990665E+00  0.20702451122E-01 0.  0.
         14    1    1    2    0    0 -0.19898024398E-01  0.93931642775E-02 -0.81397460941E-02  0.23460996922E-01  0.00000000000E+00 0.  1.
     999901    1    3    3    0    0 -0.79385328441E-01  0.56737822306E-01  0.62820772762E-01  0.88761909643E+00  0.88000000000E+00 0.  1.
        -11    1    4    4    0    0  0.41086444343E-01 -0.15874897747E-01 -0.16966874161E-01  0.47204281872E-01  0.51100000000E-03 0.  1.
         11    1    4    4    0    0  0.58196908495E-01 -0.50256088836E-01 -0.37714152507E-01  0.85645624780E-01  0.51100000000E-03 0. -1.
</event>
<event>
 8    1  0.1138737E+005  0.1043930E+01  0.7957747E-01            NaN
         13   -1    0    0    0    0  0.00000000000E+00  0.00000000000E+00  0.74505805969E-08  0.10566000000E+00  0.10566000000E+00 0. -1.
     999900   -1    0    0    0    0 -0.00000000000E+00 -0.00000000000E+00 -0.74505805969E-08  0.93827000000E+00  0.93827000000E+00 0.  1.
     999902    2    1    2    0    0 -0.62351732564E-02  0.22386273356E-01  0.43315852255E-02  0.10202913611E+01  0.10200174882E+01 0.  0.
     999903    2    3    3    0    0 -0.98759898049E-01 -0.60473009248E-01  0.55727886096E-01  0.13008460690E+00  0.20147092925E-01 0.  0.
         14    1    1    2    0    0  0.62351732564E-02 -0.22386273356E-01 -0.43315852255E-02  0.23638638939E-01  0.00000000000E+00 0.  1.
     999901    1    3    3    0    0  0.92524724792E-01  0.82859282605E-01 -0.51396300871E-01  0.89020675416E+00  0.88000000000E+00 0.  1.
        -11    1    4    4    0    0 -0.34236335469E-01 -0.15936026758E-01  0.90429173704E-02  0.38834509019E-01  0.51100000000E-03 0.  1.
         11    1    4    4    0    0 -0.64523562580E-01 -0.44536982490E-01  0.46684968726E-01  0.91250097881E-01  0.51100000000E-03 0. -1.
</event>
<event>
 8    1  0.1138737E+005  0.1043930E+01  0.7957747E-01            NaN
         13   -1    0    0    0    0  0.00000000000E+00  0.00000000000E+00  0.74505805969E-08  0.10566000000E+00  0.10566000000E+00 0. -1.
     999900   -1    0    0    0    0 -0.00000000000E+00 -0.00000000000E+00 -0.74505805969E-08  0.93827000000E+00  0.93827000000E+00 0. -1.
     999902    2    1    2    0    0  0.12851383204E-01 -0.36365639047E-02  0.19050121353E-01  0.10206643650E+01  0.10203991652E+01 0.  0.
     999903    2    3    3    0    0  0.11802495191E+00 -0.52013326468E-01 -0.20761563890E-01  0.13218996416E+00  0.20195759122E-01 0.  0.
         14    1    1    2    0    0 -0.12851383204E-01  0.36365639047E-02 -0.19050121353E-01  0.23265634977E-01  0.00000000000E+00 0.  1.
     999901    1    3    3    0    0 -0.10517356870E+00  0.48376762564E-01  0.39811685243E-01  0.88847440086E+00  0.88000000000E+00 0.  1.
        -11    1    4    4    0    0  0.39436269202E-01 -0.23201541298E-01  0.75258205404E-03  0.45764160081E-01  0.51100000000E-03 0.  1.
         11    1    4    4    0    0  0.78588682703E-01 -0.28811785171E-01 -0.21514145944E-01  0.86425804078E-01  0.51100000000E-03 0. -1.
</event>
<event>
 7    1  0.1138737E+005  0.1043930E+01  0.7957747E-01            NaN
         13   -1    0    0    0    0  0.00000000000E+00  0.00000000000E+00  0.74505805969E-08  0.10566000000E+00  0.10566000000E+00 0.  1.
     999900   -1    0    0    0    0 -0.00000000000E+00 -0.00000000000E+00 -0.74505805969E-08  0.93827000000E+00  0.93827000000E+00 0.  1.
     999903    2    1    2    0    0 -0.33428081935E-01  0.46783674305E-02  0.34156131733E-01  0.51943194860E-01  0.19802282030E-01 0.  0.
         14    1    1    2    0    0 -0.61899276479E-01  0.18869446766E-01 -0.82921753974E-01  0.10518361912E+00  0.00000000000E+00 0. -1.
     999901    1    1    2    0    0  0.95327358414E-01 -0.23547814197E-01  0.48765622241E-01  0.88680318602E+00  0.88000000000E+00 0. -1.
        -11    1    3    3    0    0 -0.65907457285E-02  0.94969914242E-02  0.73799888629E-02  0.13724289854E-01  0.51100000000E-03 0.  1.
         11    1    3    3    0    0 -0.26837336207E-01 -0.48186239937E-02  0.26776142870E-01  0.38218905006E-01  0.51100000000E-03 0. -1.
</event>
<event>
 8    1  0.1138737E+005  0.1043930E+01  0.7957747E-01            NaN
         13   -1    0    0    0    0  0.00000000000E+00  0.00000000000E+00  0.74505805969E-08  0.10566000000E+00  0.10566000000E+00 0. -1.
     999900   -1    0    0    0    0 -0.00000000000E+00 -0.00000000000E+00 -0.74505805969E-08  0.93827000000E+00  0.93827000000E+00 0. -1.
     999902    2    1    2    0    0  0.23060670978E-01  0.67369287944E-03 -0.53495276312E-02  0.10202473934E+01  0.10199724888E+01 0.  0.
     999903    2    3    3    0    0  0.27145313919E-01  0.61218660321E-01 -0.11183935332E+00  0.13175290253E+00  0.19136194353E-01 0.  0.
         14    1    1    2    0    0 -0.23060670978E-01 -0.67369287944E-03  0.53495276312E-02  0.23682606570E-01  0.00000000000E+00 0.  1.
     999901    1    3    3    0    0 -0.40846429403E-02 -0.60544967442E-01  0.10648982569E+00  0.88849449090E+00  0.88000000000E+00 0.  1.
        -11    1    4    4    0    0  0.11106128317E-01  0.16876659867E-01 -0.50413748552E-01  0.54313671378E-01  0.51100000000E-03 0. -1.
         11    1    4    4    0    0  0.16039185601E-01  0.44342000454E-01 -0.61425604766E-01  0.77439231149E-01  0.51100000000E-03 0.  1.
</event>
<event>
 8    1  0.1138737E+005  0.1043930E+01  0.7957747E-01            NaN
         13   -1    0    0    0    0  0.00000000000E+00  0.00000000000E+00  0.74505805969E-08  0.10566000000E+00  0.10566000000E+00 0.  1.
     999900   -1    0    0    0    0 -0.00000000000E+00 -0.00000000000E+00 -0.74505805969E-08  0.93827000000E+00  0.93827000000E+00 0.  1.
     999902    2    1    2    0    0  0.99697884448E-02 -0.74493434348E-02  0.20732203790E-01  0.10197491466E+01  0.10194624114E+01 0.  0.
     999903    2    3    3    0    0 -0.10131079069E-01 -0.29370769636E-01  0.12750302353E+00  0.13279672295E+00  0.20314225168E-01 0.  0.
         14    1    1    2    0    0 -0.99697884448E-02  0.74493434348E-02 -0.20732203790E-01  0.24180853443E-01  0.00000000000E+00 0. -1.
     999901    1    3    3    0    0  0.20100867514E-01  0.21921426201E-01 -0.10677081974E+00  0.88695242361E+00  0.88000000000E+00 0.  1.
        -11    1    4    4    0    0 -0.12427998492E-01 -0.63672686715E-02  0.50346438301E-01  0.52249614616E-01  0.51100000000E-03 0.  1.
         11    1    4    4    0    0  0.22969194229E-02 -0.23003500965E-01  0.77156585227E-01  0.80547108331E-01  0.51100000000E-03 0. -1.
</event>
<event>
 8    1  0.1138737E+005  0.1043930E+01  0.7957747E-01            NaN
         13   -1    0    0    0    0  0.00000000000E+00  0.00000000000E+00  0.74505805969E-08  0.10566000000E+00  0.10566000000E+00 0. -1.
     999900   -1    0    0    0    0 -0.00000000000E+00 -0.00000000000E+00 -0.74505805969E-08  0.93827000000E+00  0.93827000000E+00 0.  1.
     999902    2    1    2    0    0  0.16502220172E-01  0.14428950568E-01 -0.56858489706E-02  0.10212838797E+01  0.10210327694E+01 0.  0.
     999903    2    3    3    0    0 -0.10190734482E+00  0.56486740948E-01  0.55039063591E-01  0.13028601338E+00  0.19216865827E-01 0.  0.
         14    1    1    2    0    0 -0.16502220172E-01 -0.14428950568E-01  0.56858489706E-02  0.22646120277E-01  0.00000000000E+00 0.  1.
     999901    1    3    3    0    0  0.11840956499E+00 -0.42057790380E-01 -0.60724912561E-01  0.89099786634E+00  0.88000000000E+00 0. -1.
        -11    1    4    4    0    0 -0.95437735794E-01  0.53927236396E-01  0.46033159082E-01  0.11889415921E+00  0.51100000000E-03 0. -1.
         11    1    4    4    0    0 -0.64696090233E-02  0.25595045518E-02  0.90059045089E-02  0.11391854173E-01  0.51100000000E-03 0.  1.
</event>
<event>
 8    1  0.1138737E+005  0.1043930E+01  0.7957747E-01            NaN
         13   -1    0    0    0    0  0.00000000000E+00  0.00000000000E+00  0.74505805969E-08  0.10566000000E+00  0.10566000000E+00 0. -1.
     999900   -1    0    0    0    0 -0.00000000000E+00 -0.00000000000E+00 -0.74505805969E-08  0.93827000000E+00  0.93827000000E+00 0. -1.
     999902    2    1    2    0    0  0.57183260774E-02 -0.23612375643E-01  0.38890266800E-02  0.10193257714E+01  0.10190287828E+01 0.  0.
     999903    2    3    3    0    0 -0.42881003337E-01 -0.10864156842E+00 -0.57429255430E-01  0.13177194758E+00  0.20590190750E-01 0.  0.
         14    1    1    2    0    0 -0.57183260774E-02  0.23612375643E-01 -0.38890266800E-02  0.24604228603E-01  0.00000000000E+00 0.  1.
     999901    1    3    3    0    0  0.48599329414E-01  0.85029192776E-01  0.61318282110E-01  0.88755382381E+00  0.88000000000E+00 0.  1.
        -11    1    4    4    0    0 -0.21248229337E-02 -0.28317370772E-01 -0.16366609654E-01  0.32779801593E-01  0.51100000000E-03 0. -1.
         11    1    4    4    0    0 -0.40756180403E-01 -0.80324197647E-01 -0.41062645776E-01  0.98992145991E-01  0.51100000000E-03 0.  1.
</event>
<event>
 8    1  0.1138737E+005  0.1043930E+01  0.7957747E-01            NaN
         13   -1    0    0    0    0  0.00000000000E+00  0.00000000000E+00  0.74505805969E-08  0.10566000000E+00  0.10566000000E+00 0. -1.
     999900   -1    0    0    0    0 -0.00000000000E+00 -0.00000000000E+00 -0.74505805969E-08  0.93827000000E+00  0.93827000000E+00 0.  1.
     999902    2    1    2    0    0 -0.11250817664E-02 -0.11500484725E-01 -0.19053347201E-01  0.10216464411E+01  0.10214033942E+01 0.  0.
     999903    2    3    3    0    0 -0.70191555594E-01  0.96766763241E-01  0.46784648849E-01  0.12989164491E+00  0.19808460459E-01 0.  0.
         14    1    1    2    0    0  0.11250817664E-02  0.11500484725E-01  0.19053347201E-01  0.22283558904E-01  0.00000000000E+00 0. -1.
     999901    1    3    3    0    0  0.69066473827E-01 -0.10826724797E+00 -0.65837996050E-01  0.89175479618E+00  0.88000000000E+00 0.  1.
        -11    1    4    4    0    0 -0.10390172604E-01  0.20156025713E-01  0.16740071362E-02  0.22743888854E-01  0.51100000000E-03 0. -1.
         11    1    4    4    0    0 -0.59801382990E-01  0.76610737527E-01  0.45110641713E-01  0.10714775606E+00  0.51100000000E-03 0.  1.
</event>
<event>
 8    1  0.1138737E+005  0.1043930E+01  0.7957747E-01            NaN
         13   -1    0    0    0    0  0.00000000000E+00  0.00000000000E+00  0.74505805969E-08  0.10566000000E+00  0.10566000000E+00 0.  1.
     999900   -1    0    0    0    0 -0.00000000000E+00 -0.00000000000E+00 -0.74505805969E-08  0.93827000000E+00  0.93827000000E+00 0.  1.
     999902    2    1    2    0    0  0.30213095912E-02 -0.22222750282E-01 -0.48476964591E-02  0.10209848676E+01  0.10207270060E+01 0.  0.
     999903    2    3    3    0    0  0.80636715271E-01 -0.10389608802E+00 -0.12855108307E-01  0.13376516312E+00  0.20765069212E-01 0.  0.
         14    1    1    2    0    0 -0.30213095912E-02  0.22222750282E-01  0.48476964591E-02  0.22945132440E-01  0.00000000000E+00 0.  1.
     999901    1    3    3    0    0 -0.77615405679E-01  0.81673337742E-01  0.80074118478E-02  0.88721970444E+00  0.88000000000E+00 0.  1.
        -11    1    4    4    0    0  0.30384961210E-01 -0.54913993296E-01 -0.23423787782E-02  0.62805576080E-01  0.51100000000E-03 0.  1.
         11    1    4    4    0    0  0.50251754061E-01 -0.48982094728E-01 -0.10512729529E-01  0.70959587043E-01  0.51100000000E-03 0. -1.
</event>
<event>
 8    1  0.1138737E+005  0.1043930E+01  0.7957747E-01            NaN
         13   -1    0    0    0    0  0.00000000000E+00  0.00000000000E+00  0.74505805969E-08  0.10566000000E+00  0.10566000000E+00 0. -1.
     999900   -1    0    0    0    0 -0.00000000000E+00 -0.00000000000E+00 -0.74505805969E-08  0.93827000000E+00  0.93827000000E+00 0. -1.
     999902    2    1    2    0    0  0.11662933268E-01  0.13232808970E-01  0.16156663542E-01  0.10200099452E+01  0.10197294343E+01 0.  0.
     999903    2    3    3    0    0  0.55587246466E-01  0.10044573939E+00 -0.62877722193E-01  0.13108819685E+00  0.71567363593E-02 0.  0.
         14    1    1    2    0    0 -0.11662933268E-01 -0.13232808970E-01 -0.16156663542E-01  0.23920054818E-01  0.00000000000E+00 0.  1.
     999901    1    3    3    0    0 -0.43924313198E-01 -0.87212930418E-01  0.79034385735E-01  0.88892174833E+00  0.88000000000E+00 0. -1.
        -11    1    4    4    0    0  0.15700722775E-01  0.31763083873E-01 -0.22649744447E-01  0.42055656424E-01  0.51100000000E-03 0. -1.
         11    1    4    4    0    0  0.39886523692E-01  0.68682655516E-01 -0.40227977746E-01  0.89032540430E-01  0.51100000000E-03 0.  1.
</event>
<event>
 7    1  0.1138737E+005  0.1043930E+01  0.7957747E-01            NaN
         13   -1    0    0    0    0  0.00000000000E+00  0.00000000000E+00  0.74505805969E-08  0.10566000000E+00  0.10566000000E+00 0. -1.
     999900   -1    0    0    0    0 -0.00000000000E+00 -0.00000000000E+00 -0.74505805969E-08  0.93827000000E+00  0.93827000000E+00 0.  1.
     999903    2    1    2    0    0  0.31315989400E-01 -0.51539341202E-01 -0.63573639222E-01  0.89831570083E-01  0.19776463180E-01 0.  0.
         14    1    1    2    0    0 -0.37957358251E-02  0.15030605919E-01 -0.62090322825E-01  0.63996366406E-01  0.00000000000E+00 0.  1.
     999901    1    1    2    0    0 -0.27520253575E-01  0.36508735283E-01  0.12566396205E+00  0.89010206351E+00  0.88000000000E+00 0. -1.
        -11    1    3    3    0    0  0.21250114817E-01 -0.34014881890E-01 -0.28005944662E-01  0.48920073867E-01  0.51100000000E-03 0.  1.
         11    1    3    3    0    0  0.10065874584E-01 -0.17524459312E-01 -0.35567694560E-01  0.40911496216E-01  0.51100000000E-03 0. -1.
</event>
<event>
 8    1  0.1138737E+005  0.1043930E+01  0.7957747E-01            NaN
         13   -1    0    0    0    0  0.00000000000E+00  0.00000000000E+00  0.74505805969E-08  0.10566000000E+00  0.10566000000E+00 0.  1.
     999900   -1    0    0    0    0 -0.00000000000E+00 -0.00000000000E+00 -0.74505805969E-08  0.93827000000E+00  0.93827000000E+00 0. -1.
     999902    2    1    2    0    0 -0.12676515901E-01 -0.11013657135E-01  0.17174223373E-01  0.10199102446E+01  0.10196273626E+01 0.  0.
     999903    2    3    3    0    0 -0.12777730752E+00  0.18895871513E-01  0.19376670120E-01  0.13190820472E+00  0.18445185030E-01 0.  0.
         14    1    1    2    0    0  0.12676515901E-01  0.11013657135E-01 -0.17174223373E-01  0.24019755356E-01  0.00000000000E+00 0. -1.
     999901    1    3    3    0    0  0.11510079162E+00 -0.29909528649E-01 -0.22024467464E-02  0.88800203992E+00  0.88000000000E+00 0. -1.
        -11    1    4    4    0    0 -0.11060830137E+00  0.98907793207E-02  0.15445715411E-01  0.11211982471E+00  0.51100000000E-03 0. -1.
         11    1    4    4    0    0 -0.17169006152E-01  0.90050921928E-02  0.39309547084E-02  0.19788380014E-01  0.51100000000E-03 0.  1.
</event>
<event>
 8    1  0.1138737E+005  0.1043930E+01  0.7957747E-01            NaN
         13   -1    0    0    0    0  0.00000000000E+00  0.00000000000E+00  0.74505805969E-08  0.10566000000E+00  0.10566000000E+00 0.  1.
     999900   -1    0    0    0    0 -0.00000000000E+00 -0.00000000000E+00 -0.74505805969E-08  0.93827000000E+00  0.93827000000E+00 0.  1.
     999902    2    1    2    0    0 -0.13334643781E-01 -0.84339544554E-02 -0.16092006866E-01  0.10213934298E+01  0.10211447700E+01 0.  0.
     999903    2    3    3    0    0  0.27591692943E-01  0.66979838412E-01 -0.10898890578E+00  0.13235347622E+00  0.19780313712E-01 0.  0.
         14    1    1    2    0    0  0.13334643781E-01  0.84339544554E-02  0.16092006866E-01  0.22536570225E-01  0.00000000000E+00 0. -1.
     999901    1    3    3    0    0 -0.40926336725E-01 -0.75413792867E-01  0.92896898915E-01  0.88903995356E+00  0.88000000000E+00 0. -1.
        -11    1    4    4    0    0  0.21190654023E-01  0.42344258525E-01 -0.85381959321E-01  0.97634113641E-01  0.51100000000E-03 0. -1.
         11    1    4    4    0    0  0.64010389206E-02  0.24635579886E-01 -0.23606946460E-01  0.34719362577E-01  0.51100000000E-03 0.  1.
</event>
<event>
 8    1  0.1138737E+005  0.1043930E+01  0.7957747E-01            NaN
         13   -1    0    0    0    0  0.00000000000E+00  0.00000000000E+00  0.74505805969E-08  0.10566000000E+00  0.10566000000E+00 0. -1.
     999900   -1    0    0    0    0 -0.00000000000E+00 -0.00000000000E+00 -0.74505805969E-08  0.93827000000E+00  0.93827000000E+00 0.  1.
     999902    2    1    2    0    0 -0.36692713439E-02  0.15055587322E-01 -0.18068015307E-01  0.10201269027E+01  0.10198491605E+01 0.  0.
     999903    2    3    3    0    0  0.91538788549E-01  0.69858490576E-01  0.57230972456E-01  0.13010562748E+00  0.19812409696E-01 0.  0.
         14    1    1    2    0    0  0.36692713439E-02 -0.15055587322E-01  0.18068015307E-01  0.23803097255E-01  0.00000000000E+00 0. -1.
     999901    1    3    3    0    0 -0.95208059893E-01 -0.54802903255E-01 -0.75298987763E-01  0.89002127527E+00  0.88000000000E+00 0.  1.
        -11    1    4    4    0    0  0.61842284919E-01  0.35152893616E-01  0.33516574910E-01  0.78637243392E-01  0.51100000000E-03 0. -1.
         11    1    4    4    0    0  0.29696503630E-01  0.34705596960E-01  0.23714397546E-01  0.51468384084E-01  0.51100000000E-03 0.  1.
</event>
<event>
 8    1  0.1138737E+005  0.1043930E+01  0.7957747E-01            NaN
         13   -1    0    0    0    0  0.00000000000E+00  0.00000000000E+00  0.74505805969E-08  0.10566000000E+00  0.10566000000E+00 0.  1.
     999900   -1    0    0    0    0 -0.00000000000E+00 -0.00000000000E+00 -0.74505805969E-08  0.93827000000E+00  0.93827000000E+00 0. -1.
     999902    2    1    2    0    0 -0.12014588631E-01 -0.23553615401E-01  0.29447651962E-02  0.10173255872E+01  0.10169776574E+01 0.  0.
     999903    2    3    3    0    0 -0.56616397705E-01 -0.71277282632E-01 -0.90626661910E-01  0.12995729739E+00  0.19744360905E-01 0.  0.
         14    1    1    2    0    0  0.12014588631E-01  0.23553615401E-01 -0.29447651962E-02  0.26604412801E-01  0.00000000000E+00 0. -1.
     999901    1    3    3    0    0  0.44601809074E-01  0.47723667231E-01  0.93571427106E-01  0.88736828981E+00  0.88000000000E+00 0.  1.
        -11    1    4    4    0    0 -0.10271523015E-02 -0.98850645823E-02 -0.13609351250E-01  0.16859570163E-01  0.51100000000E-03 0.  1.
         11    1    4    4    0    0 -0.55589245404E-01 -0.61392218050E-01 -0.77017310660E-01  0.11309772723E+00  0.51100000000E-03 0. -1.
</event>
<event>
 8    1  0.1138737E+005  0.1043930E+01  0.7957747E-01            NaN
         13   -1    0    0    0    0  0.00000000000E+00  0.00000000000E+00  0.74505805969E-08  0.10566000000E+00  0.10566000000E+00 0. -1.
     999900   -1    0    0    0    0 -0.00000000000E+00 -0.00000000000E+00 -0.74505805969E-08  0.93827000000E+00  0.93827000000E+00 0.  1.
     999902    2    1    2    0    0  0.19700506306E-01 -0.12750245429E-01  0.12614719074E-02  0.10204295741E+01  0.10201589316E+01 0.  0.
     999903    2    3    3    0    0  0.39856066830E-01  0.99719052845E-01 -0.70654709208E-01  0.13013326004E+00  0.20252947264E-01 0.  0.
         14    1    1    2    0    0 -0.19700506306E-01  0.12750245429E-01 -0.12614719074E-02  0.23500425923E-01  0.00000000000E+00 0.  1.
     999901    1    3    3    0    0 -0.20155560525E-01 -0.11246929827E+00  0.71916181116E-01  0.89029631403E+00  0.88000000000E+00 0. -1.
        -11    1    4    4    0    0 -0.22843029069E-02  0.38253769462E-02 -0.37273357163E-02  0.58314407390E-02  0.51100000000E-03 0.  1.
         11    1    4    4    0    0  0.42140369737E-01  0.95893675899E-01 -0.66927373492E-01  0.12430181930E+00  0.51100000000E-03 0. -1.
</event>
<event>
 8    1  0.1138737E+005  0.1043930E+01  0.7957747E-01            NaN
         13   -1    0    0    0    0  0.00000000000E+00  0.00000000000E+00  0.74505805969E-08  0.10566000000E+00  0.10566000000E+00 0. -1.
     999900   -1    0    0    0    0 -0.00000000000E+00 -0.00000000000E+00 -0.74505805969E-08  0.93827000000E+00  0.93827000000E+00 0.  1.
     999902    2    1    2    0    0 -0.22927387843E-01  0.63541392962E-02 -0.67805739008E-02  0.10191910351E+01  0.10188907448E+01 0.  0.
     999903    2    3    3    0    0  0.23765422114E-01 -0.57725071652E-01 -0.11128529018E+00  0.12946770765E+00  0.21920135220E-01 0.  0.
         14    1    1    2    0    0  0.22927387843E-01 -0.63541392962E-02  0.67805739008E-02  0.24738964851E-01  0.00000000000E+00 0.  1.
     999901    1    3    3    0    0 -0.46692809957E-01  0.64079210949E-01  0.10450471628E+00  0.88972332750E+00  0.88000000000E+00 0. -1.
        -11    1    4    4    0    0  0.59944613414E-02 -0.36307389809E-01 -0.76701546054E-01  0.85073782152E-01  0.51100000000E-03 0. -1.
         11    1    4    4    0    0  0.17770960772E-01 -0.21417681843E-01 -0.34583744123E-01  0.44393925495E-01  0.51100000000E-03 0.  1.
</event>
<event>
 8    1  0.1138737E+005  0.1043930E+01  0.7957747E-01            NaN
         13   -1    0    0    0    0  0.00000000000E+00  0.00000000000E+00  0.74505805969E-08  0.10566000000E+00  0.10566000000E+00 0. -1.
     999900   -1    0    0    0    0 -0.00000000000E+00 -0.00000000000E+00 -0.74505805969E-08  0.93827000000E+00  0.93827000000E+00 0. -1.
     999902    2    1    2    0    0  0.53077237325E-02  0.21406960121E-01  0.35651840454E-02  0.10215885495E+01  0.10213442241E+01 0.  0.
     999903    2    3    3    0    0  0.10030488482E+00  0.85822883661E-01 -0.57983647093E-02  0.13408556480E+00  0.22774555434E-01 0.  0.
         14    1    1    2    0    0 -0.53077237325E-02 -0.21406960121E-01 -0.35651840454E-02  0.22341450492E-01  0.00000000000E+00 0.  1.
     999901    1    3    3    0    0 -0.94997161089E-01 -0.64415923540E-01  0.93635487547E-02  0.88750298471E+00  0.88000000000E+00 0.  1.
        -11    1    4    4    0    0  0.54844512407E-01  0.49470809392E-01  0.79082451478E-02  0.74283800289E-01  0.51100000000E-03 0. -1.
         11    1    4    4    0    0  0.45460372415E-01  0.36352074269E-01 -0.13706609857E-01  0.59801764510E-01  0.51100000000E-03 0.  1.
</event>
<event>
 8    1  0.1138737E+005  0.1043930E+01  0.7957747E-01            NaN
         13   -1    0    0    0    0  0.00000000000E+00  0.00000000000E+00  0.74505805969E-08  0.10566000000E+00  0.10566000000E+00 0.  1.
     999900   -1    0    0    0    0 -0.00000000000E+00 -0.00000000000E+00 -0.74505805969E-08  0.93827000000E+00  0.93827000000E+00 0. -1.
     999902    2    1    2    0    0  0.11822624550E-01  0.38549228007E-02 -0.20476612550E-01  0.10199732360E+01  0.10196918532E+01 0.  0.
     999903    2    3    3    0    0  0.11234778899E+00  0.51668073084E-01 -0.43710799040E-01  0.13265636278E+00  0.19886205449E-01 0.  0.
         14    1    1    2    0    0 -0.11822624550E-01 -0.38549228007E-02  0.20476612550E-01  0.23956764026E-01  0.00000000000E+00 0.  1.
     999901    1    3    3    0    0 -0.10052516444E+00 -0.47813150283E-01  0.23234186490E-01  0.88731687319E+00  0.88000000000E+00 0. -1.
        -11    1    4    4    0    0  0.89958437589E-01  0.37728546436E-01 -0.42040662371E-01  0.10622448928E+00  0.51100000000E-03 0.  1.
         11    1    4    4    0    0  0.22389351401E-01  0.13939526648E-01 -0.16701366692E-02  0.26431873502E-01  0.51100000000E-03 0. -1.
</event>
<event>
 8    1  0.1138737E+005  0.1043930E+01  0.7957747E-01            NaN
         13   -1    0    0    0    0  0.00000000000E+00  0.00000000000E+00  0.74505805969E-08  0.10566000000E+00  0.10566000000E+00 0. -1.
     999900   -1    0    0    0    0 -0.00000000000E+00 -0.00000000000E+00 -0.74505805969E-08  0.93827000000E+00  0.93827000000E+00 0. -1.
     999902    2    1    2    0    0 -0.16549075325E-02 -0.14913200545E-01 -0.19529566129E-01  0.10193018409E+01  0.10190042672E+01 0.  0.
     999903    2    3    3    0    0  0.36273256625E-01  0.43770264939E-01  0.11158858144E+00  0.12684777292E+00  0.20168310470E-01 0.  0.
         14    1    1    2    0    0  0.16549075325E-02  0.14913200545E-01  0.19529566129E-01  0.24628159141E-01  0.00000000000E+00 0. -1.
     999901    1    3    3    0    0 -0.37928164158E-01 -0.58683465485E-01 -0.13111814757E+00  0.89245406794E+00  0.88000000000E+00 0. -1.
        -11    1    4    4    0    0 -0.15776019787E-02  0.28188344827E-02  0.14670267559E-01  0.15030386792E-01  0.51100000000E-03 0. -1.
         11    1    4    4    0    0  0.37850858604E-01  0.40951430457E-01  0.96918313884E-01  0.11181738613E+00  0.51100000000E-03 0.  1.
</event>
<event>
 8    1  0.1138737E+005  0.1043930E+01  0.7957747E-01            NaN
         13   -1    0    0    0    0  0.00000000000E+00  0.00000000000E+00  0.74505805969E-08  0.10566000000E+00  0.10566000000E+00 0.  1.
     999900   -1    0    0    0    0 -0.00000000000E+00 -0.00000000000E+00 -0.74505805969E-08  0.93827000000E+00  0.93827000000E+00 0.  1.
     999902    2    1    2    0    0  0.18627693230E-01 -0.19067069411E-01 -0.20199224226E-01  0.10104852284E+01  0.10099316036E+01 0.  0.
     999903    2    3    3    0    0  0.43470465071E-01 -0.96794461477E-01 -0.64271318520E-01  0.12561175701E+00  0.19714512663E-01 0.  0.
         14    1    1    2    0    0 -0.18627693230E-01  0.19067069411E-01  0.20199224226E-01  0.33444771644E-01  0.00000000000E+00 0. -1.
     999901    1    3    3    0    0 -0.24842771842E-01  0.77727392066E-01  0.44072094294E-01  0.88487347134E+00  0.88000000000E+00 0. -1.
        -11    1    4    4    0    0  0.12286174850E-01 -0.29989475189E-01 -0.95302885086E-02  0.33784704152E-01  0.51100000000E-03 0. -1.
         11    1    4    4    0    0  0.31184290221E-01 -0.66804986288E-01 -0.54741030011E-01  0.91827052862E-01  0.51100000000E-03 0.  1.
</event>
<event>
 8    1  0.1138737E+005  0.1043930E+01  0.7957747E-01            NaN
         13   -1    0    0    0    0  0.00000000000E+00  0.00000000000E+00  0.74505805969E-08  0.10566000000E+00  0.10566000000E+00 0. -1.
     999900   -1    0    0    0    0 -0.00000000000E+00 -0.00000000000E+00 -0.74505805969E-08  0.93827000000E+00  0.93827000000E+00 0.  1.
     999902    2    1    2    0    0 -0.15522994907E-01 -0.65971857390E-02  0.16529236797E-01  0.10203142870E+01  0.10200409513E+01 0.  0.
     999903    2    3    3    0    0  0.12392460559E+00 -0.18882756454E-01  0.24068827133E-01  0.12921753921E+00  0.20099692483E-01 0.  0.
         14    1    1    2    0    0  0.15522994907E-01  0.65971857390E-02 -0.16529236797E-01  0.23615712982E-01  0.00000000000E+00 0.  1.
     999901    1    3    3    0    0 -0.13944760050E+00  0.12285570715E-01 -0.75395903359E-02  0.89109674781E+00  0.88000000000E+00 0.  1.
        -11    1    4    4    0    0  0.87336192024E-01 -0.22008752692E-01  0.20052736840E-01  0.92273338555E-01  0.51100000000E-03 0.  1.
         11    1    4    4    0    0  0.36588413565E-01  0.31259962387E-02  0.40160902931E-02  0.36944200654E-01  0.51100000000E-03 0. -1.
</event>
<event>
 8    1  0.1138737E+005  0.1043930E+01  0.7957747E-01            NaN
         13   -1    0    0    0    0  0.00000000000E+00  0.00000000000E+00  0.74505805969E-08  0.10566000000E+00  0.10566000000E+00 0. -1.
     999900   -1    0    0    0    0 -0.00000000000E+00 -0.00000000000E+00 -0.74505805969E-08  0.93827000000E+00  0.93827000000E+00 0.  1.
     999902    2    1    2    0    0  0.15382441613E-01 -0.17043405489E-01 -0.50140505157E-02  0.10204302578E+01  0.10201596312E+01 0.  0.
     999903    2    3    3    0    0 -0.12409713127E+00  0.17265452894E-01 -0.22565362521E-01  0.12861206021E+00  0.18266707163E-01 0.  0.
         14    1    1    2    0    0 -0.15382441613E-01  0.17043405489E-01  0.50140505157E-02  0.23499742194E-01  0.00000000000E+00 0. -1.
     999901    1    3    3    0    0  0.13947957289E+00 -0.34308858383E-01  0.17551312006E-01  0.89181819760E+00  0.88000000000E+00 0. -1.
        -11    1    4    4    0    0 -0.77598745092E-01  0.27197445841E-02 -0.99556578313E-02  0.78283705164E-01  0.51100000000E-03 0.  1.
         11    1    4    4    0    0 -0.46498386183E-01  0.14545708310E-01 -0.12609704690E-01  0.50328355042E-01  0.51100000000E-03 0. -1.
</event>
<event>
 8    1  0.1138737E+005  0.1043930E+01  0.7957747E-01            NaN
         13   -1    0    0    0    0  0.00000000000E+00  0.00000000000E+00  0.74505805969E-08  0.10566000000E+00  0.10566000000E+00 0.  1.
     999900   -1    0    0    0    0 -0.00000000000E+00 -0.00000000000E+00 -0.74505805969E-08  0.93827000000E+00  0.93827000000E+00 0.  1.
     999902    2    1    2    0    0  0.21652035478E-01 -0.82585277277E-02  0.19413371219E-01  0.10136993384E+01  0.10132484669E+01 0.  0.
     999903    2    3    3    0    0  0.54237381849E-01  0.96112641957E-01 -0.52892698864E-01  0.12398965896E+00  0.19911413873E-01 0.  0.
         14    1    1    2    0    0 -0.21652035478E-01  0.82585277277E-02 -0.19413371219E-01  0.30230661632E-01  0.00000000000E+00 0.  1.
     999901    1    3    3    0    0 -0.32585346371E-01 -0.10437116969E+00  0.72306070083E-01  0.88970967941E+00  0.88000000000E+00 0. -1.
        -11    1    4    4    0    0  0.13697386943E-01  0.11448857363E-01 -0.46837186766E-02  0.18463290217E-01  0.51100000000E-03 0.  1.
         11    1    4    4    0    0  0.40539994906E-01  0.84663784594E-01 -0.48208980187E-01  0.10552636874E+00  0.51100000000E-03 0. -1.
</event>
<event>
 8    1  0.1138737E+005  0.1043930E+01  0.7957747E-01            NaN
         13   -1    0    0    0    0  0.00000000000E+00  0.00000000000E+00  0.74505805969E-08  0.10566000000E+00  0.10566000000E+00 0.  1.
     999900   -1    0    0    0    0 -0.00000000000E+00 -0.00000000000E+00 -0.74505805969E-08  0.93827000000E+00  0.93827000000E+00 0. -1.
     999902    2    1    2    0    0  0.23220774715E-02 -0.23541627371E-01  0.72849671653E-02  0.10191778080E+01  0.10188771924E+01 0.  0.
     999903    2    3    3    0    0 -0.77002588446E-02  0.19733915120E-01  0.12676045423E+00  0.12999413078E+00  0.19533046017E-01 0.  0.
         14    1    1    2    0    0 -0.23220774715E-02  0.23541627371E-01 -0.72849671653E-02  0.24752192017E-01  0.00000000000E+00 0. -1.
     999901    1    3    3    0    0  0.10022336316E-01 -0.43275542491E-01 -0.11947548707E+00  0.88918367721E+00  0.88000000000E+00 0. -1.
        -11    1    4    4    0    0 -0.38913897729E-02  0.50630320338E-02  0.90005918481E-01  0.90233606214E-01  0.51100000000E-03 0.  1.
         11    1    4    4    0    0 -0.38088690717E-02  0.14670883086E-01  0.36754535751E-01  0.39760524561E-01  0.51100000000E-03 0. -1.
</event>
<event>
 8    1  0.1138737E+005  0.1043930E+01  0.7957747E-01            NaN
         13   -1    0    0    0    0  0.00000000000E+00  0.00000000000E+00  0.74505805969E-08  0.10566000000E+00  0.10566000000E+00 0.  1.
     999900   -1    0    0    0    0 -0.00000000000E+00 -0.00000000000E+00 -0.74505805969E-08  0.93827000000E+00  0.93827000000E+00 0. -1.
     999902    2    1    2    0    0 -0.10330937580E-02 -0.22201050070E-01 -0.59836000556E-02  0.10209135412E+01  0.10206540556E+01 0.  0.
     999903    2    3    3    0    0 -0.62870032451E-01  0.68723783636E-01  0.87085387423E-01  0.12920003966E+00  0.20813123910E-01 0.  0.
         14    1    1    2    0    0  0.10330937580E-02  0.22201050070E-01  0.59836000556E-02  0.23016458819E-01  0.00000000000E+00 0.  1.
     999901    1    3    3    0    0  0.61836938693E-01 -0.90924833707E-01 -0.93068987479E-01  0.89171350152E+00  0.88000000000E+00 0. -1.
        -11    1    4    4    0    0 -0.16505170838E-01  0.20922846669E-01  0.38237454998E-01  0.46610623927E-01  0.51100000000E-03 0.  1.
         11    1    4    4    0    0 -0.46364861613E-01  0.47800936968E-01  0.48847932425E-01  0.82589415730E-01  0.51100000000E-03 0. -1.
</event>
<event>
 8    1  0.1138737E+005  0.1043930E+01  0.7957747E-01            NaN
         13   -1    0    0    0    0  0.00000000000E+00  0.00000000000E+00  0.74505805969E-08  0.10566000000E+00  0.10566000000E+00 0. -1.
     999900   -1    0    0    0    0 -0.00000000000E+00 -0.00000000000E+00 -0.74505805969E-08  0.93827000000E+00  0.93827000000E+00 0.  1.
     999902    2    1    2    0    0 -0.38832425893E-02 -0.10770640346E-01 -0.21089567466E-01  0.10199329976E+01  0.10196506576E+01 0.  0.
     999903    2    3    3    0    0 -0.49732682058E-01  0.11215658363E+00  0.34543325401E-01  0.12846886922E+00  0.16080115402E-01 0.  0.
         14    1    1    2    0    0  0.38832425893E-02  0.10770640346E-01  0.21089567466E-01  0.23997002362E-01  0.00000000000E+00 0. -1.
     999901    1    3    3    0    0  0.45849439468E-01 -0.12292722398E+00 -0.55632892868E-01  0.89146412842E+00  0.88000000000E+00 0. -1.
        -11    1    4    4    0    0 -0.20860363099E-01  0.39590973942E-01  0.20031714398E-01  0.49031935195E-01  0.51100000000E-03 0. -1.
         11    1    4    4    0    0 -0.28872318959E-01  0.72565609689E-01  0.14511611003E-01  0.79436934020E-01  0.51100000000E-03 0.  1.
</event>
<event>
 8    1  0.1138737E+005  0.1043930E+01  0.7957747E-01            NaN
         13   -1    0    0    0    0  0.00000000000E+00  0.00000000000E+00  0.74505805969E-08  0.10566000000E+00  0.10566000000E+00 0.  1.
     999900   -1    0    0    0    0 -0.00000000000E+00 -0.00000000000E+00 -0.74505805969E-08  0.93827000000E+00  0.93827000000E+00 0.  1.
     999902    2    1    2    0    0  0.15427779817E-01  0.32999251864E-02  0.15270187373E-01  0.10219735768E+01  0.10217376900E+01 0.  0.
     999903    2    3    3    0    0  0.20878938157E-04  0.12118548800E+00 -0.44294135216E-01  0.13198352798E+00  0.27780538246E-01 0.  0.
         14    1    1    2    0    0 -0.15427779817E-01 -0.32999251864E-02 -0.15270187373E-01  0.21956423177E-01  0.00000000000E+00 0. -1.
     999901    1    3    3    0    0  0.15406900879E-01 -0.11788556282E+00  0.59564322588E-01  0.88999004884E+00  0.88000000000E+00 0.  1.
        -11    1    4    4    0    0  0.10978735895E-01  0.75969045190E-01 -0.19221632173E-01  0.79130024222E-01  0.51100000000E-03 0.  1.
         11    1    4    4    0    0 -0.10957856957E-01  0.45216442811E-01 -0.25072503043E-01  0.52853503757E-01  0.51100000000E-03 0. -1.
</event>
<event>
 8    1  0.1138737E+005  0.1043930E+01  0.7957747E-01            NaN
         13   -1    0    0    0    0  0.00000000000E+00  0.00000000000E+00  0.74505805969E-08  0.10566000000E+00  0.10566000000E+00 0.  1.
     999900   -1    0    0    0    0 -0.00000000000E+00 -0.00000000000E+00 -0.74505805969E-08  0.93827000000E+00  0.93827000000E+00 0.  1.
     999902    2    1    2    0    0  0.22636773812E-01  0.48771217784E-02  0.50346224264E-02  0.10202328004E+01  0.10199575529E+01 0.  0.
     999903    2    3    3    0    0  0.82385566256E-01 -0.78757100286E-01  0.64160976593E-01  0.13227980219E+00  0.19780110618E-01 0.  0.
         14    1    1    2    0    0 -0.22636773812E-01 -0.48771217784E-02 -0.50346224264E-02  0.23697199590E-01  0.00000000000E+00 0.  1.
     999901    1    3    3    0    0 -0.59748792444E-01  0.83634222064E-01 -0.59126354167E-01  0.88795299822E+00  0.88000000000E+00 0. -1.
        -11    1    4    4    0    0  0.28634390137E-01 -0.29283100576E-01  0.12573398715E-01  0.42846000445E-01  0.51100000000E-03 0.  1.
         11    1    4    4    0    0  0.53751176119E-01 -0.49473999710E-01  0.51587577878E-01  0.89433801741E-01  0.51100000000E-03 0. -1.
</event>
<event>
 8    1  0.1138737E+005  0.1043930E+01  0.7957747E-01            NaN
         13   -1    0    0    0    0  0.00000000000E+00  0.00000000000E+00  0.74505805969E-08  0.10566000000E+00  0.10566000000E+00 0.  1.
     999900   -1    0    0    0    0 -0.00000000000E+00 -0.00000000000E+00 -0.74505805969E-08  0.93827000000E+00  0.93827000000E+00 0. -1.
     999902    2    1    2    0    0  0.15706069850E-01  0.52308456105E-02  0.14954791437E-01  0.10216210744E+01  0.10213774677E+01 0.  0.
     999903    2    3    3    0    0 -0.12475030009E+00 -0.11083583348E-01 -0.25855323824E-01  0.12939934298E+00  0.19753708560E-01 0.  0.
         14    1    1    2    0    0 -0.15706069850E-01 -0.52308456105E-02 -0.14954791437E-01  0.22308925632E-01  0.00000000000E+00 0. -1.
     999901    1    3    3    0    0  0.14045636994E+00  0.16314428959E-01  0.40810115261E-01  0.89222173139E+00  0.88000000000E+00 0. -1.
        -11    1    4    4    0    0 -0.70268750239E-01 -0.13560404662E-01 -0.21298671857E-01  0.74669112615E-01  0.51100000000E-03 0. -1.
         11    1    4    4    0    0 -0.54481549851E-01  0.24768213139E-02 -0.45566519666E-02  0.54730230368E-01  0.51100000000E-03 0.  1.
</event>
<event>
 8    1  0.1138737E+005  0.1043930E+01  0.7957747E-01            NaN
         13   -1    0    0    0    0  0.00000000000E+00  0.00000000000E+00  0.74505805969E-08  0.10566000000E+00  0.10566000000E+00 0.  1.
     999900   -1    0    0    0    0 -0.00000000000E+00 -0.00000000000E+00 -0.74505805969E-08  0.93827000000E+00  0.93827000000E+00 0. -1.
     999902    2    1    2    0    0 -0.15728327297E-01  0.34359458657E-02 -0.16025641675E-01  0.10212142083E+01  0.10209615330E+01 0.  0.
     999903    2    3    3    0    0  0.17426006777E-01 -0.66548626311E-02 -0.12965568273E+00  0.13323176445E+00  0.24334216347E-01 0.  0.
         14    1    1    2    0    0  0.15728327297E-01 -0.34359458657E-02  0.16025641675E-01  0.22715791746E-01  0.00000000000E+00 0.  1.
     999901    1    3    3    0    0 -0.33154334074E-01  0.10090808497E-01  0.11363004105E+00  0.88798244381E+00  0.88000000000E+00 0.  1.
        -11    1    4    4    0    0 -0.49675789935E-02 -0.62428053072E-02 -0.26931529538E-01  0.28093021614E-01  0.51100000000E-03 0. -1.
         11    1    4    4    0    0  0.22393585771E-01 -0.41205732397E-03 -0.10272415319E+00  0.10513874283E+00  0.51100000000E-03 0.  1.
</event>
<event>
 8    1  0.1138737E+005  0.1043930E+01  0.7957747E-01            NaN
         13   -1    0    0    0    0  0.00000000000E+00  0.00000000000E+00  0.74505805969E-08  0.10566000000E+00  0.10566000000E+00 0. -1.
     999900   -1    0    0    0    0 -0.00000000000E+00 -0.00000000000E+00 -0.74505805969E-08  0.93827000000E+00  0.93827000000E+00 0. -1.
     999902    2    1    2    0    0  0.19589943623E-01 -0.52336981902E-02 -0.10861682010E-01  0.10209270953E+01  0.10206679187E+01 0.  0.
     999903    2    3    3    0    0  0.43217782183E-01 -0.84717227773E-01  0.88908815691E-01  0.13141596079E+00  0.17905079297E-01 0.  0.
         14    1    1    2    0    0 -0.19589943623E-01  0.52336981902E-02  0.10861682010E-01  0.23002904686E-01  0.00000000000E+00 0.  1.
     999901    1    3    3    0    0 -0.23627838560E-01  0.79483529583E-01 -0.99770497701E-01  0.88951113452E+00  0.88000000000E+00 0. -1.
        -11    1    4    4    0    0  0.52475417101E-02 -0.25952618149E-01  0.19734008173E-01  0.33026766150E-01  0.51100000000E-03 0. -1.
         11    1    4    4    0    0  0.37970240473E-01 -0.58764609625E-01  0.69174807518E-01  0.98389194641E-01  0.51100000000E-03 0.  1.
</event>
<event>
 8    1  0.1138737E+005  0.1043930E+01  0.7957747E-01            NaN
         13   -1    0    0    0    0  0.00000000000E+00  0.00000000000E+00  0.74505805969E-08  0.10566000000E+00  0.10566000000E+00 0. -1.
     999900   -1    0    0    0    0 -0.00000000000E+00 -0.00000000000E+00 -0.74505805969E-08  0.93827000000E+00  0.93827000000E+00 0.  1.
     999902    2    1    2    0    0 -0.15202518691E-01  0.17715358974E-01 -0.60100046525E-02  0.10198245924E+01  0.10195396651E+01 0.  0.
     999903    2    3    3    0    0  0.11811196219E+00 -0.33941560250E-01 -0.30061798614E-01  0.12796155535E+00  0.19182877450E-01 0.  0.
         14    1    1    2    0    0  0.15202518691E-01 -0.17715358974E-01  0.60100046525E-02  0.24105407569E-01  0.00000000000E+00 0. -1.
     999901    1    3    3    0    0 -0.13331448088E+00  0.51656919225E-01  0.24051793962E-01  0.89186303708E+00  0.88000000000E+00 0.  1.
        -11    1    4    4    0    0  0.81035047689E-01 -0.32123295226E-01 -0.23225833228E-01  0.90212446482E-01  0.51100000000E-03 0.  1.
         11    1    4    4    0    0  0.37076914502E-01 -0.18182650241E-02 -0.68359653860E-02  0.37749108869E-01  0.51100000000E-03 0. -1.
</event>
<event>
 8    1  0.1138737E+005  0.1043930E+01  0.7957747E-01            NaN
         13   -1    0    0    0    0  0.00000000000E+00  0.00000000000E+00  0.74505805969E-08  0.10566000000E+00  0.10566000000E+00 0.  1.
     999900   -1    0    0    0    0 -0.00000000000E+00 -0.00000000000E+00 -0.74505805969E-08  0.93827000000E+00  0.93827000000E+00 0.  1.
     999902    2    1    2    0    0 -0.14752067127E-01  0.82285718749E-02 -0.16854272233E-01  0.10200679093E+01  0.10197887724E+01 0.  0.
     999903    2    3    3    0    0  0.69733188566E-01  0.10731524875E+00  0.11693501692E-01  0.13002807685E+00  0.19780864136E-01 0.  0.
         14    1    1    2    0    0  0.14752067127E-01 -0.82285718749E-02  0.16854272233E-01  0.23862090690E-01  0.00000000000E+00 0.  1.
     999901    1    3    3    0    0 -0.84485255693E-01 -0.99086676876E-01 -0.28547773925E-01  0.89003983246E+00  0.88000000000E+00 0.  1.
        -11    1    4    4    0    0  0.15399200811E-01  0.36179110953E-01  0.96521356624E-02  0.40490595189E-01  0.51100000000E-03 0.  1.
         11    1    4    4    0    0  0.54333987756E-01  0.71136137799E-01  0.20413660298E-02  0.89537481663E-01  0.51100000000E-03 0. -1.
</event>
<event>
 8    1  0.1138737E+005  0.1043930E+01  0.7957747E-01            NaN
         13   -1    0    0    0    0  0.00000000000E+00  0.00000000000E+00  0.74505805969E-08  0.10566000000E+00  0.10566000000E+00 0. -1.
     999900   -1    0    0    0    0 -0.00000000000E+00 -0.00000000000E+00 -0.74505805969E-08  0.93827000000E+00  0.93827000000E+00 0. -1.
     999902    2    1    2    0    0 -0.22047348278E-01 -0.97849698525E-02  0.18468505482E-03  0.10198081155E+01  0.10195227939E+01 0.  0.
     999903    2    3    3    0    0 -0.93195325142E-01  0.89419217541E-01 -0.17048761468E-01  0.13121344018E+00  0.15656995954E-01 0.  0.
         14    1    1    2    0    0  0.22047348278E-01  0.97849698525E-02 -0.18468505482E-03  0.24121884455E-01  0.00000000000E+00 0.  1.
     999901    1    3    3    0    0  0.71147976864E-01 -0.99204187393E-01  0.17233446523E-01  0.88859467537E+00  0.88000000000E+00 0. -1.
        -11    1    4    4    0    0 -0.26357773830E-01  0.20297821966E-01 -0.10278282309E-01  0.34822952575E-01  0.51100000000E-03 0.  1.
         11    1    4    4    0    0 -0.66837551312E-01  0.69121395575E-01 -0.67704791588E-02  0.96390487604E-01  0.51100000000E-03 0. -1.
</event>
<event>
 8    1  0.1138737E+005  0.1043930E+01  0.7957747E-01            NaN
         13   -1    0    0    0    0  0.00000000000E+00  0.00000000000E+00  0.74505805969E-08  0.10566000000E+00  0.10566000000E+00 0. -1.
     999900   -1    0    0    0    0 -0.00000000000E+00 -0.00000000000E+00 -0.74505805969E-08  0.93827000000E+00  0.93827000000E+00 0. -1.
     999902    2    1    2    0    0 -0.20816114215E-01 -0.10400741960E-01  0.28414141914E-02  0.10204873108E+01  0.10202180119E+01 0.  0.
     999903    2    3    3    0    0  0.15469066556E-01  0.10336550833E+00  0.74092291410E-01  0.12956864918E+00  0.19355796811E-01 0.  0.
         14    1    1    2    0    0  0.20816114215E-01  0.10400741960E-01 -0.28414141914E-02  0.23442689243E-01  0.00000000000E+00 0.  1.
     999901    1    3    3    0    0 -0.36285180771E-01 -0.11376625029E+00 -0.71250877219E-01  0.89091866158E+00  0.88000000000E+00 0.  1.
        -11    1    4    4    0    0  0.12558636997E-01  0.26531527002E-01  0.18804189569E-01  0.34864020919E-01  0.51100000000E-03 0.  1.
         11    1    4    4    0    0  0.29104295587E-02  0.76833981329E-01  0.55288101841E-01  0.94704628257E-01  0.51100000000E-03 0. -1.
</event>
<event>
 8    1  0.1138737E+005  0.1043930E+01  0.7957747E-01            NaN
         13   -1    0    0    0    0  0.00000000000E+00  0.00000000000E+00  0.74505805969E-08  0.10566000000E+00  0.10566000000E+00 0.  1.
     999900   -1    0    0    0    0 -0.00000000000E+00 -0.00000000000E+00 -0.74505805969E-08  0.93827000000E+00  0.93827000000E+00 0. -1.
     999902    2    1    2    0    0  0.20033109752E-01  0.67357324302E-02  0.44546269799E-02  0.10223304797E+01  0.10221022798E+01 0.  0.
     999903    2    3    3    0    0 -0.38437805455E-01  0.68451512149E-01  0.10510977770E+00  0.13252199197E+00  0.18733354848E-01 0.  0.
         14    1    1    2    0    0 -0.20033109752E-01 -0.67357324302E-02 -0.44546269799E-02  0.21599520348E-01  0.00000000000E+00 0. -1.
     999901    1    3    3    0    0  0.58470915208E-01 -0.61715779719E-01 -0.10065515072E+00  0.88980848769E+00  0.88000000000E+00 0. -1.
        -11    1    4    4    0    0 -0.11731361665E-01  0.14585018626E-01  0.14078841596E-01  0.23426961316E-01  0.51100000000E-03 0.  1.
         11    1    4    4    0    0 -0.26706443790E-01  0.53866493523E-01  0.91030936100E-01  0.10909503065E+00  0.51100000000E-03 0. -1.
</event>
<event>
 8    1  0.1138737E+005  0.1043930E+01  0.7957747E-01            NaN
         13   -1    0    0    0    0  0.00000000000E+00  0.00000000000E+00  0.74505805969E-08  0.10566000000E+00  0.10566000000E+00 0.  1.
     999900   -1    0    0    0    0 -0.00000000000E+00 -0.00000000000E+00 -0.74505805969E-08  0.93827000000E+00  0.93827000000E+00 0.  1.
     999902    2    1    2    0    0  0.22852490811E-01 -0.73390699901E-02  0.37496027204E-02  0.10196368362E+01  0.10193473991E+01 0.  0.
     999903    2    3    3    0    0 -0.10969726355E+00 -0.10344797645E-01  0.61673293603E-01  0.12782204284E+00  0.19858877656E-01 0.  0.
         14    1    1    2    0    0 -0.22852490811E-01  0.73390699901E-02 -0.37496027204E-02  0.24293163753E-01  0.00000000000E+00 0.  1.
     999901    1    3    3    0    0  0.13254975436E+00  0.30057276554E-02 -0.57923690883E-01  0.89181479341E+00  0.88000000000E+00 0.  1.
        -11    1    4    4    0    0 -0.66284390770E-01 -0.11251579828E-01  0.27831389937E-01  0.72767203431E-01  0.51100000000E-03 0.  1.
         11    1    4    4    0    0 -0.43412872782E-01  0.90678218235E-03  0.33841903667E-01  0.55054839405E-01  0.51100000000E-03 0. -1.
</event>
<event>
 8    1  0.1138737E+005  0.1043930E+01  0.7957747E-01            NaN
         13   -1    0    0    0    0  0.00000000000E+00  0.00000000000E+00  0.74505805969E-08  0.10566000000E+00  0.10566000000E+00 0. -1.
     999900   -1    0    0    0    0 -0.00000000000E+00 -0.00000000000E+00 -0.74505805969E-08  0.93827000000E+00  0.93827000000E+00 0. -1.
     999902    2    1    2    0    0  0.18118398641E-01  0.12537606195E-02  0.16251982796E-01  0.10195583930E+01  0.10192670609E+01 0.  0.
     999903    2    3    3    0    0 -0.12036076103E+00 -0.17631753109E-01 -0.31398202837E-01  0.12725593276E+00  0.20264100417E-01 0.  0.
         14    1    1    2    0    0 -0.18118398641E-01 -0.12537606195E-02 -0.16251982796E-01  0.24371607042E-01  0.00000000000E+00 0.  1.
     999901    1    3    3    0    0  0.13847915967E+00  0.18885513729E-01  0.47650185633E-01  0.89230246020E+00  0.88000000000E+00 0. -1.
        -11    1    4    4    0    0 -0.67140675185E-01 -0.39997884163E-03 -0.13210388061E-01  0.68431028935E-01  0.51100000000E-03 0.  1.
         11    1    4    4    0    0 -0.53220085849E-01 -0.17231774268E-01 -0.18187814776E-01  0.58824903820E-01  0.51100000000E-03 0. -1.
</event>
<event>
 8    1  0.1138737E+005  0.1043930E+01  0.7957747E-01            NaN
         13   -1    0    0    0    0  0.00000000000E+00  0.00000000000E+00  0.74505805969E-08  0.10566000000E+00  0.10566000000E+00 0. -1.
     999900   -1    0    0    0    0 -0.00000000000E+00 -0.00000000000E+00 -0.74505805969E-08  0.93827000000E+00  0.93827000000E+00 0. -1.
     999902    2    1    2    0    0  0.14210689034E-01 -0.21597124669E-02  0.18934417092E-01  0.10201577432E+01  0.10198807288E+01 0.  0.
     999903    2    3    3    0    0  0.25394990855E-01  0.12638140334E+00  0.59194566422E-02  0.13065378246E+00  0.20450091269E-01 0.  0.
         14    1    1    2    0    0 -0.14210689034E-01  0.21597124669E-02 -0.18934417092E-01  0.23772256758E-01  0.00000000000E+00 0.  1.
     999901    1    3    3    0    0 -0.11184301821E-01 -0.12854111580E+00  0.13014960449E-01  0.88950396079E+00  0.88000000000E+00 0.  1.
        -11    1    4    4    0    0 -0.14475406566E-02  0.15958994179E-01  0.56955273390E-02  0.17014259367E-01  0.51100000000E-03 0. -1.
         11    1    4    4    0    0  0.26842531512E-01  0.11042240916E+00  0.22392930318E-03  0.11363952309E+00  0.51100000000E-03 0.  1.
</event>
<event>
 8    1  0.1138737E+005  0.1043930E+01  0.7957747E-01            NaN
         13   -1    0    0    0    0  0.00000000000E+00  0.00000000000E+00  0.74505805969E-08  0.10566000000E+00  0.10566000000E+00 0.  1.
     999900   -1    0    0    0    0 -0.00000000000E+00 -0.00000000000E+00 -0.74505805969E-08  0.93827000000E+00  0.93827000000E+00 0.  1.
     999902    2    1    2    0    0 -0.52101460636E-03  0.20631887718E-01 -0.11488848562E-01  0.10203092488E+01  0.10200357951E+01 0.  0.
     999903    2    3    3    0    0 -0.35845286575E-01  0.76676050088E-01  0.98051539834E-01  0.13104671779E+00  0.19875526492E-01 0.  0.
         14    1    1    2    0    0  0.52101460636E-03 -0.20631887718E-01  0.11488848562E-01  0.23620751223E-01  0.00000000000E+00 0.  1.
     999901    1    3    3    0    0  0.35324271968E-01 -0.56044162369E-01 -0.10954038840E+00  0.88926253099E+00  0.88000000000E+00 0.  1.
        -11    1    4    4    0    0 -0.17907077234E-01  0.58931772337E-01  0.72520340341E-01  0.95147664659E-01  0.51100000000E-03 0.  1.
         11    1    4    4    0    0 -0.17938209341E-01  0.17744277751E-01  0.25531199493E-01  0.35899053132E-01  0.51100000000E-03 0. -1.
</event>
<event>
 8    1  0.1138737E+005  0.1043930E+01  0.7957747E-01            NaN
         13   -1    0    0    0    0  0.00000000000E+00  0.00000000000E+00  0.74505805969E-08  0.10566000000E+00  0.10566000000E+00 0.  1.
     999900   -1    0    0    0    0 -0.00000000000E+00 -0.00000000000E+00 -0.74505805969E-08  0.93827000000E+00  0.93827000000E+00 0. -1.
     999902    2    1    2    0    0 -0.20178043394E-01  0.96399898919E-02 -0.11548399809E-01  0.10187615996E+01  0.10184506608E+01 0.  0.
     999903    2    3    3    0    0 -0.88410180982E-01 -0.33874691707E-02  0.93013547903E-01  0.12985297652E+00  0.19556082637E-01 0.  0.
         14    1    1    2    0    0  0.20178043394E-01 -0.96399898919E-02  0.11548399809E-01  0.25168400396E-01  0.00000000000E+00 0.  1.
     999901    1    3    3    0    0  0.68232137588E-01  0.13027459063E-01 -0.10456194771E+00  0.88890862309E+00  0.88000000000E+00 0. -1.
        -11    1    4    4    0    0 -0.41897885224E-01  0.75058820174E-02  0.48833494494E-01  0.64782268844E-01  0.51100000000E-03 0. -1.
         11    1    4    4    0    0 -0.46512295758E-01 -0.10893351188E-01  0.44180053408E-01  0.65070707672E-01  0.51100000000E-03 0.  1.
</event>
<event>
 8    1  0.1138737E+005  0.1043930E+01  0.7957747E-01            NaN
         13   -1    0    0    0    0  0.00000000000E+00  0.00000000000E+00  0.74505805969E-08  0.10566000000E+00  0.10566000000E+00 0.  1.
     999900   -1    0    0    0    0 -0.00000000000E+00 -0.00000000000E+00 -0.74505805969E-08  0.93827000000E+00  0.93827000000E+00 0. -1.
     999902    2    1    2    0    0  0.10054654323E-01  0.11907885544E-01 -0.17257616402E-01  0.10206766317E+01  0.10204117147E+01 0.  0.
     999903    2    3    3    0    0  0.11707563024E+00 -0.14300772862E-01 -0.55937674643E-01  0.13296241535E+00  0.25273803676E-01 0.  0.
         14    1    1    2    0    0 -0.10054654323E-01 -0.11907885544E-01  0.17257616402E-01  0.23253368263E-01  0.00000000000E+00 0.  1.
     999901    1    3    3    0    0 -0.10702097592E+00  0.26208658406E-01  0.38680058241E-01  0.88771421638E+00  0.88000000000E+00 0.  1.
        -11    1    4    4    0    0  0.45040687070E-01 -0.17629343960E-01 -0.25598703592E-01  0.54726702868E-01  0.51100000000E-03 0.  1.
         11    1    4    4    0    0  0.72034943169E-01  0.33285710981E-02 -0.30338971050E-01  0.78235712487E-01  0.51100000000E-03 0. -1.
</event>
<event>
 8    1  0.1138737E+005  0.1043930E+01  0.7957747E-01            NaN
         13   -1    0    0    0    0  0.00000000000E+00  0.00000000000E+00  0.74505805969E-08  0.10566000000E+00  0.10566000000E+00 0. -1.
     999900   -1    0    0    0    0 -0.00000000000E+00 -0.00000000000E+00 -0.74505805969E-08  0.93827000000E+00  0.93827000000E+00 0.  1.
     999902    2    1    2    0    0  0.21629613740E-01 -0.15428449660E-01 -0.61767672670E-02  0.10166530921E+01  0.10162871051E+01 0.  0.
     999903    2    3    3    0    0 -0.11546866853E+00  0.25153482189E-01  0.32889183969E-01  0.12425801104E+00  0.19815241805E-01 0.  0.
         14    1    1    2    0    0 -0.21629613740E-01  0.15428449660E-01  0.61767672670E-02  0.27276907877E-01  0.00000000000E+00 0. -1.
     999901    1    3    3    0    0  0.13709828227E+00 -0.40581931849E-01 -0.39065951236E-01  0.89239508108E+00  0.88000000000E+00 0. -1.
        -11    1    4    4    0    0 -0.75375855881E-01  0.90607038681E-02  0.27364303793E-01  0.80701191116E-01  0.51100000000E-03 0. -1.
         11    1    4    4    0    0 -0.40092812647E-01  0.16092778321E-01  0.55248801755E-02  0.43556819925E-01  0.51100000000E-03 0.  1.
</event>
<event>
 8    1  0.1138737E+005  0.1043930E+01  0.7957747E-01            NaN
         13   -1    0    0    0    0  0.00000000000E+00  0.00000000000E+00  0.74505805969E-08  0.10566000000E+00  0.10566000000E+00 0. -1.
     999900   -1    0    0    0    0 -0.00000000000E+00 -0.00000000000E+00 -0.74505805969E-08  0.93827000000E+00  0.93827000000E+00 0. -1.
     999902    2    1    2    0    0 -0.22251608169E-01 -0.13430481225E-02  0.78229538171E-02  0.10203050883E+01  0.10200315372E+01 0.  0.
     999903    2    3    3    0    0  0.38667145699E-01  0.10490057750E+00 -0.61177296093E-01  0.12914862787E+00  0.20914760516E-01 0.  0.
         14    1    1    2    0    0  0.22251608169E-01  0.13430481225E-02 -0.78229538171E-02  0.23624911657E-01  0.00000000000E+00 0.  1.
     999901    1    3    3    0    0 -0.60918753867E-01 -0.10624362562E+00  0.69000249910E-01  0.89115646047E+00  0.88000000000E+00 0.  1.
        -11    1    4    4    0    0  0.41077653857E-01  0.94361566378E-01 -0.55279672196E-01  0.11682286649E+00  0.51100000000E-03 0. -1.
         11    1    4    4    0    0 -0.24105081585E-02  0.10539011119E-01 -0.58976238968E-02  0.12325761380E-01  0.51100000000E-03 0.  1.
</event>
<event>
 8    1  0.1138737E+005  0.1043930E+01  0.7957747E-01            NaN
         13   -1    0    0    0    0  0.00000000000E+00  0.00000000000E+00  0.74505805969E-08  0.10566000000E+00  0.10566000000E+00 0.  1.
     999900   -1    0    0    0    0 -0.00000000000E+00 -0.00000000000E+00 -0.74505805969E-08  0.93827000000E+00  0.93827000000E+00 0.  1.
     999902    2    1    2    0    0 -0.15978100532E-01  0.11895344059E-01  0.12461622661E-01  0.10204333844E+01  0.10201628306E+01 0.  0.
     999903    2    3    3    0    0  0.71895143647E-01  0.63388211619E-01  0.87555354578E-01  0.13138204107E+00  0.20207017266E-01 0.  0.
         14    1    1    2    0    0  0.15978100532E-01 -0.11895344059E-01 -0.12461622661E-01  0.23496615634E-01  0.00000000000E+00 0. -1.
     999901    1    3    3    0    0 -0.87873244180E-01 -0.51492867560E-01 -0.75093731917E-01  0.88905134330E+00  0.88000000000E+00 0. -1.
        -11    1    4    4    0    0  0.39402447531E-01  0.27203986469E-01  0.54657404543E-01  0.72665691655E-01  0.51100000000E-03 0.  1.
         11    1    4    4    0    0  0.32492696117E-01  0.36184225149E-01  0.32897950035E-01  0.58716349411E-01  0.51100000000E-03 0. -1.
</event>
<event>
 8    1  0.1138737E+005  0.1043930E+01  0.7957747E-01            NaN
         13   -1    0    0    0    0  0.00000000000E+00  0.00000000000E+00  0.74505805969E-08  0.10566000000E+00  0.10566000000E+00 0.  1.
     999900   -1    0    0    0    0 -0.00000000000E+00 -0.00000000000E+00 -0.74505805969E-08  0.93827000000E+00  0.93827000000E+00 0.  1.
     999902    2    1    2    0    0 -0.14609905804E-01  0.28864031799E-03 -0.18021233481E-01  0.10207287604E+01  0.10204650434E+01 0.  0.
     999903    2    3    3    0    0  0.11305778078E+00  0.51489927254E-01 -0.32498664466E-01  0.12992563630E+00  0.19779620118E-01 0.  0.
         14    1    1    2    0    0  0.14609905804E-01 -0.28864031799E-03  0.18021233481E-01  0.23201239558E-01  0.00000000000E+00 0.  1.
     999901    1    3    3    0    0 -0.12766768658E+00 -0.51201286936E-01  0.14477430984E-01  0.89080312415E+00  0.88000000000E+00 0. -1.
        -11    1    4    4    0    0  0.83878178997E-01  0.33139093983E-01 -0.31179676506E-01  0.95426316129E-01  0.51100000000E-03 0. -1.
         11    1    4    4    0    0  0.29179601780E-01  0.18350833270E-01 -0.13189879599E-02  0.34499320167E-01  0.51100000000E-03 0.  1.
</event>
<event>
 8    1  0.1138737E+005  0.1043930E+01  0.7957747E-01            NaN
         13   -1    0    0    0    0  0.00000000000E+00  0.00000000000E+00  0.74505805969E-08  0.10566000000E+00  0.10566000000E+00 0. -1.
     999900   -1    0    0    0    0 -0.00000000000E+00 -0.00000000000E+00 -0.74505805969E-08  0.93827000000E+00  0.93827000000E+00 0.  1.
     999902    2    1    2    0    0  0.31613531165E-01 -0.46650319711E-03 -0.70340805236E-02  0.10115400129E+01  0.10110213086E+01 0.  0.
     999903    2    3    3    0    0 -0.13580301251E-01  0.11688447510E+00  0.25387772122E-01  0.12200928763E+00  0.19882710970E-01 0.  0.
         14    1    1    2    0    0 -0.31613531165E-01  0.46650319711E-03  0.70340805236E-02  0.32389987138E-01  0.00000000000E+00 0.  1.
     999901    1    3    3    0    0  0.45193832416E-01 -0.11735097829E+00 -0.32421852645E-01  0.88953072523E+00  0.88000000000E+00 0.  1.
        -11    1    4    4    0    0 -0.17809754647E-01  0.10654420546E+00  0.24656611452E-01  0.11080191644E+00  0.51100000000E-03 0. -1.
         11    1    4    4    0    0  0.42294533956E-02  0.10340269636E-01  0.73116066984E-03  0.11207371195E-01  0.51100000000E-03 0.  1.
</event>
<event>
 8    1  0.1138737E+005  0.1043930E+01  0.7957747E-01            NaN
         13   -1    0    0    0    0  0.00000000000E+00  0.00000000000E+00  0.74505805969E-08  0.10566000000E+00  0.10566000000E+00 0.  1.
     999900   -1    0    0    0    0 -0.00000000000E+00 -0.00000000000E+00 -0.74505805969E-08  0.93827000000E+00  0.93827000000E+00 0.  1.
     999902    2    1    2    0    0  0.30185874048E-01 -0.25751662315E-02 -0.97659209041E-02  0.10120993279E+01  0.10115986644E+01 0.  0.
     999903    2    3    3    0    0  0.10616213017E+00 -0.62961080904E-01  0.21872711510E-01  0.12619873913E+00  0.14601734771E-01 0.  0.
         14    1    1    2    0    0 -0.30185874048E-01  0.25751662315E-02  0.97659209041E-02  0.31830672068E-01  0.00000000000E+00 0.  1.
     999901    1    3    3    0    0 -0.75976256119E-01  0.60385914672E-01 -0.31638632414E-01  0.88590058881E+00  0.88000000000E+00 0. -1.
        -11    1    4    4    0    0  0.55759517805E-01 -0.27157992812E-01  0.56588367633E-02  0.62281329096E-01  0.51100000000E-03 0. -1.
         11    1    4    4    0    0  0.50402612362E-01 -0.35803088092E-01  0.16213874746E-01  0.63917410031E-01  0.51100000000E-03 0.  1.
</event>
<event>
 8    1  0.1138737E+005  0.1043930E+01  0.7957747E-01            NaN
         13   -1    0    0    0    0  0.00000000000E+00  0.00000000000E+00  0.74505805969E-08  0.10566000000E+00  0.10566000000E+00 0.  1.
     999900   -1    0    0    0    0 -0.00000000000E+00 -0.00000000000E+00 -0.74505805969E-08  0.93827000000E+00  0.93827000000E+00 0. -1.
     999902    2    1    2    0    0 -0.20221776684E-01 -0.87897923924E-02  0.92381657918E-02  0.10200234233E+01  0.10197432322E+01 0.  0.
     999903    2    3    3    0    0  0.83591446657E-01  0.90820497105E-01  0.27651838029E-01  0.12814985690E+00  0.20539450514E-01 0.  0.
         14    1    1    2    0    0  0.20221776684E-01  0.87897923924E-02 -0.92381657918E-02  0.23906576705E-01  0.00000000000E+00 0.  1.
     999901    1    3    3    0    0 -0.10381322334E+00 -0.99610289498E-01 -0.18413672237E-01  0.89187356640E+00  0.88000000000E+00 0.  1.
        -11    1    4    4    0    0  0.67619487344E-02  0.16708969641E-01  0.68096681219E-03  0.18045455216E-01  0.51100000000E-03 0. -1.
         11    1    4    4    0    0  0.76829497923E-01  0.74111527464E-01  0.26970871217E-01  0.11010440168E+00  0.51100000000E-03 0.  1.
</event>
<event>
 7    1  0.1138737E+005  0.1043930E+01  0.7957747E-01            NaN
         13   -1    0    0    0    0  0.00000000000E+00  0.00000000000E+00  0.74505805969E-08  0.10566000000E+00  0.10566000000E+00 0. -1.
     999900   -1    0    0    0    0 -0.00000000000E+00 -0.00000000000E+00 -0.74505805969E-08  0.93827000000E+00  0.93827000000E+00 0. -1.
     999903    2    1    2    0    0  0.10586817170E+00  0.44519968216E-01  0.21000348628E-01  0.11846742927E+00  0.20085313159E-01 0.  0.
         14    1    1    2    0    0 -0.18643328004E-01 -0.33134940893E-01 -0.15505547234E-01  0.41059955944E-01  0.00000000000E+00 0. -1.
     999901    1    1    2    0    0 -0.87224843698E-01 -0.11385027323E-01 -0.54948013939E-02  0.88440261479E+00  0.88000000000E+00 0.  1.
        -11    1    3    3    0    0  0.58683434564E-01  0.17704895943E-01  0.33284854809E-02  0.61388506816E-01  0.51100000000E-03 0. -1.
         11    1    3    3    0    0  0.47184737139E-01  0.26815072274E-01  0.17671863147E-01  0.57078922450E-01  0.51100000000E-03 0.  1.
</event>
<event>
 8    1  0.1138737E+005  0.1043930E+01  0.7957747E-01            NaN
         13   -1    0    0    0    0  0.00000000000E+00  0.00000000000E+00  0.74505805969E-08  0.10566000000E+00  0.10566000000E+00 0.  1.
     999900   -1    0    0    0    0 -0.00000000000E+00 -0.00000000000E+00 -0.74505805969E-08  0.93827000000E+00  0.93827000000E+00 0.  1.
     999902    2    1    2    0    0 -0.59252627540E-02 -0.67446477600E-02  0.21799857125E-01  0.10203538938E+01  0.10200814849E+01 0.  0.
     999903    2    3    3    0    0  0.54477066035E-01 -0.87844240332E-01  0.80670580797E-01  0.13260880239E+00  0.19823990092E-01 0.  0.
         14    1    1    2    0    0  0.59252627540E-02  0.67446477600E-02 -0.21799857125E-01  0.23576106183E-01  0.00000000000E+00 0. -1.
     999901    1    3    3    0    0 -0.60402328789E-01  0.81099592572E-01 -0.58870723672E-01  0.88774509142E+00  0.88000000000E+00 0.  1.
        -11    1    4    4    0    0  0.48702908539E-01 -0.74771005727E-01  0.60219701768E-01  0.10765384433E+00  0.51100000000E-03 0.  1.
         11    1    4    4    0    0  0.57741574961E-02 -0.13073234604E-01  0.20450879029E-01  0.24954958062E-01  0.51100000000E-03 0. -1.
</event>
<event>
 8    1  0.1138737E+005  0.1043930E+01  0.7957747E-01            NaN
         13   -1    0    0    0    0  0.00000000000E+00  0.00000000000E+00  0.74505805969E-08  0.10566000000E+00  0.10566000000E+00 0.  1.
     999900   -1    0    0    0    0 -0.00000000000E+00 -0.00000000000E+00 -0.74505805969E-08  0.93827000000E+00  0.93827000000E+00 0. -1.
     999902    2    1    2    0    0 -0.85371094174E-03 -0.50079127628E-02 -0.22987230748E-01  0.10203881056E+01  0.10201164960E+01 0.  0.
     999903    2    3    3    0    0 -0.15572989373E-01  0.92133108102E-01 -0.91398179704E-01  0.13228164072E+00  0.20341524338E-01 0.  0.
         14    1    1    2    0    0  0.85371094174E-03  0.50079127628E-02  0.22987230748E-01  0.23541894360E-01  0.00000000000E+00 0.  1.
     999901    1    3    3    0    0  0.14719278431E-01 -0.97141020864E-01  0.68410948956E-01  0.88810646492E+00  0.88000000000E+00 0.  1.
        -11    1    4    4    0    0  0.35387677010E-02  0.35094746694E-01 -0.37907530605E-01  0.51782295429E-01  0.51100000000E-03 0.  1.
         11    1    4    4    0    0 -0.19111757074E-01  0.57038361407E-01 -0.53490649099E-01  0.80499345292E-01  0.51100000000E-03 0. -1.
</event>
<event>
 8    1  0.1138737E+005  0.1043930E+01  0.7957747E-01            NaN
         13   -1    0    0    0    0  0.00000000000E+00  0.00000000000E+00  0.74505805969E-08  0.10566000000E+00  0.10566000000E+00 0. -1.
     999900   -1    0    0    0    0 -0.00000000000E+00 -0.00000000000E+00 -0.74505805969E-08  0.93827000000E+00  0.93827000000E+00 0.  1.
     999902    2    1    2    0    0  0.20892186630E-01  0.64236418506E-02 -0.84405458282E-02  0.10204994761E+01  0.10202304599E+01 0.  0.
     999903    2    3    3    0    0 -0.51689820706E-01  0.77678413754E-01 -0.90199954241E-01  0.13087596518E+00  0.16932601321E-01 0.  0.
         14    1    1    2    0    0 -0.20892186630E-01 -0.64236418506E-02  0.84405458282E-02  0.23430523910E-01  0.00000000000E+00 0. -1.
     999901    1    3    3    0    0  0.72582007337E-01 -0.71254771903E-01  0.81759408413E-01  0.88962351091E+00  0.88000000000E+00 0. -1.
        -11    1    4    4    0    0 -0.35695460516E-01  0.50946226472E-01 -0.48818231025E-01  0.79076954258E-01  0.51100000000E-03 0.  1.
         11    1    4    4    0    0 -0.15994360191E-01  0.26732187282E-01 -0.41381723215E-01  0.51799010918E-01  0.51100000000E-03 0. -1.
</event>
<event>
 8    1  0.1138737E+005  0.1043930E+01  0.7957747E-01            NaN
         13   -1    0    0    0    0  0.00000000000E+00  0.00000000000E+00  0.74505805969E-08  0.10566000000E+00  0.10566000000E+00 0.  1.
     999900   -1    0    0    0    0 -0.00000000000E+00 -0.00000000000E+00 -0.74505805969E-08  0.93827000000E+00  0.93827000000E+00 0. -1.
     999902    2    1    2    0    0 -0.10728095822E-01  0.20623958273E-01 -0.55277866036E-02  0.10200344749E+01  0.10197545459E+01 0.  0.
     999903    2    3    3    0    0 -0.13424351006E-01  0.52553095924E-01  0.11753325086E+00  0.13089401437E+00  0.19420011563E-01 0.  0.
         14    1    1    2    0    0  0.10728095822E-01 -0.20623958273E-01  0.55277866036E-02  0.23895525095E-01  0.00000000000E+00 0.  1.
     999901    1    3    3    0    0  0.26962551839E-02 -0.31929137651E-01 -0.12306103746E+00  0.88914046054E+00  0.88000000000E+00 0. -1.
        -11    1    4    4    0    0  0.23239592010E-02  0.86021369512E-02  0.34481150828E-01  0.35617529812E-01  0.51100000000E-03 0. -1.
         11    1    4    4    0    0 -0.15748310207E-01  0.43950958973E-01  0.83052100030E-01  0.95276484556E-01  0.51100000000E-03 0.  1.
</event>
<event>
 8    1  0.1138737E+005  0.1043930E+01  0.7957747E-01            NaN
         13   -1    0    0    0    0  0.00000000000E+00  0.00000000000E+00  0.74505805969E-08  0.10566000000E+00  0.10566000000E+00 0. -1.
     999900   -1    0    0    0    0 -0.00000000000E+00 -0.00000000000E+00 -0.74505805969E-08  0.93827000000E+00  0.93827000000E+00 0.  1.
     999902    2    1    2    0    0  0.11050124883E-02  0.14032856302E-01 -0.19636738878E-01  0.10197692131E+01  0.10194829594E+01 0.  0.
     999903    2    3    3    0    0  0.47059581018E-01 -0.11785714537E+00 -0.14042658069E-02  0.12856821560E+00  0.20564610880E-01 0.  0.
         14    1    1    2    0    0 -0.11050124883E-02 -0.14032856302E-01  0.19636738878E-01  0.24160786874E-01  0.00000000000E+00 0. -1.
     999901    1    3    3    0    0 -0.45954568530E-01  0.13189000167E+00 -0.18232473071E-01  0.89120099752E+00  0.88000000000E+00 0. -1.
        -11    1    4    4    0    0  0.29506108670E-01 -0.61250792717E-01  0.83610298356E-02  0.68501372236E-01  0.51100000000E-03 0.  1.
         11    1    4    4    0    0  0.17553472348E-01 -0.56606352654E-01 -0.97652956426E-02  0.60066843368E-01  0.51100000000E-03 0. -1.
</event>
<event>
 8    1  0.1138737E+005  0.1043930E+01  0.7957747E-01            NaN
         13   -1    0    0    0    0  0.00000000000E+00  0.00000000000E+00  0.74505805969E-08  0.10566000000E+00  0.10566000000E+00 0.  1.
     999900   -1    0    0    0    0 -0.00000000000E+00 -0.00000000000E+00 -0.74505805969E-08  0.93827000000E+00  0.93827000000E+00 0. -1.
     999902    2    1    2    0    0  0.19353253853E-01  0.11334341198E-01  0.77069573017E-02  0.10202147535E+01  0.10199390817E+01 0.  0.
     999903    2    3    3    0    0  0.44058169521E-01 -0.63057649511E-01  0.10408623792E+00  0.13148899892E+00  0.23195310958E-01 0.  0.
         14    1    1    2    0    0 -0.19353253853E-01 -0.11334341198E-01 -0.77069573017E-02  0.23715246487E-01  0.00000000000E+00 0.  1.
     999901    1    3    3    0    0 -0.24704915668E-01  0.74391990710E-01 -0.96379280616E-01  0.88872575459E+00  0.88000000000E+00 0. -1.
        -11    1    4    4    0    0  0.31063306768E-01 -0.34985447989E-01  0.78296551384E-01  0.91211411994E-01  0.51100000000E-03 0.  1.
         11    1    4    4    0    0  0.12994862753E-01 -0.28072201523E-01  0.25789686533E-01  0.40277586929E-01  0.51100000000E-03 0. -1.
</event>
<event>
 8    1  0.1138737E+005  0.1043930E+01  0.7957747E-01            NaN
         13   -1    0    0    0    0  0.00000000000E+00  0.00000000000E+00  0.74505805969E-08  0.10566000000E+00  0.10566000000E+00 0.  1.
     999900   -1    0    0    0    0 -0.00000000000E+00 -0.00000000000E+00 -0.74505805969E-08  0.93827000000E+00  0.93827000000E+00 0.  1.
     999902    2    1    2    0    0 -0.21297968999E-01  0.74863532664E-02 -0.63277901898E-02  0.10204845335E+01  0.10202151701E+01 0.  0.
     999903    2    3    3    0    0 -0.12863552458E+00  0.16360558908E-02 -0.30681866157E-01  0.13360872610E+00  0.18977352679E-01 0.  0.
         14    1    1    2    0    0  0.21297968999E-01 -0.74863532664E-02  0.63277901898E-02  0.23445466457E-01  0.00000000000E+00 0.  1.
     999901    1    3    3    0    0  0.10733755558E+00  0.58502973756E-02  0.24354075967E-01  0.88687580745E+00  0.88000000000E+00 0. -1.
        -11    1    4    4    0    0 -0.15602152436E-01  0.55256631877E-02 -0.57886602801E-03  0.16569741132E-01  0.51100000000E-03 0.  1.
         11    1    4    4    0    0 -0.11303337215E+00 -0.38896072969E-02 -0.30103000129E-01  0.11703898496E+00  0.51100000000E-03 0. -1.
</event>
<event>
 8    1  0.1138737E+005  0.1043930E+01  0.7957747E-01            NaN
         13   -1    0    0    0    0  0.00000000000E+00  0.00000000000E+00  0.74505805969E-08  0.10566000000E+00  0.10566000000E+00 0. -1.
     999900   -1    0    0    0    0 -0.00000000000E+00 -0.00000000000E+00 -0.74505805969E-08  0.93827000000E+00  0.93827000000E+00 0.  1.
     999902    2    1    2    0    0  0.29029853324E-02  0.18294097222E-01 -0.14099396770E-01  0.10206513766E+01  0.10203858772E+01 0.  0.
     999903    2    3    3    0    0  0.23711106318E-01  0.12716996453E+00  0.21252774590E-01  0.13299338595E+00  0.22386242162E-01 0.  0.
         14    1    1    2    0    0 -0.29029853324E-02 -0.18294097222E-01  0.14099396770E-01  0.23278623376E-01  0.00000000000E+00 0. -1.
     999901    1    3    3    0    0 -0.20808120986E-01 -0.10887586731E+00 -0.35352171360E-01  0.88765799067E+00  0.88000000000E+00 0.  1.
        -11    1    4    4    0    0  0.17176447565E-01  0.47489362846E-01  0.97505847924E-03  0.50512194512E-01  0.51100000000E-03 0.  1.
         11    1    4    4    0    0  0.65346587534E-02  0.79680601685E-01  0.20277716111E-01  0.82481191441E-01  0.51100000000E-03 0. -1.
</event>
<event>
 8    1  0.1138737E+005  0.1043930E+01  0.7957747E-01            NaN
         13   -1    0    0    0    0  0.00000000000E+00  0.00000000000E+00  0.74505805969E-08  0.10566000000E+00  0.10566000000E+00 0. -1.
     999900   -1    0    0    0    0 -0.00000000000E+00 -0.00000000000E+00 -0.74505805969E-08  0.93827000000E+00  0.93827000000E+00 0.  1.
     999902    2    1    2    0    0  0.18750780440E-01  0.13884806369E-01  0.16178289181E-02  0.10205420333E+01  0.10202740048E+01 0.  0.
     999903    2    3    3    0    0  0.35050182737E-01 -0.10657657545E+00  0.62581623685E-01  0.13009652724E+00  0.20532048903E-01 0.  0.
         14    1    1    2    0    0 -0.18750780440E-01 -0.13884806369E-01 -0.16178289181E-02  0.23387966680E-01  0.00000000000E+00 0.  1.
     999901    1    3    3    0    0 -0.16299402297E-01  0.12046138182E+00 -0.60963794766E-01  0.89044550608E+00  0.88000000000E+00 0.  1.
        -11    1    4    4    0    0  0.10867046052E-01 -0.52308863288E-01  0.20217871053E-01  0.57125592332E-01  0.51100000000E-03 0. -1.
         11    1    4    4    0    0  0.24183136685E-01 -0.54267712164E-01  0.42363752632E-01  0.72970934909E-01  0.51100000000E-03 0.  1.
</event>
<event>
 8    1  0.1138737E+005  0.1043930E+01  0.7957747E-01            NaN
         13   -1    0    0    0    0  0.00000000000E+00  0.00000000000E+00  0.74505805969E-08  0.10566000000E+00  0.10566000000E+00 0. -1.
     999900   -1    0    0    0    0 -0.00000000000E+00 -0.00000000000E+00 -0.74505805969E-08  0.93827000000E+00  0.93827000000E+00 0. -1.
     999902    2    1    2    0    0 -0.12096942663E-01 -0.20311654739E-01 -0.52197049896E-02  0.10197195754E+01  0.10194321300E+01 0.  0.
     999903    2    3    3    0    0 -0.76084220588E-01  0.10101885848E+00 -0.15727494536E-01  0.12903114567E+00  0.20200595980E-01 0.  0.
         14    1    1    2    0    0  0.12096942663E-01  0.20311654739E-01  0.52197049896E-02  0.24210424619E-01  0.00000000000E+00 0. -1.
     999901    1    3    3    0    0  0.63987277925E-01 -0.12133051322E+00  0.10507789547E-01  0.89068842971E+00  0.88000000000E+00 0. -1.
        -11    1    4    4    0    0 -0.43180966399E-01  0.57287660611E-01 -0.18968056214E-01  0.74205930996E-01  0.51100000000E-03 0. -1.
         11    1    4    4    0    0 -0.32903254189E-01  0.43731197871E-01  0.32405616779E-02  0.54825214677E-01  0.51100000000E-03 0.  1.
</event>
<event>
 8    1  0.1138737E+005  0.1043930E+01  0.7957747E-01            NaN
         13   -1    0    0    0    0  0.00000000000E+00  0.00000000000E+00  0.74505805969E-08  0.10566000000E+00  0.10566000000E+00 0.  1.
     999900   -1    0    0    0    0 -0.00000000000E+00 -0.00000000000E+00 -0.74505805969E-08  0.93827000000E+00  0.93827000000E+00 0. -1.
     999902    2    1    2    0    0  0.18964517247E-01  0.13265271566E-01  0.57357301092E-02  0.10200863647E+01  0.10198076645E+01 0.  0.
     999903    2    3    3    0    0  0.95929440228E-01 -0.53766601889E-01  0.70028217214E-01  0.13185756798E+00  0.19727190562E-01 0.  0.
         14    1    1    2    0    0 -0.18964517247E-01 -0.13265271566E-01 -0.57357301092E-02  0.23843635293E-01  0.00000000000E+00 0. -1.
     999901    1    3    3    0    0 -0.76964922982E-01  0.67031873454E-01 -0.64292487105E-01  0.88822879672E+00  0.88000000000E+00 0. -1.
        -11    1    4    4    0    0  0.55942245454E-01 -0.38927227780E-01  0.34742738583E-01  0.76499561400E-01  0.51100000000E-03 0. -1.
         11    1    4    4    0    0  0.39987194774E-01 -0.14839374109E-01  0.35285478631E-01  0.55358006585E-01  0.51100000000E-03 0.  1.
</event>
<event>
 8    1  0.1138737E+005  0.1043930E+01  0.7957747E-01            NaN
         13   -1    0    0    0    0  0.00000000000E+00  0.00000000000E+00  0.74505805969E-08  0.10566000000E+00  0.10566000000E+00 0.  1.
     999900   -1    0    0    0    0 -0.00000000000E+00 -0.00000000000E+00 -0.74505805969E-08  0.93827000000E+00  0.93827000000E+00 0.  1.
     999902    2    1    2    0    0 -0.27244817895E-01  0.11755518307E-01 -0.71083782275E-02  0.10134176852E+01  0.10129582436E+01 0.  0.
     999903    2    3    3    0    0 -0.36000179633E-01  0.84059931071E-01  0.83820197842E-01  0.12573948315E+00  0.20554977781E-01 0.  0.
         14    1    1    2    0    0  0.27244817895E-01 -0.11755518307E-01  0.71083782275E-02  0.30512314790E-01  0.00000000000E+00 0.  1.
     999901    1    3    3    0    0  0.87553617381E-02 -0.72304412764E-01 -0.90928576070E-01  0.88767820206E+00  0.88000000000E+00 0.  1.
        -11    1    4    4    0    0 -0.16765506385E-01  0.30934751048E-01  0.19900610003E-01  0.40426926994E-01  0.51100000000E-03 0.  1.
         11    1    4    4    0    0 -0.19234673248E-01  0.53125180023E-01  0.63919587840E-01  0.85312556157E-01  0.51100000000E-03 0. -1.
</event>
<event>
 8    1  0.1138737E+005  0.1043930E+01  0.7957747E-01            NaN
         13   -1    0    0    0    0  0.00000000000E+00  0.00000000000E+00  0.74505805969E-08  0.10566000000E+00  0.10566000000E+00 0.  1.
     999900   -1    0    0    0    0 -0.00000000000E+00 -0.00000000000E+00 -0.74505805969E-08  0.93827000000E+00  0.93827000000E+00 0. -1.
     999902    2    1    2    0    0 -0.59435245763E-02 -0.17814456157E-01  0.17129283339E-02  0.10250722574E+01  0.10248987845E+01 0.  0.
     999903    2    3    3    0    0  0.16353509306E-01 -0.13542980207E-01 -0.13251058427E+00  0.13460532676E+00  0.10425424133E-01 0.  0.
         14    1    1    2    0    0  0.59435245763E-02  0.17814456157E-01 -0.17129283339E-02  0.18857742602E-01  0.00000000000E+00 0.  1.
     999901    1    3    3    0    0 -0.22297033882E-01 -0.42714759501E-02  0.13422351261E+00  0.89046693064E+00  0.88000000000E+00 0.  1.
        -11    1    4    4    0    0  0.15609849244E-01 -0.15182885098E-01 -0.12235276054E+00  0.12427649225E+00  0.51100000000E-03 0.  1.
         11    1    4    4    0    0  0.74366006189E-03  0.16399048911E-02 -0.10157823731E-01  0.10328834508E-01  0.51100000000E-03 0. -1.
</event>
<event>
 8    1  0.1138737E+005  0.1043930E+01  0.7957747E-01            NaN
         13   -1    0    0    0    0  0.00000000000E+00  0.00000000000E+00  0.74505805969E-08  0.10566000000E+00  0.10566000000E+00 0. -1.
     999900   -1    0    0    0    0 -0.00000000000E+00 -0.00000000000E+00 -0.74505805969E-08  0.93827000000E+00  0.93827000000E+00 0. -1.
     999902    2    1    2    0    0  0.13089732794E-01  0.20196069323E-01  0.32156021530E-03  0.10198608139E+01  0.10195767523E+01 0.  0.
     999903    2    3    3    0    0  0.72450644721E-01 -0.67104080152E-01  0.81940593086E-01  0.12980087178E+00  0.19543592955E-01 0.  0.
         14    1    1    2    0    0 -0.13089732794E-01 -0.20196069323E-01 -0.32156021530E-03  0.24069186145E-01  0.00000000000E+00 0. -1.
     999901    1    3    3    0    0 -0.59360911926E-01  0.87300149475E-01 -0.81619032871E-01  0.89005994208E+00  0.88000000000E+00 0. -1.
        -11    1    4    4    0    0  0.52011965958E-01 -0.35339788123E-01  0.52003039773E-01  0.81600995668E-01  0.51100000000E-03 0. -1.
         11    1    4    4    0    0  0.20438678763E-01 -0.31764292029E-01  0.29937553313E-01  0.48199876110E-01  0.51100000000E-03 0.  1.
</event>
<event>
 8    1  0.1138737E+005  0.1043930E+01  0.7957747E-01            NaN
         13   -1    0    0    0    0  0.00000000000E+00  0.00000000000E+00  0.74505805969E-08  0.10566000000E+00  0.10566000000E+00 0. -1.
     999900   -1    0    0    0    0 -0.00000000000E+00 -0.00000000000E+00 -0.74505805969E-08  0.93827000000E+00  0.93827000000E+00 0.  1.
     999902    2    1    2    0    0 -0.67099936060E-02 -0.21901554818E-01  0.69053909945E-02  0.10200053988E+01  0.10197247800E+01 0.  0.
     999903    2    3    3    0    0 -0.10889078399E+00 -0.47775511187E-01 -0.53309350273E-01  0.13167202073E+00  0.18866157753E-01 0.  0.
         14    1    1    2    0    0  0.67099936060E-02  0.21901554818E-01 -0.69053909945E-02  0.23924601196E-01  0.00000000000E+00 0.  1.
     999901    1    3    3    0    0  0.10218079038E+00  0.25873956369E-01  0.60214741268E-01  0.88833337808E+00  0.88000000000E+00 0. -1.
        -11    1    4    4    0    0 -0.14988523564E-01 -0.80123115257E-02 -0.15204166310E-01  0.22809663934E-01  0.51100000000E-03 0. -1.
         11    1    4    4    0    0 -0.93902260425E-01 -0.39763199661E-01 -0.38105183964E-01  0.10886235679E+00  0.51100000000E-03 0.  1.
</event>
<event>
 8    1  0.1138737E+005  0.1043930E+01  0.7957747E-01            NaN
         13   -1    0    0    0    0  0.00000000000E+00  0.00000000000E+00  0.74505805969E-08  0.10566000000E+00  0.10566000000E+00 0.  1.
     999900   -1    0    0    0    0 -0.00000000000E+00 -0.00000000000E+00 -0.74505805969E-08  0.93827000000E+00  0.93827000000E+00 0.  1.
     999902    2    1    2    0    0  0.21408442248E-01 -0.32862155080E-02 -0.17642590189E-02  0.10221990722E+01  0.10219680573E+01 0.  0.
     999903    2    3    3    0    0  0.51987819670E-01  0.43921031893E-01  0.11176076659E+00  0.13312564783E+00  0.24498545351E-01 0.  0.
         14    1    1    2    0    0 -0.21408442248E-01  0.32862155080E-02  0.17642590189E-02  0.21730927770E-01  0.00000000000E+00 0. -1.
     999901    1    3    3    0    0 -0.30579377422E-01 -0.47207247401E-01 -0.11352502561E+00  0.88907342440E+00  0.88000000000E+00 0.  1.
        -11    1    4    4    0    0  0.35046932198E-01  0.37618904325E-01  0.64254697494E-01  0.82294572665E-01  0.51100000000E-03 0.  1.
         11    1    4    4    0    0  0.16940887472E-01  0.63021275679E-02  0.47506069101E-01  0.50831075167E-01  0.51100000000E-03 0. -1.
</event>
<event>
 8    1  0.1138737E+005  0.1043930E+01  0.7957747E-01            NaN
         13   -1    0    0    0    0  0.00000000000E+00  0.00000000000E+00  0.74505805969E-08  0.10566000000E+00  0.10566000000E+00 0.  1.
     999900   -1    0    0    0    0 -0.00000000000E+00 -0.00000000000E+00 -0.74505805969E-08  0.93827000000E+00  0.93827000000E+00 0.  1.
     999902    2    1    2    0    0  0.83380141251E-02 -0.21287726067E-01  0.63416640188E-02  0.10202043501E+01  0.10199284335E+01 0.  0.
     999903    2    3    3    0    0  0.56703337805E-01  0.11348826484E+00  0.74719384342E-02  0.12862987212E+00  0.19873584575E-01 0.  0.
         14    1    1    2    0    0 -0.83380141251E-02  0.21287726067E-01 -0.63416640188E-02  0.23725649900E-01  0.00000000000E+00 0. -1.
     999901    1    3    3    0    0 -0.48365323680E-01 -0.13477599091E+00 -0.11302744154E-02  0.89157447798E+00  0.88000000000E+00 0. -1.
        -11    1    4    4    0    0  0.32644504793E-01  0.57444887486E-01  0.13165339145E-01  0.67373333502E-01  0.51100000000E-03 0.  1.
         11    1    4    4    0    0  0.24058833012E-01  0.56043377354E-01 -0.56934007104E-02  0.61256538621E-01  0.51100000000E-03 0. -1.
</event>
<event>
 8    1  0.1138737E+005  0.1043930E+01  0.7957747E-01            NaN
         13   -1    0    0    0    0  0.00000000000E+00  0.00000000000E+00  0.74505805969E-08  0.10566000000E+00  0.10566000000E+00 0. -1.
     999900   -1    0    0    0    0 -0.00000000000E+00 -0.00000000000E+00 -0.74505805969E-08  0.93827000000E+00  0.93827000000E+00 0.  1.
     999902    2    1    2    0    0 -0.29840726780E-02  0.43442679615E-02  0.23850256011E-01  0.10195043564E+01  0.10192117153E+01 0.  0.
     999903    2    3    3    0    0 -0.90416515754E-01 -0.65081046418E-01  0.66675048810E-01  0.13141749732E+00  0.20354546026E-01 0.  0.
         14    1    1    2    0    0  0.29840726780E-02 -0.43442679615E-02 -0.23850256011E-01  0.24425643608E-01  0.00000000000E+00 0.  1.
     999901    1    3    3    0    0  0.87432443076E-01  0.69425314380E-01 -0.42824792799E-01  0.88808685907E+00  0.88000000000E+00 0.  1.
        -11    1    4    4    0    0 -0.46166063148E-01 -0.21164716211E-01  0.27022895622E-01  0.57530414632E-01  0.51100000000E-03 0. -1.
         11    1    4    4    0    0 -0.44250452606E-01 -0.43916330207E-01  0.39652153188E-01  0.73887082688E-01  0.51100000000E-03 0.  1.
</event>
<event>
 8    1  0.1138737E+005  0.1043930E+01  0.7957747E-01            NaN
         13   -1    0    0    0    0  0.00000000000E+00  0.00000000000E+00  0.74505805969E-08  0.10566000000E+00  0.10566000000E+00 0.  1.
     999900   -1    0    0    0    0 -0.00000000000E+00 -0.00000000000E+00 -0.74505805969E-08  0.93827000000E+00  0.93827000000E+00 0. -1.
     999902    2    1    2    0    0 -0.78184606194E-02 -0.11883424617E-01 -0.18012072766E-01  0.10209783362E+01  0.10207203261E+01 0.  0.
     999903    2    3    3    0    0 -0.11638142897E+00 -0.60520977662E-01  0.44979935028E-02  0.13268883790E+00  0.19459445283E-01 0.  0.
         14    1    1    2    0    0  0.78184606194E-02  0.11883424617E-01  0.18012072766E-01  0.22951663827E-01  0.00000000000E+00 0.  1.
     999901    1    3    3    0    0  0.10856296835E+00  0.48637553045E-01 -0.22510066268E-01  0.88828949828E+00  0.88000000000E+00 0. -1.
        -11    1    4    4    0    0 -0.55364775485E-01 -0.39193104869E-01  0.53343836040E-02  0.68044651540E-01  0.51100000000E-03 0. -1.
         11    1    4    4    0    0 -0.61016653486E-01 -0.21327872793E-01 -0.83639010126E-03  0.64644186358E-01  0.51100000000E-03 0.  1.
</event>
<event>
 8    1  0.1138737E+005  0.1043930E+01  0.7957747E-01            NaN
         13   -1    0    0    0    0  0.00000000000E+00  0.00000000000E+00  0.74505805969E-08  0.10566000000E+00  0.10566000000E+00 0.  1.
     999900   -1    0    0    0    0 -0.00000000000E+00 -0.00000000000E+00 -0.74505805969E-08  0.93827000000E+00  0.93827000000E+00 0. -1.
     999902    2    1    2    0    0  0.18908357128E-01 -0.33319827292E-02  0.13822599186E-01  0.10202721826E+01  0.10199978599E+01 0.  0.
     999903    2    3    3    0    0 -0.86816748337E-01  0.35686165876E-01  0.87757385848E-01  0.13001010511E+00  0.19764069261E-01 0.  0.
         14    1    1    2    0    0 -0.18908357128E-01  0.33319827292E-02 -0.13822599186E-01  0.23657817449E-01  0.00000000000E+00 0.  1.
     999901    1    3    3    0    0  0.10572510547E+00 -0.39018148605E-01 -0.73934786662E-01  0.89026207744E+00  0.88000000000E+00 0. -1.
        -11    1    4    4    0    0 -0.33136543905E-01  0.16494708407E-01  0.47488794842E-01  0.60212562676E-01  0.51100000000E-03 0. -1.
         11    1    4    4    0    0 -0.53680204432E-01  0.19191457469E-01  0.40268591006E-01  0.69797542437E-01  0.51100000000E-03 0.  1.
</event>
<event>
 8    1  0.1138737E+005  0.1043930E+01  0.7957747E-01            NaN
         13   -1    0    0    0    0  0.00000000000E+00  0.00000000000E+00  0.74505805969E-08  0.10566000000E+00  0.10566000000E+00 0. -1.
     999900   -1    0    0    0    0 -0.00000000000E+00 -0.00000000000E+00 -0.74505805969E-08  0.93827000000E+00  0.93827000000E+00 0.  1.
     999902    2    1    2    0    0 -0.97867287368E-03  0.23393491972E-01 -0.20240911269E-02  0.10204287189E+01  0.10201580565E+01 0.  0.
     999903    2    3    3    0    0 -0.32014260230E-01 -0.40280300098E-01  0.11714947405E+00  0.12957525280E+00  0.20453152182E-01 0.  0.
         14    1    1    2    0    0  0.97867287368E-03 -0.23393491972E-01  0.20240911269E-02  0.23501281074E-01  0.00000000000E+00 0. -1.
     999901    1    3    3    0    0  0.31035587356E-01  0.63673792070E-01 -0.11917356517E+00  0.89085346613E+00  0.88000000000E+00 0.  1.
        -11    1    4    4    0    0 -0.18326990961E-01 -0.34702233483E-01  0.71152657424E-01  0.81259371065E-01  0.51100000000E-03 0. -1.
         11    1    4    4    0    0 -0.13687269269E-01 -0.55780666150E-02  0.45996816621E-01  0.48315881732E-01  0.51100000000E-03 0.  1.
</event>
<event>
 8    1  0.1138737E+005  0.1043930E+01  0.7957747E-01            NaN
         13   -1    0    0    0    0  0.00000000000E+00  0.00000000000E+00  0.74505805969E-08  0.10566000000E+00  0.10566000000E+00 0.  1.
     999900   -1    0    0    0    0 -0.00000000000E+00 -0.00000000000E+00 -0.74505805969E-08  0.93827000000E+00  0.93827000000E+00 0. -1.
     999902    2    1    2    0    0 -0.13659123843E-01 -0.11435783465E-01 -0.16245242581E-01  0.10198207339E+01  0.10195357142E+01 0.  0.
     999903    2    3    3    0    0  0.18247184263E-01  0.58643779998E-01 -0.11405612294E+00  0.13105972772E+00  0.19894732545E-01 0.  0.
         14    1    1    2    0    0  0.13659123843E-01  0.11435783465E-01  0.16245242581E-01  0.24109266147E-01  0.00000000000E+00 0.  1.
     999901    1    3    3    0    0 -0.31906308106E-01 -0.70079563463E-01  0.97810880359E-01  0.88876100614E+00  0.88000000000E+00 0. -1.
        -11    1    4    4    0    0  0.15147029227E-01  0.56918759416E-01 -0.95832285688E-01  0.11248673597E+00  0.51100000000E-03 0.  1.
         11    1    4    4    0    0  0.31001550357E-02  0.17250205821E-02 -0.18223837252E-01  0.18572991747E-01  0.51100000000E-03 0. -1.
</event>
<event>
 8    1  0.1138737E+005  0.1043930E+01  0.7957747E-01            NaN
         13   -1    0    0    0    0  0.00000000000E+00  0.00000000000E+00  0.74505805969E-08  0.10566000000E+00  0.10566000000E+00 0.  1.
     999900   -1    0    0    0    0 -0.00000000000E+00 -0.00000000000E+00 -0.74505805969E-08  0.93827000000E+00  0.93827000000E+00 0.  1.
     999902    2    1    2    0    0 -0.98814952080E-02  0.14623708655E-01  0.15060075574E-01  0.10207286492E+01  0.10204649296E+01 0.  0.
     999903    2    3    3    0    0  0.17838334781E-01  0.51218755512E-02  0.13007068846E+00  0.13276124277E+00  0.19045308853E-01 0.  0.
         14    1    1    2    0    0  0.98814952080E-02 -0.14623708655E-01 -0.15060075574E-01  0.23201350795E-01  0.00000000000E+00 0. -1.
     999901    1    3    3    0    0 -0.27719829989E-01  0.95018331043E-02 -0.11501061289E+00  0.88796740643E+00  0.88000000000E+00 0.  1.
        -11    1    4    4    0    0  0.16702066004E-02 -0.62102551709E-02  0.42805680660E-01  0.43289078035E-01  0.51100000000E-03 0. -1.
         11    1    4    4    0    0  0.16168128181E-01  0.11332130722E-01  0.87265007801E-01  0.89472164739E-01  0.51100000000E-03 0.  1.
</event>
<event>
 8    1  0.1138737E+005  0.1043930E+01  0.7957747E-01            NaN
         13   -1    0    0    0    0  0.00000000000E+00  0.00000000000E+00  0.74505805969E-08  0.10566000000E+00  0.10566000000E+00 0.  1.
     999900   -1    0    0    0    0 -0.00000000000E+00 -0.00000000000E+00 -0.74505805969E-08  0.93827000000E+00  0.93827000000E+00 0.  1.
     999902    2    1    2    0    0  0.98452946846E-02  0.13972925711E-01  0.16584298006E-01  0.10201137992E+01  0.10198357475E+01 0.  0.
     999903    2    3    3    0    0 -0.12657212335E+00 -0.12875802498E-01 -0.60872312427E-02  0.12890980213E+00  0.19859355553E-01 0.  0.
         14    1    1    2    0    0 -0.98452946846E-02 -0.13972925711E-01 -0.16584298006E-01  0.23816200804E-01  0.00000000000E+00 0.  1.
     999901    1    3    3    0    0  0.13641741803E+00  0.26848728209E-01  0.22671529249E-01  0.89120399707E+00  0.88000000000E+00 0. -1.
        -11    1    4    4    0    0 -0.57811124750E-01 -0.80053259883E-02 -0.12461693546E-01  0.59680535488E-01  0.51100000000E-03 0.  1.
         11    1    4    4    0    0 -0.68760998595E-01 -0.48704765093E-02  0.63744623033E-02  0.69229266642E-01  0.51100000000E-03 0. -1.
</event>
<event>
 8    1  0.1138737E+005  0.1043930E+01  0.7957747E-01            NaN
         13   -1    0    0    0    0  0.00000000000E+00  0.00000000000E+00  0.74505805969E-08  0.10566000000E+00  0.10566000000E+00 0.  1.
     999900   -1    0    0    0    0 -0.00000000000E+00 -0.00000000000E+00 -0.74505805969E-08  0.93827000000E+00  0.93827000000E+00 0. -1.
     999902    2    1    2    0    0 -0.26429960541E-01 -0.55489832057E-02 -0.14491199286E-02  0.10168849639E+01  0.10165252559E+01 0.  0.
     999903    2    3    3    0    0  0.10385815216E+00 -0.66129802543E-01  0.10718381746E-01  0.12514897378E+00  0.19690489509E-01 0.  0.
         14    1    1    2    0    0  0.26429960541E-01  0.55489832057E-02  0.14491199286E-02  0.27045036095E-01  0.00000000000E+00 0. -1.
     999901    1    3    3    0    0 -0.13028811270E+00  0.60580819337E-01 -0.12167501675E-01  0.89173599012E+00  0.88000000000E+00 0.  1.
        -11    1    4    4    0    0  0.19020764976E-01 -0.14922342305E-01 -0.53330665212E-02  0.24762239794E-01  0.51100000000E-03 0. -1.
         11    1    4    4    0    0  0.84837387185E-01 -0.51207460238E-01  0.16051448267E-01  0.10038673399E+00  0.51100000000E-03 0.  1.
</event>
<event>
 8    1  0.1138737E+005  0.1043930E+01  0.7957747E-01            NaN
         13   -1    0    0    0    0  0.00000000000E+00  0.00000000000E+00  0.74505805969E-08  0.10566000000E+00  0.10566000000E+00 0.  1.
     999900   -1    0    0    0    0 -0.00000000000E+00 -0.00000000000E+00 -0.74505805969E-08  0.93827000000E+00  0.93827000000E+00 0.  1.
     999902    2    1    2    0    0 -0.23065972289E-01  0.57369597283E-02  0.27142798341E-02  0.10200068083E+01  0.10197262230E+01 0.  0.
     999903    2    3    3    0    0 -0.63365950066E-01 -0.92265786060E-01  0.65729562080E-01  0.13141266465E+00  0.20510831139E-01 0.  0.
         14    1    1    2    0    0  0.23065972289E-01 -0.57369597283E-02 -0.27142798341E-02  0.23923191668E-01  0.00000000000E+00 0.  1.
     999901    1    3    3    0    0  0.40299977777E-01  0.98002745788E-01 -0.63015282246E-01  0.88859414368E+00  0.88000000000E+00 0.  1.
        -11    1    4    4    0    0 -0.48942280533E-01 -0.56974206284E-01  0.37372080566E-01  0.83894818268E-01  0.51100000000E-03 0. -1.
         11    1    4    4    0    0 -0.14423669533E-01 -0.35291579776E-01  0.28357481514E-01  0.47517846381E-01  0.51100000000E-03 0.  1.
</event>
<event>
 8    1  0.1138737E+005  0.1043930E+01  0.7957747E-01            NaN
         13   -1    0    0    0    0  0.00000000000E+00  0.00000000000E+00  0.74505805969E-08  0.10566000000E+00  0.10566000000E+00 0. -1.
     999900   -1    0    0    0    0 -0.00000000000E+00 -0.00000000000E+00 -0.74505805969E-08  0.93827000000E+00  0.93827000000E+00 0.  1.
     999902    2    1    2    0    0  0.15765548411E-02  0.11869908129E-01  0.20206216594E-01  0.10204423132E+01  0.10201719674E+01 0.  0.
     999903    2    3    3    0    0 -0.12877679636E+00  0.76767658821E-02 -0.25426647959E-02  0.13053945879E+00  0.19791137927E-01 0.  0.
         14    1    1    2    0    0 -0.15765548411E-02 -0.11869908129E-01 -0.20206216594E-01  0.23487686842E-01  0.00000000000E+00 0.  1.
     999901    1    3    3    0    0  0.13035335120E+00  0.41931422465E-02  0.22748881390E-01  0.88990285437E+00  0.88000000000E+00 0. -1.
        -11    1    4    4    0    0 -0.41556777478E-01  0.42744004546E-02 -0.99190664112E-02  0.42940485013E-01  0.51100000000E-03 0.  1.
         11    1    4    4    0    0 -0.87220018884E-01  0.34023654275E-02  0.73764016153E-02  0.87598973775E-01  0.51100000000E-03 0. -1.
</event>
<event>
 8    1  0.1138737E+005  0.1043930E+01  0.7957747E-01            NaN
         13   -1    0    0    0    0  0.00000000000E+00  0.00000000000E+00  0.74505805969E-08  0.10566000000E+00  0.10566000000E+00 0.  1.
     999900   -1    0    0    0    0 -0.00000000000E+00 -0.00000000000E+00 -0.74505805969E-08  0.93827000000E+00  0.93827000000E+00 0. -1.
     999902    2    1    2    0    0 -0.20097369250E-01 -0.84483618654E-02  0.10073259612E-01  0.10199143878E+01  0.10196316045E+01 0.  0.
     999903    2    3    3    0    0 -0.98802225370E-01  0.69641335685E-01 -0.47270444272E-01  0.13110577197E+00  0.18504949827E-01 0.  0.
         14    1    1    2    0    0  0.20097369250E-01  0.84483618654E-02 -0.10073259612E-01  0.24015612176E-01  0.00000000000E+00 0. -1.
     999901    1    3    3    0    0  0.78704856121E-01 -0.78089697550E-01  0.57343703884E-01  0.88880861585E+00  0.88000000000E+00 0.  1.
        -11    1    4    4    0    0 -0.83276681898E-01  0.63665167376E-01 -0.35322165672E-01  0.11061724908E+00  0.51100000000E-03 0.  1.
         11    1    4    4    0    0 -0.15525543473E-01  0.59761683084E-02 -0.11948278600E-01  0.20488522892E-01  0.51100000000E-03 0. -1.
</event>
<event>
 8    1  0.1138737E+005  0.1043930E+01  0.7957747E-01            NaN
         13   -1    0    0    0    0  0.00000000000E+00  0.00000000000E+00  0.74505805969E-08  0.10566000000E+00  0.10566000000E+00 0. -1.
     999900   -1    0    0    0    0 -0.00000000000E+00 -0.00000000000E+00 -0.74505805969E-08  0.93827000000E+00  0.93827000000E+00 0.  1.
     999902    2    1    2    0    0 -0.12383224455E-01  0.20203293928E-01  0.37062667866E-04  0.10202336141E+01  0.10199583857E+01 0.  0.
     999903    2    3    3    0    0  0.66190652698E-01  0.10714082033E+00  0.33439801176E-01  0.13183745771E+00  0.20063326406E-01 0.  0.
         14    1    1    2    0    0  0.12383224455E-01 -0.20203293928E-01 -0.37062667866E-04  0.23696385950E-01  0.00000000000E+00 0.  1.
     999901    1    3    3    0    0 -0.78573877153E-01 -0.86937526401E-01 -0.33402738508E-01  0.88839615634E+00  0.88000000000E+00 0.  1.
        -11    1    4    4    0    0  0.59319825476E-01  0.83069958614E-01  0.31004726188E-01  0.10668183484E+00  0.51100000000E-03 0. -1.
         11    1    4    4    0    0  0.68708272219E-02  0.24070861715E-01  0.24350749876E-02  0.25155622862E-01  0.51100000000E-03 0.  1.
</event>
<event>
 8    1  0.1138737E+005  0.1043930E+01  0.7957747E-01            NaN
         13   -1    0    0    0    0  0.00000000000E+00  0.00000000000E+00  0.74505805969E-08  0.10566000000E+00  0.10566000000E+00 0.  1.
     999900   -1    0    0    0    0 -0.00000000000E+00 -0.00000000000E+00 -0.74505805969E-08  0.93827000000E+00  0.93827000000E+00 0. -1.
     999902    2    1    2    0    0  0.25370865404E-01 -0.79550915739E-03 -0.23705382054E-02  0.10184362145E+01  0.10181170807E+01 0.  0.
     999903    2    3    3    0    0  0.92522043157E-01  0.85747860399E-01  0.29185251280E-01  0.13108352065E+00  0.20447162661E-01 0.  0.
         14    1    1    2    0    0 -0.25370865404E-01  0.79550915739E-03  0.23705382054E-02  0.25493785469E-01  0.00000000000E+00 0.  1.
     999901    1    3    3    0    0 -0.67151177754E-01 -0.86543369556E-01 -0.31555789485E-01  0.88735269388E+00  0.88000000000E+00 0. -1.
        -11    1    4    4    0    0  0.43589058720E-01  0.49201135806E-01  0.70158206363E-02  0.66107795795E-01  0.51100000000E-03 0. -1.
         11    1    4    4    0    0  0.48932984438E-01  0.36546724593E-01  0.22169430643E-01  0.64975724855E-01  0.51100000000E-03 0.  1.
</event>
<event>
 8    1  0.1138737E+005  0.1043930E+01  0.7957747E-01            NaN
         13   -1    0    0    0    0  0.00000000000E+00  0.00000000000E+00  0.74505805969E-08  0.10566000000E+00  0.10566000000E+00 0.  1.
     999900   -1    0    0    0    0 -0.00000000000E+00 -0.00000000000E+00 -0.74505805969E-08  0.93827000000E+00  0.93827000000E+00 0.  1.
     999902    2    1    2    0    0 -0.17511861631E-01  0.26553265398E-03  0.14962123730E-01  0.10208952230E+01  0.10206353195E+01 0.  0.
     999903    2    3    3    0    0  0.10000758168E+00 -0.60697125610E-01 -0.49569407320E-01  0.12865557819E+00  0.20235468999E-01 0.  0.
         14    1    1    2    0    0  0.17511861631E-01 -0.26553265398E-03 -0.14962123730E-01  0.23034777010E-01  0.00000000000E+00 0. -1.
     999901    1    3    3    0    0 -0.11751944331E+00  0.60962658264E-01  0.64531531051E-01  0.89223964480E+00  0.88000000000E+00 0. -1.
        -11    1    4    4    0    0  0.11140736692E-01 -0.11839606305E-03 -0.53206315235E-02  0.12357195171E-01  0.51100000000E-03 0. -1.
         11    1    4    4    0    0  0.88866844988E-01 -0.60578729547E-01 -0.44248775797E-01  0.11629838302E+00  0.51100000000E-03 0.  1.
</event>
<event>
 8    1  0.1138737E+005  0.1043930E+01  0.7957747E-01            NaN
         13   -1    0    0    0    0  0.00000000000E+00  0.00000000000E+00  0.74505805969E-08  0.10566000000E+00  0.10566000000E+00 0. -1.
     999900   -1    0    0    0    0 -0.00000000000E+00 -0.00000000000E+00 -0.74505805969E-08  0.93827000000E+00  0.93827000000E+00 0.  1.
     999902    2    1    2    0    0  0.16397593683E-02  0.88898615656E-03 -0.20835440254E-01  0.10230112362E+01  0.10227973381E+01 0.  0.
     999903    2    3    3    0    0 -0.83674606735E-01 -0.52066095737E-01  0.84085571094E-01  0.13110810226E+00  0.20165145034E-01 0.  0.
         14    1    1    2    0    0 -0.16397593683E-02 -0.88898615656E-03  0.20835440254E-01  0.20918763772E-01  0.00000000000E+00 0. -1.
     999901    1    3    3    0    0  0.85314366103E-01  0.52955081894E-01 -0.10492101135E+00  0.89190313397E+00  0.88000000000E+00 0.  1.
        -11    1    4    4    0    0 -0.44924299201E-01 -0.17857698848E-01  0.33780202143E-01  0.58978413379E-01  0.51100000000E-03 0. -1.
         11    1    4    4    0    0 -0.38750307534E-01 -0.34208396889E-01  0.50305368951E-01  0.72129688880E-01  0.51100000000E-03 0.  1.
</event>
<event>
 8    1  0.1138737E+005  0.1043930E+01  0.7957747E-01            NaN
         13   -1    0    0    0    0  0.00000000000E+00  0.00000000000E+00  0.74505805969E-08  0.10566000000E+00  0.10566000000E+00 0. -1.
     999900   -1    0    0    0    0 -0.00000000000E+00 -0.00000000000E+00 -0.74505805969E-08  0.93827000000E+00  0.93827000000E+00 0. -1.
     999902    2    1    2    0    0 -0.12967451501E-01  0.52430207904E-02  0.18711387970E-01  0.10205684909E+01  0.10203010755E+01 0.  0.
     999903    2    3    3    0    0  0.48122477801E-01  0.10513568708E+00 -0.54688193102E-01  0.12978343116E+00  0.21992157055E-01 0.  0.
         14    1    1    2    0    0  0.12967451501E-01 -0.52430207904E-02 -0.18711387970E-01  0.23361509052E-01  0.00000000000E+00 0.  1.
     999901    1    3    3    0    0 -0.61089929302E-01 -0.99892666287E-01  0.73399581072E-01  0.89078505979E+00  0.88000000000E+00 0.  1.
        -11    1    4    4    0    0  0.25292160540E-01  0.78493773832E-01 -0.41228958468E-01  0.92201160798E-01  0.51100000000E-03 0. -1.
         11    1    4    4    0    0  0.22830317261E-01  0.26641913245E-01 -0.13459234634E-01  0.37582270361E-01  0.51100000000E-03 0.  1.
</event>
<event>
 8    1  0.1138737E+005  0.1043930E+01  0.7957747E-01            NaN
         13   -1    0    0    0    0  0.00000000000E+00  0.00000000000E+00  0.74505805969E-08  0.10566000000E+00  0.10566000000E+00 0. -1.
     999900   -1    0    0    0    0 -0.00000000000E+00 -0.00000000000E+00 -0.74505805969E-08  0.93827000000E+00  0.93827000000E+00 0.  1.
     999902    2    1    2    0    0 -0.38065158428E-02 -0.10139614319E-01  0.20658148128E-01  0.10206048971E+01  0.10203383241E+01 0.  0.
     999903    2    3    3    0    0  0.82586510176E-01  0.95586237946E-01 -0.17729226902E-01  0.12924901904E+00  0.20826014715E-01 0.  0.
         14    1    1    2    0    0  0.38065158428E-02  0.10139614319E-01 -0.20658148128E-01  0.23325102904E-01  0.00000000000E+00 0.  1.
     999901    1    3    3    0    0 -0.86393026019E-01 -0.10572585226E+00  0.38387375030E-01  0.89135587806E+00  0.88000000000E+00 0. -1.
        -11    1    4    4    0    0  0.67563829279E-01  0.65536457373E-01 -0.16937293558E-01  0.95640113477E-01  0.51100000000E-03 0.  1.
         11    1    4    4    0    0  0.15022680897E-01  0.30049780573E-01 -0.79193334434E-03  0.33608905564E-01  0.51100000000E-03 0. -1.
</event>
<event>
 8    1  0.1138737E+005  0.1043930E+01  0.7957747E-01            NaN
         13   -1    0    0    0    0  0.00000000000E+00  0.00000000000E+00  0.74505805969E-08  0.10566000000E+00  0.10566000000E+00 0. -1.
     999900   -1    0    0    0    0 -0.00000000000E+00 -0.00000000000E+00 -0.74505805969E-08  0.93827000000E+00  0.93827000000E+00 0.  1.
     999902    2    1    2    0    0  0.49297785365E-02  0.15726003845E-01  0.16925051968E-01  0.10203065520E+01  0.10200330351E+01 0.  0.
     999903    2    3    3    0    0  0.15049632334E-01 -0.73645080560E-01  0.10576423358E+00  0.13127224308E+00  0.19905762359E-01 0.  0.
         14    1    1    2    0    0 -0.49297785365E-02 -0.15726003845E-01 -0.16925051968E-01  0.23623448044E-01  0.00000000000E+00 0.  1.
     999901    1    3    3    0    0 -0.10119853797E-01  0.89371084405E-01 -0.88839181610E-01  0.88903430888E+00  0.88000000000E+00 0.  1.
        -11    1    4    4    0    0  0.55057858167E-03 -0.47425512799E-01  0.70859980029E-01  0.85269456968E-01  0.51100000000E-03 0.  1.
         11    1    4    4    0    0  0.14499053752E-01 -0.26219567761E-01  0.34904253549E-01  0.46002786112E-01  0.51100000000E-03 0. -1.
</event>
<event>
 8    1  0.1138737E+005  0.1043930E+01  0.7957747E-01            NaN
         13   -1    0    0    0    0  0.00000000000E+00  0.00000000000E+00  0.74505805969E-08  0.10566000000E+00  0.10566000000E+00 0. -1.
     999900   -1    0    0    0    0 -0.00000000000E+00 -0.00000000000E+00 -0.74505805969E-08  0.93827000000E+00  0.93827000000E+00 0.  1.
     999902    2    1    2    0    0  0.21014481012E-01 -0.13123078420E-01 -0.30322470575E-02  0.10189696690E+01  0.10186639133E+01 0.  0.
     999903    2    3    3    0    0  0.15937049820E-01 -0.97389247093E-01 -0.84172082730E-01  0.13121393663E+00  0.19836901195E-01 0.  0.
         14    1    1    2    0    0 -0.21014481012E-01  0.13123078420E-01  0.30322470575E-02  0.24960330960E-01  0.00000000000E+00 0.  1.
     999901    1    3    3    0    0  0.50774311924E-02  0.84266168673E-01  0.81139835672E-01  0.88775573241E+00  0.88000000000E+00 0. -1.
        -11    1    4    4    0    0  0.13552014779E-01 -0.56105741994E-01 -0.60251602250E-01  0.83438768471E-01  0.51100000000E-03 0. -1.
         11    1    4    4    0    0  0.23850350410E-02 -0.41283505099E-01 -0.23920480480E-01  0.47775168161E-01  0.51100000000E-03 0.  1.
</event>
<event>
 8    1  0.1138737E+005  0.1043930E+01  0.7957747E-01            NaN
         13   -1    0    0    0    0  0.00000000000E+00  0.00000000000E+00  0.74505805969E-08  0.10566000000E+00  0.10566000000E+00 0.  1.
     999900   -1    0    0    0    0 -0.00000000000E+00 -0.00000000000E+00 -0.74505805969E-08  0.93827000000E+00  0.93827000000E+00 0. -1.
     999902    2    1    2    0    0  0.20136052614E-01  0.66855145361E-02 -0.10059903768E-01  0.10204489782E+01  0.10201787877E+01 0.  0.
     999903    2    3    3    0    0 -0.98531025606E-02  0.11656475130E+00  0.54816813896E-01  0.13074015811E+00  0.20091813793E-01 0.  0.
         14    1    1    2    0    0 -0.20136052614E-01 -0.66855145361E-02  0.10059903768E-01  0.23481021768E-01  0.00000000000E+00 0. -1.
     999901    1    3    3    0    0  0.29989155174E-01 -0.10987923677E+00 -0.64876717664E-01  0.88970882012E+00  0.88000000000E+00 0. -1.
        -11    1    4    4    0    0  0.57832397185E-02  0.32026550279E-01  0.11955527932E-01  0.34674797095E-01  0.51100000000E-03 0. -1.
         11    1    4    4    0    0 -0.15636342279E-01  0.84538201023E-01  0.42861285965E-01  0.96065361019E-01  0.51100000000E-03 0.  1.
</event>
<event>
 8    1  0.1138737E+005  0.1043930E+01  0.7957747E-01            NaN
         13   -1    0    0    0    0  0.00000000000E+00  0.00000000000E+00  0.74505805969E-08  0.10566000000E+00  0.10566000000E+00 0. -1.
     999900   -1    0    0    0    0 -0.00000000000E+00 -0.00000000000E+00 -0.74505805969E-08  0.93827000000E+00  0.93827000000E+00 0.  1.
     999902    2    1    2    0    0 -0.15161493600E-03  0.81925426604E-02 -0.22054555016E-01  0.10204024812E+01  0.10201312070E+01 0.  0.
     999903    2    3    3    0    0 -0.46700291606E-01 -0.11872927241E+00  0.10287176157E-01  0.12949175955E+00  0.19614597453E-01 0.  0.
         14    1    1    2    0    0  0.15161493600E-03 -0.81925426604E-02  0.22054555016E-01  0.23527518766E-01  0.00000000000E+00 0. -1.
     999901    1    3    3    0    0  0.46548676670E-01  0.12692181507E+00 -0.32341731173E-01  0.89091072169E+00  0.88000000000E+00 0.  1.
        -11    1    4    4    0    0 -0.40059983939E-01 -0.82510934791E-01  0.19980588407E-02  0.91744809300E-01  0.51100000000E-03 0.  1.
         11    1    4    4    0    0 -0.66403076666E-02 -0.36218337623E-01  0.82891173167E-02  0.37746950247E-01  0.51100000000E-03 0. -1.
</event>
<event>
 7    1  0.1138737E+005  0.1043930E+01  0.7957747E-01            NaN
         13   -1    0    0    0    0  0.00000000000E+00  0.00000000000E+00  0.74505805969E-08  0.10566000000E+00  0.10566000000E+00 0.  1.
     999900   -1    0    0    0    0 -0.00000000000E+00 -0.00000000000E+00 -0.74505805969E-08  0.93827000000E+00  0.93827000000E+00 0.  1.
     999903    2    1    2    0    0  0.30887832336E-01  0.12918410191E-01 -0.10628557357E+00  0.11321600653E+00  0.20007435535E-01 0.  0.
         14    1    1    2    0    0  0.69919270372E-04  0.40063750860E-01 -0.90385513531E-02  0.41070724760E-01  0.00000000000E+00 0.  1.
     999901    1    1    2    0    0 -0.30957751607E-01 -0.52982161052E-01  0.11532412492E+00  0.88964326871E+00  0.88000000000E+00 0. -1.
        -11    1    3    3    0    0  0.12725620188E-02  0.18765497642E-02 -0.36853112383E-01  0.36926330259E-01  0.51100000000E-03 0.  1.
         11    1    3    3    0    0  0.29615270317E-01  0.11041860427E-01 -0.69432461188E-01  0.76289676270E-01  0.51100000000E-03 0. -1.
</event>
<event>
 8    1  0.1138737E+005  0.1043930E+01  0.7957747E-01            NaN
         13   -1    0    0    0    0  0.00000000000E+00  0.00000000000E+00  0.74505805969E-08  0.10566000000E+00  0.10566000000E+00 0.  1.
     999900   -1    0    0    0    0 -0.00000000000E+00 -0.00000000000E+00 -0.74505805969E-08  0.93827000000E+00  0.93827000000E+00 0. -1.
     999902    2    1    2    0    0  0.31805734532E-02  0.20739057368E-01  0.11122135919E-01  0.10201828643E+01  0.10199064418E+01 0.  0.
     999903    2    3    3    0    0  0.12269657711E+00  0.29310770023E-01  0.33151685539E-01  0.13178945454E+00  0.18864114083E-01 0.  0.
         14    1    1    2    0    0 -0.31805734532E-02 -0.20739057368E-01 -0.11122135919E-01  0.23747135731E-01  0.00000000000E+00 0. -1.
     999901    1    3    3    0    0 -0.11951600366E+00 -0.85717126550E-02 -0.22029549620E-01  0.88839340973E+00  0.88000000000E+00 0. -1.
        -11    1    4    4    0    0  0.10579382733E-01 -0.25344453813E-02  0.43730821001E-02  0.11735915833E-01  0.51100000000E-03 0.  1.
         11    1    4    4    0    0  0.11211719438E+00  0.31845215405E-01  0.28778603439E-01  0.12005353871E+00  0.51100000000E-03 0. -1.
</event>
<event>
 8    1  0.1138737E+005  0.1043930E+01  0.7957747E-01            NaN
         13   -1    0    0    0    0  0.00000000000E+00  0.00000000000E+00  0.74505805969E-08  0.10566000000E+00  0.10566000000E+00 0.  1.
     999900   -1    0    0    0    0 -0.00000000000E+00 -0.00000000000E+00 -0.74505805969E-08  0.93827000000E+00  0.93827000000E+00 0. -1.
     999902    2    1    2    0    0  0.15060022513E-01  0.26849874489E-02  0.17597705734E-01  0.10206127814E+01  0.10203463906E+01 0.  0.
     999903    2    3    3    0    0  0.86393384815E-01 -0.89108425317E-01  0.42538804788E-01  0.13261698321E+00  0.19328370853E-01 0.  0.
         14    1    1    2    0    0 -0.15060022513E-01 -0.26849874489E-02 -0.17597705734E-01  0.23317218590E-01  0.00000000000E+00 0. -1.
     999901    1    3    3    0    0 -0.71333362302E-01  0.91793412766E-01 -0.24941099054E-01  0.88799579820E+00  0.88000000000E+00 0. -1.
        -11    1    4    4    0    0  0.14476524728E-01 -0.20519007418E-01  0.17104902551E-02  0.25175113337E-01  0.51100000000E-03 0. -1.
         11    1    4    4    0    0  0.71916860087E-01 -0.68589417899E-01  0.40828314533E-01  0.10744186987E+00  0.51100000000E-03 0.  1.
</event>
<event>
 8    1  0.1138737E+005  0.1043930E+01  0.7957747E-01            NaN
         13   -1    0    0    0    0  0.00000000000E+00  0.00000000000E+00  0.74505805969E-08  0.10566000000E+00  0.10566000000E+00 0. -1.
     999900   -1    0    0    0    0 -0.00000000000E+00 -0.00000000000E+00 -0.74505805969E-08  0.93827000000E+00  0.93827000000E+00 0. -1.
     999902    2    1    2    0    0  0.11760580564E-01  0.20597604890E-01 -0.31697702861E-02  0.10200005197E+01  0.10197197851E+01 0.  0.
     999903    2    3    3    0    0  0.96744064450E-01 -0.12338359462E-01 -0.85953405293E-01  0.13142857525E+00  0.19334771562E-01 0.  0.
         14    1    1    2    0    0 -0.11760580564E-01 -0.20597604890E-01  0.31697702861E-02  0.23929480272E-01  0.00000000000E+00 0.  1.
     999901    1    3    3    0    0 -0.84983483886E-01  0.32935964352E-01  0.82783635007E-01  0.88857194447E+00  0.88000000000E+00 0. -1.
        -11    1    4    4    0    0  0.42058443503E-01 -0.14539292210E-01 -0.42602324563E-01  0.61607814983E-01  0.51100000000E-03 0.  1.
         11    1    4    4    0    0  0.54685620948E-01  0.22009327477E-02 -0.43351080730E-01  0.69820760271E-01  0.51100000000E-03 0. -1.
</event>
<event>
 8    1  0.1138737E+005  0.1043930E+01  0.7957747E-01            NaN
         13   -1    0    0    0    0  0.00000000000E+00  0.00000000000E+00  0.74505805969E-08  0.10566000000E+00  0.10566000000E+00 0. -1.
     999900   -1    0    0    0    0 -0.00000000000E+00 -0.00000000000E+00 -0.74505805969E-08  0.93827000000E+00  0.93827000000E+00 0. -1.
     999902    2    1    2    0    0  0.14375214897E-01 -0.18316039496E-01 -0.62302226848E-02  0.10198273076E+01  0.10195424452E+01 0.  0.
     999903    2    3    3    0    0 -0.21535922681E-01 -0.11523144381E+00  0.55343649645E-01  0.13164177116E+00  0.22903160271E-01 0.  0.
         14    1    1    2    0    0 -0.14375214897E-01  0.18316039496E-01  0.62302226848E-02  0.24102692398E-01  0.00000000000E+00 0.  1.
     999901    1    3    3    0    0  0.35911137578E-01  0.96915404309E-01 -0.61573872329E-01  0.88818553644E+00  0.88000000000E+00 0. -1.
        -11    1    4    4    0    0 -0.37917010165E-02 -0.27206686816E-01  0.24154803125E-01  0.36582734167E-01  0.51100000000E-03 0.  1.
         11    1    4    4    0    0 -0.17744221665E-01 -0.88024756989E-01  0.31188846520E-01  0.95059036991E-01  0.51100000000E-03 0. -1.
</event>
<event>
 8    1  0.1138737E+005  0.1043930E+01  0.7957747E-01            NaN
         13   -1    0    0    0    0  0.00000000000E+00  0.00000000000E+00  0.74505805969E-08  0.10566000000E+00  0.10566000000E+00 0.  1.
     999900   -1    0    0    0    0 -0.00000000000E+00 -0.00000000000E+00 -0.74505805969E-08  0.93827000000E+00  0.93827000000E+00 0.  1.
     999902    2    1    2    0    0 -0.59208482598E-02 -0.12222901218E-01  0.20217561425E-01  0.10195741886E+01  0.10192832386E+01 0.  0.
     999903    2    3    3    0    0  0.56472095131E-01  0.11150455967E+00 -0.19416815242E-01  0.12784987708E+00  0.18606826681E-01 0.  0.
         14    1    1    2    0    0  0.59208482598E-02  0.12222901218E-01 -0.20217561425E-01  0.24355811386E-01  0.00000000000E+00 0. -1.
     999901    1    3    3    0    0 -0.62392943390E-01 -0.12372746089E+00  0.39634376667E-01  0.89172431153E+00  0.88000000000E+00 0.  1.
        -11    1    4    4    0    0  0.42653243297E-01  0.65293691371E-01 -0.14903510770E-01  0.79403658926E-01  0.51100000000E-03 0. -1.
         11    1    4    4    0    0  0.13818851834E-01  0.46210868304E-01 -0.45133044727E-02  0.48446218156E-01  0.51100000000E-03 0.  1.
</event>
<event>
 8    1  0.1138737E+005  0.1043930E+01  0.7957747E-01            NaN
         13   -1    0    0    0    0  0.00000000000E+00  0.00000000000E+00  0.74505805969E-08  0.10566000000E+00  0.10566000000E+00 0. -1.
     999900   -1    0    0    0    0 -0.00000000000E+00 -0.00000000000E+00 -0.74505805969E-08  0.93827000000E+00  0.93827000000E+00 0. -1.
     999902    2    1    2    0    0  0.21647581527E-01 -0.49566401523E-02 -0.90060657878E-03  0.10217039531E+01  0.10214621729E+01 0.  0.
     999903    2    3    3    0    0 -0.13342045902E-01  0.99111164077E-01  0.82081922210E-01  0.13100732576E+00  0.20602048839E-01 0.  0.
         14    1    1    2    0    0 -0.21647581527E-01  0.49566401523E-02  0.90060657878E-03  0.22226046877E-01  0.00000000000E+00 0.  1.
     999901    1    3    3    0    0  0.34989627430E-01 -0.10406780423E+00 -0.82982528789E-01  0.89069662736E+00  0.88000000000E+00 0. -1.
        -11    1    4    4    0    0  0.50204309575E-02  0.33559598083E-01  0.24717223219E-01  0.41983968312E-01  0.51100000000E-03 0.  1.
         11    1    4    4    0    0 -0.18362476860E-01  0.65551565994E-01  0.57364698991E-01  0.89023357452E-01  0.51100000000E-03 0. -1.
</event>
<event>
 8    1  0.1138737E+005  0.1043930E+01  0.7957747E-01            NaN
         13   -1    0    0    0    0  0.00000000000E+00  0.00000000000E+00  0.74505805969E-08  0.10566000000E+00  0.10566000000E+00 0. -1.
     999900   -1    0    0    0    0 -0.00000000000E+00 -0.00000000000E+00 -0.74505805969E-08  0.93827000000E+00  0.93827000000E+00 0.  1.
     999902    2    1    2    0    0 -0.16681016881E-01  0.16041275132E-01 -0.31299194367E-02  0.10205767298E+01  0.10203095051E+01 0.  0.
     999903    2    3    3    0    0  0.10726453292E+00 -0.63597764807E-01  0.21090916960E-01  0.12800094878E+00  0.19724614048E-01 0.  0.
         14    1    1    2    0    0  0.16681016881E-01 -0.16041275132E-01  0.31299194367E-02  0.23353270172E-01  0.00000000000E+00 0.  1.
     999901    1    3    3    0    0 -0.12394554980E+00  0.79639039939E-01 -0.24220836397E-01  0.89257578105E+00  0.88000000000E+00 0.  1.
        -11    1    4    4    0    0  0.69234578819E-01 -0.47463877644E-01  0.65336913339E-02  0.84197368300E-01  0.51100000000E-03 0.  1.
         11    1    4    4    0    0  0.38029954101E-01 -0.16133887164E-01  0.14557225626E-01  0.43803580480E-01  0.51100000000E-03 0. -1.
</event>
<event>
 8    1  0.1138737E+005  0.1043930E+01  0.7957747E-01            NaN
         13   -1    0    0    0    0  0.00000000000E+00  0.00000000000E+00  0.74505805969E-08  0.10566000000E+00  0.10566000000E+00 0. -1.
     999900   -1    0    0    0    0 -0.00000000000E+00 -0.00000000000E+00 -0.74505805969E-08  0.93827000000E+00  0.93827000000E+00 0. -1.
     999902    2    1    2    0    0  0.20278487465E-01 -0.11694441688E-01  0.57903704579E-02  0.10198155767E+01  0.10195304336E+01 0.  0.
     999903    2    3    3    0    0  0.89944684470E-01 -0.94899038984E-01  0.14838820697E-01  0.13310352736E+00  0.20012109641E-01 0.  0.
         14    1    1    2    0    0 -0.20278487465E-01  0.11694441688E-01 -0.57903704579E-02  0.24114423284E-01  0.00000000000E+00 0.  1.
     999901    1    3    3    0    0 -0.69666197005E-01  0.83204597296E-01 -0.90484502395E-02  0.88671204935E+00  0.88000000000E+00 0. -1.
        -11    1    4    4    0    0  0.61738191129E-01 -0.59210628377E-01  0.18301798594E-01  0.87479824586E-01  0.51100000000E-03 0.  1.
         11    1    4    4    0    0  0.28206493341E-01 -0.35688410606E-01 -0.34629778962E-02  0.45623702777E-01  0.51100000000E-03 0. -1.
</event>
<event>
 8    1  0.1138737E+005  0.1043930E+01  0.7957747E-01            NaN
         13   -1    0    0    0    0  0.00000000000E+00  0.00000000000E+00  0.74505805969E-08  0.10566000000E+00  0.10566000000E+00 0. -1.
     999900   -1    0    0    0    0 -0.00000000000E+00 -0.00000000000E+00 -0.74505805969E-08  0.93827000000E+00  0.93827000000E+00 0.  1.
     999902    2    1    2    0    0 -0.22660261882E-01 -0.12510057102E-02  0.65864324014E-02  0.10202988008E+01  0.10200251023E+01 0.  0.
     999903    2    3    3    0    0 -0.12047528035E+00 -0.36900044646E-01 -0.38026784059E-01  0.13303955408E+00  0.19431422270E-01 0.  0.
         14    1    1    2    0    0  0.22660261882E-01  0.12510057102E-02 -0.65864324014E-02  0.23631199200E-01  0.00000000000E+00 0.  1.
     999901    1    3    3    0    0  0.97815018472E-01  0.35649038936E-01  0.44613216460E-01  0.88725924672E+00  0.88000000000E+00 0.  1.
        -11    1    4    4    0    0 -0.73681101655E-01 -0.32077051153E-01 -0.21676644847E-01  0.83234488071E-01  0.51100000000E-03 0.  1.
         11    1    4    4    0    0 -0.46794178699E-01 -0.48229934931E-02 -0.16350139212E-01  0.49805066004E-01  0.51100000000E-03 0. -1.
</event>
<event>
 8    1  0.1138737E+005  0.1043930E+01  0.7957747E-01            NaN
         13   -1    0    0    0    0  0.00000000000E+00  0.00000000000E+00  0.74505805969E-08  0.10566000000E+00  0.10566000000E+00 0.  1.
     999900   -1    0    0    0    0 -0.00000000000E+00 -0.00000000000E+00 -0.74505805969E-08  0.93827000000E+00  0.93827000000E+00 0.  1.
     999902    2    1    2    0    0 -0.13806975266E-01  0.54765694562E-02 -0.19010710785E-01  0.10198046502E+01  0.10195192455E+01 0.  0.
     999903    2    3    3    0    0 -0.76640263580E-01  0.53842807611E-01  0.87782020372E-01  0.12980914315E+00  0.19286073022E-01 0.  0.
         14    1    1    2    0    0  0.13806975266E-01 -0.54765694562E-02  0.19010710785E-01  0.24125349812E-01  0.00000000000E+00 0. -1.
     999901    1    3    3    0    0  0.62833288314E-01 -0.48366238155E-01 -0.10679273116E+00  0.88999550703E+00  0.88000000000E+00 0. -1.
        -11    1    4    4    0    0 -0.21448427224E-01  0.52490798370E-02  0.19817951752E-01  0.29674908630E-01  0.51100000000E-03 0.  1.
         11    1    4    4    0    0 -0.55191836356E-01  0.48593727774E-01  0.67964068620E-01  0.10013423452E+00  0.51100000000E-03 0. -1.
</event>
<event>
 8    1  0.1138737E+005  0.1043930E+01  0.7957747E-01            NaN
         13   -1    0    0    0    0  0.00000000000E+00  0.00000000000E+00  0.74505805969E-08  0.10566000000E+00  0.10566000000E+00 0. -1.
     999900   -1    0    0    0    0 -0.00000000000E+00 -0.00000000000E+00 -0.74505805969E-08  0.93827000000E+00  0.93827000000E+00 0.  1.
     999902    2    1    2    0    0  0.58127850419E-02  0.20559740685E-01  0.10104508361E-01  0.10202954385E+01  0.10200216612E+01 0.  0.
     999903    2    3    3    0    0  0.30854955650E-01 -0.12226164052E+00  0.81152628166E-02  0.12842716667E+00  0.22972649315E-01 0.  0.
         14    1    1    2    0    0 -0.58127850419E-02 -0.20559740685E-01 -0.10104508361E-01  0.23634561477E-01  0.00000000000E+00 0.  1.
     999901    1    3    3    0    0 -0.25042170608E-01  0.14282138121E+00  0.19892455442E-02  0.89186827185E+00  0.88000000000E+00 0. -1.
        -11    1    4    4    0    0  0.31708496169E-01 -0.91422492009E-01  0.11226176011E-01  0.97415547647E-01  0.51100000000E-03 0. -1.
         11    1    4    4    0    0 -0.85354051951E-03 -0.30839148516E-01 -0.31109131946E-02  0.31011619024E-01  0.51100000000E-03 0.  1.
</event>
<event>
 8    1  0.1138737E+005  0.1043930E+01  0.7957747E-01            NaN
         13   -1    0    0    0    0  0.00000000000E+00  0.00000000000E+00  0.74505805969E-08  0.10566000000E+00  0.10566000000E+00 0.  1.
     999900   -1    0    0    0    0 -0.00000000000E+00 -0.00000000000E+00 -0.74505805969E-08  0.93827000000E+00  0.93827000000E+00 0. -1.
     999902    2    1    2    0    0  0.17148441078E-01 -0.17198645324E-01  0.24427047891E-02  0.10195203863E+01  0.10192281339E+01 0.  0.
     999903    2    3    3    0    0  0.56273684678E-01  0.77119735354E-01 -0.84483116188E-01  0.12936150166E+00  0.21973165971E-01 0.  0.
         14    1    1    2    0    0 -0.17148441078E-01  0.17198645324E-01 -0.24427047891E-02  0.24409613661E-01  0.00000000000E+00 0. -1.
     999901    1    3    3    0    0 -0.39125243600E-01 -0.94318380678E-01  0.86925820977E-01  0.89015888468E+00  0.88000000000E+00 0.  1.
        -11    1    4    4    0    0  0.38902064839E-01  0.35631945896E-01 -0.49971746501E-01  0.72666655259E-01  0.51100000000E-03 0. -1.
         11    1    4    4    0    0  0.17371619839E-01  0.41487789457E-01 -0.34511369686E-01  0.56694846401E-01  0.51100000000E-03 0.  1.
</event>
<event>
 8    1  0.1138737E+005  0.1043930E+01  0.7957747E-01            NaN
         13   -1    0    0    0    0  0.00000000000E+00  0.00000000000E+00  0.74505805969E-08  0.10566000000E+00  0.10566000000E+00 0.  1.
     999900   -1    0    0    0    0 -0.00000000000E+00 -0.00000000000E+00 -0.74505805969E-08  0.93827000000E+00  0.93827000000E+00 0.  1.
     999902    2    1    2    0    0  0.22857801241E-01  0.66372244040E-02  0.23575171482E-02  0.10200116031E+01  0.10197311316E+01 0.  0.
     999903    2    3    3    0    0 -0.11545448367E+00 -0.42718990377E-01  0.27510744769E-01  0.12748764878E+00  0.18482683128E-01 0.  0.
         14    1    1    2    0    0 -0.22857801241E-01 -0.66372244040E-02 -0.23575171482E-02  0.23918396946E-01  0.00000000000E+00 0.  1.
     999901    1    3    3    0    0  0.13831228491E+00  0.49356214781E-01 -0.25153227621E-01  0.89252395427E+00  0.88000000000E+00 0.  1.
        -11    1    4    4    0    0 -0.52697656344E-01 -0.19642590221E-01  0.22008493020E-01  0.60394612514E-01  0.51100000000E-03 0.  1.
         11    1    4    4    0    0 -0.62756827325E-01 -0.23076400156E-01  0.55022517492E-02  0.67093036266E-01  0.51100000000E-03 0. -1.
</event>
<event>
 8    1  0.1138737E+005  0.1043930E+01  0.7957747E-01            NaN
         13   -1    0    0    0    0  0.00000000000E+00  0.00000000000E+00  0.74505805969E-08  0.10566000000E+00  0.10566000000E+00 0.  1.
     999900   -1    0    0    0    0 -0.00000000000E+00 -0.00000000000E+00 -0.74505805969E-08  0.93827000000E+00  0.93827000000E+00 0.  1.
     999902    2    1    2    0    0 -0.59277274353E-03  0.10454113822E-01 -0.22608008584E-01  0.10190149056E+01  0.10187102709E+01 0.  0.
     999903    2    3    3    0    0 -0.95351960479E-01 -0.69352735367E-01 -0.52392188506E-01  0.12983801985E+00  0.14531748388E-01 0.  0.
         14    1    1    2    0    0  0.59277274353E-03 -0.10454113822E-01  0.22608008584E-01  0.24915094370E-01  0.00000000000E+00 0.  1.
     999901    1    3    3    0    0  0.94759187735E-01  0.79806849189E-01  0.29784179921E-01  0.88917688578E+00  0.88000000000E+00 0.  1.
        -11    1    4    4    0    0 -0.25200068646E-01 -0.21583782109E-01 -0.21388740096E-01  0.39479645816E-01  0.51100000000E-03 0.  1.
         11    1    4    4    0    0 -0.70151891833E-01 -0.47768953258E-01 -0.31003448410E-01  0.90358374031E-01  0.51100000000E-03 0. -1.
</event>
<event>
 8    1  0.1138737E+005  0.1043930E+01  0.7957747E-01            NaN
         13   -1    0    0    0    0  0.00000000000E+00  0.00000000000E+00  0.74505805969E-08  0.10566000000E+00  0.10566000000E+00 0. -1.
     999900   -1    0    0    0    0 -0.00000000000E+00 -0.00000000000E+00 -0.74505805969E-08  0.93827000000E+00  0.93827000000E+00 0.  1.
     999902    2    1    2    0    0  0.11922714472E-01  0.11986377338E-01  0.18105802879E-01  0.10191581519E+01  0.10188570528E+01 0.  0.
     999903    2    3    3    0    0 -0.11501330558E+00 -0.15275420673E-01 -0.48657510759E-01  0.12713051840E+00  0.18254216442E-01 0.  0.
         14    1    1    2    0    0 -0.11922714472E-01 -0.11986377338E-01 -0.18105802879E-01  0.24771848134E-01  0.00000000000E+00 0.  1.
     999901    1    3    3    0    0  0.12693602005E+00  0.27261798012E-01  0.66763313638E-01  0.89202763347E+00  0.88000000000E+00 0.  1.
        -11    1    4    4    0    0 -0.89196266476E-01 -0.57148140629E-02 -0.31930602556E-01  0.94912894559E-01  0.51100000000E-03 0. -1.
         11    1    4    4    0    0 -0.25817039106E-01 -0.95606066105E-02 -0.16726908202E-01  0.32217623841E-01  0.51100000000E-03 0.  1.
</event>
<event>
 8    1  0.1138737E+005  0.1043930E+01  0.7957747E-01            NaN
         13   -1    0    0    0    0  0.00000000000E+00  0.00000000000E+00  0.74505805969E-08  0.10566000000E+00  0.10566000000E+00 0. -1.
     999900   -1    0    0    0    0 -0.00000000000E+00 -0.00000000000E+00 -0.74505805969E-08  0.93827000000E+00  0.93827000000E+00 0.  1.
     999902    2    1    2    0    0 -0.10097546019E-01  0.14248397719E-01 -0.16188708104E-01  0.10201171559E+01  0.10198391835E+01 0.  0.
     999903    2    3    3    0    0  0.11181328465E+00 -0.45629711206E-01  0.37677588135E-01  0.12806939014E+00  0.19947101886E-01 0.  0.
         14    1    1    2    0    0  0.10097546019E-01 -0.14248397719E-01  0.16188708104E-01  0.23812844082E-01  0.00000000000E+00 0. -1.
     999901    1    3    3    0    0 -0.12191083067E+00  0.59878108925E-01 -0.53866296239E-01  0.89204776578E+00  0.88000000000E+00 0.  1.
        -11    1    4    4    0    0  0.51833264199E-01 -0.30850081048E-01  0.23125467363E-01  0.64602346242E-01  0.51100000000E-03 0. -1.
         11    1    4    4    0    0  0.59980020452E-01 -0.14779630158E-01  0.14552120772E-01  0.63467043897E-01  0.51100000000E-03 0.  1.
</event>
<event>
 8    1  0.1138737E+005  0.1043930E+01  0.7957747E-01            NaN
         13   -1    0    0    0    0  0.00000000000E+00  0.00000000000E+00  0.74505805969E-08  0.10566000000E+00  0.10566000000E+00 0.  1.
     999900   -1    0    0    0    0 -0.00000000000E+00 -0.00000000000E+00 -0.74505805969E-08  0.93827000000E+00  0.93827000000E+00 0. -1.
     999902    2    1    2    0    0 -0.13337225446E-01  0.60480191205E-03 -0.19785047895E-01  0.10200617054E+01  0.10197824215E+01 0.  0.
     999903    2    3    3    0    0 -0.68315742690E-02  0.12451072858E+00  0.30578024047E-01  0.12993169174E+00  0.19940838164E-01 0.  0.
         14    1    1    2    0    0  0.13337225446E-01 -0.60480191205E-03  0.19785047895E-01  0.23868294622E-01  0.00000000000E+00 0.  1.
     999901    1    3    3    0    0 -0.65056511772E-02 -0.12390592666E+00 -0.50363071942E-01  0.89013001364E+00  0.88000000000E+00 0.  1.
        -11    1    4    4    0    0  0.43531231096E-02  0.69186338300E-01  0.11031995041E-01  0.70197329891E-01  0.51100000000E-03 0.  1.
         11    1    4    4    0    0 -0.11184697379E-01  0.55324390276E-01  0.19546029005E-01  0.59734361851E-01  0.51100000000E-03 0. -1.
</event>
<event>
 8    1  0.1138737E+005  0.1043930E+01  0.7957747E-01            NaN
         13   -1    0    0    0    0  0.00000000000E+00  0.00000000000E+00  0.74505805969E-08  0.10566000000E+00  0.10566000000E+00 0.  1.
     999900   -1    0    0    0    0 -0.00000000000E+00 -0.00000000000E+00 -0.74505805969E-08  0.93827000000E+00  0.93827000000E+00 0.  1.
     999902    2    1    2    0    0  0.29946616897E-02 -0.75398766724E-02  0.22567929847E-01  0.10199481486E+01  0.10196661692E+01 0.  0.
     999903    2    3    3    0    0  0.11413246469E+00  0.55780551540E-01  0.22289125967E-01  0.13070062085E+00  0.21169736131E-01 0.  0.
         14    1    1    2    0    0 -0.29946616897E-02  0.75398766724E-02 -0.22567929847E-01  0.23981851397E-01  0.00000000000E+00 0. -1.
     999901    1    3    3    0    0 -0.11113780300E+00 -0.63320428212E-01  0.27880388011E-03  0.88924752775E+00  0.88000000000E+00 0. -1.
        -11    1    4    4    0    0  0.42054372642E-01  0.15155169838E-01 -0.10997123913E-02  0.44718228045E-01  0.51100000000E-03 0.  1.
         11    1    4    4    0    0  0.72078092047E-01  0.40625381702E-01  0.23388838358E-01  0.85982392804E-01  0.51100000000E-03 0. -1.
</event>
<event>
 8    1  0.1138737E+005  0.1043930E+01  0.7957747E-01            NaN
         13   -1    0    0    0    0  0.00000000000E+00  0.00000000000E+00  0.74505805969E-08  0.10566000000E+00  0.10566000000E+00 0.  1.
     999900   -1    0    0    0    0 -0.00000000000E+00 -0.00000000000E+00 -0.74505805969E-08  0.93827000000E+00  0.93827000000E+00 0.  1.
     999902    2    1    2    0    0 -0.33973342869E-02 -0.70979943156E-02  0.17288314236E-01  0.10249350214E+01  0.10247589906E+01 0.  0.
     999903    2    3    3    0    0  0.89284831976E-01  0.97329146944E-01 -0.49595152418E-02  0.13364944555E+00  0.19820026180E-01 0.  0.
         14    1    1    2    0    0  0.33973342869E-02  0.70979943156E-02 -0.17288314236E-01  0.18994978618E-01  0.00000000000E+00 0. -1.
     999901    1    3    3    0    0 -0.92682166263E-01 -0.10442714126E+00  0.22247829478E-01  0.89128557583E+00  0.88000000000E+00 0.  1.
        -11    1    4    4    0    0  0.34605725218E-01  0.47056249377E-01  0.53511589163E-02  0.58657845563E-01  0.51100000000E-03 0.  1.
         11    1    4    4    0    0  0.54679106758E-01  0.50272897567E-01 -0.10310674158E-01  0.74991599985E-01  0.51100000000E-03 0. -1.
</event>
<event>
 8    1  0.1138737E+005  0.1043930E+01  0.7957747E-01            NaN
         13   -1    0    0    0    0  0.00000000000E+00  0.00000000000E+00  0.74505805969E-08  0.10566000000E+00  0.10566000000E+00 0. -1.
     999900   -1    0    0    0    0 -0.00000000000E+00 -0.00000000000E+00 -0.74505805969E-08  0.93827000000E+00  0.93827000000E+00 0.  1.
     999902    2    1    2    0    0  0.61590830250E-02  0.16898372422E-01  0.16074842062E-01  0.10198076071E+01  0.10195222732E+01 0.  0.
     999903    2    3    3    0    0  0.99708103763E-01 -0.17601251455E-01  0.82423420583E-01  0.13169512701E+00  0.17276464035E-01 0.  0.
         14    1    1    2    0    0 -0.61590830250E-02 -0.16898372422E-01 -0.16074842062E-01  0.24122392948E-01  0.00000000000E+00 0.  1.
     999901    1    3    3    0    0 -0.93549020738E-01  0.34499623876E-01 -0.66348578521E-01  0.88811248004E+00  0.88000000000E+00 0.  1.
        -11    1    4    4    0    0  0.21945500943E-01  0.28386825826E-02  0.14723046228E-01  0.26583685630E-01  0.51100000000E-03 0. -1.
         11    1    4    4    0    0  0.77762602820E-01 -0.20439934037E-01  0.67700374355E-01  0.10511144138E+00  0.51100000000E-03 0.  1.
</event>
<event>
 8    1  0.1138737E+005  0.1043930E+01  0.7957747E-01            NaN
         13   -1    0    0    0    0  0.00000000000E+00  0.00000000000E+00  0.74505805969E-08  0.10566000000E+00  0.10566000000E+00 0. -1.
     999900   -1    0    0    0    0 -0.00000000000E+00 -0.00000000000E+00 -0.74505805969E-08  0.93827000000E+00  0.93827000000E+00 0.  1.
     999902    2    1    2    0    0 -0.21741203809E-01  0.11113482210E-01 -0.64520945382E-03  0.10195044862E+01  0.10192118483E+01 0.  0.
     999903    2    3    3    0    0 -0.12543066810E+00  0.38914560499E-01  0.57518001557E-03  0.13297987045E+00  0.20883476571E-01 0.  0.
         14    1    1    2    0    0  0.21741203809E-01 -0.11113482210E-01  0.64520945382E-03  0.24425513815E-01  0.00000000000E+00 0.  1.
     999901    1    3    3    0    0  0.10368946429E+00 -0.27801078289E-01 -0.12203894694E-02  0.88652461574E+00  0.88000000000E+00 0.  1.
        -11    1    4    4    0    0 -0.75220198667E-01  0.22242832357E-01  0.10523384504E-01  0.79144327789E-01  0.51100000000E-03 0. -1.
         11    1    4    4    0    0 -0.50210469431E-01  0.16671728143E-01 -0.99482044884E-02  0.53835542658E-01  0.51100000000E-03 0.  1.
</event>
<event>
 8    1  0.1138737E+005  0.1043930E+01  0.7957747E-01            NaN
         13   -1    0    0    0    0  0.00000000000E+00  0.00000000000E+00  0.74505805969E-08  0.10566000000E+00  0.10566000000E+00 0. -1.
     999900   -1    0    0    0    0 -0.00000000000E+00 -0.00000000000E+00 -0.74505805969E-08  0.93827000000E+00  0.93827000000E+00 0.  1.
     999902    2    1    2    0    0 -0.14366714545E-01 -0.18625740704E-01 -0.49186263779E-03  0.10204020882E+01  0.10201308049E+01 0.  0.
     999903    2    3    3    0    0  0.80266147128E-01 -0.26386267442E-01  0.97127632659E-01  0.12992740013E+00  0.17563108879E-01 0.  0.
         14    1    1    2    0    0  0.14366714545E-01  0.18625740704E-01  0.49186263779E-03  0.23527911774E-01  0.00000000000E+00 0.  1.
     999901    1    3    3    0    0 -0.94632861673E-01  0.77605267382E-02 -0.97619495297E-01  0.89047468810E+00  0.88000000000E+00 0. -1.
        -11    1    4    4    0    0  0.55713772293E-01 -0.11103059444E-01  0.57153857797E-01  0.80586146044E-01  0.51100000000E-03 0.  1.
         11    1    4    4    0    0  0.24552374835E-01 -0.15283207998E-01  0.39973774863E-01  0.49341254083E-01  0.51100000000E-03 0. -1.
</event>
<event>
 8    1  0.1138737E+005  0.1043930E+01  0.7957747E-01            NaN
         13   -1    0    0    0    0  0.00000000000E+00  0.00000000000E+00  0.74505805969E-08  0.10566000000E+00  0.10566000000E+00 0.  1.
     999900   -1    0    0    0    0 -0.00000000000E+00 -0.00000000000E+00 -0.74505805969E-08  0.93827000000E+00  0.93827000000E+00 0.  1.
     999902    2    1    2    0    0 -0.81645188402E-02  0.39709888349E-02 -0.21268575006E-01  0.10208046805E+01  0.10205427063E+01 0.  0.
     999903    2    3    3    0    0  0.83113798776E-01  0.94327933515E-01 -0.32403784423E-01  0.13141157189E+00  0.20330602371E-01 0.  0.
         14    1    1    2    0    0  0.81645188402E-02 -0.39709888349E-02  0.21268575006E-01  0.23125319522E-01  0.00000000000E+00 0.  1.
     999901    1    3    3    0    0 -0.91278317616E-01 -0.90356944681E-01  0.11135209417E-01  0.88939310859E+00  0.88000000000E+00 0.  1.
        -11    1    4    4    0    0  0.75074006621E-01  0.74304977523E-01 -0.24556183779E-01  0.10844631592E+00  0.51100000000E-03 0.  1.
         11    1    4    4    0    0  0.80397921543E-02  0.20022955993E-01 -0.78476006441E-02  0.22965255963E-01  0.51100000000E-03 0. -1.
</event>
<event>
 8    1  0.1138737E+005  0.1043930E+01  0.7957747E-01            NaN
         13   -1    0    0    0    0  0.00000000000E+00  0.00000000000E+00  0.74505805969E-08  0.10566000000E+00  0.10566000000E+00 0.  1.
     999900   -1    0    0    0    0 -0.00000000000E+00 -0.00000000000E+00 -0.74505805969E-08  0.93827000000E+00  0.93827000000E+00 0.  1.
     999902    2    1    2    0    0 -0.14686327215E-01 -0.15064997352E-01 -0.10371378524E-01  0.10204734904E+01  0.10202038702E+01 0.  0.
     999903    2    3    3    0    0 -0.79268752709E-02 -0.17482022695E-01  0.12705913122E+00  0.12977787612E+00  0.18160887561E-01 0.  0.
         14    1    1    2    0    0  0.14686327215E-01  0.15064997352E-01  0.10371378524E-01  0.23456509646E-01  0.00000000000E+00 0. -1.
     999901    1    3    3    0    0 -0.67594519442E-02  0.24170253431E-02 -0.13743050974E+00  0.89069561423E+00  0.88000000000E+00 0.  1.
        -11    1    4    4    0    0 -0.11219722783E-01 -0.19285878014E-01  0.10038607059E+00  0.10283701454E+00  0.51100000000E-03 0.  1.
         11    1    4    4    0    0  0.32928475120E-02  0.18038553184E-02  0.26673060625E-01  0.26940861584E-01  0.51100000000E-03 0. -1.
</event>
<event>
 8    1  0.1138737E+005  0.1043930E+01  0.7957747E-01            NaN
         13   -1    0    0    0    0  0.00000000000E+00  0.00000000000E+00  0.74505805969E-08  0.10566000000E+00  0.10566000000E+00 0.  1.
     999900   -1    0    0    0    0 -0.00000000000E+00 -0.00000000000E+00 -0.74505805969E-08  0.93827000000E+00  0.93827000000E+00 0.  1.
     999902    2    1    2    0    0 -0.78215304091E-02  0.21817503287E-01 -0.38080891808E-02  0.10204421025E+01  0.10201717518E+01 0.  0.
     999903    2    3    3    0    0 -0.12552005137E+00  0.94592759348E-02 -0.34390749068E-01  0.13199347327E+00  0.19869377616E-01 0.  0.
         14    1    1    2    0    0  0.78215304091E-02 -0.21817503287E-01  0.38080891808E-02  0.23487897539E-01  0.00000000000E+00 0.  1.
     999901    1    3    3    0    0  0.11769852097E+00  0.12358227352E-01  0.30582659887E-01  0.88844862919E+00  0.88000000000E+00 0. -1.
        -11    1    4    4    0    0 -0.25220122685E-01  0.82754556609E-02 -0.12408768547E-01  0.29304887178E-01  0.51100000000E-03 0.  1.
         11    1    4    4    0    0 -0.10029992869E+00  0.11838202739E-02 -0.21981980521E-01  0.10268858609E+00  0.51100000000E-03 0. -1.
</event>
<event>
 8    1  0.1138737E+005  0.1043930E+01  0.7957747E-01            NaN
         13   -1    0    0    0    0  0.00000000000E+00  0.00000000000E+00  0.74505805969E-08  0.10566000000E+00  0.10566000000E+00 0.  1.
     999900   -1    0    0    0    0 -0.00000000000E+00 -0.00000000000E+00 -0.74505805969E-08  0.93827000000E+00  0.93827000000E+00 0. -1.
     999902    2    1    2    0    0  0.24092438818E-02  0.22381740804E-01 -0.17879307016E-02  0.10213480720E+01  0.10210983991E+01 0.  0.
     999903    2    3    3    0    0  0.93095960086E-01 -0.34200962414E-01  0.82768244539E-01  0.13085639341E+00  0.20886593284E-01 0.  0.
         14    1    1    2    0    0 -0.24092438818E-02 -0.22381740804E-01  0.17879307016E-02  0.22581928033E-01  0.00000000000E+00 0.  1.
     999901    1    3    3    0    0 -0.90686716204E-01  0.56582703218E-01 -0.84556175241E-01  0.89049167855E+00  0.88000000000E+00 0. -1.
        -11    1    4    4    0    0  0.64444432670E-01 -0.23660443074E-01  0.69091012069E-01  0.97399848759E-01  0.51100000000E-03 0.  1.
         11    1    4    4    0    0  0.28651527416E-01 -0.10540519340E-01  0.13677232470E-01  0.33456544656E-01  0.51100000000E-03 0. -1.
</event>
<event>
 8    1  0.1138737E+005  0.1043930E+01  0.7957747E-01            NaN
         13   -1    0    0    0    0  0.00000000000E+00  0.00000000000E+00  0.74505805969E-08  0.10566000000E+00  0.10566000000E+00 0. -1.
     999900   -1    0    0    0    0 -0.00000000000E+00 -0.00000000000E+00 -0.74505805969E-08  0.93827000000E+00  0.93827000000E+00 0.  1.
     999902    2    1    2    0    0 -0.13859261237E-01 -0.17747174138E-01  0.11965732114E-01  0.10184305871E+01  0.10181113106E+01 0.  0.
     999903    2    3    3    0    0  0.31942103326E-01  0.11790741286E+00 -0.24197489379E-01  0.12612586868E+00  0.19994006248E-01 0.  0.
         14    1    1    2    0    0  0.13859261237E-01  0.17747174138E-01 -0.11965732114E-01  0.25499412874E-01  0.00000000000E+00 0.  1.
     999901    1    3    3    0    0 -0.45801364563E-01 -0.13565458700E+00  0.36163221493E-01  0.89230471844E+00  0.88000000000E+00 0. -1.
        -11    1    4    4    0    0  0.14151505371E-01  0.55061326087E-01 -0.21403277947E-01  0.60748466340E-01  0.51100000000E-03 0.  1.
         11    1    4    4    0    0  0.17790597955E-01  0.62846086774E-01 -0.27942114320E-02  0.65377402341E-01  0.51100000000E-03 0. -1.
</event>
<event>
 8    1  0.1138737E+005  0.1043930E+01  0.7957747E-01            NaN
         13   -1    0    0    0    0  0.00000000000E+00  0.00000000000E+00  0.74505805969E-08  0.10566000000E+00  0.10566000000E+00 0. -1.
     999900   -1    0    0    0    0 -0.00000000000E+00 -0.00000000000E+00 -0.74505805969E-08  0.93827000000E+00  0.93827000000E+00 0. -1.
     999902    2    1    2    0    0 -0.17048384799E-01  0.16553101878E-01 -0.13475773961E-02  0.10201293998E+01  0.10198517165E+01 0.  0.
     999903    2    3    3    0    0  0.96270409207E-01 -0.66475707029E-01  0.47280796935E-01  0.12766110848E+00  0.19361651422E-01 0.  0.
         14    1    1    2    0    0  0.17048384799E-01 -0.16553101878E-01  0.13475773961E-02  0.23800600221E-01  0.00000000000E+00 0. -1.
     999901    1    3    3    0    0 -0.11331879401E+00  0.83028808907E-01 -0.48628374331E-01  0.89246829130E+00  0.88000000000E+00 0. -1.
        -11    1    4    4    0    0  0.87794304516E-01 -0.64710696309E-01  0.47555858429E-01  0.11898375904E+00  0.51100000000E-03 0. -1.
         11    1    4    4    0    0  0.84761046907E-02 -0.17650107201E-02 -0.27506149379E-03  0.86773494452E-02  0.51100000000E-03 0.  1.
</event>
<event>
 8    1  0.1138737E+005  0.1043930E+01  0.7957747E-01            NaN
         13   -1    0    0    0    0  0.00000000000E+00  0.00000000000E+00  0.74505805969E-08  0.10566000000E+00  0.10566000000E+00 0.  1.
     999900   -1    0    0    0    0 -0.00000000000E+00 -0.00000000000E+00 -0.74505805969E-08  0.93827000000E+00  0.93827000000E+00 0.  1.
     999902    2    1    2    0    0  0.13376414173E-01  0.14244297215E-01 -0.13010601584E-01  0.10204543911E+01  0.10201843265E+01 0.  0.
     999903    2    3    3    0    0 -0.67450636156E-01  0.53285772771E-01  0.94520340237E-01  0.12937630680E+00  0.20375773511E-01 0.  0.
         14    1    1    2    0    0 -0.13376414173E-01 -0.14244297215E-01  0.13010601584E-01  0.23475608892E-01  0.00000000000E+00 0.  1.
     999901    1    3    3    0    0  0.80827050329E-01 -0.39041475556E-01 -0.10753094182E+00  0.89107808430E+00  0.88000000000E+00 0.  1.
        -11    1    4    4    0    0 -0.48854959966E-01  0.45205909682E-01  0.81698549144E-01  0.10538166556E+00  0.51100000000E-03 0. -1.
         11    1    4    4    0    0 -0.18595676190E-01  0.80798630888E-02  0.12821791092E-01  0.23994641241E-01  0.51100000000E-03 0.  1.
</event>
<event>
 8    1  0.1138737E+005  0.1043930E+01  0.7957747E-01            NaN
         13   -1    0    0    0    0  0.00000000000E+00  0.00000000000E+00  0.74505805969E-08  0.10566000000E+00  0.10566000000E+00 0.  1.
     999900   -1    0    0    0    0 -0.00000000000E+00 -0.00000000000E+00 -0.74505805969E-08  0.93827000000E+00  0.93827000000E+00 0. -1.
     999902    2    1    2    0    0 -0.11528322851E-01 -0.16260066309E-01 -0.11740792868E-01  0.10207969457E+01  0.10205347942E+01 0.  0.
     999903    2    3    3    0    0 -0.13481609954E-01  0.10955774994E+00  0.63019392203E-01  0.12870781143E+00  0.20238639991E-01 0.  0.
         14    1    1    2    0    0  0.11528322851E-01  0.16260066309E-01  0.11740792868E-01  0.23133054301E-01  0.00000000000E+00 0.  1.
     999901    1    3    3    0    0  0.19532871022E-02 -0.12581781625E+00 -0.74760185071E-01  0.89208913427E+00  0.88000000000E+00 0. -1.
        -11    1    4    4    0    0 -0.17908700938E-01  0.73628823530E-01  0.38638674157E-01  0.85059587851E-01  0.51100000000E-03 0.  1.
         11    1    4    4    0    0  0.44270909840E-02  0.35928926413E-01  0.24380718047E-01  0.43648223575E-01  0.51100000000E-03 0. -1.
</event>
<event>
 8    1  0.1138737E+005  0.1043930E+01  0.7957747E-01            NaN
         13   -1    0    0    0    0  0.00000000000E+00  0.00000000000E+00  0.74505805969E-08  0.10566000000E+00  0.10566000000E+00 0.  1.
     999900   -1    0    0    0    0 -0.00000000000E+00 -0.00000000000E+00 -0.74505805969E-08  0.93827000000E+00  0.93827000000E+00 0.  1.
     999902    2    1    2    0    0  0.20766904689E-01 -0.85080125477E-02 -0.26451721142E-02  0.10213324881E+01  0.10210824667E+01 0.  0.
     999903    2    3    3    0    0 -0.63750847485E-01 -0.36964182055E-01  0.10546074343E+00  0.13024332704E+00  0.20269053310E-01 0.  0.
         14    1    1    2    0    0 -0.20766904689E-01  0.85080125477E-02  0.26451721142E-02  0.22597511885E-01  0.00000000000E+00 0. -1.
     999901    1    3    3    0    0  0.84517752174E-01  0.28456169507E-01 -0.10810591555E+00  0.89108916108E+00  0.88000000000E+00 0. -1.
        -11    1    4    4    0    0 -0.37363661023E-01 -0.18797016978E-01  0.75832147956E-01  0.86603387906E-01  0.51100000000E-03 0. -1.
         11    1    4    4    0    0 -0.26387186462E-01 -0.18167165077E-01  0.29628595477E-01  0.43639939130E-01  0.51100000000E-03 0.  1.
</event>
<event>
 8    1  0.1138737E+005  0.1043930E+01  0.7957747E-01            NaN
         13   -1    0    0    0    0  0.00000000000E+00  0.00000000000E+00  0.74505805969E-08  0.10566000000E+00  0.10566000000E+00 0. -1.
     999900   -1    0    0    0    0 -0.00000000000E+00 -0.00000000000E+00 -0.74505805969E-08  0.93827000000E+00  0.93827000000E+00 0. -1.
     999902    2    1    2    0    0  0.17409936510E-01 -0.74290271240E-02  0.14005438320E-01  0.10203832670E+01  0.10201115443E+01 0.  0.
     999903    2    3    3    0    0  0.10845485270E-02 -0.52404009075E-01  0.11995755440E+00  0.13273743773E+00  0.21955776065E-01 0.  0.
         14    1    1    2    0    0 -0.17409936510E-01  0.74290271240E-02 -0.14005438320E-01  0.23546733018E-01  0.00000000000E+00 0.  1.
     999901    1    3    3    0    0  0.16325387983E-01  0.44974981951E-01 -0.10595211608E+00  0.88764582926E+00  0.88000000000E+00 0. -1.
        -11    1    4    4    0    0  0.10599787431E-01 -0.16024983546E-01  0.41013929179E-01  0.45294139786E-01  0.51100000000E-03 0. -1.
         11    1    4    4    0    0 -0.95152389044E-02 -0.36379025528E-01  0.78943625226E-01  0.87443297940E-01  0.51100000000E-03 0.  1.
</event>
<event>
 8    1  0.1138737E+005  0.1043930E+01  0.7957747E-01            NaN
         13   -1    0    0    0    0  0.00000000000E+00  0.00000000000E+00  0.74505805969E-08  0.10566000000E+00  0.10566000000E+00 0.  1.
     999900   -1    0    0    0    0 -0.00000000000E+00 -0.00000000000E+00 -0.74505805969E-08  0.93827000000E+00  0.93827000000E+00 0. -1.
     999902    2    1    2    0    0 -0.13386291965E-01  0.19350060906E-01 -0.11976228663E-03  0.10204006138E+01  0.10201292961E+01 0.  0.
     999903    2    3    3    0    0  0.79196577282E-01  0.10313737579E+00  0.53038424940E-02  0.13156918028E+00  0.19310678784E-01 0.  0.
         14    1    1    2    0    0  0.13386291965E-01 -0.19350060906E-01  0.11976228663E-03  0.23529386150E-01  0.00000000000E+00 0. -1.
     999901    1    3    3    0    0 -0.92582869247E-01 -0.83787314889E-01 -0.54236047806E-02  0.88883143357E+00  0.88000000000E+00 0. -1.
        -11    1    4    4    0    0  0.23359444028E-01  0.17526332812E-01 -0.20941023854E-03  0.29208576494E-01  0.51100000000E-03 0. -1.
         11    1    4    4    0    0  0.55837133254E-01  0.85611042983E-01  0.55132527325E-02  0.10236060379E+00  0.51100000000E-03 0.  1.
</event>
<event>
 8    1  0.1138737E+005  0.1043930E+01  0.7957747E-01            NaN
         13   -1    0    0    0    0  0.00000000000E+00  0.00000000000E+00  0.74505805969E-08  0.10566000000E+00  0.10566000000E+00 0. -1.
     999900   -1    0    0    0    0 -0.00000000000E+00 -0.00000000000E+00 -0.74505805969E-08  0.93827000000E+00  0.93827000000E+00 0.  1.
     999902    2    1    2    0    0  0.91535118780E-02 -0.21075605379E-01 -0.38613209500E-02  0.10206302635E+01  0.10203642766E+01 0.  0.
     999903    2    3    3    0    0 -0.93337713412E-01  0.32403019446E-01  0.82067968758E-01  0.12891940374E+00  0.11098502166E-01 0.  0.
         14    1    1    2    0    0 -0.91535118780E-02  0.21075605379E-01  0.38613209500E-02  0.23299736506E-01  0.00000000000E+00 0. -1.
     999901    1    3    3    0    0  0.10249122529E+00 -0.53478624825E-01 -0.85929289708E-01  0.89171085975E+00  0.88000000000E+00 0.  1.
        -11    1    4    4    0    0 -0.65394029589E-01  0.17262528496E-01  0.55481214967E-01  0.87480285385E-01  0.51100000000E-03 0.  1.
         11    1    4    4    0    0 -0.27943683823E-01  0.15140490950E-01  0.26586753791E-01  0.41439118354E-01  0.51100000000E-03 0. -1.
</event>
<event>
 8    1  0.1138737E+005  0.1043930E+01  0.7957747E-01            NaN
         13   -1    0    0    0    0  0.00000000000E+00  0.00000000000E+00  0.74505805969E-08  0.10566000000E+00  0.10566000000E+00 0.  1.
     999900   -1    0    0    0    0 -0.00000000000E+00 -0.00000000000E+00 -0.74505805969E-08  0.93827000000E+00  0.93827000000E+00 0.  1.
     999902    2    1    2    0    0 -0.22590346294E-01 -0.94040674512E-03  0.66225072366E-02  0.10203701674E+01  0.10200981388E+01 0.  0.
     999903    2    3    3    0    0  0.72936447296E-01  0.96661738668E-01 -0.38862890153E-01  0.12867488958E+00  0.19587902186E-01 0.  0.
         14    1    1    2    0    0  0.22590346294E-01  0.94040674512E-03 -0.66225072366E-02  0.23559832611E-01  0.00000000000E+00 0.  1.
     999901    1    3    3    0    0 -0.95526793590E-01 -0.97602145414E-01  0.45485397390E-01  0.89169527780E+00  0.88000000000E+00 0. -1.
        -11    1    4    4    0    0  0.21792035665E-01  0.27732452513E-01 -0.22075565636E-02  0.35342837574E-01  0.51100000000E-03 0.  1.
         11    1    4    4    0    0  0.51144411631E-01  0.68929286156E-01 -0.36655333590E-01  0.93332052011E-01  0.51100000000E-03 0. -1.
</event>
<event>
 8    1  0.1138737E+005  0.1043930E+01  0.7957747E-01            NaN
         13   -1    0    0    0    0  0.00000000000E+00  0.00000000000E+00  0.74505805969E-08  0.10566000000E+00  0.10566000000E+00 0.  1.
     999900   -1    0    0    0    0 -0.00000000000E+00 -0.00000000000E+00 -0.74505805969E-08  0.93827000000E+00  0.93827000000E+00 0.  1.
     999902    2    1    2    0    0 -0.96279067518E-02 -0.15709752034E-01  0.14882112143E-01  0.10202451914E+01  0.10199702350E+01 0.  0.
     999903    2    3    3    0    0  0.29890357895E-01 -0.10850644192E+00  0.67700162135E-01  0.13291060663E+00  0.20367522412E-01 0.  0.
         14    1    1    2    0    0  0.96279067518E-02  0.15709752034E-01 -0.14882112143E-01  0.23684808617E-01  0.00000000000E+00 0. -1.
     999901    1    3    3    0    0 -0.39518264647E-01  0.92796689882E-01 -0.52818049992E-01  0.88733458475E+00  0.88000000000E+00 0.  1.
        -11    1    4    4    0    0  0.18413929423E-01 -0.46124536955E-01  0.19985938611E-01  0.53537319407E-01  0.51100000000E-03 0. -1.
         11    1    4    4    0    0  0.11476428472E-01 -0.62381904961E-01  0.47714223524E-01  0.79373287223E-01  0.51100000000E-03 0.  1.
</event>
<event>
 8    1  0.1138737E+005  0.1043930E+01  0.7957747E-01            NaN
         13   -1    0    0    0    0  0.00000000000E+00  0.00000000000E+00  0.74505805969E-08  0.10566000000E+00  0.10566000000E+00 0.  1.
     999900   -1    0    0    0    0 -0.00000000000E+00 -0.00000000000E+00 -0.74505805969E-08  0.93827000000E+00  0.93827000000E+00 0.  1.
     999902    2    1    2    0    0 -0.23794180667E-01  0.27382589878E-02  0.17100855527E-02  0.10199178054E+01  0.10196351035E+01 0.  0.
     999903    2    3    3    0    0  0.42354548098E-01  0.53406840560E-01 -0.10786141554E+00  0.12921646753E+00  0.20411079206E-01 0.  0.
         14    1    1    2    0    0  0.23794180667E-01 -0.27382589878E-02 -0.17100855527E-02  0.24012194579E-01  0.00000000000E+00 0. -1.
     999901    1    3    3    0    0 -0.66148728764E-01 -0.50668581572E-01  0.10957150109E+00  0.89070133789E+00  0.88000000000E+00 0. -1.
        -11    1    4    4    0    0  0.25817464940E-01  0.17701589827E-01 -0.40325407194E-01  0.51051810592E-01  0.51100000000E-03 0.  1.
         11    1    4    4    0    0  0.16537083157E-01  0.35705250733E-01 -0.67536008347E-01  0.78164656935E-01  0.51100000000E-03 0. -1.
</event>
<event>
 8    1  0.1138737E+005  0.1043930E+01  0.7957747E-01            NaN
         13   -1    0    0    0    0  0.00000000000E+00  0.00000000000E+00  0.74505805969E-08  0.10566000000E+00  0.10566000000E+00 0. -1.
     999900   -1    0    0    0    0 -0.00000000000E+00 -0.00000000000E+00 -0.74505805969E-08  0.93827000000E+00  0.93827000000E+00 0. -1.
     999902    2    1    2    0    0 -0.16182817996E-01 -0.12105575155E-01  0.12721226588E-01  0.10200499214E+01  0.10197703585E+01 0.  0.
     999903    2    3    3    0    0  0.11631832825E+00  0.49029815141E-01  0.71275333675E-03  0.12795222880E+00  0.20913837009E-01 0.  0.
         14    1    1    2    0    0  0.16182817996E-01  0.12105575155E-01 -0.12721226588E-01  0.23880078602E-01  0.00000000000E+00 0.  1.
     999901    1    3    3    0    0 -0.13250114625E+00 -0.61135390296E-01  0.12008473251E-01  0.89209769260E+00  0.88000000000E+00 0.  1.
        -11    1    4    4    0    0  0.84556226709E-01  0.25487693582E-01 -0.17960497996E-02  0.88333826563E-01  0.51100000000E-03 0. -1.
         11    1    4    4    0    0  0.31762101543E-01  0.23542121559E-01  0.25088031364E-02  0.39618402240E-01  0.51100000000E-03 0.  1.
</event>
<event>
 8    1  0.1138737E+005  0.1043930E+01  0.7957747E-01            NaN
         13   -1    0    0    0    0  0.00000000000E+00  0.00000000000E+00  0.74505805969E-08  0.10566000000E+00  0.10566000000E+00 0.  1.
     999900   -1    0    0    0    0 -0.00000000000E+00 -0.00000000000E+00 -0.74505805969E-08  0.93827000000E+00  0.93827000000E+00 0. -1.
     999902    2    1    2    0    0 -0.21105260309E-01  0.51039033503E-02  0.35697704328E-03  0.10222134332E+01  0.10219827267E+01 0.  0.
     999903    2    3    3    0    0 -0.22089429719E-01  0.38375008388E-01 -0.12371148251E+00  0.13288733006E+00  0.19847604691E-01 0.  0.
         14    1    1    2    0    0  0.21105260309E-01 -0.51039033503E-02 -0.35697704328E-03  0.21716566826E-01  0.00000000000E+00 0. -1.
     999901    1    3    3    0    0  0.98416941030E-03 -0.33271105038E-01  0.12406845955E+00  0.88932610311E+00  0.88000000000E+00 0.  1.
        -11    1    4    4    0    0 -0.13104235948E-01  0.17203816263E-01 -0.86291063658E-01  0.88961233591E-01  0.51100000000E-03 0.  1.
         11    1    4    4    0    0 -0.89851937711E-02  0.21171192125E-01 -0.37420418853E-01  0.43926096472E-01  0.51100000000E-03 0. -1.
</event>
<event>
 8    1  0.1138737E+005  0.1043930E+01  0.7957747E-01            NaN
         13   -1    0    0    0    0  0.00000000000E+00  0.00000000000E+00  0.74505805969E-08  0.10566000000E+00  0.10566000000E+00 0.  1.
     999900   -1    0    0    0    0 -0.00000000000E+00 -0.00000000000E+00 -0.74505805969E-08  0.93827000000E+00  0.93827000000E+00 0. -1.
     999902    2    1    2    0    0 -0.16331291321E-01  0.81581456288E-02  0.14990489002E-01  0.10203083748E+01  0.10200349006E+01 0.  0.
     999903    2    3    3    0    0 -0.66582429601E-01  0.52498959370E-01  0.10123387962E+00  0.13355631978E+00  0.19990785509E-01 0.  0.
         14    1    1    2    0    0  0.16331291321E-01 -0.81581456288E-02 -0.14990489002E-01  0.23621625195E-01  0.00000000000E+00 0. -1.
     999901    1    3    3    0    0  0.50251138280E-01 -0.44340813741E-01 -0.86243390614E-01  0.88675205502E+00  0.88000000000E+00 0. -1.
        -11    1    4    4    0    0 -0.19704413974E-01  0.17900996518E-01  0.46669251210E-01  0.53730715014E-01  0.51100000000E-03 0.  1.
         11    1    4    4    0    0 -0.46878015627E-01  0.34597962852E-01  0.54564628406E-01  0.79825604769E-01  0.51100000000E-03 0. -1.
</event>
<event>
 8    1  0.1138737E+005  0.1043930E+01  0.7957747E-01            NaN
         13   -1    0    0    0    0  0.00000000000E+00  0.00000000000E+00  0.74505805969E-08  0.10566000000E+00  0.10566000000E+00 0.  1.
     999900   -1    0    0    0    0 -0.00000000000E+00 -0.00000000000E+00 -0.74505805969E-08  0.93827000000E+00  0.93827000000E+00 0. -1.
     999902    2    1    2    0    0  0.18990590375E-01  0.13286748183E-01 -0.65591260382E-02  0.10198426105E+01  0.10195581140E+01 0.  0.
     999903    2    3    3    0    0  0.12330194806E+00  0.31342657925E-01  0.31772622165E-01  0.13266946043E+00  0.20148290522E-01 0.  0.
         14    1    1    2    0    0 -0.18990590375E-01 -0.13286748183E-01  0.65591260382E-02  0.24087389532E-01  0.00000000000E+00 0. -1.
     999901    1    3    3    0    0 -0.10431135769E+00 -0.18055909741E-01 -0.38331748204E-01  0.88717315003E+00  0.88000000000E+00 0.  1.
        -11    1    4    4    0    0  0.70319485911E-01  0.17703937654E-01  0.77935235267E-02  0.72933254673E-01  0.51100000000E-03 0.  1.
         11    1    4    4    0    0  0.52982462152E-01  0.13638720271E-01  0.23979098639E-01  0.59736205762E-01  0.51100000000E-03 0. -1.
</event>
<event>
 8    1  0.1138737E+005  0.1043930E+01  0.7957747E-01            NaN
         13   -1    0    0    0    0  0.00000000000E+00  0.00000000000E+00  0.74505805969E-08  0.10566000000E+00  0.10566000000E+00 0.  1.
     999900   -1    0    0    0    0 -0.00000000000E+00 -0.00000000000E+00 -0.74505805969E-08  0.93827000000E+00  0.93827000000E+00 0. -1.
     999902    2    1    2    0    0  0.12461979309E-01 -0.20224780806E-01  0.64429789234E-02  0.10193158849E+01  0.10190186546E+01 0.  0.
     999903    2    3    3    0    0  0.11020372080E+00 -0.70911661850E-01  0.14960774279E-01  0.13241388307E+00  0.11674236442E-01 0.  0.
         14    1    1    2    0    0 -0.12461979309E-01  0.20224780806E-01 -0.64429789234E-02  0.24614115145E-01  0.00000000000E+00 0. -1.
     999901    1    3    3    0    0 -0.97741741494E-01  0.50686881044E-01 -0.85177953554E-02  0.88690200179E+00  0.88000000000E+00 0. -1.
        -11    1    4    4    0    0  0.17914922047E-01 -0.12735070745E-01 -0.17045719796E-02  0.22052055357E-01  0.51100000000E-03 0.  1.
         11    1    4    4    0    0  0.92288798755E-01 -0.58176591105E-01  0.16665346258E-01  0.11036182771E+00  0.51100000000E-03 0. -1.
</event>
<event>
 8    1  0.1138737E+005  0.1043930E+01  0.7957747E-01            NaN
         13   -1    0    0    0    0  0.00000000000E+00  0.00000000000E+00  0.74505805969E-08  0.10566000000E+00  0.10566000000E+00 0. -1.
     999900   -1    0    0    0    0 -0.00000000000E+00 -0.00000000000E+00 -0.74505805969E-08  0.93827000000E+00  0.93827000000E+00 0. -1.
     999902    2    1    2    0    0 -0.13094451252E-01  0.18448947748E-01 -0.80736142552E-02  0.10199089348E+01  0.10196260215E+01 0.  0.
     999903    2    3    3    0    0 -0.99182652992E-03  0.12004745231E+00  0.51242005692E-01  0.13199729931E+00  0.19625731876E-01 0.  0.
         14    1    1    2    0    0  0.13094451252E-01 -0.18448947748E-01  0.80736142552E-02  0.24021065208E-01  0.00000000000E+00 0. -1.
     999901    1    3    3    0    0 -0.12102624722E-01 -0.10159850456E+00 -0.59315619947E-01  0.88791163548E+00  0.88000000000E+00 0.  1.
        -11    1    4    4    0    0  0.24048348783E-02  0.39874718726E-01  0.76537992287E-02  0.40676998266E-01  0.51100000000E-03 0. -1.
         11    1    4    4    0    0 -0.33966614082E-02  0.80172733584E-01  0.43588206463E-01  0.91320301044E-01  0.51100000000E-03 0.  1.
</event>
<event>
 7    1  0.1138737E+005  0.1043930E+01  0.7957747E-01            NaN
         13   -1    0    0    0    0  0.00000000000E+00  0.00000000000E+00  0.74505805969E-08  0.10566000000E+00  0.10566000000E+00 0. -1.
     999900   -1    0    0    0    0 -0.00000000000E+00 -0.00000000000E+00 -0.74505805969E-08  0.93827000000E+00  0.93827000000E+00 0.  1.
     999903    2    1    2    0    0 -0.20100567263E-01 -0.91015597920E-01 -0.11457287115E+00  0.14823676367E+00  0.12622338551E-01 0.  0.
         14    1    1    2    0    0 -0.58309485388E-03  0.29146560823E-02  0.26833955234E-02  0.40044763980E-02  0.00000000000E+00 0. -1.
     999901    1    1    2    0    0  0.20683662117E-01  0.88100941837E-01  0.11188947563E+00  0.89168875993E+00  0.88000000000E+00 0. -1.
        -11    1    3    3    0    0 -0.26682700894E-02 -0.29768018389E-01 -0.29792674926E-01  0.42203307741E-01  0.51100000000E-03 0. -1.
         11    1    3    3    0    0 -0.17432297174E-01 -0.61247579531E-01 -0.84780196226E-01  0.10603345593E+00  0.51100000000E-03 0.  1.
</event>
<event>
 8    1  0.1138737E+005  0.1043930E+01  0.7957747E-01            NaN
         13   -1    0    0    0    0  0.00000000000E+00  0.00000000000E+00  0.74505805969E-08  0.10566000000E+00  0.10566000000E+00 0.  1.
     999900   -1    0    0    0    0 -0.00000000000E+00 -0.00000000000E+00 -0.74505805969E-08  0.93827000000E+00  0.93827000000E+00 0.  1.
     999902    2    1    2    0    0  0.13526521332E-01 -0.15262896436E-01  0.11628324364E-01  0.10204536137E+01  0.10201835310E+01 0.  0.
     999903    2    3    3    0    0  0.10824974695E-01 -0.10295814935E+00  0.81932363990E-01  0.13330063154E+00  0.18400693046E-01 0.  0.
         14    1    1    2    0    0 -0.13526521332E-01  0.15262896436E-01 -0.11628324364E-01  0.23476386316E-01  0.00000000000E+00 0.  1.
     999901    1    3    3    0    0  0.27015466375E-02  0.87695252918E-01 -0.70304039625E-01  0.88715298214E+00  0.88000000000E+00 0.  1.
        -11    1    4    4    0    0  0.48963638191E-03 -0.52973275021E-01  0.51435193504E-01  0.73839338174E-01  0.51100000000E-03 0. -1.
         11    1    4    4    0    0  0.10335338313E-01 -0.49984874333E-01  0.30497170486E-01  0.59461293366E-01  0.51100000000E-03 0.  1.
</event>
<event>
 8    1  0.1138737E+005  0.1043930E+01  0.7957747E-01            NaN
         13   -1    0    0    0    0  0.00000000000E+00  0.00000000000E+00  0.74505805969E-08  0.10566000000E+00  0.10566000000E+00 0. -1.
     999900   -1    0    0    0    0 -0.00000000000E+00 -0.00000000000E+00 -0.74505805969E-08  0.93827000000E+00  0.93827000000E+00 0.  1.
     999902    2    1    2    0    0  0.20328248506E-01  0.86366394221E-02 -0.80595448274E-02  0.10204186093E+01  0.10201477113E+01 0.  0.
     999903    2    3    3    0    0  0.87411037319E-01  0.27321593455E-01 -0.94660391724E-01  0.13342992016E+00  0.21349354025E-01 0.  0.
         14    1    1    2    0    0 -0.20328248506E-01 -0.86366394221E-02  0.80595448274E-02  0.23511390657E-01  0.00000000000E+00 0.  1.
     999901    1    3    3    0    0 -0.67082788814E-01 -0.18684954033E-01  0.86600846897E-01  0.88698868919E+00  0.88000000000E+00 0.  1.
        -11    1    4    4    0    0  0.30012598322E-01 -0.14531166673E-03 -0.24841881369E-01  0.38963538911E-01  0.51100000000E-03 0. -1.
         11    1    4    4    0    0  0.57398438997E-01  0.27466905121E-01 -0.69818510355E-01  0.94466381245E-01  0.51100000000E-03 0.  1.
</event>
<event>
 8    1  0.1138737E+005  0.1043930E+01  0.7957747E-01            NaN
         13   -1    0    0    0    0  0.00000000000E+00  0.00000000000E+00  0.74505805969E-08  0.10566000000E+00  0.10566000000E+00 0. -1.
     999900   -1    0    0    0    0 -0.00000000000E+00 -0.00000000000E+00 -0.74505805969E-08  0.93827000000E+00  0.93827000000E+00 0. -1.
     999902    2    1    2    0    0 -0.79281847844E-02  0.23110685104E-01 -0.51314378619E-02  0.10189641927E+01  0.10186583011E+01 0.  0.
     999903    2    3    3    0    0 -0.33599014993E-02 -0.11652295875E+00  0.44690170790E-01  0.12655138665E+00  0.20716014137E-01 0.  0.
         14    1    1    2    0    0  0.79281847844E-02 -0.23110685104E-01  0.51314378619E-02  0.24965807307E-01  0.00000000000E+00 0.  1.
     999901    1    3    3    0    0 -0.45682832852E-02  0.13963364386E+00 -0.49821608652E-01  0.89241280605E+00  0.88000000000E+00 0.  1.
        -11    1    4    4    0    0  0.41758362287E-02 -0.41648030216E-01  0.71983033467E-02  0.42474377231E-01  0.51100000000E-03 0. -1.
         11    1    4    4    0    0 -0.75357377280E-02 -0.74874928539E-01  0.37491867443E-01  0.84077009415E-01  0.51100000000E-03 0.  1.
</event>
<event>
 8    1  0.1138737E+005  0.1043930E+01  0.7957747E-01            NaN
         13   -1    0    0    0    0  0.00000000000E+00  0.00000000000E+00  0.74505805969E-08  0.10566000000E+00  0.10566000000E+00 0.  1.
     999900   -1    0    0    0    0 -0.00000000000E+00 -0.00000000000E+00 -0.74505805969E-08  0.93827000000E+00  0.93827000000E+00 0.  1.
     999902    2    1    2    0    0  0.16620050993E-01  0.29714006806E-02 -0.17078480292E-01  0.10199148005E+01  0.10196320270E+01 0.  0.
     999903    2    3    3    0    0  0.10411815985E+00 -0.62335348740E-01 -0.49700096020E-01  0.13256759655E+00  0.19436594316E-01 0.  0.
         14    1    1    2    0    0 -0.16620050993E-01 -0.29714006806E-02  0.17078480292E-01  0.24015199481E-01  0.00000000000E+00 0.  1.
     999901    1    3    3    0    0 -0.87498108856E-01  0.65306749421E-01  0.32621615728E-01  0.88734720397E+00  0.88000000000E+00 0.  1.
        -11    1    4    4    0    0  0.96706054673E-01 -0.57123915107E-01 -0.51079907097E-01  0.12338808985E+00  0.51100000000E-03 0. -1.
         11    1    4    4    0    0  0.74121051761E-02 -0.52114336331E-02  0.13798110766E-02  0.91795067003E-02  0.51100000000E-03 0.  1.
</event>
<event>
 8    1  0.1138737E+005  0.1043930E+01  0.7957747E-01            NaN
         13   -1    0    0    0    0  0.00000000000E+00  0.00000000000E+00  0.74505805969E-08  0.10566000000E+00  0.10566000000E+00 0.  1.
     999900   -1    0    0    0    0 -0.00000000000E+00 -0.00000000000E+00 -0.74505805969E-08  0.93827000000E+00  0.93827000000E+00 0. -1.
     999902    2    1    2    0    0  0.19212379363E-01 -0.13859942211E-01  0.49144870758E-02  0.10197356680E+01  0.10194486092E+01 0.  0.
     999903    2    3    3    0    0  0.78172846474E-02  0.34172698703E-01 -0.12312583571E+00  0.12910032900E+00  0.16674539038E-01 0.  0.
         14    1    1    2    0    0 -0.19212379363E-01  0.13859942211E-01 -0.49144870758E-02  0.24194332024E-01  0.00000000000E+00 0.  1.
     999901    1    3    3    0    0  0.11395094715E-01 -0.48032640913E-01  0.12804032279E+00  0.89063533898E+00  0.88000000000E+00 0.  1.
        -11    1    4    4    0    0  0.11398926460E-01  0.21668524966E-01 -0.63239349591E-01  0.67815462516E-01  0.51100000000E-03 0. -1.
         11    1    4    4    0    0 -0.35816418127E-02  0.12504173736E-01 -0.59886486120E-01  0.61284866482E-01  0.51100000000E-03 0.  1.
</event>
<event>
 8    1  0.1138737E+005  0.1043930E+01  0.7957747E-01            NaN
         13   -1    0    0    0    0  0.00000000000E+00  0.00000000000E+00  0.74505805969E-08  0.10566000000E+00  0.10566000000E+00 0.  1.
     999900   -1    0    0    0    0 -0.00000000000E+00 -0.00000000000E+00 -0.74505805969E-08  0.93827000000E+00  0.93827000000E+00 0. -1.
     999902    2    1    2    0    0  0.22733835043E-01 -0.33331025625E-02  0.49487491288E-02  0.10204262355E+01  0.10201555152E+01 0.  0.
     999903    2    3    3    0    0 -0.53201365360E-02 -0.50779424426E-02 -0.12808759733E+00  0.12998323379E+00  0.20859509241E-01 0.  0.
         14    1    1    2    0    0 -0.22733835043E-01  0.33331025625E-02 -0.49487491288E-02  0.23503764516E-01  0.00000000000E+00 0.  1.
     999901    1    3    3    0    0  0.28053971579E-01  0.17448398801E-02  0.13303634645E+00  0.89044300169E+00  0.88000000000E+00 0.  1.
        -11    1    4    4    0    0  0.37164841691E-02  0.52654493582E-02 -0.69724292502E-01  0.70023391074E-01  0.51100000000E-03 0.  1.
         11    1    4    4    0    0 -0.90366207051E-02 -0.10343391801E-01 -0.58363304823E-01  0.59959842717E-01  0.51100000000E-03 0. -1.
</event>
<event>
 8    1  0.1138737E+005  0.1043930E+01  0.7957747E-01            NaN
         13   -1    0    0    0    0  0.00000000000E+00  0.00000000000E+00  0.74505805969E-08  0.10566000000E+00  0.10566000000E+00 0. -1.
     999900   -1    0    0    0    0 -0.00000000000E+00 -0.00000000000E+00 -0.74505805969E-08  0.93827000000E+00  0.93827000000E+00 0.  1.
     999902    2    1    2    0    0  0.21902338548E-02  0.76414014774E-02 -0.22273086470E-01  0.10202809298E+01  0.10200068123E+01 0.  0.
     999903    2    3    3    0    0  0.19920820684E-01  0.28273202841E-01 -0.12755666772E+00  0.13358781635E+00  0.19462479348E-01 0.  0.
         14    1    1    2    0    0 -0.21902338548E-02 -0.76414014774E-02  0.22273086470E-01  0.23649070210E-01  0.00000000000E+00 0.  1.
     999901    1    3    3    0    0 -0.17730586829E-01 -0.20631801363E-01  0.10528358125E+00  0.88669311344E+00  0.88000000000E+00 0. -1.
        -11    1    4    4    0    0 -0.14205516880E-02  0.13403998114E-01 -0.37676510843E-01  0.40018317342E-01  0.51100000000E-03 0.  1.
         11    1    4    4    0    0  0.21341372372E-01  0.14869204726E-01 -0.89880156877E-01  0.93569499011E-01  0.51100000000E-03 0. -1.
</event>
<event>
 8    1  0.1138737E+005  0.1043930E+01  0.7957747E-01            NaN
         13   -1    0    0    0    0  0.00000000000E+00  0.00000000000E+00  0.74505805969E-08  0.10566000000E+00  0.10566000000E+00 0.  1.
     999900   -1    0    0    0    0 -0.00000000000E+00 -0.00000000000E+00 -0.74505805969E-08  0.93827000000E+00  0.93827000000E+00 0.  1.
     999902    2    1    2    0    0  0.15993635204E-01  0.60911646365E-02  0.17630161695E-01  0.10193592602E+01  0.10190630893E+01 0.  0.
     999903    2    3    3    0    0  0.86417772522E-01 -0.25946128559E-01  0.94986957193E-01  0.13258419227E+00  0.20366958718E-01 0.  0.
         14    1    1    2    0    0 -0.15993635204E-01 -0.60911646365E-02 -0.17630161695E-01  0.24570739815E-01  0.00000000000E+00 0. -1.
     999901    1    3    3    0    0 -0.70424137318E-01  0.32037293195E-01 -0.77356795498E-01  0.88677506792E+00  0.88000000000E+00 0.  1.
        -11    1    4    4    0    0  0.30650239430E-01 -0.14481135694E-01  0.47987903618E-01  0.58755769782E-01  0.51100000000E-03 0. -1.
         11    1    4    4    0    0  0.55767533092E-01 -0.11464992865E-01  0.46999053575E-01  0.73828422485E-01  0.51100000000E-03 0.  1.
</event>
<event>
 8    1  0.1138737E+005  0.1043930E+01  0.7957747E-01            NaN
         13   -1    0    0    0    0  0.00000000000E+00  0.00000000000E+00  0.74505805969E-08  0.10566000000E+00  0.10566000000E+00 0.  1.
     999900   -1    0    0    0    0 -0.00000000000E+00 -0.00000000000E+00 -0.74505805969E-08  0.93827000000E+00  0.93827000000E+00 0. -1.
     999902    2    1    2    0    0 -0.17572526097E-02 -0.22980215691E-01 -0.79263359991E-02  0.10195577811E+01  0.10192664343E+01 0.  0.
     999903    2    3    3    0    0  0.83826671959E-02  0.11278357679E+00 -0.55698108221E-01  0.12780850721E+00  0.21031665490E-01 0.  0.
         14    1    1    2    0    0  0.17572526097E-02  0.22980215691E-01  0.79263359991E-02  0.24372218863E-01  0.00000000000E+00 0.  1.
     999901    1    3    3    0    0 -0.10139919806E-01 -0.13576379248E+00  0.47771772222E-01  0.89174927392E+00  0.88000000000E+00 0.  1.
        -11    1    4    4    0    0  0.27691352497E-02  0.29777653330E-01 -0.25484892216E-01  0.39295261803E-01  0.51100000000E-03 0.  1.
         11    1    4    4    0    0  0.56135319463E-02  0.83005923462E-01 -0.30213216004E-01  0.88513245410E-01  0.51100000000E-03 0. -1.
</event>
<event>
 8    1  0.1138737E+005  0.1043930E+01  0.7957747E-01            NaN
         13   -1    0    0    0    0  0.00000000000E+00  0.00000000000E+00  0.74505805969E-08  0.10566000000E+00  0.10566000000E+00 0.  1.
     999900   -1    0    0    0    0 -0.00000000000E+00 -0.00000000000E+00 -0.74505805969E-08  0.93827000000E+00  0.93827000000E+00 0.  1.
     999902    2    1    2    0    0  0.59081169067E-02 -0.96368806753E-02  0.20501637751E-01  0.10205186253E+01  0.10202500537E+01 0.  0.
     999903    2    3    3    0    0  0.85821220834E-01  0.92268785655E-01  0.29351386195E-01  0.13099673853E+00  0.20489775062E-01 0.  0.
         14    1    1    2    0    0 -0.59081169067E-02  0.96368806753E-02 -0.20501637751E-01  0.23411374693E-01  0.00000000000E+00 0. -1.
     999901    1    3    3    0    0 -0.79913103927E-01 -0.10190566633E+00 -0.88497484442E-02  0.88952188678E+00  0.88000000000E+00 0. -1.
        -11    1    4    4    0    0  0.21785699289E-01  0.12785200796E-01  0.21103380930E-02  0.25353356795E-01  0.51100000000E-03 0.  1.
         11    1    4    4    0    0  0.64035521545E-01  0.79483584859E-01  0.27241048102E-01  0.10564338173E+00  0.51100000000E-03 0. -1.
</event>
<event>
 8    1  0.1138737E+005  0.1043930E+01  0.7957747E-01            NaN
         13   -1    0    0    0    0  0.00000000000E+00  0.00000000000E+00  0.74505805969E-08  0.10566000000E+00  0.10566000000E+00 0.  1.
     999900   -1    0    0    0    0 -0.00000000000E+00 -0.00000000000E+00 -0.74505805969E-08  0.93827000000E+00  0.93827000000E+00 0. -1.
     999902    2    1    2    0    0 -0.46841686242E-02  0.61004257668E-02 -0.21426655819E-01  0.10211647148E+01  0.10209109249E+01 0.  0.
     999903    2    3    3    0    0  0.48325074997E-01  0.40102670972E-01 -0.11633356357E+00  0.13382405096E+00  0.20780796666E-01 0.  0.
         14    1    1    2    0    0  0.46841686242E-02 -0.61004257668E-02  0.21426655819E-01  0.22765285191E-01  0.00000000000E+00 0.  1.
     999901    1    3    3    0    0 -0.53009243621E-01 -0.34002245205E-01  0.94906907747E-01  0.88734066385E+00  0.88000000000E+00 0.  1.
        -11    1    4    4    0    0  0.21472965653E-01  0.30484412842E-01 -0.59239574532E-01  0.69999828514E-01  0.51100000000E-03 0.  1.
         11    1    4    4    0    0  0.26852109344E-01  0.96182581303E-02 -0.57093989033E-01  0.63824222443E-01  0.51100000000E-03 0. -1.
</event>
<event>
 8    1  0.1138737E+005  0.1043930E+01  0.7957747E-01            NaN
         13   -1    0    0    0    0  0.00000000000E+00  0.00000000000E+00  0.74505805969E-08  0.10566000000E+00  0.10566000000E+00 0.  1.
     999900   -1    0    0    0    0 -0.00000000000E+00 -0.00000000000E+00 -0.74505805969E-08  0.93827000000E+00  0.93827000000E+00 0. -1.
     999902    2    1    2    0    0  0.11668396793E-01 -0.17847438244E-01  0.81837803411E-02  0.10210901927E+01  0.10208347197E+01 0.  0.
     999903    2    3    3    0    0 -0.34321711195E-03  0.12647221238E+00 -0.10719784952E-01  0.12905331837E+00  0.23334671437E-01 0.  0.
         14    1    1    2    0    0 -0.11668396793E-01  0.17847438244E-01 -0.81837803411E-02  0.22839807273E-01  0.00000000000E+00 0. -1.
     999901    1    3    3    0    0  0.12011613905E-01 -0.14431965063E+00  0.18903565293E-01  0.89203687435E+00  0.88000000000E+00 0. -1.
        -11    1    4    4    0    0 -0.33481302070E-02  0.15264628197E-01 -0.84669825171E-02  0.17781163174E-01  0.51100000000E-03 0. -1.
         11    1    4    4    0    0  0.30049130951E-02  0.11120758419E+00 -0.22528024345E-02  0.11127215520E+00  0.51100000000E-03 0.  1.
</event>
<event>
 8    1  0.1138737E+005  0.1043930E+01  0.7957747E-01            NaN
         13   -1    0    0    0    0  0.00000000000E+00  0.00000000000E+00  0.74505805969E-08  0.10566000000E+00  0.10566000000E+00 0. -1.
     999900   -1    0    0    0    0 -0.00000000000E+00 -0.00000000000E+00 -0.74505805969E-08  0.93827000000E+00  0.93827000000E+00 0.  1.
     999902    2    1    2    0    0 -0.20131128196E-01 -0.52681984802E-02  0.11471455833E-01  0.10201684652E+01  0.10198917035E+01 0.  0.
     999903    2    3    3    0    0  0.29043462854E-03  0.12852759727E+00  0.60649304131E-02  0.12980472732E+00  0.17118885551E-01 0.  0.
         14    1    1    2    0    0  0.20131128196E-01  0.52681984802E-02 -0.11471455833E-01  0.23761534812E-01  0.00000000000E+00 0.  1.
     999901    1    3    3    0    0 -0.20421562825E-01 -0.13379579575E+00  0.54065254203E-02  0.89036373787E+00  0.88000000000E+00 0. -1.
        -11    1    4    4    0    0 -0.74795672678E-02  0.53287232052E-01  0.61511702060E-02  0.54162450482E-01  0.51100000000E-03 0. -1.
         11    1    4    4    0    0  0.77700018964E-02  0.75240365217E-01 -0.86239792971E-04  0.75642276841E-01  0.51100000000E-03 0.  1.
</event>
<event>
 8    1  0.1138737E+005  0.1043930E+01  0.7957747E-01            NaN
         13   -1    0    0    0    0  0.00000000000E+00  0.00000000000E+00  0.74505805969E-08  0.10566000000E+00  0.10566000000E+00 0. -1.
     999900   -1    0    0    0    0 -0.00000000000E+00 -0.00000000000E+00 -0.74505805969E-08  0.93827000000E+00  0.93827000000E+00 0. -1.
     999902    2    1    2    0    0  0.22424479656E-01 -0.35976176961E-02  0.63125118781E-02  0.10203578141E+01  0.10200854969E+01 0.  0.
     999903    2    3    3    0    0  0.88305658469E-01 -0.86850438579E-01  0.45024520165E-01  0.13313181050E+00  0.18867526418E-01 0.  0.
         14    1    1    2    0    0 -0.22424479656E-01  0.35976176961E-02 -0.63125118781E-02  0.23572185880E-01  0.00000000000E+00 0.  1.
     999901    1    3    3    0    0 -0.65881178813E-01  0.83252820883E-01 -0.38712008287E-01  0.88722600362E+00  0.88000000000E+00 0. -1.
        -11    1    4    4    0    0  0.25491414241E-01 -0.22772793023E-01  0.21437733387E-01  0.40351577861E-01  0.51100000000E-03 0. -1.
         11    1    4    4    0    0  0.62814244228E-01 -0.64077645556E-01  0.23586786778E-01  0.92780232644E-01  0.51100000000E-03 0.  1.
</event>
<event>
 8    1  0.1138737E+005  0.1043930E+01  0.7957747E-01            NaN
         13   -1    0    0    0    0  0.00000000000E+00  0.00000000000E+00  0.74505805969E-08  0.10566000000E+00  0.10566000000E+00 0. -1.
     999900   -1    0    0    0    0 -0.00000000000E+00 -0.00000000000E+00 -0.74505805969E-08  0.93827000000E+00  0.93827000000E+00 0.  1.
     999902    2    1    2    0    0 -0.10374532593E-01 -0.22233970355E-02 -0.20850880395E-01  0.10205348374E+01  0.10202666419E+01 0.  0.
     999903    2    3    3    0    0  0.38678965429E-01 -0.58728996940E-01 -0.11079540792E+00  0.13279098551E+00  0.20314181464E-01 0.  0.
         14    1    1    2    0    0  0.10374532593E-01  0.22233970355E-02  0.20850880395E-01  0.23395162623E-01  0.00000000000E+00 0. -1.
     999901    1    3    3    0    0 -0.49053498022E-01  0.56505599905E-01  0.89944527528E-01  0.88774385186E+00  0.88000000000E+00 0. -1.
        -11    1    4    4    0    0  0.26077029844E-01 -0.52433154662E-01 -0.95190174147E-01  0.11176169992E+00  0.51100000000E-03 0. -1.
         11    1    4    4    0    0  0.12601935585E-01 -0.62958422785E-02 -0.15605233777E-01  0.21029285597E-01  0.51100000000E-03 0.  1.
</event>
<event>
 8    1  0.1138737E+005  0.1043930E+01  0.7957747E-01            NaN
         13   -1    0    0    0    0  0.00000000000E+00  0.00000000000E+00  0.74505805969E-08  0.10566000000E+00  0.10566000000E+00 0. -1.
     999900   -1    0    0    0    0 -0.00000000000E+00 -0.00000000000E+00 -0.74505805969E-08  0.93827000000E+00  0.93827000000E+00 0. -1.
     999902    2    1    2    0    0  0.50689181304E-02  0.32694299808E-02 -0.22647441895E-01  0.10204930691E+01  0.10202239041E+01 0.  0.
     999903    2    3    3    0    0  0.81079548246E-01 -0.10962795895E-01  0.97489474702E-01  0.12897018617E+00  0.20857497579E-01 0.  0.
         14    1    1    2    0    0 -0.50689181304E-02 -0.32694299808E-02  0.22647441895E-01  0.23436930853E-01  0.00000000000E+00 0. -1.
     999901    1    3    3    0    0 -0.76010630115E-01  0.14232225876E-01 -0.12013691660E+00  0.89152288298E+00  0.88000000000E+00 0. -1.
        -11    1    4    4    0    0  0.45137324629E-01 -0.34767948116E-02  0.38221134604E-01  0.59250168171E-01  0.51100000000E-03 0.  1.
         11    1    4    4    0    0  0.35942223616E-01 -0.74860010837E-02  0.59268340098E-01  0.69720017998E-01  0.51100000000E-03 0. -1.
</event>
<event>
 8    1  0.1138737E+005  0.1043930E+01  0.7957747E-01            NaN
         13   -1    0    0    0    0  0.00000000000E+00  0.00000000000E+00  0.74505805969E-08  0.10566000000E+00  0.10566000000E+00 0.  1.
     999900   -1    0    0    0    0 -0.00000000000E+00 -0.00000000000E+00 -0.74505805969E-08  0.93827000000E+00  0.93827000000E+00 0. -1.
     999902    2    1    2    0    0  0.20443694883E-01  0.13230309346E-02 -0.11996354448E-01  0.10201895790E+01  0.10199133147E+01 0.  0.
     999903    2    3    3    0    0  0.12821009872E+00 -0.18599231489E-01  0.23538913781E-01  0.13268000175E+00  0.16313846157E-01 0.  0.
         14    1    1    2    0    0 -0.20443694883E-01 -0.13230309346E-02  0.11996354448E-01  0.23740421045E-01  0.00000000000E+00 0.  1.
     999901    1    3    3    0    0 -0.10776640384E+00  0.19922262424E-01 -0.35535268229E-01  0.88750957720E+00  0.88000000000E+00 0. -1.
        -11    1    4    4    0    0  0.48139086232E-01 -0.23950935896E-02  0.22396620865E-02  0.48253345001E-01  0.51100000000E-03 0. -1.
         11    1    4    4    0    0  0.80071012493E-01 -0.16204137900E-01  0.21299251695E-01  0.84426656753E-01  0.51100000000E-03 0.  1.
</event>
<event>
 8    1  0.1138737E+005  0.1043930E+01  0.7957747E-01            NaN
         13   -1    0    0    0    0  0.00000000000E+00  0.00000000000E+00  0.74505805969E-08  0.10566000000E+00  0.10566000000E+00 0.  1.
     999900   -1    0    0    0    0 -0.00000000000E+00 -0.00000000000E+00 -0.74505805969E-08  0.93827000000E+00  0.93827000000E+00 0.  1.
     999902    2    1    2    0    0  0.66117847705E-02  0.16691472919E-01  0.16266168782E-01  0.10197037908E+01  0.10194159660E+01 0.  0.
     999903    2    3    3    0    0  0.33184699995E-01  0.52907220987E-01  0.11582222732E+00  0.13295179106E+00  0.18999791012E-01 0.  0.
         14    1    1    2    0    0 -0.66117847705E-02 -0.16691472919E-01 -0.16266168782E-01  0.24226209215E-01  0.00000000000E+00 0. -1.
     999901    1    3    3    0    0 -0.26572915225E-01 -0.36215748068E-01 -0.99556058534E-01  0.88675199973E+00  0.88000000000E+00 0.  1.
        -11    1    4    4    0    0  0.29117246400E-01  0.29964445319E-01  0.69412128902E-01  0.81018434821E-01  0.51100000000E-03 0. -1.
         11    1    4    4    0    0  0.40674535953E-02  0.22942775668E-01  0.46410098414E-01  0.51933356236E-01  0.51100000000E-03 0.  1.
</event>
<event>
 8    1  0.1138737E+005  0.1043930E+01  0.7957747E-01            NaN
         13   -1    0    0    0    0  0.00000000000E+00  0.00000000000E+00  0.74505805969E-08  0.10566000000E+00  0.10566000000E+00 0. -1.
     999900   -1    0    0    0    0 -0.00000000000E+00 -0.00000000000E+00 -0.74505805969E-08  0.93827000000E+00  0.93827000000E+00 0.  1.
     999902    2    1    2    0    0  0.15376643454E-01  0.16635273884E-01 -0.11399307872E-01  0.10185702342E+01  0.10182544890E+01 0.  0.
     999903    2    3    3    0    0  0.62518900966E-01  0.83306318993E-01  0.75931065283E-01  0.13048577045E+00  0.20308959882E-01 0.  0.
         14    1    1    2    0    0 -0.15376643454E-01 -0.16635273884E-01  0.11399307872E-01  0.25359765793E-01  0.00000000000E+00 0. -1.
     999901    1    3    3    0    0 -0.47142257512E-01 -0.66671045109E-01 -0.87330373155E-01  0.88808446376E+00  0.88000000000E+00 0. -1.
        -11    1    4    4    0    0  0.49708547735E-01  0.50718861273E-01  0.48439458599E-01  0.85965021242E-01  0.51100000000E-03 0.  1.
         11    1    4    4    0    0  0.12810353231E-01  0.32587457720E-01  0.27491606684E-01  0.44520749203E-01  0.51100000000E-03 0. -1.
</event>
<event>
 8    1  0.1138737E+005  0.1043930E+01  0.7957747E-01            NaN
         13   -1    0    0    0    0  0.00000000000E+00  0.00000000000E+00  0.74505805969E-08  0.10566000000E+00  0.10566000000E+00 0. -1.
     999900   -1    0    0    0    0 -0.00000000000E+00 -0.00000000000E+00 -0.74505805969E-08  0.93827000000E+00  0.93827000000E+00 0.  1.
     999902    2    1    2    0    0 -0.22686830523E-01 -0.24701499635E-01  0.16174200671E-01  0.10066947864E+01  0.10060059303E+01 0.  0.
     999903    2    3    3    0    0  0.16579692002E-01  0.93186990635E-01 -0.61477696112E-01  0.11457967445E+00  0.19755841318E-01 0.  0.
         14    1    1    2    0    0  0.22686830523E-01  0.24701499635E-01 -0.16174200671E-01  0.37235213586E-01  0.00000000000E+00 0.  1.
     999901    1    3    3    0    0 -0.39266522526E-01 -0.11788849027E+00  0.77651896783E-01  0.89211511197E+00  0.88000000000E+00 0. -1.
        -11    1    4    4    0    0  0.58286975149E-02  0.34325399270E-01 -0.11666853624E-01  0.36723062839E-01  0.51100000000E-03 0. -1.
         11    1    4    4    0    0  0.10750994487E-01  0.58861591365E-01 -0.49810842487E-01  0.77856611606E-01  0.51100000000E-03 0.  1.
</event>
<event>
 8    1  0.1138737E+005  0.1043930E+01  0.7957747E-01            NaN
         13   -1    0    0    0    0  0.00000000000E+00  0.00000000000E+00  0.74505805969E-08  0.10566000000E+00  0.10566000000E+00 0. -1.
     999900   -1    0    0    0    0 -0.00000000000E+00 -0.00000000000E+00 -0.74505805969E-08  0.93827000000E+00  0.93827000000E+00 0. -1.
     999902    2    1    2    0    0  0.23995507290E-01 -0.68207531336E-02 -0.28546292822E-02  0.10188211181E+01  0.10185116664E+01 0.  0.
     999903    2    3    3    0    0 -0.36650062085E-01  0.10302497326E+00  0.62847231205E-01  0.12749586702E+00  0.18656083996E-01 0.  0.
         14    1    1    2    0    0 -0.23995507290E-01  0.68207531336E-02  0.28546292822E-02  0.25108881930E-01  0.00000000000E+00 0. -1.
     999901    1    3    3    0    0  0.60645569376E-01 -0.10984572640E+00 -0.65701860487E-01  0.89132525105E+00  0.88000000000E+00 0. -1.
        -11    1    4    4    0    0 -0.19481201701E-01  0.67507201312E-01  0.49087531510E-01  0.85712229696E-01  0.51100000000E-03 0. -1.
         11    1    4    4    0    0 -0.17168860384E-01  0.35517771949E-01  0.13759699695E-01  0.41783637322E-01  0.51100000000E-03 0.  1.
</event>
<event>
 8    1  0.1138737E+005  0.1043930E+01  0.7957747E-01            NaN
         13   -1    0    0    0    0  0.00000000000E+00  0.00000000000E+00  0.74505805969E-08  0.10566000000E+00  0.10566000000E+00 0. -1.
     999900   -1    0    0    0    0 -0.00000000000E+00 -0.00000000000E+00 -0.74505805969E-08  0.93827000000E+00  0.93827000000E+00 0. -1.
     999902    2    1    2    0    0  0.11869823595E-01  0.13139606455E-01  0.16062283444E-01  0.10200231198E+01  0.10197429216E+01 0.  0.
     999903    2    3    3    0    0  0.19434886449E-01 -0.76322968139E-01  0.10299684144E+00  0.13119332746E+00  0.20010735805E-01 0.  0.
         14    1    1    2    0    0 -0.11869823595E-01 -0.13139606455E-01 -0.16062283444E-01  0.23906880169E-01  0.00000000000E+00 0.  1.
     999901    1    3    3    0    0 -0.75650628541E-02  0.89462574594E-01 -0.86934557994E-01  0.88882979237E+00  0.88000000000E+00 0. -1.
        -11    1    4    4    0    0 -0.12845369169E-03 -0.13676817645E-01  0.30328663074E-01  0.33274025396E-01  0.51100000000E-03 0.  1.
         11    1    4    4    0    0  0.19563340141E-01 -0.62646150494E-01  0.72668178365E-01  0.97919302066E-01  0.51100000000E-03 0. -1.
</event>
<event>
 8    1  0.1138737E+005  0.1043930E+01  0.7957747E-01            NaN
         13   -1    0    0    0    0  0.00000000000E+00  0.00000000000E+00  0.74505805969E-08  0.10566000000E+00  0.10566000000E+00 0. -1.
     999900   -1    0    0    0    0 -0.00000000000E+00 -0.00000000000E+00 -0.74505805969E-08  0.93827000000E+00  0.93827000000E+00 0.  1.
     999902    2    1    2    0    0  0.33715890195E-02  0.39096748566E-02  0.22731863109E-01  0.10206192563E+01  0.10203530152E+01 0.  0.
     999903    2    3    3    0    0  0.92714330301E-01 -0.64146206545E-01  0.66035794694E-01  0.13242504395E+00  0.21563469740E-01 0.  0.
         14    1    1    2    0    0 -0.33715890195E-02 -0.39096748566E-02 -0.22731863109E-01  0.23310743670E-01  0.00000000000E+00 0.  1.
     999901    1    3    3    0    0 -0.89342741282E-01  0.68055881402E-01 -0.43303931585E-01  0.88819421238E+00  0.88000000000E+00 0.  1.
        -11    1    4    4    0    0  0.66716491541E-01 -0.42170924078E-01  0.34940576859E-01  0.86316754534E-01  0.51100000000E-03 0.  1.
         11    1    4    4    0    0  0.25997838761E-01 -0.21975282467E-01  0.31095217835E-01  0.46108289417E-01  0.51100000000E-03 0. -1.
</event>
<event>
 8    1  0.1138737E+005  0.1043930E+01  0.7957747E-01            NaN
         13   -1    0    0    0    0  0.00000000000E+00  0.00000000000E+00  0.74505805969E-08  0.10566000000E+00  0.10566000000E+00 0. -1.
     999900   -1    0    0    0    0 -0.00000000000E+00 -0.00000000000E+00 -0.74505805969E-08  0.93827000000E+00  0.93827000000E+00 0.  1.
     999902    2    1    2    0    0  0.50457149838E-02 -0.22733374043E-01  0.12036318468E-02  0.10206123186E+01  0.10203459172E+01 0.  0.
     999903    2    3    3    0    0  0.84917174235E-01  0.61710344148E-01 -0.73813875008E-01  0.12980492200E+00  0.19538080183E-01 0.  0.
         14    1    1    2    0    0 -0.50457149838E-02  0.22733374043E-01 -0.12036318468E-02  0.23317681374E-01  0.00000000000E+00 0. -1.
     999901    1    3    3    0    0 -0.79871459251E-01 -0.84443718191E-01  0.75017506855E-01  0.89080739662E+00  0.88000000000E+00 0. -1.
        -11    1    4    4    0    0  0.83255764321E-01  0.54963919152E-01 -0.68046475040E-01  0.12076066656E+00  0.51100000000E-03 0. -1.
         11    1    4    4    0    0  0.16614099137E-02  0.67464249965E-02 -0.57673999686E-02  0.90442554438E-02  0.51100000000E-03 0.  1.
</event>
<event>
 8    1  0.1138737E+005  0.1043930E+01  0.7957747E-01            NaN
         13   -1    0    0    0    0  0.00000000000E+00  0.00000000000E+00  0.74505805969E-08  0.10566000000E+00  0.10566000000E+00 0. -1.
     999900   -1    0    0    0    0 -0.00000000000E+00 -0.00000000000E+00 -0.74505805969E-08  0.93827000000E+00  0.93827000000E+00 0. -1.
     999902    2    1    2    0    0  0.13847591398E-01 -0.87876258896E-02  0.17598507874E-01  0.10198741143E+01  0.10195903704E+01 0.  0.
     999903    2    3    3    0    0 -0.92527749720E-01 -0.72957571242E-01  0.51728553298E-01  0.13049323130E+00  0.21643671579E-01 0.  0.
         14    1    1    2    0    0 -0.13847591398E-01  0.87876258896E-02 -0.17598507874E-01  0.24055885677E-01  0.00000000000E+00 0.  1.
     999901    1    3    3    0    0  0.10637534112E+00  0.64169945352E-01 -0.34130045424E-01  0.88938088302E+00  0.88000000000E+00 0. -1.
        -11    1    4    4    0    0 -0.27980279711E-01 -0.15164624370E-01  0.55353689593E-02  0.32307326035E-01  0.51100000000E-03 0. -1.
         11    1    4    4    0    0 -0.64547470008E-01 -0.57792946872E-01  0.46193184339E-01  0.98185905266E-01  0.51100000000E-03 0.  1.
</event>
<event>
 8    1  0.1138737E+005  0.1043930E+01  0.7957747E-01            NaN
         13   -1    0    0    0    0  0.00000000000E+00  0.00000000000E+00  0.74505805969E-08  0.10566000000E+00  0.10566000000E+00 0. -1.
     999900   -1    0    0    0    0 -0.00000000000E+00 -0.00000000000E+00 -0.74505805969E-08  0.93827000000E+00  0.93827000000E+00 0. -1.
     999902    2    1    2    0    0 -0.93794321918E-02  0.41445091837E-02 -0.21315308145E-01  0.10202763942E+01  0.10200021704E+01 0.  0.
     999903    2    3    3    0    0  0.38530516369E-01  0.45586477955E-01 -0.11689664941E+00  0.13283704828E+00  0.20448156116E-01 0.  0.
         14    1    1    2    0    0  0.93794321918E-02 -0.41445091837E-02  0.21315308145E-01  0.23653605771E-01  0.00000000000E+00 0. -1.
     999901    1    3    3    0    0 -0.47909948561E-01 -0.41441968771E-01  0.95581341261E-01  0.88743934595E+00  0.88000000000E+00 0.  1.
        -11    1    4    4    0    0  0.22889413479E-02  0.36506889269E-02 -0.26103474705E-01  0.26461657069E-01  0.51100000000E-03 0. -1.
         11    1    4    4    0    0  0.36241575021E-01  0.41935789028E-01 -0.90793174701E-01  0.10637539121E+00  0.51100000000E-03 0.  1.
</event>
<event>
 8    1  0.1138737E+005  0.1043930E+01  0.7957747E-01            NaN
         13   -1    0    0    0    0  0.00000000000E+00  0.00000000000E+00  0.74505805969E-08  0.10566000000E+00  0.10566000000E+00 0. -1.
     999900   -1    0    0    0    0 -0.00000000000E+00 -0.00000000000E+00 -0.74505805969E-08  0.93827000000E+00  0.93827000000E+00 0. -1.
     999902    2    1    2    0    0 -0.18697427239E-01  0.60618621104E-02 -0.16130813225E-01  0.10185027883E+01  0.10181853401E+01 0.  0.
     999903    2    3    3    0    0 -0.73625376973E-01 -0.17188943883E-01  0.10201426376E+00  0.12860619948E+00  0.20408052569E-01 0.  0.
         14    1    1    2    0    0  0.18697427239E-01 -0.60618621104E-02  0.16130813225E-01  0.25427211662E-01  0.00000000000E+00 0. -1.
     999901    1    3    3    0    0  0.54927949734E-01  0.23250805993E-01 -0.11814507698E+00  0.88989658886E+00  0.88000000000E+00 0. -1.
        -11    1    4    4    0    0 -0.40035053760E-01 -0.18710176595E-01  0.64949866208E-01  0.78559674637E-01  0.51100000000E-03 0. -1.
         11    1    4    4    0    0 -0.33590323213E-01  0.15212327119E-02  0.37064397549E-01  0.50046524846E-01  0.51100000000E-03 0.  1.
</event>
<event>
 8    1  0.1138737E+005  0.1043930E+01  0.7957747E-01            NaN
         13   -1    0    0    0    0  0.00000000000E+00  0.00000000000E+00  0.74505805969E-08  0.10566000000E+00  0.10566000000E+00 0. -1.
     999900   -1    0    0    0    0 -0.00000000000E+00 -0.00000000000E+00 -0.74505805969E-08  0.93827000000E+00  0.93827000000E+00 0.  1.
     999902    2    1    2    0    0  0.17517729660E-01  0.35375551276E-02 -0.15569186944E-01  0.10202280015E+01  0.10199526413E+01 0.  0.
     999903    2    3    3    0    0  0.76509876764E-01  0.40300538321E-01  0.95724730061E-01  0.13049887068E+00  0.19718941934E-01 0.  0.
         14    1    1    2    0    0 -0.17517729660E-01 -0.35375551276E-02  0.15569186944E-01  0.23701998456E-01  0.00000000000E+00 0.  1.
     999901    1    3    3    0    0 -0.58992147104E-01 -0.36762983193E-01 -0.11129391701E+00  0.88972913087E+00  0.88000000000E+00 0.  1.
        -11    1    4    4    0    0  0.58650352870E-01  0.27082877941E-01  0.81947624066E-01  0.10435046900E+00  0.51100000000E-03 0. -1.
         11    1    4    4    0    0  0.17859523893E-01  0.13217660380E-01  0.13777105995E-01  0.26148401676E-01  0.51100000000E-03 0.  1.
</event>
<event>
 8    1  0.1138737E+005  0.1043930E+01  0.7957747E-01            NaN
         13   -1    0    0    0    0  0.00000000000E+00  0.00000000000E+00  0.74505805969E-08  0.10566000000E+00  0.10566000000E+00 0. -1.
     999900   -1    0    0    0    0 -0.00000000000E+00 -0.00000000000E+00 -0.74505805969E-08  0.93827000000E+00  0.93827000000E+00 0. -1.
     999902    2    1    2    0    0  0.21993752536E-01 -0.98129478790E-03 -0.71375773111E-02  0.10207862514E+01  0.10205238547E+01 0.  0.
     999903    2    3    3    0    0  0.10741932812E-01 -0.12294240152E+00 -0.41333476820E-01  0.13164595056E+00  0.19798403542E-01 0.  0.
         14    1    1    2    0    0 -0.21993752536E-01  0.98129478790E-03  0.71375773111E-02  0.23143748615E-01  0.00000000000E+00 0. -1.
     999901    1    3    3    0    0  0.11251819725E-01  0.12196110673E+00  0.34195899509E-01  0.88914030082E+00  0.88000000000E+00 0. -1.
        -11    1    4    4    0    0  0.15710383876E-01 -0.69787576491E-01 -0.21582854536E-01  0.74720831934E-01  0.51100000000E-03 0. -1.
         11    1    4    4    0    0 -0.49684510640E-02 -0.53154825025E-01 -0.19750622284E-01  0.56925118630E-01  0.51100000000E-03 0.  1.
</event>
<event>
 8    1  0.1138737E+005  0.1043930E+01  0.7957747E-01            NaN
         13   -1    0    0    0    0  0.00000000000E+00  0.00000000000E+00  0.74505805969E-08  0.10566000000E+00  0.10566000000E+00 0.  1.
     999900   -1    0    0    0    0 -0.00000000000E+00 -0.00000000000E+00 -0.74505805969E-08  0.93827000000E+00  0.93827000000E+00 0. -1.
     999902    2    1    2    0    0 -0.18406143987E-01 -0.14904212613E-01 -0.40330213804E-02  0.10199052846E+01  0.10196222843E+01 0.  0.
     999903    2    3    3    0    0 -0.11948230491E+00  0.51166020799E-01  0.46754623664E-02  0.13161619664E+00  0.20173755140E-01 0.  0.
         14    1    1    2    0    0  0.18406143987E-01  0.14904212613E-01  0.40330213804E-02  0.24024715431E-01  0.00000000000E+00 0.  1.
     999901    1    3    3    0    0  0.10107616093E+00 -0.66070233412E-01 -0.87084837468E-02  0.88828908793E+00  0.88000000000E+00 0. -1.
        -11    1    4    4    0    0 -0.21586685404E-01  0.83661100171E-02  0.85946303873E-02  0.24700315303E-01  0.51100000000E-03 0.  1.
         11    1    4    4    0    0 -0.97895619511E-01  0.42799910782E-01 -0.39191680209E-02  0.10691588133E+00  0.51100000000E-03 0. -1.
</event>
<event>
 8    1  0.1138737E+005  0.1043930E+01  0.7957747E-01            NaN
         13   -1    0    0    0    0  0.00000000000E+00  0.00000000000E+00  0.74505805969E-08  0.10566000000E+00  0.10566000000E+00 0.  1.
     999900   -1    0    0    0    0 -0.00000000000E+00 -0.00000000000E+00 -0.74505805969E-08  0.93827000000E+00  0.93827000000E+00 0. -1.
     999902    2    1    2    0    0  0.12925940739E-01 -0.66534923415E-02 -0.18375938809E-01  0.10204987382E+01  0.10202297048E+01 0.  0.
     999903    2    3    3    0    0  0.80681865734E-01  0.63655810828E-01  0.76974386571E-01  0.12997869457E+00  0.20193542128E-01 0.  0.
         14    1    1    2    0    0 -0.12925940739E-01  0.66534923415E-02  0.18375938809E-01  0.23431261841E-01  0.00000000000E+00 0.  1.
     999901    1    3    3    0    0 -0.67755924996E-01 -0.70309303169E-01 -0.95350325380E-01  0.89052004359E+00  0.88000000000E+00 0. -1.
        -11    1    4    4    0    0  0.36696659059E-01  0.20344654010E-01  0.22318237870E-01  0.47528040098E-01  0.51100000000E-03 0.  1.
         11    1    4    4    0    0  0.43985206675E-01  0.43311156818E-01  0.54656148700E-01  0.82450654472E-01  0.51100000000E-03 0. -1.
</event>
<event>
 8    1  0.1138737E+005  0.1043930E+01  0.7957747E-01            NaN
         13   -1    0    0    0    0  0.00000000000E+00  0.00000000000E+00  0.74505805969E-08  0.10566000000E+00  0.10566000000E+00 0.  1.
     999900   -1    0    0    0    0 -0.00000000000E+00 -0.00000000000E+00 -0.74505805969E-08  0.93827000000E+00  0.93827000000E+00 0.  1.
     999902    2    1    2    0    0  0.86074416489E-02  0.21783969499E-01  0.36285314154E-02  0.10202277719E+01  0.10199524062E+01 0.  0.
     999903    2    3    3    0    0  0.33170857978E-01  0.77240176279E-01  0.10068491216E+00  0.13281654061E+00  0.20890937558E-01 0.  0.
         14    1    1    2    0    0 -0.86074416489E-02 -0.21783969499E-01 -0.36285314154E-02  0.23702228147E-01  0.00000000000E+00 0.  1.
     999901    1    3    3    0    0 -0.24563416329E-01 -0.55456206780E-01 -0.97056380746E-01  0.88741123124E+00  0.88000000000E+00 0.  1.
        -11    1    4    4    0    0  0.30882201013E-01  0.46736264753E-01  0.64465066563E-01  0.85404886924E-01  0.51100000000E-03 0.  1.
         11    1    4    4    0    0  0.22886569648E-02  0.30503911527E-01  0.36219845599E-01  0.47411653687E-01  0.51100000000E-03 0. -1.
</event>
<event>
 8    1  0.1138737E+005  0.1043930E+01  0.7957747E-01            NaN
         13   -1    0    0    0    0  0.00000000000E+00  0.00000000000E+00  0.74505805969E-08  0.10566000000E+00  0.10566000000E+00 0. -1.
     999900   -1    0    0    0    0 -0.00000000000E+00 -0.00000000000E+00 -0.74505805969E-08  0.93827000000E+00  0.93827000000E+00 0.  1.
     999902    2    1    2    0    0  0.23712731106E-01  0.42195996024E-02 -0.61944087320E-03  0.10198367988E+01  0.10195521634E+01 0.  0.
     999903    2    3    3    0    0  0.32833785500E-01 -0.10252225918E+00 -0.71321894055E-01  0.13052478666E+00  0.19000954270E-01 0.  0.
         14    1    1    2    0    0 -0.23712731106E-01 -0.42195996024E-02  0.61944087320E-03  0.24093201205E-01  0.00000000000E+00 0.  1.
     999901    1    3    3    0    0 -0.91210543940E-02  0.10674185878E+00  0.70702453181E-01  0.88931201214E+00  0.88000000000E+00 0. -1.
        -11    1    4    4    0    0  0.60141379002E-02 -0.13100895291E-01 -0.27372962568E-02  0.14681867181E-01  0.51100000000E-03 0. -1.
         11    1    4    4    0    0  0.26819647600E-01 -0.89421363885E-01 -0.68584597798E-01  0.11584291947E+00  0.51100000000E-03 0.  1.
</event>
<event>
 8    1  0.1138737E+005  0.1043930E+01  0.7957747E-01            NaN
         13   -1    0    0    0    0  0.00000000000E+00  0.00000000000E+00  0.74505805969E-08  0.10566000000E+00  0.10566000000E+00 0.  1.
     999900   -1    0    0    0    0 -0.00000000000E+00 -0.00000000000E+00 -0.74505805969E-08  0.93827000000E+00  0.93827000000E+00 0. -1.
     999902    2    1    2    0    0 -0.20238539354E-01 -0.25047558745E-02  0.12373034171E-01  0.10200770284E+01  0.10197981073E+01 0.  0.
     999903    2    3    3    0    0 -0.51565344148E-01  0.34128289436E-01  0.11571382094E+00  0.13271990366E+00  0.20028969344E-01 0.  0.
         14    1    1    2    0    0  0.20238539354E-01  0.25047558745E-02 -0.12373034171E-01  0.23852971550E-01  0.00000000000E+00 0. -1.
     999901    1    3    3    0    0  0.31326804794E-01 -0.36633045310E-01 -0.10334078677E+00  0.88735712479E+00  0.88000000000E+00 0. -1.
        -11    1    4    4    0    0 -0.95894429804E-02  0.31798559188E-02  0.36521420359E-01  0.37896492798E-01  0.51100000000E-03 0.  1.
         11    1    4    4    0    0 -0.41975901167E-01  0.30948433517E-01  0.79192400584E-01  0.94823410860E-01  0.51100000000E-03 0. -1.
</event>
<event>
 8    1  0.1138737E+005  0.1043930E+01  0.7957747E-01            NaN
         13   -1    0    0    0    0  0.00000000000E+00  0.00000000000E+00  0.74505805969E-08  0.10566000000E+00  0.10566000000E+00 0.  1.
     999900   -1    0    0    0    0 -0.00000000000E+00 -0.00000000000E+00 -0.74505805969E-08  0.93827000000E+00  0.93827000000E+00 0.  1.
     999902    2    1    2    0    0  0.21716656419E-01 -0.98157745340E-02 -0.17611907530E-02  0.10200330465E+01  0.10197530836E+01 0.  0.
     999903    2    3    3    0    0  0.11212646687E+00 -0.30635285528E-01  0.61278918149E-01  0.13291330189E+00  0.19999367974E-01 0.  0.
         14    1    1    2    0    0 -0.21716656419E-01  0.98157745340E-02  0.17611907530E-02  0.23896953542E-01  0.00000000000E+00 0. -1.
     999901    1    3    3    0    0 -0.90409810450E-01  0.20819510994E-01 -0.63040108902E-01  0.88711974456E+00  0.88000000000E+00 0.  1.
        -11    1    4    4    0    0  0.71219039192E-01 -0.21519321373E-01  0.28379843346E-01  0.79629827107E-01  0.51100000000E-03 0.  1.
         11    1    4    4    0    0  0.40907427677E-01 -0.91159641545E-02  0.32899074803E-01  0.53283474788E-01  0.51100000000E-03 0. -1.
</event>
<event>
 8    1  0.1138737E+005  0.1043930E+01  0.7957747E-01            NaN
         13   -1    0    0    0    0  0.00000000000E+00  0.00000000000E+00  0.74505805969E-08  0.10566000000E+00  0.10566000000E+00 0.  1.
     999900   -1    0    0    0    0 -0.00000000000E+00 -0.00000000000E+00 -0.74505805969E-08  0.93827000000E+00  0.93827000000E+00 0. -1.
     999902    2    1    2    0    0  0.95639841727E-03  0.22154802649E-01  0.85974334664E-02  0.10201462694E+01  0.10198689843E+01 0.  0.
     999903    2    3    3    0    0 -0.87117795049E-01  0.52942609068E-01  0.81765587872E-01  0.13219439493E+00  0.19932802668E-01 0.  0.
         14    1    1    2    0    0 -0.95639841727E-03 -0.22154802649E-01 -0.85974334664E-02  0.23783730585E-01  0.00000000000E+00 0. -1.
     999901    1    3    3    0    0  0.88074193466E-01 -0.30787806419E-01 -0.73168154406E-01  0.88795187448E+00  0.88000000000E+00 0. -1.
        -11    1    4    4    0    0 -0.39068593365E-01  0.24118441650E-01  0.24374402285E-01  0.51984871097E-01  0.51100000000E-03 0.  1.
         11    1    4    4    0    0 -0.48049201683E-01  0.28824167417E-01  0.57391185587E-01  0.80209523835E-01  0.51100000000E-03 0. -1.
</event>
<event>
 8    1  0.1138737E+005  0.1043930E+01  0.7957747E-01            NaN
         13   -1    0    0    0    0  0.00000000000E+00  0.00000000000E+00  0.74505805969E-08  0.10566000000E+00  0.10566000000E+00 0. -1.
     999900   -1    0    0    0    0 -0.00000000000E+00 -0.00000000000E+00 -0.74505805969E-08  0.93827000000E+00  0.93827000000E+00 0. -1.
     999902    2    1    2    0    0 -0.15145876216E-01 -0.98671687846E-02 -0.15590924742E-01  0.10200587721E+01  0.10197794188E+01 0.  0.
     999903    2    3    3    0    0 -0.10902732339E+00  0.55782981227E-01 -0.45940249131E-01  0.13211465799E+00  0.18576278626E-01 0.  0.
         14    1    1    2    0    0  0.15145876216E-01  0.98671687846E-02  0.15590924742E-01  0.23871227880E-01  0.00000000000E+00 0. -1.
     999901    1    3    3    0    0  0.93881447170E-01 -0.65650150012E-01  0.30349324389E-01  0.88794411413E+00  0.88000000000E+00 0. -1.
        -11    1    4    4    0    0 -0.29645956475E-01  0.18514258945E-01 -0.49255850044E-02  0.35301317656E-01  0.51100000000E-03 0.  1.
         11    1    4    4    0    0 -0.79381366910E-01  0.37268722282E-01 -0.41014664127E-01  0.96813340339E-01  0.51100000000E-03 0. -1.
</event>
<event>
 8    1  0.1138737E+005  0.1043930E+01  0.7957747E-01            NaN
         13   -1    0    0    0    0  0.00000000000E+00  0.00000000000E+00  0.74505805969E-08  0.10566000000E+00  0.10566000000E+00 0. -1.
     999900   -1    0    0    0    0 -0.00000000000E+00 -0.00000000000E+00 -0.74505805969E-08  0.93827000000E+00  0.93827000000E+00 0. -1.
     999902    2    1    2    0    0  0.45173142901E-02 -0.17824950149E-02  0.23403839824E-01  0.10200276333E+01  0.10197475420E+01 0.  0.
     999903    2    3    3    0    0 -0.11331787195E+00 -0.44074855798E-01 -0.39338783186E-01  0.12895501466E+00  0.17272027251E-01 0.  0.
         14    1    1    2    0    0 -0.45173142901E-02  0.17824950149E-02 -0.23403839824E-01  0.23902366732E-01  0.00000000000E+00 0.  1.
     999901    1    3    3    0    0  0.11783518624E+00  0.42292360783E-01  0.62742623010E-01  0.89107261861E+00  0.88000000000E+00 0.  1.
        -11    1    4    4    0    0 -0.38839298451E-01 -0.21502952362E-01 -0.20391067314E-01  0.48856164520E-01  0.51100000000E-03 0.  1.
         11    1    4    4    0    0 -0.74478573501E-01 -0.22571903436E-01 -0.18947715872E-01  0.80098850137E-01  0.51100000000E-03 0. -1.
</event>
<event>
 8    1  0.1138737E+005  0.1043930E+01  0.7957747E-01            NaN
         13   -1    0    0    0    0  0.00000000000E+00  0.00000000000E+00  0.74505805969E-08  0.10566000000E+00  0.10566000000E+00 0.  1.
     999900   -1    0    0    0    0 -0.00000000000E+00 -0.00000000000E+00 -0.74505805969E-08  0.93827000000E+00  0.93827000000E+00 0.  1.
     999902    2    1    2    0    0  0.11344240546E-01  0.20327357585E-01 -0.36856066235E-03  0.10206484816E+01  0.10203829154E+01 0.  0.
     999903    2    3    3    0    0  0.67910671478E-01 -0.91229796207E-01 -0.59603580237E-01  0.12983225637E+00  0.19211793263E-01 0.  0.
         14    1    1    2    0    0 -0.11344240546E-01 -0.20327357585E-01  0.36856066235E-03  0.23281518355E-01  0.00000000000E+00 0.  1.
     999901    1    3    3    0    0 -0.56566430933E-01  0.11155715379E+00  0.59235019575E-01  0.89081622528E+00  0.88000000000E+00 0. -1.
        -11    1    4    4    0    0  0.92788761750E-02 -0.63136533689E-02 -0.13047857677E-02  0.11310320457E-01  0.51100000000E-03 0.  1.
         11    1    4    4    0    0  0.58631795303E-01 -0.84916142838E-01 -0.58298794470E-01  0.11852193591E+00  0.51100000000E-03 0. -1.
</event>
<event>
 8    1  0.1138737E+005  0.1043930E+01  0.7957747E-01            NaN
         13   -1    0    0    0    0  0.00000000000E+00  0.00000000000E+00  0.74505805969E-08  0.10566000000E+00  0.10566000000E+00 0.  1.
     999900   -1    0    0    0    0 -0.00000000000E+00 -0.00000000000E+00 -0.74505805969E-08  0.93827000000E+00  0.93827000000E+00 0.  1.
     999902    2    1    2    0    0  0.16452761770E-01  0.12973219436E-01 -0.58752416625E-02  0.10221695713E+01  0.10219379219E+01 0.  0.
     999903    2    3    3    0    0  0.83049302222E-01 -0.48532290000E-02  0.10145820332E+00  0.13297142135E+00  0.21607670944E-01 0.  0.
         14    1    1    2    0    0 -0.16452761770E-01 -0.12973219436E-01  0.58752416625E-02  0.21760428695E-01  0.00000000000E+00 0. -1.
     999901    1    3    3    0    0 -0.66596540452E-01  0.17826448436E-01 -0.10733344499E+00  0.88919814995E+00  0.88000000000E+00 0.  1.
        -11    1    4    4    0    0  0.59951611082E-02 -0.61508097688E-02  0.13696904250E-01  0.16175312194E-01  0.51100000000E-03 0. -1.
         11    1    4    4    0    0  0.77054141114E-01  0.12975807689E-02  0.87761299075E-01  0.11679610916E+00  0.51100000000E-03 0.  1.
</event>
<event>
 8    1  0.1138737E+005  0.1043930E+01  0.7957747E-01            NaN
         13   -1    0    0    0    0  0.00000000000E+00  0.00000000000E+00  0.74505805969E-08  0.10566000000E+00  0.10566000000E+00 0.  1.
     999900   -1    0    0    0    0 -0.00000000000E+00 -0.00000000000E+00 -0.74505805969E-08  0.93827000000E+00  0.93827000000E+00 0.  1.
     999902    2    1    2    0    0 -0.83365864748E-02 -0.36150737527E-02 -0.22073914710E-01  0.10200589895E+01  0.10197796413E+01 0.  0.
     999903    2    3    3    0    0 -0.11938621019E+00 -0.28474562706E-01 -0.45452207925E-01  0.13242361519E+00  0.20155464477E-01 0.  0.
         14    1    1    2    0    0  0.83365864748E-02  0.36150737527E-02  0.22073914710E-01  0.23871010513E-01  0.00000000000E+00 0.  1.
     999901    1    3    3    0    0  0.11104962372E+00  0.24859488953E-01  0.23378293215E-01  0.88763537430E+00  0.88000000000E+00 0. -1.
        -11    1    4    4    0    0 -0.86371501366E-01 -0.19475013788E-01 -0.22956450346E-01  0.91468968200E-01  0.51100000000E-03 0.  1.
         11    1    4    4    0    0 -0.33014708826E-01 -0.89995489172E-02 -0.22495757579E-01  0.40954646985E-01  0.51100000000E-03 0. -1.
</event>
<event>
 8    1  0.1138737E+005  0.1043930E+01  0.7957747E-01            NaN
         13   -1    0    0    0    0  0.00000000000E+00  0.00000000000E+00  0.74505805969E-08  0.10566000000E+00  0.10566000000E+00 0.  1.
     999900   -1    0    0    0    0 -0.00000000000E+00 -0.00000000000E+00 -0.74505805969E-08  0.93827000000E+00  0.93827000000E+00 0.  1.
     999902    2    1    2    0    0  0.15308697977E-02  0.23227392226E-01 -0.12956292287E-03  0.10206518536E+01  0.10203863652E+01 0.  0.
     999903    2    3    3    0    0 -0.15579167824E-01 -0.11685760197E+00  0.46172485283E-01  0.12820553107E+00  0.20158129625E-01 0.  0.
         14    1    1    2    0    0 -0.15308697977E-02 -0.23227392226E-01  0.12956292287E-03  0.23278146372E-01  0.00000000000E+00 0. -1.
     999901    1    3    3    0    0  0.17110037622E-01  0.14008499420E+00 -0.46302048206E-01  0.89244632256E+00  0.88000000000E+00 0.  1.
        -11    1    4    4    0    0 -0.17917324832E-01 -0.79490458148E-01  0.25228777683E-01  0.85302495919E-01  0.51100000000E-03 0. -1.
         11    1    4    4    0    0  0.23381570080E-02 -0.37367143824E-01  0.20943707600E-01  0.42903035147E-01  0.51100000000E-03 0.  1.
</event>
<event>
 8    1  0.1138737E+005  0.1043930E+01  0.7957747E-01            NaN
         13   -1    0    0    0    0  0.00000000000E+00  0.00000000000E+00  0.74505805969E-08  0.10566000000E+00  0.10566000000E+00 0.  1.
     999900   -1    0    0    0    0 -0.00000000000E+00 -0.00000000000E+00 -0.74505805969E-08  0.93827000000E+00  0.93827000000E+00 0.  1.
     999902    2    1    2    0    0 -0.22403983018E-01 -0.14573418665E-02 -0.73685752989E-02  0.10203003956E+01  0.10200267345E+01 0.  0.
     999903    2    3    3    0    0  0.10769609665E+00 -0.20360077959E-01  0.61822426593E-01  0.12784830230E+00  0.22587473564E-01 0.  0.
         14    1    1    2    0    0  0.22403983018E-01  0.14573418665E-02  0.73685752989E-02  0.23629604362E-01  0.00000000000E+00 0.  1.
     999901    1    3    3    0    0 -0.13010007967E+00  0.18902736093E-01 -0.69191001892E-01  0.89245209334E+00  0.88000000000E+00 0.  1.
        -11    1    4    4    0    0  0.90275168129E-01 -0.10979749093E-01  0.43233997355E-01  0.10069558341E+00  0.51100000000E-03 0.  1.
         11    1    4    4    0    0  0.17420928524E-01 -0.93803288660E-02  0.18588429238E-01  0.27152718884E-01  0.51100000000E-03 0. -1.
</event>
<event>
 8    1  0.1138737E+005  0.1043930E+01  0.7957747E-01            NaN
         13   -1    0    0    0    0  0.00000000000E+00  0.00000000000E+00  0.74505805969E-08  0.10566000000E+00  0.10566000000E+00 0. -1.
     999900   -1    0    0    0    0 -0.00000000000E+00 -0.00000000000E+00 -0.74505805969E-08  0.93827000000E+00  0.93827000000E+00 0.  1.
     999902    2    1    2    0    0 -0.21985341707E-01  0.18053789940E-02  0.61862469279E-02  0.10210196466E+01  0.10207625749E+01 0.  0.
     999903    2    3    3    0    0  0.87000343655E-01 -0.27513927733E-02  0.94345960077E-01  0.12991315529E+00  0.19990942332E-01 0.  0.
         14    1    1    2    0    0  0.21985341707E-01 -0.18053789940E-02 -0.61862469279E-02  0.22910353431E-01  0.00000000000E+00 0. -1.
     999901    1    3    3    0    0 -0.10898568536E+00  0.45567717674E-02 -0.88159713149E-01  0.89110649128E+00  0.88000000000E+00 0. -1.
        -11    1    4    4    0    0  0.34813827209E-01 -0.17511763023E-02  0.52458613683E-01  0.62986002047E-01  0.51100000000E-03 0. -1.
         11    1    4    4    0    0  0.52186516446E-01 -0.10002164710E-02  0.41887346395E-01  0.66927153239E-01  0.51100000000E-03 0.  1.
</event>
<event>
 8    1  0.1138737E+005  0.1043930E+01  0.7957747E-01            NaN
         13   -1    0    0    0    0  0.00000000000E+00  0.00000000000E+00  0.74505805969E-08  0.10566000000E+00  0.10566000000E+00 0. -1.
     999900   -1    0    0    0    0 -0.00000000000E+00 -0.00000000000E+00 -0.74505805969E-08  0.93827000000E+00  0.93827000000E+00 0.  1.
     999902    2    1    2    0    0 -0.20322739496E-01 -0.10115875614E-01 -0.70911853512E-02  0.10201470315E+01  0.10198697644E+01 0.  0.
     999903    2    3    3    0    0  0.23816400528E-01 -0.29188927470E-01 -0.12352426134E+00  0.13117644361E+00  0.23017423794E-01 0.  0.
         14    1    1    2    0    0  0.20322739496E-01  0.10115875614E-01  0.70911853512E-02  0.23782968481E-01  0.00000000000E+00 0.  1.
     999901    1    3    3    0    0 -0.44139140024E-01  0.19073051856E-01  0.11643307598E+00  0.88897058791E+00  0.88000000000E+00 0. -1.
        -11    1    4    4    0    0  0.78201320350E-02 -0.70423552000E-02 -0.72821139792E-01  0.73579404410E-01  0.51100000000E-03 0. -1.
         11    1    4    4    0    0  0.15996268493E-01 -0.22146572270E-01 -0.50703121544E-01  0.57597039197E-01  0.51100000000E-03 0.  1.
</event>
<event>
 8    1  0.1138737E+005  0.1043930E+01  0.7957747E-01            NaN
         13   -1    0    0    0    0  0.00000000000E+00  0.00000000000E+00  0.74505805969E-08  0.10566000000E+00  0.10566000000E+00 0. -1.
     999900   -1    0    0    0    0 -0.00000000000E+00 -0.00000000000E+00 -0.74505805969E-08  0.93827000000E+00  0.93827000000E+00 0. -1.
     999902    2    1    2    0    0 -0.44309581375E-03 -0.20761590856E-01  0.29822669835E-02  0.10229506314E+01  0.10227354792E+01 0.  0.
     999903    2    3    3    0    0 -0.11570815988E+00 -0.63344704916E-01  0.14302183226E-01  0.13434076367E+00  0.21022807466E-01 0.  0.
         14    1    1    2    0    0  0.44309581375E-03  0.20761590856E-01 -0.29822669835E-02  0.20979368559E-01  0.00000000000E+00 0. -1.
     999901    1    3    3    0    0  0.11526506407E+00  0.42583114060E-01 -0.11319916242E-01  0.88860986777E+00  0.88000000000E+00 0.  1.
        -11    1    4    4    0    0 -0.50635984386E-01 -0.19252598535E-01  0.13055039506E-01  0.55725762826E-01  0.51100000000E-03 0.  1.
         11    1    4    4    0    0 -0.65072175497E-01 -0.44092106381E-01  0.12471437201E-02  0.78615000843E-01  0.51100000000E-03 0. -1.
</event>
<event>
 8    1  0.1138737E+005  0.1043930E+01  0.7957747E-01            NaN
         13   -1    0    0    0    0  0.00000000000E+00  0.00000000000E+00  0.74505805969E-08  0.10566000000E+00  0.10566000000E+00 0.  1.
     999900   -1    0    0    0    0 -0.00000000000E+00 -0.00000000000E+00 -0.74505805969E-08  0.93827000000E+00  0.93827000000E+00 0.  1.
     999902    2    1    2    0    0 -0.80537118655E-02  0.20526034929E-01 -0.96102937449E-02  0.10198771804E+01  0.10195935097E+01 0.  0.
     999903    2    3    3    0    0 -0.47345338877E-01 -0.10267220360E+00  0.56598305469E-01  0.12796618903E+00  0.19718388543E-01 0.  0.
         14    1    1    2    0    0  0.80537118655E-02 -0.20526034929E-01  0.96102937449E-02  0.24052819597E-01  0.00000000000E+00 0.  1.
     999901    1    3    3    0    0  0.39291627011E-01  0.12319823853E+00 -0.66208599214E-01  0.89191099138E+00  0.88000000000E+00 0.  1.
        -11    1    4    4    0    0 -0.29532760378E-01 -0.69845763135E-01  0.47635423331E-01  0.89554504300E-01  0.51100000000E-03 0. -1.
         11    1    4    4    0    0 -0.17812578499E-01 -0.32826440463E-01  0.89628821375E-02  0.38411684725E-01  0.51100000000E-03 0.  1.
</event>
<event>
 8    1  0.1138737E+005  0.1043930E+01  0.7957747E-01            NaN
         13   -1    0    0    0    0  0.00000000000E+00  0.00000000000E+00  0.74505805969E-08  0.10566000000E+00  0.10566000000E+00 0.  1.
     999900   -1    0    0    0    0 -0.00000000000E+00 -0.00000000000E+00 -0.74505805969E-08  0.93827000000E+00  0.93827000000E+00 0.  1.
     999902    2    1    2    0    0 -0.11527231455E-01  0.11069268124E-01 -0.16889749510E-01  0.10206777012E+01  0.10204128088E+01 0.  0.
     999903    2    3    3    0    0 -0.11658322586E+00  0.31776219583E-01 -0.52938527091E-01  0.13345447439E+00  0.20155207780E-01 0.  0.
         14    1    1    2    0    0  0.11527231455E-01 -0.11069268124E-01  0.16889749510E-01  0.23252298818E-01  0.00000000000E+00 0.  1.
     999901    1    3    3    0    0  0.10505599440E+00 -0.20706951459E-01  0.36048777581E-01  0.88722322679E+00  0.88000000000E+00 0. -1.
        -11    1    4    4    0    0 -0.50806874816E-01  0.14578683022E-01 -0.34097319518E-01  0.62902820657E-01  0.51100000000E-03 0.  1.
         11    1    4    4    0    0 -0.65776351043E-01  0.17197536561E-01 -0.18841207573E-01  0.70551653730E-01  0.51100000000E-03 0. -1.
</event>
<event>
 8    1  0.1138737E+005  0.1043930E+01  0.7957747E-01            NaN
         13   -1    0    0    0    0  0.00000000000E+00  0.00000000000E+00  0.74505805969E-08  0.10566000000E+00  0.10566000000E+00 0. -1.
     999900   -1    0    0    0    0 -0.00000000000E+00 -0.00000000000E+00 -0.74505805969E-08  0.93827000000E+00  0.93827000000E+00 0.  1.
     999902    2    1    2    0    0 -0.16023349432E-02  0.15848240245E-02  0.23554567091E-01  0.10202678620E+01  0.10199934379E+01 0.  0.
     999903    2    3    3    0    0  0.99747211460E-01  0.47973641044E-01 -0.63180377127E-01  0.12900661889E+00  0.19999280852E-01 0.  0.
         14    1    1    2    0    0  0.16023349432E-02 -0.15848240245E-02 -0.23554567091E-01  0.23662138012E-01  0.00000000000E+00 0.  1.
     999901    1    3    3    0    0 -0.10134954640E+00 -0.46388817020E-01  0.86734944217E-01  0.89126124310E+00  0.88000000000E+00 0.  1.
        -11    1    4    4    0    0  0.47237185081E-01  0.31254114812E-01 -0.24714479210E-01  0.61799983420E-01  0.51100000000E-03 0. -1.
         11    1    4    4    0    0  0.52510026378E-01  0.16719526232E-01 -0.38465897917E-01  0.67206635470E-01  0.51100000000E-03 0.  1.
</event>
<event>
 8    1  0.1138737E+005  0.1043930E+01  0.7957747E-01            NaN
         13   -1    0    0    0    0  0.00000000000E+00  0.00000000000E+00  0.74505805969E-08  0.10566000000E+00  0.10566000000E+00 0. -1.
     999900   -1    0    0    0    0 -0.00000000000E+00 -0.00000000000E+00 -0.74505805969E-08  0.93827000000E+00  0.93827000000E+00 0.  1.
     999902    2    1    2    0    0  0.18696281690E-01  0.15580759194E-01 -0.55024385884E-02  0.10189782899E+01  0.10186727480E+01 0.  0.
     999903    2    3    3    0    0 -0.66019146772E-01 -0.99230503423E-01  0.37607849105E-01  0.12644435400E+00  0.19199057112E-01 0.  0.
         14    1    1    2    0    0 -0.18696281690E-01 -0.15580759194E-01  0.55024385884E-02  0.24951710092E-01  0.00000000000E+00 0. -1.
     999901    1    3    3    0    0  0.84715428462E-01  0.11481126262E+00 -0.43110287693E-01  0.89253393591E+00  0.88000000000E+00 0.  1.
        -11    1    4    4    0    0 -0.47620231509E-01 -0.54707738312E-01  0.23498202702E-01  0.76243358605E-01  0.51100000000E-03 0.  1.
         11    1    4    4    0    0 -0.18398915263E-01 -0.44522765111E-01  0.14109646403E-01  0.50200995394E-01  0.51100000000E-03 0. -1.
</event>
<event>
 8    1  0.1138737E+005  0.1043930E+01  0.7957747E-01            NaN
         13   -1    0    0    0    0  0.00000000000E+00  0.00000000000E+00  0.74505805969E-08  0.10566000000E+00  0.10566000000E+00 0.  1.
     999900   -1    0    0    0    0 -0.00000000000E+00 -0.00000000000E+00 -0.74505805969E-08  0.93827000000E+00  0.93827000000E+00 0. -1.
     999902    2    1    2    0    0 -0.14683659833E-01  0.11798653360E-01  0.14439625438E-01  0.10201956184E+01  0.10199194963E+01 0.  0.
     999903    2    3    3    0    0  0.84555057358E-01 -0.58775692847E-01  0.76177874348E-01  0.12966730739E+00  0.20159421389E-01 0.  0.
         14    1    1    2    0    0  0.14683659833E-01 -0.11798653360E-01 -0.14439625438E-01  0.23734381601E-01  0.00000000000E+00 0. -1.
     999901    1    3    3    0    0 -0.99238717191E-01  0.70574346207E-01 -0.61738248910E-01  0.89052831101E+00  0.88000000000E+00 0. -1.
        -11    1    4    4    0    0  0.71324721276E-01 -0.56957475303E-01  0.63072484780E-01  0.11094939980E+00  0.51100000000E-03 0. -1.
         11    1    4    4    0    0  0.13230336082E-01 -0.18182175442E-02  0.13105389567E-01  0.18717907591E-01  0.51100000000E-03 0.  1.
</event>
<event>
 8    1  0.1138737E+005  0.1043930E+01  0.7957747E-01            NaN
         13   -1    0    0    0    0  0.00000000000E+00  0.00000000000E+00  0.74505805969E-08  0.10566000000E+00  0.10566000000E+00 0. -1.
     999900   -1    0    0    0    0 -0.00000000000E+00 -0.00000000000E+00 -0.74505805969E-08  0.93827000000E+00  0.93827000000E+00 0.  1.
     999902    2    1    2    0    0  0.55888177277E-02 -0.60479525654E-02  0.20275004628E-01  0.10220464805E+01  0.10218121744E+01 0.  0.
     999903    2    3    3    0    0  0.42602974995E-01 -0.40317719243E-02 -0.12111196123E+00  0.12999021155E+00  0.19951924313E-01 0.  0.
         14    1    1    2    0    0 -0.55888177277E-02  0.60479525654E-02 -0.20275004628E-01  0.21883519518E-01  0.00000000000E+00 0.  1.
     999901    1    3    3    0    0 -0.37014157267E-01 -0.20161806410E-02  0.14138696586E+00  0.89205626893E+00  0.88000000000E+00 0. -1.
        -11    1    4    4    0    0  0.24397460898E-01  0.46655753316E-02 -0.46795884454E-01  0.52982257542E-01  0.51100000000E-03 0.  1.
         11    1    4    4    0    0  0.18205514097E-01 -0.86973472559E-02 -0.74316076774E-01  0.77007954011E-01  0.51100000000E-03 0. -1.
</event>
<event>
 8    1  0.1138737E+005  0.1043930E+01  0.7957747E-01            NaN
         13   -1    0    0    0    0  0.00000000000E+00  0.00000000000E+00  0.74505805969E-08  0.10566000000E+00  0.10566000000E+00 0.  1.
     999900   -1    0    0    0    0 -0.00000000000E+00 -0.00000000000E+00 -0.74505805969E-08  0.93827000000E+00  0.93827000000E+00 0. -1.
     999902    2    1    2    0    0  0.21469052755E-01  0.14595927552E-02  0.88337046298E-02  0.10206687667E+01  0.10204036683E+01 0.  0.
     999903    2    3    3    0    0 -0.10056052210E-01 -0.25004109516E-01  0.12717269572E+00  0.13179404178E+00  0.21689749532E-01 0.  0.
         14    1    1    2    0    0 -0.21469052755E-01 -0.14595927552E-02 -0.88337046298E-02  0.23261233301E-01  0.00000000000E+00 0. -1.
     999901    1    3    3    0    0  0.31525104965E-01  0.26463702271E-01 -0.11833899109E+00  0.88887472492E+00  0.88000000000E+00 0. -1.
        -11    1    4    4    0    0  0.51010917162E-02 -0.14823871040E-01  0.46317208593E-01  0.48901055430E-01  0.51100000000E-03 0.  1.
         11    1    4    4    0    0 -0.15157143926E-01 -0.10180238476E-01  0.80855487125E-01  0.82892986353E-01  0.51100000000E-03 0. -1.
</event>
<event>
 8    1  0.1138737E+005  0.1043930E+01  0.7957747E-01            NaN
         13   -1    0    0    0    0  0.00000000000E+00  0.00000000000E+00  0.74505805969E-08  0.10566000000E+00  0.10566000000E+00 0. -1.
     999900   -1    0    0    0    0 -0.00000000000E+00 -0.00000000000E+00 -0.74505805969E-08  0.93827000000E+00  0.93827000000E+00 0.  1.
     999902    2    1    2    0    0 -0.13588149250E-01  0.17879430744E-01  0.92151725940E-02  0.10196559140E+01  0.10193669368E+01 0.  0.
     999903    2    3    3    0    0 -0.34765743921E-01 -0.70111992350E-01  0.10212712096E+00  0.13014840355E+00  0.19603818245E-01 0.  0.
         14    1    1    2    0    0  0.13588149250E-01 -0.17879430744E-01 -0.92151725940E-02  0.24274085970E-01  0.00000000000E+00 0.  1.
     999901    1    3    3    0    0  0.21177594672E-01  0.87991423094E-01 -0.92911948362E-01  0.88950751048E+00  0.88000000000E+00 0.  1.
        -11    1    4    4    0    0 -0.22544333178E-01 -0.39992718781E-01  0.74378296044E-01  0.87407417061E-01  0.51100000000E-03 0.  1.
         11    1    4    4    0    0 -0.12221410743E-01 -0.30119273570E-01  0.27748824912E-01  0.42740986487E-01  0.51100000000E-03 0. -1.
</event>
<event>
 8    1  0.1138737E+005  0.1043930E+01  0.7957747E-01            NaN
         13   -1    0    0    0    0  0.00000000000E+00  0.00000000000E+00  0.74505805969E-08  0.10566000000E+00  0.10566000000E+00 0. -1.
     999900   -1    0    0    0    0 -0.00000000000E+00 -0.00000000000E+00 -0.74505805969E-08  0.93827000000E+00  0.93827000000E+00 0.  1.
     999902    2    1    2    0    0  0.17109230104E-01 -0.97931577932E-02 -0.88463484617E-02  0.10223223723E+01  0.10220939992E+01 0.  0.
     999903    2    3    3    0    0 -0.10810339700E+00  0.46105692017E-01  0.51567581999E-01  0.12965629452E+00  0.18424438023E-01 0.  0.
         14    1    1    2    0    0 -0.17109230104E-01  0.97931577932E-02  0.88463484617E-02  0.21607627713E-01  0.00000000000E+00 0. -1.
     999901    1    3    3    0    0  0.12521262711E+00 -0.55898849810E-01 -0.60413930461E-01  0.89266607776E+00  0.88000000000E+00 0.  1.
        -11    1    4    4    0    0 -0.26273106620E-01  0.20023455488E-01  0.12927571034E-01  0.35476726385E-01  0.51100000000E-03 0.  1.
         11    1    4    4    0    0 -0.81830290381E-01  0.26082236529E-01  0.38640010965E-01  0.94179568138E-01  0.51100000000E-03 0. -1.
</event>
<event>
 8    1  0.1138737E+005  0.1043930E+01  0.7957747E-01            NaN
         13   -1    0    0    0    0  0.00000000000E+00  0.00000000000E+00  0.74505805969E-08  0.10566000000E+00  0.10566000000E+00 0. -1.
     999900   -1    0    0    0    0 -0.00000000000E+00 -0.00000000000E+00 -0.74505805969E-08  0.93827000000E+00  0.93827000000E+00 0. -1.
     999902    2    1    2    0    0 -0.20337940389E-01 -0.53569985096E-02  0.12213423149E-01  0.10196092895E+01  0.10193191877E+01 0.  0.
     999903    2    3    3    0    0  0.10774395907E+00 -0.16132756517E-01 -0.62674552303E-01  0.12712438838E+00  0.19065258087E-01 0.  0.
         14    1    1    2    0    0  0.20337940389E-01  0.53569985096E-02 -0.12213423149E-01  0.24320710460E-01  0.00000000000E+00 0.  1.
     999901    1    3    3    0    0 -0.12808189946E+00  0.10775758007E-01  0.74887975452E-01  0.89248490116E+00  0.88000000000E+00 0.  1.
        -11    1    4    4    0    0  0.45139052617E-01  0.12701188954E-04 -0.33375992711E-01  0.56140468852E-01  0.51100000000E-03 0.  1.
         11    1    4    4    0    0  0.62604906453E-01 -0.16145457706E-01 -0.29298559592E-01  0.70983919529E-01  0.51100000000E-03 0. -1.
</event>
<event>
 8    1  0.1421436E+005  0.1043930E+01  0.7957747E-01            NaN
         13   -1    0    0    0    0  0.00000000000E+00  0.00000000000E+00  0.74505805969E-08  0.10566000000E+00  0.10566000000E+00 0. -1.
     999900   -1    0    0    0    0 -0.00000000000E+00 -0.00000000000E+00 -0.74505805969E-08  0.93827000000E+00  0.93827000000E+00 0.  1.
     999902    2    1    2    0    0 -0.15785467444E-01 -0.15720476047E-01 -0.14008058266E-01  0.10176138444E+01  0.10172735110E+01 0.  0.
     999903    2    3    3    0    0  0.54642562488E-01  0.30291658095E-02 -0.11548795101E+00  0.12878887563E+00  0.15941209989E-01 0.  0.
         14    1    1    2    0    0  0.15785467444E-01  0.15720476047E-01  0.14008058266E-01  0.26316155608E-01  0.00000000000E+00 0. -1.
     999901    1    3    3    0    0 -0.70428029932E-01 -0.18749641857E-01  0.10147989274E+00  0.88882496877E+00  0.88000000000E+00 0. -1.
        -11    1    4    4    0    0  0.27426746048E-01 -0.36019596074E-02 -0.43634290309E-01  0.51666361625E-01  0.51100000000E-03 0. -1.
         11    1    4    4    0    0  0.27215816440E-01  0.66311254169E-02 -0.71853660701E-01  0.77122514001E-01  0.51100000000E-03 0.  1.
</event>
<event>
 8    1  0.1138737E+005  0.1043930E+01  0.7957747E-01            NaN
         13   -1    0    0    0    0  0.00000000000E+00  0.00000000000E+00  0.74505805969E-08  0.10566000000E+00  0.10566000000E+00 0. -1.
     999900   -1    0    0    0    0 -0.00000000000E+00 -0.00000000000E+00 -0.74505805969E-08  0.93827000000E+00  0.93827000000E+00 0.  1.
     999902    2    1    2    0    0 -0.15810232971E-01  0.19892435900E-02  0.17460348440E-01  0.10202913807E+01  0.10200175082E+01 0.  0.
     999903    2    3    3    0    0 -0.16812953079E-01  0.12802987658E+00 -0.76340916528E-02  0.13095624836E+00  0.20418984803E-01 0.  0.
         14    1    1    2    0    0  0.15810232971E-01 -0.19892435900E-02 -0.17460348440E-01  0.23638619340E-01  0.00000000000E+00 0.  1.
     999901    1    3    3    0    0  0.10027201084E-02 -0.12604063299E+00  0.25094440093E-01  0.88933513230E+00  0.88000000000E+00 0. -1.
        -11    1    4    4    0    0 -0.11708488305E-01  0.10745781245E+00 -0.13558559755E-01  0.10894202962E+00  0.51100000000E-03 0.  1.
         11    1    4    4    0    0 -0.51044647739E-02  0.20572064135E-01  0.59244681026E-02  0.22014218739E-01  0.51100000000E-03 0. -1.
</event>
<event>
 8    1  0.1138737E+005  0.1043930E+01  0.7957747E-01            NaN
         13   -1    0    0    0    0  0.00000000000E+00  0.00000000000E+00  0.74505805969E-08  0.10566000000E+00  0.10566000000E+00 0. -1.
     999900   -1    0    0    0    0 -0.00000000000E+00 -0.00000000000E+00 -0.74505805969E-08  0.93827000000E+00  0.93827000000E+00 0. -1.
     999902    2    1    2    0    0 -0.19229532868E-03 -0.48521501936E-02 -0.20422018092E-01  0.10229385931E+01  0.10227231914E+01 0.  0.
     999903    2    3    3    0    0  0.14040411201E-02  0.12180301883E+00  0.45486465349E-01  0.13142975509E+00  0.19152421928E-01 0.  0.
         14    1    1    2    0    0  0.19229532868E-03  0.48521501936E-02  0.20422018092E-01  0.20991406859E-01  0.00000000000E+00 0. -1.
     999901    1    3    3    0    0 -0.15963364487E-02 -0.12665516902E+00 -0.65908483441E-01  0.89150883805E+00  0.88000000000E+00 0.  1.
        -11    1    4    4    0    0 -0.30787459452E-02  0.55525011257E-01  0.30115519438E-01  0.63243269869E-01  0.51100000000E-03 0. -1.
         11    1    4    4    0    0  0.44827870653E-02  0.66278007573E-01  0.15370945911E-01  0.68186485222E-01  0.51100000000E-03 0.  1.
</event>
<event>
 8    1  0.1138737E+005  0.1043930E+01  0.7957747E-01            NaN
         13   -1    0    0    0    0  0.00000000000E+00  0.00000000000E+00  0.74505805969E-08  0.10566000000E+00  0.10566000000E+00 0. -1.
     999900   -1    0    0    0    0 -0.00000000000E+00 -0.00000000000E+00 -0.74505805969E-08  0.93827000000E+00  0.93827000000E+00 0.  1.
     999902    2    1    2    0    0  0.10458693102E-01 -0.21027197302E-01  0.49023711819E-02  0.10199391574E+01  0.10196569640E+01 0.  0.
     999903    2    3    3    0    0  0.11764349339E-02 -0.80571037443E-01  0.10320227388E+00  0.13241760827E+00  0.19764553413E-01 0.  0.
         14    1    1    2    0    0 -0.10458693102E-01  0.21027197302E-01 -0.49023711819E-02  0.23990842649E-01  0.00000000000E+00 0.  1.
     999901    1    3    3    0    0  0.92822581683E-02  0.59543840140E-01 -0.98299902699E-01  0.88752154908E+00  0.88000000000E+00 0.  1.
        -11    1    4    4    0    0  0.60134914046E-02 -0.21762624332E-01  0.18537247603E-01  0.29217538677E-01  0.51100000000E-03 0. -1.
         11    1    4    4    0    0 -0.48370564707E-02 -0.58808413111E-01  0.84665026278E-01  0.10320006959E+00  0.51100000000E-03 0.  1.
</event>
<event>
 8    1  0.1138737E+005  0.1043930E+01  0.7957747E-01            NaN
         13   -1    0    0    0    0  0.00000000000E+00  0.00000000000E+00  0.74505805969E-08  0.10566000000E+00  0.10566000000E+00 0.  1.
     999900   -1    0    0    0    0 -0.00000000000E+00 -0.00000000000E+00 -0.74505805969E-08  0.93827000000E+00  0.93827000000E+00 0. -1.
     999902    2    1    2    0    0  0.12860884111E-01  0.43955415415E-02 -0.17419302214E-01  0.10218357651E+01  0.10215968753E+01 0.  0.
     999903    2    3    3    0    0  0.96221168025E-01 -0.24916044566E-01  0.84143445887E-01  0.13159810144E+00  0.18937221685E-01 0.  0.
         14    1    1    2    0    0 -0.12860884111E-01 -0.43955415415E-02  0.17419302214E-01  0.22094234886E-01  0.00000000000E+00 0.  1.
     999901    1    3    3    0    0 -0.83360283914E-01  0.29311586108E-01 -0.10156274810E+00  0.89023766367E+00  0.88000000000E+00 0. -1.
        -11    1    4    4    0    0  0.34312661039E-01 -0.12545149375E-01  0.20248970306E-01  0.41773453291E-01  0.51100000000E-03 0. -1.
         11    1    4    4    0    0  0.61908506985E-01 -0.12370895191E-01  0.63894475582E-01  0.89824648153E-01  0.51100000000E-03 0.  1.
</event>
<event>
 8    1  0.1138737E+005  0.1043930E+01  0.7957747E-01            NaN
         13   -1    0    0    0    0  0.00000000000E+00  0.00000000000E+00  0.74505805969E-08  0.10566000000E+00  0.10566000000E+00 0. -1.
     999900   -1    0    0    0    0 -0.00000000000E+00 -0.00000000000E+00 -0.74505805969E-08  0.93827000000E+00  0.93827000000E+00 0.  1.
     999902    2    1    2    0    0  0.17934816006E-01  0.50650644751E-02 -0.14555581914E-01  0.10202830664E+01  0.10200089990E+01 0.  0.
     999903    2    3    3    0    0  0.67429893666E-01 -0.10786667695E+00  0.22986086024E-01  0.13089410889E+00  0.20564460452E-01 0.  0.
         14    1    1    2    0    0 -0.17934816006E-01 -0.50650644751E-02  0.14555581914E-01  0.23646933589E-01  0.00000000000E+00 0. -1.
     999901    1    3    3    0    0 -0.49495077660E-01  0.11293174143E+00 -0.37541667938E-01  0.88938895752E+00  0.88000000000E+00 0.  1.
        -11    1    4    4    0    0  0.32598506451E-01 -0.63069633245E-01  0.42156392907E-02  0.71122949855E-01  0.51100000000E-03 0.  1.
         11    1    4    4    0    0  0.34831387216E-01 -0.44797043709E-01  0.18770446733E-01  0.59771159031E-01  0.51100000000E-03 0. -1.
</event>
<event>
 8    1  0.1138737E+005  0.1043930E+01  0.7957747E-01            NaN
         13   -1    0    0    0    0  0.00000000000E+00  0.00000000000E+00  0.74505805969E-08  0.10566000000E+00  0.10566000000E+00 0. -1.
     999900   -1    0    0    0    0 -0.00000000000E+00 -0.00000000000E+00 -0.74505805969E-08  0.93827000000E+00  0.93827000000E+00 0.  1.
     999902    2    1    2    0    0  0.22840480197E-01  0.55871013835E-02  0.38283841957E-02  0.10201064872E+01  0.10198282627E+01 0.  0.
     999903    2    3    3    0    0 -0.11748235890E+00 -0.37605155168E-01  0.25730832790E-01  0.12767397575E+00  0.20550327976E-01 0.  0.
         14    1    1    2    0    0 -0.22840480197E-01 -0.55871013835E-02 -0.38283841957E-02  0.23823512819E-01  0.00000000000E+00 0. -1.
     999901    1    3    3    0    0  0.14032283910E+00  0.43192256551E-01 -0.21902448594E-01  0.89243251143E+00  0.88000000000E+00 0. -1.
        -11    1    4    4    0    0 -0.42390361409E-01 -0.68422651385E-02  0.14414295442E-02  0.42966244573E-01  0.51100000000E-03 0. -1.
         11    1    4    4    0    0 -0.75091997494E-01 -0.30762890029E-01  0.24289403245E-01  0.84707731180E-01  0.51100000000E-03 0.  1.
</event>
<event>
 8    1  0.1138737E+005  0.1043930E+01  0.7957747E-01            NaN
         13   -1    0    0    0    0  0.00000000000E+00  0.00000000000E+00  0.74505805969E-08  0.10566000000E+00  0.10566000000E+00 0. -1.
     999900   -1    0    0    0    0 -0.00000000000E+00 -0.00000000000E+00 -0.74505805969E-08  0.93827000000E+00  0.93827000000E+00 0. -1.
     999902    2    1    2    0    0  0.57059072074E-02  0.22898232236E-01 -0.31915148887E-02  0.10201167225E+01  0.10198387399E+01 0.  0.
     999903    2    3    3    0    0 -0.78669049199E-01 -0.66378386448E-01  0.74317855405E-01  0.12821025300E+00  0.17883395987E-01 0.  0.
         14    1    1    2    0    0 -0.57059072074E-02 -0.22898232236E-01  0.31915148887E-02  0.23813277470E-01  0.00000000000E+00 0. -1.
     999901    1    3    3    0    0  0.84374956406E-01  0.89276618684E-01 -0.77509370293E-01  0.89190646953E+00  0.88000000000E+00 0. -1.
        -11    1    4    4    0    0 -0.41806726019E-01 -0.43719115022E-01  0.35895886396E-01  0.70341588977E-01  0.51100000000E-03 0.  1.
         11    1    4    4    0    0 -0.36862323180E-01 -0.22659271427E-01  0.38421969009E-01  0.57868664019E-01  0.51100000000E-03 0. -1.
</event>
<event>
 8    1  0.1138737E+005  0.1043930E+01  0.7957747E-01            NaN
         13   -1    0    0    0    0  0.00000000000E+00  0.00000000000E+00  0.74505805969E-08  0.10566000000E+00  0.10566000000E+00 0.  1.
     999900   -1    0    0    0    0 -0.00000000000E+00 -0.00000000000E+00 -0.74505805969E-08  0.93827000000E+00  0.93827000000E+00 0. -1.
     999902    2    1    2    0    0  0.14717092750E-01  0.17958779407E-01  0.54130629165E-03  0.10207049362E+01  0.10204406711E+01 0.  0.
     999903    2    3    3    0    0  0.11299262707E+00 -0.16244004740E-01  0.62796101467E-01  0.13238991852E+00  0.23506141817E-01 0.  0.
         14    1    1    2    0    0 -0.14717092750E-01 -0.17958779407E-01 -0.54130629165E-03  0.23225063817E-01  0.00000000000E+00 0.  1.
     999901    1    3    3    0    0 -0.98275534320E-01  0.34202784147E-01 -0.62254795176E-01  0.88831501767E+00  0.88000000000E+00 0. -1.
        -11    1    4    4    0    0  0.55610311629E-01 -0.12093635472E-01  0.43749586598E-01  0.71784749264E-01  0.51100000000E-03 0.  1.
         11    1    4    4    0    0  0.57382315441E-01 -0.41503692676E-02  0.19046514869E-01  0.60605169253E-01  0.51100000000E-03 0. -1.
</event>
<event>
 8    1  0.1138737E+005  0.1043930E+01  0.7957747E-01            NaN
         13   -1    0    0    0    0  0.00000000000E+00  0.00000000000E+00  0.74505805969E-08  0.10566000000E+00  0.10566000000E+00 0.  1.
     999900   -1    0    0    0    0 -0.00000000000E+00 -0.00000000000E+00 -0.74505805969E-08  0.93827000000E+00  0.93827000000E+00 0.  1.
     999902    2    1    2    0    0 -0.14312581879E-01 -0.17216508621E-01 -0.12308463923E-01  0.10183809011E+01  0.10180603633E+01 0.  0.
     999903    2    3    3    0    0 -0.76055067881E-01 -0.25888995824E-01  0.99086922827E-01  0.12916985823E+00  0.20298289225E-01 0.  0.
         14    1    1    2    0    0  0.14312581879E-01  0.17216508621E-01  0.12308463923E-01  0.25549098875E-01  0.00000000000E+00 0.  1.
     999901    1    3    3    0    0  0.61742486001E-01  0.86724872024E-02 -0.11139538675E+00  0.88921104289E+00  0.88000000000E+00 0.  1.
        -11    1    4    4    0    0 -0.54104333375E-01 -0.16292601687E-01  0.54257545387E-01  0.78338177871E-01  0.51100000000E-03 0.  1.
         11    1    4    4    0    0 -0.21950734505E-01 -0.95963941369E-02  0.44829377440E-01  0.50831680362E-01  0.51100000000E-03 0. -1.
</event>
<event>
 8    1  0.1138737E+005  0.1043930E+01  0.7957747E-01            NaN
         13   -1    0    0    0    0  0.00000000000E+00  0.00000000000E+00  0.74505805969E-08  0.10566000000E+00  0.10566000000E+00 0.  1.
     999900   -1    0    0    0    0 -0.00000000000E+00 -0.00000000000E+00 -0.74505805969E-08  0.93827000000E+00  0.93827000000E+00 0.  1.
     999902    2    1    2    0    0 -0.90489993884E-02 -0.68865508424E-02 -0.22118030685E-01  0.10190600130E+01  0.10187564939E+01 0.  0.
     999903    2    3    3    0    0  0.79604756196E-01  0.23374996292E-01  0.93531512669E-01  0.12656347715E+00  0.19668813508E-01 0.  0.
         14    1    1    2    0    0  0.90489993884E-02  0.68865508424E-02  0.22118030685E-01  0.24869987009E-01  0.00000000000E+00 0.  1.
     999901    1    3    3    0    0 -0.88653755585E-01 -0.30261547135E-01 -0.11564954335E+00  0.89249653584E+00  0.88000000000E+00 0.  1.
        -11    1    4    4    0    0  0.57664148288E-01  0.22973168553E-01  0.58960167980E-01  0.85612399805E-01  0.51100000000E-03 0.  1.
         11    1    4    4    0    0  0.21940607908E-01  0.40182773966E-03  0.34571344689E-01  0.40951077343E-01  0.51100000000E-03 0. -1.
</event>
<event>
 8    1  0.1138737E+005  0.1043930E+01  0.7957747E-01            NaN
         13   -1    0    0    0    0  0.00000000000E+00  0.00000000000E+00  0.74505805969E-08  0.10566000000E+00  0.10566000000E+00 0.  1.
     999900   -1    0    0    0    0 -0.00000000000E+00 -0.00000000000E+00 -0.74505805969E-08  0.93827000000E+00  0.93827000000E+00 0. -1.
     999902    2    1    2    0    0 -0.63154425239E-02 -0.20556702527E-01  0.80615139447E-03  0.10224099463E+01  0.10221834402E+01 0.  0.
     999903    2    3    3    0    0 -0.61600393765E-01 -0.11127936733E+00 -0.40792057870E-01  0.13504449800E+00  0.19882614268E-01 0.  0.
         14    1    1    2    0    0  0.63154425239E-02  0.20556702527E-01 -0.80615139447E-03  0.21520053744E-01  0.00000000000E+00 0.  1.
     999901    1    3    3    0    0  0.55284951241E-01  0.90722664802E-01  0.41598209264E-01  0.88736544825E+00  0.88000000000E+00 0.  1.
        -11    1    4    4    0    0 -0.34053765638E-01 -0.76051687119E-01 -0.33115317625E-01  0.89668296795E-01  0.51100000000E-03 0.  1.
         11    1    4    4    0    0 -0.27546628127E-01 -0.35227680210E-01 -0.76767402454E-02  0.45376201206E-01  0.51100000000E-03 0. -1.
</event>
<event>
 8    1  0.1138737E+005  0.1043930E+01  0.7957747E-01            NaN
         13   -1    0    0    0    0  0.00000000000E+00  0.00000000000E+00  0.74505805969E-08  0.10566000000E+00  0.10566000000E+00 0. -1.
     999900   -1    0    0    0    0 -0.00000000000E+00 -0.00000000000E+00 -0.74505805969E-08  0.93827000000E+00  0.93827000000E+00 0.  1.
     999902    2    1    2    0    0  0.22908830005E-01 -0.20785735892E-02 -0.50728332531E-02  0.10203743510E+01  0.10201024202E+01 0.  0.
     999903    2    3    3    0    0 -0.10363720819E+00 -0.64066757253E-01  0.33515516143E-01  0.12832867094E+00  0.22354812779E-01 0.  0.
         14    1    1    2    0    0 -0.22908830005E-01  0.20785735892E-02  0.50728332531E-02  0.23555648953E-01  0.00000000000E+00 0. -1.
     999901    1    3    3    0    0  0.12654603820E+00  0.61988183664E-01 -0.38588349396E-01  0.89204568011E+00  0.88000000000E+00 0.  1.
        -11    1    4    4    0    0 -0.41043850066E-01 -0.13725187740E-01  0.77420575482E-02  0.43967931300E-01  0.51100000000E-03 0.  1.
         11    1    4    4    0    0 -0.62593358128E-01 -0.50341569513E-01  0.25773458595E-01  0.84360739635E-01  0.51100000000E-03 0. -1.
</event>
<event>
 8    1  0.1138737E+005  0.1043930E+01  0.7957747E-01            NaN
         13   -1    0    0    0    0  0.00000000000E+00  0.00000000000E+00  0.74505805969E-08  0.10566000000E+00  0.10566000000E+00 0. -1.
     999900   -1    0    0    0    0 -0.00000000000E+00 -0.00000000000E+00 -0.74505805969E-08  0.93827000000E+00  0.93827000000E+00 0.  1.
     999902    2    1    2    0    0 -0.15757650503E-01 -0.91296484754E-03  0.17659516889E-01  0.10202446545E+01  0.10199696856E+01 0.  0.
     999903    2    3    3    0    0 -0.97833857100E-01  0.68326568686E-01  0.54703886594E-01  0.13294374613E+00  0.21012873251E-01 0.  0.
         14    1    1    2    0    0  0.15757650503E-01  0.91296484754E-03 -0.17659516889E-01  0.23685345489E-01  0.00000000000E+00 0.  1.
     999901    1    3    3    0    0  0.82076206597E-01 -0.69239533533E-01 -0.37044369705E-01  0.88730090838E+00  0.88000000000E+00 0. -1.
        -11    1    4    4    0    0 -0.69634283220E-03  0.21667240588E-02  0.46454791306E-02  0.51981904390E-02  0.51100000000E-03 0.  1.
         11    1    4    4    0    0 -0.97137514268E-01  0.66159844627E-01  0.50058407463E-01  0.12774555569E+00  0.51100000000E-03 0. -1.
</event>
<event>
 8    1  0.1138737E+005  0.1043930E+01  0.7957747E-01            NaN
         13   -1    0    0    0    0  0.00000000000E+00  0.00000000000E+00  0.74505805969E-08  0.10566000000E+00  0.10566000000E+00 0. -1.
     999900   -1    0    0    0    0 -0.00000000000E+00 -0.00000000000E+00 -0.74505805969E-08  0.93827000000E+00  0.93827000000E+00 0.  1.
     999902    2    1    2    0    0  0.15717633169E-01 -0.60398376091E-02  0.16407099292E-01  0.10204200758E+01  0.10201492119E+01 0.  0.
     999903    2    3    3    0    0  0.36086046106E-01 -0.85694554725E-01 -0.88970717854E-01  0.13032781618E+00  0.20586199324E-01 0.  0.
         14    1    1    2    0    0 -0.15717633169E-01  0.60398376091E-02 -0.16407099292E-01  0.23509924244E-01  0.00000000000E+00 0.  1.
     999901    1    3    3    0    0 -0.20368412936E-01  0.79654717116E-01  0.10537781715E+00  0.89009225957E+00  0.88000000000E+00 0. -1.
        -11    1    4    4    0    0  0.30467274591E-01 -0.46874687195E-01 -0.55179613828E-01  0.78552797683E-01  0.51100000000E-03 0. -1.
         11    1    4    4    0    0  0.56187715140E-02 -0.38819867530E-01 -0.33791104026E-01  0.51775018500E-01  0.51100000000E-03 0.  1.
</event>
<event>
 8    1  0.1138737E+005  0.1043930E+01  0.7957747E-01            NaN
         13   -1    0    0    0    0  0.00000000000E+00  0.00000000000E+00  0.74505805969E-08  0.10566000000E+00  0.10566000000E+00 0. -1.
     999900   -1    0    0    0    0 -0.00000000000E+00 -0.00000000000E+00 -0.74505805969E-08  0.93827000000E+00  0.93827000000E+00 0. -1.
     999902    2    1    2    0    0 -0.68358250423E-02  0.26699570778E-02  0.22796468556E-01  0.10199813851E+01  0.10197001961E+01 0.  0.
     999903    2    3    3    0    0  0.70947186525E-01  0.44442740272E-02 -0.10390726012E+00  0.12750887579E+00  0.20212368795E-01 0.  0.
         14    1    1    2    0    0  0.68358250423E-02 -0.26699570778E-02 -0.22796468556E-01  0.23948614854E-01  0.00000000000E+00 0.  1.
     999901    1    3    3    0    0 -0.77783011568E-01 -0.17743169494E-02  0.12670372868E+00  0.89247250935E+00  0.88000000000E+00 0.  1.
        -11    1    4    4    0    0  0.48830712013E-01  0.33674436850E-02 -0.53862376943E-01  0.72781830724E-01  0.51100000000E-03 0. -1.
         11    1    4    4    0    0  0.22116474512E-01  0.10768303423E-02 -0.50044883181E-01  0.54727045069E-01  0.51100000000E-03 0.  1.
</event>
<event>
 8    1  0.1138737E+005  0.1043930E+01  0.7957747E-01            NaN
         13   -1    0    0    0    0  0.00000000000E+00  0.00000000000E+00  0.74505805969E-08  0.10566000000E+00  0.10566000000E+00 0.  1.
     999900   -1    0    0    0    0 -0.00000000000E+00 -0.00000000000E+00 -0.74505805969E-08  0.93827000000E+00  0.93827000000E+00 0.  1.
     999902    2    1    2    0    0 -0.13934337699E-02 -0.13784244949E-01  0.19172182112E-01  0.10202758326E+01  0.10200015956E+01 0.  0.
     999903    2    3    3    0    0 -0.64066131580E-02  0.80751816368E-01  0.10072014234E+00  0.13144948927E+00  0.23927403079E-01 0.  0.
         14    1    1    2    0    0  0.13934337699E-02  0.13784244949E-01 -0.19172182112E-01  0.23654167359E-01  0.00000000000E+00 0. -1.
     999901    1    3    3    0    0  0.50131793881E-02 -0.94536061316E-01 -0.81547960223E-01  0.88882634337E+00  0.88000000000E+00 0.  1.
        -11    1    4    4    0    0 -0.57409228232E-02  0.62553789549E-01  0.91615309574E-01  0.11108357597E+00  0.51100000000E-03 0. -1.
         11    1    4    4    0    0 -0.66569033482E-03  0.18198026819E-01  0.91048327613E-02  0.20365913295E-01  0.51100000000E-03 0.  1.
</event>
<event>
 8    1  0.1138737E+005  0.1043930E+01  0.7957747E-01            NaN
         13   -1    0    0    0    0  0.00000000000E+00  0.00000000000E+00  0.74505805969E-08  0.10566000000E+00  0.10566000000E+00 0. -1.
     999900   -1    0    0    0    0 -0.00000000000E+00 -0.00000000000E+00 -0.74505805969E-08  0.93827000000E+00  0.93827000000E+00 0. -1.
     999902    2    1    2    0    0  0.15191452031E-01  0.11512628760E-01  0.59970835378E-02  0.10239478618E+01  0.10237528695E+01 0.  0.
     999903    2    3    3    0    0  0.98198996776E-02 -0.12122104942E+00 -0.44009079317E-01  0.13257381057E+00  0.29121176737E-01 0.  0.
         14    1    1    2    0    0 -0.15191452031E-01 -0.11512628760E-01 -0.59970835378E-02  0.19982138192E-01  0.00000000000E+00 0.  1.
     999901    1    3    3    0    0  0.53715523530E-02  0.13273367818E+00  0.50006162855E-01  0.89137405124E+00  0.88000000000E+00 0. -1.
        -11    1    4    4    0    0  0.15126511728E-01 -0.10259633056E+00 -0.45277224516E-01  0.11315965086E+00  0.51100000000E-03 0.  1.
         11    1    4    4    0    0 -0.53066120504E-02 -0.18624718860E-01  0.12681451991E-02  0.19414159712E-01  0.51100000000E-03 0. -1.
</event>
<event>
 8    1  0.1138737E+005  0.1043930E+01  0.7957747E-01            NaN
         13   -1    0    0    0    0  0.00000000000E+00  0.00000000000E+00  0.74505805969E-08  0.10566000000E+00  0.10566000000E+00 0.  1.
     999900   -1    0    0    0    0 -0.00000000000E+00 -0.00000000000E+00 -0.74505805969E-08  0.93827000000E+00  0.93827000000E+00 0. -1.
     999902    2    1    2    0    0 -0.95311137190E-02 -0.16718963567E-01 -0.83766748178E-02  0.10229410850E+01  0.10227257349E+01 0.  0.
     999903    2    3    3    0    0  0.83790553211E-01 -0.50892169010E-01  0.86646705140E-01  0.13226371119E+00  0.19369256906E-01 0.  0.
         14    1    1    2    0    0  0.95311137190E-02  0.16718963567E-01  0.83766748178E-02  0.20988914991E-01  0.00000000000E+00 0.  1.
     999901    1    3    3    0    0 -0.93321666930E-01  0.34173205443E-01 -0.95023379958E-01  0.89067737382E+00  0.88000000000E+00 0. -1.
        -11    1    4    4    0    0  0.47781868275E-01 -0.29215935604E-01  0.36595524029E-01  0.66904195153E-01  0.51100000000E-03 0. -1.
         11    1    4    4    0    0  0.36008684936E-01 -0.21676233406E-01  0.50051181111E-01  0.65359516040E-01  0.51100000000E-03 0.  1.
</event>
<event>
 8    1  0.1138737E+005  0.1043930E+01  0.7957747E-01            NaN
         13   -1    0    0    0    0  0.00000000000E+00  0.00000000000E+00  0.74505805969E-08  0.10566000000E+00  0.10566000000E+00 0. -1.
     999900   -1    0    0    0    0 -0.00000000000E+00 -0.00000000000E+00 -0.74505805969E-08  0.93827000000E+00  0.93827000000E+00 0. -1.
     999902    2    1    2    0    0 -0.18962666695E-01  0.33621443307E-02 -0.13809298760E-01  0.10202322475E+01  0.10199569870E+01 0.  0.
     999903    2    3    3    0    0  0.55943566880E-01  0.64122444032E-01  0.94205249346E-01  0.12839711671E+00  0.19230706498E-01 0.  0.
         14    1    1    2    0    0  0.18962666695E-01 -0.33621443307E-02  0.13809298760E-01  0.23697752529E-01  0.00000000000E+00 0.  1.
     999901    1    3    3    0    0 -0.74906233575E-01 -0.60760299702E-01 -0.10801454811E+00  0.89183513076E+00  0.88000000000E+00 0.  1.
        -11    1    4    4    0    0  0.46032274070E-01  0.40110967533E-01  0.69996113274E-01  0.92884750993E-01  0.51100000000E-03 0. -1.
         11    1    4    4    0    0  0.99112928099E-02  0.24011476499E-01  0.24209136072E-01  0.35512365722E-01  0.51100000000E-03 0.  1.
</event>
<event>
 8    1  0.1138737E+005  0.1043930E+01  0.7957747E-01            NaN
         13   -1    0    0    0    0  0.00000000000E+00  0.00000000000E+00  0.74505805969E-08  0.10566000000E+00  0.10566000000E+00 0. -1.
     999900   -1    0    0    0    0 -0.00000000000E+00 -0.00000000000E+00 -0.74505805969E-08  0.93827000000E+00  0.93827000000E+00 0.  1.
     999902    2    1    2    0    0  0.22696872052E-01  0.31983373649E-02 -0.47158027164E-02  0.10205288001E+01  0.10202604646E+01 0.  0.
     999903    2    3    3    0    0  0.79882439583E-01 -0.10022207463E+00 -0.24935693707E-01  0.13239884632E+00  0.21954436685E-01 0.  0.
         14    1    1    2    0    0 -0.22696872052E-01 -0.31983373649E-02  0.47158027164E-02  0.23401199929E-01  0.00000000000E+00 0. -1.
     999901    1    3    3    0    0 -0.57185567531E-01  0.10342041200E+00  0.20219890991E-01  0.88812995375E+00  0.88000000000E+00 0. -1.
        -11    1    4    4    0    0  0.14719213856E-01 -0.32242244554E-01 -0.11563736363E-01  0.37285368579E-01  0.51100000000E-03 0. -1.
         11    1    4    4    0    0  0.65163225727E-01 -0.67979830077E-01 -0.13371957344E-01  0.95113477745E-01  0.51100000000E-03 0.  1.
</event>
<event>
 8    1  0.1138737E+005  0.1043930E+01  0.7957747E-01            NaN
         13   -1    0    0    0    0  0.00000000000E+00  0.00000000000E+00  0.74505805969E-08  0.10566000000E+00  0.10566000000E+00 0. -1.
     999900   -1    0    0    0    0 -0.00000000000E+00 -0.00000000000E+00 -0.74505805969E-08  0.93827000000E+00  0.93827000000E+00 0.  1.
     999902    2    1    2    0    0  0.31937329258E-02 -0.16228866868E-01  0.17946691847E-01  0.10195238574E+01  0.10192316890E+01 0.  0.
     999903    2    3    3    0    0 -0.97231988942E-01  0.17721394264E-01  0.83327977353E-01  0.13075355052E+00  0.19617127099E-01 0.  0.
         14    1    1    2    0    0 -0.31937329258E-02  0.16228866868E-01 -0.17946691847E-01  0.24406142630E-01  0.00000000000E+00 0.  1.
     999901    1    3    3    0    0  0.10042572187E+00 -0.33950261132E-01 -0.65381285505E-01  0.88877030685E+00  0.88000000000E+00 0.  1.
        -11    1    4    4    0    0 -0.81087465489E-01  0.17568160462E-01  0.60054989156E-01  0.10242402143E+00  0.51100000000E-03 0.  1.
         11    1    4    4    0    0 -0.16144523453E-01  0.15323380204E-03  0.23272988196E-01  0.28329529095E-01  0.51100000000E-03 0. -1.
</event>
<event>
 8    1  0.1138737E+005  0.1043930E+01  0.7957747E-01            NaN
         13   -1    0    0    0    0  0.00000000000E+00  0.00000000000E+00  0.74505805969E-08  0.10566000000E+00  0.10566000000E+00 0. -1.
     999900   -1    0    0    0    0 -0.00000000000E+00 -0.00000000000E+00 -0.74505805969E-08  0.93827000000E+00  0.93827000000E+00 0.  1.
     999902    2    1    2    0    0  0.38339922925E-02  0.19468244577E-01  0.13531716330E-01  0.10199129354E+01  0.10196301175E+01 0.  0.
     999903    2    3    3    0    0 -0.66379177004E-01  0.10962115779E+00  0.26460316916E-01  0.13243077470E+00  0.20365862159E-01 0.  0.
         14    1    1    2    0    0 -0.38339922925E-02 -0.19468244577E-01 -0.13531716330E-01  0.24017064572E-01  0.00000000000E+00 0.  1.
     999901    1    3    3    0    0  0.70213169296E-01 -0.90152913209E-01 -0.12928600586E-01  0.88748216073E+00  0.88000000000E+00 0. -1.
        -11    1    4    4    0    0 -0.14372898261E-01  0.33167125521E-01 -0.35954365184E-03  0.36152853447E-01  0.51100000000E-03 0.  1.
         11    1    4    4    0    0 -0.52006278742E-01  0.76454032265E-01  0.26819860568E-01  0.96277921249E-01  0.51100000000E-03 0. -1.
</event>
<event>
 8    1  0.1138737E+005  0.1043930E+01  0.7957747E-01            NaN
         13   -1    0    0    0    0  0.00000000000E+00  0.00000000000E+00  0.74505805969E-08  0.10566000000E+00  0.10566000000E+00 0. -1.
     999900   -1    0    0    0    0 -0.00000000000E+00 -0.00000000000E+00 -0.74505805969E-08  0.93827000000E+00  0.93827000000E+00 0.  1.
     999902    2    1    2    0    0 -0.95825537938E-02 -0.20712023736E-01 -0.27650490606E-02  0.10209417691E+01  0.10206829268E+01 0.  0.
     999903    2    3    3    0    0  0.63939887006E-01 -0.11367333909E+00 -0.17411149048E-01  0.13287540687E+00  0.18514547482E-01 0.  0.
         14    1    1    2    0    0  0.95825537938E-02  0.20712023736E-01  0.27650490606E-02  0.22988230918E-01  0.00000000000E+00 0. -1.
     999901    1    3    3    0    0 -0.73522440800E-01  0.92961315355E-01  0.14646099987E-01  0.88806636222E+00  0.88000000000E+00 0.  1.
        -11    1    4    4    0    0  0.28097662261E-01 -0.62303716188E-01 -0.16113257483E-01  0.70222004124E-01  0.51100000000E-03 0. -1.
         11    1    4    4    0    0  0.35842224744E-01 -0.51369622902E-01 -0.12978915653E-02  0.62653402743E-01  0.51100000000E-03 0.  1.
</event>
<event>
 8    1  0.1138737E+005  0.1043930E+01  0.7957747E-01            NaN
         13   -1    0    0    0    0  0.00000000000E+00  0.00000000000E+00  0.74505805969E-08  0.10566000000E+00  0.10566000000E+00 0. -1.
     999900   -1    0    0    0    0 -0.00000000000E+00 -0.00000000000E+00 -0.74505805969E-08  0.93827000000E+00  0.93827000000E+00 0. -1.
     999902    2    1    2    0    0 -0.10515616881E-01 -0.21057671195E-01  0.66957245533E-02  0.10194588651E+01  0.10191651197E+01 0.  0.
     999903    2    3    3    0    0 -0.12777879239E+00  0.18771736777E-01 -0.54433658593E-02  0.13070446059E+00  0.19344970929E-01 0.  0.
         14    1    1    2    0    0  0.10515616881E-01  0.21057671195E-01 -0.66957245533E-02  0.24471134870E-01  0.00000000000E+00 0. -1.
     999901    1    3    3    0    0  0.11726317551E+00 -0.39829407972E-01  0.12139090413E-01  0.88875440454E+00  0.88000000000E+00 0. -1.
        -11    1    4    4    0    0 -0.88402195709E-01  0.21634282275E-01 -0.60834390524E-02  0.91215457722E-01  0.51100000000E-03 0. -1.
         11    1    4    4    0    0 -0.39376596682E-01 -0.28625454975E-02  0.64007319307E-03  0.39489002870E-01  0.51100000000E-03 0.  1.
</event>
<event>
 8    1  0.1138737E+005  0.1043930E+01  0.7957747E-01            NaN
         13   -1    0    0    0    0  0.00000000000E+00  0.00000000000E+00  0.74505805969E-08  0.10566000000E+00  0.10566000000E+00 0.  1.
     999900   -1    0    0    0    0 -0.00000000000E+00 -0.00000000000E+00 -0.74505805969E-08  0.93827000000E+00  0.93827000000E+00 0.  1.
     999902    2    1    2    0    0  0.14836946390E-01  0.10452109599E-01  0.15926185367E-01  0.10197840903E+01  0.10194981932E+01 0.  0.
     999903    2    3    3    0    0  0.55730304846E-01  0.84496562117E-01  0.84152957208E-01  0.13309939998E+00  0.19702643984E-01 0.  0.
         14    1    1    2    0    0 -0.14836946390E-01 -0.10452109599E-01 -0.15926185367E-01  0.24145909666E-01  0.00000000000E+00 0. -1.
     999901    1    3    3    0    0 -0.40893358456E-01 -0.74044452518E-01 -0.68226771841E-01  0.88668469036E+00  0.88000000000E+00 0.  1.
        -11    1    4    4    0    0  0.13920542898E-01  0.22384341202E-01  0.11480026948E-01  0.28755736564E-01  0.51100000000E-03 0.  1.
         11    1    4    4    0    0  0.41809761948E-01  0.62112220915E-01  0.72672930260E-01  0.10434366341E+00  0.51100000000E-03 0. -1.
</event>
<event>
 8    1  0.1138737E+005  0.1043930E+01  0.7957747E-01            NaN
         13   -1    0    0    0    0  0.00000000000E+00  0.00000000000E+00  0.74505805969E-08  0.10566000000E+00  0.10566000000E+00 0.  1.
     999900   -1    0    0    0    0 -0.00000000000E+00 -0.00000000000E+00 -0.74505805969E-08  0.93827000000E+00  0.93827000000E+00 0.  1.
     999902    2    1    2    0    0 -0.16562800254E-01  0.30659103937E-02 -0.16742093540E-01  0.10201808136E+01  0.10199043429E+01 0.  0.
     999903    2    3    3    0    0 -0.36935671442E-01  0.10860238514E+00  0.58606705055E-01  0.13044464886E+00  0.20550879732E-01 0.  0.
         14    1    1    2    0    0  0.16562800254E-01 -0.30659103937E-02  0.16742093540E-01  0.23749186405E-01  0.00000000000E+00 0.  1.
     999901    1    3    3    0    0  0.20372871188E-01 -0.10553647474E+00 -0.75348798595E-01  0.88973616473E+00  0.88000000000E+00 0.  1.
        -11    1    4    4    0    0 -0.28747421252E-01  0.76537218809E-01  0.31335575168E-01  0.87558777309E-01  0.51100000000E-03 0. -1.
         11    1    4    4    0    0 -0.81882501901E-02  0.32065166326E-01  0.27271129887E-01  0.42885871555E-01  0.51100000000E-03 0.  1.
</event>
<event>
 8    1  0.1138737E+005  0.1043930E+01  0.7957747E-01            NaN
         13   -1    0    0    0    0  0.00000000000E+00  0.00000000000E+00  0.74505805969E-08  0.10566000000E+00  0.10566000000E+00 0. -1.
     999900   -1    0    0    0    0 -0.00000000000E+00 -0.00000000000E+00 -0.74505805969E-08  0.93827000000E+00  0.93827000000E+00 0.  1.
     999902    2    1    2    0    0  0.25332158770E-01  0.26761591552E-02 -0.23491115778E-02  0.10183487877E+01  0.10180274334E+01 0.  0.
     999903    2    3    3    0    0  0.11600499618E+00  0.37742864476E-01 -0.46224600412E-01  0.13190854960E+00  0.19531226695E-01 0.  0.
         14    1    1    2    0    0 -0.25332158770E-01 -0.26761591552E-02  0.23491115778E-02  0.25581212265E-01  0.00000000000E+00 0. -1.
     999901    1    3    3    0    0 -0.90672837411E-01 -0.35066705321E-01  0.43875488835E-01  0.88644023814E+00  0.88000000000E+00 0. -1.
        -11    1    4    4    0    0  0.25882586458E-01  0.43811230437E-02 -0.17697447684E-01  0.31663279938E-01  0.51100000000E-03 0.  1.
         11    1    4    4    0    0  0.90122409722E-01  0.33361741433E-01 -0.28527152728E-01  0.10024526966E+00  0.51100000000E-03 0. -1.
</event>
<event>
 8    1  0.1138737E+005  0.1043930E+01  0.7957747E-01            NaN
         13   -1    0    0    0    0  0.00000000000E+00  0.00000000000E+00  0.74505805969E-08  0.10566000000E+00  0.10566000000E+00 0. -1.
     999900   -1    0    0    0    0 -0.00000000000E+00 -0.00000000000E+00 -0.74505805969E-08  0.93827000000E+00  0.93827000000E+00 0.  1.
     999902    2    1    2    0    0 -0.24672834138E-01  0.46867040095E-02  0.86800946560E-02  0.10173582484E+01  0.10170111836E+01 0.  0.
     999903    2    3    3    0    0 -0.10724694524E-01 -0.12491688583E+00  0.14055680638E-01  0.12774005052E+00  0.20017764876E-01 0.  0.
         14    1    1    2    0    0  0.24672834138E-01 -0.46867040095E-02 -0.86800946560E-02  0.26571751582E-01  0.00000000000E+00 0.  1.
     999901    1    3    3    0    0 -0.13948139614E-01  0.12960358984E+00 -0.53755859822E-02  0.88961819789E+00  0.88000000000E+00 0.  1.
        -11    1    4    4    0    0  0.55879029257E-02 -0.19892575840E-01  0.29023145775E-02  0.20871602324E-01  0.51100000000E-03 0.  1.
         11    1    4    4    0    0 -0.16312597450E-01 -0.10502430999E+00  0.11153366061E-01  0.10686844820E+00  0.51100000000E-03 0. -1.
</event>
<event>
 8    1  0.1138737E+005  0.1043930E+01  0.7957747E-01            NaN
         13   -1    0    0    0    0  0.00000000000E+00  0.00000000000E+00  0.74505805969E-08  0.10566000000E+00  0.10566000000E+00 0.  1.
     999900   -1    0    0    0    0 -0.00000000000E+00 -0.00000000000E+00 -0.74505805969E-08  0.93827000000E+00  0.93827000000E+00 0. -1.
     999902    2    1    2    0    0 -0.14847683221E-01 -0.12795874863E-01  0.13294147241E-01  0.10202461983E+01  0.10199712656E+01 0.  0.
     999903    2    3    3    0    0 -0.10818839403E+00  0.32862480615E-01 -0.62322047068E-01  0.13091218765E+00  0.21663150511E-01 0.  0.
         14    1    1    2    0    0  0.14847683221E-01  0.12795874863E-01 -0.13294147241E-01  0.23683801667E-01  0.00000000000E+00 0.  1.
     999901    1    3    3    0    0  0.93340710805E-01 -0.45658355478E-01  0.75616194309E-01  0.88933401068E+00  0.88000000000E+00 0. -1.
        -11    1    4    4    0    0 -0.54923505995E-01  0.12793070396E-01 -0.42572734941E-01  0.70660831033E-01  0.51100000000E-03 0.  1.
         11    1    4    4    0    0 -0.53264888031E-01  0.20069410219E-01 -0.19749312127E-01  0.60251356616E-01  0.51100000000E-03 0. -1.
</event>
<event>
 8    1  0.1138737E+005  0.1043930E+01  0.7957747E-01            NaN
         13   -1    0    0    0    0  0.00000000000E+00  0.00000000000E+00  0.74505805969E-08  0.10566000000E+00  0.10566000000E+00 0.  1.
     999900   -1    0    0    0    0 -0.00000000000E+00 -0.00000000000E+00 -0.74505805969E-08  0.93827000000E+00  0.93827000000E+00 0. -1.
     999902    2    1    2    0    0 -0.18596123649E-01  0.34619934851E-02  0.14965311530E-01  0.10198102620E+01  0.10195249917E+01 0.  0.
     999903    2    3    3    0    0 -0.44721942667E-01  0.97379142163E-01  0.75228538010E-01  0.13237877407E+00  0.19546288903E-01 0.  0.
         14    1    1    2    0    0  0.18596123649E-01 -0.34619934851E-02 -0.14965311530E-01  0.24119738035E-01  0.00000000000E+00 0. -1.
     999901    1    3    3    0    0  0.26125819018E-01 -0.93917148677E-01 -0.60263226481E-01  0.88743148789E+00  0.88000000000E+00 0. -1.
        -11    1    4    4    0    0 -0.87319827418E-02  0.30033716870E-01  0.13008028417E-01  0.33878335200E-01  0.51100000000E-03 0. -1.
         11    1    4    4    0    0 -0.35989959926E-01  0.67345425293E-01  0.62220509593E-01  0.98500438874E-01  0.51100000000E-03 0.  1.
</event>
<event>
 7    1  0.1138737E+005  0.1043930E+01  0.7957747E-01            NaN
         13   -1    0    0    0    0  0.00000000000E+00  0.00000000000E+00  0.74505805969E-08  0.10566000000E+00  0.10566000000E+00 0. -1.
     999900   -1    0    0    0    0 -0.00000000000E+00 -0.00000000000E+00 -0.74505805969E-08  0.93827000000E+00  0.93827000000E+00 0.  1.
     999902    2    1    2    0    0 -0.64827034285E-02  0.94198109891E-02  0.20801571361E-01  0.10201926106E+01  0.10199164177E+01 0.  0.
         14    1    1    2    0    0  0.64827034285E-02 -0.94198109891E-02 -0.20801571361E-01  0.23737389366E-01  0.00000000000E+00 0.  1.
     999901    1    3    3    0    0 -0.89457434383E-01  0.19280463890E-01 -0.36815547333E-01  0.88551101257E+00  0.88000000000E+00 0.  1.
        -11    1    3    3    0    0  0.34631120566E-01  0.11389282038E-01 -0.19398544394E-01  0.41298848684E-01  0.51100000000E-03 0. -1.
         11    1    3    3    0    0  0.48343610389E-01 -0.21249934939E-01  0.77015663088E-01  0.93382749382E-01  0.51100000000E-03 0.  1.
</event>
<event>
 8    1  0.1138737E+005  0.1043930E+01  0.7957747E-01            NaN
         13   -1    0    0    0    0  0.00000000000E+00  0.00000000000E+00  0.74505805969E-08  0.10566000000E+00  0.10566000000E+00 0.  1.
     999900   -1    0    0    0    0 -0.00000000000E+00 -0.00000000000E+00 -0.74505805969E-08  0.93827000000E+00  0.93827000000E+00 0.  1.
     999902    2    1    2    0    0  0.21806943244E-01 -0.44112051361E-02  0.78598401695E-02  0.10203338437E+01  0.10200609658E+01 0.  0.
     999903    2    3    3    0    0  0.39665569543E-01  0.10795061178E+00  0.60419992585E-01  0.13145439290E+00  0.20074608781E-01 0.  0.
         14    1    1    2    0    0 -0.21806943244E-01  0.44112051361E-02 -0.78598401695E-02  0.23596156295E-01  0.00000000000E+00 0. -1.
     999901    1    3    3    0    0 -0.17858626299E-01 -0.11236181692E+00 -0.52560152416E-01  0.88887945080E+00  0.88000000000E+00 0.  1.
        -11    1    4    4    0    0  0.17414183790E-01  0.39756018680E-01  0.33518981364E-01  0.54841389944E-01  0.51100000000E-03 0. -1.
         11    1    4    4    0    0  0.22251385754E-01  0.68194593105E-01  0.26901011222E-01  0.76613002960E-01  0.51100000000E-03 0.  1.
</event>
<event>
 8    1  0.1138737E+005  0.1043930E+01  0.7957747E-01            NaN
         13   -1    0    0    0    0  0.00000000000E+00  0.00000000000E+00  0.74505805969E-08  0.10566000000E+00  0.10566000000E+00 0.  1.
     999900   -1    0    0    0    0 -0.00000000000E+00 -0.00000000000E+00 -0.74505805969E-08  0.93827000000E+00  0.93827000000E+00 0.  1.
     999902    2    1    2    0    0 -0.84398693472E-02 -0.44106745090E-03  0.24975232348E-01  0.10175635788E+01  0.10172219270E+01 0.  0.
     999903    2    3    3    0    0  0.65419464742E-01  0.10537836727E+00 -0.18346178339E-01  0.12709757800E+00  0.20806379222E-01 0.  0.
         14    1    1    2    0    0  0.84398693472E-02  0.44106745090E-03 -0.24975232348E-01  0.26366421182E-01  0.00000000000E+00 0. -1.
     999901    1    3    3    0    0 -0.73859334089E-01 -0.10581943472E+00  0.43321410686E-01  0.89046600082E+00  0.88000000000E+00 0.  1.
        -11    1    4    4    0    0  0.48390791569E-01  0.81080718190E-01 -0.22673248398E-01  0.97108644748E-01  0.51100000000E-03 0.  1.
         11    1    4    4    0    0  0.17028673173E-01  0.24297649084E-01  0.43270700596E-02  0.29988933248E-01  0.51100000000E-03 0. -1.
</event>
<event>
 8    1  0.1138737E+005  0.1043930E+01  0.7957747E-01            NaN
         13   -1    0    0    0    0  0.00000000000E+00  0.00000000000E+00  0.74505805969E-08  0.10566000000E+00  0.10566000000E+00 0. -1.
     999900   -1    0    0    0    0 -0.00000000000E+00 -0.00000000000E+00 -0.74505805969E-08  0.93827000000E+00  0.93827000000E+00 0. -1.
     999902    2    1    2    0    0  0.11484561100E-01  0.21871274108E-01 -0.14159159035E-02  0.10191862615E+01  0.10188858538E+01 0.  0.
     999903    2    3    3    0    0  0.74066185987E-01  0.10804872907E+00 -0.73015446084E-02  0.13274525723E+00  0.20190666201E-01 0.  0.
         14    1    1    2    0    0 -0.11484561100E-01 -0.21871274108E-01  0.14159159035E-02  0.24743738453E-01  0.00000000000E+00 0. -1.
     999901    1    3    3    0    0 -0.62581624887E-01 -0.86177454963E-01  0.58856287049E-02  0.88644100432E+00  0.88000000000E+00 0.  1.
        -11    1    4    4    0    0  0.52441407247E-01  0.67437611931E-01 -0.12883056525E-01  0.86395410546E-01  0.51100000000E-03 0.  1.
         11    1    4    4    0    0  0.21624778740E-01  0.40611117141E-01  0.55815119165E-02  0.46349846680E-01  0.51100000000E-03 0. -1.
</event>
<event>
 8    1  0.1138737E+005  0.1043930E+01  0.7957747E-01            NaN
         13   -1    0    0    0    0  0.00000000000E+00  0.00000000000E+00  0.74505805969E-08  0.10566000000E+00  0.10566000000E+00 0. -1.
     999900   -1    0    0    0    0 -0.00000000000E+00 -0.00000000000E+00 -0.74505805969E-08  0.93827000000E+00  0.93827000000E+00 0.  1.
     999902    2    1    2    0    0  0.80015735308E-02  0.41136678196E-02  0.22085535941E-01  0.10200821838E+01  0.10198033846E+01 0.  0.
     999903    2    3    3    0    0 -0.12352201351E+00  0.34095739083E-01  0.50418401227E-02  0.12963967235E+00  0.18995190182E-01 0.  0.
         14    1    1    2    0    0 -0.80015735308E-02 -0.41136678196E-02 -0.22085535941E-01  0.23847816245E-01  0.00000000000E+00 0.  1.
     999901    1    3    3    0    0  0.13152358704E+00 -0.29982071263E-01  0.17043695818E-01  0.89044251140E+00  0.88000000000E+00 0. -1.
        -11    1    4    4    0    0 -0.40973998209E-01  0.16527191492E-01 -0.57380679456E-02  0.44555618418E-01  0.51100000000E-03 0. -1.
         11    1    4    4    0    0 -0.82548015303E-01  0.17568547591E-01  0.10779908068E-01  0.85084053934E-01  0.51100000000E-03 0.  1.
</event>
<event>
 8    1  0.1138737E+005  0.1043930E+01  0.7957747E-01            NaN
         13   -1    0    0    0    0  0.00000000000E+00  0.00000000000E+00  0.74505805969E-08  0.10566000000E+00  0.10566000000E+00 0.  1.
     999900   -1    0    0    0    0 -0.00000000000E+00 -0.00000000000E+00 -0.74505805969E-08  0.93827000000E+00  0.93827000000E+00 0.  1.
     999902    2    1    2    0    0 -0.24957993043E-01  0.95102506669E-02 -0.73355626867E-02  0.10162324051E+01  0.10158548835E+01 0.  0.
     999903    2    3    3    0    0  0.69730827639E-01  0.10273466153E+00  0.10347233534E-01  0.12608104445E+00  0.19301956516E-01 0.  0.
         14    1    1    2    0    0  0.24957993043E-01 -0.95102506669E-02  0.73355626867E-02  0.27697594921E-01  0.00000000000E+00 0. -1.
     999901    1    3    3    0    0 -0.94688820682E-01 -0.93224410864E-01 -0.17682796221E-01  0.89015136063E+00  0.88000000000E+00 0.  1.
        -11    1    4    4    0    0  0.14116535686E-01  0.11602299865E-01 -0.28677545699E-02  0.18503380211E-01  0.51100000000E-03 0. -1.
         11    1    4    4    0    0  0.55614291952E-01  0.91132361666E-01  0.13214988104E-01  0.10757766424E+00  0.51100000000E-03 0.  1.
</event>
<event>
 8    1  0.1138737E+005  0.1043930E+01  0.7957747E-01            NaN
         13   -1    0    0    0    0  0.00000000000E+00  0.00000000000E+00  0.74505805969E-08  0.10566000000E+00  0.10566000000E+00 0.  1.
     999900   -1    0    0    0    0 -0.00000000000E+00 -0.00000000000E+00 -0.74505805969E-08  0.93827000000E+00  0.93827000000E+00 0. -1.
     999902    2    1    2    0    0  0.18466746371E-01 -0.18180253182E-01  0.82386114770E-02  0.10167377760E+01  0.10163740887E+01 0.  0.
     999903    2    3    3    0    0 -0.28057300444E-01 -0.78088048336E-01  0.96870570178E-01  0.12903903489E+00  0.19550185629E-01 0.  0.
         14    1    1    2    0    0 -0.18466746371E-01  0.18180253182E-01 -0.82386114770E-02  0.27192224005E-01  0.00000000000E+00 0.  1.
     999901    1    3    3    0    0  0.46524046815E-01  0.59907795155E-01 -0.88631958701E-01  0.88769874110E+00  0.88000000000E+00 0. -1.
        -11    1    4    4    0    0 -0.49239918254E-02 -0.20190845962E-01  0.37858563448E-01  0.43190831243E-01  0.51100000000E-03 0. -1.
         11    1    4    4    0    0 -0.23133308619E-01 -0.57897202374E-01  0.59012006730E-01  0.85848203649E-01  0.51100000000E-03 0.  1.
</event>
<event>
 8    1  0.1138737E+005  0.1043930E+01  0.7957747E-01            NaN
         13   -1    0    0    0    0  0.00000000000E+00  0.00000000000E+00  0.74505805969E-08  0.10566000000E+00  0.10566000000E+00 0.  1.
     999900   -1    0    0    0    0 -0.00000000000E+00 -0.00000000000E+00 -0.74505805969E-08  0.93827000000E+00  0.93827000000E+00 0.  1.
     999902    2    1    2    0    0 -0.23127548586E-01 -0.33806392067E-02 -0.25760686595E-02  0.10204151461E+01  0.10201441673E+01 0.  0.
     999903    2    3    3    0    0  0.72319694439E-01  0.10437613004E+00  0.14592311106E-02  0.12871004844E+00  0.20967414911E-01 0.  0.
         14    1    1    2    0    0  0.23127548586E-01  0.33806392067E-02  0.25760686595E-02  0.23514853918E-01  0.00000000000E+00 0. -1.
     999901    1    3    3    0    0 -0.95447243025E-01 -0.10775676925E+00 -0.40352997701E-02  0.89170509764E+00  0.88000000000E+00 0.  1.
        -11    1    4    4    0    0  0.14439863135E-01  0.91989986677E-02 -0.21029929900E-02  0.17257315097E-01  0.51100000000E-03 0. -1.
         11    1    4    4    0    0  0.57879831305E-01  0.95177131371E-01  0.35622241005E-02  0.11145273334E+00  0.51100000000E-03 0.  1.
</event>
<event>
 8    1  0.1138737E+005  0.1043930E+01  0.7957747E-01            NaN
         13   -1    0    0    0    0  0.00000000000E+00  0.00000000000E+00  0.74505805969E-08  0.10566000000E+00  0.10566000000E+00 0.  1.
     999900   -1    0    0    0    0 -0.00000000000E+00 -0.00000000000E+00 -0.74505805969E-08  0.93827000000E+00  0.93827000000E+00 0. -1.
     999902    2    1    2    0    0 -0.13937451425E-01  0.99356292839E-02  0.15240554183E-01  0.10210118026E+01  0.10207545529E+01 0.  0.
     999903    2    3    3    0    0  0.67551935242E-01  0.32568694226E-01 -0.10296162725E+00  0.12908998343E+00  0.20955747125E-01 0.  0.
         14    1    1    2    0    0  0.13937451425E-01 -0.99356292839E-02 -0.15240554183E-01  0.22918197427E-01  0.00000000000E+00 0. -1.
     999901    1    3    3    0    0 -0.81489386667E-01 -0.22633064942E-01  0.11820218143E+00  0.89192181914E+00  0.88000000000E+00 0.  1.
        -11    1    4    4    0    0  0.60222393848E-01  0.33561377137E-01 -0.83628571138E-01  0.10838404766E+00  0.51100000000E-03 0. -1.
         11    1    4    4    0    0  0.73295413941E-02 -0.99268291092E-03 -0.19333056111E-01  0.20705935767E-01  0.51100000000E-03 0.  1.
</event>
<event>
 8    1  0.1138737E+005  0.1043930E+01  0.7957747E-01            NaN
         13   -1    0    0    0    0  0.00000000000E+00  0.00000000000E+00  0.74505805969E-08  0.10566000000E+00  0.10566000000E+00 0. -1.
     999900   -1    0    0    0    0 -0.00000000000E+00 -0.00000000000E+00 -0.74505805969E-08  0.93827000000E+00  0.93827000000E+00 0. -1.
     999902    2    1    2    0    0  0.19182676893E-01  0.43160242485E-02  0.16549388656E-01  0.10182300890E+01  0.10179057072E+01 0.  0.
     999903    2    3    3    0    0  0.12525064107E+00  0.20667658276E-01 -0.24375469510E-01  0.13076593035E+00  0.19765875610E-01 0.  0.
         14    1    1    2    0    0 -0.19182676893E-01 -0.43160242485E-02 -0.16549388656E-01  0.25699910953E-01  0.00000000000E+00 0.  1.
     999901    1    3    3    0    0 -0.10606796418E+00 -0.16351634028E-01  0.40924858166E-01  0.88746415870E+00  0.88000000000E+00 0.  1.
        -11    1    4    4    0    0  0.10007437305E+00  0.17123434205E-01 -0.11257811433E-01  0.10215229601E+00  0.51100000000E-03 0.  1.
         11    1    4    4    0    0  0.25176268017E-01  0.35442240709E-02 -0.13117658077E-01  0.28613634337E-01  0.51100000000E-03 0. -1.
</event>
<event>
 6    1  0.1138737E+005  0.1043930E+01  0.7957747E-01            NaN
         13   -1    0    0    0    0  0.00000000000E+00  0.00000000000E+00  0.74505805969E-08  0.10566000000E+00  0.10566000000E+00 0.  1.
     999900   -1    0    0    0    0 -0.00000000000E+00 -0.00000000000E+00 -0.74505805969E-08  0.93827000000E+00  0.93827000000E+00 0.  1.
         14    1    1    2    0    0  0.38191018671E-01  0.28401420007E-01  0.64608890691E-02  0.48030590806E-01  0.00000000000E+00 0.  1.
     999901    1    1    2    0    0  0.54599671056E-02  0.58895962048E-01  0.37977957158E-01  0.88280284935E+00  0.88000000000E+00 0. -1.
        -11    1    1    2    0    0 -0.28101449612E-01 -0.26912434885E-01 -0.29882409720E-01  0.49063124171E-01  0.51100000000E-03 0. -1.
         11    1    1    2    0    0 -0.15549536165E-01 -0.60384947170E-01 -0.14556436507E-01  0.64033435676E-01  0.51100000000E-03 0.  1.
</event>
<event>
 8    1  0.1138737E+005  0.1043930E+01  0.7957747E-01            NaN
         13   -1    0    0    0    0  0.00000000000E+00  0.00000000000E+00  0.74505805969E-08  0.10566000000E+00  0.10566000000E+00 0.  1.
     999900   -1    0    0    0    0 -0.00000000000E+00 -0.00000000000E+00 -0.74505805969E-08  0.93827000000E+00  0.93827000000E+00 0. -1.
     999902    2    1    2    0    0  0.21167770202E-01 -0.71685474622E-02 -0.97475039281E-02  0.10195481133E+01  0.10192565324E+01 0.  0.
     999903    2    3    3    0    0 -0.12521137489E+00 -0.74698745143E-02  0.82964423570E-02  0.12727431621E+00  0.19905606795E-01 0.  0.
         14    1    1    2    0    0 -0.21167770202E-01  0.71685474622E-02  0.97475039281E-02  0.24381886737E-01  0.00000000000E+00 0.  1.
     999901    1    3    3    0    0  0.14637914510E+00  0.30132705218E-03 -0.18043946285E-01  0.89227379706E+00  0.88000000000E+00 0.  1.
        -11    1    4    4    0    0 -0.53096576087E-01  0.47904203299E-02  0.92802822517E-02  0.54116349459E-01  0.51100000000E-03 0.  1.
         11    1    4    4    0    0 -0.72114798806E-01 -0.12260294844E-01 -0.98383989470E-03  0.73157966747E-01  0.51100000000E-03 0. -1.
</event>
<event>
 8    1  0.1138737E+005  0.1043930E+01  0.7957747E-01            NaN
         13   -1    0    0    0    0  0.00000000000E+00  0.00000000000E+00  0.74505805969E-08  0.10566000000E+00  0.10566000000E+00 0.  1.
     999900   -1    0    0    0    0 -0.00000000000E+00 -0.00000000000E+00 -0.74505805969E-08  0.93827000000E+00  0.93827000000E+00 0.  1.
     999902    2    1    2    0    0 -0.38170243860E-02  0.10983748383E-01  0.15205289616E-01  0.10247880765E+01  0.10246092858E+01 0.  0.
     999903    2    3    3    0    0 -0.60260503215E-01 -0.89278701152E-01 -0.74708324606E-01  0.13275507086E+00  0.20989529466E-01 0.  0.
         14    1    1    2    0    0  0.38170243860E-02 -0.10983748383E-01 -0.15205289616E-01  0.19141923519E-01  0.00000000000E+00 0. -1.
     999901    1    3    3    0    0  0.56443478829E-01  0.10026244953E+00  0.89913614223E-01  0.89203300562E+00  0.88000000000E+00 0. -1.
        -11    1    4    4    0    0 -0.87659567875E-02 -0.12879626502E-01 -0.20852224456E-01  0.26034653118E-01  0.51100000000E-03 0.  1.
         11    1    4    4    0    0 -0.51494546428E-01 -0.76399074650E-01 -0.53856100151E-01  0.10672041774E+00  0.51100000000E-03 0. -1.
</event>
<event>
 8    1  0.1138737E+005  0.1043930E+01  0.7957747E-01            NaN
         13   -1    0    0    0    0  0.00000000000E+00  0.00000000000E+00  0.74505805969E-08  0.10566000000E+00  0.10566000000E+00 0.  1.
     999900   -1    0    0    0    0 -0.00000000000E+00 -0.00000000000E+00 -0.74505805969E-08  0.93827000000E+00  0.93827000000E+00 0.  1.
     999902    2    1    2    0    0  0.16562946791E-01  0.15981015140E-01  0.13115431978E-01  0.10174396507E+01  0.10170947371E+01 0.  0.
     999903    2    3    3    0    0 -0.53934624086E-01  0.22247119911E-01 -0.10980915541E+00  0.12608134688E+00  0.20846520060E-01 0.  0.
         14    1    1    2    0    0 -0.16562946791E-01 -0.15981015140E-01 -0.13115431978E-01  0.26490349323E-01  0.00000000000E+00 0. -1.
     999901    1    3    3    0    0  0.70497570877E-01 -0.62661047712E-02  0.12292458739E+00  0.89135830380E+00  0.88000000000E+00 0. -1.
        -11    1    4    4    0    0 -0.11482325981E-01  0.83517987968E-02 -0.12165976962E-01  0.18704771304E-01  0.51100000000E-03 0. -1.
         11    1    4    4    0    0 -0.42452298105E-01  0.13895321114E-01 -0.97643178448E-01  0.10737657557E+00  0.51100000000E-03 0.  1.
</event>
<event>
 8    1  0.1138737E+005  0.1043930E+01  0.7957747E-01            NaN
         13   -1    0    0    0    0  0.00000000000E+00  0.00000000000E+00  0.74505805969E-08  0.10566000000E+00  0.10566000000E+00 0.  1.
     999900   -1    0    0    0    0 -0.00000000000E+00 -0.00000000000E+00 -0.74505805969E-08  0.93827000000E+00  0.93827000000E+00 0.  1.
     999902    2    1    2    0    0  0.23440715885E-01  0.23243187806E-02 -0.63010949909E-03  0.10203659032E+01  0.10200937750E+01 0.  0.
     999903    2    3    3    0    0  0.78633820547E-01  0.10197109089E+00 -0.26364082092E-01  0.13265086148E+00  0.17883095758E-01 0.  0.
         14    1    1    2    0    0 -0.23440715885E-01 -0.23243187806E-02  0.63010949909E-03  0.23564096779E-01  0.00000000000E+00 0. -1.
     999901    1    3    3    0    0 -0.55193104661E-01 -0.99646772114E-01  0.25733972593E-01  0.88771504174E+00  0.88000000000E+00 0. -1.
        -11    1    4    4    0    0  0.56060325013E-01  0.76899317165E-01 -0.26940147114E-01  0.98905498677E-01  0.51100000000E-03 0.  1.
         11    1    4    4    0    0  0.22573495533E-01  0.25071773729E-01  0.57606502223E-03  0.33745362799E-01  0.51100000000E-03 0. -1.
</event>
<event>
 8    1  0.1138737E+005  0.1043930E+01  0.7957747E-01            NaN
         13   -1    0    0    0    0  0.00000000000E+00  0.00000000000E+00  0.74505805969E-08  0.10566000000E+00  0.10566000000E+00 0.  1.
     999900   -1    0    0    0    0 -0.00000000000E+00 -0.00000000000E+00 -0.74505805969E-08  0.93827000000E+00  0.93827000000E+00 0. -1.
     999902    2    1    2    0    0 -0.26282687644E-01 -0.51133119021E-02 -0.17712144298E-01  0.10118263291E+01  0.10113169012E+01 0.  0.
     999903    2    3    3    0    0  0.10731111430E+00 -0.38588981124E-01 -0.35404323396E-01  0.12093860468E+00  0.19180596200E-01 0.  0.
         14    1    1    2    0    0  0.26282687644E-01  0.51133119021E-02  0.17712144298E-01  0.32103670881E-01  0.00000000000E+00 0.  1.
     999901    1    3    3    0    0 -0.13359380195E+00  0.33475669222E-01  0.17692179098E-01  0.89088772444E+00  0.88000000000E+00 0. -1.
        -11    1    4    4    0    0  0.87883293733E-01 -0.32056234004E-01 -0.36473952524E-01  0.10040759827E+00  0.51100000000E-03 0. -1.
         11    1    4    4    0    0  0.19427820570E-01 -0.65327471202E-02  0.10696291284E-02  0.20531006417E-01  0.51100000000E-03 0.  1.
</event>
<event>
 8    1  0.1138737E+005  0.1043930E+01  0.7957747E-01            NaN
         13   -1    0    0    0    0  0.00000000000E+00  0.00000000000E+00  0.74505805969E-08  0.10566000000E+00  0.10566000000E+00 0.  1.
     999900   -1    0    0    0    0 -0.00000000000E+00 -0.00000000000E+00 -0.74505805969E-08  0.93827000000E+00  0.93827000000E+00 0. -1.
     999902    2    1    2    0    0  0.57979940330E-03 -0.15749447997E-01 -0.17667921757E-01  0.10202543429E+01  0.10199796015E+01 0.  0.
     999903    2    3    3    0    0 -0.21132891750E-01  0.12310069899E+00 -0.25863410870E-01  0.12906526627E+00  0.19711563379E-01 0.  0.
         14    1    1    2    0    0 -0.57979940330E-03  0.15749447997E-01  0.17667921757E-01  0.23675657093E-01  0.00000000000E+00 0.  1.
     999901    1    3    3    0    0  0.21712691154E-01 -0.13885014698E+00  0.81954891130E-02  0.89118907664E+00  0.88000000000E+00 0.  1.
        -11    1    4    4    0    0 -0.15572170900E-01  0.84368140133E-01 -0.83759297764E-02  0.86202626970E-01  0.51100000000E-03 0.  1.
         11    1    4    4    0    0 -0.55607208502E-02  0.38732558855E-01 -0.17487481094E-01  0.42862639300E-01  0.51100000000E-03 0. -1.
</event>
<event>
 8    1  0.1138737E+005  0.1043930E+01  0.7957747E-01            NaN
         13   -1    0    0    0    0  0.00000000000E+00  0.00000000000E+00  0.74505805969E-08  0.10566000000E+00  0.10566000000E+00 0.  1.
     999900   -1    0    0    0    0 -0.00000000000E+00 -0.00000000000E+00 -0.74505805969E-08  0.93827000000E+00  0.93827000000E+00 0. -1.
     999902    2    1    2    0    0  0.16004592205E-01  0.18558640260E-01 -0.10902488621E-01  0.10171077265E+01  0.10167539982E+01 0.  0.
     999903    2    3    3    0    0  0.44642464463E-01 -0.31687374842E-01  0.11241079720E+00  0.12662978949E+00  0.20046867618E-01 0.  0.
         14    1    1    2    0    0 -0.16004592205E-01 -0.18558640260E-01  0.10902488621E-01  0.26822273544E-01  0.00000000000E+00 0.  1.
     999901    1    3    3    0    0 -0.28637872258E-01  0.50246015102E-01 -0.12331328582E+00  0.89047793697E+00  0.88000000000E+00 0. -1.
        -11    1    4    4    0    0  0.18047721670E-01 -0.23728023779E-01  0.68066455010E-01  0.74310448718E-01  0.51100000000E-03 0.  1.
         11    1    4    4    0    0  0.26594742793E-01 -0.79593510632E-02  0.44344342191E-01  0.52319340773E-01  0.51100000000E-03 0. -1.
</event>
<event>
 8    1  0.1138737E+005  0.1043930E+01  0.7957747E-01            NaN
         13   -1    0    0    0    0  0.00000000000E+00  0.00000000000E+00  0.74505805969E-08  0.10566000000E+00  0.10566000000E+00 0. -1.
     999900   -1    0    0    0    0 -0.00000000000E+00 -0.00000000000E+00 -0.74505805969E-08  0.93827000000E+00  0.93827000000E+00 0.  1.
     999902    2    1    2    0    0  0.19299917613E-01  0.15379175935E-01  0.68033299268E-03  0.10192425796E+01  0.10189435546E+01 0.  0.
     999903    2    3    3    0    0 -0.52771933585E-01  0.37516311671E-01 -0.10945519006E+00  0.12917840330E+00  0.22677535857E-01 0.  0.
         14    1    1    2    0    0 -0.19299917613E-01 -0.15379175935E-01 -0.68033299268E-03  0.24687420385E-01  0.00000000000E+00 0.  1.
     999901    1    3    3    0    0  0.72071851198E-01 -0.22137135737E-01  0.11013552306E+00  0.89006417631E+00  0.88000000000E+00 0. -1.
        -11    1    4    4    0    0 -0.13891036553E-01  0.50414706058E-02 -0.43934079568E-01  0.46355601505E-01  0.51100000000E-03 0. -1.
         11    1    4    4    0    0 -0.38880897032E-01  0.32474841066E-01 -0.65521110496E-01  0.82822801799E-01  0.51100000000E-03 0.  1.
</event>
<event>
 8    1  0.1138737E+005  0.1043930E+01  0.7957747E-01            NaN
         13   -1    0    0    0    0  0.00000000000E+00  0.00000000000E+00  0.74505805969E-08  0.10566000000E+00  0.10566000000E+00 0. -1.
     999900   -1    0    0    0    0 -0.00000000000E+00 -0.00000000000E+00 -0.74505805969E-08  0.93827000000E+00  0.93827000000E+00 0.  1.
     999902    2    1    2    0    0  0.48142074056E-02 -0.96114025994E-02  0.22017692276E-01  0.10194282771E+01  0.10191337879E+01 0.  0.
     999903    2    3    3    0    0  0.12073318678E+00 -0.46245178233E-01 -0.45240231347E-03  0.13078653349E+00  0.19743195686E-01 0.  0.
         14    1    1    2    0    0 -0.48142074056E-02  0.96114025994E-02 -0.22017692276E-01  0.24501722919E-01  0.00000000000E+00 0.  1.
     999901    1    3    3    0    0 -0.11591897937E+00  0.36633775634E-01  0.22470094589E-01  0.88864174359E+00  0.88000000000E+00 0.  1.
        -11    1    4    4    0    0  0.28658848718E-01 -0.26367663536E-02  0.22303533844E-02  0.28870707367E-01  0.51100000000E-03 0. -1.
         11    1    4    4    0    0  0.92074338059E-01 -0.43608411880E-01 -0.26827556979E-02  0.10191582613E+00  0.51100000000E-03 0.  1.
</event>
<event>
 8    1  0.1138737E+005  0.1043930E+01  0.7957747E-01            NaN
         13   -1    0    0    0    0  0.00000000000E+00  0.00000000000E+00  0.74505805969E-08  0.10566000000E+00  0.10566000000E+00 0. -1.
     999900   -1    0    0    0    0 -0.00000000000E+00 -0.00000000000E+00 -0.74505805969E-08  0.93827000000E+00  0.93827000000E+00 0.  1.
     999902    2    1    2    0    0  0.21261229232E-01 -0.11636170789E-01  0.22823828996E-02  0.10195856041E+01  0.10192949301E+01 0.  0.
     999903    2    3    3    0    0  0.10878797479E+00 -0.58023296144E-02  0.72622179005E-01  0.13243136059E+00  0.19889542388E-01 0.  0.
         14    1    1    2    0    0 -0.21261229232E-01  0.11636170789E-01 -0.22823828996E-02  0.24344395880E-01  0.00000000000E+00 0.  1.
     999901    1    3    3    0    0 -0.87526745562E-01 -0.58338411743E-02 -0.70339796106E-01  0.88715424353E+00  0.88000000000E+00 0.  1.
        -11    1    4    4    0    0  0.48299382469E-01 -0.12316790353E-01  0.34786494886E-01  0.60785648133E-01  0.51100000000E-03 0.  1.
         11    1    4    4    0    0  0.60488592325E-01  0.65144607388E-02  0.37835684119E-01  0.71645712461E-01  0.51100000000E-03 0. -1.
</event>
<event>
 8    1  0.1138737E+005  0.1043930E+01  0.7957747E-01            NaN
         13   -1    0    0    0    0  0.00000000000E+00  0.00000000000E+00  0.74505805969E-08  0.10566000000E+00  0.10566000000E+00 0.  1.
     999900   -1    0    0    0    0 -0.00000000000E+00 -0.00000000000E+00 -0.74505805969E-08  0.93827000000E+00  0.93827000000E+00 0. -1.
     999902    2    1    2    0    0 -0.15096673157E-01  0.51725281486E-02 -0.16958770051E-01  0.10206434273E+01  0.10203777443E+01 0.  0.
     999903    2    3    3    0    0  0.97792294533E-01 -0.81710733803E-01  0.13400064175E-02  0.12900030054E+00  0.19982618259E-01 0.  0.
         14    1    1    2    0    0  0.15096673157E-01 -0.51725281486E-02  0.16958770051E-01  0.23286572729E-01  0.00000000000E+00 0. -1.
     999901    1    3    3    0    0 -0.11288896769E+00  0.86883261952E-01 -0.18298776468E-01  0.89164312673E+00  0.88000000000E+00 0.  1.
        -11    1    4    4    0    0  0.32269317372E-01 -0.16188563640E-01  0.37844658381E-02  0.36303742769E-01  0.51100000000E-03 0.  1.
         11    1    4    4    0    0  0.65522977161E-01 -0.65522170163E-01 -0.24444594207E-02  0.92696557766E-01  0.51100000000E-03 0. -1.
</event>
<event>
 8    1  0.1138737E+005  0.1043930E+01  0.7957747E-01            NaN
         13   -1    0    0    0    0  0.00000000000E+00  0.00000000000E+00  0.74505805969E-08  0.10566000000E+00  0.10566000000E+00 0. -1.
     999900   -1    0    0    0    0 -0.00000000000E+00 -0.00000000000E+00 -0.74505805969E-08  0.93827000000E+00  0.93827000000E+00 0. -1.
     999902    2    1    2    0    0  0.91316851482E-02 -0.14963611550E-01  0.21977318357E-01  0.10158177275E+01  0.10154286561E+01 0.  0.
     999903    2    3    3    0    0  0.26725132350E-01 -0.81900721198E-01 -0.90157335270E-01  0.12600635051E+00  0.18091280618E-01 0.  0.
         14    1    1    2    0    0 -0.91316851482E-02  0.14963611550E-01 -0.21977318357E-01  0.28112272523E-01  0.00000000000E+00 0.  1.
     999901    1    3    3    0    0 -0.17593447201E-01  0.66937109648E-01  0.11213465363E+00  0.88981137697E+00  0.88000000000E+00 0.  1.
        -11    1    4    4    0    0  0.18165104523E-01 -0.53271176201E-01 -0.70595957579E-01  0.90287538364E-01  0.51100000000E-03 0. -1.
         11    1    4    4    0    0  0.85600278263E-02 -0.28629544997E-01 -0.19561377691E-01  0.35718812148E-01  0.51100000000E-03 0.  1.
</event>
<event>
 8    1  0.1138737E+005  0.1043930E+01  0.7957747E-01            NaN
         13   -1    0    0    0    0  0.00000000000E+00  0.00000000000E+00  0.74505805969E-08  0.10566000000E+00  0.10566000000E+00 0.  1.
     999900   -1    0    0    0    0 -0.00000000000E+00 -0.00000000000E+00 -0.74505805969E-08  0.93827000000E+00  0.93827000000E+00 0. -1.
     999902    2    1    2    0    0 -0.73124666790E-02  0.17326363807E-01 -0.14018964611E-01  0.10204735207E+01  0.10202039012E+01 0.  0.
     999903    2    3    3    0    0 -0.10722630757E+00 -0.35935958686E-01 -0.64782707917E-01  0.13176850316E+00  0.19423311174E-01 0.  0.
         14    1    1    2    0    0  0.73124666790E-02 -0.17326363807E-01  0.14018964611E-01  0.23456479286E-01  0.00000000000E+00 0.  1.
     999901    1    3    3    0    0  0.99913840892E-01  0.53262322493E-01  0.50763743306E-01  0.88870501756E+00  0.88000000000E+00 0. -1.
        -11    1    4    4    0    0 -0.76972760066E-01 -0.17403592490E-01 -0.49335983904E-01  0.93069819236E-01  0.51100000000E-03 0.  1.
         11    1    4    4    0    0 -0.30253547505E-01 -0.18532366196E-01 -0.15446724013E-01  0.38698683920E-01  0.51100000000E-03 0. -1.
</event>
<event>
 8    1  0.1138737E+005  0.1043930E+01  0.7957747E-01            NaN
         13   -1    0    0    0    0  0.00000000000E+00  0.00000000000E+00  0.74505805969E-08  0.10566000000E+00  0.10566000000E+00 0.  1.
     999900   -1    0    0    0    0 -0.00000000000E+00 -0.00000000000E+00 -0.74505805969E-08  0.93827000000E+00  0.93827000000E+00 0.  1.
     999902    2    1    2    0    0 -0.10571739291E-01 -0.48164062107E-02 -0.22289168110E-01  0.10187950352E+01  0.10184849323E+01 0.  0.
     999903    2    3    3    0    0 -0.74185120051E-01 -0.16307846524E-01  0.10092609736E+00  0.12786253660E+00  0.19833639177E-01 0.  0.
         14    1    1    2    0    0  0.10571739291E-01  0.48164062107E-02  0.22289168110E-01  0.25134964800E-01  0.00000000000E+00 0.  1.
     999901    1    3    3    0    0  0.63613380760E-01  0.11491440314E-01 -0.12321526547E+00  0.89093249860E+00  0.88000000000E+00 0.  1.
        -11    1    4    4    0    0 -0.40277404654E-01 -0.18894769111E-01  0.57527974892E-01  0.72725584505E-01  0.51100000000E-03 0.  1.
         11    1    4    4    0    0 -0.33907715398E-01  0.25869225865E-02  0.43398122468E-01  0.55136952098E-01  0.51100000000E-03 0. -1.
</event>
<event>
 8    1  0.1138737E+005  0.1043930E+01  0.7957747E-01            NaN
         13   -1    0    0    0    0  0.00000000000E+00  0.00000000000E+00  0.74505805969E-08  0.10566000000E+00  0.10566000000E+00 0. -1.
     999900   -1    0    0    0    0 -0.00000000000E+00 -0.00000000000E+00 -0.74505805969E-08  0.93827000000E+00  0.93827000000E+00 0. -1.
     999902    2    1    2    0    0  0.16758639386E-01  0.31054494775E-02  0.16578240120E-01  0.10201532497E+01  0.10198761292E+01 0.  0.
     999903    2    3    3    0    0  0.70224901314E-01  0.95881222831E-01  0.56868304614E-01  0.13274732532E+00  0.16220439372E-01 0.  0.
         14    1    1    2    0    0 -0.16758639386E-01 -0.31054494775E-02 -0.16578240120E-01  0.23776750325E-01  0.00000000000E+00 0.  1.
     999901    1    3    3    0    0 -0.53466261927E-01 -0.92775773354E-01 -0.40290064494E-01  0.88740592436E+00  0.88000000000E+00 0.  1.
        -11    1    4    4    0    0  0.37173041701E-01  0.62892441206E-01  0.38317253193E-01  0.82497073908E-01  0.51100000000E-03 0. -1.
         11    1    4    4    0    0  0.33051859613E-01  0.32988781625E-01  0.18551051421E-01  0.50250251410E-01  0.51100000000E-03 0.  1.
</event>
<event>
 8    1  0.1138737E+005  0.1043930E+01  0.7957747E-01            NaN
         13   -1    0    0    0    0  0.00000000000E+00  0.00000000000E+00  0.74505805969E-08  0.10566000000E+00  0.10566000000E+00 0. -1.
     999900   -1    0    0    0    0 -0.00000000000E+00 -0.00000000000E+00 -0.74505805969E-08  0.93827000000E+00  0.93827000000E+00 0. -1.
     999902    2    1    2    0    0  0.14033875485E-01  0.93521124179E-02  0.16362051547E-01  0.10204325874E+01  0.10201620151E+01 0.  0.
     999903    2    3    3    0    0  0.75750250434E-01 -0.25296421260E-01  0.10490857140E+00  0.13316153637E+00  0.18659502882E-01 0.  0.
         14    1    1    2    0    0 -0.14033875485E-01 -0.93521124179E-02 -0.16362051547E-01  0.23497412594E-01  0.00000000000E+00 0.  1.
     999901    1    3    3    0    0 -0.61716374949E-01  0.34648533678E-01 -0.88546519849E-01  0.88727105103E+00  0.88000000000E+00 0. -1.
        -11    1    4    4    0    0  0.50580561501E-01 -0.87960421883E-02  0.58372547885E-01  0.77739173057E-01  0.51100000000E-03 0.  1.
         11    1    4    4    0    0  0.25169688933E-01 -0.16500379071E-01  0.46536023510E-01  0.55422363317E-01  0.51100000000E-03 0. -1.
</event>
<event>
 8    1  0.1138737E+005  0.1043930E+01  0.7957747E-01            NaN
         13   -1    0    0    0    0  0.00000000000E+00  0.00000000000E+00  0.74505805969E-08  0.10566000000E+00  0.10566000000E+00 0. -1.
     999900   -1    0    0    0    0 -0.00000000000E+00 -0.00000000000E+00 -0.74505805969E-08  0.93827000000E+00  0.93827000000E+00 0. -1.
     999902    2    1    2    0    0  0.15797847387E-01 -0.27416962242E-03  0.17993809751E-01  0.10199837197E+01  0.10197025861E+01 0.  0.
     999903    2    3    3    0    0 -0.91456559001E-01  0.82805249602E-01 -0.29667038592E-01  0.12831267382E+00  0.19052494281E-01 0.  0.
         14    1    1    2    0    0 -0.15797847387E-01  0.27416962242E-03 -0.17993809751E-01  0.23946280304E-01  0.00000000000E+00 0.  1.
     999901    1    3    3    0    0  0.10725440639E+00 -0.83079419224E-01  0.47660848343E-01  0.89167104588E+00  0.88000000000E+00 0.  1.
        -11    1    4    4    0    0 -0.61909844580E-01  0.57029090972E-01 -0.29202889590E-01  0.89096666348E-01  0.51100000000E-03 0.  1.
         11    1    4    4    0    0 -0.29546714421E-01  0.25776158629E-01 -0.46414900210E-03  0.39216007472E-01  0.51100000000E-03 0. -1.
</event>
<event>
 8    1  0.1138737E+005  0.1043930E+01  0.7957747E-01            NaN
         13   -1    0    0    0    0  0.00000000000E+00  0.00000000000E+00  0.74505805969E-08  0.10566000000E+00  0.10566000000E+00 0. -1.
     999900   -1    0    0    0    0 -0.00000000000E+00 -0.00000000000E+00 -0.74505805969E-08  0.93827000000E+00  0.93827000000E+00 0. -1.
     999902    2    1    2    0    0 -0.29545669772E-01  0.23029658097E-02  0.18686805949E-02  0.10142358554E+01  0.10138010792E+01 0.  0.
     999903    2    3    3    0    0 -0.74407741970E-01  0.60939261677E-01  0.82050278684E-01  0.12751159763E+00  0.16638918840E-01 0.  0.
         14    1    1    2    0    0  0.29545669772E-01 -0.23029658097E-02 -0.18686805949E-02  0.29694144557E-01  0.00000000000E+00 0. -1.
     999901    1    3    3    0    0  0.44862072198E-01 -0.58636295867E-01 -0.80181598089E-01  0.88672425781E+00  0.88000000000E+00 0.  1.
        -11    1    4    4    0    0 -0.48411145373E-01  0.32238174976E-01  0.41596523480E-01  0.71508536614E-01  0.51100000000E-03 0. -1.
         11    1    4    4    0    0 -0.25996596598E-01  0.28701086701E-01  0.40453755204E-01  0.56003061020E-01  0.51100000000E-03 0.  1.
</event>
<event>
 8    1  0.1138737E+005  0.1043930E+01  0.7957747E-01            NaN
         13   -1    0    0    0    0  0.00000000000E+00  0.00000000000E+00  0.74505805969E-08  0.10566000000E+00  0.10566000000E+00 0.  1.
     999900   -1    0    0    0    0 -0.00000000000E+00 -0.00000000000E+00 -0.74505805969E-08  0.93827000000E+00  0.93827000000E+00 0.  1.
     999902    2    1    2    0    0 -0.18018532337E-01  0.13471178951E-01 -0.49873407761E-02  0.10208862647E+01  0.10206261567E+01 0.  0.
     999903    2    3    3    0    0  0.85848427178E-01 -0.93321924934E-01  0.16601449781E-02  0.12834085889E+00  0.19740462422E-01 0.  0.
         14    1    1    2    0    0  0.18018532337E-01 -0.13471178951E-01  0.49873407761E-02  0.23043735329E-01  0.00000000000E+00 0.  1.
     999901    1    3    3    0    0 -0.10386695952E+00  0.10679310388E+00 -0.66474857542E-02  0.89254540578E+00  0.88000000000E+00 0.  1.
        -11    1    4    4    0    0  0.45215839841E-01 -0.43892158404E-01 -0.83678510058E-02  0.63571029513E-01  0.51100000000E-03 0. -1.
         11    1    4    4    0    0  0.40632587337E-01 -0.49429766530E-01  0.10027995984E-01  0.64769829375E-01  0.51100000000E-03 0.  1.
</event>
<event>
 8    1  0.1138737E+005  0.1043930E+01  0.7957747E-01            NaN
         13   -1    0    0    0    0  0.00000000000E+00  0.00000000000E+00  0.74505805969E-08  0.10566000000E+00  0.10566000000E+00 0. -1.
     999900   -1    0    0    0    0 -0.00000000000E+00 -0.00000000000E+00 -0.74505805969E-08  0.93827000000E+00  0.93827000000E+00 0. -1.
     999902    2    1    2    0    0  0.11531437204E-01 -0.16241714163E-01 -0.12531605800E-01  0.10203968645E+01  0.10201254592E+01 0.  0.
     999903    2    3    3    0    0 -0.47860968056E-01 -0.15932896372E-01  0.11663157687E+00  0.12898748551E+00  0.22143108293E-01 0.  0.
         14    1    1    2    0    0 -0.11531437204E-01  0.16241714163E-01  0.12531605800E-01  0.23533135509E-01  0.00000000000E+00 0. -1.
     999901    1    3    3    0    0  0.59392405260E-01 -0.30881779142E-03 -0.12916318267E+00  0.89140937898E+00  0.88000000000E+00 0. -1.
        -11    1    4    4    0    0 -0.58079856618E-02 -0.14804305186E-02  0.39492675081E-01  0.39948177405E-01  0.51100000000E-03 0. -1.
         11    1    4    4    0    0 -0.42052982395E-01 -0.14452465853E-01  0.77138901793E-01  0.89039308108E-01  0.51100000000E-03 0.  1.
</event>
<event>
 8    1  0.1138737E+005  0.1043930E+01  0.7957747E-01            NaN
         13   -1    0    0    0    0  0.00000000000E+00  0.00000000000E+00  0.74505805969E-08  0.10566000000E+00  0.10566000000E+00 0. -1.
     999900   -1    0    0    0    0 -0.00000000000E+00 -0.00000000000E+00 -0.74505805969E-08  0.93827000000E+00  0.93827000000E+00 0. -1.
     999902    2    1    2    0    0  0.20906325223E-01 -0.95010203352E-02  0.62254483386E-03  0.10209575952E+01  0.10206991132E+01 0.  0.
     999903    2    3    3    0    0  0.78523405374E-01 -0.81840625492E-01 -0.67860880897E-01  0.13346521435E+00  0.18548614887E-01 0.  0.
         14    1    1    2    0    0 -0.20906325223E-01  0.95010203352E-02 -0.62254483386E-03  0.22972404833E-01  0.00000000000E+00 0. -1.
     999901    1    3    3    0    0 -0.57617080151E-01  0.72339605157E-01  0.68483425731E-01  0.88749238081E+00  0.88000000000E+00 0.  1.
        -11    1    4    4    0    0  0.19497040923E-01 -0.15212086538E-01 -0.72548674788E-02  0.25776663957E-01  0.51100000000E-03 0. -1.
         11    1    4    4    0    0  0.59026364451E-01 -0.66628538954E-01 -0.60606013418E-01  0.10768855040E+00  0.51100000000E-03 0.  1.
</event>
<event>
 8    1  0.1138737E+005  0.1043930E+01  0.7957747E-01            NaN
         13   -1    0    0    0    0  0.00000000000E+00  0.00000000000E+00  0.74505805969E-08  0.10566000000E+00  0.10566000000E+00 0.  1.
     999900   -1    0    0    0    0 -0.00000000000E+00 -0.00000000000E+00 -0.74505805969E-08  0.93827000000E+00  0.93827000000E+00 0. -1.
     999902    2    1    2    0    0 -0.18659556908E-01  0.24117340636E-02 -0.13837041806E-01  0.10205749309E+01  0.10203076646E+01 0.  0.
     999903    2    3    3    0    0 -0.22133481138E-01 -0.81929834809E-01  0.96028020661E-01  0.12973493389E+00  0.20183743433E-01 0.  0.
         14    1    1    2    0    0  0.18659556908E-01 -0.24117340636E-02  0.13837041806E-01  0.23355069067E-01  0.00000000000E+00 0.  1.
     999901    1    3    3    0    0  0.34739242298E-02  0.84341568872E-01 -0.10986506247E+00  0.89083999705E+00  0.88000000000E+00 0. -1.
        -11    1    4    4    0    0 -0.11765252842E-01 -0.29722546524E-01  0.50092694667E-01  0.59425500640E-01  0.51100000000E-03 0. -1.
         11    1    4    4    0    0 -0.10368228296E-01 -0.52207288285E-01  0.45935325994E-01  0.70309433245E-01  0.51100000000E-03 0.  1.
</event>
<event>
 8    1  0.1138737E+005  0.1043930E+01  0.7957747E-01            NaN
         13   -1    0    0    0    0  0.00000000000E+00  0.00000000000E+00  0.74505805969E-08  0.10566000000E+00  0.10566000000E+00 0.  1.
     999900   -1    0    0    0    0 -0.00000000000E+00 -0.00000000000E+00 -0.74505805969E-08  0.93827000000E+00  0.93827000000E+00 0.  1.
     999902    2    1    2    0    0  0.22817865087E-01  0.40532209825E-02  0.22263577738E-02  0.10206482424E+01  0.10203826706E+01 0.  0.
     999903    2    3    3    0    0  0.14483211556E-01 -0.93900853617E-01  0.88156954834E-01  0.13101430944E+00  0.19130260485E-01 0.  0.
         14    1    1    2    0    0 -0.22817865087E-01 -0.40532209825E-02 -0.22263577738E-02  0.23281757588E-01  0.00000000000E+00 0. -1.
     999901    1    3    3    0    0  0.83346535306E-02  0.97954074599E-01 -0.85930597060E-01  0.88963393297E+00  0.88000000000E+00 0. -1.
        -11    1    4    4    0    0  0.18093532954E-01 -0.67927065758E-01  0.58796945543E-01  0.91644989626E-01  0.51100000000E-03 0. -1.
         11    1    4    4    0    0 -0.36103213976E-02 -0.25973787858E-01  0.29360009291E-01  0.39369319817E-01  0.51100000000E-03 0.  1.
</event>
<event>
 8    1  0.1138737E+005  0.1043930E+01  0.7957747E-01            NaN
         13   -1    0    0    0    0  0.00000000000E+00  0.00000000000E+00  0.74505805969E-08  0.10566000000E+00  0.10566000000E+00 0. -1.
     999900   -1    0    0    0    0 -0.00000000000E+00 -0.00000000000E+00 -0.74505805969E-08  0.93827000000E+00  0.93827000000E+00 0. -1.
     999902    2    1    2    0    0  0.13280271209E-02 -0.67278809207E-02 -0.22596028821E-01  0.10203162634E+01  0.10200429740E+01 0.  0.
     999903    2    3    3    0    0  0.41387717582E-01  0.11323095356E+00 -0.47238546961E-01  0.13093324441E+00  0.19438162500E-01 0.  0.
         14    1    1    2    0    0 -0.13280271209E-02  0.67278809207E-02  0.22596028821E-01  0.23613736599E-01  0.00000000000E+00 0. -1.
     999901    1    3    3    0    0 -0.40059690461E-01 -0.11995883448E+00  0.24642518141E-01  0.88938301899E+00  0.88000000000E+00 0.  1.
        -11    1    4    4    0    0  0.18152039666E-01  0.71091233816E-01 -0.22047460977E-01  0.76614696540E-01  0.51100000000E-03 0.  1.
         11    1    4    4    0    0  0.23235677916E-01  0.42139719746E-01 -0.25191085985E-01  0.54318547869E-01  0.51100000000E-03 0. -1.
</event>
<event>
 8    1  0.1138737E+005  0.1043930E+01  0.7957747E-01            NaN
         13   -1    0    0    0    0  0.00000000000E+00  0.00000000000E+00  0.74505805969E-08  0.10566000000E+00  0.10566000000E+00 0. -1.
     999900   -1    0    0    0    0 -0.00000000000E+00 -0.00000000000E+00 -0.74505805969E-08  0.93827000000E+00  0.93827000000E+00 0. -1.
     999902    2    1    2    0    0 -0.10119009133E-01  0.86536276188E-02 -0.18849147079E-01  0.10208525226E+01  0.10205916436E+01 0.  0.
     999903    2    3    3    0    0  0.28019089698E-01  0.11437620995E+00  0.52996344759E-01  0.13079996591E+00  0.20809414544E-01 0.  0.
         14    1    1    2    0    0  0.10119009133E-01 -0.86536276188E-02  0.18849147079E-01  0.23077477384E-01  0.00000000000E+00 0. -1.
     999901    1    3    3    0    0 -0.38138098831E-01 -0.10572258234E+00 -0.71845491838E-01  0.89005255670E+00  0.88000000000E+00 0. -1.
        -11    1    4    4    0    0  0.19656214253E-01  0.93401311823E-01  0.50750968865E-01  0.10810223758E+00  0.51100000000E-03 0. -1.
         11    1    4    4    0    0  0.83628754447E-02  0.20974898131E-01  0.22453758945E-02  0.22697728327E-01  0.51100000000E-03 0.  1.
</event>
<event>
 8    1  0.1138737E+005  0.1043930E+01  0.7957747E-01            NaN
         13   -1    0    0    0    0  0.00000000000E+00  0.00000000000E+00  0.74505805969E-08  0.10566000000E+00  0.10566000000E+00 0.  1.
     999900   -1    0    0    0    0 -0.00000000000E+00 -0.00000000000E+00 -0.74505805969E-08  0.93827000000E+00  0.93827000000E+00 0. -1.
     999902    2    1    2    0    0  0.60909880989E-02  0.18995631812E-01 -0.12636049207E-01  0.10203163619E+01  0.10200430748E+01 0.  0.
     999903    2    3    3    0    0  0.25226381486E-01 -0.11431100849E+00 -0.50965049992E-01  0.12924625473E+00  0.20094304046E-01 0.  0.
         14    1    1    2    0    0 -0.60909880989E-02 -0.18995631812E-01  0.12636049207E-01  0.23613638083E-01  0.00000000000E+00 0.  1.
     999901    1    3    3    0    0 -0.19135393387E-01  0.13330664030E+00  0.38329000786E-01  0.89107010719E+00  0.88000000000E+00 0.  1.
        -11    1    4    4    0    0  0.21693343482E-01 -0.11131220345E+00 -0.45850224778E-01  0.12232543489E+00  0.51100000000E-03 0.  1.
         11    1    4    4    0    0  0.35330380032E-02 -0.29988050400E-02 -0.51148252140E-02  0.69208198336E-02  0.51100000000E-03 0. -1.
</event>
<event>
 8    1  0.1138737E+005  0.1043930E+01  0.7957747E-01            NaN
         13   -1    0    0    0    0  0.00000000000E+00  0.00000000000E+00  0.74505805969E-08  0.10566000000E+00  0.10566000000E+00 0.  1.
     999900   -1    0    0    0    0 -0.00000000000E+00 -0.00000000000E+00 -0.74505805969E-08  0.93827000000E+00  0.93827000000E+00 0.  1.
     999902    2    1    2    0    0 -0.20763458447E-01  0.82101935944E-02 -0.31094688514E-02  0.10213867686E+01  0.10211379602E+01 0.  0.
     999903    2    3    3    0    0 -0.11772697874E-01  0.11799396912E+00  0.56654197729E-01  0.13250825778E+00  0.16957803421E-01 0.  0.
         14    1    1    2    0    0  0.20763458447E-01 -0.82101935944E-02  0.31094688514E-02  0.22543231402E-01  0.00000000000E+00 0.  1.
     999901    1    3    3    0    0 -0.89907605727E-02 -0.10978377552E+00 -0.59763666580E-01  0.88887851081E+00  0.88000000000E+00 0.  1.
        -11    1    4    4    0    0 -0.18119730671E-02  0.31423177948E-01  0.23447577235E-01  0.39252380284E-01  0.51100000000E-03 0. -1.
         11    1    4    4    0    0 -0.99607248069E-02  0.86570791171E-01  0.33206620494E-01  0.93255877499E-01  0.51100000000E-03 0.  1.
</event>
<event>
 8    1  0.1138737E+005  0.1043930E+01  0.7957747E-01            NaN
         13   -1    0    0    0    0  0.00000000000E+00  0.00000000000E+00  0.74505805969E-08  0.10566000000E+00  0.10566000000E+00 0. -1.
     999900   -1    0    0    0    0 -0.00000000000E+00 -0.00000000000E+00 -0.74505805969E-08  0.93827000000E+00  0.93827000000E+00 0. -1.
     999902    2    1    2    0    0  0.15192391717E-01 -0.11413817011E-01 -0.14567777679E-01  0.10199862298E+01  0.10197051558E+01 0.  0.
     999903    2    3    3    0    0 -0.86389426124E-01  0.22586994860E-01  0.89230599600E-01  0.12743425706E+00  0.17438024084E-01 0.  0.
         14    1    1    2    0    0 -0.15192391717E-01  0.11413817011E-01  0.14567777679E-01  0.23943770199E-01  0.00000000000E+00 0. -1.
     999901    1    3    3    0    0  0.10158181784E+00 -0.34000811871E-01 -0.10379837728E+00  0.89255197274E+00  0.88000000000E+00 0. -1.
        -11    1    4    4    0    0 -0.53065239431E-01  0.17276838818E-01  0.44376270098E-01  0.71301635775E-01  0.51100000000E-03 0. -1.
         11    1    4    4    0    0 -0.33324186693E-01  0.53101560425E-02  0.44854329502E-01  0.56132621282E-01  0.51100000000E-03 0.  1.
</event>
<event>
 8    1  0.1138737E+005  0.1043930E+01  0.7957747E-01            NaN
         13   -1    0    0    0    0  0.00000000000E+00  0.00000000000E+00  0.74505805969E-08  0.10566000000E+00  0.10566000000E+00 0. -1.
     999900   -1    0    0    0    0 -0.00000000000E+00 -0.00000000000E+00 -0.74505805969E-08  0.93827000000E+00  0.93827000000E+00 0.  1.
     999902    2    1    2    0    0  0.19433908522E-02 -0.14189676825E-01 -0.19934635541E-01  0.10193838518E+01  0.10190882807E+01 0.  0.
     999903    2    3    3    0    0  0.66794787375E-02 -0.16527554373E-01  0.12465513015E+00  0.12756879445E+00  0.20423524578E-01 0.  0.
         14    1    1    2    0    0 -0.19433908522E-02  0.14189676825E-01  0.19934635541E-01  0.24546148181E-01  0.00000000000E+00 0. -1.
     999901    1    3    3    0    0 -0.47360878853E-02  0.23378775482E-02 -0.14458976569E+00  0.89181505736E+00  0.88000000000E+00 0.  1.
        -11    1    4    4    0    0 -0.20331009850E-04 -0.19467072253E-01  0.81452632965E-01  0.83748193135E-01  0.51100000000E-03 0.  1.
         11    1    4    4    0    0  0.66998097474E-02  0.29395178795E-02  0.43202497184E-01  0.43820601319E-01  0.51100000000E-03 0. -1.
</event>
<event>
 8    1  0.1138737E+005  0.1043930E+01  0.7957747E-01            NaN
         13   -1    0    0    0    0  0.00000000000E+00  0.00000000000E+00  0.74505805969E-08  0.10566000000E+00  0.10566000000E+00 0. -1.
     999900   -1    0    0    0    0 -0.00000000000E+00 -0.00000000000E+00 -0.74505805969E-08  0.93827000000E+00  0.93827000000E+00 0. -1.
     999902    2    1    2    0    0 -0.25616904091E-02  0.13925920718E-01  0.18717024145E-01  0.10204604342E+01  0.10201905103E+01 0.  0.
     999903    2    3    3    0    0  0.56949845306E-01  0.66974759444E-01  0.98209746603E-01  0.13328801855E+00  0.19789852941E-01 0.  0.
         14    1    1    2    0    0  0.25616904091E-02 -0.13925920718E-01 -0.18717024145E-01  0.23469565792E-01  0.00000000000E+00 0.  1.
     999901    1    3    3    0    0 -0.59511535715E-01 -0.53048838726E-01 -0.79492722457E-01  0.88717241565E+00  0.88000000000E+00 0. -1.
        -11    1    4    4    0    0  0.25432220935E-01  0.44548029018E-01  0.52433123064E-01  0.73354061008E-01  0.51100000000E-03 0. -1.
         11    1    4    4    0    0  0.31517624371E-01  0.22426730426E-01  0.45776623539E-01  0.59933957547E-01  0.51100000000E-03 0.  1.
</event>
<event>
 8    1  0.1138737E+005  0.1043930E+01  0.7957747E-01            NaN
         13   -1    0    0    0    0  0.00000000000E+00  0.00000000000E+00  0.74505805969E-08  0.10566000000E+00  0.10566000000E+00 0. -1.
     999900   -1    0    0    0    0 -0.00000000000E+00 -0.00000000000E+00 -0.74505805969E-08  0.93827000000E+00  0.93827000000E+00 0.  1.
     999902    2    1    2    0    0 -0.27869521616E-03  0.22849822974E-01  0.92539754936E-03  0.10210597477E+01  0.10208035854E+01 0.  0.
     999903    2    3    3    0    0 -0.22697397584E-01 -0.12026896993E+00 -0.33498959954E-01  0.12855169533E+00  0.20580599386E-01 0.  0.
         14    1    1    2    0    0  0.27869521616E-03 -0.22849822974E-01 -0.92539754936E-03  0.22870252329E-01  0.00000000000E+00 0. -1.
     999901    1    3    3    0    0  0.22418702368E-01  0.14311879290E+00  0.34424357504E-01  0.89250805234E+00  0.88000000000E+00 0. -1.
        -11    1    4    4    0    0 -0.24914715485E-01 -0.81234889354E-01 -0.24429125814E-01  0.88413198139E-01  0.51100000000E-03 0. -1.
         11    1    4    4    0    0  0.22173179011E-02 -0.39034080572E-01 -0.90698341404E-02  0.40138497195E-01  0.51100000000E-03 0.  1.
</event>
<event>
 8    1  0.1138737E+005  0.1043930E+01  0.7957747E-01            NaN
         13   -1    0    0    0    0  0.00000000000E+00  0.00000000000E+00  0.74505805969E-08  0.10566000000E+00  0.10566000000E+00 0.  1.
     999900   -1    0    0    0    0 -0.00000000000E+00 -0.00000000000E+00 -0.74505805969E-08  0.93827000000E+00  0.93827000000E+00 0.  1.
     999902    2    1    2    0    0 -0.15918518586E-01  0.13058303417E-01  0.12136195688E-01  0.10200300885E+01  0.10197500555E+01 0.  0.
     999903    2    3    3    0    0 -0.44952084485E-01 -0.22322396442E-01  0.12051286797E+00  0.13220113825E+00  0.20852106011E-01 0.  0.
         14    1    1    2    0    0  0.15918518586E-01 -0.13058303417E-01 -0.12136195688E-01  0.23899911462E-01  0.00000000000E+00 0. -1.
     999901    1    3    3    0    0  0.29033565899E-01  0.35380699859E-01 -0.10837667229E+00  0.88782895029E+00  0.88000000000E+00 0.  1.
        -11    1    4    4    0    0 -0.46050552308E-01 -0.18355405633E-01  0.11552861477E+00  0.12571673013E+00  0.51100000000E-03 0.  1.
         11    1    4    4    0    0  0.10984678227E-02 -0.39669908087E-02  0.49842532046E-02  0.64844081180E-02  0.51100000000E-03 0. -1.
</event>
<event>
 8    1  0.1335649E+005  0.1043930E+01  0.7957747E-01            NaN
         13   -1    0    0    0    0  0.00000000000E+00  0.00000000000E+00  0.74505805969E-08  0.10566000000E+00  0.10566000000E+00 0.  1.
     999900   -1    0    0    0    0 -0.00000000000E+00 -0.00000000000E+00 -0.74505805969E-08  0.93827000000E+00  0.93827000000E+00 0.  1.
     999902    2    1    2    0    0 -0.14004845523E-01 -0.21825307025E-01  0.50630956233E-02  0.10175081404E+01  0.10171650315E+01 0.  0.
     999903    2    3    3    0    0 -0.22833780716E-01 -0.12748885712E+00  0.24727619192E-02  0.13113945545E+00  0.20412055113E-01 0.  0.
         14    1    1    2    0    0  0.14004845523E-01  0.21825307025E-01 -0.50630956233E-02  0.26421859551E-01  0.00000000000E+00 0.  1.
     999901    1    3    3    0    0  0.88289351929E-02  0.10566355009E+00  0.25903337042E-02  0.88636868500E+00  0.88000000000E+00 0. -1.
        -11    1    4    4    0    0 -0.11230262439E-01 -0.72482557870E-01  0.11355163669E-01  0.74222913260E-01  0.51100000000E-03 0. -1.
         11    1    4    4    0    0 -0.11603518277E-01 -0.55006299247E-01 -0.88824017498E-02  0.56916542192E-01  0.51100000000E-03 0.  1.
</event>
<event>
 8    1  0.1138737E+005  0.1043930E+01  0.7957747E-01            NaN
         13   -1    0    0    0    0  0.00000000000E+00  0.00000000000E+00  0.74505805969E-08  0.10566000000E+00  0.10566000000E+00 0. -1.
     999900   -1    0    0    0    0 -0.00000000000E+00 -0.00000000000E+00 -0.74505805969E-08  0.93827000000E+00  0.93827000000E+00 0. -1.
     999902    2    1    2    0    0  0.91321440884E-02 -0.22208048240E-01  0.36157139484E-02  0.10196469432E+01  0.10193577497E+01 0.  0.
     999903    2    3    3    0    0 -0.89505666475E-01  0.16606607994E-01 -0.88357462839E-01  0.12852682754E+00  0.20616992934E-01 0.  0.
         14    1    1    2    0    0 -0.91321440884E-02  0.22208048240E-01 -0.36157139484E-02  0.24283056843E-01  0.00000000000E+00 0.  1.
     999901    1    3    3    0    0  0.98637810563E-01 -0.38814656234E-01  0.91973176787E-01  0.89112011562E+00  0.88000000000E+00 0.  1.
        -11    1    4    4    0    0 -0.15537102380E-01  0.10210538442E-01 -0.23277255018E-01  0.29795106441E-01  0.51100000000E-03 0. -1.
         11    1    4    4    0    0 -0.73968564095E-01  0.63960695525E-02 -0.65080207821E-01  0.98731721098E-01  0.51100000000E-03 0.  1.
</event>
<event>
 8    1  0.1138737E+005  0.1043930E+01  0.7957747E-01            NaN
         13   -1    0    0    0    0  0.00000000000E+00  0.00000000000E+00  0.74505805969E-08  0.10566000000E+00  0.10566000000E+00 0. -1.
     999900   -1    0    0    0    0 -0.00000000000E+00 -0.00000000000E+00 -0.74505805969E-08  0.93827000000E+00  0.93827000000E+00 0.  1.
     999902    2    1    2    0    0  0.17972029611E-01 -0.12937710303E-01  0.32915190668E-02  0.10215422289E+01  0.10212968781E+01 0.  0.
     999903    2    3    3    0    0  0.50910242143E-01 -0.45731986939E-01 -0.11197071902E+00  0.13280955035E+00  0.20436911736E-01 0.  0.
         14    1    1    2    0    0 -0.17972029611E-01  0.12937710303E-01 -0.32915190668E-02  0.22387771081E-01  0.00000000000E+00 0.  1.
     999901    1    3    3    0    0 -0.32938212532E-01  0.32794276636E-01  0.11526223809E+00  0.88873267857E+00  0.88000000000E+00 0. -1.
        -11    1    4    4    0    0  0.23577371839E-01 -0.31275305972E-01 -0.74979628682E-01  0.84594580588E-01  0.51100000000E-03 0. -1.
         11    1    4    4    0    0  0.27332870304E-01 -0.14456680967E-01 -0.36991090341E-01  0.48214969763E-01  0.51100000000E-03 0.  1.
</event>
<event>
 8    1  0.1138737E+005  0.1043930E+01  0.7957747E-01            NaN
         13   -1    0    0    0    0  0.00000000000E+00  0.00000000000E+00  0.74505805969E-08  0.10566000000E+00  0.10566000000E+00 0. -1.
     999900   -1    0    0    0    0 -0.00000000000E+00 -0.00000000000E+00 -0.74505805969E-08  0.93827000000E+00  0.93827000000E+00 0.  1.
     999902    2    1    2    0    0  0.59978825956E-02 -0.20790015958E-02 -0.22625619535E-01  0.10204307340E+01  0.10201601185E+01 0.  0.
     999903    2    3    3    0    0 -0.66712627867E-01  0.47499296464E-01 -0.10204712580E+00  0.13248219854E+00  0.20764372442E-01 0.  0.
         14    1    1    2    0    0 -0.59978825956E-02  0.20790015958E-02  0.22625619535E-01  0.23499266002E-01  0.00000000000E+00 0. -1.
     999901    1    3    3    0    0  0.72710510462E-01 -0.49578298060E-01  0.79421506268E-01  0.88794853546E+00  0.88000000000E+00 0. -1.
        -11    1    4    4    0    0 -0.25399583955E-01  0.21301126689E-01 -0.57207299697E-01  0.66119687862E-01  0.51100000000E-03 0. -1.
         11    1    4    4    0    0 -0.41313043912E-01  0.26198169775E-01 -0.44839826106E-01  0.66362510675E-01  0.51100000000E-03 0.  1.
</event>
<event>
 8    1  0.1138737E+005  0.1043930E+01  0.7957747E-01            NaN
         13   -1    0    0    0    0  0.00000000000E+00  0.00000000000E+00  0.74505805969E-08  0.10566000000E+00  0.10566000000E+00 0. -1.
     999900   -1    0    0    0    0 -0.00000000000E+00 -0.00000000000E+00 -0.74505805969E-08  0.93827000000E+00  0.93827000000E+00 0.  1.
     999902    2    1    2    0    0 -0.19249014625E-01 -0.12568019558E-01 -0.45128900183E-02  0.10205025406E+01  0.10202335955E+01 0.  0.
     999903    2    3    3    0    0 -0.66990266491E-01 -0.71063919092E-01 -0.88284720779E-01  0.13330542772E+00  0.20937257133E-01 0.  0.
         14    1    1    2    0    0  0.19249014625E-01  0.12568019558E-01  0.45128900183E-02  0.23427459443E-01  0.00000000000E+00 0. -1.
     999901    1    3    3    0    0  0.47741251866E-01  0.58495899533E-01  0.83771830760E-01  0.88719711283E+00  0.88000000000E+00 0. -1.
        -11    1    4    4    0    0 -0.35824609796E-01 -0.52455484212E-01 -0.54035872424E-01  0.83397344805E-01  0.51100000000E-03 0.  1.
         11    1    4    4    0    0 -0.31165656694E-01 -0.18608434879E-01 -0.34248848355E-01  0.49908082917E-01  0.51100000000E-03 0. -1.
</event>
<event>
 8    1  0.1138737E+005  0.1043930E+01  0.7957747E-01            NaN
         13   -1    0    0    0    0  0.00000000000E+00  0.00000000000E+00  0.74505805969E-08  0.10566000000E+00  0.10566000000E+00 0. -1.
     999900   -1    0    0    0    0 -0.00000000000E+00 -0.00000000000E+00 -0.74505805969E-08  0.93827000000E+00  0.93827000000E+00 0. -1.
     999902    2    1    2    0    0  0.10389043944E-02  0.13769233629E-01  0.18786682858E-01  0.10206145423E+01  0.10203481922E+01 0.  0.
     999903    2    3    3    0    0  0.11729695476E+00  0.18287972336E-02 -0.52417992262E-01  0.13003685667E+00  0.20000452124E-01 0.  0.
         14    1    1    2    0    0 -0.10389043944E-02 -0.13769233629E-01 -0.18786682858E-01  0.23315457745E-01  0.00000000000E+00 0.  1.
     999901    1    3    3    0    0 -0.11625805037E+00  0.11940436396E-01  0.71204675120E-01  0.89057768558E+00  0.88000000000E+00 0. -1.
        -11    1    4    4    0    0  0.93443910254E-01  0.29208194152E-02 -0.50026328230E-01  0.10603391055E+00  0.51100000000E-03 0.  1.
         11    1    4    4    0    0  0.23853044507E-01 -0.10920221817E-02 -0.23916640322E-02  0.24002946122E-01  0.51100000000E-03 0. -1.
</event>
<event>
 8    1  0.1138737E+005  0.1043930E+01  0.7957747E-01            NaN
         13   -1    0    0    0    0  0.00000000000E+00  0.00000000000E+00  0.74505805969E-08  0.10566000000E+00  0.10566000000E+00 0.  1.
     999900   -1    0    0    0    0 -0.00000000000E+00 -0.00000000000E+00 -0.74505805969E-08  0.93827000000E+00  0.93827000000E+00 0.  1.
     999902    2    1    2    0    0  0.75517704973E-02  0.16384451891E-01  0.18476158403E-01  0.10181066011E+01  0.10177790543E+01 0.  0.
     999903    2    3    3    0    0 -0.35775438689E-01 -0.90345071498E-01  0.81486633521E-01  0.12836576344E+00  0.19889289188E-01 0.  0.
         14    1    1    2    0    0 -0.75517704973E-02 -0.16384451891E-01 -0.18476158403E-01  0.25823398900E-01  0.00000000000E+00 0.  1.
     999901    1    3    3    0    0  0.43327209187E-01  0.10672952339E+00 -0.63010475119E-01  0.88974083766E+00  0.88000000000E+00 0.  1.
        -11    1    4    4    0    0 -0.59068703864E-02 -0.25420400870E-01  0.32669611439E-01  0.41816892887E-01  0.51100000000E-03 0. -1.
         11    1    4    4    0    0 -0.29868568303E-01 -0.64924670628E-01  0.48817022082E-01  0.86548870556E-01  0.51100000000E-03 0.  1.
</event>
<event>
 8    1  0.1138737E+005  0.1043930E+01  0.7957747E-01            NaN
         13   -1    0    0    0    0  0.00000000000E+00  0.00000000000E+00  0.74505805969E-08  0.10566000000E+00  0.10566000000E+00 0.  1.
     999900   -1    0    0    0    0 -0.00000000000E+00 -0.00000000000E+00 -0.74505805969E-08  0.93827000000E+00  0.93827000000E+00 0.  1.
     999902    2    1    2    0    0  0.68772919376E-02 -0.76345588743E-02  0.21250452191E-01  0.10203256497E+01  0.10200525801E+01 0.  0.
     999903    2    3    3    0    0  0.77114899574E-01 -0.10443907402E+00  0.15807172429E-01  0.13221863761E+00  0.19433823918E-01 0.  0.
         14    1    1    2    0    0 -0.68772919376E-02  0.76345588743E-02 -0.21250452191E-01  0.23604350275E-01  0.00000000000E+00 0. -1.
     999901    1    3    3    0    0 -0.70237607636E-01  0.96804515145E-01  0.54432797624E-02  0.88810701212E+00  0.88000000000E+00 0. -1.
        -11    1    4    4    0    0  0.38001833947E-01 -0.60611968022E-01  0.16710120721E-01  0.73467266904E-01  0.51100000000E-03 0.  1.
         11    1    4    4    0    0  0.39113065627E-01 -0.43827105998E-01 -0.90294829232E-03  0.58751370703E-01  0.51100000000E-03 0. -1.
</event>
<event>
 8    1  0.1138737E+005  0.1043930E+01  0.7957747E-01            NaN
         13   -1    0    0    0    0  0.00000000000E+00  0.00000000000E+00  0.74505805969E-08  0.10566000000E+00  0.10566000000E+00 0.  1.
     999900   -1    0    0    0    0 -0.00000000000E+00 -0.00000000000E+00 -0.74505805969E-08  0.93827000000E+00  0.93827000000E+00 0.  1.
     999902    2    1    2    0    0  0.21979999633E-01 -0.78348517088E-02  0.50928744602E-02  0.10200460586E+01  0.10197664042E+01 0.  0.
     999903    2    3    3    0    0  0.11779537313E+00 -0.49352911957E-01 -0.31775736116E-01  0.13310545770E+00  0.19897377100E-01 0.  0.
         14    1    1    2    0    0 -0.21979999633E-01  0.78348517088E-02 -0.50928744602E-02  0.23883941371E-01  0.00000000000E+00 0.  1.
     999901    1    3    3    0    0 -0.95815373495E-01  0.41518060249E-01  0.36868610576E-01  0.88694060093E+00  0.88000000000E+00 0. -1.
        -11    1    4    4    0    0  0.56274287810E-01 -0.13556993039E-01 -0.10654777210E-01  0.58858923939E-01  0.51100000000E-03 0.  1.
         11    1    4    4    0    0  0.61521085318E-01 -0.35795918918E-01 -0.21120958905E-01  0.74246533764E-01  0.51100000000E-03 0. -1.
</event>
<event>
 8    1  0.1138737E+005  0.1043930E+01  0.7957747E-01            NaN
         13   -1    0    0    0    0  0.00000000000E+00  0.00000000000E+00  0.74505805969E-08  0.10566000000E+00  0.10566000000E+00 0.  1.
     999900   -1    0    0    0    0 -0.00000000000E+00 -0.00000000000E+00 -0.74505805969E-08  0.93827000000E+00  0.93827000000E+00 0.  1.
     999902    2    1    2    0    0  0.69536141474E-02  0.20630387915E-01 -0.61257147322E-02  0.10213138545E+01  0.10210634160E+01 0.  0.
     999903    2    3    3    0    0 -0.12608897074E+00 -0.19982722784E-01  0.15786266288E-01  0.13011809092E+00  0.19590141094E-01 0.  0.
         14    1    1    2    0    0 -0.69536141474E-02 -0.20630387915E-01  0.61257147322E-02  0.22616145476E-01  0.00000000000E+00 0.  1.
     999901    1    3    3    0    0  0.13304258489E+00  0.40613110699E-01 -0.21911981021E-01  0.89119576360E+00  0.88000000000E+00 0.  1.
        -11    1    4    4    0    0 -0.95868265026E-01 -0.10968037821E-01  0.19221682620E-01  0.98390834413E-01  0.51100000000E-03 0.  1.
         11    1    4    4    0    0 -0.30220705717E-01 -0.90146849626E-02 -0.34354163311E-02  0.31727256506E-01  0.51100000000E-03 0. -1.
</event>
<event>
 8    1  0.1138737E+005  0.1043930E+01  0.7957747E-01            NaN
         13   -1    0    0    0    0  0.00000000000E+00  0.00000000000E+00  0.74505805969E-08  0.10566000000E+00  0.10566000000E+00 0.  1.
     999900   -1    0    0    0    0 -0.00000000000E+00 -0.00000000000E+00 -0.74505805969E-08  0.93827000000E+00  0.93827000000E+00 0. -1.
     999902    2    1    2    0    0 -0.39090399758E-02  0.14105546198E-01  0.16694461406E-01  0.10217274761E+01  0.10214862130E+01 0.  0.
     999903    2    3    3    0    0  0.93779615028E-01  0.62583986759E-01  0.68591528489E-01  0.13347833417E+00  0.20007406616E-01 0.  0.
         14    1    1    2    0    0  0.39090399758E-02 -0.14105546198E-01 -0.16694461406E-01  0.22202523926E-01  0.00000000000E+00 0. -1.
     999901    1    3    3    0    0 -0.97688655004E-01 -0.48478440561E-01 -0.51897067083E-01  0.88824914190E+00  0.88000000000E+00 0. -1.
        -11    1    4    4    0    0  0.13833689744E-01  0.14814846183E-01  0.55688522796E-02  0.21026741927E-01  0.51100000000E-03 0.  1.
         11    1    4    4    0    0  0.79945925284E-01  0.47769140576E-01  0.63022676210E-01  0.11245159225E+00  0.51100000000E-03 0. -1.
</event>
<event>
 8    1  0.1138737E+005  0.1043930E+01  0.7957747E-01            NaN
         13   -1    0    0    0    0  0.00000000000E+00  0.00000000000E+00  0.74505805969E-08  0.10566000000E+00  0.10566000000E+00 0. -1.
     999900   -1    0    0    0    0 -0.00000000000E+00 -0.00000000000E+00 -0.74505805969E-08  0.93827000000E+00  0.93827000000E+00 0. -1.
     999902    2    1    2    0    0  0.19765929653E-01 -0.21117816892E-02  0.13176609488E-01  0.10200810035E+01  0.10198021764E+01 0.  0.
     999903    2    3    3    0    0  0.19831674018E-01 -0.53750645655E-01 -0.11452208378E+00  0.12936582294E+00  0.18378826644E-01 0.  0.
         14    1    1    2    0    0 -0.19765929653E-01  0.21117816892E-02 -0.13176609488E-01  0.23848996510E-01  0.00000000000E+00 0.  1.
     999901    1    3    3    0    0 -0.65744365213E-04  0.51638863966E-01  0.12769869327E+00  0.89071518055E+00  0.88000000000E+00 0.  1.
        -11    1    4    4    0    0  0.20429738826E-01 -0.30430188744E-01 -0.74761656701E-01  0.83264260335E-01  0.51100000000E-03 0.  1.
         11    1    4    4    0    0 -0.59806480789E-03 -0.23320456912E-01 -0.39760427082E-01  0.46101562608E-01  0.51100000000E-03 0. -1.
</event>
<event>
 8    1  0.1138737E+005  0.1043930E+01  0.7957747E-01            NaN
         13   -1    0    0    0    0  0.00000000000E+00  0.00000000000E+00  0.74505805969E-08  0.10566000000E+00  0.10566000000E+00 0.  1.
     999900   -1    0    0    0    0 -0.00000000000E+00 -0.00000000000E+00 -0.74505805969E-08  0.93827000000E+00  0.93827000000E+00 0.  1.
     999902    2    1    2    0    0 -0.30939816637E-03  0.22591759766E-01 -0.32658147169E-02  0.10211013145E+01  0.10208460930E+01 0.  0.
     999903    2    3    3    0    0 -0.66701010211E-01  0.10133102235E+00  0.51842731936E-01  0.13338251355E+00  0.19652613357E-01 0.  0.
         14    1    1    2    0    0  0.30939816637E-03 -0.22591759766E-01  0.32658147169E-02  0.22828685514E-01  0.00000000000E+00 0.  1.
     999901    1    3    3    0    0  0.66391612045E-01 -0.78739262587E-01 -0.55108546652E-01  0.88771880094E+00  0.88000000000E+00 0.  1.
        -11    1    4    4    0    0 -0.48412947419E-01  0.56580243480E-01  0.29052343541E-01  0.79933955340E-01  0.51100000000E-03 0. -1.
         11    1    4    4    0    0 -0.18288062792E-01  0.44750778873E-01  0.22790388394E-01  0.53448558209E-01  0.51100000000E-03 0.  1.
</event>
<event>
 8    1  0.1138737E+005  0.1043930E+01  0.7957747E-01            NaN
         13   -1    0    0    0    0  0.00000000000E+00  0.00000000000E+00  0.74505805969E-08  0.10566000000E+00  0.10566000000E+00 0.  1.
     999900   -1    0    0    0    0 -0.00000000000E+00 -0.00000000000E+00 -0.74505805969E-08  0.93827000000E+00  0.93827000000E+00 0.  1.
     999902    2    1    2    0    0 -0.18527086504E-01 -0.21619379633E-02  0.15353328544E-01  0.10197711174E+01  0.10194849093E+01 0.  0.
     999903    2    3    3    0    0  0.35082266472E-01  0.31732166092E-01  0.12071386449E+00  0.13121970329E+00  0.20225668486E-01 0.  0.
         14    1    1    2    0    0  0.18527086504E-01  0.21619379633E-02 -0.15353328544E-01  0.24158882579E-01  0.00000000000E+00 0. -1.
     999901    1    3    3    0    0 -0.53609352976E-01 -0.33894104055E-01 -0.10536053595E+00  0.88855141413E+00  0.88000000000E+00 0.  1.
        -11    1    4    4    0    0  0.22956239774E-01  0.12606327402E-01  0.84849431838E-01  0.88800876343E-01  0.51100000000E-03 0.  1.
         11    1    4    4    0    0  0.12126026698E-01  0.19125838690E-01  0.35864432654E-01  0.42418826948E-01  0.51100000000E-03 0. -1.
</event>
<event>
 8    1  0.1138737E+005  0.1043930E+01  0.7957747E-01            NaN
         13   -1    0    0    0    0  0.00000000000E+00  0.00000000000E+00  0.74505805969E-08  0.10566000000E+00  0.10566000000E+00 0. -1.
     999900   -1    0    0    0    0 -0.00000000000E+00 -0.00000000000E+00 -0.74505805969E-08  0.93827000000E+00  0.93827000000E+00 0.  1.
     999902    2    1    2    0    0  0.11595738848E-01 -0.63067856696E-02  0.19544082000E-01  0.10203459408E+01  0.10200733460E+01 0.  0.
     999903    2    3    3    0    0 -0.12283787847E+00 -0.35060593647E-01  0.86579289152E-02  0.12960597471E+00  0.20108688017E-01 0.  0.
         14    1    1    2    0    0 -0.11595738848E-01  0.63067856696E-02 -0.19544082000E-01  0.23584059153E-01  0.00000000000E+00 0.  1.
     999901    1    3    3    0    0  0.13443361732E+00  0.28753807977E-01  0.10886153085E-01  0.89073996613E+00  0.88000000000E+00 0. -1.
        -11    1    4    4    0    0 -0.99096017457E-01 -0.21114159622E-01  0.23298159176E-02  0.10134849567E+00  0.51100000000E-03 0.  1.
         11    1    4    4    0    0 -0.23741861016E-01 -0.13946434024E-01  0.63281129976E-02  0.28257479039E-01  0.51100000000E-03 0. -1.
</event>
<event>
 8    1  0.1138737E+005  0.1043930E+01  0.7957747E-01            NaN
         13   -1    0    0    0    0  0.00000000000E+00  0.00000000000E+00  0.74505805969E-08  0.10566000000E+00  0.10566000000E+00 0. -1.
     999900   -1    0    0    0    0 -0.00000000000E+00 -0.00000000000E+00 -0.74505805969E-08  0.93827000000E+00  0.93827000000E+00 0.  1.
     999902    2    1    2    0    0 -0.13937966063E-02 -0.15744324366E-01  0.17790193498E-01  0.10201325757E+01  0.10198549674E+01 0.  0.
     999903    2    3    3    0    0 -0.96114808784E-01  0.12949023425E-01 -0.83354802173E-01  0.12882696677E+00  0.15576605750E-01 0.  0.
         14    1    1    2    0    0  0.13937966063E-02  0.15744324366E-01 -0.17790193498E-01  0.23797424302E-01  0.00000000000E+00 0.  1.
     999901    1    3    3    0    0  0.94721012178E-01 -0.28693347791E-01  0.10114499567E+00  0.89130560893E+00  0.88000000000E+00 0. -1.
        -11    1    4    4    0    0 -0.64188873852E-01  0.32897131522E-02 -0.61417635411E-01  0.88901185591E-01  0.51100000000E-03 0. -1.
         11    1    4    4    0    0 -0.31925934933E-01  0.96593102731E-02 -0.21937166762E-01  0.39925781180E-01  0.51100000000E-03 0.  1.
</event>
<event>
 8    1  0.1138737E+005  0.1043930E+01  0.7957747E-01            NaN
         13   -1    0    0    0    0  0.00000000000E+00  0.00000000000E+00  0.74505805969E-08  0.10566000000E+00  0.10566000000E+00 0.  1.
     999900   -1    0    0    0    0 -0.00000000000E+00 -0.00000000000E+00 -0.74505805969E-08  0.93827000000E+00  0.93827000000E+00 0.  1.
     999902    2    1    2    0    0  0.19272258584E-01 -0.10569957131E-01 -0.10028340148E-01  0.10197698768E+01  0.10194836390E+01 0.  0.
     999903    2    3    3    0    0  0.70262652050E-01 -0.26140591434E-02  0.10778524364E+00  0.13041991364E+00  0.21166519491E-01 0.  0.
         14    1    1    2    0    0 -0.19272258584E-01  0.10569957131E-01  0.10028340148E-01  0.24160123153E-01  0.00000000000E+00 0.  1.
     999901    1    3    3    0    0 -0.50990393467E-01 -0.79558979879E-02 -0.11781358379E+00  0.88934996321E+00  0.88000000000E+00 0.  1.
        -11    1    4    4    0    0  0.48722984471E-01  0.78215365311E-03  0.89712100560E-01  0.10209340374E+00  0.51100000000E-03 0.  1.
         11    1    4    4    0    0  0.21539667579E-01 -0.33962127965E-02  0.18073143082E-01  0.28326509892E-01  0.51100000000E-03 0. -1.
</event>
<event>
 8    1  0.1138737E+005  0.1043930E+01  0.7957747E-01            NaN
         13   -1    0    0    0    0  0.00000000000E+00  0.00000000000E+00  0.74505805969E-08  0.10566000000E+00  0.10566000000E+00 0. -1.
     999900   -1    0    0    0    0 -0.00000000000E+00 -0.00000000000E+00 -0.74505805969E-08  0.93827000000E+00  0.93827000000E+00 0. -1.
     999902    2    1    2    0    0 -0.74924235827E-02  0.42334891932E-02 -0.21813525922E-01  0.10204802931E+01  0.10202108310E+01 0.  0.
     999903    2    3    3    0    0  0.39507284171E-01 -0.79079605944E-01  0.90614077085E-01  0.12818549298E+00  0.20154405621E-01 0.  0.
         14    1    1    2    0    0  0.74924235827E-02 -0.42334891932E-02  0.21813525922E-01  0.23449706929E-01  0.00000000000E+00 0. -1.
     999901    1    3    3    0    0 -0.46999707753E-01  0.83313095138E-01 -0.11242760301E+00  0.89229480009E+00  0.88000000000E+00 0. -1.
        -11    1    4    4    0    0 -0.84230060275E-03 -0.92048606799E-02  0.49294688131E-02  0.10488074858E-01  0.51100000000E-03 0.  1.
         11    1    4    4    0    0  0.40349584773E-01 -0.69874745264E-01  0.85684608272E-01  0.11769741812E+00  0.51100000000E-03 0. -1.
</event>
<event>
 8    1  0.1138737E+005  0.1043930E+01  0.7957747E-01            NaN
         13   -1    0    0    0    0  0.00000000000E+00  0.00000000000E+00  0.74505805969E-08  0.10566000000E+00  0.10566000000E+00 0. -1.
     999900   -1    0    0    0    0 -0.00000000000E+00 -0.00000000000E+00 -0.74505805969E-08  0.93827000000E+00  0.93827000000E+00 0.  1.
     999902    2    1    2    0    0 -0.17558207325E-01 -0.14976653256E-01 -0.21633628036E-02  0.10207508946E+01  0.10204876863E+01 0.  0.
     999903    2    3    3    0    0 -0.39422701070E-01  0.12204931447E+00 -0.50632002205E-02  0.12987347266E+00  0.19781263376E-01 0.  0.
         14    1    1    2    0    0  0.17558207325E-01  0.14976653256E-01  0.21633628036E-02  0.23179105372E-01  0.00000000000E+00 0. -1.
     999901    1    3    3    0    0  0.21864493745E-01 -0.13702596773E+00  0.28998374170E-02  0.89087742197E+00  0.88000000000E+00 0.  1.
        -11    1    4    4    0    0 -0.35222565008E-01  0.11875980683E+00 -0.72478605721E-02  0.12408591140E+00  0.51100000000E-03 0.  1.
         11    1    4    4    0    0 -0.42001360621E-02  0.32895076450E-02  0.21846603515E-02  0.57875612600E-02  0.51100000000E-03 0. -1.
</event>
<event>
 8    1  0.1138737E+005  0.1043930E+01  0.7957747E-01            NaN
         13   -1    0    0    0    0  0.00000000000E+00  0.00000000000E+00  0.74505805969E-08  0.10566000000E+00  0.10566000000E+00 0. -1.
     999900   -1    0    0    0    0 -0.00000000000E+00 -0.00000000000E+00 -0.74505805969E-08  0.93827000000E+00  0.93827000000E+00 0.  1.
     999902    2    1    2    0    0  0.10993488157E-01 -0.14895447676E-01  0.14609631100E-01  0.10203466910E+01  0.10200741136E+01 0.  0.
     999903    2    3    3    0    0 -0.67927796156E-01 -0.84263754557E-01 -0.69390273233E-01  0.13012395759E+00  0.20066601539E-01 0.  0.
         14    1    1    2    0    0 -0.10993488157E-01  0.14895447676E-01 -0.14609631100E-01  0.23583309018E-01  0.00000000000E+00 0. -1.
     999901    1    3    3    0    0  0.78921284313E-01  0.69368306881E-01  0.83999904333E-01  0.89022273339E+00  0.88000000000E+00 0. -1.
        -11    1    4    4    0    0 -0.39885388507E-01 -0.55772491537E-01 -0.54018621726E-01  0.87290822214E-01  0.51100000000E-03 0. -1.
         11    1    4    4    0    0 -0.28042407649E-01 -0.28491263020E-01 -0.15371651506E-01  0.42833135378E-01  0.51100000000E-03 0.  1.
</event>
<event>
 8    1  0.1138737E+005  0.1043930E+01  0.7957747E-01            NaN
         13   -1    0    0    0    0  0.00000000000E+00  0.00000000000E+00  0.74505805969E-08  0.10566000000E+00  0.10566000000E+00 0. -1.
     999900   -1    0    0    0    0 -0.00000000000E+00 -0.00000000000E+00 -0.74505805969E-08  0.93827000000E+00  0.93827000000E+00 0. -1.
     999902    2    1    2    0    0 -0.48781960142E-02  0.29919156714E-02 -0.23226462442E-01  0.10200089441E+01  0.10197284095E+01 0.  0.
     999903    2    3    3    0    0 -0.70537358266E-01 -0.10353667196E+00 -0.32955638398E-01  0.13110280600E+00  0.20162100232E-01 0.  0.
         14    1    1    2    0    0  0.48781960142E-02 -0.29919156714E-02  0.23226462442E-01  0.23921055857E-01  0.00000000000E+00 0. -1.
     999901    1    3    3    0    0  0.65659162252E-01  0.10652858763E+00  0.97291759565E-02  0.88890613815E+00  0.88000000000E+00 0.  1.
        -11    1    4    4    0    0 -0.16661458525E-02 -0.12038730659E-01 -0.99804228672E-03  0.12205092678E-01  0.51100000000E-03 0. -1.
         11    1    4    4    0    0 -0.68871212414E-01 -0.91497941303E-01 -0.31957596112E-01  0.11889771332E+00  0.51100000000E-03 0.  1.
</event>
<event>
 8    1  0.1138737E+005  0.1043930E+01  0.7957747E-01            NaN
         13   -1    0    0    0    0  0.00000000000E+00  0.00000000000E+00  0.74505805969E-08  0.10566000000E+00  0.10566000000E+00 0. -1.
     999900   -1    0    0    0    0 -0.00000000000E+00 -0.00000000000E+00 -0.74505805969E-08  0.93827000000E+00  0.93827000000E+00 0. -1.
     999902    2    1    2    0    0 -0.89912956601E-02 -0.20567482015E-01 -0.66943924782E-02  0.10205060890E+01  0.10202372264E+01 0.  0.
     999903    2    3    3    0    0  0.73178709984E-01  0.98013924487E-01 -0.34012891812E-01  0.12834031958E+00  0.18775191910E-01 0.  0.
         14    1    1    2    0    0  0.89912956601E-02  0.20567482015E-01  0.66943924782E-02  0.23423910961E-01  0.00000000000E+00 0.  1.
     999901    1    3    3    0    0 -0.82170005644E-01 -0.11858140650E+00  0.27318499333E-01  0.89216576946E+00  0.88000000000E+00 0. -1.
        -11    1    4    4    0    0  0.11949927904E-01  0.66380191882E-02 -0.23540613494E-02  0.13880446733E-01  0.51100000000E-03 0.  1.
         11    1    4    4    0    0  0.61228782080E-01  0.91375905298E-01 -0.31658830462E-01  0.11445987284E+00  0.51100000000E-03 0. -1.
</event>
<event>
 8    1  0.1138737E+005  0.1043930E+01  0.7957747E-01            NaN
         13   -1    0    0    0    0  0.00000000000E+00  0.00000000000E+00  0.74505805969E-08  0.10566000000E+00  0.10566000000E+00 0. -1.
     999900   -1    0    0    0    0 -0.00000000000E+00 -0.00000000000E+00 -0.74505805969E-08  0.93827000000E+00  0.93827000000E+00 0. -1.
     999902    2    1    2    0    0  0.21165649786E-01  0.48049467337E-02 -0.15161158788E-01  0.10174548611E+01  0.10171103487E+01 0.  0.
     999903    2    3    3    0    0  0.87315879815E-01 -0.82870907055E-01 -0.45174097480E-01  0.13011970190E+00  0.19969667859E-01 0.  0.
         14    1    1    2    0    0 -0.21165649786E-01 -0.48049467337E-02  0.15161158788E-01  0.26475138900E-01  0.00000000000E+00 0. -1.
     999901    1    3    3    0    0 -0.66150230029E-01  0.87675853789E-01  0.30012938692E-01  0.88733515920E+00  0.88000000000E+00 0.  1.
        -11    1    4    4    0    0  0.29037052605E-01 -0.16436736111E-01 -0.16366891638E-01  0.37167902562E-01  0.51100000000E-03 0.  1.
         11    1    4    4    0    0  0.58278827210E-01 -0.66434170944E-01 -0.28807205842E-01  0.92951799334E-01  0.51100000000E-03 0. -1.
</event>
<event>
 8    1  0.1138737E+005  0.1043930E+01  0.7957747E-01            NaN
         13   -1    0    0    0    0  0.00000000000E+00  0.00000000000E+00  0.74505805969E-08  0.10566000000E+00  0.10566000000E+00 0. -1.
     999900   -1    0    0    0    0 -0.00000000000E+00 -0.00000000000E+00 -0.74505805969E-08  0.93827000000E+00  0.93827000000E+00 0.  1.
     999902    2    1    2    0    0 -0.28572821537E-02 -0.66895909679E-02 -0.20271029293E-01  0.10223933030E+01  0.10221664428E+01 0.  0.
     999903    2    3    3    0    0  0.49837092636E-01 -0.88599205459E-01 -0.85922626732E-01  0.13458926251E+00  0.19950358099E-01 0.  0.
         14    1    1    2    0    0  0.28572821537E-02  0.66895909679E-02  0.20271029293E-01  0.21536696990E-01  0.00000000000E+00 0. -1.
     999901    1    3    3    0    0 -0.52694374790E-01  0.81909614491E-01  0.65651597439E-01  0.88780404050E+00  0.88000000000E+00 0. -1.
        -11    1    4    4    0    0  0.32508329663E-01 -0.48392302931E-01 -0.37564274353E-01  0.69353747621E-01  0.51100000000E-03 0. -1.
         11    1    4    4    0    0  0.17328762973E-01 -0.40206902528E-01 -0.48358352380E-01  0.65235514890E-01  0.51100000000E-03 0.  1.
</event>
<event>
 8    1  0.1138737E+005  0.1043930E+01  0.7957747E-01            NaN
         13   -1    0    0    0    0  0.00000000000E+00  0.00000000000E+00  0.74505805969E-08  0.10566000000E+00  0.10566000000E+00 0.  1.
     999900   -1    0    0    0    0 -0.00000000000E+00 -0.00000000000E+00 -0.74505805969E-08  0.93827000000E+00  0.93827000000E+00 0.  1.
     999902    2    1    2    0    0  0.10426708261E-01 -0.35350394375E-02 -0.20655580195E-01  0.10205234680E+01  0.10202550088E+01 0.  0.
     999903    2    3    3    0    0  0.54538973028E-01 -0.11700301495E+00 -0.20559284519E-01  0.13214242210E+00  0.19357955759E-01 0.  0.
         14    1    1    2    0    0 -0.10426708261E-01  0.35350394375E-02  0.20655580195E-01  0.23406532041E-01  0.00000000000E+00 0.  1.
     999901    1    3    3    0    0 -0.44112264767E-01  0.11346797552E+00 -0.96295675279E-04  0.88838104586E+00  0.88000000000E+00 0. -1.
        -11    1    4    4    0    0  0.34488411897E-01 -0.53478601160E-01 -0.14374680980E-01  0.65240354931E-01  0.51100000000E-03 0. -1.
         11    1    4    4    0    0  0.20050561131E-01 -0.63524413794E-01 -0.61846035393E-02  0.66902067169E-01  0.51100000000E-03 0.  1.
</event>
<event>
 8    1  0.1138737E+005  0.1043930E+01  0.7957747E-01            NaN
         13   -1    0    0    0    0  0.00000000000E+00  0.00000000000E+00  0.74505805969E-08  0.10566000000E+00  0.10566000000E+00 0.  1.
     999900   -1    0    0    0    0 -0.00000000000E+00 -0.00000000000E+00 -0.74505805969E-08  0.93827000000E+00  0.93827000000E+00 0.  1.
     999902    2    1    2    0    0  0.34175866118E-02 -0.33437300829E-02  0.23503128501E-01  0.10199454742E+01  0.10196634312E+01 0.  0.
     999903    2    3    3    0    0  0.94038840805E-01 -0.50571152168E-01  0.75741516481E-01  0.13249322742E+00  0.20418936866E-01 0.  0.
         14    1    1    2    0    0 -0.34175866118E-02  0.33437300829E-02 -0.23503128501E-01  0.23984525812E-01  0.00000000000E+00 0. -1.
     999901    1    3    3    0    0 -0.90621254193E-01  0.47227422085E-01 -0.52238387980E-01  0.88745224676E+00  0.88000000000E+00 0. -1.
        -11    1    4    4    0    0  0.63371505708E-01 -0.26226068380E-01  0.56506552330E-01  0.88865099874E-01  0.51100000000E-03 0. -1.
         11    1    4    4    0    0  0.30667335097E-01 -0.24345083789E-01  0.19234964151E-01  0.43628127549E-01  0.51100000000E-03 0.  1.
</event>
<event>
 8    1  0.1138737E+005  0.1043930E+01  0.7957747E-01            NaN
         13   -1    0    0    0    0  0.00000000000E+00  0.00000000000E+00  0.74505805969E-08  0.10566000000E+00  0.10566000000E+00 0.  1.
     999900   -1    0    0    0    0 -0.00000000000E+00 -0.00000000000E+00 -0.74505805969E-08  0.93827000000E+00  0.93827000000E+00 0.  1.
     999902    2    1    2    0    0 -0.22994390007E-01 -0.34713862440E-02  0.71286878002E-02  0.10196069516E+01  0.10193167933E+01 0.  0.
     999903    2    3    3    0    0 -0.50320831314E-01  0.11761213879E+00  0.15993919665E-01  0.13085133458E+00  0.22393415094E-01 0.  0.
         14    1    1    2    0    0  0.22994390007E-01  0.34713862440E-02 -0.71286878002E-02  0.24323048411E-01  0.00000000000E+00 0.  1.
     999901    1    3    3    0    0  0.27326441307E-01 -0.12108352504E+00 -0.88652318643E-02  0.88875561701E+00  0.88000000000E+00 0.  1.
        -11    1    4    4    0    0 -0.14798775841E-01  0.62188354892E-01  0.51747650268E-02  0.64136062903E-01  0.51100000000E-03 0. -1.
         11    1    4    4    0    0 -0.35522055473E-01  0.55423783900E-01  0.10819154638E-01  0.66715271677E-01  0.51100000000E-03 0.  1.
</event>
<event>
 8    1  0.1138737E+005  0.1043930E+01  0.7957747E-01            NaN
         13   -1    0    0    0    0  0.00000000000E+00  0.00000000000E+00  0.74505805969E-08  0.10566000000E+00  0.10566000000E+00 0.  1.
     999900   -1    0    0    0    0 -0.00000000000E+00 -0.00000000000E+00 -0.74505805969E-08  0.93827000000E+00  0.93827000000E+00 0. -1.
     999902    2    1    2    0    0  0.31700913954E-02 -0.18581682135E-03  0.25500154564E-01  0.10182328817E+01  0.10179085713E+01 0.  0.
     999903    2    3    3    0    0  0.28269427031E-01  0.11478899910E-01 -0.12078507332E+00  0.12572774995E+00  0.16956046772E-01 0.  0.
         14    1    1    2    0    0 -0.31700913954E-02  0.18581682135E-03 -0.25500154564E-01  0.25697118324E-01  0.00000000000E+00 0. -1.
     999901    1    3    3    0    0 -0.25099335636E-01 -0.11664716731E-01  0.14628522788E+00  0.89250513173E+00  0.88000000000E+00 0.  1.
        -11    1    4    4    0    0  0.27328027903E-01  0.44171362514E-02 -0.92506571773E-01  0.96561167888E-01  0.51100000000E-03 0.  1.
         11    1    4    4    0    0  0.94139912856E-03  0.70617636586E-02 -0.28278501547E-01  0.29166582060E-01  0.51100000000E-03 0. -1.
</event>
<event>
 8    1  0.1138737E+005  0.1043930E+01  0.7957747E-01            NaN
         13   -1    0    0    0    0  0.00000000000E+00  0.00000000000E+00  0.74505805969E-08  0.10566000000E+00  0.10566000000E+00 0.  1.
     999900   -1    0    0    0    0 -0.00000000000E+00 -0.00000000000E+00 -0.74505805969E-08  0.93827000000E+00  0.93827000000E+00 0.  1.
     999902    2    1    2    0    0 -0.17411199257E-01 -0.17652125284E-01 -0.40799112811E-02  0.10188024641E+01  0.10184925467E+01 0.  0.
     999903    2    3    3    0    0  0.93165944749E-02 -0.15252120119E-01 -0.12691790489E+00  0.12986528537E+00  0.20914388855E-01 0.  0.
         14    1    1    2    0    0  0.17411199257E-01  0.17652125284E-01  0.40799112811E-02  0.25127535945E-01  0.00000000000E+00 0. -1.
     999901    1    3    3    0    0 -0.26727793732E-01 -0.24000051648E-02  0.12283799361E+00  0.88893717869E+00  0.88000000000E+00 0. -1.
        -11    1    4    4    0    0  0.57825106021E-03 -0.85313966443E-02 -0.14024079503E-01  0.16433351146E-01  0.51100000000E-03 0.  1.
         11    1    4    4    0    0  0.87383434147E-02 -0.67207234745E-02 -0.11289382539E+00  0.11343193422E+00  0.51100000000E-03 0. -1.
</event>
<event>
 8    1  0.1138737E+005  0.1043930E+01  0.7957747E-01            NaN
         13   -1    0    0    0    0  0.00000000000E+00  0.00000000000E+00  0.74505805969E-08  0.10566000000E+00  0.10566000000E+00 0. -1.
     999900   -1    0    0    0    0 -0.00000000000E+00 -0.00000000000E+00 -0.74505805969E-08  0.93827000000E+00  0.93827000000E+00 0.  1.
     999902    2    1    2    0    0 -0.45409817945E-03  0.50146303802E-02 -0.23140175670E-01  0.10202483520E+01  0.10199734699E+01 0.  0.
     999903    2    3    3    0    0  0.11859390883E+00  0.25257329828E-01  0.41286385834E-01  0.12966821708E+00  0.20170100217E-01 0.  0.
         14    1    1    2    0    0  0.45409817945E-03 -0.50146303802E-02  0.23140175670E-01  0.23681648022E-01  0.00000000000E+00 0. -1.
     999901    1    3    3    0    0 -0.11904800701E+00 -0.20242699447E-01 -0.64426561504E-01  0.89058013490E+00  0.88000000000E+00 0.  1.
        -11    1    4    4    0    0  0.97891839627E-02  0.76138084225E-02  0.16020409716E-02  0.12515025275E-01  0.51100000000E-03 0.  1.
         11    1    4    4    0    0  0.10880472487E+00  0.17643521405E-01  0.39684344862E-01  0.11715319180E+00  0.51100000000E-03 0. -1.
</event>
<event>
 8    1  0.1138737E+005  0.1043930E+01  0.7957747E-01            NaN
         13   -1    0    0    0    0  0.00000000000E+00  0.00000000000E+00  0.74505805969E-08  0.10566000000E+00  0.10566000000E+00 0.  1.
     999900   -1    0    0    0    0 -0.00000000000E+00 -0.00000000000E+00 -0.74505805969E-08  0.93827000000E+00  0.93827000000E+00 0.  1.
     999902    2    1    2    0    0  0.17003184374E-01  0.35151525436E-03  0.16153550840E-01  0.10204743174E+01  0.10202047164E+01 0.  0.
     999903    2    3    3    0    0 -0.78601513994E-01 -0.78846319222E-01  0.64378594456E-01  0.13045285127E+00  0.21872423783E-01 0.  0.
         14    1    1    2    0    0 -0.17003184374E-01 -0.35151525436E-03 -0.16153550840E-01  0.23455682607E-01  0.00000000000E+00 0. -1.
     999901    1    3    3    0    0  0.95604698368E-01  0.79197834477E-01 -0.48225043616E-01  0.89002146613E+00  0.88000000000E+00 0.  1.
        -11    1    4    4    0    0 -0.31705709531E-01 -0.38795554227E-01  0.17825337271E-01  0.53182241532E-01  0.51100000000E-03 0. -1.
         11    1    4    4    0    0 -0.46895804463E-01 -0.40050764996E-01  0.46553257185E-01  0.77270609733E-01  0.51100000000E-03 0.  1.
</event>
<event>
 8    1  0.1138737E+005  0.1043930E+01  0.7957747E-01            NaN
         13   -1    0    0    0    0  0.00000000000E+00  0.00000000000E+00  0.74505805969E-08  0.10566000000E+00  0.10566000000E+00 0. -1.
     999900   -1    0    0    0    0 -0.00000000000E+00 -0.00000000000E+00 -0.74505805969E-08  0.93827000000E+00  0.93827000000E+00 0. -1.
     999902    2    1    2    0    0  0.54313944204E-02 -0.90379632843E-02 -0.12164137553E-01  0.10278318303E+01  0.10277057557E+01 0.  0.
     999903    2    3    3    0    0 -0.98645089800E-01 -0.50560822408E-01  0.76612168361E-01  0.13629535045E+00  0.20487745315E-01 0.  0.
         14    1    1    2    0    0 -0.54313944204E-02  0.90379632843E-02  0.12164137553E-01  0.16098169712E-01  0.00000000000E+00 0.  1.
     999901    1    3    3    0    0  0.10407648422E+00  0.41522859124E-01 -0.88776305913E-01  0.89153647984E+00  0.88000000000E+00 0. -1.
        -11    1    4    4    0    0 -0.19858535095E-01 -0.50014677379E-02  0.22426300590E-01  0.30373939073E-01  0.51100000000E-03 0. -1.
         11    1    4    4    0    0 -0.78786554705E-01 -0.45559354670E-01  0.54185867771E-01  0.10592141137E+00  0.51100000000E-03 0.  1.
</event>
<event>
 8    1  0.1138737E+005  0.1043930E+01  0.7957747E-01            NaN
         13   -1    0    0    0    0  0.00000000000E+00  0.00000000000E+00  0.74505805969E-08  0.10566000000E+00  0.10566000000E+00 0. -1.
     999900   -1    0    0    0    0 -0.00000000000E+00 -0.00000000000E+00 -0.74505805969E-08  0.93827000000E+00  0.93827000000E+00 0. -1.
     999902    2    1    2    0    0  0.16415898898E-01  0.17849641860E-01  0.92954248060E-03  0.10196615946E+01  0.10193727542E+01 0.  0.
     999903    2    3    3    0    0  0.58590126463E-01 -0.83415763841E-01 -0.77195017812E-01  0.12941623810E+00  0.19962448052E-01 0.  0.
         14    1    1    2    0    0 -0.16415898898E-01 -0.17849641860E-01 -0.92954248060E-03  0.24268405394E-01  0.00000000000E+00 0.  1.
     999901    1    3    3    0    0 -0.42174227565E-01  0.10126540570E+00  0.78124560293E-01  0.89024535651E+00  0.88000000000E+00 0. -1.
        -11    1    4    4    0    0  0.31867172759E-01 -0.28621218123E-01 -0.29519799075E-01  0.52022788131E-01  0.51100000000E-03 0.  1.
         11    1    4    4    0    0  0.26722953704E-01 -0.54794545718E-01 -0.47675218737E-01  0.77393449967E-01  0.51100000000E-03 0. -1.
</event>
<event>
 8    1  0.1138737E+005  0.1043930E+01  0.7957747E-01            NaN
         13   -1    0    0    0    0  0.00000000000E+00  0.00000000000E+00  0.74505805969E-08  0.10566000000E+00  0.10566000000E+00 0. -1.
     999900   -1    0    0    0    0 -0.00000000000E+00 -0.00000000000E+00 -0.74505805969E-08  0.93827000000E+00  0.93827000000E+00 0.  1.
     999902    2    1    2    0    0  0.29176351985E-02  0.22860357793E-01  0.61145171115E-02  0.10200868485E+01  0.10198081597E+01 0.  0.
     999903    2    3    3    0    0  0.96911667412E-01 -0.76229333116E-01  0.31521713187E-01  0.12918889108E+00  0.22211903751E-01 0.  0.
         14    1    1    2    0    0 -0.29176351985E-02 -0.22860357793E-01 -0.61145171115E-02  0.23843151493E-01  0.00000000000E+00 0. -1.
     999901    1    3    3    0    0 -0.93994032214E-01  0.99089690910E-01 -0.25407196076E-01  0.89089795743E+00  0.88000000000E+00 0.  1.
        -11    1    4    4    0    0  0.73615133413E-01 -0.44892391947E-01  0.22369972675E-01  0.89079691965E-01  0.51100000000E-03 0. -1.
         11    1    4    4    0    0  0.23296534000E-01 -0.31336941169E-01  0.91517405123E-02  0.40109199115E-01  0.51100000000E-03 0.  1.
</event>
<event>
 8    1  0.1138737E+005  0.1043930E+01  0.7957747E-01            NaN
         13   -1    0    0    0    0  0.00000000000E+00  0.00000000000E+00  0.74505805969E-08  0.10566000000E+00  0.10566000000E+00 0.  1.
     999900   -1    0    0    0    0 -0.00000000000E+00 -0.00000000000E+00 -0.74505805969E-08  0.93827000000E+00  0.93827000000E+00 0. -1.
     999902    2    1    2    0    0  0.18246755955E-01  0.14098341933E-01 -0.72134809148E-02  0.10197692538E+01  0.10194830010E+01 0.  0.
     999903    2    3    3    0    0  0.18827359908E-01 -0.61465905598E-01  0.10887360205E+00  0.12893453099E+00  0.25261136670E-01 0.  0.
         14    1    1    2    0    0 -0.18246755955E-01 -0.14098341933E-01  0.72134809148E-02  0.24160746161E-01  0.00000000000E+00 0.  1.
     999901    1    3    3    0    0 -0.58060395295E-03  0.75564247531E-01 -0.11608708296E+00  0.89083472285E+00  0.88000000000E+00 0. -1.
        -11    1    4    4    0    0  0.53062378316E-02 -0.22118931563E-01  0.63096413225E-01  0.67073256788E-01  0.51100000000E-03 0.  1.
         11    1    4    4    0    0  0.13521122076E-01 -0.39346974035E-01  0.45777188825E-01  0.61861274200E-01  0.51100000000E-03 0. -1.
</event>
<event>
 8    1  0.1138737E+005  0.1043930E+01  0.7957747E-01            NaN
         13   -1    0    0    0    0  0.00000000000E+00  0.00000000000E+00  0.74505805969E-08  0.10566000000E+00  0.10566000000E+00 0.  1.
     999900   -1    0    0    0    0 -0.00000000000E+00 -0.00000000000E+00 -0.74505805969E-08  0.93827000000E+00  0.93827000000E+00 0.  1.
     999902    2    1    2    0    0  0.23623411961E-01  0.69954075340E-03 -0.36808333850E-02  0.10200113152E+01  0.10197308368E+01 0.  0.
     999903    2    3    3    0    0  0.42037060407E-01  0.12107238417E+00  0.20348208040E-01  0.13130096937E+00  0.20006457273E-01 0.  0.
         14    1    1    2    0    0 -0.23623411961E-01 -0.69954075340E-03  0.36808333850E-02  0.23918684837E-01  0.00000000000E+00 0.  1.
     999901    1    3    3    0    0 -0.18413648446E-01 -0.12037284341E+00 -0.24029041425E-01  0.88871034579E+00  0.88000000000E+00 0.  1.
        -11    1    4    4    0    0  0.10212005671E-01  0.16132417270E-01  0.88135383624E-02  0.21035197319E-01  0.51100000000E-03 0. -1.
         11    1    4    4    0    0  0.31825054736E-01  0.10493996690E+00  0.11534669678E-01  0.11026577205E+00  0.51100000000E-03 0.  1.
</event>
<event>
 8    1  0.1138737E+005  0.1043930E+01  0.7957747E-01            NaN
         13   -1    0    0    0    0  0.00000000000E+00  0.00000000000E+00  0.74505805969E-08  0.10566000000E+00  0.10566000000E+00 0. -1.
     999900   -1    0    0    0    0 -0.00000000000E+00 -0.00000000000E+00 -0.74505805969E-08  0.93827000000E+00  0.93827000000E+00 0.  1.
     999902    2    1    2    0    0 -0.22692061035E-01  0.26573705105E-02 -0.38883728375E-02  0.10207543512E+01  0.10204912223E+01 0.  0.
     999903    2    3    3    0    0  0.15986803846E-01  0.73101169427E-01  0.10480424198E+00  0.13043279814E+00  0.20722616280E-01 0.  0.
         14    1    1    2    0    0  0.22692061035E-01 -0.26573705105E-02  0.38883728375E-02  0.23175648758E-01  0.00000000000E+00 0. -1.
     999901    1    3    3    0    0 -0.38678864880E-01 -0.70443798917E-01 -0.10869261482E+00  0.89032155310E+00  0.88000000000E+00 0.  1.
        -11    1    4    4    0    0 -0.26870278631E-02  0.19007615839E-01  0.37153911795E-01  0.41823245466E-01  0.51100000000E-03 0. -1.
         11    1    4    4    0    0  0.18673831709E-01  0.54093553588E-01  0.67650330187E-01  0.88609552678E-01  0.51100000000E-03 0.  1.
</event>
<event>
 8    1  0.1138737E+005  0.1043930E+01  0.7957747E-01            NaN
         13   -1    0    0    0    0  0.00000000000E+00  0.00000000000E+00  0.74505805969E-08  0.10566000000E+00  0.10566000000E+00 0.  1.
     999900   -1    0    0    0    0 -0.00000000000E+00 -0.00000000000E+00 -0.74505805969E-08  0.93827000000E+00  0.93827000000E+00 0. -1.
     999902    2    1    2    0    0  0.21037534001E-01 -0.89741970499E-02  0.75652874340E-02  0.10198395948E+01  0.10195550262E+01 0.  0.
     999903    2    3    3    0    0  0.10045837037E+00  0.80337243474E-01  0.17439853450E-01  0.13170575931E+00  0.22277829377E-01 0.  0.
         14    1    1    2    0    0 -0.21037534001E-01  0.89741970499E-02 -0.75652874340E-02  0.24090405217E-01  0.00000000000E+00 0. -1.
     999901    1    3    3    0    0 -0.79420836364E-01 -0.89311440524E-01 -0.98745660159E-02  0.88813383547E+00  0.88000000000E+00 0.  1.
        -11    1    4    4    0    0  0.69255879241E-01  0.45700484400E-01  0.35239410797E-02  0.83051733068E-01  0.51100000000E-03 0.  1.
         11    1    4    4    0    0  0.31202491124E-01  0.34636759074E-01  0.13915912370E-01  0.48654026243E-01  0.51100000000E-03 0. -1.
</event>
<event>
 8    1  0.1138737E+005  0.1043930E+01  0.7957747E-01            NaN
         13   -1    0    0    0    0  0.00000000000E+00  0.00000000000E+00  0.74505805969E-08  0.10566000000E+00  0.10566000000E+00 0.  1.
     999900   -1    0    0    0    0 -0.00000000000E+00 -0.00000000000E+00 -0.74505805969E-08  0.93827000000E+00  0.93827000000E+00 0.  1.
     999902    2    1    2    0    0 -0.22067858346E-01  0.10040342951E-01  0.55226130035E-03  0.10196791474E+01  0.10193907297E+01 0.  0.
     999903    2    3    3    0    0  0.23755598724E-01  0.92800211924E-02 -0.12538853304E+00  0.12953227696E+00  0.20146446124E-01 0.  0.
         14    1    1    2    0    0  0.22067858346E-01 -0.10040342951E-01 -0.55226130035E-03  0.24250852585E-01  0.00000000000E+00 0. -1.
     999901    1    3    3    0    0 -0.45823457070E-01  0.76032175824E-03  0.12594079434E+00  0.89014687046E+00  0.88000000000E+00 0. -1.
        -11    1    4    4    0    0  0.26758009183E-01  0.81770067017E-02 -0.96892201937E-01  0.10085243880E+00  0.51100000000E-03 0.  1.
         11    1    4    4    0    0 -0.30024104582E-02  0.11030144907E-02 -0.28496331104E-01  0.28679838161E-01  0.51100000000E-03 0. -1.
</event>
<event>
 8    1  0.1138737E+005  0.1043930E+01  0.7957747E-01            NaN
         13   -1    0    0    0    0  0.00000000000E+00  0.00000000000E+00  0.74505805969E-08  0.10566000000E+00  0.10566000000E+00 0. -1.
     999900   -1    0    0    0    0 -0.00000000000E+00 -0.00000000000E+00 -0.74505805969E-08  0.93827000000E+00  0.93827000000E+00 0. -1.
     999902    2    1    2    0    0 -0.18788383593E-01  0.84177677653E-02  0.12217213975E-01  0.10199900232E+01  0.10197090393E+01 0.  0.
     999903    2    3    3    0    0  0.59888200830E-01  0.10727063812E+00 -0.36491800331E-01  0.12963365466E+00  0.19484520221E-01 0.  0.
         14    1    1    2    0    0  0.18788383593E-01 -0.84177677653E-02 -0.12217213975E-01  0.23939976807E-01  0.00000000000E+00 0.  1.
     999901    1    3    3    0    0 -0.78676584423E-01 -0.98852870352E-01  0.48709014306E-01  0.89035636853E+00  0.88000000000E+00 0.  1.
        -11    1    4    4    0    0  0.26117602890E-01  0.38228322602E-01 -0.49949536449E-02  0.46569781110E-01  0.51100000000E-03 0. -1.
         11    1    4    4    0    0  0.33770597940E-01  0.69042315515E-01 -0.31496846686E-01  0.83063873550E-01  0.51100000000E-03 0.  1.
</event>
<event>
 8    1  0.1138737E+005  0.1043930E+01  0.7957747E-01            NaN
         13   -1    0    0    0    0  0.00000000000E+00  0.00000000000E+00  0.74505805969E-08  0.10566000000E+00  0.10566000000E+00 0. -1.
     999900   -1    0    0    0    0 -0.00000000000E+00 -0.00000000000E+00 -0.74505805969E-08  0.93827000000E+00  0.93827000000E+00 0. -1.
     999902    2    1    2    0    0 -0.35803946032E-02  0.22789680973E-01  0.56806943981E-02  0.10201716526E+01  0.10198949660E+01 0.  0.
     999903    2    3    3    0    0  0.94029515493E-01 -0.65501544201E-01  0.55276148607E-01  0.12900233976E+00  0.21310771513E-01 0.  0.
         14    1    1    2    0    0  0.35803946032E-02 -0.22789680973E-01 -0.56806943981E-02  0.23758347442E-01  0.00000000000E+00 0.  1.
     999901    1    3    3    0    0 -0.97609910096E-01  0.88291225174E-01 -0.49595454209E-01  0.89116931280E+00  0.88000000000E+00 0. -1.
        -11    1    4    4    0    0  0.65264355139E-01 -0.46132446393E-01  0.27349586892E-01  0.84474254576E-01  0.51100000000E-03 0. -1.
         11    1    4    4    0    0  0.28765160354E-01 -0.19369097808E-01  0.27926561715E-01  0.44528085186E-01  0.51100000000E-03 0.  1.
</event>
<event>
 8    1  0.1138737E+005  0.1043930E+01  0.7957747E-01            NaN
         13   -1    0    0    0    0  0.00000000000E+00  0.00000000000E+00  0.74505805969E-08  0.10566000000E+00  0.10566000000E+00 0.  1.
     999900   -1    0    0    0    0 -0.00000000000E+00 -0.00000000000E+00 -0.74505805969E-08  0.93827000000E+00  0.93827000000E+00 0. -1.
     999902    2    1    2    0    0  0.14810155925E-01  0.16847189390E-01  0.12456153349E-01  0.10182721695E+01  0.10179488626E+01 0.  0.
     999903    2    3    3    0    0 -0.12510957659E+00  0.98358682285E-02 -0.13902163558E-02  0.12708284500E+00  0.19974141676E-01 0.  0.
         14    1    1    2    0    0 -0.14810155925E-01 -0.16847189390E-01 -0.12456153349E-01  0.25657830484E-01  0.00000000000E+00 0. -1.
     999901    1    3    3    0    0  0.13991973251E+00  0.70113211613E-02  0.13846369705E-01  0.89118932451E+00  0.88000000000E+00 0. -1.
        -11    1    4    4    0    0 -0.95541191698E-01  0.27062659876E-02 -0.81268737081E-02  0.95925754539E-01  0.51100000000E-03 0.  1.
         11    1    4    4    0    0 -0.29568384888E-01  0.71296022409E-02  0.67366573522E-02  0.31157090465E-01  0.51100000000E-03 0. -1.
</event>
<event>
 7    1  0.1138737E+005  0.1043930E+01  0.7957747E-01            NaN
         13   -1    0    0    0    0  0.00000000000E+00  0.00000000000E+00  0.74505805969E-08  0.10566000000E+00  0.10566000000E+00 0. -1.
     999900   -1    0    0    0    0 -0.00000000000E+00 -0.00000000000E+00 -0.74505805969E-08  0.93827000000E+00  0.93827000000E+00 0.  1.
     999903    2    1    2    0    0 -0.74623068201E-01  0.30400087737E-01  0.66011649197E-01  0.10606524873E+00  0.19988284501E-01 0.  0.
         14    1    1    2    0    0 -0.12372858118E-01  0.10135108538E-01  0.43076760428E-01  0.45950139631E-01  0.00000000000E+00 0. -1.
     999901    1    1    2    0    0  0.86995926319E-01 -0.40535196274E-01 -0.10908840963E+00  0.89191461163E+00  0.88000000000E+00 0.  1.
        -11    1    3    3    0    0 -0.54846848606E-01  0.26707447252E-01  0.39097646925E-01  0.72459310352E-01  0.51100000000E-03 0. -1.
         11    1    3    3    0    0 -0.19776219595E-01  0.36926404845E-02  0.26914002273E-01  0.33605938382E-01  0.51100000000E-03 0.  1.
</event>
<event>
 8    1  0.1138737E+005  0.1043930E+01  0.7957747E-01            NaN
         13   -1    0    0    0    0  0.00000000000E+00  0.00000000000E+00  0.74505805969E-08  0.10566000000E+00  0.10566000000E+00 0. -1.
     999900   -1    0    0    0    0 -0.00000000000E+00 -0.00000000000E+00 -0.74505805969E-08  0.93827000000E+00  0.93827000000E+00 0. -1.
     999902    2    1    2    0    0 -0.62540210349E-02 -0.61559824094E-02 -0.21433500426E-01  0.10207696062E+01  0.10205068276E+01 0.  0.
     999903    2    3    3    0    0  0.90385715903E-01 -0.92797419894E-01 -0.79067315509E-02  0.13114667999E+00  0.18867869228E-01 0.  0.
         14    1    1    2    0    0  0.62540210349E-02  0.61559824094E-02  0.21433500426E-01  0.23160393758E-01  0.00000000000E+00 0. -1.
     999901    1    3    3    0    0 -0.96639736938E-01  0.86641437485E-01 -0.13526768875E-01  0.88962292626E+00  0.88000000000E+00 0.  1.
        -11    1    4    4    0    0  0.60162863662E-01 -0.48536617550E-01 -0.39425805237E-02  0.77402703244E-01  0.51100000000E-03 0. -1.
         11    1    4    4    0    0  0.30222852240E-01 -0.44260802344E-01 -0.39641510272E-02  0.53743976742E-01  0.51100000000E-03 0.  1.
</event>
<event>
 8    1  0.1138737E+005  0.1043930E+01  0.7957747E-01            NaN
         13   -1    0    0    0    0  0.00000000000E+00  0.00000000000E+00  0.74505805969E-08  0.10566000000E+00  0.10566000000E+00 0.  1.
     999900   -1    0    0    0    0 -0.00000000000E+00 -0.00000000000E+00 -0.74505805969E-08  0.93827000000E+00  0.93827000000E+00 0.  1.
     999902    2    1    2    0    0 -0.16111677840E-01 -0.17469241727E-01 -0.94825217677E-03  0.10201463974E+01  0.10198691153E+01 0.  0.
     999903    2    3    3    0    0 -0.92008577586E-01  0.52283819066E-01 -0.74795090265E-01  0.13105743428E+00  0.19559383114E-01 0.  0.
         14    1    1    2    0    0  0.16111677840E-01  0.17469241727E-01  0.94825217677E-03  0.23783602576E-01  0.00000000000E+00 0. -1.
     999901    1    3    3    0    0  0.75896899746E-01 -0.69753060793E-01  0.73846838089E-01  0.88908896314E+00  0.88000000000E+00 0. -1.
        -11    1    4    4    0    0 -0.70069285595E-01  0.48692585760E-01 -0.57645370082E-01  0.10297534901E+00  0.51100000000E-03 0.  1.
         11    1    4    4    0    0 -0.21939291991E-01  0.35912333066E-02 -0.17149720183E-01  0.28082085270E-01  0.51100000000E-03 0. -1.
</event>
<event>
 8    1  0.1138737E+005  0.1043930E+01  0.7957747E-01            NaN
         13   -1    0    0    0    0  0.00000000000E+00  0.00000000000E+00  0.74505805969E-08  0.10566000000E+00  0.10566000000E+00 0.  1.
     999900   -1    0    0    0    0 -0.00000000000E+00 -0.00000000000E+00 -0.74505805969E-08  0.93827000000E+00  0.93827000000E+00 0.  1.
     999902    2    1    2    0    0 -0.10391593857E-01  0.75272533051E-02  0.20580387710E-01  0.10196772244E+01  0.10193887604E+01 0.  0.
     999903    2    3    3    0    0  0.88502073070E-01 -0.80902509404E-01 -0.39187127434E-01  0.12772883120E+00  0.20029737848E-01 0.  0.
         14    1    1    2    0    0  0.10391593857E-01 -0.75272533051E-02 -0.20580387710E-01  0.24252775584E-01  0.00000000000E+00 0. -1.
     999901    1    3    3    0    0 -0.98893666927E-01  0.88429762709E-01  0.59767515144E-01  0.89194839321E+00  0.88000000000E+00 0. -1.
        -11    1    4    4    0    0  0.51705162916E-01 -0.58928982032E-01 -0.29658965089E-01  0.83821024371E-01  0.51100000000E-03 0.  1.
         11    1    4    4    0    0  0.36796910154E-01 -0.21973527372E-01 -0.95281623449E-02  0.43907806831E-01  0.51100000000E-03 0. -1.
</event>
<event>
 8    1  0.1138737E+005  0.1043930E+01  0.7957747E-01            NaN
         13   -1    0    0    0    0  0.00000000000E+00  0.00000000000E+00  0.74505805969E-08  0.10566000000E+00  0.10566000000E+00 0. -1.
     999900   -1    0    0    0    0 -0.00000000000E+00 -0.00000000000E+00 -0.74505805969E-08  0.93827000000E+00  0.93827000000E+00 0.  1.
     999902    2    1    2    0    0 -0.91706673204E-02  0.21980410741E-01  0.21891383578E-02  0.10200128112E+01  0.10197323683E+01 0.  0.
     999903    2    3    3    0    0 -0.15758759643E-01  0.11902127089E+00 -0.53455029737E-01  0.13290706496E+00  0.19810256993E-01 0.  0.
         14    1    1    2    0    0  0.91706673204E-02 -0.21980410741E-01 -0.21891383578E-02  0.23917188844E-01  0.00000000000E+00 0.  1.
     999901    1    3    3    0    0  0.65880923221E-02 -0.97040860146E-01  0.55644168095E-01  0.88710574620E+00  0.88000000000E+00 0. -1.
        -11    1    4    4    0    0  0.27969028280E-02  0.99656296007E-02 -0.80967340591E-03  0.10394860787E-01  0.51100000000E-03 0. -1.
         11    1    4    4    0    0 -0.18555662471E-01  0.10905564129E+00 -0.52645356331E-01  0.12251220417E+00  0.51100000000E-03 0.  1.
</event>
<event>
 8    1  0.1138737E+005  0.1043930E+01  0.7957747E-01            NaN
         13   -1    0    0    0    0  0.00000000000E+00  0.00000000000E+00  0.74505805969E-08  0.10566000000E+00  0.10566000000E+00 0. -1.
     999900   -1    0    0    0    0 -0.00000000000E+00 -0.00000000000E+00 -0.74505805969E-08  0.93827000000E+00  0.93827000000E+00 0. -1.
     999902    2    1    2    0    0  0.15899680391E-01  0.17641161904E-01 -0.61395234021E-03  0.10201731617E+01  0.10198965106E+01 0.  0.
     999903    2    3    3    0    0  0.58703887760E-01  0.10985518872E+00 -0.43390893549E-01  0.13328788521E+00  0.19198483650E-01 0.  0.
         14    1    1    2    0    0 -0.15899680391E-01 -0.17641161904E-01  0.61395234021E-03  0.23756838328E-01  0.00000000000E+00 0.  1.
     999901    1    3    3    0    0 -0.42804207369E-01 -0.92214026811E-01  0.42776941209E-01  0.88688527646E+00  0.88000000000E+00 0.  1.
        -11    1    4    4    0    0  0.29336751079E-02  0.20070943539E-01 -0.82324093857E-02  0.21897098198E-01  0.51100000000E-03 0. -1.
         11    1    4    4    0    0  0.55770212652E-01  0.89784245176E-01 -0.35158484163E-01  0.11139078701E+00  0.51100000000E-03 0.  1.
</event>
<event>
 8    1  0.1138737E+005  0.1043930E+01  0.7957747E-01            NaN
         13   -1    0    0    0    0  0.00000000000E+00  0.00000000000E+00  0.74505805969E-08  0.10566000000E+00  0.10566000000E+00 0. -1.
     999900   -1    0    0    0    0 -0.00000000000E+00 -0.00000000000E+00 -0.74505805969E-08  0.93827000000E+00  0.93827000000E+00 0.  1.
     999902    2    1    2    0    0 -0.20506678252E-01  0.13371854860E-02 -0.14864832154E-01  0.10185671304E+01  0.10182513069E+01 0.  0.
     999903    2    3    3    0    0 -0.51908975913E-02 -0.12298803281E+00 -0.30943881639E-01  0.12955089386E+00  0.25940483011E-01 0.  0.
         14    1    1    2    0    0  0.20506678252E-01 -0.13371854860E-02  0.14864832154E-01  0.25362869572E-01  0.00000000000E+00 0. -1.
     999901    1    3    3    0    0 -0.15315780661E-01  0.12432521829E+00  0.16079049485E-01  0.88901623656E+00  0.88000000000E+00 0. -1.
        -11    1    4    4    0    0  0.43706820680E-02 -0.89027911399E-01 -0.30670455504E-01  0.94265634415E-01  0.51100000000E-03 0.  1.
         11    1    4    4    0    0 -0.95615796593E-02 -0.33960121408E-01 -0.27342613461E-03  0.35285259450E-01  0.51100000000E-03 0. -1.
</event>
<event>
 8    1  0.1138737E+005  0.1043930E+01  0.7957747E-01            NaN
         13   -1    0    0    0    0  0.00000000000E+00  0.00000000000E+00  0.74505805969E-08  0.10566000000E+00  0.10566000000E+00 0.  1.
     999900   -1    0    0    0    0 -0.00000000000E+00 -0.00000000000E+00 -0.74505805969E-08  0.93827000000E+00  0.93827000000E+00 0. -1.
     999902    2    1    2    0    0  0.17815812219E-01  0.12080450306E-01  0.80636061691E-02  0.10209438696E+01  0.10206850752E+01 0.  0.
     999903    2    3    3    0    0  0.85977526379E-01 -0.96801833567E-01 -0.43405052982E-02  0.13153101106E+00  0.22777990698E-01 0.  0.
         14    1    1    2    0    0 -0.17815812219E-01 -0.12080450306E-01 -0.80636061691E-02  0.22986130363E-01  0.00000000000E+00 0.  1.
     999901    1    3    3    0    0 -0.68161714160E-01  0.10888228387E+00  0.12404111467E-01  0.88941285858E+00  0.88000000000E+00 0. -1.
        -11    1    4    4    0    0  0.29308679810E-01 -0.21218376825E-01 -0.77203074837E-02  0.37001114794E-01  0.51100000000E-03 0.  1.
         11    1    4    4    0    0  0.56668846568E-01 -0.75583456742E-01  0.33798021855E-02  0.94529896267E-01  0.51100000000E-03 0. -1.
</event>
<event>
 8    1  0.1138737E+005  0.1043930E+01  0.7957747E-01            NaN
         13   -1    0    0    0    0  0.00000000000E+00  0.00000000000E+00  0.74505805969E-08  0.10566000000E+00  0.10566000000E+00 0.  1.
     999900   -1    0    0    0    0 -0.00000000000E+00 -0.00000000000E+00 -0.74505805969E-08  0.93827000000E+00  0.93827000000E+00 0.  1.
     999902    2    1    2    0    0 -0.19313152005E-01  0.21323283082E-03 -0.20802708981E-01  0.10155434537E+01  0.10151466448E+01 0.  0.
     999903    2    3    3    0    0 -0.26931668719E-02 -0.92988225160E-01  0.80442851566E-01  0.12469363517E+00  0.20576372824E-01 0.  0.
         14    1    1    2    0    0  0.19313152005E-01 -0.21323283082E-03  0.20802708981E-01  0.28386546278E-01  0.00000000000E+00 0.  1.
     999901    1    3    3    0    0 -0.16619985133E-01  0.93201457991E-01 -0.10124556055E+00  0.89084981855E+00  0.88000000000E+00 0.  1.
        -11    1    4    4    0    0 -0.10571587281E-02 -0.30352784641E-01  0.39561685488E-01  0.49877822724E-01  0.51100000000E-03 0.  1.
         11    1    4    4    0    0 -0.16360081438E-02 -0.62635440519E-01  0.40881166078E-01  0.74815812450E-01  0.51100000000E-03 0. -1.
</event>
<event>
 8    1  0.1138737E+005  0.1043930E+01  0.7957747E-01            NaN
         13   -1    0    0    0    0  0.00000000000E+00  0.00000000000E+00  0.74505805969E-08  0.10566000000E+00  0.10566000000E+00 0. -1.
     999900   -1    0    0    0    0 -0.00000000000E+00 -0.00000000000E+00 -0.74505805969E-08  0.93827000000E+00  0.93827000000E+00 0. -1.
     999902    2    1    2    0    0  0.18447735506E-02  0.18168477251E-01 -0.14459640134E-01  0.10206366974E+01  0.10203708591E+01 0.  0.
     999903    2    3    3    0    0 -0.36770672239E-01  0.36293238999E-01 -0.12093898808E+00  0.13319232661E+00  0.21087330231E-01 0.  0.
         14    1    1    2    0    0 -0.18447735506E-02 -0.18168477251E-01  0.14459640134E-01  0.23293302640E-01  0.00000000000E+00 0.  1.
     999901    1    3    3    0    0  0.38615445790E-01 -0.18124761749E-01  0.10647934794E+00  0.88744437075E+00  0.88000000000E+00 0.  1.
        -11    1    4    4    0    0 -0.15407878354E-02  0.13671591849E-01 -0.34522567218E-01  0.37166587403E-01  0.51100000000E-03 0. -1.
         11    1    4    4    0    0 -0.35229884404E-01  0.22621647150E-01 -0.86416420858E-01  0.96025739205E-01  0.51100000000E-03 0.  1.
</event>
<event>
 8    1  0.1138737E+005  0.1043930E+01  0.7957747E-01            NaN
         13   -1    0    0    0    0  0.00000000000E+00  0.00000000000E+00  0.74505805969E-08  0.10566000000E+00  0.10566000000E+00 0. -1.
     999900   -1    0    0    0    0 -0.00000000000E+00 -0.00000000000E+00 -0.74505805969E-08  0.93827000000E+00  0.93827000000E+00 0.  1.
     999902    2    1    2    0    0  0.11188113213E-03  0.23613433403E-01 -0.10572728535E-02  0.10202926444E+01  0.10200188016E+01 0.  0.
     999903    2    3    3    0    0 -0.67265951631E-01  0.56893793251E-01  0.95967853288E-01  0.13177633626E+00  0.19838396484E-01 0.  0.
         14    1    1    2    0    0 -0.11188113213E-03 -0.23613433403E-01  0.10572728535E-02  0.23637355613E-01  0.00000000000E+00 0. -1.
     999901    1    3    3    0    0  0.67377832763E-01 -0.33280359847E-01 -0.97025126141E-01  0.88851630812E+00  0.88000000000E+00 0.  1.
        -11    1    4    4    0    0 -0.51513299246E-01  0.35592495336E-01  0.57140788095E-01  0.84768959581E-01  0.51100000000E-03 0. -1.
         11    1    4    4    0    0 -0.15752652386E-01  0.21301297915E-01  0.38827065193E-01  0.47007376682E-01  0.51100000000E-03 0.  1.
</event>
<event>
 8    1  0.1138737E+005  0.1043930E+01  0.7957747E-01            NaN
         13   -1    0    0    0    0  0.00000000000E+00  0.00000000000E+00  0.74505805969E-08  0.10566000000E+00  0.10566000000E+00 0.  1.
     999900   -1    0    0    0    0 -0.00000000000E+00 -0.00000000000E+00 -0.74505805969E-08  0.93827000000E+00  0.93827000000E+00 0.  1.
     999902    2    1    2    0    0 -0.57738022509E-02  0.71049133802E-02  0.22484202262E-01  0.10196533458E+01  0.10193643067E+01 0.  0.
     999903    2    3    3    0    0  0.64555387547E-02 -0.60482036546E-01 -0.10981926768E+00  0.12711664589E+00  0.19965454718E-01 0.  0.
         14    1    1    2    0    0  0.57738022509E-02 -0.71049133802E-02 -0.22484202262E-01  0.24276654175E-01  0.00000000000E+00 0. -1.
     999901    1    3    3    0    0 -0.12229341006E-01  0.67586949926E-01  0.13230346994E+00  0.89253669994E+00  0.88000000000E+00 0. -1.
        -11    1    4    4    0    0  0.86808137981E-02 -0.24951427378E-01 -0.62846643329E-01  0.68175449798E-01  0.51100000000E-03 0. -1.
         11    1    4    4    0    0 -0.22252750434E-02 -0.35530609168E-01 -0.46972624350E-01  0.58941196087E-01  0.51100000000E-03 0.  1.
</event>
<event>
 8    1  0.1138737E+005  0.1043930E+01  0.7957747E-01            NaN
         13   -1    0    0    0    0  0.00000000000E+00  0.00000000000E+00  0.74505805969E-08  0.10566000000E+00  0.10566000000E+00 0.  1.
     999900   -1    0    0    0    0 -0.00000000000E+00 -0.00000000000E+00 -0.74505805969E-08  0.93827000000E+00  0.93827000000E+00 0.  1.
     999902    2    1    2    0    0  0.87045658794E-02  0.20573139661E-01  0.64210411291E-02  0.10206866502E+01  0.10204219639E+01 0.  0.
     999903    2    3    3    0    0  0.71809531064E-01  0.78783510049E-01  0.77808473598E-01  0.13363149440E+00  0.20970634791E-01 0.  0.
         14    1    1    2    0    0 -0.87045658794E-02 -0.20573139661E-01 -0.64210411291E-02  0.23243349842E-01  0.00000000000E+00 0.  1.
     999901    1    3    3    0    0 -0.63104965184E-01 -0.58210370387E-01 -0.71387432469E-01  0.88705515576E+00  0.88000000000E+00 0. -1.
        -11    1    4    4    0    0  0.19738531994E-01  0.26756089284E-01  0.35869969075E-01  0.48912306851E-01  0.51100000000E-03 0.  1.
         11    1    4    4    0    0  0.52070999070E-01  0.52027420764E-01  0.41938504523E-01  0.84719187544E-01  0.51100000000E-03 0. -1.
</event>
<event>
 8    1  0.1138737E+005  0.1043930E+01  0.7957747E-01            NaN
         13   -1    0    0    0    0  0.00000000000E+00  0.00000000000E+00  0.74505805969E-08  0.10566000000E+00  0.10566000000E+00 0.  1.
     999900   -1    0    0    0    0 -0.00000000000E+00 -0.00000000000E+00 -0.74505805969E-08  0.93827000000E+00  0.93827000000E+00 0. -1.
     999902    2    1    2    0    0 -0.34616714779E-02 -0.93666289781E-02  0.12439496263E-01  0.10279782611E+01  0.10278544874E+01 0.  0.
     999903    2    3    3    0    0 -0.70172659097E-01 -0.91513751018E-01 -0.72420558179E-01  0.13758523865E+00  0.19646677493E-01 0.  0.
         14    1    1    2    0    0  0.34616714779E-02  0.93666289781E-02 -0.12439496263E-01  0.15951738937E-01  0.00000000000E+00 0. -1.
     999901    1    3    3    0    0  0.66710987619E-01  0.82147122040E-01  0.84860054441E-01  0.89039302242E+00  0.88000000000E+00 0.  1.
        -11    1    4    4    0    0 -0.46738786357E-01 -0.64120582706E-01 -0.59903199714E-01  0.99421414864E-01  0.51100000000E-03 0. -1.
         11    1    4    4    0    0 -0.23433872740E-01 -0.27393168312E-01 -0.12517358465E-01  0.38163823783E-01  0.51100000000E-03 0.  1.
</event>
<event>
 8    1  0.1138737E+005  0.1043930E+01  0.7957747E-01            NaN
         13   -1    0    0    0    0  0.00000000000E+00  0.00000000000E+00  0.74505805969E-08  0.10566000000E+00  0.10566000000E+00 0.  1.
     999900   -1    0    0    0    0 -0.00000000000E+00 -0.00000000000E+00 -0.74505805969E-08  0.93827000000E+00  0.93827000000E+00 0. -1.
     999902    2    1    2    0    0  0.20210914650E-01 -0.86955393343E-02  0.95691264057E-02  0.10199370499E+01  0.10196548063E+01 0.  0.
     999903    2    3    3    0    0 -0.18196618090E-01 -0.47540272112E-01  0.11948933313E+00  0.13141777396E+00  0.20043357961E-01 0.  0.
         14    1    1    2    0    0 -0.20210914650E-01  0.86955393343E-02 -0.95691264057E-02  0.23992950120E-01  0.00000000000E+00 0. -1.
     999901    1    3    3    0    0  0.38407532740E-01  0.38844732777E-01 -0.10992020672E+00  0.88851927592E+00  0.88000000000E+00 0. -1.
        -11    1    4    4    0    0 -0.95471067631E-02 -0.27694738552E-01  0.43831514131E-01  0.52721992973E-01  0.51100000000E-03 0. -1.
         11    1    4    4    0    0 -0.86495113273E-02 -0.19845533559E-01  0.75657818999E-01  0.78695780987E-01  0.51100000000E-03 0.  1.
</event>
<event>
 8    1  0.1138737E+005  0.1043930E+01  0.7957747E-01            NaN
         13   -1    0    0    0    0  0.00000000000E+00  0.00000000000E+00  0.74505805969E-08  0.10566000000E+00  0.10566000000E+00 0.  1.
     999900   -1    0    0    0    0 -0.00000000000E+00 -0.00000000000E+00 -0.74505805969E-08  0.93827000000E+00  0.93827000000E+00 0.  1.
     999902    2    1    2    0    0 -0.14505861177E-01 -0.10229439496E-01  0.15583139606E-01  0.10203101846E+01  0.10200367528E+01 0.  0.
     999903    2    3    3    0    0 -0.52254921558E-01  0.77842455769E-01  0.90543813993E-01  0.13194046818E+00  0.20495856759E-01 0.  0.
         14    1    1    2    0    0  0.14505861177E-01  0.10229439496E-01 -0.15583139606E-01  0.23619815429E-01  0.00000000000E+00 0.  1.
     999901    1    3    3    0    0  0.37749060381E-01 -0.88071895265E-01 -0.74960674386E-01  0.88836971639E+00  0.88000000000E+00 0. -1.
        -11    1    4    4    0    0 -0.23688310395E-01  0.28754972200E-01  0.49071397074E-01  0.61613696589E-01  0.51100000000E-03 0. -1.
         11    1    4    4    0    0 -0.28566611163E-01  0.49087483568E-01  0.41472416919E-01  0.70326771592E-01  0.51100000000E-03 0.  1.
</event>
<event>
 8    1  0.1138737E+005  0.1043930E+01  0.7957747E-01            NaN
         13   -1    0    0    0    0  0.00000000000E+00  0.00000000000E+00  0.74505805969E-08  0.10566000000E+00  0.10566000000E+00 0. -1.
     999900   -1    0    0    0    0 -0.00000000000E+00 -0.00000000000E+00 -0.74505805969E-08  0.93827000000E+00  0.93827000000E+00 0. -1.
     999902    2    1    2    0    0  0.14416629333E-01  0.11440524889E-01  0.15444006598E-01  0.10199041358E+01  0.10196211081E+01 0.  0.
     999903    2    3    3    0    0  0.18252221554E-01  0.11079463284E+00  0.67738412598E-01  0.13276228951E+00  0.20706006738E-01 0.  0.
         14    1    1    2    0    0 -0.14416629333E-01 -0.11440524889E-01 -0.15444006598E-01  0.24025864207E-01  0.00000000000E+00 0.  1.
     999901    1    3    3    0    0 -0.38355922206E-02 -0.99354107955E-01 -0.52294405999E-01  0.88714184629E+00  0.88000000000E+00 0. -1.
        -11    1    4    4    0    0  0.84297745020E-02  0.31221542476E-01  0.30123394558E-01  0.44198708504E-01  0.51100000000E-03 0. -1.
         11    1    4    4    0    0  0.98224470517E-02  0.79573090368E-01  0.37615018040E-01  0.88563581002E-01  0.51100000000E-03 0.  1.
</event>
<event>
 8    1  0.1138737E+005  0.1043930E+01  0.7957747E-01            NaN
         13   -1    0    0    0    0  0.00000000000E+00  0.00000000000E+00  0.74505805969E-08  0.10566000000E+00  0.10566000000E+00 0.  1.
     999900   -1    0    0    0    0 -0.00000000000E+00 -0.00000000000E+00 -0.74505805969E-08  0.93827000000E+00  0.93827000000E+00 0.  1.
     999902    2    1    2    0    0 -0.62176732732E-02 -0.39510621899E-02 -0.22028892482E-01  0.10207019468E+01  0.10204376128E+01 0.  0.
     999903    2    3    3    0    0  0.81949336892E-01  0.84742174211E-01  0.48751381933E-01  0.12904631867E+00  0.19476273095E-01 0.  0.
         14    1    1    2    0    0  0.62176732732E-02  0.39510621899E-02  0.22028892482E-01  0.23228053241E-01  0.00000000000E+00 0.  1.
     999901    1    3    3    0    0 -0.88167010165E-01 -0.88693236401E-01 -0.70780274416E-01  0.89165562809E+00  0.88000000000E+00 0.  1.
        -11    1    4    4    0    0  0.26923432458E-01  0.17363653303E-01  0.82493496707E-02  0.33085957177E-01  0.51100000000E-03 0. -1.
         11    1    4    4    0    0  0.55025904433E-01  0.67378520909E-01  0.40502032263E-01  0.95960361488E-01  0.51100000000E-03 0.  1.
</event>
<event>
 8    1  0.1138737E+005  0.1043930E+01  0.7957747E-01            NaN
         13   -1    0    0    0    0  0.00000000000E+00  0.00000000000E+00  0.74505805969E-08  0.10566000000E+00  0.10566000000E+00 0. -1.
     999900   -1    0    0    0    0 -0.00000000000E+00 -0.00000000000E+00 -0.74505805969E-08  0.93827000000E+00  0.93827000000E+00 0. -1.
     999902    2    1    2    0    0 -0.64601080006E-02 -0.18874094089E-01  0.14471085897E-01  0.10192849853E+01  0.10189869992E+01 0.  0.
     999903    2    3    3    0    0  0.86851572221E-01 -0.87268744870E-01 -0.37497823532E-01  0.13019237736E+00  0.19619860486E-01 0.  0.
         14    1    1    2    0    0  0.64601080006E-02  0.18874094089E-01 -0.14471085897E-01  0.24645014711E-01  0.00000000000E+00 0.  1.
     999901    1    3    3    0    0 -0.93311680221E-01  0.68394650781E-01  0.51968909429E-01  0.88909260793E+00  0.88000000000E+00 0.  1.
        -11    1    4    4    0    0  0.42267524161E-01 -0.56032305004E-01 -0.22888556265E-01  0.73826214393E-01  0.51100000000E-03 0. -1.
         11    1    4    4    0    0  0.44584048060E-01 -0.31236439867E-01 -0.14609267267E-01  0.56366162970E-01  0.51100000000E-03 0.  1.
</event>
<event>
 8    1  0.1138737E+005  0.1043930E+01  0.7957747E-01            NaN
         13   -1    0    0    0    0  0.00000000000E+00  0.00000000000E+00  0.74505805969E-08  0.10566000000E+00  0.10566000000E+00 0.  1.
     999900   -1    0    0    0    0 -0.00000000000E+00 -0.00000000000E+00 -0.74505805969E-08  0.93827000000E+00  0.93827000000E+00 0.  1.
     999902    2    1    2    0    0 -0.14831556425E-01 -0.10182600053E-01  0.16784387959E-01  0.10193256083E+01  0.10190286158E+01 0.  0.
     999903    2    3    3    0    0 -0.10251131999E+00  0.17614680843E-01 -0.74898729673E-01  0.12979414525E+00  0.20441446303E-01 0.  0.
         14    1    1    2    0    0  0.14831556425E-01  0.10182600053E-01 -0.16784387959E-01  0.24604391660E-01  0.00000000000E+00 0. -1.
     999901    1    3    3    0    0  0.87679763568E-01 -0.27797280895E-01  0.91683117632E-01  0.88953146309E+00  0.88000000000E+00 0. -1.
        -11    1    4    4    0    0 -0.55332492252E-01  0.83357967340E-03 -0.32497748511E-01  0.64177444115E-01  0.51100000000E-03 0. -1.
         11    1    4    4    0    0 -0.47178827742E-01  0.16781101169E-01 -0.42400981162E-01  0.65616701137E-01  0.51100000000E-03 0.  1.
</event>
<event>
 8    1  0.1138737E+005  0.1043930E+01  0.7957747E-01            NaN
         13   -1    0    0    0    0  0.00000000000E+00  0.00000000000E+00  0.74505805969E-08  0.10566000000E+00  0.10566000000E+00 0. -1.
     999900   -1    0    0    0    0 -0.00000000000E+00 -0.00000000000E+00 -0.74505805969E-08  0.93827000000E+00  0.93827000000E+00 0. -1.
     999902    2    1    2    0    0 -0.90173377892E-02  0.59716492343E-02  0.20543486158E-01  0.10207134585E+01  0.10204493895E+01 0.  0.
     999903    2    3    3    0    0  0.12709511314E+00 -0.63848667549E-02  0.19056815527E-01  0.13016222866E+00  0.19624200488E-01 0.  0.
         14    1    1    2    0    0  0.90173377892E-02 -0.59716492343E-02 -0.20543486158E-01  0.23216541493E-01  0.00000000000E+00 0.  1.
     999901    1    3    3    0    0 -0.13611245093E+00  0.12356515989E-01  0.14866706314E-02  0.89055122984E+00  0.88000000000E+00 0.  1.
        -11    1    4    4    0    0  0.89420424900E-01 -0.12313152069E-01  0.89758619511E-02  0.90710822518E-01  0.51100000000E-03 0.  1.
         11    1    4    4    0    0  0.37674688241E-01  0.59282853144E-02  0.10080953576E-01  0.39451406146E-01  0.51100000000E-03 0. -1.
</event>
<event>
 8    1  0.1138737E+005  0.1043930E+01  0.7957747E-01            NaN
         13   -1    0    0    0    0  0.00000000000E+00  0.00000000000E+00  0.74505805969E-08  0.10566000000E+00  0.10566000000E+00 0. -1.
     999900   -1    0    0    0    0 -0.00000000000E+00 -0.00000000000E+00 -0.74505805969E-08  0.93827000000E+00  0.93827000000E+00 0.  1.
     999902    2    1    2    0    0  0.46414004102E-02  0.11670135122E-01  0.19946670253E-01  0.10203587398E+01  0.10200864442E+01 0.  0.
     999903    2    3    3    0    0 -0.12230832249E+00  0.41026945063E-01  0.12386206789E-02  0.13056772755E+00  0.20096301244E-01 0.  0.
         14    1    1    2    0    0 -0.46414004102E-02 -0.11670135122E-01 -0.19946670253E-01  0.23571260164E-01  0.00000000000E+00 0.  1.
     999901    1    3    3    0    0  0.12694972290E+00 -0.29356809941E-01  0.18708049574E-01  0.88979101229E+00  0.88000000000E+00 0. -1.
        -11    1    4    4    0    0 -0.67095842833E-01  0.17705545551E-01  0.95778146203E-02  0.70052367003E-01  0.51100000000E-03 0.  1.
         11    1    4    4    0    0 -0.55212479656E-01  0.23321399512E-01 -0.83391939414E-02  0.60515360543E-01  0.51100000000E-03 0. -1.
</event>
<event>
 8    1  0.1138737E+005  0.1043930E+01  0.7957747E-01            NaN
         13   -1    0    0    0    0  0.00000000000E+00  0.00000000000E+00  0.74505805969E-08  0.10566000000E+00  0.10566000000E+00 0. -1.
     999900   -1    0    0    0    0 -0.00000000000E+00 -0.00000000000E+00 -0.74505805969E-08  0.93827000000E+00  0.93827000000E+00 0. -1.
     999902    2    1    2    0    0  0.60290637921E-02  0.10665508222E-01 -0.26940062037E-01  0.10143349055E+01  0.10139030678E+01 0.  0.
     999903    2    3    3    0    0 -0.11012855668E+00  0.42597619149E-01 -0.39463351572E-01  0.12603929858E+00  0.19639055851E-01 0.  0.
         14    1    1    2    0    0 -0.60290637921E-02 -0.10665508222E-01  0.26940062037E-01  0.29595094498E-01  0.00000000000E+00 0. -1.
     999901    1    3    3    0    0  0.11615762047E+00 -0.31932110927E-01  0.12523289535E-01  0.88829560693E+00  0.88000000000E+00 0. -1.
        -11    1    4    4    0    0 -0.68079818785E-01  0.33184723831E-01 -0.17774039521E-01  0.77796305975E-01  0.51100000000E-03 0.  1.
         11    1    4    4    0    0 -0.42048737895E-01  0.94128953178E-02 -0.21689312051E-01  0.48242992601E-01  0.51100000000E-03 0. -1.
</event>
<event>
 8    1  0.1138737E+005  0.1043930E+01  0.7957747E-01            NaN
         13   -1    0    0    0    0  0.00000000000E+00  0.00000000000E+00  0.74505805969E-08  0.10566000000E+00  0.10566000000E+00 0. -1.
     999900   -1    0    0    0    0 -0.00000000000E+00 -0.00000000000E+00 -0.74505805969E-08  0.93827000000E+00  0.93827000000E+00 0.  1.
     999902    2    1    2    0    0  0.42150904262E-02  0.30866341499E-02  0.23515029516E-01  0.10198416022E+01  0.10195570816E+01 0.  0.
     999903    2    3    3    0    0  0.95470396164E-01 -0.74048116205E-01  0.47714837046E-01  0.13143689076E+00  0.20030739419E-01 0.  0.
         14    1    1    2    0    0 -0.42150904262E-02 -0.30866341499E-02 -0.23515029516E-01  0.24088397846E-01  0.00000000000E+00 0.  1.
     999901    1    3    3    0    0 -0.91255305738E-01  0.77134750355E-01 -0.24199807530E-01  0.88840471139E+00  0.88000000000E+00 0.  1.
        -11    1    4    4    0    0  0.42280856299E-01 -0.43176957805E-01  0.17511212216E-01  0.62919187605E-01  0.51100000000E-03 0.  1.
         11    1    4    4    0    0  0.53189539865E-01 -0.30871158401E-01  0.30203624830E-01  0.68517703157E-01  0.51100000000E-03 0. -1.
</event>
<event>
 8    1  0.1138737E+005  0.1043930E+01  0.7957747E-01            NaN
         13   -1    0    0    0    0  0.00000000000E+00  0.00000000000E+00  0.74505805969E-08  0.10566000000E+00  0.10566000000E+00 0. -1.
     999900   -1    0    0    0    0 -0.00000000000E+00 -0.00000000000E+00 -0.74505805969E-08  0.93827000000E+00  0.93827000000E+00 0. -1.
     999902    2    1    2    0    0 -0.17675780985E-01  0.16353524738E-02 -0.17203926201E-01  0.10192099133E+01  0.10189100866E+01 0.  0.
     999903    2    3    3    0    0 -0.73008190785E-01 -0.98725627719E-01 -0.42078610522E-01  0.13143023799E+00  0.20648305135E-01 0.  0.
         14    1    1    2    0    0  0.17675780985E-01 -0.16353524738E-02  0.17203926201E-01  0.24720086729E-01  0.00000000000E+00 0. -1.
     999901    1    3    3    0    0  0.55332409799E-01  0.10036098019E+00  0.24874684321E-01  0.88777967528E+00  0.88000000000E+00 0. -1.
        -11    1    4    4    0    0 -0.65784463044E-01 -0.78401114608E-01 -0.29756761562E-01  0.10658356501E+00  0.51100000000E-03 0. -1.
         11    1    4    4    0    0 -0.72237277410E-02 -0.20324513111E-01 -0.12321848959E-01  0.24846672985E-01  0.51100000000E-03 0.  1.
</event>
<event>
 8    1  0.1138737E+005  0.1043930E+01  0.7957747E-01            NaN
         13   -1    0    0    0    0  0.00000000000E+00  0.00000000000E+00  0.74505805969E-08  0.10566000000E+00  0.10566000000E+00 0.  1.
     999900   -1    0    0    0    0 -0.00000000000E+00 -0.00000000000E+00 -0.74505805969E-08  0.93827000000E+00  0.93827000000E+00 0.  1.
     999902    2    1    2    0    0 -0.22440019471E-01  0.44363772479E-02 -0.66718627877E-02  0.10201025018E+01  0.10198241831E+01 0.  0.
     999903    2    3    3    0    0  0.30476540925E-01 -0.10715242927E+00 -0.62876214383E-01  0.12970306715E+00  0.21424393770E-01 0.  0.
         14    1    1    2    0    0  0.22440019471E-01 -0.44363772479E-02  0.66718627877E-02  0.23827498190E-01  0.00000000000E+00 0.  1.
     999901    1    3    3    0    0 -0.52916560396E-01  0.11158880652E+00  0.56204351596E-01  0.89039943466E+00  0.88000000000E+00 0. -1.
        -11    1    4    4    0    0  0.19729012660E-01 -0.50791351815E-01 -0.41410438134E-01  0.68440345317E-01  0.51100000000E-03 0.  1.
         11    1    4    4    0    0  0.10747528265E-01 -0.56361077453E-01 -0.21465776250E-01  0.61262721833E-01  0.51100000000E-03 0. -1.
</event>
<event>
 8    1  0.1138737E+005  0.1043930E+01  0.7957747E-01            NaN
         13   -1    0    0    0    0  0.00000000000E+00  0.00000000000E+00  0.74505805969E-08  0.10566000000E+00  0.10566000000E+00 0.  1.
     999900   -1    0    0    0    0 -0.00000000000E+00 -0.00000000000E+00 -0.74505805969E-08  0.93827000000E+00  0.93827000000E+00 0.  1.
     999902    2    1    2    0    0  0.21565750652E-01 -0.89708378822E-02 -0.42805717885E-02  0.10201838250E+01  0.10199074252E+01 0.  0.
     999903    2    3    3    0    0 -0.95664624500E-01 -0.84546658734E-01  0.31877800049E-02  0.12916730334E+00  0.19343537059E-01 0.  0.
         14    1    1    2    0    0 -0.21565750652E-01  0.89708378822E-02  0.42805717885E-02  0.23746175025E-01  0.00000000000E+00 0.  1.
     999901    1    3    3    0    0  0.11723037515E+00  0.75575820852E-01 -0.74683517934E-02  0.89101652164E+00  0.88000000000E+00 0.  1.
        -11    1    4    4    0    0 -0.48494956624E-01 -0.43001121049E-01 -0.80417290124E-02  0.65312998369E-01  0.51100000000E-03 0. -1.
         11    1    4    4    0    0 -0.47169667876E-01 -0.41545537685E-01  0.11229509017E-01  0.63854304967E-01  0.51100000000E-03 0.  1.
</event>
<event>
 8    1  0.1138737E+005  0.1043930E+01  0.7957747E-01            NaN
         13   -1    0    0    0    0  0.00000000000E+00  0.00000000000E+00  0.74505805969E-08  0.10566000000E+00  0.10566000000E+00 0.  1.
     999900   -1    0    0    0    0 -0.00000000000E+00 -0.00000000000E+00 -0.74505805969E-08  0.93827000000E+00  0.93827000000E+00 0. -1.
     999902    2    1    2    0    0 -0.20430193792E-01  0.90188800033E-02  0.77059257170E-02  0.10203055570E+01  0.10200320168E+01 0.  0.
     999903    2    3    3    0    0 -0.64693917137E-01  0.11311559854E+00  0.16979714534E-01  0.13301676121E+00  0.20608408721E-01 0.  0.
         14    1    1    2    0    0  0.20430193792E-01 -0.90188800033E-02 -0.77059257170E-02  0.23624442978E-01  0.00000000000E+00 0. -1.
     999901    1    3    3    0    0  0.44263723346E-01 -0.10409671853E+00 -0.92737888168E-02  0.88728879581E+00  0.88000000000E+00 0.  1.
        -11    1    4    4    0    0 -0.52892553048E-01  0.74324129423E-01  0.87839298866E-02  0.91646696218E-01  0.51100000000E-03 0. -1.
         11    1    4    4    0    0 -0.11801364089E-01  0.38791469115E-01  0.81957846471E-02  0.41370064992E-01  0.51100000000E-03 0.  1.
</event>
<event>
 8    1  0.1138737E+005  0.1043930E+01  0.7957747E-01            NaN
         13   -1    0    0    0    0  0.00000000000E+00  0.00000000000E+00  0.74505805969E-08  0.10566000000E+00  0.10566000000E+00 0. -1.
     999900   -1    0    0    0    0 -0.00000000000E+00 -0.00000000000E+00 -0.74505805969E-08  0.93827000000E+00  0.93827000000E+00 0. -1.
     999902    2    1    2    0    0  0.12735956956E-01 -0.99591769714E-02  0.16804802553E-01  0.10206106691E+01  0.10203442295E+01 0.  0.
     999903    2    3    3    0    0  0.12885571355E+00 -0.17954294404E-01  0.18781859469E-01  0.13294427424E+00  0.19881403536E-01 0.  0.
         14    1    1    2    0    0 -0.12735956956E-01  0.99591769714E-02 -0.16804802553E-01  0.23319330916E-01  0.00000000000E+00 0.  1.
     999901    1    3    3    0    0 -0.11611975660E+00  0.79951174326E-02 -0.19770569160E-02  0.88766639484E+00  0.88000000000E+00 0.  1.
        -11    1    4    4    0    0  0.64651060259E-01  0.98160536527E-04  0.50579800320E-02  0.64850701701E-01  0.51100000000E-03 0.  1.
         11    1    4    4    0    0  0.64204653293E-01 -0.18052454941E-01  0.13723879437E-01  0.68093572543E-01  0.51100000000E-03 0. -1.
</event>
<event>
 8    1  0.1138737E+005  0.1043930E+01  0.7957747E-01            NaN
         13   -1    0    0    0    0  0.00000000000E+00  0.00000000000E+00  0.74505805969E-08  0.10566000000E+00  0.10566000000E+00 0. -1.
     999900   -1    0    0    0    0 -0.00000000000E+00 -0.00000000000E+00 -0.74505805969E-08  0.93827000000E+00  0.93827000000E+00 0.  1.
     999902    2    1    2    0    0  0.86223375341E-02 -0.13414746559E-03  0.24557907746E-01  0.10179020625E+01  0.10175692385E+01 0.  0.
     999903    2    3    3    0    0 -0.18444450166E-01  0.12209502365E+00 -0.24512560577E-01  0.12768832849E+00  0.21355352168E-01 0.  0.
         14    1    1    2    0    0 -0.86223375341E-02  0.13414746559E-03 -0.24557907746E-01  0.26027937547E-01  0.00000000000E+00 0.  1.
     999901    1    3    3    0    0  0.27066787700E-01 -0.12222917111E+00  0.49070468323E-01  0.89021373396E+00  0.88000000000E+00 0.  1.
        -11    1    4    4    0    0 -0.15608212539E-01  0.11263878352E+00 -0.28160442993E-01  0.11715111404E+00  0.51100000000E-03 0. -1.
         11    1    4    4    0    0 -0.28362376270E-02  0.94562401296E-02  0.36478824156E-02  0.10537214451E-01  0.51100000000E-03 0.  1.
</event>
<event>
 8    1  0.1138737E+005  0.1043930E+01  0.7957747E-01            NaN
         13   -1    0    0    0    0  0.00000000000E+00  0.00000000000E+00  0.74505805969E-08  0.10566000000E+00  0.10566000000E+00 0. -1.
     999900   -1    0    0    0    0 -0.00000000000E+00 -0.00000000000E+00 -0.74505805969E-08  0.93827000000E+00  0.93827000000E+00 0.  1.
     999902    2    1    2    0    0  0.18278778325E-02 -0.23107224205E-01 -0.72863941608E-02  0.10196323358E+01  0.10193427901E+01 0.  0.
     999903    2    3    3    0    0  0.50935102180E-01 -0.23471359551E-03  0.11689689109E+00  0.12926378310E+00  0.21208553696E-01 0.  0.
         14    1    1    2    0    0 -0.18278778325E-02  0.23107224205E-01  0.72863941608E-02  0.24297664244E-01  0.00000000000E+00 0. -1.
     999901    1    3    3    0    0 -0.49107224348E-01 -0.22872510610E-01 -0.12418328525E+00  0.89036855266E+00  0.88000000000E+00 0.  1.
        -11    1    4    4    0    0  0.20151148993E-01  0.10287298588E-01  0.48984224748E-01  0.53959361682E-01  0.51100000000E-03 0.  1.
         11    1    4    4    0    0  0.30783953187E-01 -0.10522012183E-01  0.67912666343E-01  0.75304421417E-01  0.51100000000E-03 0. -1.
</event>
<event>
 8    1  0.1138737E+005  0.1043930E+01  0.7957747E-01            NaN
         13   -1    0    0    0    0  0.00000000000E+00  0.00000000000E+00  0.74505805969E-08  0.10566000000E+00  0.10566000000E+00 0. -1.
     999900   -1    0    0    0    0 -0.00000000000E+00 -0.00000000000E+00 -0.74505805969E-08  0.93827000000E+00  0.93827000000E+00 0. -1.
     999902    2    1    2    0    0 -0.15022454641E-01 -0.20220372248E-01  0.12410665803E-01  0.10158486499E+01  0.10154604460E+01 0.  0.
     999903    2    3    3    0    0 -0.52057066701E-02 -0.62961906916E-01 -0.10808344025E+00  0.12655565155E+00  0.18520307199E-01 0.  0.
         14    1    1    2    0    0  0.15022454641E-01  0.20220372248E-01 -0.12410665803E-01  0.28081350092E-01  0.00000000000E+00 0. -1.
     999901    1    3    3    0    0 -0.98167479712E-02  0.42741534668E-01  0.12049410606E+00  0.88929299835E+00  0.88000000000E+00 0.  1.
        -11    1    4    4    0    0 -0.95817001653E-02 -0.50512147437E-01 -0.74979017156E-01  0.90914246142E-01  0.51100000000E-03 0.  1.
         11    1    4    4    0    0  0.43759934952E-02 -0.12449759479E-01 -0.33104423098E-01  0.35641405413E-01  0.51100000000E-03 0. -1.
</event>
<event>
 8    1  0.1138737E+005  0.1043930E+01  0.7957747E-01            NaN
         13   -1    0    0    0    0  0.00000000000E+00  0.00000000000E+00  0.74505805969E-08  0.10566000000E+00  0.10566000000E+00 0. -1.
     999900   -1    0    0    0    0 -0.00000000000E+00 -0.00000000000E+00 -0.74505805969E-08  0.93827000000E+00  0.93827000000E+00 0. -1.
     999902    2    1    2    0    0  0.22571347750E-01  0.25972022908E-01 -0.68529023847E-02  0.10088447612E+01  0.10082344857E+01 0.  0.
     999903    2    3    3    0    0 -0.85788467921E-01 -0.73299854943E-01 -0.21181866956E-01  0.11654320081E+00  0.20027885661E-01 0.  0.
         14    1    1    2    0    0 -0.22571347750E-01 -0.25972022908E-01  0.68529023847E-02  0.35085238838E-01  0.00000000000E+00 0.  1.
     999901    1    3    3    0    0  0.10835981567E+00  0.99271877852E-01  0.14328964571E-01  0.89230156035E+00  0.88000000000E+00 0.  1.
        -11    1    4    4    0    0 -0.16448388748E-01 -0.88228924656E-02 -0.10047758453E-01  0.21204044303E-01  0.51100000000E-03 0. -1.
         11    1    4    4    0    0 -0.69340079172E-01 -0.64476962478E-01 -0.11134108503E-01  0.95339156505E-01  0.51100000000E-03 0.  1.
</event>
<event>
 8    1  0.1138737E+005  0.1043930E+01  0.7957747E-01            NaN
         13   -1    0    0    0    0  0.00000000000E+00  0.00000000000E+00  0.74505805969E-08  0.10566000000E+00  0.10566000000E+00 0.  1.
     999900   -1    0    0    0    0 -0.00000000000E+00 -0.00000000000E+00 -0.74505805969E-08  0.93827000000E+00  0.93827000000E+00 0.  1.
     999902    2    1    2    0    0  0.98532078886E-02 -0.15490075700E-01  0.13628493531E-01  0.10210659674E+01  0.10208099460E+01 0.  0.
     999903    2    3    3    0    0 -0.46928115239E-01  0.10957087446E+00 -0.43872749962E-01  0.12855784255E+00  0.19856388451E-01 0.  0.
         14    1    1    2    0    0 -0.98532078886E-02  0.15490075700E-01 -0.13628493531E-01  0.22864032601E-01  0.00000000000E+00 0. -1.
     999901    1    3    3    0    0  0.56781323128E-01 -0.12506095016E+00  0.57501243492E-01  0.89250812485E+00  0.88000000000E+00 0. -1.
        -11    1    4    4    0    0 -0.28101559348E-01  0.72359697916E-01 -0.38040270024E-01  0.86446207463E-01  0.51100000000E-03 0.  1.
         11    1    4    4    0    0 -0.18826555892E-01  0.37211176547E-01 -0.58324799373E-02  0.42111635090E-01  0.51100000000E-03 0. -1.
</event>
<event>
 8    1  0.1138737E+005  0.1043930E+01  0.7957747E-01            NaN
         13   -1    0    0    0    0  0.00000000000E+00  0.00000000000E+00  0.74505805969E-08  0.10566000000E+00  0.10566000000E+00 0.  1.
     999900   -1    0    0    0    0 -0.00000000000E+00 -0.00000000000E+00 -0.74505805969E-08  0.93827000000E+00  0.93827000000E+00 0. -1.
     999902    2    1    2    0    0 -0.19317980024E-01  0.95436278799E-02  0.10062227958E-01  0.10201494698E+01  0.10198722602E+01 0.  0.
     999903    2    3    3    0    0 -0.74469158652E-02  0.11676561146E+00 -0.55938140455E-01  0.13110868077E+00  0.19254766672E-01 0.  0.
         14    1    1    2    0    0  0.19317980024E-01 -0.95436278799E-02 -0.10062227958E-01  0.23780530204E-01  0.00000000000E+00 0. -1.
     999901    1    3    3    0    0 -0.11871064159E-01 -0.10722198358E+00  0.66000368413E-01  0.88904078903E+00  0.88000000000E+00 0.  1.
        -11    1    4    4    0    0 -0.14002274293E-01  0.80501331071E-01 -0.39313734444E-01  0.90677223306E-01  0.51100000000E-03 0. -1.
         11    1    4    4    0    0  0.65553584281E-02  0.36264280388E-01 -0.16624406011E-01  0.40431457460E-01  0.51100000000E-03 0.  1.
</event>
<event>
 8    1  0.1138737E+005  0.1043930E+01  0.7957747E-01            NaN
         13   -1    0    0    0    0  0.00000000000E+00  0.00000000000E+00  0.74505805969E-08  0.10566000000E+00  0.10566000000E+00 0.  1.
     999900   -1    0    0    0    0 -0.00000000000E+00 -0.00000000000E+00 -0.74505805969E-08  0.93827000000E+00  0.93827000000E+00 0. -1.
     999902    2    1    2    0    0 -0.71584807685E-02  0.85485958117E-02  0.20305673006E-01  0.10207644503E+01  0.10205015533E+01 0.  0.
     999903    2    3    3    0    0 -0.70942187734E-01  0.94866375561E-01  0.57825204072E-01  0.13345005528E+00  0.20802399278E-01 0.  0.
         14    1    1    2    0    0  0.71584807685E-02 -0.85485958117E-02 -0.20305673006E-01  0.23165549713E-01  0.00000000000E+00 0. -1.
     999901    1    3    3    0    0  0.63783706966E-01 -0.86317779749E-01 -0.37519531066E-01  0.88731439501E+00  0.88000000000E+00 0. -1.
        -11    1    4    4    0    0 -0.58771371710E-01  0.63808258644E-01  0.44794791184E-01  0.97634022974E-01  0.51100000000E-03 0. -1.
         11    1    4    4    0    0 -0.12170816024E-01  0.31058116917E-01  0.13030412888E-01  0.35816032306E-01  0.51100000000E-03 0.  1.
</event>
<event>
 8    1  0.1138737E+005  0.1043930E+01  0.7957747E-01            NaN
         13   -1    0    0    0    0  0.00000000000E+00  0.00000000000E+00  0.74505805969E-08  0.10566000000E+00  0.10566000000E+00 0. -1.
     999900   -1    0    0    0    0 -0.00000000000E+00 -0.00000000000E+00 -0.74505805969E-08  0.93827000000E+00  0.93827000000E+00 0. -1.
     999902    2    1    2    0    0 -0.17006439519E-01  0.34022674521E-02 -0.14146625751E-01  0.10215487259E+01  0.10213035190E+01 0.  0.
     999903    2    3    3    0    0 -0.51301458059E-01 -0.52655091635E-01 -0.11004157821E+00  0.13390329125E+00  0.20409414420E-01 0.  0.
         14    1    1    2    0    0  0.17006439519E-01 -0.34022674521E-02  0.14146625751E-01  0.22381274071E-01  0.00000000000E+00 0. -1.
     999901    1    3    3    0    0  0.34295018540E-01  0.56057359087E-01  0.95894952462E-01  0.88764543468E+00  0.88000000000E+00 0.  1.
        -11    1    4    4    0    0 -0.35467105571E-01 -0.32159295451E-01 -0.86659946798E-01  0.99006784421E-01  0.51100000000E-03 0. -1.
         11    1    4    4    0    0 -0.15834352488E-01 -0.20495796185E-01 -0.23381631415E-01  0.34896506825E-01  0.51100000000E-03 0.  1.
</event>
<event>
 8    1  0.1138737E+005  0.1043930E+01  0.7957747E-01            NaN
         13   -1    0    0    0    0  0.00000000000E+00  0.00000000000E+00  0.74505805969E-08  0.10566000000E+00  0.10566000000E+00 0.  1.
     999900   -1    0    0    0    0 -0.00000000000E+00 -0.00000000000E+00 -0.74505805969E-08  0.93827000000E+00  0.93827000000E+00 0.  1.
     999902    2    1    2    0    0  0.16874157076E-01 -0.19318170959E-01  0.24562751234E-01  0.10084158105E+01  0.10077902506E+01 0.  0.
     999903    2    3    3    0    0  0.10890176643E+00  0.36362963349E-01  0.34019299057E-01  0.12181618504E+00  0.22360912208E-01 0.  0.
         14    1    1    2    0    0 -0.16874157076E-01  0.19318170959E-01 -0.24562751234E-01  0.35514189480E-01  0.00000000000E+00 0. -1.
     999901    1    3    3    0    0 -0.92027609354E-01 -0.55681134308E-01 -0.94565478221E-02  0.88659962548E+00  0.88000000000E+00 0.  1.
        -11    1    4    4    0    0  0.71050768170E-01  0.24054511084E-01  0.33121636953E-01  0.82000823877E-01  0.51100000000E-03 0. -1.
         11    1    4    4    0    0  0.37850998260E-01  0.12308452266E-01  0.89766210324E-03  0.39815361165E-01  0.51100000000E-03 0.  1.
</event>
<event>
 8    1  0.1138737E+005  0.1043930E+01  0.7957747E-01            NaN
         13   -1    0    0    0    0  0.00000000000E+00  0.00000000000E+00  0.74505805969E-08  0.10566000000E+00  0.10566000000E+00 0. -1.
     999900   -1    0    0    0    0 -0.00000000000E+00 -0.00000000000E+00 -0.74505805969E-08  0.93827000000E+00  0.93827000000E+00 0. -1.
     999902    2    1    2    0    0  0.16421434036E-02  0.11900596010E-01 -0.20969890996E-01  0.10197627257E+01  0.10194763163E+01 0.  0.
     999903    2    3    3    0    0 -0.95507339659E-01 -0.78396853944E-01 -0.32498255416E-01  0.12974893099E+00  0.22603757452E-01 0.  0.
         14    1    1    2    0    0 -0.16421434036E-02 -0.11900596010E-01  0.20969890996E-01  0.24167274334E-01  0.00000000000E+00 0. -1.
     999901    1    3    3    0    0  0.97149483062E-01  0.90297449954E-01  0.11528364420E-01  0.89001379468E+00  0.88000000000E+00 0. -1.
        -11    1    4    4    0    0 -0.80333360263E-01 -0.75318701744E-01 -0.28632306503E-01  0.11378236111E+00  0.51100000000E-03 0.  1.
         11    1    4    4    0    0 -0.15173979396E-01 -0.30781522000E-02 -0.38659489128E-02  0.15966569878E-01  0.51100000000E-03 0. -1.
</event>
<event>
 8    1  0.1138737E+005  0.1043930E+01  0.7957747E-01            NaN
         13   -1    0    0    0    0  0.00000000000E+00  0.00000000000E+00  0.74505805969E-08  0.10566000000E+00  0.10566000000E+00 0.  1.
     999900   -1    0    0    0    0 -0.00000000000E+00 -0.00000000000E+00 -0.74505805969E-08  0.93827000000E+00  0.93827000000E+00 0. -1.
     999902    2    1    2    0    0  0.14529891013E-01  0.11930786646E-01  0.20337757937E-01  0.10162336862E+01  0.10158562000E+01 0.  0.
     999903    2    3    3    0    0 -0.11288326989E-01 -0.17509776562E-02 -0.12215181000E+00  0.12429363883E+00  0.19933682990E-01 0.  0.
         14    1    1    2    0    0 -0.14529891013E-01 -0.11930786646E-01 -0.20337757937E-01  0.27696313848E-01  0.00000000000E+00 0. -1.
     999901    1    3    3    0    0  0.25818218002E-01  0.13681764302E-01  0.14248956794E+00  0.89194004733E+00  0.88000000000E+00 0.  1.
        -11    1    4    4    0    0  0.62925446358E-03 -0.19583673490E-02 -0.89589747442E-01  0.89614815358E-01  0.51100000000E-03 0.  1.
         11    1    4    4    0    0 -0.11917581453E-01  0.20738969276E-03 -0.32562062556E-01  0.34678823467E-01  0.51100000000E-03 0. -1.
</event>
<event>
 8    1  0.1138737E+005  0.1043930E+01  0.7957747E-01            NaN
         13   -1    0    0    0    0  0.00000000000E+00  0.00000000000E+00  0.74505805969E-08  0.10566000000E+00  0.10566000000E+00 0.  1.
     999900   -1    0    0    0    0 -0.00000000000E+00 -0.00000000000E+00 -0.74505805969E-08  0.93827000000E+00  0.93827000000E+00 0. -1.
     999902    2    1    2    0    0 -0.13264753151E-01 -0.13255899912E-01 -0.14252952287E-01  0.10203753994E+01  0.10201034931E+01 0.  0.
     999903    2    3    3    0    0  0.11628513817E+00  0.45212185929E-01  0.23799408110E-01  0.12815924091E+00  0.17088127120E-01 0.  0.
         14    1    1    2    0    0  0.13264753151E-01  0.13255899912E-01  0.14252952287E-01  0.23554600559E-01  0.00000000000E+00 0.  1.
     999901    1    3    3    0    0 -0.12954989133E+00 -0.58468085841E-01 -0.38052360397E-01  0.89221615853E+00  0.88000000000E+00 0. -1.
        -11    1    4    4    0    0  0.69622828352E-01  0.18844059152E-01  0.17225702002E-01  0.74158092772E-01  0.51100000000E-03 0.  1.
         11    1    4    4    0    0  0.46662309823E-01  0.26368126776E-01  0.65737061080E-02  0.54001148142E-01  0.51100000000E-03 0. -1.
</event>
<event>
 8    1  0.1138737E+005  0.1043930E+01  0.7957747E-01            NaN
         13   -1    0    0    0    0  0.00000000000E+00  0.00000000000E+00  0.74505805969E-08  0.10566000000E+00  0.10566000000E+00 0.  1.
     999900   -1    0    0    0    0 -0.00000000000E+00 -0.00000000000E+00 -0.74505805969E-08  0.93827000000E+00  0.93827000000E+00 0. -1.
     999902    2    1    2    0    0 -0.13204656248E-01  0.75290786586E-02  0.18570256251E-01  0.10199319920E+01  0.10196496280E+01 0.  0.
     999903    2    3    3    0    0  0.18410483655E-01 -0.12545917424E+00 -0.10586979017E-01  0.12890138821E+00  0.20604209465E-01 0.  0.
         14    1    1    2    0    0  0.13204656248E-01 -0.75290786586E-02 -0.18570256251E-01  0.23998008028E-01  0.00000000000E+00 0. -1.
     999901    1    3    3    0    0 -0.31615139903E-01  0.13298825290E+00  0.29157235269E-01  0.89103060377E+00  0.88000000000E+00 0.  1.
        -11    1    4    4    0    0  0.13400116699E-01 -0.36132278519E-01  0.17822984445E-02  0.38581632771E-01  0.51100000000E-03 0. -1.
         11    1    4    4    0    0  0.50103669558E-02 -0.89326895720E-01 -0.12369277462E-01  0.90319755435E-01  0.51100000000E-03 0.  1.
</event>
<event>
 7    1  0.1138737E+005  0.1043930E+01  0.7957747E-01            NaN
         13   -1    0    0    0    0  0.00000000000E+00  0.00000000000E+00  0.74505805969E-08  0.10566000000E+00  0.10566000000E+00 0.  1.
     999900   -1    0    0    0    0 -0.00000000000E+00 -0.00000000000E+00 -0.74505805969E-08  0.93827000000E+00  0.93827000000E+00 0.  1.
     999902    2    1    2    0    0  0.17314411066E-01  0.11257495547E-01 -0.24343019577E-01  0.10120066130E+01  0.10115029817E+01 0.  0.
         14    1    1    2    0    0 -0.17314411066E-01 -0.11257495547E-01  0.24343019577E-01  0.31923387017E-01  0.00000000000E+00 0.  1.
     999901    1    3    3    0    0 -0.78520458830E-01  0.13882149845E-01  0.51056312405E-01  0.88507904934E+00  0.88000000000E+00 0.  1.
        -11    1    3    3    0    0  0.55665549447E-01 -0.13272284357E-01 -0.59153153177E-01  0.82305307114E-01  0.51100000000E-03 0. -1.
         11    1    3    3    0    0  0.40169320449E-01  0.10647630059E-01 -0.16246178804E-01  0.44622256531E-01  0.51100000000E-03 0.  1.
</event>
<event>
 8    1  0.1138737E+005  0.1043930E+01  0.7957747E-01            NaN
         13   -1    0    0    0    0  0.00000000000E+00  0.00000000000E+00  0.74505805969E-08  0.10566000000E+00  0.10566000000E+00 0. -1.
     999900   -1    0    0    0    0 -0.00000000000E+00 -0.00000000000E+00 -0.74505805969E-08  0.93827000000E+00  0.93827000000E+00 0. -1.
     999902    2    1    2    0    0 -0.93902296887E-02  0.90895899678E-02  0.29798219654E-01  0.10113918539E+01  0.10108683154E+01 0.  0.
     999903    2    3    3    0    0  0.11752660798E+00 -0.30013420463E-02 -0.19233569822E-01  0.12085370718E+00  0.20351331497E-01 0.  0.
         14    1    1    2    0    0  0.93902296887E-02 -0.90895899678E-02 -0.29798219654E-01  0.32538146136E-01  0.00000000000E+00 0.  1.
     999901    1    3    3    0    0 -0.12691683767E+00  0.12090932014E-01  0.49031789476E-01  0.89053814668E+00  0.88000000000E+00 0. -1.
        -11    1    4    4    0    0  0.73122250468E-01 -0.85618084823E-02 -0.19254212477E-01  0.76099631386E-01  0.51100000000E-03 0. -1.
         11    1    4    4    0    0  0.44404357512E-01  0.55604664360E-02  0.20642655460E-04  0.44754075794E-01  0.51100000000E-03 0.  1.
</event>
<event>
 8    1  0.1138737E+005  0.1043930E+01  0.7957747E-01            NaN
         13   -1    0    0    0    0  0.00000000000E+00  0.00000000000E+00  0.74505805969E-08  0.10566000000E+00  0.10566000000E+00 0.  1.
     999900   -1    0    0    0    0 -0.00000000000E+00 -0.00000000000E+00 -0.74505805969E-08  0.93827000000E+00  0.93827000000E+00 0. -1.
     999902    2    1    2    0    0  0.15286196514E-01 -0.66528732180E-02 -0.15344961668E-01  0.10212717482E+01  0.10210203658E+01 0.  0.
     999903    2    3    3    0    0  0.50438215246E-02 -0.27485794983E-01  0.12524757433E+00  0.12980936647E+00  0.19560360073E-01 0.  0.
         14    1    1    2    0    0 -0.15286196514E-01  0.66528732180E-02  0.15344961668E-01  0.22658251798E-01  0.00000000000E+00 0.  1.
     999901    1    3    3    0    0  0.10242374990E-01  0.20832921765E-01 -0.14059253599E+00  0.89146238174E+00  0.88000000000E+00 0. -1.
        -11    1    4    4    0    0 -0.61220370137E-02 -0.12107817155E-01  0.72020372448E-01  0.73288974219E-01  0.51100000000E-03 0.  1.
         11    1    4    4    0    0  0.11165858538E-01 -0.15377977828E-01  0.53227201878E-01  0.56520392247E-01  0.51100000000E-03 0. -1.
</event>
<event>
 8    1  0.1138737E+005  0.1043930E+01  0.7957747E-01            NaN
         13   -1    0    0    0    0  0.00000000000E+00  0.00000000000E+00  0.74505805969E-08  0.10566000000E+00  0.10566000000E+00 0.  1.
     999900   -1    0    0    0    0 -0.00000000000E+00 -0.00000000000E+00 -0.74505805969E-08  0.93827000000E+00  0.93827000000E+00 0. -1.
     999902    2    1    2    0    0  0.17107729715E-01  0.16301645001E-01 -0.35770779383E-02  0.10200299261E+01  0.10197498892E+01 0.  0.
     999903    2    3    3    0    0  0.13623951864E-01 -0.72045972472E-01  0.10403849487E+00  0.12907619569E+00  0.21457438473E-01 0.  0.
         14    1    1    2    0    0 -0.17107729715E-01 -0.16301645001E-01  0.35770779383E-02  0.23900073897E-01  0.00000000000E+00 0.  1.
     999901    1    3    3    0    0  0.34837778506E-02  0.88347617473E-01 -0.10761557281E+00  0.89095373041E+00  0.88000000000E+00 0. -1.
        -11    1    4    4    0    0  0.18897409919E-01 -0.45430640136E-01  0.69349542502E-01  0.85033377747E-01  0.51100000000E-03 0.  1.
         11    1    4    4    0    0 -0.52734580543E-02 -0.26615332337E-01  0.34688952368E-01  0.44042817946E-01  0.51100000000E-03 0. -1.
</event>
<event>
 8    1  0.1138737E+005  0.1043930E+01  0.7957747E-01            NaN
         13   -1    0    0    0    0  0.00000000000E+00  0.00000000000E+00  0.74505805969E-08  0.10566000000E+00  0.10566000000E+00 0.  1.
     999900   -1    0    0    0    0 -0.00000000000E+00 -0.00000000000E+00 -0.74505805969E-08  0.93827000000E+00  0.93827000000E+00 0.  1.
     999902    2    1    2    0    0 -0.13792994167E-01 -0.14327972060E-01 -0.20814532868E-01  0.10151414215E+01  0.10147331292E+01 0.  0.
     999903    2    3    3    0    0  0.70799945221E-01 -0.95610739122E-01  0.35095117958E-01  0.12559730084E+00  0.19722296883E-01 0.  0.
         14    1    1    2    0    0  0.13792994167E-01  0.14327972060E-01  0.20814532868E-01  0.28788578464E-01  0.00000000000E+00 0.  1.
     999901    1    3    3    0    0 -0.84592939388E-01  0.81282767061E-01 -0.55909650826E-01  0.88954412070E+00  0.88000000000E+00 0. -1.
        -11    1    4    4    0    0  0.20822278683E-01 -0.14707787988E-01  0.73600835433E-02  0.26538995230E-01  0.51100000000E-03 0. -1.
         11    1    4    4    0    0  0.49977666538E-01 -0.80902951134E-01  0.27735034415E-01  0.99058305607E-01  0.51100000000E-03 0.  1.
</event>
<event>
 8    1  0.1138737E+005  0.1043930E+01  0.7957747E-01            NaN
         13   -1    0    0    0    0  0.00000000000E+00  0.00000000000E+00  0.74505805969E-08  0.10566000000E+00  0.10566000000E+00 0. -1.
     999900   -1    0    0    0    0 -0.00000000000E+00 -0.00000000000E+00 -0.74505805969E-08  0.93827000000E+00  0.93827000000E+00 0. -1.
     999902    2    1    2    0    0  0.24049028974E-01 -0.52625608883E-02  0.34984770480E-02  0.10190645685E+01  0.10187611620E+01 0.  0.
     999903    2    3    3    0    0 -0.43461931765E-01  0.95426891051E-01  0.70670799167E-01  0.12821765887E+00  0.21217331187E-01 0.  0.
         14    1    1    2    0    0 -0.24049028974E-01  0.52625608883E-02 -0.34984770480E-02  0.24865431493E-01  0.00000000000E+00 0.  1.
     999901    1    3    3    0    0  0.67510960739E-01 -0.10068945194E+00 -0.67172322119E-01  0.89084690964E+00  0.88000000000E+00 0.  1.
        -11    1    4    4    0    0 -0.31231487620E-01  0.81102730307E-01  0.65040694484E-01  0.10855234563E+00  0.51100000000E-03 0.  1.
         11    1    4    4    0    0 -0.12230444145E-01  0.14324160744E-01  0.56301046831E-02  0.19665313238E-01  0.51100000000E-03 0. -1.
</event>
<event>
 8    1  0.1138737E+005  0.1043930E+01  0.7957747E-01            NaN
         13   -1    0    0    0    0  0.00000000000E+00  0.00000000000E+00  0.74505805969E-08  0.10566000000E+00  0.10566000000E+00 0. -1.
     999900   -1    0    0    0    0 -0.00000000000E+00 -0.00000000000E+00 -0.74505805969E-08  0.93827000000E+00  0.93827000000E+00 0. -1.
     999902    2    1    2    0    0 -0.21286372038E-01 -0.74052254992E-02 -0.76409540716E-02  0.10201322863E+01  0.10198546712E+01 0.  0.
     999903    2    3    3    0    0  0.56987609811E-01 -0.93745898207E-01  0.65668585196E-01  0.12942705078E+00  0.20077780982E-01 0.  0.
         14    1    1    2    0    0  0.21286372038E-01  0.74052254992E-02  0.76409540716E-02  0.23797713722E-01  0.00000000000E+00 0.  1.
     999901    1    3    3    0    0 -0.78273981849E-01  0.86340672708E-01 -0.73309539267E-01  0.89070523550E+00  0.88000000000E+00 0.  1.
        -11    1    4    4    0    0  0.45582993034E-01 -0.75488720105E-01  0.42821449435E-01  0.98032105811E-01  0.51100000000E-03 0.  1.
         11    1    4    4    0    0  0.11404616776E-01 -0.18257178102E-01  0.22847135761E-01  0.31394944968E-01  0.51100000000E-03 0. -1.
</event>
<event>
 8    1  0.1138737E+005  0.1043930E+01  0.7957747E-01            NaN
         13   -1    0    0    0    0  0.00000000000E+00  0.00000000000E+00  0.74505805969E-08  0.10566000000E+00  0.10566000000E+00 0.  1.
     999900   -1    0    0    0    0 -0.00000000000E+00 -0.00000000000E+00 -0.74505805969E-08  0.93827000000E+00  0.93827000000E+00 0. -1.
     999902    2    1    2    0    0 -0.22180763468E-01 -0.95379460510E-02 -0.13879547943E-02  0.10197456021E+01  0.10194587819E+01 0.  0.
     999903    2    3    3    0    0  0.15331143509E-01 -0.11452822444E+00  0.57600714134E-01  0.13075192115E+00  0.20651015957E-01 0.  0.
         14    1    1    2    0    0  0.22180763468E-01  0.95379460510E-02  0.13879547943E-02  0.24184397892E-01  0.00000000000E+00 0.  1.
     999901    1    3    3    0    0 -0.37511906977E-01  0.10499027839E+00 -0.58988668928E-01  0.88899368096E+00  0.88000000000E+00 0. -1.
        -11    1    4    4    0    0  0.12036100577E-01 -0.50045696147E-01  0.15847462641E-01  0.53859470970E-01  0.51100000000E-03 0. -1.
         11    1    4    4    0    0  0.32950429316E-02 -0.64482528296E-01  0.41753251493E-01  0.76892450180E-01  0.51100000000E-03 0.  1.
</event>
<event>
 8    1  0.1138737E+005  0.1043930E+01  0.7957747E-01            NaN
         13   -1    0    0    0    0  0.00000000000E+00  0.00000000000E+00  0.74505805969E-08  0.10566000000E+00  0.10566000000E+00 0.  1.
     999900   -1    0    0    0    0 -0.00000000000E+00 -0.00000000000E+00 -0.74505805969E-08  0.93827000000E+00  0.93827000000E+00 0.  1.
     999902    2    1    2    0    0 -0.13963812278E-02 -0.22607882746E-01 -0.82623096398E-02  0.10198191725E+01  0.10195341155E+01 0.  0.
     999903    2    3    3    0    0 -0.39070710787E-01 -0.11049197043E-01  0.12137462603E+00  0.12944919691E+00  0.19408491418E-01 0.  0.
         14    1    1    2    0    0  0.13963812278E-02  0.22607882746E-01  0.82623096398E-02  0.24110827513E-01  0.00000000000E+00 0.  1.
     999901    1    3    3    0    0  0.37674329559E-01 -0.11558685703E-01 -0.12963693567E+00  0.89036997558E+00  0.88000000000E+00 0.  1.
        -11    1    4    4    0    0 -0.10724738234E-01 -0.10795612165E-01  0.59007598170E-01  0.60940323391E-01  0.51100000000E-03 0.  1.
         11    1    4    4    0    0 -0.28345972553E-01 -0.25358487775E-03  0.62367027861E-01  0.68508873516E-01  0.51100000000E-03 0. -1.
</event>
<event>
 8    1  0.1138737E+005  0.1043930E+01  0.7957747E-01            NaN
         13   -1    0    0    0    0  0.00000000000E+00  0.00000000000E+00  0.74505805969E-08  0.10566000000E+00  0.10566000000E+00 0. -1.
     999900   -1    0    0    0    0 -0.00000000000E+00 -0.00000000000E+00 -0.74505805969E-08  0.93827000000E+00  0.93827000000E+00 0. -1.
     999902    2    1    2    0    0  0.11416975283E-01 -0.20265269329E-01 -0.41722299304E-02  0.10202987502E+01  0.10200250505E+01 0.  0.
     999903    2    3    3    0    0  0.94597506559E-01  0.24760814641E-01 -0.85683704934E-01  0.13148466974E+00  0.19614660269E-01 0.  0.
         14    1    1    2    0    0 -0.11416975283E-01  0.20265269329E-01  0.41722299304E-02  0.23631249823E-01  0.00000000000E+00 0. -1.
     999901    1    3    3    0    0 -0.83180531276E-01 -0.45026083970E-01  0.81511475004E-01  0.88881408043E+00  0.88000000000E+00 0.  1.
        -11    1    4    4    0    0  0.60089835255E-01  0.93358371889E-02 -0.43066184490E-01  0.74517806762E-01  0.51100000000E-03 0.  1.
         11    1    4    4    0    0  0.34507671303E-01  0.15424977452E-01 -0.42617520444E-01  0.56966862981E-01  0.51100000000E-03 0. -1.
</event>
<event>
 8    1  0.1138737E+005  0.1043930E+01  0.7957747E-01            NaN
         13   -1    0    0    0    0  0.00000000000E+00  0.00000000000E+00  0.74505805969E-08  0.10566000000E+00  0.10566000000E+00 0.  1.
     999900   -1    0    0    0    0 -0.00000000000E+00 -0.00000000000E+00 -0.74505805969E-08  0.93827000000E+00  0.93827000000E+00 0.  1.
     999902    2    1    2    0    0 -0.73020100224E-02 -0.20516223688E-01  0.12701668929E-01  0.10187195423E+01  0.10184075504E+01 0.  0.
     999903    2    3    3    0    0 -0.20802528141E-01 -0.10564456793E+00  0.74081410879E-01  0.13238068400E+00  0.21049231518E-01 0.  0.
         14    1    1    2    0    0  0.73020100224E-02  0.20516223688E-01 -0.12701668929E-01  0.25210457718E-01  0.00000000000E+00 0. -1.
     999901    1    3    3    0    0  0.13500518119E-01  0.85128344242E-01 -0.61379741951E-01  0.88633885828E+00  0.88000000000E+00 0.  1.
        -11    1    4    4    0    0  0.30447723205E-02 -0.35000016406E-01  0.24670727003E-01  0.42932245210E-01  0.51100000000E-03 0. -1.
         11    1    4    4    0    0 -0.23847300462E-01 -0.70644551525E-01  0.49410683876E-01  0.89448438788E-01  0.51100000000E-03 0.  1.
</event>
<event>
 8    1  0.1138737E+005  0.1043930E+01  0.7957747E-01            NaN
         13   -1    0    0    0    0  0.00000000000E+00  0.00000000000E+00  0.74505805969E-08  0.10566000000E+00  0.10566000000E+00 0.  1.
     999900   -1    0    0    0    0 -0.00000000000E+00 -0.00000000000E+00 -0.74505805969E-08  0.93827000000E+00  0.93827000000E+00 0.  1.
     999902    2    1    2    0    0 -0.22300665366E-01  0.73209997917E-02  0.54675562150E-02  0.10198299816E+01  0.10195451832E+01 0.  0.
     999903    2    3    3    0    0  0.18758711304E-01 -0.87255047208E-01 -0.90313272816E-01  0.12864848033E+00  0.20702940158E-01 0.  0.
         14    1    1    2    0    0  0.22300665366E-01 -0.73209997917E-02 -0.54675562150E-02  0.24100018354E-01  0.00000000000E+00 0.  1.
     999901    1    3    3    0    0 -0.41059376669E-01  0.94576047000E-01  0.95780829031E-01  0.89118150132E+00  0.88000000000E+00 0. -1.
        -11    1    4    4    0    0  0.16311859764E-02 -0.55113393396E-01 -0.52200374458E-01  0.75929487775E-01  0.51100000000E-03 0. -1.
         11    1    4    4    0    0  0.17127525327E-01 -0.32141653812E-01 -0.38112898359E-01  0.52718992554E-01  0.51100000000E-03 0.  1.
</event>
<event>
 8    1  0.1138737E+005  0.1043930E+01  0.7957747E-01            NaN
         13   -1    0    0    0    0  0.00000000000E+00  0.00000000000E+00  0.74505805969E-08  0.10566000000E+00  0.10566000000E+00 0.  1.
     999900   -1    0    0    0    0 -0.00000000000E+00 -0.00000000000E+00 -0.74505805969E-08  0.93827000000E+00  0.93827000000E+00 0. -1.
     999902    2    1    2    0    0  0.18534763312E-01  0.11571878343E-02  0.16144949348E-01  0.10193223605E+01  0.10190252885E+01 0.  0.
     999903    2    3    3    0    0  0.32415477137E-01 -0.11376457003E+00 -0.48533188477E-01  0.12938812347E+00  0.19816042966E-01 0.  0.
         14    1    1    2    0    0 -0.18534763312E-01 -0.11571878343E-02 -0.16144949348E-01  0.24607639548E-01  0.00000000000E+00 0. -1.
     999901    1    3    3    0    0 -0.13880713825E-01  0.11492175786E+00  0.64678137824E-01  0.88993423699E+00  0.88000000000E+00 0. -1.
        -11    1    4    4    0    0  0.18373735424E-01 -0.35863028268E-01 -0.21924865092E-01  0.45877137882E-01  0.51100000000E-03 0. -1.
         11    1    4    4    0    0  0.14041741713E-01 -0.77901541760E-01 -0.26608323385E-01  0.83510985584E-01  0.51100000000E-03 0.  1.
</event>
<event>
 8    1  0.1138737E+005  0.1043930E+01  0.7957747E-01            NaN
         13   -1    0    0    0    0  0.00000000000E+00  0.00000000000E+00  0.74505805969E-08  0.10566000000E+00  0.10566000000E+00 0.  1.
     999900   -1    0    0    0    0 -0.00000000000E+00 -0.00000000000E+00 -0.74505805969E-08  0.93827000000E+00  0.93827000000E+00 0. -1.
     999902    2    1    2    0    0 -0.51082213661E-02 -0.21168398430E-01 -0.37764161815E-02  0.10218289517E+01  0.10215899129E+01 0.  0.
     999903    2    3    3    0    0 -0.63317384968E-01  0.11057803884E+00  0.13738710040E-01  0.12994767589E+00  0.21472130830E-01 0.  0.
         14    1    1    2    0    0  0.51082213661E-02  0.21168398430E-01  0.37764161815E-02  0.22101048319E-01  0.00000000000E+00 0. -1.
     999901    1    3    3    0    0  0.58209163602E-01 -0.13174643727E+00 -0.17515126222E-01  0.89188127579E+00  0.88000000000E+00 0.  1.
        -11    1    4    4    0    0 -0.40634065390E-01  0.88705198450E-01  0.12915608353E-01  0.98421611256E-01  0.51100000000E-03 0. -1.
         11    1    4    4    0    0 -0.22683319578E-01  0.21872840391E-01  0.82310168758E-03  0.31526064633E-01  0.51100000000E-03 0.  1.
</event>
<event>
 8    1  0.1138737E+005  0.1043930E+01  0.7957747E-01            NaN
         13   -1    0    0    0    0  0.00000000000E+00  0.00000000000E+00  0.74505805969E-08  0.10566000000E+00  0.10566000000E+00 0. -1.
     999900   -1    0    0    0    0 -0.00000000000E+00 -0.00000000000E+00 -0.74505805969E-08  0.93827000000E+00  0.93827000000E+00 0. -1.
     999902    2    1    2    0    0 -0.72907285272E-04  0.12125379693E-01  0.20418502034E-01  0.10201824659E+01  0.10199060341E+01 0.  0.
     999903    2    3    3    0    0  0.10445386855E+00  0.33072129243E-01 -0.66043492334E-01  0.12954208417E+00  0.20372341654E-01 0.  0.
         14    1    1    2    0    0  0.72907285272E-04 -0.12125379693E-01 -0.20418502034E-01  0.23747534050E-01  0.00000000000E+00 0.  1.
     999901    1    3    3    0    0 -0.10452677583E+00 -0.20946749550E-01  0.86461994367E-01  0.89064038178E+00  0.88000000000E+00 0.  1.
        -11    1    4    4    0    0  0.73186949369E-01  0.13273670416E-01 -0.42297630267E-01  0.85567929339E-01  0.51100000000E-03 0.  1.
         11    1    4    4    0    0  0.31266919181E-01  0.19798458827E-01 -0.23745862067E-01  0.43974154833E-01  0.51100000000E-03 0. -1.
</event>
<event>
 8    1  0.1138737E+005  0.1043930E+01  0.7957747E-01            NaN
         13   -1    0    0    0    0  0.00000000000E+00  0.00000000000E+00  0.74505805969E-08  0.10566000000E+00  0.10566000000E+00 0. -1.
     999900   -1    0    0    0    0 -0.00000000000E+00 -0.00000000000E+00 -0.74505805969E-08  0.93827000000E+00  0.93827000000E+00 0.  1.
     999902    2    1    2    0    0  0.80636260597E-02 -0.18305034351E-01  0.99656154664E-02  0.10215825205E+01  0.10213380617E+01 0.  0.
     999903    2    3    3    0    0 -0.11722051057E+00 -0.47283810278E-01 -0.28399606353E-01  0.13140963023E+00  0.22035118907E-01 0.  0.
         14    1    1    2    0    0 -0.80636260597E-02  0.18305034351E-01 -0.99656154664E-02  0.22347479488E-01  0.00000000000E+00 0.  1.
     999901    1    3    3    0    0  0.12528413662E+00  0.28978775927E-01  0.38365221819E-01  0.89017289028E+00  0.88000000000E+00 0. -1.
        -11    1    4    4    0    0 -0.85191783243E-01 -0.28432723175E-01 -0.28549908333E-01  0.94241275809E-01  0.51100000000E-03 0.  1.
         11    1    4    4    0    0 -0.32028727322E-01 -0.18851087104E-01  0.15030198046E-03  0.37168354423E-01  0.51100000000E-03 0. -1.
</event>
<event>
 8    1  0.1138737E+005  0.1043930E+01  0.7957747E-01            NaN
         13   -1    0    0    0    0  0.00000000000E+00  0.00000000000E+00  0.74505805969E-08  0.10566000000E+00  0.10566000000E+00 0. -1.
     999900   -1    0    0    0    0 -0.00000000000E+00 -0.00000000000E+00 -0.74505805969E-08  0.93827000000E+00  0.93827000000E+00 0. -1.
     999902    2    1    2    0    0 -0.26975032950E-02  0.21882342957E-01 -0.99165073937E-02  0.10197545874E+01  0.10194679828E+01 0.  0.
     999903    2    3    3    0    0  0.75777126984E-01 -0.74270997316E-01 -0.70430811773E-01  0.12898766303E+00  0.20468608934E-01 0.  0.
         14    1    1    2    0    0  0.26975032950E-02 -0.21882342957E-01  0.99165073937E-02  0.24175412638E-01  0.00000000000E+00 0.  1.
     999901    1    3    3    0    0 -0.78474630279E-01  0.96153340273E-01  0.60514304379E-01  0.89076692433E+00  0.88000000000E+00 0.  1.
        -11    1    4    4    0    0  0.51810686551E-01 -0.55944215959E-01 -0.39894990682E-01  0.86057968502E-01  0.51100000000E-03 0.  1.
         11    1    4    4    0    0  0.23966440433E-01 -0.18326781357E-01 -0.30535821090E-01  0.42929694532E-01  0.51100000000E-03 0. -1.
</event>
<event>
 8    1  0.1138737E+005  0.1043930E+01  0.7957747E-01            NaN
         13   -1    0    0    0    0  0.00000000000E+00  0.00000000000E+00  0.74505805969E-08  0.10566000000E+00  0.10566000000E+00 0. -1.
     999900   -1    0    0    0    0 -0.00000000000E+00 -0.00000000000E+00 -0.74505805969E-08  0.93827000000E+00  0.93827000000E+00 0.  1.
     999902    2    1    2    0    0  0.20548968722E-02  0.22277796520E-01 -0.95444139584E-02  0.10196067877E+01  0.10193166254E+01 0.  0.
     999903    2    3    3    0    0 -0.65891379999E-01  0.21136988553E-01 -0.10910518167E+00  0.13138927805E+00  0.23890489208E-01 0.  0.
         14    1    1    2    0    0 -0.20548968722E-02 -0.22277796520E-01  0.95444139584E-02  0.24323212303E-01  0.00000000000E+00 0. -1.
     999901    1    3    3    0    0  0.67946276871E-01  0.11408079663E-02  0.99560767713E-01  0.88821750965E+00  0.88000000000E+00 0. -1.
        -11    1    4    4    0    0 -0.35174308174E-01  0.37558091019E-02 -0.37484808048E-01  0.51543282908E-01  0.51100000000E-03 0. -1.
         11    1    4    4    0    0 -0.30717071825E-01  0.17381179451E-01 -0.71620373623E-01  0.79845995138E-01  0.51100000000E-03 0.  1.
</event>
<event>
 8    1  0.1138737E+005  0.1043930E+01  0.7957747E-01            NaN
         13   -1    0    0    0    0  0.00000000000E+00  0.00000000000E+00  0.74505805969E-08  0.10566000000E+00  0.10566000000E+00 0.  1.
     999900   -1    0    0    0    0 -0.00000000000E+00 -0.00000000000E+00 -0.74505805969E-08  0.93827000000E+00  0.93827000000E+00 0.  1.
     999902    2    1    2    0    0  0.36177832378E-02  0.20369685967E-01 -0.14204723893E-01  0.10188344497E+01  0.10185253307E+01 0.  0.
     999903    2    3    3    0    0 -0.20000208765E-01  0.12394954169E+00 -0.36300417790E-01  0.13216945339E+00  0.19686209429E-01 0.  0.
         14    1    1    2    0    0 -0.36177832378E-02 -0.20369685967E-01  0.14204723893E-01  0.25095550260E-01  0.00000000000E+00 0.  1.
     999901    1    3    3    0    0  0.23617992003E-01 -0.10357985573E+00  0.22095693896E-01  0.88666499635E+00  0.88000000000E+00 0. -1.
        -11    1    4    4    0    0 -0.12055975513E-01  0.11051743746E+00 -0.28780956820E-01  0.11483925777E+00  0.51100000000E-03 0.  1.
         11    1    4    4    0    0 -0.79442332516E-02  0.13432104234E-01 -0.75194609697E-02  0.17330195624E-01  0.51100000000E-03 0. -1.
</event>
<event>
 8    1  0.1138737E+005  0.1043930E+01  0.7957747E-01            NaN
         13   -1    0    0    0    0  0.00000000000E+00  0.00000000000E+00  0.74505805969E-08  0.10566000000E+00  0.10566000000E+00 0.  1.
     999900   -1    0    0    0    0 -0.00000000000E+00 -0.00000000000E+00 -0.74505805969E-08  0.93827000000E+00  0.93827000000E+00 0.  1.
     999902    2    1    2    0    0  0.17181631797E-02 -0.18104965150E-01 -0.14423972183E-01  0.10207180888E+01  0.10204541264E+01 0.  0.
     999903    2    3    3    0    0 -0.41465886647E-02 -0.87154217762E-01 -0.99133894550E-01  0.13393854148E+00  0.22337232930E-01 0.  0.
         14    1    1    2    0    0 -0.17181631797E-02  0.18104965150E-01  0.14423972183E-01  0.23211911195E-01  0.00000000000E+00 0.  1.
     999901    1    3    3    0    0  0.58647518444E-02  0.69049252612E-01  0.84709922367E-01  0.88677954732E+00  0.88000000000E+00 0. -1.
        -11    1    4    4    0    0  0.29924322722E-02 -0.11209875141E-01 -0.46609582629E-02  0.12514056277E-01  0.51100000000E-03 0. -1.
         11    1    4    4    0    0 -0.71390209370E-02 -0.75944342621E-01 -0.94472936287E-01  0.12142448521E+00  0.51100000000E-03 0.  1.
</event>
<event>
 8    1  0.1138737E+005  0.1043930E+01  0.7957747E-01            NaN
         13   -1    0    0    0    0  0.00000000000E+00  0.00000000000E+00  0.74505805969E-08  0.10566000000E+00  0.10566000000E+00 0.  1.
     999900   -1    0    0    0    0 -0.00000000000E+00 -0.00000000000E+00 -0.74505805969E-08  0.93827000000E+00  0.93827000000E+00 0.  1.
     999902    2    1    2    0    0 -0.19158685693E-01  0.73317144947E-02 -0.19135291007E-01  0.10158770387E+01  0.10154896303E+01 0.  0.
     999903    2    3    3    0    0 -0.11531043920E+00 -0.40801433098E-01 -0.35858979200E-01  0.12917435949E+00  0.20949807381E-01 0.  0.
         14    1    1    2    0    0  0.19158685693E-01 -0.73317144947E-02  0.19135291007E-01  0.28052961285E-01  0.00000000000E+00 0.  1.
     999901    1    3    3    0    0  0.96151753505E-01  0.48133147592E-01  0.16723688194E-01  0.88670267923E+00  0.88000000000E+00 0. -1.
        -11    1    4    4    0    0 -0.41853668041E-01 -0.72402120588E-02 -0.52291373483E-02  0.42799009306E-01  0.51100000000E-03 0. -1.
         11    1    4    4    0    0 -0.73456771157E-01 -0.33561221039E-01 -0.30629841852E-01  0.86375350184E-01  0.51100000000E-03 0.  1.
</event>
<event>
 8    1  0.1138737E+005  0.1043930E+01  0.7957747E-01            NaN
         13   -1    0    0    0    0  0.00000000000E+00  0.00000000000E+00  0.74505805969E-08  0.10566000000E+00  0.10566000000E+00 0.  1.
     999900   -1    0    0    0    0 -0.00000000000E+00 -0.00000000000E+00 -0.74505805969E-08  0.93827000000E+00  0.93827000000E+00 0. -1.
     999902    2    1    2    0    0 -0.83984931822E-02 -0.11507525274E-01  0.22807115432E-02  0.10295022673E+01  0.10294011652E+01 0.  0.
     999903    2    3    3    0    0  0.92978045833E-01 -0.61032071284E-01 -0.79856225279E-01  0.13850487128E+00  0.20898610515E-01 0.  0.
         14    1    1    2    0    0  0.83984931822E-02  0.11507525274E-01 -0.22807115432E-02  0.14427732698E-01  0.00000000000E+00 0. -1.
     999901    1    3    3    0    0 -0.10137653902E+00  0.49524546009E-01  0.82136936822E-01  0.89099739602E+00  0.88000000000E+00 0.  1.
        -11    1    4    4    0    0  0.44221569192E-01 -0.41471099368E-01 -0.43234416311E-01  0.74463918372E-01  0.51100000000E-03 0. -1.
         11    1    4    4    0    0  0.48756476641E-01 -0.19560971916E-01 -0.36621808968E-01  0.64040952912E-01  0.51100000000E-03 0.  1.
</event>
<event>
 8    1  0.1138737E+005  0.1043930E+01  0.7957747E-01            NaN
         13   -1    0    0    0    0  0.00000000000E+00  0.00000000000E+00  0.74505805969E-08  0.10566000000E+00  0.10566000000E+00 0.  1.
     999900   -1    0    0    0    0 -0.00000000000E+00 -0.00000000000E+00 -0.74505805969E-08  0.93827000000E+00  0.93827000000E+00 0. -1.
     999902    2    1    2    0    0  0.62281381052E-02 -0.72572782653E-02  0.21595140646E-01  0.10203120430E+01  0.10200386548E+01 0.  0.
     999903    2    3    3    0    0  0.31475258463E-01  0.11162290411E+00 -0.52541951072E-01  0.12887151040E+00  0.19920967652E-01 0.  0.
         14    1    1    2    0    0 -0.62281381052E-02  0.72572782653E-02 -0.21595140646E-01  0.23617956973E-01  0.00000000000E+00 0. -1.
     999901    1    3    3    0    0 -0.25247120358E-01 -0.11888018237E+00  0.74137091718E-01  0.89144053263E+00  0.88000000000E+00 0.  1.
        -11    1    4    4    0    0  0.47669201240E-02  0.49105140883E-01 -0.27021967556E-01  0.56253766453E-01  0.51100000000E-03 0.  1.
         11    1    4    4    0    0  0.26708338339E-01  0.62517763227E-01 -0.25519983516E-01  0.72617743943E-01  0.51100000000E-03 0. -1.
</event>
<event>
 8    1  0.1138737E+005  0.1043930E+01  0.7957747E-01            NaN
         13   -1    0    0    0    0  0.00000000000E+00  0.00000000000E+00  0.74505805969E-08  0.10566000000E+00  0.10566000000E+00 0. -1.
     999900   -1    0    0    0    0 -0.00000000000E+00 -0.00000000000E+00 -0.74505805969E-08  0.93827000000E+00  0.93827000000E+00 0. -1.
     999902    2    1    2    0    0  0.10443599142E-01  0.21801980785E-01  0.14576230603E-02  0.10197118293E+01  0.10194241977E+01 0.  0.
     999903    2    3    3    0    0  0.37111211002E-01 -0.63420876571E-01  0.10447470652E+00  0.12921386945E+00  0.19539963863E-01 0.  0.
         14    1    1    2    0    0 -0.10443599142E-01 -0.21801980785E-01 -0.14576230603E-02  0.24218170744E-01  0.00000000000E+00 0. -1.
     999901    1    3    3    0    0 -0.26667611860E-01  0.85222857356E-01 -0.10301708346E+00  0.89049795981E+00  0.88000000000E+00 0.  1.
        -11    1    4    4    0    0  0.86372151939E-02 -0.31826261435E-01  0.53186639025E-01  0.62582682069E-01  0.51100000000E-03 0. -1.
         11    1    4    4    0    0  0.28473995808E-01 -0.31594615136E-01  0.51288067497E-01  0.66631187379E-01  0.51100000000E-03 0.  1.
</event>
<event>
 8    1  0.1138737E+005  0.1043930E+01  0.7957747E-01            NaN
         13   -1    0    0    0    0  0.00000000000E+00  0.00000000000E+00  0.74505805969E-08  0.10566000000E+00  0.10566000000E+00 0. -1.
     999900   -1    0    0    0    0 -0.00000000000E+00 -0.00000000000E+00 -0.74505805969E-08  0.93827000000E+00  0.93827000000E+00 0.  1.
     999902    2    1    2    0    0  0.12529627862E-01 -0.10219496651E-01  0.17388237230E-01  0.10201859380E+01  0.10199095880E+01 0.  0.
     999903    2    3    3    0    0 -0.20434383917E-01  0.11547598889E+00  0.52245177279E-01  0.12996069267E+00  0.20197896766E-01 0.  0.
         14    1    1    2    0    0 -0.12529627862E-01  0.10219496651E-01 -0.17388237230E-01  0.23744061997E-01  0.00000000000E+00 0. -1.
     999901    1    3    3    0    0  0.32964011779E-01 -0.12569548554E+00 -0.34856940049E-01  0.89022524533E+00  0.88000000000E+00 0. -1.
        -11    1    4    4    0    0  0.18606165947E-02  0.34362034946E-01  0.20420894604E-01  0.40018563157E-01  0.51100000000E-03 0.  1.
         11    1    4    4    0    0 -0.22295000512E-01  0.81113953946E-01  0.31824282675E-01  0.89942129513E-01  0.51100000000E-03 0. -1.
</event>
<event>
 8    1  0.1138737E+005  0.1043930E+01  0.7957747E-01            NaN
         13   -1    0    0    0    0  0.00000000000E+00  0.00000000000E+00  0.74505805969E-08  0.10566000000E+00  0.10566000000E+00 0.  1.
     999900   -1    0    0    0    0 -0.00000000000E+00 -0.00000000000E+00 -0.74505805969E-08  0.93827000000E+00  0.93827000000E+00 0. -1.
     999902    2    1    2    0    0  0.10818281038E-01  0.10050578952E-01  0.14783538251E-01  0.10230349684E+01  0.10228215603E+01 0.  0.
     999903    2    3    3    0    0 -0.97514002879E-01 -0.79296477760E-01 -0.31292970310E-01  0.13071113430E+00  0.17585178322E-01 0.  0.
         14    1    1    2    0    0 -0.10818281038E-01 -0.10050578952E-01 -0.14783538251E-01  0.20895031589E-01  0.00000000000E+00 0.  1.
     999901    1    3    3    0    0  0.10833228392E+00  0.89347056712E-01  0.46076508561E-01  0.89232383411E+00  0.88000000000E+00 0.  1.
        -11    1    4    4    0    0 -0.60295057241E-01 -0.45494995570E-01 -0.10337127324E-01  0.76239136091E-01  0.51100000000E-03 0. -1.
         11    1    4    4    0    0 -0.37218945638E-01 -0.33801482189E-01 -0.20955842986E-01  0.54471998209E-01  0.51100000000E-03 0.  1.
</event>
<event>
 8    1  0.1138737E+005  0.1043930E+01  0.7957747E-01            NaN
         13   -1    0    0    0    0  0.00000000000E+00  0.00000000000E+00  0.74505805969E-08  0.10566000000E+00  0.10566000000E+00 0.  1.
     999900   -1    0    0    0    0 -0.00000000000E+00 -0.00000000000E+00 -0.74505805969E-08  0.93827000000E+00  0.93827000000E+00 0. -1.
     999902    2    1    2    0    0 -0.17199605462E-01  0.14532289065E-01  0.84418798788E-02  0.10198825638E+01  0.10195990215E+01 0.  0.
     999903    2    3    3    0    0 -0.90802508820E-01  0.17985230800E-01 -0.90983070945E-01  0.13122366912E+00  0.19317556875E-01 0.  0.
         14    1    1    2    0    0  0.17199605462E-01 -0.14532289065E-01 -0.84418798788E-02  0.24047436233E-01  0.00000000000E+00 0. -1.
     999901    1    3    3    0    0  0.73602903358E-01 -0.34529417358E-02  0.99424950824E-01  0.88865889465E+00  0.88000000000E+00 0.  1.
        -11    1    4    4    0    0 -0.53290757355E-01  0.80998830507E-03 -0.51642966113E-01  0.74214674900E-01  0.51100000000E-03 0.  1.
         11    1    4    4    0    0 -0.37511751464E-01  0.17175242495E-01 -0.39340104832E-01  0.57008994219E-01  0.51100000000E-03 0. -1.
</event>
<event>
 8    1  0.1138737E+005  0.1043930E+01  0.7957747E-01            NaN
         13   -1    0    0    0    0  0.00000000000E+00  0.00000000000E+00  0.74505805969E-08  0.10566000000E+00  0.10566000000E+00 0.  1.
     999900   -1    0    0    0    0 -0.00000000000E+00 -0.00000000000E+00 -0.74505805969E-08  0.93827000000E+00  0.93827000000E+00 0.  1.
     999902    2    1    2    0    0  0.14123897514E-01  0.18347220167E-01  0.46199805818E-02  0.10203196381E+01  0.10200464277E+01 0.  0.
     999903    2    3    3    0    0  0.22886142270E-01 -0.33581403554E-01 -0.12170139836E+00  0.12974092193E+00  0.19235131602E-01 0.  0.
         14    1    1    2    0    0 -0.14123897514E-01 -0.18347220167E-01 -0.46199805818E-02  0.23610361908E-01  0.00000000000E+00 0.  1.
     999901    1    3    3    0    0 -0.87622447554E-02  0.51928623721E-01  0.12632137895E+00  0.89057871616E+00  0.88000000000E+00 0. -1.
        -11    1    4    4    0    0  0.17215264229E-01 -0.32020038424E-01 -0.83308717986E-01  0.90896929522E-01  0.51100000000E-03 0.  1.
         11    1    4    4    0    0  0.56708780402E-02 -0.15613651303E-02 -0.38392680379E-01  0.38843992412E-01  0.51100000000E-03 0. -1.
</event>
<event>
 8    1  0.1138737E+005  0.1043930E+01  0.7957747E-01            NaN
         13   -1    0    0    0    0  0.00000000000E+00  0.00000000000E+00  0.74505805969E-08  0.10566000000E+00  0.10566000000E+00 0.  1.
     999900   -1    0    0    0    0 -0.00000000000E+00 -0.00000000000E+00 -0.74505805969E-08  0.93827000000E+00  0.93827000000E+00 0. -1.
     999902    2    1    2    0    0 -0.12466883225E-01 -0.16535756061E-01 -0.12359236409E-01  0.10198135092E+01  0.10195283166E+01 0.  0.
     999903    2    3    3    0    0 -0.92606982479E-01 -0.82639755327E-01  0.37778418792E-01  0.13228550470E+00  0.25823699647E-01 0.  0.
         14    1    1    2    0    0  0.12466883225E-01  0.16535756061E-01  0.12359236409E-01  0.24116490841E-01  0.00000000000E+00 0. -1.
     999901    1    3    3    0    0  0.80140099254E-01  0.66103999266E-01 -0.50137655201E-01  0.88752800446E+00  0.88000000000E+00 0.  1.
        -11    1    4    4    0    0 -0.71937812318E-01 -0.68858929732E-01  0.40048541463E-01  0.10733474665E+00  0.51100000000E-03 0.  1.
         11    1    4    4    0    0 -0.20669170161E-01 -0.13780825594E-01 -0.22701226711E-02  0.24950758048E-01  0.51100000000E-03 0. -1.
</event>
<event>
 8    1  0.1138737E+005  0.1043930E+01  0.7957747E-01            NaN
         13   -1    0    0    0    0  0.00000000000E+00  0.00000000000E+00  0.74505805969E-08  0.10566000000E+00  0.10566000000E+00 0.  1.
     999900   -1    0    0    0    0 -0.00000000000E+00 -0.00000000000E+00 -0.74505805969E-08  0.93827000000E+00  0.93827000000E+00 0.  1.
     999902    2    1    2    0    0  0.14342914682E-01  0.28127672125E-02  0.17660865260E-01  0.10210054057E+01  0.10207480108E+01 0.  0.
     999903    2    3    3    0    0  0.34903871184E-02  0.83922942567E-01  0.10138927959E+00  0.13325145036E+00  0.20516332890E-01 0.  0.
         14    1    1    2    0    0 -0.14342914682E-01 -0.28127672125E-02 -0.17660865260E-01  0.22924594276E-01  0.00000000000E+00 0.  1.
     999901    1    3    3    0    0  0.10852527563E-01 -0.81110175354E-01 -0.83728414332E-01  0.88775395537E+00  0.88000000000E+00 0.  1.
        -11    1    4    4    0    0 -0.23575289824E-02  0.26093032932E-01  0.46109720814E-01  0.53035570941E-01  0.51100000000E-03 0. -1.
         11    1    4    4    0    0  0.58479161008E-02  0.57829909635E-01  0.55279558778E-01  0.80215879418E-01  0.51100000000E-03 0.  1.
</event>
<event>
 8    1  0.1138737E+005  0.1043930E+01  0.7957747E-01            NaN
         13   -1    0    0    0    0  0.00000000000E+00  0.00000000000E+00  0.74505805969E-08  0.10566000000E+00  0.10566000000E+00 0.  1.
     999900   -1    0    0    0    0 -0.00000000000E+00 -0.00000000000E+00 -0.74505805969E-08  0.93827000000E+00  0.93827000000E+00 0.  1.
     999902    2    1    2    0    0 -0.13801665290E-01 -0.17844475303E-01  0.12836756164E-01  0.10179743923E+01  0.10176434394E+01 0.  0.
     999903    2    3    3    0    0  0.18707594886E-01  0.33133652003E-02  0.12692365929E+00  0.12976252133E+00  0.19176656636E-01 0.  0.
         14    1    1    2    0    0  0.13801665290E-01  0.17844475303E-01 -0.12836756164E-01  0.25955607726E-01  0.00000000000E+00 0. -1.
     999901    1    3    3    0    0 -0.32509260175E-01 -0.21157840504E-01 -0.11408690313E+00  0.88821187094E+00  0.88000000000E+00 0.  1.
        -11    1    4    4    0    0 -0.15065718126E-02 -0.19160483953E-02  0.49758361225E-01  0.49820644646E-01  0.51100000000E-03 0.  1.
         11    1    4    4    0    0  0.20214166698E-01  0.52294135957E-02  0.77165298066E-01  0.79941876689E-01  0.51100000000E-03 0. -1.
</event>
<event>
 8    1  0.1138737E+005  0.1043930E+01  0.7957747E-01            NaN
         13   -1    0    0    0    0  0.00000000000E+00  0.00000000000E+00  0.74505805969E-08  0.10566000000E+00  0.10566000000E+00 0. -1.
     999900   -1    0    0    0    0 -0.00000000000E+00 -0.00000000000E+00 -0.74505805969E-08  0.93827000000E+00  0.93827000000E+00 0. -1.
     999902    2    1    2    0    0  0.54570538359E-02 -0.85844356685E-02  0.20775427258E-01  0.10207979800E+01  0.10205358522E+01 0.  0.
     999903    2    3    3    0    0 -0.69200060740E-01 -0.11027106284E+00 -0.27475414023E-02  0.13149084240E+00  0.18273941656E-01 0.  0.
         14    1    1    2    0    0 -0.54570538359E-02  0.85844356685E-02 -0.20775427258E-01  0.23132020017E-01  0.00000000000E+00 0.  1.
     999901    1    3    3    0    0  0.74657114576E-01  0.10168662718E+00  0.23522968660E-01  0.88930713758E+00  0.88000000000E+00 0. -1.
        -11    1    4    4    0    0 -0.48792188704E-01 -0.70482417419E-01  0.59578522979E-02  0.85931402693E-01  0.51100000000E-03 0.  1.
         11    1    4    4    0    0 -0.20407872037E-01 -0.39788645426E-01 -0.87053937003E-02  0.45559439706E-01  0.51100000000E-03 0. -1.
</event>
<event>
 8    1  0.1138737E+005  0.1043930E+01  0.7957747E-01            NaN
         13   -1    0    0    0    0  0.00000000000E+00  0.00000000000E+00  0.74505805969E-08  0.10566000000E+00  0.10566000000E+00 0.  1.
     999900   -1    0    0    0    0 -0.00000000000E+00 -0.00000000000E+00 -0.74505805969E-08  0.93827000000E+00  0.93827000000E+00 0.  1.
     999902    2    1    2    0    0  0.86366821295E-02 -0.13606720606E-01  0.18092854320E-01  0.10197001320E+01  0.10194122193E+01 0.  0.
     999903    2    3    3    0    0 -0.96590772349E-01 -0.81796160197E-02 -0.81165456176E-01  0.12787364508E+00  0.19161273679E-01 0.  0.
         14    1    1    2    0    0 -0.86366821295E-02  0.13606720606E-01 -0.18092854320E-01  0.24229867959E-01  0.00000000000E+00 0. -1.
     999901    1    3    3    0    0  0.10522745448E+00 -0.54271045868E-02  0.99258310496E-01  0.89182648696E+00  0.88000000000E+00 0. -1.
        -11    1    4    4    0    0 -0.32868591407E-01  0.56979261449E-02 -0.31671595206E-01  0.46001757872E-01  0.51100000000E-03 0.  1.
         11    1    4    4    0    0 -0.63722180942E-01 -0.13877542165E-01 -0.49493860970E-01  0.81871887210E-01  0.51100000000E-03 0. -1.
</event>
<event>
 8    1  0.1138737E+005  0.1043930E+01  0.7957747E-01            NaN
         13   -1    0    0    0    0  0.00000000000E+00  0.00000000000E+00  0.74505805969E-08  0.10566000000E+00  0.10566000000E+00 0.  1.
     999900   -1    0    0    0    0 -0.00000000000E+00 -0.00000000000E+00 -0.74505805969E-08  0.93827000000E+00  0.93827000000E+00 0. -1.
     999902    2    1    2    0    0  0.20364195753E-01  0.96010663561E-02  0.45163540034E-02  0.10209674566E+01  0.10207091991E+01 0.  0.
     999903    2    3    3    0    0  0.68109763927E-01  0.41898431276E-01 -0.10484366601E+00  0.13232671200E+00  0.11124114429E-01 0.  0.
         14    1    1    2    0    0 -0.20364195753E-01 -0.96010663561E-02 -0.45163540034E-02  0.22962543355E-01  0.00000000000E+00 0. -1.
     999901    1    3    3    0    0 -0.47745568174E-01 -0.32297364919E-01  0.10936002001E+00  0.88864074464E+00  0.88000000000E+00 0.  1.
        -11    1    4    4    0    0  0.57644153920E-01  0.31027072494E-01 -0.81699429931E-01  0.10469281580E+00  0.51100000000E-03 0.  1.
         11    1    4    4    0    0  0.10465610007E-01  0.10871358782E-01 -0.23144236077E-01  0.27633896200E-01  0.51100000000E-03 0. -1.
</event>
<event>
 8    1  0.1138737E+005  0.1043930E+01  0.7957747E-01            NaN
         13   -1    0    0    0    0  0.00000000000E+00  0.00000000000E+00  0.74505805969E-08  0.10566000000E+00  0.10566000000E+00 0.  1.
     999900   -1    0    0    0    0 -0.00000000000E+00 -0.00000000000E+00 -0.74505805969E-08  0.93827000000E+00  0.93827000000E+00 0.  1.
     999902    2    1    2    0    0 -0.59386766196E-02 -0.19981490632E-01  0.10769345560E-01  0.10204671218E+01  0.10201973535E+01 0.  0.
     999903    2    3    3    0    0 -0.52414414723E-01 -0.11514753148E+00  0.38607178589E-01  0.13367993513E+00  0.19328371414E-01 0.  0.
         14    1    1    2    0    0  0.59386766196E-02  0.19981490632E-01 -0.10769345560E-01  0.23462878162E-01  0.00000000000E+00 0. -1.
     999901    1    3    3    0    0  0.46475738104E-01  0.95166040845E-01 -0.27837833028E-01  0.88678718671E+00  0.88000000000E+00 0.  1.
        -11    1    4    4    0    0 -0.37085364221E-01 -0.85678843311E-01  0.19570568985E-01  0.95391072549E-01  0.51100000000E-03 0.  1.
         11    1    4    4    0    0 -0.15329050502E-01 -0.29468688166E-01  0.19036609604E-01  0.38288862581E-01  0.51100000000E-03 0. -1.
</event>
<event>
 8    1  0.1138737E+005  0.1043930E+01  0.7957747E-01            NaN
         13   -1    0    0    0    0  0.00000000000E+00  0.00000000000E+00  0.74505805969E-08  0.10566000000E+00  0.10566000000E+00 0. -1.
     999900   -1    0    0    0    0 -0.00000000000E+00 -0.00000000000E+00 -0.74505805969E-08  0.93827000000E+00  0.93827000000E+00 0.  1.
     999902    2    1    2    0    0  0.23593433674E-01  0.10443277701E-02  0.35769226563E-02  0.10200441232E+01  0.10197644229E+01 0.  0.
     999903    2    3    3    0    0 -0.10190124551E+00  0.23359810436E-01  0.71758208345E-01  0.12825065893E+00  0.19220990370E-01 0.  0.
         14    1    1    2    0    0 -0.23593433674E-01 -0.10443277701E-02 -0.35769226563E-02  0.23885876762E-01  0.00000000000E+00 0. -1.
     999901    1    3    3    0    0  0.12549467918E+00 -0.22315482666E-01 -0.68181285688E-01  0.89179346431E+00  0.88000000000E+00 0.  1.
        -11    1    4    4    0    0 -0.59796072427E-02 -0.97630536045E-03  0.96747478225E-02  0.11426755505E-01  0.51100000000E-03 0. -1.
         11    1    4    4    0    0 -0.95921638264E-01  0.24336115797E-01  0.62083460522E-01  0.11682390342E+00  0.51100000000E-03 0.  1.
</event>
<event>
 8    1  0.1138737E+005  0.1043930E+01  0.7957747E-01            NaN
         13   -1    0    0    0    0  0.00000000000E+00  0.00000000000E+00  0.74505805969E-08  0.10566000000E+00  0.10566000000E+00 0. -1.
     999900   -1    0    0    0    0 -0.00000000000E+00 -0.00000000000E+00 -0.74505805969E-08  0.93827000000E+00  0.93827000000E+00 0.  1.
     999902    2    1    2    0    0 -0.12794698628E-01 -0.90212204298E-02  0.17988607459E-01  0.10200830562E+01  0.10198042777E+01 0.  0.
     999903    2    3    3    0    0 -0.69383635172E-01  0.52749235516E-02 -0.10715387322E+00  0.12931522563E+00  0.19964002257E-01 0.  0.
         14    1    1    2    0    0  0.12794698628E-01  0.90212204298E-02 -0.17988607459E-01  0.23846943815E-01  0.00000000000E+00 0. -1.
     999901    1    3    3    0    0  0.56588936545E-01 -0.14296143981E-01  0.12514248068E+00  0.89076783055E+00  0.88000000000E+00 0. -1.
        -11    1    4    4    0    0 -0.20796666623E-01 -0.38104784716E-02 -0.46395533865E-01  0.50988506278E-01  0.51100000000E-03 0.  1.
         11    1    4    4    0    0 -0.48586968549E-01  0.90854020232E-02 -0.60758339358E-01  0.78326719357E-01  0.51100000000E-03 0. -1.
</event>
<event>
 8    1  0.1138737E+005  0.1043930E+01  0.7957747E-01            NaN
         13   -1    0    0    0    0  0.00000000000E+00  0.00000000000E+00  0.74505805969E-08  0.10566000000E+00  0.10566000000E+00 0.  1.
     999900   -1    0    0    0    0 -0.00000000000E+00 -0.00000000000E+00 -0.74505805969E-08  0.93827000000E+00  0.93827000000E+00 0.  1.
     999902    2    1    2    0    0 -0.24049035542E-01  0.65002780245E-03 -0.57652980467E-02  0.10191910164E+01  0.10188907256E+01 0.  0.
     999903    2    3    3    0    0  0.34617222198E-01  0.21712525981E-01  0.11986331772E+00  0.12808613611E+00  0.19210868556E-01 0.  0.
         14    1    1    2    0    0  0.24049035542E-01 -0.65002780245E-03  0.57652980467E-02  0.24738983573E-01  0.00000000000E+00 0.  1.
     999901    1    3    3    0    0 -0.58666257741E-01 -0.21062498179E-01 -0.12562861577E+00  0.89110488032E+00  0.88000000000E+00 0.  1.
        -11    1    4    4    0    0  0.30980441842E-01  0.98165724290E-02  0.81019221242E-01  0.87295636790E-01  0.51100000000E-03 0.  1.
         11    1    4    4    0    0  0.36367803563E-02  0.11895953552E-01  0.38844096480E-01  0.40790499319E-01  0.51100000000E-03 0. -1.
</event>
<event>
 8    1  0.1412456E+005  0.1043930E+01  0.7957747E-01            NaN
         13   -1    0    0    0    0  0.00000000000E+00  0.00000000000E+00  0.74505805969E-08  0.10566000000E+00  0.10566000000E+00 0.  1.
     999900   -1    0    0    0    0 -0.00000000000E+00 -0.00000000000E+00 -0.74505805969E-08  0.93827000000E+00  0.93827000000E+00 0. -1.
     999902    2    1    2    0    0 -0.16585719912E-01 -0.82673871532E-02  0.13118508900E-01  0.10212246907E+01  0.10209722512E+01 0.  0.
     999903    2    3    3    0    0 -0.65326072688E-01 -0.11304478143E+00 -0.15956163284E-01  0.13319357586E+00  0.20959750041E-01 0.  0.
         14    1    1    2    0    0  0.16585719912E-01  0.82673871532E-02 -0.13118508900E-01  0.22705309315E-01  0.00000000000E+00 0. -1.
     999901    1    3    3    0    0  0.48740352776E-01  0.10477739428E+00  0.29074672184E-01  0.88803111483E+00  0.88000000000E+00 0.  1.
        -11    1    4    4    0    0 -0.43784832171E-01 -0.69736620853E-01 -0.28049821045E-03  0.82344687846E-01  0.51100000000E-03 0.  1.
         11    1    4    4    0    0 -0.21541240517E-01 -0.43308160575E-01 -0.15675665074E-01  0.50848888011E-01  0.51100000000E-03 0. -1.
</event>
<event>
 8    1  0.1138737E+005  0.1043930E+01  0.7957747E-01            NaN
         13   -1    0    0    0    0  0.00000000000E+00  0.00000000000E+00  0.74505805969E-08  0.10566000000E+00  0.10566000000E+00 0.  1.
     999900   -1    0    0    0    0 -0.00000000000E+00 -0.00000000000E+00 -0.74505805969E-08  0.93827000000E+00  0.93827000000E+00 0.  1.
     999902    2    1    2    0    0  0.15998793622E-01  0.22877052640E-01  0.38871686897E-02  0.10157443474E+01  0.10153532135E+01 0.  0.
     999903    2    3    3    0    0 -0.10306347325E+00  0.18168132239E-01  0.66318552824E-01  0.12552208575E+00  0.20136608838E-01 0.  0.
         14    1    1    2    0    0 -0.15998793622E-01 -0.22877052640E-01 -0.38871686897E-02  0.28185652650E-01  0.00000000000E+00 0.  1.
     999901    1    3    3    0    0  0.11906226687E+00  0.47089204017E-02 -0.62431384134E-01  0.89022226160E+00  0.88000000000E+00 0.  1.
        -11    1    4    4    0    0 -0.73347617268E-01  0.10769577622E-01  0.56978629504E-01  0.93502310678E-01  0.51100000000E-03 0.  1.
         11    1    4    4    0    0 -0.29715855980E-01  0.73985546171E-02  0.93399233200E-02  0.32019775072E-01  0.51100000000E-03 0. -1.
</event>
<event>
 8    1  0.1138737E+005  0.1043930E+01  0.7957747E-01            NaN
         13   -1    0    0    0    0  0.00000000000E+00  0.00000000000E+00  0.74505805969E-08  0.10566000000E+00  0.10566000000E+00 0. -1.
     999900   -1    0    0    0    0 -0.00000000000E+00 -0.00000000000E+00 -0.74505805969E-08  0.93827000000E+00  0.93827000000E+00 0. -1.
     999902    2    1    2    0    0 -0.10000351781E-01 -0.84152311777E-02 -0.19954782111E-01  0.10200759337E+01  0.10197969866E+01 0.  0.
     999903    2    3    3    0    0  0.14303555996E-01 -0.11549176973E+00  0.54747990890E-01  0.13011156959E+00  0.19716425714E-01 0.  0.
         14    1    1    2    0    0  0.10000351781E-01  0.84152311777E-02  0.19954782111E-01  0.23854066333E-01  0.00000000000E+00 0. -1.
     999901    1    3    3    0    0 -0.24303907776E-01  0.10707653856E+00 -0.74702773001E-01  0.88996436408E+00  0.88000000000E+00 0. -1.
        -11    1    4    4    0    0  0.11687145799E-01 -0.28195815799E-01  0.17273272462E-01  0.35074498828E-01  0.51100000000E-03 0. -1.
         11    1    4    4    0    0  0.26164101965E-02 -0.87295953936E-01  0.37474718427E-01  0.95037070757E-01  0.51100000000E-03 0.  1.
</event>
<event>
 8    1  0.1138737E+005  0.1043930E+01  0.7957747E-01            NaN
         13   -1    0    0    0    0  0.00000000000E+00  0.00000000000E+00  0.74505805969E-08  0.10566000000E+00  0.10566000000E+00 0. -1.
     999900   -1    0    0    0    0 -0.00000000000E+00 -0.00000000000E+00 -0.74505805969E-08  0.93827000000E+00  0.93827000000E+00 0. -1.
     999902    2    1    2    0    0 -0.95297248384E-02  0.11334930853E-01  0.18463937571E-01  0.10202611744E+01  0.10199865934E+01 0.  0.
     999903    2    3    3    0    0 -0.10249514180E+00 -0.76828767434E-01 -0.13723942561E-01  0.13040081119E+00  0.20201766305E-01 0.  0.
         14    1    1    2    0    0  0.95297248384E-02 -0.11334930853E-01 -0.18463937571E-01  0.23668825564E-01  0.00000000000E+00 0.  1.
     999901    1    3    3    0    0  0.92965416962E-01  0.88163698287E-01  0.32187880131E-01  0.88986036324E+00  0.88000000000E+00 0. -1.
        -11    1    4    4    0    0 -0.86414241163E-01 -0.60003165648E-01 -0.43209087944E-02  0.10529355316E+00  0.51100000000E-03 0.  1.
         11    1    4    4    0    0 -0.16080900638E-01 -0.16825601787E-01 -0.94030337662E-02  0.25107258030E-01  0.51100000000E-03 0. -1.
</event>
<event>
 8    1  0.1138737E+005  0.1043930E+01  0.7957747E-01            NaN
         13   -1    0    0    0    0  0.00000000000E+00  0.00000000000E+00  0.74505805969E-08  0.10566000000E+00  0.10566000000E+00 0.  1.
     999900   -1    0    0    0    0 -0.00000000000E+00 -0.00000000000E+00 -0.74505805969E-08  0.93827000000E+00  0.93827000000E+00 0.  1.
     999902    2    1    2    0    0  0.15733776151E-01 -0.95145491511E-02  0.14585271671E-01  0.10204606901E+01  0.10201907721E+01 0.  0.
     999903    2    3    3    0    0  0.50070932582E-01 -0.32866101998E-01  0.11764490123E+00  0.13347386800E+00  0.19689380495E-01 0.  0.
         14    1    1    2    0    0 -0.15733776151E-01  0.95145491511E-02 -0.14585271671E-01  0.23469309901E-01  0.00000000000E+00 0.  1.
     999901    1    3    3    0    0 -0.34337156431E-01  0.23351552847E-01 -0.10305962956E+00  0.88698682210E+00  0.88000000000E+00 0.  1.
        -11    1    4    4    0    0  0.25149340824E-01 -0.23626843271E-01  0.49639100982E-01  0.60456749285E-01  0.51100000000E-03 0. -1.
         11    1    4    4    0    0  0.24921591758E-01 -0.92392587262E-02  0.68005800245E-01  0.73017118715E-01  0.51100000000E-03 0.  1.
</event>
<event>
 8    1  0.1138737E+005  0.1043930E+01  0.7957747E-01            NaN
         13   -1    0    0    0    0  0.00000000000E+00  0.00000000000E+00  0.74505805969E-08  0.10566000000E+00  0.10566000000E+00 0.  1.
     999900   -1    0    0    0    0 -0.00000000000E+00 -0.00000000000E+00 -0.74505805969E-08  0.93827000000E+00  0.93827000000E+00 0.  1.
     999902    2    1    2    0    0 -0.10586386498E-01  0.60208627279E-02  0.18486244899E-01  0.10217926195E+01  0.10215527855E+01 0.  0.
     999903    2    3    3    0    0 -0.42172031036E-01  0.10900904771E+00  0.62622470841E-01  0.13412588828E+00  0.20167482934E-01 0.  0.
         14    1    1    2    0    0  0.10586386498E-01 -0.60208627279E-02 -0.18486244899E-01  0.22137380548E-01  0.00000000000E+00 0. -1.
     999901    1    3    3    0    0  0.31585644538E-01 -0.10298818498E+00 -0.44136225942E-01  0.88766673117E+00  0.88000000000E+00 0. -1.
        -11    1    4    4    0    0 -0.14706489272E-01  0.24616310606E-01  0.74779111054E-02  0.29638216040E-01  0.51100000000E-03 0. -1.
         11    1    4    4    0    0 -0.27465541765E-01  0.84392737107E-01  0.55144559736E-01  0.10448767224E+00  0.51100000000E-03 0.  1.
</event>
<event>
 8    1  0.1138737E+005  0.1043930E+01  0.7957747E-01            NaN
         13   -1    0    0    0    0  0.00000000000E+00  0.00000000000E+00  0.74505805969E-08  0.10566000000E+00  0.10566000000E+00 0.  1.
     999900   -1    0    0    0    0 -0.00000000000E+00 -0.00000000000E+00 -0.74505805969E-08  0.93827000000E+00  0.93827000000E+00 0.  1.
     999902    2    1    2    0    0 -0.88349670106E-02 -0.56222360743E-02  0.20612580564E-01  0.10208097782E+01  0.10205479207E+01 0.  0.
     999903    2    3    3    0    0 -0.98271384300E-01 -0.76519435594E-01  0.42410109881E-01  0.13317222942E+00  0.20584855446E-01 0.  0.
         14    1    1    2    0    0  0.88349670106E-02  0.56222360743E-02 -0.20612580564E-01  0.23120221843E-01  0.00000000000E+00 0. -1.
     999901    1    3    3    0    0  0.89436417289E-01  0.70897199519E-01 -0.21797529317E-01  0.88763754873E+00  0.88000000000E+00 0. -1.
        -11    1    4    4    0    0 -0.76073086360E-01 -0.68304644392E-01  0.38101442085E-01  0.10910829448E+00  0.51100000000E-03 0.  1.
         11    1    4    4    0    0 -0.22198297939E-01 -0.82147912018E-02  0.43086677958E-02  0.24063934946E-01  0.51100000000E-03 0. -1.
</event>
<event>
 8    1  0.1138737E+005  0.1043930E+01  0.7957747E-01            NaN
         13   -1    0    0    0    0  0.00000000000E+00  0.00000000000E+00  0.74505805969E-08  0.10566000000E+00  0.10566000000E+00 0. -1.
     999900   -1    0    0    0    0 -0.00000000000E+00 -0.00000000000E+00 -0.74505805969E-08  0.93827000000E+00  0.93827000000E+00 0. -1.
     999902    2    1    2    0    0 -0.19368998499E-03 -0.19125319522E-01  0.14208844646E-01  0.10201034050E+01  0.10198251077E+01 0.  0.
     999903    2    3    3    0    0 -0.17897730919E-01 -0.99015728714E-01 -0.81727619192E-01  0.13111537605E+00  0.19682347224E-01 0.  0.
         14    1    1    2    0    0  0.19368998499E-03  0.19125319522E-01 -0.14208844646E-01  0.23826594990E-01  0.00000000000E+00 0.  1.
     999901    1    3    3    0    0  0.17704040934E-01  0.79890409191E-01  0.95936463839E-01  0.88898802896E+00  0.88000000000E+00 0.  1.
        -11    1    4    4    0    0 -0.13233883423E-01 -0.24460114032E-01 -0.22941697639E-01  0.36055727152E-01  0.51100000000E-03 0.  1.
         11    1    4    4    0    0 -0.46638474954E-02 -0.74555614682E-01 -0.58785921553E-01  0.95059648895E-01  0.51100000000E-03 0. -1.
</event>
<event>
 8    1  0.1138737E+005  0.1043930E+01  0.7957747E-01            NaN
         13   -1    0    0    0    0  0.00000000000E+00  0.00000000000E+00  0.74505805969E-08  0.10566000000E+00  0.10566000000E+00 0. -1.
     999900   -1    0    0    0    0 -0.00000000000E+00 -0.00000000000E+00 -0.74505805969E-08  0.93827000000E+00  0.93827000000E+00 0. -1.
     999902    2    1    2    0    0 -0.73172525898E-02 -0.52738142345E-02 -0.21913149569E-01  0.10202331347E+01  0.10199578950E+01 0.  0.
     999903    2    3    3    0    0 -0.59056032829E-02  0.12823802254E+00 -0.33387146309E-03  0.12990001244E+00  0.19850319589E-01 0.  0.
         14    1    1    2    0    0  0.73172525898E-02  0.52738142345E-02  0.21913149569E-01  0.23696865322E-01  0.00000000000E+00 0. -1.
     999901    1    3    3    0    0 -0.14116493069E-02 -0.13351183677E+00 -0.21579278106E-01  0.89033312224E+00  0.88000000000E+00 0. -1.
        -11    1    4    4    0    0 -0.34308279703E-02  0.77717799862E-01 -0.98918616847E-02  0.78421534317E-01  0.51100000000E-03 0. -1.
         11    1    4    4    0    0 -0.24747753125E-02  0.50520222673E-01  0.95579902216E-02  0.51478478123E-01  0.51100000000E-03 0.  1.
</event>
<event>
 8    1  0.1357535E+005  0.1043930E+01  0.7957747E-01            NaN
         13   -1    0    0    0    0  0.00000000000E+00  0.00000000000E+00  0.74505805969E-08  0.10566000000E+00  0.10566000000E+00 0. -1.
     999900   -1    0    0    0    0 -0.00000000000E+00 -0.00000000000E+00 -0.74505805969E-08  0.93827000000E+00  0.93827000000E+00 0.  1.
     999902    2    1    2    0    0 -0.97775511403E-02 -0.41978733579E-02 -0.20452864246E-01  0.10208747988E+01  0.10206144289E+01 0.  0.
     999903    2    3    3    0    0 -0.10342635041E+00 -0.12416301014E-01 -0.81491722757E-01  0.13376523261E+00  0.20026534600E-01 0.  0.
         14    1    1    2    0    0  0.97775511403E-02  0.41978733579E-02  0.20452864246E-01  0.23055201211E-01  0.00000000000E+00 0. -1.
     999901    1    3    3    0    0  0.93648799266E-01  0.82184276560E-02  0.61038858511E-01  0.88710956618E+00  0.88000000000E+00 0. -1.
        -11    1    4    4    0    0 -0.42437629937E-01 -0.14228612777E-01 -0.39456993373E-01  0.59670103933E-01  0.51100000000E-03 0. -1.
         11    1    4    4    0    0 -0.60988720469E-01  0.18123117634E-02 -0.42034729384E-01  0.74095128678E-01  0.51100000000E-03 0.  1.
</event>
<event>
 8    1  0.1138737E+005  0.1043930E+01  0.7957747E-01            NaN
         13   -1    0    0    0    0  0.00000000000E+00  0.00000000000E+00  0.74505805969E-08  0.10566000000E+00  0.10566000000E+00 0.  1.
     999900   -1    0    0    0    0 -0.00000000000E+00 -0.00000000000E+00 -0.74505805969E-08  0.93827000000E+00  0.93827000000E+00 0. -1.
     999902    2    1    2    0    0 -0.78343844440E-02  0.18401096095E-01 -0.13048480792E-01  0.10200502854E+01  0.10197707311E+01 0.  0.
     999903    2    3    3    0    0  0.22384984273E-02  0.11688265944E+00 -0.60735031269E-01  0.13321654205E+00  0.19782216777E-01 0.  0.
         14    1    1    2    0    0  0.78343844440E-02 -0.18401096095E-01  0.13048480792E-01  0.23879714573E-01  0.00000000000E+00 0.  1.
     999901    1    3    3    0    0 -0.10072882871E-01 -0.98481563345E-01  0.47686550476E-01  0.88683374337E+00  0.88000000000E+00 0.  1.
        -11    1    4    4    0    0 -0.26976155474E-05  0.58297695409E-01 -0.19257165160E-01  0.61398052316E-01  0.51100000000E-03 0. -1.
         11    1    4    4    0    0  0.22411960429E-02  0.58584964031E-01 -0.41477866108E-01  0.71818489737E-01  0.51100000000E-03 0.  1.
</event>
<event>
 8    1  0.1138737E+005  0.1043930E+01  0.7957747E-01            NaN
         13   -1    0    0    0    0  0.00000000000E+00  0.00000000000E+00  0.74505805969E-08  0.10566000000E+00  0.10566000000E+00 0.  1.
     999900   -1    0    0    0    0 -0.00000000000E+00 -0.00000000000E+00 -0.74505805969E-08  0.93827000000E+00  0.93827000000E+00 0.  1.
     999902    2    1    2    0    0  0.28128110717E-02  0.25708685912E-01  0.17966585695E-01  0.10124395786E+01  0.10119497288E+01 0.  0.
     999903    2    3    3    0    0 -0.78516260672E-01 -0.84677913697E-01 -0.28492219060E-01  0.12061109745E+00  0.20001950464E-01 0.  0.
         14    1    1    2    0    0 -0.28128110717E-02 -0.25708685912E-01 -0.17966585695E-01  0.31490421385E-01  0.00000000000E+00 0. -1.
     999901    1    3    3    0    0  0.81329071744E-01  0.11038659961E+00  0.46458804755E-01  0.89182848117E+00  0.88000000000E+00 0.  1.
        -11    1    4    4    0    0 -0.30662453869E-01 -0.36544115953E-01 -0.21656622806E-01  0.52392069252E-01  0.51100000000E-03 0. -1.
         11    1    4    4    0    0 -0.47853806803E-01 -0.48133797744E-01 -0.68355962536E-02  0.68219028195E-01  0.51100000000E-03 0.  1.
</event>
<event>
 8    1  0.1138737E+005  0.1043930E+01  0.7957747E-01            NaN
         13   -1    0    0    0    0  0.00000000000E+00  0.00000000000E+00  0.74505805969E-08  0.10566000000E+00  0.10566000000E+00 0.  1.
     999900   -1    0    0    0    0 -0.00000000000E+00 -0.00000000000E+00 -0.74505805969E-08  0.93827000000E+00  0.93827000000E+00 0. -1.
     999902    2    1    2    0    0 -0.61590124868E-02 -0.19206706433E-01  0.11759972448E-01  0.10205820245E+01  0.10203149224E+01 0.  0.
     999903    2    3    3    0    0 -0.14633323339E-01 -0.13101592607E+00 -0.13120912625E-02  0.13337066617E+00  0.20166952549E-01 0.  0.
         14    1    1    2    0    0  0.61590124868E-02  0.19206706433E-01 -0.11759972448E-01  0.23347975475E-01  0.00000000000E+00 0. -1.
     999901    1    3    3    0    0  0.84743108521E-02  0.11180921964E+00  0.13072063711E-01  0.88721135835E+00  0.88000000000E+00 0.  1.
        -11    1    4    4    0    0 -0.33084243788E-02 -0.96838867873E-01  0.39655177262E-02  0.96977824550E-01  0.51100000000E-03 0.  1.
         11    1    4    4    0    0 -0.11324898960E-01 -0.34177058200E-01 -0.52776089887E-02  0.36392841621E-01  0.51100000000E-03 0. -1.
</event>
<event>
 8    1  0.1138737E+005  0.1043930E+01  0.7957747E-01            NaN
         13   -1    0    0    0    0  0.00000000000E+00  0.00000000000E+00  0.74505805969E-08  0.10566000000E+00  0.10566000000E+00 0.  1.
     999900   -1    0    0    0    0 -0.00000000000E+00 -0.00000000000E+00 -0.74505805969E-08  0.93827000000E+00  0.93827000000E+00 0.  1.
     999902    2    1    2    0    0 -0.19487144735E-01  0.77618222863E-02  0.22802778199E-01  0.10129467563E+01  0.10124727995E+01 0.  0.
     999903    2    3    3    0    0  0.94709064163E-01  0.61893107781E-01 -0.40752770980E-01  0.12164979233E+00  0.18366273589E-01 0.  0.
         14    1    1    2    0    0  0.19487144735E-01 -0.77618222863E-02 -0.22802778199E-01  0.30983243676E-01  0.00000000000E+00 0. -1.
     999901    1    3    3    0    0 -0.11419620890E+00 -0.54131285495E-01  0.63555549179E-01  0.89129696400E+00  0.88000000000E+00 0. -1.
        -11    1    4    4    0    0  0.50184126728E-01  0.22525038818E-01 -0.16230954855E-01  0.57354415398E-01  0.51100000000E-03 0.  1.
         11    1    4    4    0    0  0.44524937435E-01  0.39368068963E-01 -0.24521816126E-01  0.64295376930E-01  0.51100000000E-03 0. -1.
</event>
<event>
 8    1  0.1138737E+005  0.1043930E+01  0.7957747E-01            NaN
         13   -1    0    0    0    0  0.00000000000E+00  0.00000000000E+00  0.74505805969E-08  0.10566000000E+00  0.10566000000E+00 0.  1.
     999900   -1    0    0    0    0 -0.00000000000E+00 -0.00000000000E+00 -0.74505805969E-08  0.93827000000E+00  0.93827000000E+00 0. -1.
     999902    2    1    2    0    0  0.40183589126E-02 -0.23445094586E-01 -0.35367237810E-02  0.10198815472E+01  0.10195979807E+01 0.  0.
     999903    2    3    3    0    0  0.11432973905E+00  0.55059549891E-01 -0.15338982932E-01  0.12944857770E+00  0.20464765010E-01 0.  0.
         14    1    1    2    0    0 -0.40183589126E-02  0.23445094586E-01  0.35367237810E-02  0.24048452832E-01  0.00000000000E+00 0. -1.
     999901    1    3    3    0    0 -0.11031138013E+00 -0.78504644477E-01  0.11802259151E-01  0.89043296947E+00  0.88000000000E+00 0. -1.
        -11    1    4    4    0    0  0.73961046470E-01  0.24588056669E-01 -0.10206981390E-01  0.78608221680E-01  0.51100000000E-03 0. -1.
         11    1    4    4    0    0  0.40368692577E-01  0.30471493222E-01 -0.51320015412E-02  0.50840356021E-01  0.51100000000E-03 0.  1.
</event>
<event>
 8    1  0.1138737E+005  0.1043930E+01  0.7957747E-01            NaN
         13   -1    0    0    0    0  0.00000000000E+00  0.00000000000E+00  0.74505805969E-08  0.10566000000E+00  0.10566000000E+00 0.  1.
     999900   -1    0    0    0    0 -0.00000000000E+00 -0.00000000000E+00 -0.74505805969E-08  0.93827000000E+00  0.93827000000E+00 0. -1.
     999902    2    1    2    0    0  0.20371164936E-02  0.19256782124E-01 -0.13874686486E-01  0.10201081523E+01  0.10198299672E+01 0.  0.
     999903    2    3    3    0    0  0.12044961437E+00  0.22426269442E-01 -0.45078382417E-01  0.13162335452E+00  0.16780933528E-01 0.  0.
         14    1    1    2    0    0 -0.20371164936E-02 -0.19256782124E-01  0.13874686486E-01  0.23821847671E-01  0.00000000000E+00 0.  1.
     999901    1    3    3    0    0 -0.11841249788E+00 -0.31694873173E-02  0.31203695931E-01  0.88848479781E+00  0.88000000000E+00 0.  1.
        -11    1    4    4    0    0  0.75773404092E-01  0.58353607563E-02 -0.28211725166E-01  0.81066779637E-01  0.51100000000E-03 0.  1.
         11    1    4    4    0    0  0.44676210278E-01  0.16590908685E-01 -0.16866657251E-01  0.50556574880E-01  0.51100000000E-03 0. -1.
</event>
<event>
 8    1  0.1138737E+005  0.1043930E+01  0.7957747E-01            NaN
         13   -1    0    0    0    0  0.00000000000E+00  0.00000000000E+00  0.74505805969E-08  0.10566000000E+00  0.10566000000E+00 0.  1.
     999900   -1    0    0    0    0 -0.00000000000E+00 -0.00000000000E+00 -0.74505805969E-08  0.93827000000E+00  0.93827000000E+00 0. -1.
     999902    2    1    2    0    0  0.33676569650E-02 -0.23222334632E-01 -0.60954844445E-03  0.10204568347E+01  0.10201868270E+01 0.  0.
     999903    2    3    3    0    0  0.12187744412E+00 -0.14889929521E-01 -0.42756731310E-01  0.13147405443E+00  0.19531193745E-01 0.  0.
         14    1    1    2    0    0 -0.33676569650E-02  0.23222334632E-01  0.60954844445E-03  0.23473165285E-01  0.00000000000E+00 0. -1.
     999901    1    3    3    0    0 -0.11850978715E+00 -0.83324051109E-02  0.42147182866E-01  0.88898278029E+00  0.88000000000E+00 0. -1.
        -11    1    4    4    0    0  0.84619351662E-01 -0.15757984491E-01 -0.37280620749E-01  0.93802209757E-01  0.51100000000E-03 0.  1.
         11    1    4    4    0    0  0.37258092456E-01  0.86805496978E-03 -0.54761105611E-02  0.37671844669E-01  0.51100000000E-03 0. -1.
</event>
<event>
 8    1  0.1138737E+005  0.1043930E+01  0.7957747E-01            NaN
         13   -1    0    0    0    0  0.00000000000E+00  0.00000000000E+00  0.74505805969E-08  0.10566000000E+00  0.10566000000E+00 0.  1.
     999900   -1    0    0    0    0 -0.00000000000E+00 -0.00000000000E+00 -0.74505805969E-08  0.93827000000E+00  0.93827000000E+00 0. -1.
     999902    2    1    2    0    0 -0.17232961953E-01 -0.14849298293E-01  0.69128282574E-02  0.10201547223E+01  0.10198776365E+01 0.  0.
     999903    2    3    3    0    0 -0.93409043625E-01 -0.93056235607E-01  0.15524398639E-02  0.13339215300E+00  0.20157975993E-01 0.  0.
         14    1    1    2    0    0  0.17232961953E-01  0.14849298293E-01 -0.69128282574E-02  0.23775277748E-01  0.00000000000E+00 0. -1.
     999901    1    3    3    0    0  0.76176081673E-01  0.78206937314E-01  0.53603883934E-02  0.88676256925E+00  0.88000000000E+00 0. -1.
        -11    1    4    4    0    0 -0.75614298779E-02 -0.65107976772E-02  0.55402315780E-02  0.11424578554E-01  0.51100000000E-03 0.  1.
         11    1    4    4    0    0 -0.85847613747E-01 -0.86545437930E-01 -0.39877917141E-02  0.12196757445E+00  0.51100000000E-03 0. -1.
</event>
<event>
 8    1  0.1138737E+005  0.1043930E+01  0.7957747E-01            NaN
         13   -1    0    0    0    0  0.00000000000E+00  0.00000000000E+00  0.74505805969E-08  0.10566000000E+00  0.10566000000E+00 0.  1.
     999900   -1    0    0    0    0 -0.00000000000E+00 -0.00000000000E+00 -0.74505805969E-08  0.93827000000E+00  0.93827000000E+00 0. -1.
     999902    2    1    2    0    0 -0.19737751131E-01 -0.11002425001E-01 -0.65783052434E-02  0.10203947865E+01  0.10201233327E+01 0.  0.
     999903    2    3    3    0    0  0.79483362327E-01  0.74039086878E-01  0.64727513591E-01  0.12789189691E+00  0.19164942106E-01 0.  0.
         14    1    1    2    0    0  0.19737751131E-01  0.11002425001E-01  0.65783052434E-02  0.23535213521E-01  0.00000000000E+00 0.  1.
     999901    1    3    3    0    0 -0.99221113457E-01 -0.85041511879E-01 -0.71305818834E-01  0.89250288957E+00  0.88000000000E+00 0.  1.
        -11    1    4    4    0    0  0.55749632345E-01  0.56695844748E-01  0.37875847206E-01  0.88075429269E-01  0.51100000000E-03 0.  1.
         11    1    4    4    0    0  0.23733729982E-01  0.17343242130E-01  0.26851666385E-01  0.39816467637E-01  0.51100000000E-03 0. -1.
</event>
<event>
 8    1  0.1138737E+005  0.1043930E+01  0.7957747E-01            NaN
         13   -1    0    0    0    0  0.00000000000E+00  0.00000000000E+00  0.74505805969E-08  0.10566000000E+00  0.10566000000E+00 0.  1.
     999900   -1    0    0    0    0 -0.00000000000E+00 -0.00000000000E+00 -0.74505805969E-08  0.93827000000E+00  0.93827000000E+00 0. -1.
     999902    2    1    2    0    0 -0.43760025418E-02 -0.67357226743E-02  0.25826457031E-01  0.10168832767E+01  0.10165235232E+01 0.  0.
     999903    2    3    3    0    0  0.23831782005E-01 -0.12450226044E+00  0.47341275538E-02  0.12833979275E+00  0.19491632849E-01 0.  0.
         14    1    1    2    0    0  0.43760025418E-02  0.67357226743E-02 -0.25826457031E-01  0.27046723294E-01  0.00000000000E+00 0. -1.
     999901    1    3    3    0    0 -0.28207784547E-01  0.11776653776E+00  0.21092329477E-01  0.88854348396E+00  0.88000000000E+00 0. -1.
        -11    1    4    4    0    0  0.14915906515E-01 -0.98541684918E-01  0.10722372199E-01  0.10024060215E+00  0.51100000000E-03 0.  1.
         11    1    4    4    0    0  0.89158754900E-02 -0.25960575518E-01 -0.59882446452E-02  0.28099190591E-01  0.51100000000E-03 0. -1.
</event>
<event>
 8    1  0.1138737E+005  0.1043930E+01  0.7957747E-01            NaN
         13   -1    0    0    0    0  0.00000000000E+00  0.00000000000E+00  0.74505805969E-08  0.10566000000E+00  0.10566000000E+00 0. -1.
     999900   -1    0    0    0    0 -0.00000000000E+00 -0.00000000000E+00 -0.74505805969E-08  0.93827000000E+00  0.93827000000E+00 0.  1.
     999902    2    1    2    0    0  0.15342320509E-01  0.11260257984E-01  0.13981111477E-01  0.10203153502E+01  0.10200420394E+01 0.  0.
     999903    2    3    3    0    0  0.39370494566E-01 -0.10391315178E+00  0.68248288916E-01  0.13082831035E+00  0.10499471086E-01 0.  0.
         14    1    1    2    0    0 -0.15342320509E-01 -0.11260257984E-01 -0.13981111477E-01  0.23614649830E-01  0.00000000000E+00 0. -1.
     999901    1    3    3    0    0 -0.24028174057E-01  0.11517340976E+00 -0.54267177439E-01  0.88948703982E+00  0.88000000000E+00 0.  1.
        -11    1    4    4    0    0  0.10407090748E-01 -0.18969106571E-01  0.16643600951E-01  0.27302108263E-01  0.51100000000E-03 0. -1.
         11    1    4    4    0    0  0.28963403818E-01 -0.84944045208E-01  0.51604687965E-01  0.10352620208E+00  0.51100000000E-03 0.  1.
</event>
<event>
 8    1  0.1138737E+005  0.1043930E+01  0.7957747E-01            NaN
         13   -1    0    0    0    0  0.00000000000E+00  0.00000000000E+00  0.74505805969E-08  0.10566000000E+00  0.10566000000E+00 0.  1.
     999900   -1    0    0    0    0 -0.00000000000E+00 -0.00000000000E+00 -0.74505805969E-08  0.93827000000E+00  0.93827000000E+00 0.  1.
     999902    2    1    2    0    0 -0.13823679296E-01 -0.42476008405E-02  0.17851115090E-01  0.10209561337E+01  0.10206976185E+01 0.  0.
     999903    2    3    3    0    0 -0.11190871213E+00 -0.68946465784E-01  0.35784072626E-02  0.13303140324E+00  0.20183514455E-01 0.  0.
         14    1    1    2    0    0  0.13823679296E-01  0.42476008405E-02 -0.17851115090E-01  0.22973866286E-01  0.00000000000E+00 0. -1.
     999901    1    3    3    0    0  0.98085032835E-01  0.64698864944E-01  0.14272707827E-01  0.88792473047E+00  0.88000000000E+00 0. -1.
        -11    1    4    4    0    0 -0.68940901490E-01 -0.40701581722E-01 -0.75585125332E-02  0.80416782364E-01  0.51100000000E-03 0. -1.
         11    1    4    4    0    0 -0.42967810641E-01 -0.28244884062E-01  0.11136919796E-01  0.52614620881E-01  0.51100000000E-03 0.  1.
</event>
<event>
 8    1  0.1138737E+005  0.1043930E+01  0.7957747E-01            NaN
         13   -1    0    0    0    0  0.00000000000E+00  0.00000000000E+00  0.74505805969E-08  0.10566000000E+00  0.10566000000E+00 0. -1.
     999900   -1    0    0    0    0 -0.00000000000E+00 -0.00000000000E+00 -0.74505805969E-08  0.93827000000E+00  0.93827000000E+00 0.  1.
     999902    2    1    2    0    0  0.16195623347E-01 -0.14950354415E-01 -0.11321594877E-01  0.10191511820E+01  0.10188499114E+01 0.  0.
     999903    2    3    3    0    0  0.11141480741E-01 -0.97548873004E-01  0.83282599472E-01  0.13022035607E+00  0.19530349294E-01 0.  0.
         14    1    1    2    0    0 -0.16195623347E-01  0.14950354415E-01  0.11321594877E-01  0.24778818036E-01  0.00000000000E+00 0. -1.
     999901    1    3    3    0    0  0.50541426059E-02  0.82598518589E-01 -0.94604194348E-01  0.88893082589E+00  0.88000000000E+00 0.  1.
        -11    1    4    4    0    0  0.73988149282E-02 -0.11700469909E-01  0.81327886354E-02  0.16063836106E-01  0.51100000000E-03 0. -1.
         11    1    4    4    0    0  0.37426658128E-02 -0.85848403095E-01  0.75149810836E-01  0.11415651997E+00  0.51100000000E-03 0.  1.
</event>
<event>
 8    1  0.1138737E+005  0.1043930E+01  0.7957747E-01            NaN
         13   -1    0    0    0    0  0.00000000000E+00  0.00000000000E+00  0.74505805969E-08  0.10566000000E+00  0.10566000000E+00 0.  1.
     999900   -1    0    0    0    0 -0.00000000000E+00 -0.00000000000E+00 -0.74505805969E-08  0.93827000000E+00  0.93827000000E+00 0. -1.
     999902    2    1    2    0    0  0.42728644592E-02 -0.23218304220E-01 -0.96087544986E-03  0.10203022556E+01  0.10200286381E+01 0.  0.
     999903    2    3    3    0    0 -0.24983868319E-01 -0.12293073175E+00  0.40041951834E-01  0.13323982466E+00  0.20330629216E-01 0.  0.
         14    1    1    2    0    0 -0.42728644592E-02  0.23218304220E-01  0.96087544986E-03  0.23627744352E-01  0.00000000000E+00 0. -1.
     999901    1    3    3    0    0  0.29256732778E-01  0.99712427533E-01 -0.41002827284E-01  0.88706243098E+00  0.88000000000E+00 0.  1.
        -11    1    4    4    0    0 -0.11157209924E-01 -0.19194657300E-01  0.40839357444E-02  0.22580032203E-01  0.51100000000E-03 0.  1.
         11    1    4    4    0    0 -0.13826658395E-01 -0.10373607445E+00  0.35958016090E-01  0.11065979246E+00  0.51100000000E-03 0. -1.
</event>
<event>
 8    1  0.1138737E+005  0.1043930E+01  0.7957747E-01            NaN
         13   -1    0    0    0    0  0.00000000000E+00  0.00000000000E+00  0.74505805969E-08  0.10566000000E+00  0.10566000000E+00 0. -1.
     999900   -1    0    0    0    0 -0.00000000000E+00 -0.00000000000E+00 -0.74505805969E-08  0.93827000000E+00  0.93827000000E+00 0.  1.
     999902    2    1    2    0    0 -0.16108234155E-01 -0.51432873789E-02  0.10529905268E-01  0.10240099719E+01  0.10238162018E+01 0.  0.
     999903    2    3    3    0    0  0.66824808993E-01 -0.10176583353E+00 -0.49310828586E-01  0.13283394024E+00  0.19785294826E-01 0.  0.
         14    1    1    2    0    0  0.16108234155E-01  0.51432873789E-02 -0.10529905268E-01  0.19920028052E-01  0.00000000000E+00 0.  1.
     999901    1    3    3    0    0 -0.82933043148E-01  0.96622546153E-01  0.59840733853E-01  0.89117603171E+00  0.88000000000E+00 0. -1.
        -11    1    4    4    0    0  0.48327851438E-01 -0.55984774600E-01 -0.29143411564E-01  0.79495130481E-01  0.51100000000E-03 0.  1.
         11    1    4    4    0    0  0.18496957555E-01 -0.45781058932E-01 -0.20167417022E-01  0.53338809755E-01  0.51100000000E-03 0. -1.
</event>
<event>
 8    1  0.1138737E+005  0.1043930E+01  0.7957747E-01            NaN
         13   -1    0    0    0    0  0.00000000000E+00  0.00000000000E+00  0.74505805969E-08  0.10566000000E+00  0.10566000000E+00 0.  1.
     999900   -1    0    0    0    0 -0.00000000000E+00 -0.00000000000E+00 -0.74505805969E-08  0.93827000000E+00  0.93827000000E+00 0.  1.
     999902    2    1    2    0    0 -0.20398830417E-01  0.10852453853E-01  0.48161019519E-02  0.10203273969E+01  0.10200543681E+01 0.  0.
     999903    2    3    3    0    0 -0.35575006643E-01  0.12071057991E+00 -0.36151586857E-01  0.13242116549E+00  0.19794005053E-01 0.  0.
         14    1    1    2    0    0  0.20398830417E-01 -0.10852453853E-01 -0.48161019519E-02  0.23602603141E-01  0.00000000000E+00 0. -1.
     999901    1    3    3    0    0  0.15176176226E-01 -0.10985812606E+00  0.40967688809E-01  0.88790623137E+00  0.88000000000E+00 0. -1.
        -11    1    4    4    0    0 -0.27472318113E-01  0.99091332455E-01 -0.21445551942E-01  0.10504281627E+00  0.51100000000E-03 0.  1.
         11    1    4    4    0    0 -0.81026885303E-02  0.21619247456E-01 -0.14706034915E-01  0.27378349218E-01  0.51100000000E-03 0. -1.
</event>
<event>
 8    1  0.1138737E+005  0.1043930E+01  0.7957747E-01            NaN
         13   -1    0    0    0    0  0.00000000000E+00  0.00000000000E+00  0.74505805969E-08  0.10566000000E+00  0.10566000000E+00 0.  1.
     999900   -1    0    0    0    0 -0.00000000000E+00 -0.00000000000E+00 -0.74505805969E-08  0.93827000000E+00  0.93827000000E+00 0.  1.
     999902    2    1    2    0    0 -0.92177321270E-02 -0.13183216850E-01  0.14974763344E-01  0.10219525723E+01  0.10217162290E+01 0.  0.
     999903    2    3    3    0    0  0.14885190281E-01 -0.87039978333E-01 -0.95571938927E-01  0.13164007351E+00  0.19939576847E-01 0.  0.
         14    1    1    2    0    0  0.92177321270E-02  0.13183216850E-01 -0.14974763344E-01  0.21977427722E-01  0.00000000000E+00 0.  1.
     999901    1    3    3    0    0 -0.24102922408E-01  0.73856761483E-01  0.11054670227E+00  0.89031249877E+00  0.88000000000E+00 0. -1.
        -11    1    4    4    0    0  0.25657313528E-02 -0.61822598757E-01 -0.58625731306E-01  0.85239979978E-01  0.51100000000E-03 0. -1.
         11    1    4    4    0    0  0.12319458929E-01 -0.25217379576E-01 -0.36946207621E-01  0.46400093529E-01  0.51100000000E-03 0.  1.
</event>
<event>
 8    1  0.1138737E+005  0.1043930E+01  0.7957747E-01            NaN
         13   -1    0    0    0    0  0.00000000000E+00  0.00000000000E+00  0.74505805969E-08  0.10566000000E+00  0.10566000000E+00 0.  1.
     999900   -1    0    0    0    0 -0.00000000000E+00 -0.00000000000E+00 -0.74505805969E-08  0.93827000000E+00  0.93827000000E+00 0. -1.
     999902    2    1    2    0    0  0.74284624807E-02 -0.19674982856E-01  0.10989146254E-01  0.10202013603E+01  0.10199253734E+01 0.  0.
     999903    2    3    3    0    0 -0.34937473403E-01  0.12065004490E+00  0.13920166190E-01  0.12807212260E+00  0.20775879706E-01 0.  0.
         14    1    1    2    0    0 -0.74284624807E-02  0.19674982856E-01 -0.10989146254E-01  0.23728639670E-01  0.00000000000E+00 0. -1.
     999901    1    3    3    0    0  0.42365935884E-01 -0.14032502776E+00 -0.29310199363E-02  0.89212923773E+00  0.88000000000E+00 0.  1.
        -11    1    4    4    0    0 -0.14511005318E-01  0.45479745449E-01  0.15389274190E-01  0.50160416690E-01  0.51100000000E-03 0.  1.
         11    1    4    4    0    0 -0.20426468085E-01  0.75170299452E-01 -0.14691079996E-02  0.77911705908E-01  0.51100000000E-03 0. -1.
</event>
<event>
 8    1  0.1138737E+005  0.1043930E+01  0.7957747E-01            NaN
         13   -1    0    0    0    0  0.00000000000E+00  0.00000000000E+00  0.74505805969E-08  0.10566000000E+00  0.10566000000E+00 0.  1.
     999900   -1    0    0    0    0 -0.00000000000E+00 -0.00000000000E+00 -0.74505805969E-08  0.93827000000E+00  0.93827000000E+00 0.  1.
     999902    2    1    2    0    0  0.67225839151E-02  0.14725798838E-01  0.17212872277E-01  0.10203010927E+01  0.10200274480E+01 0.  0.
     999903    2    3    3    0    0 -0.15242169931E-01 -0.12057954918E+00  0.41046985665E-01  0.12937008949E+00  0.16733606832E-01 0.  0.
         14    1    1    2    0    0 -0.67225839151E-02 -0.14725798838E-01 -0.17212872277E-01  0.23628907252E-01  0.00000000000E+00 0. -1.
     999901    1    3    3    0    0  0.21964753847E-01  0.13530534801E+00 -0.23834113389E-01  0.89093100326E+00  0.88000000000E+00 0. -1.
        -11    1    4    4    0    0 -0.24049057046E-02 -0.44109074769E-01  0.71904234997E-02  0.44758880231E-01  0.51100000000E-03 0.  1.
         11    1    4    4    0    0 -0.12837264227E-01 -0.76470474407E-01  0.33856562166E-01  0.84611209254E-01  0.51100000000E-03 0. -1.
</event>
<event>
 8    1  0.1138737E+005  0.1043930E+01  0.7957747E-01            NaN
         13   -1    0    0    0    0  0.00000000000E+00  0.00000000000E+00  0.74505805969E-08  0.10566000000E+00  0.10566000000E+00 0.  1.
     999900   -1    0    0    0    0 -0.00000000000E+00 -0.00000000000E+00 -0.74505805969E-08  0.93827000000E+00  0.93827000000E+00 0.  1.
     999902    2    1    2    0    0 -0.21301644622E-01 -0.25272424668E-02 -0.98276978272E-02  0.10203348593E+01  0.10200620052E+01 0.  0.
     999903    2    3    3    0    0 -0.84787545234E-01  0.58173779968E-01  0.79520598750E-01  0.13146018212E+00  0.19624916700E-01 0.  0.
         14    1    1    2    0    0  0.21301644622E-01  0.25272424668E-02  0.98276978272E-02  0.23595140658E-01  0.00000000000E+00 0. -1.
     999901    1    3    3    0    0  0.63485900611E-01 -0.60701022434E-01 -0.89348296577E-01  0.88887467722E+00  0.88000000000E+00 0.  1.
        -11    1    4    4    0    0 -0.30615396771E-01  0.22011973838E-01  0.17697793775E-01  0.41656962650E-01  0.51100000000E-03 0.  1.
         11    1    4    4    0    0 -0.54172148462E-01  0.36161806129E-01  0.61822804975E-01  0.89803219472E-01  0.51100000000E-03 0. -1.
</event>
<event>
 8    1  0.1138737E+005  0.1043930E+01  0.7957747E-01            NaN
         13   -1    0    0    0    0  0.00000000000E+00  0.00000000000E+00  0.74505805969E-08  0.10566000000E+00  0.10566000000E+00 0.  1.
     999900   -1    0    0    0    0 -0.00000000000E+00 -0.00000000000E+00 -0.74505805969E-08  0.93827000000E+00  0.93827000000E+00 0.  1.
     999902    2    1    2    0    0  0.44893873624E-02  0.22566116372E-01  0.43026096971E-02  0.10205228076E+01  0.10202543331E+01 0.  0.
     999903    2    3    3    0    0 -0.30711129546E-01  0.11657128563E+00 -0.51940644526E-01  0.13303232769E+00  0.21627102126E-01 0.  0.
         14    1    1    2    0    0 -0.44893873624E-02 -0.22566116372E-01 -0.43026096971E-02  0.23407192424E-01  0.00000000000E+00 0. -1.
     999901    1    3    3    0    0  0.35200516908E-01 -0.94005169257E-01  0.56243254224E-01  0.88749047988E+00  0.88000000000E+00 0. -1.
        -11    1    4    4    0    0 -0.22685090610E-01  0.98011752039E-01 -0.50977179234E-01  0.11278231598E+00  0.51100000000E-03 0. -1.
         11    1    4    4    0    0 -0.80260389354E-02  0.18559533590E-01 -0.96346529225E-03  0.20250011714E-01  0.51100000000E-03 0.  1.
</event>
<event>
 8    1  0.1138737E+005  0.1043930E+01  0.7957747E-01            NaN
         13   -1    0    0    0    0  0.00000000000E+00  0.00000000000E+00  0.74505805969E-08  0.10566000000E+00  0.10566000000E+00 0. -1.
     999900   -1    0    0    0    0 -0.00000000000E+00 -0.00000000000E+00 -0.74505805969E-08  0.93827000000E+00  0.93827000000E+00 0.  1.
     999902    2    1    2    0    0  0.26465019779E-02  0.23116412718E-01 -0.35441990682E-02  0.10203942005E+01  0.10201227331E+01 0.  0.
     999903    2    3    3    0    0 -0.97921920408E-01 -0.17660579431E-01 -0.81540554708E-01  0.13030420386E+00  0.20729807536E-01 0.  0.
         14    1    1    2    0    0 -0.26465019779E-02 -0.23116412718E-01  0.35441990682E-02  0.23535799471E-01  0.00000000000E+00 0.  1.
     999901    1    3    3    0    0  0.10056842239E+00  0.40776992150E-01  0.77996355640E-01  0.89008999666E+00  0.88000000000E+00 0. -1.
        -11    1    4    4    0    0 -0.81306378980E-01 -0.15368375613E-01 -0.56635767207E-01  0.10027355324E+00  0.51100000000E-03 0.  1.
         11    1    4    4    0    0 -0.16615541428E-01 -0.22922038181E-02 -0.24904787501E-01  0.30030650622E-01  0.51100000000E-03 0. -1.
</event>
<event>
 8    1  0.1138737E+005  0.1043930E+01  0.7957747E-01            NaN
         13   -1    0    0    0    0  0.00000000000E+00  0.00000000000E+00  0.74505805969E-08  0.10566000000E+00  0.10566000000E+00 0. -1.
     999900   -1    0    0    0    0 -0.00000000000E+00 -0.00000000000E+00 -0.74505805969E-08  0.93827000000E+00  0.93827000000E+00 0. -1.
     999902    2    1    2    0    0  0.79337666790E-03 -0.66809293894E-02  0.22746616041E-01  0.10202092748E+01  0.10199334741E+01 0.  0.
     999903    2    3    3    0    0 -0.50470234401E-01  0.10419814832E+00  0.57343463016E-01  0.13109788157E+00  0.22223481451E-01 0.  0.
         14    1    1    2    0    0 -0.79337666790E-03  0.66809293894E-02 -0.22746616041E-01  0.23720725228E-01  0.00000000000E+00 0.  1.
     999901    1    3    3    0    0  0.51263611069E-01 -0.11087907771E+00 -0.34596846975E-01  0.88911139320E+00  0.88000000000E+00 0. -1.
        -11    1    4    4    0    0 -0.39549910801E-01  0.72346084441E-01  0.50638667586E-01  0.96760979502E-01  0.51100000000E-03 0.  1.
         11    1    4    4    0    0 -0.10920323600E-01  0.31852063882E-01  0.67047954304E-02  0.34336902071E-01  0.51100000000E-03 0. -1.
</event>
<event>
 8    1  0.1138737E+005  0.1043930E+01  0.7957747E-01            NaN
         13   -1    0    0    0    0  0.00000000000E+00  0.00000000000E+00  0.74505805969E-08  0.10566000000E+00  0.10566000000E+00 0.  1.
     999900   -1    0    0    0    0 -0.00000000000E+00 -0.00000000000E+00 -0.74505805969E-08  0.93827000000E+00  0.93827000000E+00 0.  1.
     999902    2    1    2    0    0 -0.12281090081E-01  0.16508860352E-01  0.11903948892E-01  0.10201587644E+01  0.10198817740E+01 0.  0.
     999903    2    3    3    0    0 -0.72930763197E-01  0.65786818192E-01  0.87854979574E-01  0.13343712878E+00  0.20980186675E-01 0.  0.
         14    1    1    2    0    0  0.12281090081E-01 -0.16508860352E-01 -0.11903948892E-01  0.23771235620E-01  0.00000000000E+00 0. -1.
     999901    1    3    3    0    0  0.60649673116E-01 -0.49277957840E-01 -0.75951030682E-01  0.88672163560E+00  0.88000000000E+00 0.  1.
        -11    1    4    4    0    0 -0.52786982062E-01  0.39413836060E-01  0.68393026676E-01  0.94962009072E-01  0.51100000000E-03 0. -1.
         11    1    4    4    0    0 -0.20143781135E-01  0.26372982132E-01  0.19461952898E-01  0.38475119708E-01  0.51100000000E-03 0.  1.
</event>
<event>
 8    1  0.1138737E+005  0.1043930E+01  0.7957747E-01            NaN
         13   -1    0    0    0    0  0.00000000000E+00  0.00000000000E+00  0.74505805969E-08  0.10566000000E+00  0.10566000000E+00 0.  1.
     999900   -1    0    0    0    0 -0.00000000000E+00 -0.00000000000E+00 -0.74505805969E-08  0.93827000000E+00  0.93827000000E+00 0.  1.
     999902    2    1    2    0    0 -0.45311544000E-02  0.23990090939E-01 -0.26637378519E-02  0.10193708607E+01  0.10190749729E+01 0.  0.
     999903    2    3    3    0    0 -0.19166133003E-01 -0.12317331937E+00  0.13420220838E-01  0.12688559715E+00  0.19515255027E-01 0.  0.
         14    1    1    2    0    0  0.45311544000E-02 -0.23990090939E-01  0.26637378519E-02  0.24559139293E-01  0.00000000000E+00 0.  1.
     999901    1    3    3    0    0  0.14634978603E-01  0.14716341031E+00 -0.16083958690E-01  0.89248526355E+00  0.88000000000E+00 0.  1.
        -11    1    4    4    0    0 -0.16721036482E-01 -0.67344717637E-01 -0.89210397362E-04  0.69391448566E-01  0.51100000000E-03 0. -1.
         11    1    4    4    0    0 -0.24450965209E-02 -0.55828601733E-01  0.13509431236E-01  0.57494148588E-01  0.51100000000E-03 0.  1.
</event>
<event>
 8    1  0.1138737E+005  0.1043930E+01  0.7957747E-01            NaN
         13   -1    0    0    0    0  0.00000000000E+00  0.00000000000E+00  0.74505805969E-08  0.10566000000E+00  0.10566000000E+00 0.  1.
     999900   -1    0    0    0    0 -0.00000000000E+00 -0.00000000000E+00 -0.74505805969E-08  0.93827000000E+00  0.93827000000E+00 0. -1.
     999902    2    1    2    0    0  0.18535953309E-01  0.75823919411E-02  0.10523667178E-01  0.10213065210E+01  0.10210559181E+01 0.  0.
     999903    2    3    3    0    0 -0.94597051252E-01  0.86427770976E-01 -0.12507551002E-01  0.13026998551E+00  0.19886392100E-01 0.  0.
         14    1    1    2    0    0 -0.18535953309E-01 -0.75823919411E-02 -0.10523667178E-01  0.22623479031E-01  0.00000000000E+00 0. -1.
     999901    1    3    3    0    0  0.11313300456E+00 -0.78845379035E-01  0.23031218179E-01  0.89103653546E+00  0.88000000000E+00 0.  1.
        -11    1    4    4    0    0 -0.29292857454E-01  0.15499116234E-01 -0.55367239659E-02  0.33603727995E-01  0.51100000000E-03 0.  1.
         11    1    4    4    0    0 -0.65304193798E-01  0.70928654741E-01 -0.69708270358E-02  0.96666257513E-01  0.51100000000E-03 0. -1.
</event>
<event>
 8    1  0.1138737E+005  0.1043930E+01  0.7957747E-01            NaN
         13   -1    0    0    0    0  0.00000000000E+00  0.00000000000E+00  0.74505805969E-08  0.10566000000E+00  0.10566000000E+00 0. -1.
     999900   -1    0    0    0    0 -0.00000000000E+00 -0.00000000000E+00 -0.74505805969E-08  0.93827000000E+00  0.93827000000E+00 0.  1.
     999902    2    1    2    0    0  0.21763267482E-02 -0.24168262271E-01 -0.33033943280E-04  0.10196639251E+01  0.10193751408E+01 0.  0.
     999903    2    3    3    0    0 -0.40330369228E-01  0.94816803030E-01 -0.74262567035E-01  0.12754605815E+00  0.11674899052E-01 0.  0.
         14    1    1    2    0    0 -0.21763267482E-02  0.24168262271E-01  0.33033943280E-04  0.24266074890E-01  0.00000000000E+00 0. -1.
     999901    1    3    3    0    0  0.42506695977E-01 -0.11898506530E+00  0.74229533092E-01  0.89211786696E+00  0.88000000000E+00 0. -1.
        -11    1    4    4    0    0 -0.13582440872E-01  0.24899566212E-01 -0.15146334217E-01  0.32158104092E-01  0.51100000000E-03 0. -1.
         11    1    4    4    0    0 -0.26747928357E-01  0.69917236818E-01 -0.59116232818E-01  0.95387954058E-01  0.51100000000E-03 0.  1.
</event>
<event>
 8    1  0.1138737E+005  0.1043930E+01  0.7957747E-01            NaN
         13   -1    0    0    0    0  0.00000000000E+00  0.00000000000E+00  0.74505805969E-08  0.10566000000E+00  0.10566000000E+00 0.  1.
     999900   -1    0    0    0    0 -0.00000000000E+00 -0.00000000000E+00 -0.74505805969E-08  0.93827000000E+00  0.93827000000E+00 0.  1.
     999902    2    1    2    0    0 -0.41956947764E-02  0.16513851776E-01  0.16949359368E-01  0.10198968575E+01  0.10196136563E+01 0.  0.
     999903    2    3    3    0    0  0.98049937000E-01  0.52380620508E-01  0.68069575266E-01  0.13177869488E+00  0.19355562417E-01 0.  0.
         14    1    1    2    0    0  0.41956947764E-02 -0.16513851776E-01 -0.16949359368E-01  0.24033142493E-01  0.00000000000E+00 0. -1.
     999901    1    3    3    0    0 -0.10224563178E+00 -0.35866768732E-01 -0.51120215898E-01  0.88811816263E+00  0.88000000000E+00 0. -1.
        -11    1    4    4    0    0  0.29981987658E-01  0.22659139023E-01  0.31242757986E-01  0.48874607034E-01  0.51100000000E-03 0.  1.
         11    1    4    4    0    0  0.68067949342E-01  0.29721481486E-01  0.36826817279E-01  0.82904087844E-01  0.51100000000E-03 0. -1.
</event>
<event>
 8    1  0.1138737E+005  0.1043930E+01  0.7957747E-01            NaN
         13   -1    0    0    0    0  0.00000000000E+00  0.00000000000E+00  0.74505805969E-08  0.10566000000E+00  0.10566000000E+00 0.  1.
     999900   -1    0    0    0    0 -0.00000000000E+00 -0.00000000000E+00 -0.74505805969E-08  0.93827000000E+00  0.93827000000E+00 0. -1.
     999902    2    1    2    0    0 -0.56834671075E-02 -0.47529843371E-02  0.21769513696E-01  0.10209342529E+01  0.10206752394E+01 0.  0.
     999903    2    3    3    0    0 -0.26508918878E-01 -0.33976604484E-01  0.12511257375E+00  0.13416060225E+00  0.22108338999E-01 0.  0.
         14    1    1    2    0    0  0.56834671075E-02  0.47529843371E-02 -0.21769513696E-01  0.22995747107E-01  0.00000000000E+00 0. -1.
     999901    1    3    3    0    0  0.20825451770E-01  0.29223620147E-01 -0.10334306005E+00  0.88677365064E+00  0.88000000000E+00 0. -1.
        -11    1    4    4    0    0  0.20303545970E-02 -0.12571163497E-01  0.34255074973E-01  0.36548977740E-01  0.51100000000E-03 0. -1.
         11    1    4    4    0    0 -0.28539273475E-01 -0.21405440987E-01  0.90857498776E-01  0.97611624508E-01  0.51100000000E-03 0.  1.
</event>
<event>
 8    1  0.1138737E+005  0.1043930E+01  0.7957747E-01            NaN
         13   -1    0    0    0    0  0.00000000000E+00  0.00000000000E+00  0.74505805969E-08  0.10566000000E+00  0.10566000000E+00 0. -1.
     999900   -1    0    0    0    0 -0.00000000000E+00 -0.00000000000E+00 -0.74505805969E-08  0.93827000000E+00  0.93827000000E+00 0.  1.
     999902    2    1    2    0    0  0.53234501978E-02  0.21511952122E-01  0.13319516196E-02  0.10217291599E+01  0.10214879338E+01 0.  0.
     999903    2    3    3    0    0 -0.58825193293E-01  0.73851719181E-01  0.91843469213E-01  0.13322095257E+00  0.19952933963E-01 0.  0.
         14    1    1    2    0    0 -0.53234501978E-02 -0.21511952122E-01 -0.13319516196E-02  0.22200840102E-01  0.00000000000E+00 0. -1.
     999901    1    3    3    0    0  0.64148643491E-01 -0.52339767058E-01 -0.90511517594E-01  0.88850820733E+00  0.88000000000E+00 0.  1.
        -11    1    4    4    0    0 -0.50327894889E-01  0.67373134253E-01  0.72133328475E-01  0.11079492056E+00  0.51100000000E-03 0.  1.
         11    1    4    4    0    0 -0.84972984038E-02  0.64785849273E-02  0.19710140739E-01  0.22426032011E-01  0.51100000000E-03 0. -1.
</event>
<event>
 8    1  0.1138737E+005  0.1043930E+01  0.7957747E-01            NaN
         13   -1    0    0    0    0  0.00000000000E+00  0.00000000000E+00  0.74505805969E-08  0.10566000000E+00  0.10566000000E+00 0.  1.
     999900   -1    0    0    0    0 -0.00000000000E+00 -0.00000000000E+00 -0.74505805969E-08  0.93827000000E+00  0.93827000000E+00 0. -1.
     999902    2    1    2    0    0  0.13192240296E-01 -0.42891032684E-02  0.21361390543E-01  0.10184596129E+01  0.10181410720E+01 0.  0.
     999903    2    3    3    0    0  0.56851242385E-01  0.17757976925E-01 -0.11070427048E+00  0.12726181165E+00  0.19817257555E-01 0.  0.
         14    1    1    2    0    0 -0.13192240296E-01  0.42891032684E-02 -0.21361390543E-01  0.25470387056E-01  0.00000000000E+00 0. -1.
     999901    1    3    3    0    0 -0.43659002089E-01 -0.22047080194E-01  0.13206566102E+00  0.89119780129E+00  0.88000000000E+00 0.  1.
        -11    1    4    4    0    0  0.80559763970E-02 -0.17877159661E-02 -0.28602722214E-01  0.29773671643E-01  0.51100000000E-03 0.  1.
         11    1    4    4    0    0  0.48795265988E-01  0.19545692891E-01 -0.82101548266E-01  0.97488140007E-01  0.51100000000E-03 0. -1.
</event>
<event>
 8    1  0.1138737E+005  0.1043930E+01  0.7957747E-01            NaN
         13   -1    0    0    0    0  0.00000000000E+00  0.00000000000E+00  0.74505805969E-08  0.10566000000E+00  0.10566000000E+00 0. -1.
     999900   -1    0    0    0    0 -0.00000000000E+00 -0.00000000000E+00 -0.74505805969E-08  0.93827000000E+00  0.93827000000E+00 0. -1.
     999902    2    1    2    0    0 -0.10096259658E-01  0.35385654292E-02 -0.20943779655E-01  0.10204119684E+01  0.10201409155E+01 0.  0.
     999903    2    3    3    0    0  0.17545013977E-01  0.32303268463E-01  0.12112062219E+00  0.12812628409E+00  0.19869848621E-01 0.  0.
         14    1    1    2    0    0  0.10096259658E-01 -0.35385654292E-02  0.20943779655E-01  0.23518031606E-01  0.00000000000E+00 0. -1.
     999901    1    3    3    0    0 -0.27641273634E-01 -0.28764703034E-01 -0.14206440185E+00  0.89228568431E+00  0.88000000000E+00 0. -1.
        -11    1    4    4    0    0  0.16548664051E-01  0.11964313453E-01  0.74503834822E-01  0.77253385702E-01  0.51100000000E-03 0. -1.
         11    1    4    4    0    0  0.99634992535E-03  0.20338955011E-01  0.46616787372E-01  0.50872898384E-01  0.51100000000E-03 0.  1.
</event>
<event>
 8    1  0.1138737E+005  0.1043930E+01  0.7957747E-01            NaN
         13   -1    0    0    0    0  0.00000000000E+00  0.00000000000E+00  0.74505805969E-08  0.10566000000E+00  0.10566000000E+00 0. -1.
     999900   -1    0    0    0    0 -0.00000000000E+00 -0.00000000000E+00 -0.74505805969E-08  0.93827000000E+00  0.93827000000E+00 0.  1.
     999902    2    1    2    0    0  0.75696944091E-02 -0.22992518505E-01  0.14993382621E-02  0.10196770786E+01  0.10193886111E+01 0.  0.
     999903    2    3    3    0    0  0.12197410020E+00  0.17778044590E-01  0.38092623169E-01  0.13058221563E+00  0.20172434400E-01 0.  0.
         14    1    1    2    0    0 -0.75696944091E-02  0.22992518505E-01 -0.14993382621E-02  0.24252921388E-01  0.00000000000E+00 0. -1.
     999901    1    3    3    0    0 -0.11440440579E+00 -0.40770563094E-01 -0.36593284907E-01  0.88909486298E+00  0.88000000000E+00 0.  1.
        -11    1    4    4    0    0  0.81295077896E-01  0.98013381702E-02  0.34868506104E-01  0.89000167185E-01  0.51100000000E-03 0. -1.
         11    1    4    4    0    0  0.40679022306E-01  0.79767064195E-02  0.32241170643E-02  0.41582048445E-01  0.51100000000E-03 0.  1.
</event>
<event>
 8    1  0.1138737E+005  0.1043930E+01  0.7957747E-01            NaN
         13   -1    0    0    0    0  0.00000000000E+00  0.00000000000E+00  0.74505805969E-08  0.10566000000E+00  0.10566000000E+00 0. -1.
     999900   -1    0    0    0    0 -0.00000000000E+00 -0.00000000000E+00 -0.74505805969E-08  0.93827000000E+00  0.93827000000E+00 0.  1.
     999902    2    1    2    0    0  0.14695099273E-02  0.42945149550E-02  0.22852144512E-01  0.10206314415E+01  0.10203654819E+01 0.  0.
     999903    2    3    3    0    0  0.77112839404E-01 -0.17418310960E-01  0.10508725461E+00  0.13330062755E+00  0.21816018571E-01 0.  0.
         14    1    1    2    0    0 -0.14695099273E-02 -0.42945149550E-02 -0.22852144512E-01  0.23298558473E-01  0.00000000000E+00 0.  1.
     999901    1    3    3    0    0 -0.75643329477E-01  0.21712825915E-01 -0.82235110094E-01  0.88733081398E+00  0.88000000000E+00 0.  1.
        -11    1    4    4    0    0  0.33448548086E-01  0.34171053046E-02  0.43355606898E-01  0.54867583765E-01  0.51100000000E-03 0.  1.
         11    1    4    4    0    0  0.43664291318E-01 -0.20835416265E-01  0.61731647708E-01  0.78433043783E-01  0.51100000000E-03 0. -1.
</event>
<event>
 8    1  0.1138737E+005  0.1043930E+01  0.7957747E-01            NaN
         13   -1    0    0    0    0  0.00000000000E+00  0.00000000000E+00  0.74505805969E-08  0.10566000000E+00  0.10566000000E+00 0. -1.
     999900   -1    0    0    0    0 -0.00000000000E+00 -0.00000000000E+00 -0.74505805969E-08  0.93827000000E+00  0.93827000000E+00 0. -1.
     999902    2    1    2    0    0  0.19514047026E-01  0.40543065903E-02  0.11501078641E-01  0.10209189104E+01  0.10206595473E+01 0.  0.
     999903    2    3    3    0    0  0.75698293131E-01 -0.75493833634E-01 -0.74090288426E-01  0.13141879338E+00  0.18761074433E-01 0.  0.
         14    1    1    2    0    0 -0.19514047026E-01 -0.40543065903E-02 -0.11501078641E-01  0.23011089569E-01  0.00000000000E+00 0.  1.
     999901    1    3    3    0    0 -0.56184246105E-01  0.79548140224E-01  0.85591367066E-01  0.88950011705E+00  0.88000000000E+00 0.  1.
        -11    1    4    4    0    0  0.41162519652E-01 -0.43340259026E-01 -0.52369571333E-01  0.79470524090E-01  0.51100000000E-03 0.  1.
         11    1    4    4    0    0  0.34535773479E-01 -0.32153574608E-01 -0.21720717092E-01  0.51948269286E-01  0.51100000000E-03 0. -1.
</event>
<event>
 8    1  0.1138737E+005  0.1043930E+01  0.7957747E-01            NaN
         13   -1    0    0    0    0  0.00000000000E+00  0.00000000000E+00  0.74505805969E-08  0.10566000000E+00  0.10566000000E+00 0. -1.
     999900   -1    0    0    0    0 -0.00000000000E+00 -0.00000000000E+00 -0.74505805969E-08  0.93827000000E+00  0.93827000000E+00 0. -1.
     999902    2    1    2    0    0 -0.19894628482E-01 -0.65184876919E-02  0.92352543031E-03  0.10229743367E+01  0.10227596755E+01 0.  0.
     999903    2    3    3    0    0 -0.21814882782E-01  0.66608945931E-01 -0.11132940611E+00  0.13283275834E+00  0.18375642456E-01 0.  0.
         14    1    1    2    0    0  0.19894628482E-01  0.65184876919E-02 -0.92352543031E-03  0.20955663278E-01  0.00000000000E+00 0. -1.
     999901    1    3    3    0    0  0.19202543006E-02 -0.73127433623E-01  0.11225293154E+00  0.89014157838E+00  0.88000000000E+00 0.  1.
        -11    1    4    4    0    0 -0.53057108496E-02  0.23312950766E-01 -0.54422637237E-01  0.59445174791E-01  0.51100000000E-03 0.  1.
         11    1    4    4    0    0 -0.16509171933E-01  0.43295995165E-01 -0.56906768868E-01  0.73387583550E-01  0.51100000000E-03 0. -1.
</event>
<event>
 8    1  0.1138737E+005  0.1043930E+01  0.7957747E-01            NaN
         13   -1    0    0    0    0  0.00000000000E+00  0.00000000000E+00  0.74505805969E-08  0.10566000000E+00  0.10566000000E+00 0. -1.
     999900   -1    0    0    0    0 -0.00000000000E+00 -0.00000000000E+00 -0.74505805969E-08  0.93827000000E+00  0.93827000000E+00 0. -1.
     999902    2    1    2    0    0  0.15126756985E-01 -0.77334719682E-02  0.26700261881E-01  0.10122830515E+01  0.10117882422E+01 0.  0.
     999903    2    3    3    0    0  0.71936791138E-01  0.96488559368E-01 -0.15036532377E-01  0.12333334999E+00  0.22362332306E-01 0.  0.
         14    1    1    2    0    0 -0.15126756985E-01  0.77334719682E-02 -0.26700261881E-01  0.31646948511E-01  0.00000000000E+00 0. -1.
     999901    1    3    3    0    0 -0.56810034153E-01 -0.10422203134E+00  0.41736794258E-01  0.88894970150E+00  0.88000000000E+00 0.  1.
        -11    1    4    4    0    0  0.41252693002E-01  0.63517071711E-01  0.33278069335E-03  0.75740180503E-01  0.51100000000E-03 0.  1.
         11    1    4    4    0    0  0.30684098136E-01  0.32971487657E-01 -0.15369313071E-01  0.47593169489E-01  0.51100000000E-03 0. -1.
</event>
<event>
 8    1  0.1138737E+005  0.1043930E+01  0.7957747E-01            NaN
         13   -1    0    0    0    0  0.00000000000E+00  0.00000000000E+00  0.74505805969E-08  0.10566000000E+00  0.10566000000E+00 0. -1.
     999900   -1    0    0    0    0 -0.00000000000E+00 -0.00000000000E+00 -0.74505805969E-08  0.93827000000E+00  0.93827000000E+00 0.  1.
     999902    2    1    2    0    0 -0.48648747143E-02  0.23093518101E-02  0.23965882704E-01  0.10193665384E+01  0.10190705451E+01 0.  0.
     999903    2    3    3    0    0 -0.20704395028E-01 -0.11983518686E-01  0.12898582014E+00  0.13286534618E+00  0.21061379947E-01 0.  0.
         14    1    1    2    0    0  0.48648747143E-02 -0.23093518101E-02 -0.23965882704E-01  0.24563461595E-01  0.00000000000E+00 0.  1.
     999901    1    3    3    0    0  0.15839520314E-01  0.14292870496E-01 -0.10501993744E+00  0.88650119222E+00  0.88000000000E+00 0.  1.
        -11    1    4    4    0    0 -0.11964924187E-01 -0.16728361126E-01  0.67085882589E-01  0.70169610520E-01  0.51100000000E-03 0. -1.
         11    1    4    4    0    0 -0.87394708407E-02  0.47448424404E-02  0.61899937553E-01  0.62695735664E-01  0.51100000000E-03 0.  1.
</event>
<event>
 8    1  0.1138737E+005  0.1043930E+01  0.7957747E-01            NaN
         13   -1    0    0    0    0  0.00000000000E+00  0.00000000000E+00  0.74505805969E-08  0.10566000000E+00  0.10566000000E+00 0.  1.
     999900   -1    0    0    0    0 -0.00000000000E+00 -0.00000000000E+00 -0.74505805969E-08  0.93827000000E+00  0.93827000000E+00 0.  1.
     999902    2    1    2    0    0 -0.22035772752E-01 -0.28080814293E-02 -0.72565209744E-02  0.10205608387E+01  0.10202932460E+01 0.  0.
     999903    2    3    3    0    0  0.45005479272E-01 -0.29060311955E-01  0.11559731529E+00  0.12911438819E+00  0.20923456710E-01 0.  0.
         14    1    1    2    0    0  0.22035772752E-01  0.28080814293E-02  0.72565209744E-02  0.23369161276E-01  0.00000000000E+00 0.  1.
     999901    1    3    3    0    0 -0.67041252025E-01  0.26252230526E-01 -0.12285383626E+00  0.89144645053E+00  0.88000000000E+00 0.  1.
        -11    1    4    4    0    0  0.32966701618E-03  0.75522854841E-03  0.15376240860E-01  0.15406782742E-01  0.51100000000E-03 0. -1.
         11    1    4    4    0    0  0.44675812256E-01 -0.29815540504E-01  0.10022107443E+00  0.11370760545E+00  0.51100000000E-03 0.  1.
</event>
<event>
 8    1  0.1138737E+005  0.1043930E+01  0.7957747E-01            NaN
         13   -1    0    0    0    0  0.00000000000E+00  0.00000000000E+00  0.74505805969E-08  0.10566000000E+00  0.10566000000E+00 0.  1.
     999900   -1    0    0    0    0 -0.00000000000E+00 -0.00000000000E+00 -0.74505805969E-08  0.93827000000E+00  0.93827000000E+00 0. -1.
     999902    2    1    2    0    0  0.15719790529E-01 -0.40732438925E-02  0.15817998528E-01  0.10212603682E+01  0.10210087303E+01 0.  0.
     999903    2    3    3    0    0  0.37647497327E-01 -0.12551303914E+00  0.60788055929E-02  0.13259659594E+00  0.19340329064E-01 0.  0.
         14    1    1    2    0    0 -0.15719790529E-01  0.40732438925E-02 -0.15817998528E-01  0.22669631835E-01  0.00000000000E+00 0. -1.
     999901    1    3    3    0    0 -0.21927706797E-01  0.12143979524E+00  0.97391929352E-02  0.88866377223E+00  0.88000000000E+00 0.  1.
        -11    1    4    4    0    0  0.19605113155E-01 -0.91679188169E-01  0.87223915795E-02  0.94158245741E-01  0.51100000000E-03 0.  1.
         11    1    4    4    0    0  0.18042384172E-01 -0.33833850967E-01 -0.26435859866E-02  0.38438350195E-01  0.51100000000E-03 0. -1.
</event>
<event>
 8    1  0.1138737E+005  0.1043930E+01  0.7957747E-01            NaN
         13   -1    0    0    0    0  0.00000000000E+00  0.00000000000E+00  0.74505805969E-08  0.10566000000E+00  0.10566000000E+00 0. -1.
     999900   -1    0    0    0    0 -0.00000000000E+00 -0.00000000000E+00 -0.74505805969E-08  0.93827000000E+00  0.93827000000E+00 0.  1.
     999902    2    1    2    0    0 -0.20658712433E-01  0.11802223533E-01  0.39837018265E-02  0.10198064687E+01  0.10195211076E+01 0.  0.
     999903    2    3    3    0    0  0.40806587718E-01 -0.11798098654E+00  0.13814500749E-01  0.12811240162E+00  0.25243934555E-01 0.  0.
         14    1    1    2    0    0  0.20658712433E-01 -0.11802223533E-01 -0.39837018265E-02  0.24123531250E-01  0.00000000000E+00 0.  1.
     999901    1    3    3    0    0 -0.61465300152E-01  0.12978321008E+00 -0.98307989229E-02  0.89169406713E+00  0.88000000000E+00 0.  1.
        -11    1    4    4    0    0  0.37596373050E-01 -0.82445671871E-01  0.17326156374E-01  0.92256343372E-01  0.51100000000E-03 0. -1.
         11    1    4    4    0    0  0.32102146685E-02 -0.35535314672E-01 -0.35116556245E-02  0.35856058251E-01  0.51100000000E-03 0.  1.
</event>
<event>
 8    1  0.1138737E+005  0.1043930E+01  0.7957747E-01            NaN
         13   -1    0    0    0    0  0.00000000000E+00  0.00000000000E+00  0.74505805969E-08  0.10566000000E+00  0.10566000000E+00 0. -1.
     999900   -1    0    0    0    0 -0.00000000000E+00 -0.00000000000E+00 -0.74505805969E-08  0.93827000000E+00  0.93827000000E+00 0.  1.
     999902    2    1    2    0    0  0.12658303691E-01 -0.20075470665E-01  0.50377947482E-03  0.10201916140E+01  0.10199153977E+01 0.  0.
     999903    2    3    3    0    0 -0.92662798804E-01  0.62504585384E-01  0.59096847610E-01  0.12814612869E+00  0.20875234693E-01 0.  0.
         14    1    1    2    0    0 -0.12658303691E-01  0.20075470665E-01 -0.50377947482E-03  0.23738385971E-01  0.00000000000E+00 0.  1.
     999901    1    3    3    0    0  0.10532110249E+00 -0.82580056049E-01 -0.58593068135E-01  0.89204548534E+00  0.88000000000E+00 0.  1.
        -11    1    4    4    0    0 -0.49561944860E-01  0.25632955038E-01  0.38527716054E-01  0.67809149734E-01  0.51100000000E-03 0.  1.
         11    1    4    4    0    0 -0.43100853944E-01  0.36871630346E-01  0.20569131556E-01  0.60336978952E-01  0.51100000000E-03 0. -1.
</event>
<event>
 8    1  0.1138737E+005  0.1043930E+01  0.7957747E-01            NaN
         13   -1    0    0    0    0  0.00000000000E+00  0.00000000000E+00  0.74505805969E-08  0.10566000000E+00  0.10566000000E+00 0.  1.
     999900   -1    0    0    0    0 -0.00000000000E+00 -0.00000000000E+00 -0.74505805969E-08  0.93827000000E+00  0.93827000000E+00 0.  1.
     999902    2    1    2    0    0 -0.18512546371E-01  0.17226610506E-01  0.27641887238E-02  0.10184916191E+01  0.10181738884E+01 0.  0.
     999903    2    3    3    0    0 -0.15584382932E-01  0.86916219672E-01  0.94698812966E-01  0.13095728688E+00  0.19612332241E-01 0.  0.
         14    1    1    2    0    0  0.18512546371E-01 -0.17226610506E-01 -0.27641887238E-02  0.25438380884E-01  0.00000000000E+00 0. -1.
     999901    1    3    3    0    0 -0.29281634393E-02 -0.69689609165E-01 -0.91934624242E-01  0.88753433224E+00  0.88000000000E+00 0.  1.
        -11    1    4    4    0    0 -0.87709951154E-02  0.43708019968E-01  0.33662745594E-01  0.55863789048E-01  0.51100000000E-03 0.  1.
         11    1    4    4    0    0 -0.68133878168E-02  0.43208199703E-01  0.61036067372E-01  0.75093497830E-01  0.51100000000E-03 0. -1.
</event>
<event>
 8    1  0.1138737E+005  0.1043930E+01  0.7957747E-01            NaN
         13   -1    0    0    0    0  0.00000000000E+00  0.00000000000E+00  0.74505805969E-08  0.10566000000E+00  0.10566000000E+00 0.  1.
     999900   -1    0    0    0    0 -0.00000000000E+00 -0.00000000000E+00 -0.74505805969E-08  0.93827000000E+00  0.93827000000E+00 0. -1.
     999902    2    1    2    0    0  0.21513189501E-01  0.99793530860E-02 -0.20374693101E-01  0.10126644770E+01  0.10121817080E+01 0.  0.
     999903    2    3    3    0    0 -0.82017763309E-01  0.63958543721E-01  0.59269928174E-01  0.12138692374E+00  0.20106020419E-01 0.  0.
         14    1    1    2    0    0 -0.21513189501E-01 -0.99793530860E-02  0.20374693101E-01  0.31265523016E-01  0.00000000000E+00 0.  1.
     999901    1    3    3    0    0  0.10353095281E+00 -0.53979190635E-01 -0.79644621275E-01  0.89127755324E+00  0.88000000000E+00 0.  1.
        -11    1    4    4    0    0 -0.27231671619E-01  0.31762880837E-01  0.17581420877E-01  0.45385151969E-01  0.51100000000E-03 0. -1.
         11    1    4    4    0    0 -0.54786091690E-01  0.32195662884E-01  0.41688507297E-01  0.76001771774E-01  0.51100000000E-03 0.  1.
</event>
<event>
 8    1  0.1138737E+005  0.1043930E+01  0.7957747E-01            NaN
         13   -1    0    0    0    0  0.00000000000E+00  0.00000000000E+00  0.74505805969E-08  0.10566000000E+00  0.10566000000E+00 0.  1.
     999900   -1    0    0    0    0 -0.00000000000E+00 -0.00000000000E+00 -0.74505805969E-08  0.93827000000E+00  0.93827000000E+00 0.  1.
     999902    2    1    2    0    0 -0.15043041228E-01  0.47331571936E-02 -0.17388675451E-01  0.10204552923E+01  0.10201852487E+01 0.  0.
     999903    2    3    3    0    0  0.75689662910E-01  0.74867450345E-01  0.69679823589E-01  0.12875345528E+00  0.19700615146E-01 0.  0.
         14    1    1    2    0    0  0.15043041228E-01 -0.47331571936E-02  0.17388675451E-01  0.23474707673E-01  0.00000000000E+00 0.  1.
     999901    1    3    3    0    0 -0.90732704138E-01 -0.70134293152E-01 -0.87068499040E-01  0.89170183705E+00  0.88000000000E+00 0.  1.
        -11    1    4    4    0    0  0.55554651642E-01  0.65699288463E-01  0.53171157634E-01  0.10114419879E+00  0.51100000000E-03 0. -1.
         11    1    4    4    0    0  0.20135011268E-01  0.91681618830E-02  0.16508665955E-01  0.27609256486E-01  0.51100000000E-03 0.  1.
</event>
<event>
 8    1  0.1138737E+005  0.1043930E+01  0.7957747E-01            NaN
         13   -1    0    0    0    0  0.00000000000E+00  0.00000000000E+00  0.74505805969E-08  0.10566000000E+00  0.10566000000E+00 0.  1.
     999900   -1    0    0    0    0 -0.00000000000E+00 -0.00000000000E+00 -0.74505805969E-08  0.93827000000E+00  0.93827000000E+00 0. -1.
     999902    2    1    2    0    0  0.20306884950E-01  0.35108421454E-02  0.78693354113E-02  0.10218704889E+01  0.10216323576E+01 0.  0.
     999903    2    3    3    0    0  0.75018366684E-01  0.10907189727E+00  0.71058850742E-03  0.13384586638E+00  0.19742768253E-01 0.  0.
         14    1    1    2    0    0 -0.20306884950E-01 -0.35108421454E-02 -0.78693354113E-02  0.22059511073E-01  0.00000000000E+00 0.  1.
     999901    1    3    3    0    0 -0.54711481733E-01 -0.10556105512E+00  0.71587469038E-02  0.88802462255E+00  0.88000000000E+00 0. -1.
        -11    1    4    4    0    0  0.35135290528E-01  0.35286348164E-01  0.35195876079E-02  0.49922576308E-01  0.51100000000E-03 0. -1.
         11    1    4    4    0    0  0.39883076155E-01  0.73785549101E-01 -0.28089991005E-02  0.83923290073E-01  0.51100000000E-03 0.  1.
</event>
<event>
 7    1  0.1138737E+005  0.1043930E+01  0.7957747E-01            NaN
         13   -1    0    0    0    0  0.00000000000E+00  0.00000000000E+00  0.74505805969E-08  0.10566000000E+00  0.10566000000E+00 0. -1.
     999900   -1    0    0    0    0 -0.00000000000E+00 -0.00000000000E+00 -0.74505805969E-08  0.93827000000E+00  0.93827000000E+00 0. -1.
     999903    2    1    2    0    0  0.50921030785E-01 -0.85513781903E-01 -0.25931687707E-02  0.10164285687E+00  0.20469185556E-01 0.  0.
         14    1    1    2    0    0 -0.42275245344E-01  0.44325685228E-01 -0.15071943948E-02  0.61271807341E-01  0.00000000000E+00 0.  1.
     999901    1    1    2    0    0 -0.86457854410E-02  0.41188096674E-01  0.41003631655E-02  0.88101533579E+00  0.88000000000E+00 0.  1.
        -11    1    3    3    0    0  0.25542623433E-01 -0.27713581849E-01 -0.70937863271E-02  0.38354284717E-01  0.51100000000E-03 0. -1.
         11    1    3    3    0    0  0.25378407352E-01 -0.57800200054E-01  0.45006175564E-02  0.63288572155E-01  0.51100000000E-03 0.  1.
</event>
<event>
 8    1  0.1138737E+005  0.1043930E+01  0.7957747E-01            NaN
         13   -1    0    0    0    0  0.00000000000E+00  0.00000000000E+00  0.74505805969E-08  0.10566000000E+00  0.10566000000E+00 0.  1.
     999900   -1    0    0    0    0 -0.00000000000E+00 -0.00000000000E+00 -0.74505805969E-08  0.93827000000E+00  0.93827000000E+00 0.  1.
     999902    2    1    2    0    0  0.91273825980E-02 -0.52438488844E-02  0.23637065992E-01  0.10180549550E+01  0.10177260798E+01 0.  0.
     999903    2    3    3    0    0 -0.93623803712E-01  0.83842243334E-01  0.10245246262E-01  0.12750822466E+00  0.18932614604E-01 0.  0.
         14    1    1    2    0    0 -0.91273825980E-02  0.52438488844E-02 -0.23637065992E-01  0.25875044984E-01  0.00000000000E+00 0. -1.
     999901    1    3    3    0    0  0.10275118631E+00 -0.89086092219E-01  0.13391819730E-01  0.89054673036E+00  0.88000000000E+00 0.  1.
        -11    1    4    4    0    0 -0.71996343132E-01  0.58414943284E-01  0.44991973368E-03  0.92715924047E-01  0.51100000000E-03 0.  1.
         11    1    4    4    0    0 -0.21627460580E-01  0.25427300051E-01  0.97953265284E-02  0.34792300611E-01  0.51100000000E-03 0. -1.
</event>
<event>
 8    1  0.1138737E+005  0.1043930E+01  0.7957747E-01            NaN
         13   -1    0    0    0    0  0.00000000000E+00  0.00000000000E+00  0.74505805969E-08  0.10566000000E+00  0.10566000000E+00 0. -1.
     999900   -1    0    0    0    0 -0.00000000000E+00 -0.00000000000E+00 -0.74505805969E-08  0.93827000000E+00  0.93827000000E+00 0. -1.
     999902    2    1    2    0    0  0.10653947156E-01  0.20595733532E-01  0.18861472146E-02  0.10206652545E+01  0.10204000752E+01 0.  0.
     999903    2    3    3    0    0 -0.34993856101E-01  0.72494488422E-01  0.10292072821E+00  0.13219173820E+00  0.20048903613E-01 0.  0.
         14    1    1    2    0    0 -0.10653947156E-01 -0.20595733532E-01 -0.18861472146E-02  0.23264745454E-01  0.00000000000E+00 0.  1.
     999901    1    3    3    0    0  0.45647803257E-01 -0.51898754890E-01 -0.10103458099E+00  0.88847351635E+00  0.88000000000E+00 0. -1.
        -11    1    4    4    0    0 -0.14996572448E-01  0.19094001582E-01  0.43603200992E-01  0.49909701856E-01  0.51100000000E-03 0.  1.
         11    1    4    4    0    0 -0.19997283653E-01  0.53400486840E-01  0.59317527215E-01  0.82282036339E-01  0.51100000000E-03 0. -1.
</event>
<event>
 8    1  0.1138737E+005  0.1043930E+01  0.7957747E-01            NaN
         13   -1    0    0    0    0  0.00000000000E+00  0.00000000000E+00  0.74505805969E-08  0.10566000000E+00  0.10566000000E+00 0. -1.
     999900   -1    0    0    0    0 -0.00000000000E+00 -0.00000000000E+00 -0.74505805969E-08  0.93827000000E+00  0.93827000000E+00 0.  1.
     999902    2    1    2    0    0  0.10284729100E-01 -0.15387127695E-01 -0.14289933823E-01  0.10205474946E+01  0.10202795926E+01 0.  0.
     999903    2    3    3    0    0  0.79355814241E-01  0.38605192541E-01 -0.96817103631E-01  0.13234891362E+00  0.18840839588E-01 0.  0.
         14    1    1    2    0    0 -0.10284729100E-01  0.15387127695E-01  0.14289933823E-01  0.23382505427E-01  0.00000000000E+00 0.  1.
     999901    1    3    3    0    0 -0.69071085141E-01 -0.53992320237E-01  0.82527169809E-01  0.88819858095E+00  0.88000000000E+00 0. -1.
        -11    1    4    4    0    0  0.25217088840E-01  0.21442914906E-01 -0.30246874483E-01  0.44842331632E-01  0.51100000000E-03 0. -1.
         11    1    4    4    0    0  0.54138725401E-01  0.17162277635E-01 -0.66570229148E-01  0.87506581990E-01  0.51100000000E-03 0.  1.
</event>
<event>
 8    1  0.1138737E+005  0.1043930E+01  0.7957747E-01            NaN
         13   -1    0    0    0    0  0.00000000000E+00  0.00000000000E+00  0.74505805969E-08  0.10566000000E+00  0.10566000000E+00 0. -1.
     999900   -1    0    0    0    0 -0.00000000000E+00 -0.00000000000E+00 -0.74505805969E-08  0.93827000000E+00  0.93827000000E+00 0.  1.
     999902    2    1    2    0    0 -0.19460824507E-01 -0.52006920970E-02 -0.11802282706E-01  0.10205833778E+01  0.10203163070E+01 0.  0.
     999903    2    3    3    0    0 -0.87909772422E-01 -0.92561117410E-01 -0.33380777778E-01  0.13335018763E+00  0.19295275894E-01 0.  0.
         14    1    1    2    0    0  0.19460824507E-01  0.52006920970E-02  0.11802282706E-01  0.23346622150E-01  0.00000000000E+00 0. -1.
     999901    1    3    3    0    0  0.68448947916E-01  0.87360425313E-01  0.21578495072E-01  0.88723319022E+00  0.88000000000E+00 0.  1.
        -11    1    4    4    0    0 -0.44500943806E-01 -0.60286453877E-01 -0.17122380205E-01  0.76864995581E-01  0.51100000000E-03 0. -1.
         11    1    4    4    0    0 -0.43408828616E-01 -0.32274663533E-01 -0.16258397573E-01  0.56485192047E-01  0.51100000000E-03 0.  1.
</event>
<event>
 8    1  0.1138737E+005  0.1043930E+01  0.7957747E-01            NaN
         13   -1    0    0    0    0  0.00000000000E+00  0.00000000000E+00  0.74505805969E-08  0.10566000000E+00  0.10566000000E+00 0. -1.
     999900   -1    0    0    0    0 -0.00000000000E+00 -0.00000000000E+00 -0.74505805969E-08  0.93827000000E+00  0.93827000000E+00 0.  1.
     999902    2    1    2    0    0 -0.13829045541E-01 -0.16613842889E-01  0.91397444024E-02  0.10204609309E+01  0.10201910185E+01 0.  0.
     999903    2    3    3    0    0  0.34150978633E-01 -0.27166280687E-01 -0.11993896557E+00  0.12968893425E+00  0.23012345797E-01 0.  0.
         14    1    1    2    0    0  0.13829045541E-01  0.16613842889E-01 -0.91397444024E-02  0.23469069088E-01  0.00000000000E+00 0.  1.
     999901    1    3    3    0    0 -0.47980024174E-01  0.10552437799E-01  0.12907870997E+00  0.89077199666E+00  0.88000000000E+00 0. -1.
        -11    1    4    4    0    0  0.65504200401E-02 -0.80673192294E-02 -0.60829091188E-01  0.61712471170E-01  0.51100000000E-03 0.  1.
         11    1    4    4    0    0  0.27600558593E-01 -0.19098961458E-01 -0.59109874378E-01  0.67976463084E-01  0.51100000000E-03 0. -1.
</event>
<event>
 8    1  0.1138737E+005  0.1043930E+01  0.7957747E-01            NaN
         13   -1    0    0    0    0  0.00000000000E+00  0.00000000000E+00  0.74505805969E-08  0.10566000000E+00  0.10566000000E+00 0. -1.
     999900   -1    0    0    0    0 -0.00000000000E+00 -0.00000000000E+00 -0.74505805969E-08  0.93827000000E+00  0.93827000000E+00 0. -1.
     999902    2    1    2    0    0  0.16205614919E-01  0.42090348154E-02  0.16202788146E-01  0.10206304663E+01  0.10203644841E+01 0.  0.
     999903    2    3    3    0    0  0.12172393062E+00 -0.16589845853E-01 -0.43722715653E-01  0.13205983069E+00  0.20885036408E-01 0.  0.
         14    1    1    2    0    0 -0.16205614919E-01 -0.42090348154E-02 -0.16202788146E-01  0.23299533744E-01  0.00000000000E+00 0.  1.
     999901    1    3    3    0    0 -0.10551831570E+00  0.20798880668E-01  0.59925503799E-01  0.88857063557E+00  0.88000000000E+00 0. -1.
        -11    1    4    4    0    0  0.33225622223E-01 -0.83523813734E-02 -0.21470026041E-01  0.40434235320E-01  0.51100000000E-03 0.  1.
         11    1    4    4    0    0  0.88498308400E-01 -0.82374644795E-02 -0.22252689612E-01  0.91625595369E-01  0.51100000000E-03 0. -1.
</event>
<event>
 8    1  0.1138737E+005  0.1043930E+01  0.7957747E-01            NaN
         13   -1    0    0    0    0  0.00000000000E+00  0.00000000000E+00  0.74505805969E-08  0.10566000000E+00  0.10566000000E+00 0.  1.
     999900   -1    0    0    0    0 -0.00000000000E+00 -0.00000000000E+00 -0.74505805969E-08  0.93827000000E+00  0.93827000000E+00 0. -1.
     999902    2    1    2    0    0  0.15075627116E-01  0.19364414653E-01  0.30556376450E-02  0.10191996136E+01  0.10188995340E+01 0.  0.
     999903    2    3    3    0    0  0.89669624827E-01 -0.90559513278E-01  0.78453362854E-02  0.12921620052E+00  0.19839609717E-01 0.  0.
         14    1    1    2    0    0 -0.15075627116E-01 -0.19364414653E-01 -0.30556376450E-02  0.24730386354E-01  0.00000000000E+00 0.  1.
     999901    1    3    3    0    0 -0.74593997711E-01  0.10992392793E+00 -0.47896986404E-02  0.88998341313E+00  0.88000000000E+00 0.  1.
        -11    1    4    4    0    0  0.50986573341E-01 -0.47774699460E-01 -0.52370150757E-02  0.70069537015E-01  0.51100000000E-03 0. -1.
         11    1    4    4    0    0  0.38683051486E-01 -0.42784813817E-01  0.13082351361E-01  0.59146663505E-01  0.51100000000E-03 0.  1.
</event>
<event>
 8    1  0.1138737E+005  0.1043930E+01  0.7957747E-01            NaN
         13   -1    0    0    0    0  0.00000000000E+00  0.00000000000E+00  0.74505805969E-08  0.10566000000E+00  0.10566000000E+00 0. -1.
     999900   -1    0    0    0    0 -0.00000000000E+00 -0.00000000000E+00 -0.74505805969E-08  0.93827000000E+00  0.93827000000E+00 0. -1.
     999902    2    1    2    0    0  0.23526474057E-01 -0.17282322893E-02  0.49521362314E-02  0.10198259459E+01  0.10195410510E+01 0.  0.
     999903    2    3    3    0    0 -0.11327768155E+00 -0.34031533674E-01  0.44142521511E-01  0.12780870028E+00  0.19912891334E-01 0.  0.
         14    1    1    2    0    0 -0.23526474057E-01  0.17282322893E-02 -0.49521362314E-02  0.24104054050E-01  0.00000000000E+00 0. -1.
     999901    1    3    3    0    0  0.13680415560E+00  0.32303301385E-01 -0.39190385280E-01  0.89201724567E+00  0.88000000000E+00 0. -1.
        -11    1    4    4    0    0 -0.71482096230E-01 -0.11702920825E-01  0.29463252454E-01  0.78198419444E-01  0.51100000000E-03 0. -1.
         11    1    4    4    0    0 -0.41795585317E-01 -0.22328612849E-01  0.14679269058E-01  0.49610280838E-01  0.51100000000E-03 0.  1.
</event>
<event>
 8    1  0.1138737E+005  0.1043930E+01  0.7957747E-01            NaN
         13   -1    0    0    0    0  0.00000000000E+00  0.00000000000E+00  0.74505805969E-08  0.10566000000E+00  0.10566000000E+00 0. -1.
     999900   -1    0    0    0    0 -0.00000000000E+00 -0.00000000000E+00 -0.74505805969E-08  0.93827000000E+00  0.93827000000E+00 0.  1.
     999902    2    1    2    0    0 -0.42993349852E-02  0.81565638919E-02  0.21723633532E-01  0.10203306341E+01  0.10200576811E+01 0.  0.
     999903    2    3    3    0    0  0.40773464926E-01 -0.93628054249E-02 -0.11912208963E+00  0.12781956791E+00  0.19940715504E-01 0.  0.
         14    1    1    2    0    0  0.42993349852E-02 -0.81565638919E-02 -0.21723633532E-01  0.23599365874E-01  0.00000000000E+00 0.  1.
     999901    1    3    3    0    0 -0.45072799911E-01  0.17519369317E-01  0.14084572316E+00  0.89251106622E+00  0.88000000000E+00 0.  1.
        -11    1    4    4    0    0  0.74479473037E-02 -0.92341758157E-02 -0.20178419294E-01  0.23413065759E-01  0.51100000000E-03 0.  1.
         11    1    4    4    0    0  0.33325517622E-01 -0.12862960924E-03 -0.98943670333E-01  0.10440650215E+00  0.51100000000E-03 0. -1.
</event>
<event>
 7    1  0.1138737E+005  0.1043930E+01  0.7957747E-01            NaN
         13   -1    0    0    0    0  0.00000000000E+00  0.00000000000E+00  0.74505805969E-08  0.10566000000E+00  0.10566000000E+00 0.  1.
     999900   -1    0    0    0    0 -0.00000000000E+00 -0.00000000000E+00 -0.74505805969E-08  0.93827000000E+00  0.93827000000E+00 0. -1.
     999902    2    1    2    0    0  0.15473971689E-01  0.86808654863E-02 -0.11366674170E-01  0.10228586330E+01  0.10226415700E+01 0.  0.
         14    1    1    2    0    0 -0.15473971689E-01 -0.86808654863E-02  0.11366674170E-01  0.21071366997E-01  0.00000000000E+00 0.  1.
     999901    1    3    3    0    0  0.71405074123E-01 -0.83414186878E-01 -0.87176620199E-01  0.89109840887E+00  0.88000000000E+00 0. -1.
        -11    1    3    3    0    0 -0.29326988575E-01  0.49614307127E-01  0.41115286952E-01  0.70798161507E-01  0.51100000000E-03 0.  1.
         11    1    3    3    0    0 -0.26604113859E-01  0.42480745237E-01  0.34694659077E-01  0.60962062626E-01  0.51100000000E-03 0. -1.
</event>
<event>
 8    1  0.1138737E+005  0.1043930E+01  0.7957747E-01            NaN
         13   -1    0    0    0    0  0.00000000000E+00  0.00000000000E+00  0.74505805969E-08  0.10566000000E+00  0.10566000000E+00 0.  1.
     999900   -1    0    0    0    0 -0.00000000000E+00 -0.00000000000E+00 -0.74505805969E-08  0.93827000000E+00  0.93827000000E+00 0. -1.
     999902    2    1    2    0    0  0.84715396821E-02  0.23494015953E-01 -0.15983107901E-02  0.10189042060E+01  0.10185968243E+01 0.  0.
     999903    2    3    3    0    0 -0.11269470483E+00  0.60520736795E-01 -0.90631345415E-02  0.12979906006E+00  0.20069865604E-01 0.  0.
         14    1    1    2    0    0 -0.84715396821E-02 -0.23494015953E-01  0.15983107901E-02  0.25025794045E-01  0.00000000000E+00 0.  1.
     999901    1    3    3    0    0  0.12116624451E+00 -0.37026720842E-01  0.74648237514E-02  0.88910514590E+00  0.88000000000E+00 0. -1.
        -11    1    4    4    0    0 -0.84322010402E-01  0.54705469854E-01 -0.72266453884E-02  0.10077388250E+00  0.51100000000E-03 0.  1.
         11    1    4    4    0    0 -0.28372694428E-01  0.58152669412E-02 -0.18364891531E-02  0.29025177555E-01  0.51100000000E-03 0. -1.
</event>
<event>
 8    1  0.1138737E+005  0.1043930E+01  0.7957747E-01            NaN
         13   -1    0    0    0    0  0.00000000000E+00  0.00000000000E+00  0.74505805969E-08  0.10566000000E+00  0.10566000000E+00 0. -1.
     999900   -1    0    0    0    0 -0.00000000000E+00 -0.00000000000E+00 -0.74505805969E-08  0.93827000000E+00  0.93827000000E+00 0.  1.
     999902    2    1    2    0    0  0.30522799691E-02  0.38068524060E-02 -0.20872416705E-01  0.10224948346E+01  0.10222701308E+01 0.  0.
     999903    2    3    3    0    0  0.10993750359E-01 -0.40939266914E-01  0.12108751890E+00  0.12996029435E+00  0.20751018134E-01 0.  0.
         14    1    1    2    0    0 -0.30522799691E-02 -0.38068524060E-02  0.20872416705E-01  0.21435165438E-01  0.00000000000E+00 0. -1.
     999901    1    3    3    0    0 -0.79414703903E-02  0.44746119320E-01 -0.14195993560E+00  0.89253454021E+00  0.88000000000E+00 0.  1.
        -11    1    4    4    0    0  0.30604084624E-02 -0.33900880788E-01  0.70736169631E-01  0.78501609112E-01  0.51100000000E-03 0.  1.
         11    1    4    4    0    0  0.79333418970E-02 -0.70383861255E-02  0.50351349267E-01  0.51458685243E-01  0.51100000000E-03 0. -1.
</event>
<event>
 8    1  0.1138737E+005  0.1043930E+01  0.7957747E-01            NaN
         13   -1    0    0    0    0  0.00000000000E+00  0.00000000000E+00  0.74505805969E-08  0.10566000000E+00  0.10566000000E+00 0. -1.
     999900   -1    0    0    0    0 -0.00000000000E+00 -0.00000000000E+00 -0.74505805969E-08  0.93827000000E+00  0.93827000000E+00 0. -1.
     999902    2    1    2    0    0  0.20620071828E-01  0.16253588701E-01 -0.67868058587E-02  0.10168112382E+01  0.10164495398E+01 0.  0.
     999903    2    3    3    0    0  0.41249323022E-01 -0.11796820890E-01 -0.11992484767E+00  0.12888522327E+00  0.19716999138E-01 0.  0.
         14    1    1    2    0    0 -0.20620071828E-01 -0.16253588701E-01  0.67868058587E-02  0.27118761801E-01  0.00000000000E+00 0.  1.
     999901    1    3    3    0    0 -0.20629251194E-01  0.28050409591E-01  0.11313804181E+00  0.88792601493E+00  0.88000000000E+00 0.  1.
        -11    1    4    4    0    0  0.11421614307E-01 -0.72066245989E-02 -0.63212138022E-01  0.64640731940E-01  0.51100000000E-03 0.  1.
         11    1    4    4    0    0  0.29827708715E-01 -0.45901962911E-02 -0.56712709652E-01  0.64244491330E-01  0.51100000000E-03 0. -1.
</event>
<event>
 8    1  0.1138737E+005  0.1043930E+01  0.7957747E-01            NaN
         13   -1    0    0    0    0  0.00000000000E+00  0.00000000000E+00  0.74505805969E-08  0.10566000000E+00  0.10566000000E+00 0. -1.
     999900   -1    0    0    0    0 -0.00000000000E+00 -0.00000000000E+00 -0.74505805969E-08  0.93827000000E+00  0.93827000000E+00 0. -1.
     999902    2    1    2    0    0 -0.77054480356E-02 -0.12530732458E-01 -0.19739136239E-01  0.10193123908E+01  0.10190150751E+01 0.  0.
     999903    2    3    3    0    0  0.18855258101E-01 -0.12350727223E+00 -0.36801003137E-01  0.13178077397E+00  0.20057205833E-01 0.  0.
         14    1    1    2    0    0  0.77054480356E-02  0.12530732458E-01  0.19739136239E-01  0.24617609242E-01  0.00000000000E+00 0. -1.
     999901    1    3    3    0    0 -0.26560706136E-01  0.11097653977E+00  0.17061866898E-01  0.88753161678E+00  0.88000000000E+00 0.  1.
        -11    1    4    4    0    0  0.16732378528E-01 -0.97596941445E-01 -0.37190055264E-01  0.10577569098E+00  0.51100000000E-03 0.  1.
         11    1    4    4    0    0  0.21228795733E-02 -0.25910330783E-01  0.38905212662E-03  0.26005082994E-01  0.51100000000E-03 0. -1.
</event>
<event>
 8    1  0.1138737E+005  0.1043930E+01  0.7957747E-01            NaN
         13   -1    0    0    0    0  0.00000000000E+00  0.00000000000E+00  0.74505805969E-08  0.10566000000E+00  0.10566000000E+00 0.  1.
     999900   -1    0    0    0    0 -0.00000000000E+00 -0.00000000000E+00 -0.74505805969E-08  0.93827000000E+00  0.93827000000E+00 0.  1.
     999902    2    1    2    0    0 -0.21399899586E-01  0.58443693833E-02  0.78954878503E-02  0.10203832150E+01  0.10201114911E+01 0.  0.
     999903    2    3    3    0    0  0.79928088726E-01 -0.53592251556E-01 -0.82108885748E-01  0.12802630187E+00  0.19703706717E-01 0.  0.
         14    1    1    2    0    0  0.21399899586E-01 -0.58443693833E-02 -0.78954878503E-02  0.23546785007E-01  0.00000000000E+00 0.  1.
     999901    1    3    3    0    0 -0.10132798831E+00  0.59436620939E-01  0.90004373599E-01  0.89235691312E+00  0.88000000000E+00 0. -1.
        -11    1    4    4    0    0  0.64162798163E-01 -0.38894525670E-01 -0.53271617015E-01  0.92020514537E-01  0.51100000000E-03 0.  1.
         11    1    4    4    0    0  0.15765290563E-01 -0.14697725886E-01 -0.28837268734E-01  0.36005787337E-01  0.51100000000E-03 0. -1.
</event>
<event>
 8    1  0.1138737E+005  0.1043930E+01  0.7957747E-01            NaN
         13   -1    0    0    0    0  0.00000000000E+00  0.00000000000E+00  0.74505805969E-08  0.10566000000E+00  0.10566000000E+00 0. -1.
     999900   -1    0    0    0    0 -0.00000000000E+00 -0.00000000000E+00 -0.74505805969E-08  0.93827000000E+00  0.93827000000E+00 0.  1.
     999902    2    1    2    0    0 -0.91719509989E-02 -0.64092196618E-02  0.19272241565E-01  0.10216449809E+01  0.10214019018E+01 0.  0.
     999903    2    3    3    0    0 -0.71184082452E-01  0.95218195290E-01 -0.51041071554E-01  0.13084893357E+00  0.19559502101E-01 0.  0.
         14    1    1    2    0    0  0.91719509989E-02  0.64092196618E-02 -0.19272241565E-01  0.22285019110E-01  0.00000000000E+00 0.  1.
     999901    1    3    3    0    0  0.62012131453E-01 -0.10162741495E+00  0.70313313119E-01  0.89079604732E+00  0.88000000000E+00 0. -1.
        -11    1    4    4    0    0 -0.48324367778E-01  0.72693052331E-01 -0.44928745855E-01  0.98175239768E-01  0.51100000000E-03 0.  1.
         11    1    4    4    0    0 -0.22859714674E-01  0.22525142959E-01 -0.61123256990E-02  0.32673693803E-01  0.51100000000E-03 0. -1.
</event>
<event>
 8    1  0.1138737E+005  0.1043930E+01  0.7957747E-01            NaN
         13   -1    0    0    0    0  0.00000000000E+00  0.00000000000E+00  0.74505805969E-08  0.10566000000E+00  0.10566000000E+00 0.  1.
     999900   -1    0    0    0    0 -0.00000000000E+00 -0.00000000000E+00 -0.74505805969E-08  0.93827000000E+00  0.93827000000E+00 0.  1.
     999902    2    1    2    0    0  0.27136785425E-02 -0.51182021489E-02 -0.21787545972E-01  0.10213854396E+01  0.10211366015E+01 0.  0.
     999903    2    3    3    0    0 -0.48659469739E-01  0.11740157417E+00 -0.26335724066E-01  0.13140174206E+00  0.20542001846E-01 0.  0.
         14    1    1    2    0    0 -0.27136785425E-02  0.51182021489E-02  0.21787545972E-01  0.22544560408E-01  0.00000000000E+00 0.  1.
     999901    1    3    3    0    0  0.51373148282E-01 -0.12251977632E+00  0.45481780940E-02  0.88998369754E+00  0.88000000000E+00 0. -1.
        -11    1    4    4    0    0 -0.47523905304E-01  0.10604369101E+00 -0.28778996166E-01  0.11971749128E+00  0.51100000000E-03 0.  1.
         11    1    4    4    0    0 -0.11355644353E-02  0.11357883164E-01  0.24432720997E-02  0.11684250772E-01  0.51100000000E-03 0. -1.
</event>
<event>
 8    1  0.1138737E+005  0.1043930E+01  0.7957747E-01            NaN
         13   -1    0    0    0    0  0.00000000000E+00  0.00000000000E+00  0.74505805969E-08  0.10566000000E+00  0.10566000000E+00 0.  1.
     999900   -1    0    0    0    0 -0.00000000000E+00 -0.00000000000E+00 -0.74505805969E-08  0.93827000000E+00  0.93827000000E+00 0. -1.
     999902    2    1    2    0    0 -0.49272135210E-02  0.19687403565E-02 -0.21999010012E-01  0.10213001566E+01  0.10210494112E+01 0.  0.
     999903    2    3    3    0    0  0.39351264325E-01  0.90021976002E-01  0.83450207982E-01  0.12954150454E+00  0.12829108295E-01 0.  0.
         14    1    1    2    0    0  0.49272135210E-02 -0.19687403565E-02  0.21999010012E-01  0.22629843420E-01  0.00000000000E+00 0.  1.
     999901    1    3    3    0    0 -0.44278477846E-01 -0.88053235645E-01 -0.10544921799E+00  0.89175865204E+00  0.88000000000E+00 0. -1.
        -11    1    4    4    0    0  0.26826071271E-01  0.68126500749E-01  0.55418522940E-01  0.91827730071E-01  0.51100000000E-03 0. -1.
         11    1    4    4    0    0  0.12525193054E-01  0.21895475253E-01  0.28031685042E-01  0.37713774471E-01  0.51100000000E-03 0.  1.
</event>
<event>
 8    1  0.1138737E+005  0.1043930E+01  0.7957747E-01            NaN
         13   -1    0    0    0    0  0.00000000000E+00  0.00000000000E+00  0.74505805969E-08  0.10566000000E+00  0.10566000000E+00 0. -1.
     999900   -1    0    0    0    0 -0.00000000000E+00 -0.00000000000E+00 -0.74505805969E-08  0.93827000000E+00  0.93827000000E+00 0. -1.
     999902    2    1    2    0    0 -0.11996150510E-01 -0.14938320180E-01 -0.38254349200E-02  0.10243929841E+01  0.10242066642E+01 0.  0.
     999903    2    3    3    0    0 -0.95160833576E-01 -0.30513478869E-01  0.89313466590E-01  0.13544202651E+00  0.19518980271E-01 0.  0.
         14    1    1    2    0    0  0.11996150510E-01  0.14938320180E-01  0.38254349200E-02  0.19537015872E-01  0.00000000000E+00 0. -1.
     999901    1    3    3    0    0  0.83164683066E-01  0.15575158689E-01 -0.93138901510E-01  0.88895095762E+00  0.88000000000E+00 0. -1.
        -11    1    4    4    0    0 -0.64935496045E-01 -0.29396680319E-01  0.57927071094E-01  0.91850912608E-01  0.51100000000E-03 0. -1.
         11    1    4    4    0    0 -0.30225337532E-01 -0.11167985501E-02  0.31386395496E-01  0.43591113901E-01  0.51100000000E-03 0.  1.
</event>
<event>
 8    1  0.1138737E+005  0.1043930E+01  0.7957747E-01            NaN
         13   -1    0    0    0    0  0.00000000000E+00  0.00000000000E+00  0.74505805969E-08  0.10566000000E+00  0.10566000000E+00 0.  1.
     999900   -1    0    0    0    0 -0.00000000000E+00 -0.00000000000E+00 -0.74505805969E-08  0.93827000000E+00  0.93827000000E+00 0.  1.
     999902    2    1    2    0    0 -0.41007309990E-02  0.23885670444E-01  0.57205609144E-02  0.10190288742E+01  0.10187245852E+01 0.  0.
     999903    2    3    3    0    0  0.14425292372E-02 -0.32280439717E-01  0.12365432351E+00  0.12936953942E+00  0.20049397158E-01 0.  0.
         14    1    1    2    0    0  0.41007309990E-02 -0.23885670444E-01 -0.57205609144E-02  0.24901125767E-01  0.00000000000E+00 0. -1.
     999901    1    3    3    0    0 -0.55432602362E-02  0.56166110161E-01 -0.11793376260E+00  0.88965933482E+00  0.88000000000E+00 0.  1.
        -11    1    4    4    0    0  0.31453444840E-03 -0.60902286277E-02  0.62925096807E-01  0.63221979927E-01  0.51100000000E-03 0. -1.
         11    1    4    4    0    0  0.11279947888E-02 -0.26190211089E-01  0.60729226707E-01  0.66147559491E-01  0.51100000000E-03 0.  1.
</event>
<event>
 8    1  0.1138737E+005  0.1043930E+01  0.7957747E-01            NaN
         13   -1    0    0    0    0  0.00000000000E+00  0.00000000000E+00  0.74505805969E-08  0.10566000000E+00  0.10566000000E+00 0. -1.
     999900   -1    0    0    0    0 -0.00000000000E+00 -0.00000000000E+00 -0.74505805969E-08  0.93827000000E+00  0.93827000000E+00 0.  1.
     999902    2    1    2    0    0 -0.15474789887E-01  0.16595913229E-01  0.95427067776E-02  0.10193138120E+01  0.10190165311E+01 0.  0.
     999903    2    3    3    0    0 -0.17099472311E-01 -0.11523726883E+00  0.50491000157E-01  0.12855043704E+00  0.20096111200E-01 0.  0.
         14    1    1    2    0    0  0.15474789887E-01 -0.16595913229E-01 -0.95427067776E-02  0.24616187978E-01  0.00000000000E+00 0. -1.
     999901    1    3    3    0    0  0.16246824244E-02  0.13183318206E+00 -0.40948293379E-01  0.89076337499E+00  0.88000000000E+00 0.  1.
        -11    1    4    4    0    0 -0.13936667797E-01 -0.59785785526E-01  0.17041618334E-01  0.63712233807E-01  0.51100000000E-03 0.  1.
         11    1    4    4    0    0 -0.31628045141E-02 -0.55451483302E-01  0.33449381823E-01  0.64838203230E-01  0.51100000000E-03 0. -1.
</event>
<event>
 8    1  0.1138737E+005  0.1043930E+01  0.7957747E-01            NaN
         13   -1    0    0    0    0  0.00000000000E+00  0.00000000000E+00  0.74505805969E-08  0.10566000000E+00  0.10566000000E+00 0. -1.
     999900   -1    0    0    0    0 -0.00000000000E+00 -0.00000000000E+00 -0.74505805969E-08  0.93827000000E+00  0.93827000000E+00 0. -1.
     999902    2    1    2    0    0  0.34318446235E-02 -0.12348927566E-01  0.20190782445E-01  0.10200147065E+01  0.10197343086E+01 0.  0.
     999903    2    3    3    0    0 -0.10325204615E+00 -0.52565276111E-01 -0.54832065334E-01  0.12949394031E+00  0.18385643923E-01 0.  0.
         14    1    1    2    0    0 -0.34318446235E-02  0.12348927566E-01 -0.20190782445E-01  0.23915293544E-01  0.00000000000E+00 0.  1.
     999901    1    3    3    0    0  0.10668389077E+00  0.40216348545E-01  0.75022847779E-01  0.89052076614E+00  0.88000000000E+00 0. -1.
        -11    1    4    4    0    0 -0.51825608450E-01 -0.17250650675E-01 -0.30239761119E-01  0.62435429953E-01  0.51100000000E-03 0.  1.
         11    1    4    4    0    0 -0.51426437701E-01 -0.35314625436E-01 -0.24592304216E-01  0.67058510361E-01  0.51100000000E-03 0. -1.
</event>
<event>
 8    1  0.1138737E+005  0.1043930E+01  0.7957747E-01            NaN
         13   -1    0    0    0    0  0.00000000000E+00  0.00000000000E+00  0.74505805969E-08  0.10566000000E+00  0.10566000000E+00 0. -1.
     999900   -1    0    0    0    0 -0.00000000000E+00 -0.00000000000E+00 -0.74505805969E-08  0.93827000000E+00  0.93827000000E+00 0.  1.
     999902    2    1    2    0    0 -0.11686813225E-01  0.23083913611E-02 -0.21394446230E-01  0.10194426032E+01  0.10191484625E+01 0.  0.
     999903    2    3    3    0    0 -0.54475493319E-01  0.10588938620E+00 -0.51968650614E-01  0.13180828905E+00  0.22193308293E-01 0.  0.
         14    1    1    2    0    0  0.11686813225E-01 -0.23083913611E-02  0.21394446230E-01  0.24487396830E-01  0.00000000000E+00 0. -1.
     999901    1    3    3    0    0  0.42788680093E-01 -0.10358099484E+00  0.30574204384E-01  0.88763431412E+00  0.88000000000E+00 0.  1.
        -11    1    4    4    0    0 -0.38589885737E-01  0.88675326291E-01 -0.34873784585E-01  0.10280532450E+00  0.51100000000E-03 0.  1.
         11    1    4    4    0    0 -0.15885607582E-01  0.17214059907E-01 -0.17094866029E-01  0.29002964543E-01  0.51100000000E-03 0. -1.
</event>
<event>
 8    1  0.1138737E+005  0.1043930E+01  0.7957747E-01            NaN
         13   -1    0    0    0    0  0.00000000000E+00  0.00000000000E+00  0.74505805969E-08  0.10566000000E+00  0.10566000000E+00 0. -1.
     999900   -1    0    0    0    0 -0.00000000000E+00 -0.00000000000E+00 -0.74505805969E-08  0.93827000000E+00  0.93827000000E+00 0. -1.
     999902    2    1    2    0    0 -0.23143274704E-02 -0.19464717206E-01  0.15797510914E-01  0.10187547606E+01  0.10184436507E+01 0.  0.
     999903    2    3    3    0    0 -0.90162966582E-01  0.76718353773E-01 -0.42268759917E-01  0.12727270338E+00  0.19915486776E-01 0.  0.
         14    1    1    2    0    0  0.23143274704E-02  0.19464717206E-01 -0.15797510914E-01  0.25175239395E-01  0.00000000000E+00 0. -1.
     999901    1    3    3    0    0  0.87848639111E-01 -0.96183070979E-01  0.58066270830E-01  0.89148205722E+00  0.88000000000E+00 0. -1.
        -11    1    4    4    0    0 -0.33049437643E-01  0.21983882605E-01 -0.22899371224E-01  0.45827925399E-01  0.51100000000E-03 0. -1.
         11    1    4    4    0    0 -0.57113528939E-01  0.54734471168E-01 -0.19369388693E-01  0.81444777986E-01  0.51100000000E-03 0.  1.
</event>
<event>
 8    1  0.1138737E+005  0.1043930E+01  0.7957747E-01            NaN
         13   -1    0    0    0    0  0.00000000000E+00  0.00000000000E+00  0.74505805969E-08  0.10566000000E+00  0.10566000000E+00 0. -1.
     999900   -1    0    0    0    0 -0.00000000000E+00 -0.00000000000E+00 -0.74505805969E-08  0.93827000000E+00  0.93827000000E+00 0.  1.
     999902    2    1    2    0    0 -0.62408365279E-02  0.21375318012E-01  0.74304801102E-02  0.10204552413E+01  0.10201851965E+01 0.  0.
     999903    2    3    3    0    0 -0.26906035163E-02  0.21425403582E-01  0.12883137089E+00  0.13211364995E+00  0.19753660709E-01 0.  0.
         14    1    1    2    0    0  0.62408365279E-02 -0.21375318012E-01 -0.74304801102E-02  0.23474758686E-01  0.00000000000E+00 0.  1.
     999901    1    3    3    0    0 -0.35502330117E-02 -0.50085569909E-04 -0.12140089078E+00  0.88834159136E+00  0.88000000000E+00 0.  1.
        -11    1    4    4    0    0 -0.54741283027E-03  0.52506910115E-02  0.87716362410E-01  0.87876565547E-01  0.51100000000E-03 0. -1.
         11    1    4    4    0    0 -0.21431906860E-02  0.16174712570E-01  0.41115008483E-01  0.44237084404E-01  0.51100000000E-03 0.  1.
</event>
<event>
 8    1  0.1138737E+005  0.1043930E+01  0.7957747E-01            NaN
         13   -1    0    0    0    0  0.00000000000E+00  0.00000000000E+00  0.74505805969E-08  0.10566000000E+00  0.10566000000E+00 0.  1.
     999900   -1    0    0    0    0 -0.00000000000E+00 -0.00000000000E+00 -0.74505805969E-08  0.93827000000E+00  0.93827000000E+00 0.  1.
     999902    2    1    2    0    0  0.21668684719E-01  0.53001042562E-02  0.78833672193E-02  0.10202705308E+01  0.10199961694E+01 0.  0.
     999903    2    3    3    0    0 -0.72600570525E-01 -0.10178127586E+00  0.23044099780E-01  0.12865236017E+00  0.19751665392E-01 0.  0.
         14    1    1    2    0    0 -0.21668684719E-01 -0.53001042562E-02 -0.78833672193E-02  0.23659469167E-01  0.00000000000E+00 0.  1.
     999901    1    3    3    0    0  0.94269255244E-01  0.10708138011E+00 -0.15160732561E-01  0.89161817067E+00  0.88000000000E+00 0.  1.
        -11    1    4    4    0    0 -0.93864448199E-02 -0.21356615623E-01 -0.17349210109E-02  0.23398321503E-01  0.51100000000E-03 0.  1.
         11    1    4    4    0    0 -0.63214125705E-01 -0.80424660235E-01  0.24779020791E-01  0.10525403866E+00  0.51100000000E-03 0. -1.
</event>
<event>
 8    1  0.1138737E+005  0.1043930E+01  0.7957747E-01            NaN
         13   -1    0    0    0    0  0.00000000000E+00  0.00000000000E+00  0.74505805969E-08  0.10566000000E+00  0.10566000000E+00 0.  1.
     999900   -1    0    0    0    0 -0.00000000000E+00 -0.00000000000E+00 -0.74505805969E-08  0.93827000000E+00  0.93827000000E+00 0. -1.
     999902    2    1    2    0    0 -0.28880799895E-02 -0.21533832228E-01  0.28066687589E-02  0.10220228248E+01  0.10217880064E+01 0.  0.
     999903    2    3    3    0    0  0.81292241541E-02  0.54838066479E-01  0.11727750958E+00  0.13126044272E+00  0.20049731888E-01 0.  0.
         14    1    1    2    0    0  0.28880799895E-02  0.21533832228E-01 -0.28066687589E-02  0.21907175217E-01  0.00000000000E+00 0. -1.
     999901    1    3    3    0    0 -0.11017304144E-01 -0.76371898707E-01 -0.11447084082E+00  0.89076238206E+00  0.88000000000E+00 0. -1.
        -11    1    4    4    0    0  0.67902187705E-02  0.37517321638E-01  0.98755594393E-01  0.10586115926E+00  0.51100000000E-03 0.  1.
         11    1    4    4    0    0  0.13390053836E-02  0.17320744841E-01  0.18521915187E-01  0.25399283463E-01  0.51100000000E-03 0. -1.
</event>
<event>
 7    1  0.1138737E+005  0.1043930E+01  0.7957747E-01            NaN
         13   -1    0    0    0    0  0.00000000000E+00  0.00000000000E+00  0.74505805969E-08  0.10566000000E+00  0.10566000000E+00 0. -1.
     999900   -1    0    0    0    0 -0.00000000000E+00 -0.00000000000E+00 -0.74505805969E-08  0.93827000000E+00  0.93827000000E+00 0. -1.
     999903    2    1    2    0    0  0.33626556138E-01 -0.38471477920E-01 -0.57408358746E-01  0.79411484966E-01  0.19991608227E-01 0.  0.
         14    1    1    2    0    0  0.44134434658E-02 -0.74054482685E-01 -0.49532538860E-02  0.74351056569E-01  0.00000000000E+00 0.  1.
     999901    1    1    2    0    0 -0.38039999604E-01  0.11252596060E+00  0.62361612632E-01  0.89016745846E+00  0.88000000000E+00 0. -1.
        -11    1    3    3    0    0  0.27155156622E-03 -0.12687737425E-01 -0.12842856872E-01  0.18062461484E-01  0.51100000000E-03 0. -1.
         11    1    3    3    0    0  0.33355004572E-01 -0.25783740495E-01 -0.44565501874E-01  0.61349023482E-01  0.51100000000E-03 0.  1.
</event>
<event>
 7    1  0.1138737E+005  0.1043930E+01  0.7957747E-01            NaN
         13   -1    0    0    0    0  0.00000000000E+00  0.00000000000E+00  0.74505805969E-08  0.10566000000E+00  0.10566000000E+00 0. -1.
     999900   -1    0    0    0    0 -0.00000000000E+00 -0.00000000000E+00 -0.74505805969E-08  0.93827000000E+00  0.93827000000E+00 0. -1.
     999902    2    1    2    0    0 -0.25445734597E-03  0.24257918887E-01  0.79485140592E-02  0.10184017754E+01  0.10180817677E+01 0.  0.
         14    1    1    2    0    0  0.25445734597E-03 -0.24257918887E-01 -0.79485140592E-02  0.25528224635E-01  0.00000000000E+00 0. -1.
     999901    1    3    3    0    0 -0.12199417339E+00  0.13917440699E-01 -0.66772445428E-03  0.88852502461E+00  0.88000000000E+00 0.  1.
        -11    1    3    3    0    0  0.73569828941E-01  0.26578324869E-01  0.10947888539E-01  0.78987622243E-01  0.51100000000E-03 0. -1.
         11    1    3    3    0    0  0.48169887101E-01 -0.16237846681E-01 -0.23316500256E-02  0.50889128515E-01  0.51100000000E-03 0.  1.
</event>
<event>
 8    1  0.1138737E+005  0.1043930E+01  0.7957747E-01            NaN
         13   -1    0    0    0    0  0.00000000000E+00  0.00000000000E+00  0.74505805969E-08  0.10566000000E+00  0.10566000000E+00 0. -1.
     999900   -1    0    0    0    0 -0.00000000000E+00 -0.00000000000E+00 -0.74505805969E-08  0.93827000000E+00  0.93827000000E+00 0.  1.
     999902    2    1    2    0    0  0.82535500528E-02 -0.17776310865E-01  0.12055273277E-01  0.10209202644E+01  0.10206609322E+01 0.  0.
     999903    2    3    3    0    0 -0.43368760448E-01  0.41942693203E-01  0.11537842334E+00  0.13136594023E+00  0.17458258394E-01 0.  0.
         14    1    1    2    0    0 -0.82535500528E-02  0.17776310865E-01 -0.12055273277E-01  0.23009735553E-01  0.00000000000E+00 0.  1.
     999901    1    3    3    0    0  0.51622310501E-01 -0.59719004068E-01 -0.10332315006E+00  0.88955432421E+00  0.88000000000E+00 0.  1.
        -11    1    4    4    0    0 -0.45111004776E-02  0.47407357052E-02  0.27960476159E-01  0.28720618910E-01  0.51100000000E-03 0. -1.
         11    1    4    4    0    0 -0.38857659970E-01  0.37201957498E-01  0.87417947176E-01  0.10264532132E+00  0.51100000000E-03 0.  1.
</event>
<event>
 8    1  0.1138737E+005  0.1043930E+01  0.7957747E-01            NaN
         13   -1    0    0    0    0  0.00000000000E+00  0.00000000000E+00  0.74505805969E-08  0.10566000000E+00  0.10566000000E+00 0. -1.
     999900   -1    0    0    0    0 -0.00000000000E+00 -0.00000000000E+00 -0.74505805969E-08  0.93827000000E+00  0.93827000000E+00 0. -1.
     999902    2    1    2    0    0  0.23171269225E-01  0.70335341594E-02 -0.60912944686E-02  0.10189603747E+01  0.10186543884E+01 0.  0.
     999903    2    3    3    0    0  0.15760187966E-01  0.12632581659E+00  0.20119185058E-01  0.13049396451E+00  0.20427865833E-01 0.  0.
         14    1    1    2    0    0 -0.23171269225E-01 -0.70335341594E-02  0.60912944686E-02  0.24969625319E-01  0.00000000000E+00 0.  1.
     999901    1    3    3    0    0  0.74110812581E-02 -0.11929228243E+00 -0.26210479527E-01  0.88846641018E+00  0.88000000000E+00 0. -1.
        -11    1    4    4    0    0 -0.44980678654E-02  0.35309475890E-01  0.77474024689E-02  0.36431786508E-01  0.51100000000E-03 0. -1.
         11    1    4    4    0    0  0.20258255832E-01  0.91016340702E-01  0.12371782590E-01  0.94062177997E-01  0.51100000000E-03 0.  1.
</event>
<event>
 8    1  0.1138737E+005  0.1043930E+01  0.7957747E-01            NaN
         13   -1    0    0    0    0  0.00000000000E+00  0.00000000000E+00  0.74505805969E-08  0.10566000000E+00  0.10566000000E+00 0.  1.
     999900   -1    0    0    0    0 -0.00000000000E+00 -0.00000000000E+00 -0.74505805969E-08  0.93827000000E+00  0.93827000000E+00 0. -1.
     999902    2    1    2    0    0 -0.14428027812E-01  0.13827139015E-01  0.13392924095E-01  0.10198732301E+01  0.10195894651E+01 0.  0.
     999903    2    3    3    0    0  0.44239467871E-02 -0.33911253423E-01 -0.12178750139E+00  0.12807274882E+00  0.20022214744E-01 0.  0.
         14    1    1    2    0    0  0.14428027812E-01 -0.13827139015E-01 -0.13392924095E-01  0.24056769852E-01  0.00000000000E+00 0. -1.
     999901    1    3    3    0    0 -0.18851974599E-01  0.47738392439E-01  0.13518042548E+00  0.89180048133E+00  0.88000000000E+00 0.  1.
        -11    1    4    4    0    0 -0.44884492870E-02 -0.16155474573E-01 -0.32203029551E-01  0.36310353467E-01  0.51100000000E-03 0.  1.
         11    1    4    4    0    0  0.89123960741E-02 -0.17755778850E-01 -0.89584471835E-01  0.91762395355E-01  0.51100000000E-03 0. -1.
</event>
<event>
 8    1  0.1138737E+005  0.1043930E+01  0.7957747E-01            NaN
         13   -1    0    0    0    0  0.00000000000E+00  0.00000000000E+00  0.74505805969E-08  0.10566000000E+00  0.10566000000E+00 0.  1.
     999900   -1    0    0    0    0 -0.00000000000E+00 -0.00000000000E+00 -0.74505805969E-08  0.93827000000E+00  0.93827000000E+00 0.  1.
     999902    2    1    2    0    0  0.11446664215E-01 -0.24551666722E-02  0.20447937325E-01  0.10203679096E+01  0.10200958282E+01 0.  0.
     999903    2    3    3    0    0 -0.15947056550E-01  0.39259776526E-01  0.12424150383E+00  0.13286373669E+00  0.20522733427E-01 0.  0.
         14    1    1    2    0    0 -0.11446664215E-01  0.24551666722E-02 -0.20447937325E-01  0.23562090440E-01  0.00000000000E+00 0. -1.
     999901    1    3    3    0    0  0.27393720765E-01 -0.41714943199E-01 -0.10379356650E+00  0.88750417288E+00  0.88000000000E+00 0.  1.
        -11    1    4    4    0    0 -0.19170593642E-02  0.85757051546E-04  0.27246673138E-01  0.27318945605E-01  0.51100000000E-03 0.  1.
         11    1    4    4    0    0 -0.14029997185E-01  0.39174019475E-01  0.96994830689E-01  0.10554479108E+00  0.51100000000E-03 0. -1.
</event>
<event>
 8    1  0.1138737E+005  0.1043930E+01  0.7957747E-01            NaN
         13   -1    0    0    0    0  0.00000000000E+00  0.00000000000E+00  0.74505805969E-08  0.10566000000E+00  0.10566000000E+00 0.  1.
     999900   -1    0    0    0    0 -0.00000000000E+00 -0.00000000000E+00 -0.74505805969E-08  0.93827000000E+00  0.93827000000E+00 0. -1.
     999902    2    1    2    0    0 -0.15496207571E-01  0.17601914424E-01  0.27877854534E-02  0.10203136585E+01  0.10200403080E+01 0.  0.
     999903    2    3    3    0    0 -0.58850279092E-01  0.89441327774E-02 -0.11540708283E+00  0.13131165643E+00  0.19509061702E-01 0.  0.
         14    1    1    2    0    0  0.15496207571E-01 -0.17601914424E-01 -0.27877854534E-02  0.23616341550E-01  0.00000000000E+00 0. -1.
     999901    1    3    3    0    0  0.43354071521E-01  0.86577816465E-02  0.11819486828E+00  0.88900200202E+00  0.88000000000E+00 0.  1.
        -11    1    4    4    0    0 -0.34893441992E-01  0.14090834453E-01 -0.77778338661E-01  0.86405063484E-01  0.51100000000E-03 0. -1.
         11    1    4    4    0    0 -0.23956837099E-01 -0.51467016756E-02 -0.37628744166E-01  0.44906592951E-01  0.51100000000E-03 0.  1.
</event>
<event>
 8    1  0.1138737E+005  0.1043930E+01  0.7957747E-01            NaN
         13   -1    0    0    0    0  0.00000000000E+00  0.00000000000E+00  0.74505805969E-08  0.10566000000E+00  0.10566000000E+00 0. -1.
     999900   -1    0    0    0    0 -0.00000000000E+00 -0.00000000000E+00 -0.74505805969E-08  0.93827000000E+00  0.93827000000E+00 0.  1.
     999902    2    1    2    0    0  0.27223668923E-02  0.18212798357E-01  0.18195607982E-01  0.10180418279E+01  0.10177126146E+01 0.  0.
     999903    2    3    3    0    0 -0.74079356609E-01  0.65316245769E-01 -0.79147709172E-01  0.12810196425E+00  0.19793694482E-01 0.  0.
         14    1    1    2    0    0 -0.27223668923E-02 -0.18212798357E-01 -0.18195607982E-01  0.25888172112E-01  0.00000000000E+00 0.  1.
     999901    1    3    3    0    0  0.76801723502E-01 -0.47103447412E-01  0.97343317154E-01  0.88993986363E+00  0.88000000000E+00 0. -1.
        -11    1    4    4    0    0 -0.41260501071E-01  0.46451276700E-01 -0.56542006110E-01  0.84008390246E-01  0.51100000000E-03 0. -1.
         11    1    4    4    0    0 -0.32818855538E-01  0.18864969069E-01 -0.22605703062E-01  0.44093574008E-01  0.51100000000E-03 0.  1.
</event>
<event>
 8    1  0.1138737E+005  0.1043930E+01  0.7957747E-01            NaN
         13   -1    0    0    0    0  0.00000000000E+00  0.00000000000E+00  0.74505805969E-08  0.10566000000E+00  0.10566000000E+00 0. -1.
     999900   -1    0    0    0    0 -0.00000000000E+00 -0.00000000000E+00 -0.74505805969E-08  0.93827000000E+00  0.93827000000E+00 0. -1.
     999902    2    1    2    0    0  0.50153915035E-02 -0.18676080298E-01 -0.11669468275E-01  0.10213440172E+01  0.10210942537E+01 0.  0.
     999903    2    3    3    0    0  0.10812834714E-01 -0.85048919357E-01 -0.10141305167E+00  0.13427419199E+00  0.19867448418E-01 0.  0.
         14    1    1    2    0    0 -0.50153915035E-02  0.18676080298E-01  0.11669468275E-01  0.22585982757E-01  0.00000000000E+00 0. -1.
     999901    1    3    3    0    0 -0.57974432102E-02  0.66372839059E-01  0.89743583398E-01  0.88706982525E+00  0.88000000000E+00 0.  1.
        -11    1    4    4    0    0  0.16867817337E-02 -0.68590137099E-01 -0.85476916540E-01  0.10960846921E+00  0.51100000000E-03 0.  1.
         11    1    4    4    0    0  0.91260529801E-02 -0.16458782258E-01 -0.15936135134E-01  0.24665722783E-01  0.51100000000E-03 0. -1.
</event>
<event>
 8    1  0.1138737E+005  0.1043930E+01  0.7957747E-01            NaN
         13   -1    0    0    0    0  0.00000000000E+00  0.00000000000E+00  0.74505805969E-08  0.10566000000E+00  0.10566000000E+00 0.  1.
     999900   -1    0    0    0    0 -0.00000000000E+00 -0.00000000000E+00 -0.74505805969E-08  0.93827000000E+00  0.93827000000E+00 0. -1.
     999902    2    1    2    0    0  0.65142864385E-02 -0.21374155237E-01 -0.86108374652E-02  0.10199834562E+01  0.10197023163E+01 0.  0.
     999903    2    3    3    0    0 -0.23825609258E-01 -0.12192372835E-01  0.12471362103E+00  0.12937679459E+00  0.21646110406E-01 0.  0.
         14    1    1    2    0    0 -0.65142864385E-02  0.21374155237E-01  0.86108374652E-02  0.23946543837E-01  0.00000000000E+00 0. -1.
     999901    1    3    3    0    0  0.30339895697E-01 -0.91817824023E-02 -0.13332445850E+00  0.89060666157E+00  0.88000000000E+00 0. -1.
        -11    1    4    4    0    0 -0.11211557044E-01  0.33603284858E-03  0.86513578364E-01  0.87239167189E-01  0.51100000000E-03 0. -1.
         11    1    4    4    0    0 -0.12614052214E-01 -0.12528405683E-01  0.38200042670E-01  0.42137627403E-01  0.51100000000E-03 0.  1.
</event>
<event>
 8    1  0.1138737E+005  0.1043930E+01  0.7957747E-01            NaN
         13   -1    0    0    0    0  0.00000000000E+00  0.00000000000E+00  0.74505805969E-08  0.10566000000E+00  0.10566000000E+00 0. -1.
     999900   -1    0    0    0    0 -0.00000000000E+00 -0.00000000000E+00 -0.74505805969E-08  0.93827000000E+00  0.93827000000E+00 0.  1.
     999902    2    1    2    0    0 -0.58778363858E-02  0.20963200255E-01  0.92370147896E-02  0.10202799013E+01  0.10200057597E+01 0.  0.
     999903    2    3    3    0    0  0.10453347288E+00 -0.44510107171E-01  0.59004851317E-01  0.12957554590E+00  0.19996325296E-01 0.  0.
         14    1    1    2    0    0  0.58778363858E-02 -0.20963200255E-01 -0.92370147896E-02  0.23650098684E-01  0.00000000000E+00 0.  1.
     999901    1    3    3    0    0 -0.11041130926E+00  0.65473307427E-01 -0.49767836527E-01  0.89070435541E+00  0.88000000000E+00 0. -1.
        -11    1    4    4    0    0  0.12172344662E-01  0.11396584246E-02  0.79440531410E-02  0.14588827821E-01  0.51100000000E-03 0. -1.
         11    1    4    4    0    0  0.92361128214E-01 -0.45649765596E-01  0.51060798176E-01  0.11498671808E+00  0.51100000000E-03 0.  1.
</event>
<event>
 8    1  0.1138737E+005  0.1043930E+01  0.7957747E-01            NaN
         13   -1    0    0    0    0  0.00000000000E+00  0.00000000000E+00  0.74505805969E-08  0.10566000000E+00  0.10566000000E+00 0.  1.
     999900   -1    0    0    0    0 -0.00000000000E+00 -0.00000000000E+00 -0.74505805969E-08  0.93827000000E+00  0.93827000000E+00 0. -1.
     999902    2    1    2    0    0  0.11863380761E-01 -0.14557214997E-02  0.23768056964E-01  0.10173258751E+01  0.10169779529E+01 0.  0.
     999903    2    3    3    0    0  0.74819844315E-01 -0.51821972089E-01  0.92161165998E-01  0.13099755399E+00  0.19574287673E-01 0.  0.
         14    1    1    2    0    0 -0.11863380761E-01  0.14557214997E-02 -0.23768056964E-01  0.26604124868E-01  0.00000000000E+00 0. -1.
     999901    1    3    3    0    0 -0.62956463554E-01  0.50366250589E-01 -0.68393109034E-01  0.88632832115E+00  0.88000000000E+00 0.  1.
        -11    1    4    4    0    0  0.61853592774E-01 -0.38191188015E-01  0.62498650748E-01  0.95868536274E-01  0.51100000000E-03 0. -1.
         11    1    4    4    0    0  0.12966251541E-01 -0.13630784073E-01  0.29662515250E-01  0.35129017712E-01  0.51100000000E-03 0.  1.
</event>
<event>
 8    1  0.1138737E+005  0.1043930E+01  0.7957747E-01            NaN
         13   -1    0    0    0    0  0.00000000000E+00  0.00000000000E+00  0.74505805969E-08  0.10566000000E+00  0.10566000000E+00 0.  1.
     999900   -1    0    0    0    0 -0.00000000000E+00 -0.00000000000E+00 -0.74505805969E-08  0.93827000000E+00  0.93827000000E+00 0.  1.
     999902    2    1    2    0    0 -0.19088452649E-01  0.10231187047E-01  0.10330072576E-01  0.10199350711E+01  0.10196527804E+01 0.  0.
     999903    2    3    3    0    0  0.44761519134E-02  0.42507706540E-01 -0.12052821248E+00  0.12936168555E+00  0.19505246291E-01 0.  0.
         14    1    1    2    0    0  0.19088452649E-01 -0.10231187047E-01 -0.10330072576E-01  0.23994928888E-01  0.00000000000E+00 0. -1.
     999901    1    3    3    0    0 -0.23564604563E-01 -0.32276519493E-01  0.13085828506E+00  0.89057338556E+00  0.88000000000E+00 0. -1.
        -11    1    4    4    0    0  0.43704948628E-02  0.51909171632E-02 -0.66132050429E-02  0.94890699375E-02  0.51100000000E-03 0.  1.
         11    1    4    4    0    0  0.10565705067E-03  0.37316789377E-01 -0.11391500744E+00  0.11987261561E+00  0.51100000000E-03 0. -1.
</event>
<event>
 8    1  0.1138737E+005  0.1043930E+01  0.7957747E-01            NaN
         13   -1    0    0    0    0  0.00000000000E+00  0.00000000000E+00  0.74505805969E-08  0.10566000000E+00  0.10566000000E+00 0. -1.
     999900   -1    0    0    0    0 -0.00000000000E+00 -0.00000000000E+00 -0.74505805969E-08  0.93827000000E+00  0.93827000000E+00 0. -1.
     999902    2    1    2    0    0 -0.48527330683E-02 -0.23621147920E-01 -0.82090530032E-02  0.10184565590E+01  0.10181379407E+01 0.  0.
     999903    2    3    3    0    0  0.10960760849E+00  0.53970169945E-01 -0.30103880864E-01  0.12738924058E+00  0.19878830171E-01 0.  0.
         14    1    1    2    0    0  0.48527330683E-02  0.23621147920E-01  0.82090530032E-02  0.25473441042E-01  0.00000000000E+00 0. -1.
     999901    1    3    3    0    0 -0.11446034156E+00 -0.77591317865E-01  0.21894827861E-01  0.89106731838E+00  0.88000000000E+00 0.  1.
        -11    1    4    4    0    0  0.88746517235E-01  0.35810386513E-01 -0.27666438457E-01  0.99619380853E-01  0.51100000000E-03 0. -1.
         11    1    4    4    0    0  0.20861091256E-01  0.18159783432E-01 -0.24374424066E-02  0.27769859725E-01  0.51100000000E-03 0.  1.
</event>
<event>
 8    1  0.1138737E+005  0.1043930E+01  0.7957747E-01            NaN
         13   -1    0    0    0    0  0.00000000000E+00  0.00000000000E+00  0.74505805969E-08  0.10566000000E+00  0.10566000000E+00 0.  1.
     999900   -1    0    0    0    0 -0.00000000000E+00 -0.00000000000E+00 -0.74505805969E-08  0.93827000000E+00  0.93827000000E+00 0. -1.
     999902    2    1    2    0    0  0.15877701872E-01 -0.16915250207E-01  0.18493594273E-02  0.10206566840E+01  0.10203913070E+01 0.  0.
     999903    2    3    3    0    0 -0.63563290261E-01 -0.11139111656E+00 -0.22568670775E-01  0.13170629128E+00  0.19721296777E-01 0.  0.
         14    1    1    2    0    0 -0.15877701872E-01  0.16915250207E-01 -0.18493594273E-02  0.23273315977E-01  0.00000000000E+00 0.  1.
     999901    1    3    3    0    0  0.79440992133E-01  0.94475866349E-01  0.24418030202E-01  0.88895039274E+00  0.88000000000E+00 0. -1.
        -11    1    4    4    0    0 -0.16331774814E-01 -0.22363739724E-01  0.26314832019E-02  0.27821745953E-01  0.51100000000E-03 0.  1.
         11    1    4    4    0    0 -0.47231515447E-01 -0.89027376832E-01 -0.25200153977E-01  0.10388454533E+00  0.51100000000E-03 0. -1.
</event>
<event>
 8    1  0.1138737E+005  0.1043930E+01  0.7957747E-01            NaN
         13   -1    0    0    0    0  0.00000000000E+00  0.00000000000E+00  0.74505805969E-08  0.10566000000E+00  0.10566000000E+00 0.  1.
     999900   -1    0    0    0    0 -0.00000000000E+00 -0.00000000000E+00 -0.74505805969E-08  0.93827000000E+00  0.93827000000E+00 0. -1.
     999902    2    1    2    0    0  0.16104160466E-01  0.46640557459E-02 -0.16992146104E-01  0.10200588788E+01  0.10197795280E+01 0.  0.
     999903    2    3    3    0    0  0.78361961408E-01  0.47709856674E-01  0.89774205442E-01  0.13038026904E+00  0.22864364707E-01 0.  0.
         14    1    1    2    0    0 -0.16104160466E-01 -0.46640557459E-02  0.16992146104E-01  0.23871121246E-01  0.00000000000E+00 0.  1.
     999901    1    3    3    0    0 -0.62257800943E-01 -0.43045800928E-01 -0.10676635155E+00  0.88967860971E+00  0.88000000000E+00 0. -1.
        -11    1    4    4    0    0  0.38190083176E-01  0.10107350829E-01  0.36411301276E-01  0.53727878940E-01  0.51100000000E-03 0. -1.
         11    1    4    4    0    0  0.40171878232E-01  0.37602505845E-01  0.53362904166E-01  0.76652390103E-01  0.51100000000E-03 0.  1.
</event>
<event>
 8    1  0.1138737E+005  0.1043930E+01  0.7957747E-01            NaN
         13   -1    0    0    0    0  0.00000000000E+00  0.00000000000E+00  0.74505805969E-08  0.10566000000E+00  0.10566000000E+00 0. -1.
     999900   -1    0    0    0    0 -0.00000000000E+00 -0.00000000000E+00 -0.74505805969E-08  0.93827000000E+00  0.93827000000E+00 0. -1.
     999902    2    1    2    0    0 -0.13666247526E-01  0.20304508299E-01 -0.12584593665E-02  0.10194223869E+01  0.10191277544E+01 0.  0.
     999903    2    3    3    0    0  0.73146823256E-01 -0.88465161861E-01 -0.50196075103E-01  0.12714314776E+00  0.21660827587E-01 0.  0.
         14    1    1    2    0    0  0.13666247526E-01 -0.20304508299E-01  0.12584593665E-02  0.24507613076E-01  0.00000000000E+00 0.  1.
     999901    1    3    3    0    0 -0.86813070781E-01  0.10876967016E+00  0.48937615736E-01  0.89227923916E+00  0.88000000000E+00 0.  1.
        -11    1    4    4    0    0  0.20704719174E-01 -0.21193541309E-01 -0.23325567448E-01  0.37711998184E-01  0.51100000000E-03 0. -1.
         11    1    4    4    0    0  0.52442104082E-01 -0.67271620552E-01 -0.26870507654E-01  0.89431149578E-01  0.51100000000E-03 0.  1.
</event>
<event>
 8    1  0.1138737E+005  0.1043930E+01  0.7957747E-01            NaN
         13   -1    0    0    0    0  0.00000000000E+00  0.00000000000E+00  0.74505805969E-08  0.10566000000E+00  0.10566000000E+00 0.  1.
     999900   -1    0    0    0    0 -0.00000000000E+00 -0.00000000000E+00 -0.74505805969E-08  0.93827000000E+00  0.93827000000E+00 0.  1.
     999902    2    1    2    0    0  0.78194458087E-02 -0.18944498114E-01  0.97163002422E-02  0.10212486369E+01  0.10209967356E+01 0.  0.
     999903    2    3    3    0    0  0.76499260674E-01  0.59524223840E-01  0.87434108691E-01  0.13169014245E+00  0.17386780887E-01 0.  0.
         14    1    1    2    0    0 -0.78194458087E-02  0.18944498114E-01 -0.97163002422E-02  0.22681363097E-01  0.00000000000E+00 0. -1.
     999901    1    3    3    0    0 -0.68679814866E-01 -0.78468721954E-01 -0.77717808448E-01  0.88955849445E+00  0.88000000000E+00 0.  1.
        -11    1    4    4    0    0  0.22015306799E-01  0.83103181685E-02  0.24230569501E-01  0.33780419489E-01  0.51100000000E-03 0. -1.
         11    1    4    4    0    0  0.54483953876E-01  0.51213905671E-01  0.63203539190E-01  0.97909722966E-01  0.51100000000E-03 0.  1.
</event>
<event>
 8    1  0.1138737E+005  0.1043930E+01  0.7957747E-01            NaN
         13   -1    0    0    0    0  0.00000000000E+00  0.00000000000E+00  0.74505805969E-08  0.10566000000E+00  0.10566000000E+00 0.  1.
     999900   -1    0    0    0    0 -0.00000000000E+00 -0.00000000000E+00 -0.74505805969E-08  0.93827000000E+00  0.93827000000E+00 0.  1.
     999902    2    1    2    0    0 -0.13992050377E-01 -0.49754765740E-02  0.18658005337E-01  0.10200835327E+01  0.10198047654E+01 0.  0.
     999903    2    3    3    0    0 -0.61352314283E-01  0.25429046467E-01  0.11363914391E+00  0.13318509074E+00  0.20338891180E-01 0.  0.
         14    1    1    2    0    0  0.13992050377E-01  0.49754765740E-02 -0.18658005337E-01  0.23846467328E-01  0.00000000000E+00 0. -1.
     999901    1    3    3    0    0  0.47360263906E-01 -0.30404523041E-01 -0.94981138573E-01  0.88689844193E+00  0.88000000000E+00 0.  1.
        -11    1    4    4    0    0 -0.57565767406E-01  0.28278034146E-01  0.10064702501E+00  0.11934634287E+00  0.51100000000E-03 0.  1.
         11    1    4    4    0    0 -0.37865468766E-02 -0.28489876789E-02  0.12992118902E-01  0.13838747870E-01  0.51100000000E-03 0. -1.
</event>
<event>
 8    1  0.1138737E+005  0.1043930E+01  0.7957747E-01            NaN
         13   -1    0    0    0    0  0.00000000000E+00  0.00000000000E+00  0.74505805969E-08  0.10566000000E+00  0.10566000000E+00 0. -1.
     999900   -1    0    0    0    0 -0.00000000000E+00 -0.00000000000E+00 -0.74505805969E-08  0.93827000000E+00  0.93827000000E+00 0. -1.
     999902    2    1    2    0    0 -0.21437501225E-01  0.65923465047E-02  0.89152719543E-02  0.10197948065E+01  0.10195091661E+01 0.  0.
     999903    2    3    3    0    0 -0.71800381973E-02  0.74349019300E-01  0.10668148939E+00  0.13167742956E+00  0.19459590321E-01 0.  0.
         14    1    1    2    0    0  0.21437501225E-01 -0.65923465047E-02 -0.89152719543E-02  0.24135193499E-01  0.00000000000E+00 0. -1.
     999901    1    3    3    0    0 -0.14257463028E-01 -0.67756672795E-01 -0.97766217440E-01  0.88811737695E+00  0.88000000000E+00 0. -1.
        -11    1    4    4    0    0 -0.12122106232E-01  0.44217078108E-01  0.73067290485E-01  0.86262306459E-01  0.51100000000E-03 0.  1.
         11    1    4    4    0    0  0.49420680351E-02  0.30131941192E-01  0.33614198910E-01  0.45415123096E-01  0.51100000000E-03 0. -1.
</event>
<event>
 8    1  0.1138737E+005  0.1043930E+01  0.7957747E-01            NaN
         13   -1    0    0    0    0  0.00000000000E+00  0.00000000000E+00  0.74505805969E-08  0.10566000000E+00  0.10566000000E+00 0.  1.
     999900   -1    0    0    0    0 -0.00000000000E+00 -0.00000000000E+00 -0.74505805969E-08  0.93827000000E+00  0.93827000000E+00 0. -1.
     999902    2    1    2    0    0  0.64372963303E-02 -0.22590027849E-01 -0.60603263931E-03  0.10204328636E+01  0.10201622977E+01 0.  0.
     999903    2    3    3    0    0  0.34024906783E-01  0.12192826735E+00  0.30892634750E-02  0.12821076733E+00  0.20106234144E-01 0.  0.
         14    1    1    2    0    0 -0.64372963303E-02  0.22590027849E-01  0.60603263931E-03  0.23497136374E-01  0.00000000000E+00 0.  1.
     999901    1    3    3    0    0 -0.27587610453E-01 -0.14451829520E+00 -0.36952961143E-02  0.89222209629E+00  0.88000000000E+00 0. -1.
        -11    1    4    4    0    0  0.17279492429E-01  0.86166074868E-01  0.87404812322E-02  0.88316648770E-01  0.51100000000E-03 0. -1.
         11    1    4    4    0    0  0.16745414354E-01  0.35762192480E-01 -0.56512177572E-02  0.39894118564E-01  0.51100000000E-03 0.  1.
</event>
<event>
 8    1  0.1138737E+005  0.1043930E+01  0.7957747E-01            NaN
         13   -1    0    0    0    0  0.00000000000E+00  0.00000000000E+00  0.74505805969E-08  0.10566000000E+00  0.10566000000E+00 0. -1.
     999900   -1    0    0    0    0 -0.00000000000E+00 -0.00000000000E+00 -0.74505805969E-08  0.93827000000E+00  0.93827000000E+00 0. -1.
     999902    2    1    2    0    0  0.88543539985E-02 -0.16113306967E-01 -0.14912932123E-01  0.10202565171E+01  0.10199818268E+01 0.  0.
     999903    2    3    3    0    0 -0.63322535708E-01 -0.10048644676E+00 -0.55087092482E-01  0.13237009800E+00  0.19493218721E-01 0.  0.
         14    1    1    2    0    0 -0.88543539985E-02  0.16113306967E-01  0.14912932123E-01  0.23673482859E-01  0.00000000000E+00 0.  1.
     999901    1    3    3    0    0  0.72176889706E-01  0.84373139796E-01  0.40174160359E-01  0.88788641914E+00  0.88000000000E+00 0.  1.
        -11    1    4    4    0    0 -0.21271206103E-01 -0.22384998765E-01 -0.20974349635E-01  0.37332785088E-01  0.51100000000E-03 0. -1.
         11    1    4    4    0    0 -0.42051329605E-01 -0.78101447998E-01 -0.34112742846E-01  0.95037312917E-01  0.51100000000E-03 0.  1.
</event>
<event>
 8    1  0.1138737E+005  0.1043930E+01  0.7957747E-01            NaN
         13   -1    0    0    0    0  0.00000000000E+00  0.00000000000E+00  0.74505805969E-08  0.10566000000E+00  0.10566000000E+00 0.  1.
     999900   -1    0    0    0    0 -0.00000000000E+00 -0.00000000000E+00 -0.74505805969E-08  0.93827000000E+00  0.93827000000E+00 0.  1.
     999902    2    1    2    0    0 -0.67225395760E-03 -0.25414796413E-01  0.71057157204E-02  0.10175319887E+01  0.10171895070E+01 0.  0.
     999903    2    3    3    0    0 -0.50800263653E-01 -0.54484562875E-01 -0.10290738852E+00  0.12879088371E+00  0.21164279713E-01 0.  0.
         14    1    1    2    0    0  0.67225395760E-03  0.25414796413E-01 -0.71057157204E-02  0.26398011251E-01  0.00000000000E+00 0. -1.
     999901    1    3    3    0    0  0.50128009695E-01  0.29069766462E-01  0.11001310424E+00  0.88874110504E+00  0.88000000000E+00 0. -1.
        -11    1    4    4    0    0 -0.50401563062E-01 -0.45331798629E-01 -0.94814573335E-01  0.11655622662E+00  0.51100000000E-03 0.  1.
         11    1    4    4    0    0 -0.39870059077E-03 -0.91527642458E-02 -0.80928151873E-02  0.12234657092E-01  0.51100000000E-03 0. -1.
</event>
<event>
 8    1  0.1138737E+005  0.1043930E+01  0.7957747E-01            NaN
         13   -1    0    0    0    0  0.00000000000E+00  0.00000000000E+00  0.74505805969E-08  0.10566000000E+00  0.10566000000E+00 0.  1.
     999900   -1    0    0    0    0 -0.00000000000E+00 -0.00000000000E+00 -0.74505805969E-08  0.93827000000E+00  0.93827000000E+00 0.  1.
     999902    2    1    2    0    0  0.11010680735E-01  0.80970878173E-02  0.18903669344E-01  0.10206030491E+01  0.10203364334E+01 0.  0.
     999903    2    3    3    0    0 -0.18770052074E-01  0.10922004604E+00  0.70404362636E-01  0.13281643845E+00  0.20052399692E-01 0.  0.
         14    1    1    2    0    0 -0.11010680735E-01 -0.80970878173E-02 -0.18903669344E-01  0.23326950851E-01  0.00000000000E+00 0. -1.
     999901    1    3    3    0    0  0.29780732809E-01 -0.10112295822E+00 -0.51500693292E-01  0.88778661070E+00  0.88000000000E+00 0.  1.
        -11    1    4    4    0    0 -0.21189784747E-01  0.76812735419E-01  0.44594082896E-01  0.91313178953E-01  0.51100000000E-03 0. -1.
         11    1    4    4    0    0  0.24197326724E-02  0.32407310618E-01  0.25810279740E-01  0.41503259498E-01  0.51100000000E-03 0.  1.
</event>
<event>
 8    1  0.1138737E+005  0.1043930E+01  0.7957747E-01            NaN
         13   -1    0    0    0    0  0.00000000000E+00  0.00000000000E+00  0.74505805969E-08  0.10566000000E+00  0.10566000000E+00 0. -1.
     999900   -1    0    0    0    0 -0.00000000000E+00 -0.00000000000E+00 -0.74505805969E-08  0.93827000000E+00  0.93827000000E+00 0. -1.
     999902    2    1    2    0    0  0.14994282648E-01  0.15041068327E-01  0.13497626348E-01  0.10187655774E+01  0.10184547381E+01 0.  0.
     999903    2    3    3    0    0 -0.35484662887E-01  0.54265789830E-01  0.11197429302E+00  0.13096810240E+00  0.20259918617E-01 0.  0.
         14    1    1    2    0    0 -0.14994282648E-01 -0.15041068327E-01 -0.13497626348E-01  0.25164422616E-01  0.00000000000E+00 0.  1.
     999901    1    3    3    0    0  0.50478945535E-01 -0.39224721504E-01 -0.98476666668E-01  0.88779747499E+00  0.88000000000E+00 0. -1.
        -11    1    4    4    0    0 -0.17215448028E-01  0.43283374688E-01  0.75220059942E-01  0.88476780648E-01  0.51100000000E-03 0. -1.
         11    1    4    4    0    0 -0.18269214859E-01  0.10982415143E-01  0.36754233075E-01  0.42491321747E-01  0.51100000000E-03 0.  1.
</event>
<event>
 8    1  0.1138737E+005  0.1043930E+01  0.7957747E-01            NaN
         13   -1    0    0    0    0  0.00000000000E+00  0.00000000000E+00  0.74505805969E-08  0.10566000000E+00  0.10566000000E+00 0.  1.
     999900   -1    0    0    0    0 -0.00000000000E+00 -0.00000000000E+00 -0.74505805969E-08  0.93827000000E+00  0.93827000000E+00 0. -1.
     999902    2    1    2    0    0  0.57085366308E-03  0.20185010301E-01 -0.10167090242E-01  0.10213218104E+01  0.10210715499E+01 0.  0.
     999903    2    3    3    0    0 -0.12848910750E+00 -0.80390942981E-02  0.76103101956E-02  0.13128298558E+00  0.24560694145E-01 0.  0.
         14    1    1    2    0    0 -0.57085366308E-03 -0.20185010301E-01  0.10167090242E-01  0.22608189639E-01  0.00000000000E+00 0.  1.
     999901    1    3    3    0    0  0.12905996117E+00  0.28224104599E-01 -0.17777400438E-01  0.89003882478E+00  0.88000000000E+00 0. -1.
        -11    1    4    4    0    0 -0.10445542261E+00  0.18150634361E-02  0.11136544365E-01  0.10506433034E+00  0.51100000000E-03 0.  1.
         11    1    4    4    0    0 -0.24033684894E-01 -0.98541577342E-02 -0.35262341692E-02  0.26218655241E-01  0.51100000000E-03 0. -1.
</event>
<event>
 8    1  0.1138737E+005  0.1043930E+01  0.7957747E-01            NaN
         13   -1    0    0    0    0  0.00000000000E+00  0.00000000000E+00  0.74505805969E-08  0.10566000000E+00  0.10566000000E+00 0.  1.
     999900   -1    0    0    0    0 -0.00000000000E+00 -0.00000000000E+00 -0.74505805969E-08  0.93827000000E+00  0.93827000000E+00 0.  1.
     999902    2    1    2    0    0 -0.20831938572E-01 -0.10272815199E-01  0.50165343828E-02  0.10201672978E+01  0.10198905086E+01 0.  0.
     999903    2    3    3    0    0 -0.82422485000E-01  0.38119029276E-02 -0.10022911896E+00  0.13164694228E+00  0.21841348078E-01 0.  0.
         14    1    1    2    0    0  0.20831938572E-01  0.10272815199E-01 -0.50165343828E-02  0.23762702161E-01  0.00000000000E+00 0. -1.
     999901    1    3    3    0    0  0.61590546428E-01 -0.14084718126E-01  0.10524565335E+00  0.88852035556E+00  0.88000000000E+00 0. -1.
        -11    1    4    4    0    0 -0.17847604480E-01 -0.13117387351E-02 -0.37101585232E-01  0.41195222926E-01  0.51100000000E-03 0. -1.
         11    1    4    4    0    0 -0.64574880520E-01  0.51236416627E-02 -0.63127533733E-01  0.90451719354E-01  0.51100000000E-03 0.  1.
</event>
<event>
 8    1  0.1138737E+005  0.1043930E+01  0.7957747E-01            NaN
         13   -1    0    0    0    0  0.00000000000E+00  0.00000000000E+00  0.74505805969E-08  0.10566000000E+00  0.10566000000E+00 0. -1.
     999900   -1    0    0    0    0 -0.00000000000E+00 -0.00000000000E+00 -0.74505805969E-08  0.93827000000E+00  0.93827000000E+00 0. -1.
     999902    2    1    2    0    0  0.17876614168E-01  0.13549594211E-01 -0.78314212085E-04  0.10214985272E+01  0.10212522069E+01 0.  0.
     999903    2    3    3    0    0  0.10055410332E+00 -0.75760672255E-01 -0.35954363012E-01  0.13239843063E+00  0.19642328231E-01 0.  0.
         14    1    1    2    0    0 -0.17876614168E-01 -0.13549594211E-01  0.78314212085E-04  0.22431472767E-01  0.00000000000E+00 0.  1.
     999901    1    3    3    0    0 -0.82677489149E-01  0.89310266466E-01  0.35876048799E-01  0.88910009661E+00  0.88000000000E+00 0.  1.
        -11    1    4    4    0    0  0.42869617735E-01 -0.29577094967E-01 -0.24717146766E-01  0.57652468609E-01  0.51100000000E-03 0. -1.
         11    1    4    4    0    0  0.57684485582E-01 -0.46183577288E-01 -0.11237216245E-01  0.74745962018E-01  0.51100000000E-03 0.  1.
</event>
<event>
 8    1  0.1138737E+005  0.1043930E+01  0.7957747E-01            NaN
         13   -1    0    0    0    0  0.00000000000E+00  0.00000000000E+00  0.74505805969E-08  0.10566000000E+00  0.10566000000E+00 0.  1.
     999900   -1    0    0    0    0 -0.00000000000E+00 -0.00000000000E+00 -0.74505805969E-08  0.93827000000E+00  0.93827000000E+00 0.  1.
     999902    2    1    2    0    0 -0.92046904307E-02  0.20196295463E-01 -0.14364880157E-01  0.10174920262E+01  0.10171484931E+01 0.  0.
     999903    2    3    3    0    0 -0.10593437416E+00 -0.64937823422E-01 -0.23435173375E-01  0.12806146673E+00  0.20285940189E-01 0.  0.
         14    1    1    2    0    0  0.92046904307E-02 -0.20196295463E-01  0.14364880157E-01  0.26437973793E-01  0.00000000000E+00 0.  1.
     999901    1    3    3    0    0  0.96729683733E-01  0.85134118886E-01  0.90702932185E-02  0.88943055948E+00  0.88000000000E+00 0. -1.
        -11    1    4    4    0    0 -0.46242913107E-01 -0.39603636752E-01 -0.80674205169E-02  0.61418233867E-01  0.51100000000E-03 0.  1.
         11    1    4    4    0    0 -0.59691461057E-01 -0.25334186671E-01 -0.15367752858E-01  0.66643232862E-01  0.51100000000E-03 0. -1.
</event>
<event>
 8    1  0.1138737E+005  0.1043930E+01  0.7957747E-01            NaN
         13   -1    0    0    0    0  0.00000000000E+00  0.00000000000E+00  0.74505805969E-08  0.10566000000E+00  0.10566000000E+00 0. -1.
     999900   -1    0    0    0    0 -0.00000000000E+00 -0.00000000000E+00 -0.74505805969E-08  0.93827000000E+00  0.93827000000E+00 0.  1.
     999902    2    1    2    0    0 -0.85833222821E-05  0.22093893729E-01 -0.82718219434E-02  0.10203384072E+01  0.10200656361E+01 0.  0.
     999903    2    3    3    0    0 -0.60675645773E-02  0.96873308614E-01  0.87173951675E-01  0.13200369106E+00  0.20110279522E-01 0.  0.
         14    1    1    2    0    0  0.85833222821E-05 -0.22093893729E-01  0.82718219434E-02  0.23591592825E-01  0.00000000000E+00 0.  1.
     999901    1    3    3    0    0  0.60589812551E-02 -0.74779414885E-01 -0.95445773618E-01  0.88833471611E+00  0.88000000000E+00 0.  1.
        -11    1    4    4    0    0  0.16313855726E-02  0.83141149098E-01  0.76344298974E-01  0.11288855212E+00  0.51100000000E-03 0. -1.
         11    1    4    4    0    0 -0.76989501499E-02  0.13732159517E-01  0.10829652700E-01  0.19115138948E-01  0.51100000000E-03 0.  1.
</event>
<event>
 8    1  0.1138737E+005  0.1043930E+01  0.7957747E-01            NaN
         13   -1    0    0    0    0  0.00000000000E+00  0.00000000000E+00  0.74505805969E-08  0.10566000000E+00  0.10566000000E+00 0. -1.
     999900   -1    0    0    0    0 -0.00000000000E+00 -0.00000000000E+00 -0.74505805969E-08  0.93827000000E+00  0.93827000000E+00 0.  1.
     999902    2    1    2    0    0 -0.39032582101E-02 -0.54617706752E-02 -0.22549281775E-01  0.10204026442E+01  0.10201313738E+01 0.  0.
     999903    2    3    3    0    0 -0.76659222509E-01  0.23747125867E-01 -0.10435506824E+00  0.13313787159E+00  0.19878385266E-01 0.  0.
         14    1    1    2    0    0  0.39032582101E-02  0.54617706752E-02  0.22549281775E-01  0.23527355826E-01  0.00000000000E+00 0. -1.
     999901    1    3    3    0    0  0.72755964299E-01 -0.29208896542E-01  0.81805786462E-01  0.88726477259E+00  0.88000000000E+00 0. -1.
        -11    1    4    4    0    0 -0.18291091841E-01  0.14486254728E-01 -0.34239870032E-01  0.41437246983E-01  0.51100000000E-03 0.  1.
         11    1    4    4    0    0 -0.58368130668E-01  0.92608711393E-02 -0.70115198206E-01  0.91700624602E-01  0.51100000000E-03 0. -1.
</event>
<event>
 8    1  0.1138737E+005  0.1043930E+01  0.7957747E-01            NaN
         13   -1    0    0    0    0  0.00000000000E+00  0.00000000000E+00  0.74505805969E-08  0.10566000000E+00  0.10566000000E+00 0.  1.
     999900   -1    0    0    0    0 -0.00000000000E+00 -0.00000000000E+00 -0.74505805969E-08  0.93827000000E+00  0.93827000000E+00 0.  1.
     999902    2    1    2    0    0 -0.19862695083E-01 -0.10520346450E-01 -0.75169764438E-02  0.10202295932E+01  0.10199542704E+01 0.  0.
     999903    2    3    3    0    0  0.24024868607E-01  0.11407741927E+00  0.50288329327E-01  0.12849410845E+00  0.19772909290E-01 0.  0.
         14    1    1    2    0    0  0.19862695083E-01  0.10520346450E-01  0.75169764438E-02  0.23700406753E-01  0.00000000000E+00 0. -1.
     999901    1    3    3    0    0 -0.43887563690E-01 -0.12459776572E+00 -0.57805305770E-01  0.89173548480E+00  0.88000000000E+00 0.  1.
        -11    1    4    4    0    0 -0.12092201673E-02  0.14790557928E-01  0.12130791042E-01  0.19173941420E-01  0.51100000000E-03 0. -1.
         11    1    4    4    0    0  0.25234088774E-01  0.99286861340E-01  0.38157538284E-01  0.10932016703E+00  0.51100000000E-03 0.  1.
</event>
<event>
 8    1  0.1138737E+005  0.1043930E+01  0.7957747E-01            NaN
         13   -1    0    0    0    0  0.00000000000E+00  0.00000000000E+00  0.74505805969E-08  0.10566000000E+00  0.10566000000E+00 0. -1.
     999900   -1    0    0    0    0 -0.00000000000E+00 -0.00000000000E+00 -0.74505805969E-08  0.93827000000E+00  0.93827000000E+00 0.  1.
     999902    2    1    2    0    0  0.18579273580E-01 -0.11022704646E-01  0.11171786645E-01  0.10196092631E+01  0.10193191606E+01 0.  0.
     999903    2    3    3    0    0  0.10754830916E+00 -0.68968028908E-02  0.74783426015E-01  0.13282915905E+00  0.20900239075E-01 0.  0.
         14    1    1    2    0    0 -0.18579273580E-01  0.11022704646E-01 -0.11171786645E-01  0.24320736858E-01  0.00000000000E+00 0.  1.
     999901    1    3    3    0    0 -0.88969035579E-01 -0.41259017549E-02 -0.63611639370E-01  0.88678010410E+00  0.88000000000E+00 0. -1.
        -11    1    4    4    0    0  0.37137037377E-01 -0.20821333566E-02  0.38254118953E-01  0.53358537858E-01  0.51100000000E-03 0.  1.
         11    1    4    4    0    0  0.70411271782E-01 -0.48146695342E-02  0.36529307062E-01  0.79470621189E-01  0.51100000000E-03 0. -1.
</event>
<event>
 8    1  0.1138737E+005  0.1043930E+01  0.7957747E-01            NaN
         13   -1    0    0    0    0  0.00000000000E+00  0.00000000000E+00  0.74505805969E-08  0.10566000000E+00  0.10566000000E+00 0. -1.
     999900   -1    0    0    0    0 -0.00000000000E+00 -0.00000000000E+00 -0.74505805969E-08  0.93827000000E+00  0.93827000000E+00 0.  1.
     999902    2    1    2    0    0 -0.96536485475E-02  0.10840622201E-01  0.19293809308E-01  0.10197853712E+01  0.10194995048E+01 0.  0.
     999903    2    3    3    0    0 -0.12013608641E+00 -0.14675429752E-01 -0.44281563968E-01  0.13023533552E+00  0.18770674253E-01 0.  0.
         14    1    1    2    0    0  0.96536485475E-02 -0.10840622201E-01 -0.19293809308E-01  0.24144628752E-01  0.00000000000E+00 0.  1.
     999901    1    3    3    0    0  0.11048243787E+00  0.25516051953E-01  0.63575373276E-01  0.88955003573E+00  0.88000000000E+00 0.  1.
        -11    1    4    4    0    0 -0.10475409180E-01 -0.66537806481E-02 -0.61203603190E-02  0.13846549239E-01  0.51100000000E-03 0.  1.
         11    1    4    4    0    0 -0.10966067723E+00 -0.80216491042E-02 -0.38161203649E-01  0.11638878628E+00  0.51100000000E-03 0. -1.
</event>
<event>
 8    1  0.1138737E+005  0.1043930E+01  0.7957747E-01            NaN
         13   -1    0    0    0    0  0.00000000000E+00  0.00000000000E+00  0.74505805969E-08  0.10566000000E+00  0.10566000000E+00 0.  1.
     999900   -1    0    0    0    0 -0.00000000000E+00 -0.00000000000E+00 -0.74505805969E-08  0.93827000000E+00  0.93827000000E+00 0. -1.
     999902    2    1    2    0    0  0.90176372242E-02 -0.11637135297E-02  0.22005975508E-01  0.10201196038E+01  0.10198416892E+01 0.  0.
     999903    2    3    3    0    0  0.59184602623E-01 -0.10971886984E+00  0.37000020127E-01  0.13190467047E+00  0.22108663807E-01 0.  0.
         14    1    1    2    0    0 -0.90176372242E-02  0.11637135297E-02 -0.22005975508E-01  0.23810396224E-01  0.00000000000E+00 0. -1.
     999901    1    3    3    0    0 -0.50166965399E-01  0.10855515631E+00 -0.14994044620E-01  0.88821493331E+00  0.88000000000E+00 0.  1.
        -11    1    4    4    0    0  0.49290756891E-01 -0.10370544147E+00  0.31441542626E-01  0.11905137139E+00  0.51100000000E-03 0. -1.
         11    1    4    4    0    0  0.98938457323E-02 -0.60134283688E-02  0.55584775014E-02  0.12853299081E-01  0.51100000000E-03 0.  1.
</event>
<event>
 8    1  0.1138737E+005  0.1043930E+01  0.7957747E-01            NaN
         13   -1    0    0    0    0  0.00000000000E+00  0.00000000000E+00  0.74505805969E-08  0.10566000000E+00  0.10566000000E+00 0.  1.
     999900   -1    0    0    0    0 -0.00000000000E+00 -0.00000000000E+00 -0.74505805969E-08  0.93827000000E+00  0.93827000000E+00 0.  1.
     999902    2    1    2    0    0  0.12168373581E-01  0.18588555869E-01  0.82590071309E-02  0.10202273646E+01  0.10199519894E+01 0.  0.
     999903    2    3    3    0    0  0.39220743132E-03 -0.10304774096E+00 -0.73407981184E-01  0.12803704649E+00  0.19640845936E-01 0.  0.
         14    1    1    2    0    0 -0.12168373581E-01 -0.18588555869E-01 -0.82590071309E-02  0.23702635374E-01  0.00000000000E+00 0. -1.
     999901    1    3    3    0    0  0.11776166149E-01  0.12163629683E+00  0.81666988315E-01  0.89219031814E+00  0.88000000000E+00 0. -1.
        -11    1    4    4    0    0 -0.14411346653E-02 -0.49023369002E-02 -0.98073530171E-02  0.11070459359E-01  0.51100000000E-03 0.  1.
         11    1    4    4    0    0  0.18333420966E-02 -0.98145404057E-01 -0.63600628167E-01  0.11696658713E+00  0.51100000000E-03 0. -1.
</event>
<event>
 8    1  0.1138737E+005  0.1043930E+01  0.7957747E-01            NaN
         13   -1    0    0    0    0  0.00000000000E+00  0.00000000000E+00  0.74505805969E-08  0.10566000000E+00  0.10566000000E+00 0. -1.
     999900   -1    0    0    0    0 -0.00000000000E+00 -0.00000000000E+00 -0.74505805969E-08  0.93827000000E+00  0.93827000000E+00 0.  1.
     999902    2    1    2    0    0  0.56377938948E-02 -0.39123633952E-02  0.23462772072E-01  0.10194842850E+01  0.10191911570E+01 0.  0.
     999903    2    3    3    0    0 -0.88283095718E-03 -0.85060097017E-01  0.99357850434E-01  0.13247383630E+00  0.21007983415E-01 0.  0.
         14    1    1    2    0    0 -0.56377938948E-02  0.39123633952E-02 -0.23462772072E-01  0.24445714975E-01  0.00000000000E+00 0.  1.
     999901    1    3    3    0    0  0.65206248520E-02  0.81147733622E-01 -0.75895078361E-01  0.88701044872E+00  0.88000000000E+00 0.  1.
        -11    1    4    4    0    0  0.81372529564E-02 -0.52121114169E-01  0.51916136748E-01  0.74016023966E-01  0.51100000000E-03 0. -1.
         11    1    4    4    0    0 -0.90200839135E-02 -0.32938982848E-01  0.47441713685E-01  0.58457812337E-01  0.51100000000E-03 0.  1.
</event>
<event>
 8    1  0.1138737E+005  0.1043930E+01  0.7957747E-01            NaN
         13   -1    0    0    0    0  0.00000000000E+00  0.00000000000E+00  0.74505805969E-08  0.10566000000E+00  0.10566000000E+00 0. -1.
     999900   -1    0    0    0    0 -0.00000000000E+00 -0.00000000000E+00 -0.74505805969E-08  0.93827000000E+00  0.93827000000E+00 0.  1.
     999902    2    1    2    0    0  0.37284033463E-02  0.16244250418E-01  0.18605149762E-01  0.10189514440E+01  0.10186452361E+01 0.  0.
     999903    2    3    3    0    0 -0.90436435520E-01  0.78149732766E-01 -0.45411929214E-01  0.12945861544E+00  0.20277085493E-01 0.  0.
         14    1    1    2    0    0 -0.37284033463E-02 -0.16244250418E-01 -0.18605149762E-01  0.24978556019E-01  0.00000000000E+00 0.  1.
     999901    1    3    3    0    0  0.94164838866E-01 -0.61905482348E-01  0.64017078976E-01  0.88949282854E+00  0.88000000000E+00 0. -1.
        -11    1    4    4    0    0 -0.92707220583E-02  0.26613091429E-02 -0.77711947035E-02  0.12396831932E-01  0.51100000000E-03 0. -1.
         11    1    4    4    0    0 -0.81165713461E-01  0.75488423623E-01 -0.37640734511E-01  0.11706178351E+00  0.51100000000E-03 0.  1.
</event>
<event>
 8    1  0.1138737E+005  0.1043930E+01  0.7957747E-01            NaN
         13   -1    0    0    0    0  0.00000000000E+00  0.00000000000E+00  0.74505805969E-08  0.10566000000E+00  0.10566000000E+00 0.  1.
     999900   -1    0    0    0    0 -0.00000000000E+00 -0.00000000000E+00 -0.74505805969E-08  0.93827000000E+00  0.93827000000E+00 0.  1.
     999902    2    1    2    0    0  0.22085612051E-01 -0.64490514082E-02  0.34038660082E-02  0.10206716504E+01  0.10204066185E+01 0.  0.
     999903    2    3    3    0    0 -0.36998251918E-01 -0.34498007431E-01  0.11893581037E+00  0.13071363053E+00  0.19528006950E-01 0.  0.
         14    1    1    2    0    0 -0.22085612051E-01  0.64490514082E-02 -0.34038660082E-02  0.23258349631E-01  0.00000000000E+00 0. -1.
     999901    1    3    3    0    0  0.59083863969E-01  0.28048956023E-01 -0.11553194436E+00  0.88995801984E+00  0.88000000000E+00 0.  1.
        -11    1    4    4    0    0 -0.16733895629E-01 -0.18164471800E-01  0.81163161641E-01  0.84839208077E-01  0.51100000000E-03 0.  1.
         11    1    4    4    0    0 -0.20264356289E-01 -0.16333535632E-01  0.37772648728E-01  0.45874422449E-01  0.51100000000E-03 0. -1.
</event>
<event>
 8    1  0.1138737E+005  0.1043930E+01  0.7957747E-01            NaN
         13   -1    0    0    0    0  0.00000000000E+00  0.00000000000E+00  0.74505805969E-08  0.10566000000E+00  0.10566000000E+00 0.  1.
     999900   -1    0    0    0    0 -0.00000000000E+00 -0.00000000000E+00 -0.74505805969E-08  0.93827000000E+00  0.93827000000E+00 0. -1.
     999902    2    1    2    0    0  0.21416730973E-01 -0.70653812607E-02  0.56049226563E-02  0.10206918603E+01  0.10204272941E+01 0.  0.
     999903    2    3    3    0    0  0.10850450839E+00  0.61232850327E-01 -0.40916654922E-01  0.13254030422E+00  0.19237185151E-01 0.  0.
         14    1    1    2    0    0 -0.21416730973E-01  0.70653812607E-02 -0.56049226563E-02  0.23238139682E-01  0.00000000000E+00 0.  1.
     999901    1    3    3    0    0 -0.87087777421E-01 -0.68298231588E-01  0.46521577579E-01  0.88815155610E+00  0.88000000000E+00 0.  1.
        -11    1    4    4    0    0  0.57057552604E-01  0.42950332073E-01 -0.21392773213E-01  0.74553384907E-01  0.51100000000E-03 0. -1.
         11    1    4    4    0    0  0.51446955790E-01  0.18282518253E-01 -0.19523881709E-01  0.57986919315E-01  0.51100000000E-03 0.  1.
</event>
<event>
 8    1  0.1138737E+005  0.1043930E+01  0.7957747E-01            NaN
         13   -1    0    0    0    0  0.00000000000E+00  0.00000000000E+00  0.74505805969E-08  0.10566000000E+00  0.10566000000E+00 0.  1.
     999900   -1    0    0    0    0 -0.00000000000E+00 -0.00000000000E+00 -0.74505805969E-08  0.93827000000E+00  0.93827000000E+00 0. -1.
     999902    2    1    2    0    0 -0.16392838505E-01 -0.81746857335E-02  0.14757559274E-01  0.10204069008E+01  0.10201357297E+01 0.  0.
     999903    2    3    3    0    0 -0.10491791062E+00 -0.36733615467E-01 -0.67714358166E-01  0.13166964038E+00  0.19862865389E-01 0.  0.
         14    1    1    2    0    0  0.16392838505E-01  0.81746857335E-02 -0.14757559274E-01  0.23523099217E-01  0.00000000000E+00 0.  1.
     999901    1    3    3    0    0  0.88525072118E-01  0.28558929733E-01  0.82471917440E-01  0.88873726040E+00  0.88000000000E+00 0.  1.
        -11    1    4    4    0    0 -0.47617539205E-01 -0.17010428890E-01 -0.19382355389E-01  0.54154607860E-01  0.51100000000E-03 0. -1.
         11    1    4    4    0    0 -0.57300371417E-01 -0.19723186577E-01 -0.48332002777E-01  0.77515032521E-01  0.51100000000E-03 0.  1.
</event>
<event>
 8    1  0.1138737E+005  0.1043930E+01  0.7957747E-01            NaN
         13   -1    0    0    0    0  0.00000000000E+00  0.00000000000E+00  0.74505805969E-08  0.10566000000E+00  0.10566000000E+00 0. -1.
     999900   -1    0    0    0    0 -0.00000000000E+00 -0.00000000000E+00 -0.74505805969E-08  0.93827000000E+00  0.93827000000E+00 0. -1.
     999902    2    1    2    0    0 -0.12557787791E-01 -0.13822401731E-01 -0.15345053339E-01  0.10197592018E+01  0.10194727079E+01 0.  0.
     999903    2    3    3    0    0 -0.69253119142E-01 -0.95755329007E-02 -0.11109580900E+00  0.13274138704E+00  0.19756308197E-01 0.  0.
         14    1    1    2    0    0  0.12557787791E-01  0.13822401731E-01  0.15345053339E-01  0.24170798204E-01  0.00000000000E+00 0.  1.
     999901    1    3    3    0    0  0.56695331351E-01 -0.42468688305E-02  0.95750755662E-01  0.88701781476E+00  0.88000000000E+00 0.  1.
        -11    1    4    4    0    0 -0.31322087941E-01 -0.21878208664E-02 -0.32697248545E-01  0.45334654918E-01  0.51100000000E-03 0.  1.
         11    1    4    4    0    0 -0.37931031201E-01 -0.73877120343E-02 -0.78398560456E-01  0.87406732119E-01  0.51100000000E-03 0. -1.
</event>
<event>
 8    1  0.1138737E+005  0.1043930E+01  0.7957747E-01            NaN
         13   -1    0    0    0    0  0.00000000000E+00  0.00000000000E+00  0.74505805969E-08  0.10566000000E+00  0.10566000000E+00 0. -1.
     999900   -1    0    0    0    0 -0.00000000000E+00 -0.00000000000E+00 -0.74505805969E-08  0.93827000000E+00  0.93827000000E+00 0. -1.
     999902    2    1    2    0    0 -0.29219371979E-02  0.19062854013E-01 -0.10322717654E-01  0.10220556173E+01  0.10218215090E+01 0.  0.
     999903    2    3    3    0    0 -0.11501937712E+00 -0.54231612889E-01  0.25208502935E-01  0.13121310450E+00  0.20270303968E-01 0.  0.
         14    1    1    2    0    0  0.29219371979E-02 -0.19062854013E-01  0.10322717654E-01  0.21874382731E-01  0.00000000000E+00 0. -1.
     999901    1    3    3    0    0  0.11209743992E+00  0.73294466902E-01 -0.35531220589E-01  0.89084251277E+00  0.88000000000E+00 0. -1.
        -11    1    4    4    0    0 -0.35643529110E-01 -0.18940136845E-01  0.17518930270E-01  0.44004136055E-01  0.51100000000E-03 0. -1.
         11    1    4    4    0    0 -0.79375848012E-01 -0.35291476043E-01  0.76895726651E-02  0.87208968447E-01  0.51100000000E-03 0.  1.
</event>
<event>
 8    1  0.1138737E+005  0.1043930E+01  0.7957747E-01            NaN
         13   -1    0    0    0    0  0.00000000000E+00  0.00000000000E+00  0.74505805969E-08  0.10566000000E+00  0.10566000000E+00 0.  1.
     999900   -1    0    0    0    0 -0.00000000000E+00 -0.00000000000E+00 -0.74505805969E-08  0.93827000000E+00  0.93827000000E+00 0.  1.
     999902    2    1    2    0    0 -0.68607413279E-02 -0.11724207655E-01 -0.19052747467E-01  0.10205305555E+01  0.10202622608E+01 0.  0.
     999903    2    3    3    0    0  0.82401648617E-01 -0.42722932827E-01 -0.92297015668E-01  0.13244642771E+00  0.20199911554E-01 0.  0.
         14    1    1    2    0    0  0.68607413279E-02  0.11724207655E-01  0.19052747467E-01  0.23399444496E-01  0.00000000000E+00 0.  1.
     999901    1    3    3    0    0 -0.89262389945E-01  0.30998725171E-01  0.73244268202E-01  0.88808412780E+00  0.88000000000E+00 0. -1.
        -11    1    4    4    0    0  0.25277082561E-01 -0.22472212985E-01 -0.26352648128E-01  0.42879534088E-01  0.51100000000E-03 0.  1.
         11    1    4    4    0    0  0.57124566057E-01 -0.20250719842E-01 -0.65944367540E-01  0.89566893619E-01  0.51100000000E-03 0. -1.
</event>
<event>
 8    1  0.1138737E+005  0.1043930E+01  0.7957747E-01            NaN
         13   -1    0    0    0    0  0.00000000000E+00  0.00000000000E+00  0.74505805969E-08  0.10566000000E+00  0.10566000000E+00 0. -1.
     999900   -1    0    0    0    0 -0.00000000000E+00 -0.00000000000E+00 -0.74505805969E-08  0.93827000000E+00  0.93827000000E+00 0. -1.
     999902    2    1    2    0    0 -0.20658429250E-01  0.27072082356E-02 -0.12386375529E-01  0.10196911474E+01  0.10194030185E+01 0.  0.
     999903    2    3    3    0    0 -0.53244257313E-01 -0.10071479838E+00 -0.62556701828E-01  0.13161738400E+00  0.20769527643E-01 0.  0.
         14    1    1    2    0    0  0.20658429250E-01 -0.27072082356E-02  0.12386375529E-01  0.24238852577E-01  0.00000000000E+00 0. -1.
     999901    1    3    3    0    0  0.32585828063E-01  0.10342200661E+00  0.50170326299E-01  0.88807376342E+00  0.88000000000E+00 0. -1.
        -11    1    4    4    0    0 -0.17420819980E-01 -0.29856024935E-01 -0.86193904448E-02  0.35628951800E-01  0.51100000000E-03 0.  1.
         11    1    4    4    0    0 -0.35823437333E-01 -0.70858773440E-01 -0.53937311383E-01  0.95988432199E-01  0.51100000000E-03 0. -1.
</event>
<event>
 8    1  0.1138737E+005  0.1043930E+01  0.7957747E-01            NaN
         13   -1    0    0    0    0  0.00000000000E+00  0.00000000000E+00  0.74505805969E-08  0.10566000000E+00  0.10566000000E+00 0. -1.
     999900   -1    0    0    0    0 -0.00000000000E+00 -0.00000000000E+00 -0.74505805969E-08  0.93827000000E+00  0.93827000000E+00 0.  1.
     999902    2    1    2    0    0 -0.14322872957E-01 -0.13267686407E-01  0.13511320633E-02  0.10243595695E+01  0.10241726055E+01 0.  0.
     999903    2    3    3    0    0 -0.12092908101E+00  0.21730826257E-01 -0.53314315071E-01  0.13555245285E+00  0.20880130244E-01 0.  0.
         14    1    1    2    0    0  0.14322872957E-01  0.13267686407E-01 -0.13511320633E-02  0.19570430506E-01  0.00000000000E+00 0.  1.
     999901    1    3    3    0    0  0.10660620805E+00 -0.34998512664E-01  0.54665447135E-01  0.88880711664E+00  0.88000000000E+00 0. -1.
        -11    1    4    4    0    0 -0.64059580772E-01  0.95709788501E-02 -0.39186329452E-01  0.75703784990E-01  0.51100000000E-03 0.  1.
         11    1    4    4    0    0 -0.56869500237E-01  0.12159847407E-01 -0.14127985619E-01  0.59848667861E-01  0.51100000000E-03 0. -1.
</event>
<event>
 8    1  0.1138737E+005  0.1043930E+01  0.7957747E-01            NaN
         13   -1    0    0    0    0  0.00000000000E+00  0.00000000000E+00  0.74505805969E-08  0.10566000000E+00  0.10566000000E+00 0.  1.
     999900   -1    0    0    0    0 -0.00000000000E+00 -0.00000000000E+00 -0.74505805969E-08  0.93827000000E+00  0.93827000000E+00 0. -1.
     999902    2    1    2    0    0 -0.23620611289E-01  0.54084553155E-02 -0.29074334288E-02  0.10195243073E+01  0.10192321499E+01 0.  0.
     999903    2    3    3    0    0  0.11642612479E+00  0.46876770399E-01 -0.94129723661E-02  0.12746207211E+00  0.20137071309E-01 0.  0.
         14    1    1    2    0    0  0.23620611289E-01 -0.54084553155E-02  0.29074334288E-02  0.24405692690E-01  0.00000000000E+00 0.  1.
     999901    1    3    3    0    0 -0.14004673607E+00 -0.41468315084E-01  0.65055389373E-02  0.89206223520E+00  0.88000000000E+00 0.  1.
        -11    1    4    4    0    0  0.76419959005E-01  0.28308057233E-01  0.32849710463E-02  0.81562297628E-01  0.51100000000E-03 0. -1.
         11    1    4    4    0    0  0.40006165781E-01  0.18568713166E-01 -0.12697943412E-01  0.45899774477E-01  0.51100000000E-03 0.  1.
</event>
<event>
 8    1  0.1138737E+005  0.1043930E+01  0.7957747E-01            NaN
         13   -1    0    0    0    0  0.00000000000E+00  0.00000000000E+00  0.74505805969E-08  0.10566000000E+00  0.10566000000E+00 0.  1.
     999900   -1    0    0    0    0 -0.00000000000E+00 -0.00000000000E+00 -0.74505805969E-08  0.93827000000E+00  0.93827000000E+00 0.  1.
     999902    2    1    2    0    0  0.15344870598E-01  0.16762097165E-01  0.30662683007E-02  0.10209989085E+01  0.10207413660E+01 0.  0.
     999903    2    3    3    0    0 -0.93297178365E-01  0.59493469295E-01 -0.66445540773E-01  0.13057150746E+00  0.19750247888E-01 0.  0.
         14    1    1    2    0    0 -0.15344870598E-01 -0.16762097165E-01 -0.30662683007E-02  0.22931091477E-01  0.00000000000E+00 0.  1.
     999901    1    3    3    0    0  0.10864204896E+00 -0.42731372130E-01  0.69511809074E-01  0.89042740107E+00  0.88000000000E+00 0. -1.
        -11    1    4    4    0    0 -0.69112476374E-01  0.53415758375E-01 -0.49264407285E-01  0.10028469763E+00  0.51100000000E-03 0.  1.
         11    1    4    4    0    0 -0.24184701991E-01  0.60777109204E-02 -0.17181133489E-01  0.30286809825E-01  0.51100000000E-03 0. -1.
</event>
<event>
 8    1  0.1138737E+005  0.1043930E+01  0.7957747E-01            NaN
         13   -1    0    0    0    0  0.00000000000E+00  0.00000000000E+00  0.74505805969E-08  0.10566000000E+00  0.10566000000E+00 0.  1.
     999900   -1    0    0    0    0 -0.00000000000E+00 -0.00000000000E+00 -0.74505805969E-08  0.93827000000E+00  0.93827000000E+00 0. -1.
     999902    2    1    2    0    0  0.21948195334E-01  0.59483662737E-02 -0.53000728049E-02  0.10205805437E+01  0.10203134072E+01 0.  0.
     999903    2    3    3    0    0 -0.70315716958E-01  0.70247326122E-01 -0.81818415115E-01  0.13013007201E+00  0.18989357828E-01 0.  0.
         14    1    1    2    0    0 -0.21948195334E-01 -0.59483662737E-02  0.53000728049E-02  0.23349456342E-01  0.00000000000E+00 0.  1.
     999901    1    3    3    0    0  0.92263912291E-01 -0.64298959848E-01  0.76518342310E-01  0.89045047165E+00  0.88000000000E+00 0.  1.
        -11    1    4    4    0    0 -0.18703488486E-01  0.23478001376E-01 -0.35454412161E-01  0.46457652683E-01  0.51100000000E-03 0.  1.
         11    1    4    4    0    0 -0.51612228472E-01  0.46769324747E-01 -0.46364002954E-01  0.83672419327E-01  0.51100000000E-03 0. -1.
</event>
<event>
 8    1  0.1138737E+005  0.1043930E+01  0.7957747E-01            NaN
         13   -1    0    0    0    0  0.00000000000E+00  0.00000000000E+00  0.74505805969E-08  0.10566000000E+00  0.10566000000E+00 0.  1.
     999900   -1    0    0    0    0 -0.00000000000E+00 -0.00000000000E+00 -0.74505805969E-08  0.93827000000E+00  0.93827000000E+00 0. -1.
     999902    2    1    2    0    0  0.22535693672E-01 -0.40596255739E-02  0.82294168484E-03  0.10210167880E+01  0.10207596515E+01 0.  0.
     999903    2    3    3    0    0  0.97889131545E-01  0.75434769552E-01  0.45324524058E-01  0.13311032321E+00  0.19782798911E-01 0.  0.
         14    1    1    2    0    0 -0.22535693672E-01  0.40596255739E-02 -0.82294168484E-03  0.22913211955E-01  0.00000000000E+00 0. -1.
     999901    1    3    3    0    0 -0.75353437873E-01 -0.79494395126E-01 -0.44501582373E-01  0.88790646483E+00  0.88000000000E+00 0.  1.
        -11    1    4    4    0    0  0.92326900508E-01  0.66847786710E-01  0.36791082354E-01  0.11977782769E+00  0.51100000000E-03 0. -1.
         11    1    4    4    0    0  0.55622310375E-02  0.85869828421E-02  0.85334417039E-02  0.13332495519E-01  0.51100000000E-03 0.  1.
</event>
<event>
 8    1  0.1138737E+005  0.1043930E+01  0.7957747E-01            NaN
         13   -1    0    0    0    0  0.00000000000E+00  0.00000000000E+00  0.74505805969E-08  0.10566000000E+00  0.10566000000E+00 0.  1.
     999900   -1    0    0    0    0 -0.00000000000E+00 -0.00000000000E+00 -0.74505805969E-08  0.93827000000E+00  0.93827000000E+00 0.  1.
     999902    2    1    2    0    0 -0.19401846435E-01  0.12179474264E-01  0.37233982406E-02  0.10207214901E+01  0.10204576059E+01 0.  0.
     999903    2    3    3    0    0  0.51380708416E-01 -0.95035111645E-01  0.67789982991E-01  0.12908834534E+00  0.19916562637E-01 0.  0.
         14    1    1    2    0    0  0.19401846435E-01 -0.12179474264E-01 -0.37233982406E-02  0.23208509924E-01  0.00000000000E+00 0. -1.
     999901    1    3    3    0    0 -0.70782554850E-01  0.10721458591E+00 -0.64066584750E-01  0.89163314473E+00  0.88000000000E+00 0. -1.
        -11    1    4    4    0    0  0.12155133141E-02 -0.16636515907E-01  0.12235535675E-01  0.20693491450E-01  0.51100000000E-03 0. -1.
         11    1    4    4    0    0  0.50165195102E-01 -0.78398595738E-01  0.55554447315E-01  0.10839485389E+00  0.51100000000E-03 0.  1.
</event>
<event>
 8    1  0.1138737E+005  0.1043930E+01  0.7957747E-01            NaN
         13   -1    0    0    0    0  0.00000000000E+00  0.00000000000E+00  0.74505805969E-08  0.10566000000E+00  0.10566000000E+00 0.  1.
     999900   -1    0    0    0    0 -0.00000000000E+00 -0.00000000000E+00 -0.74505805969E-08  0.93827000000E+00  0.93827000000E+00 0.  1.
     999902    2    1    2    0    0 -0.53461005077E-03 -0.12537802737E-01  0.19619794810E-01  0.10206401169E+01  0.10203743576E+01 0.  0.
     999903    2    3    3    0    0 -0.69107099086E-01 -0.19185354821E-01 -0.10560876267E+00  0.12910853150E+00  0.19285568944E-01 0.  0.
         14    1    1    2    0    0  0.53461005077E-03  0.12537802737E-01 -0.19619794810E-01  0.23289883078E-01  0.00000000000E+00 0. -1.
     999901    1    3    3    0    0  0.68572489035E-01  0.66475520831E-02  0.12522855748E+00  0.89153158542E+00  0.88000000000E+00 0. -1.
        -11    1    4    4    0    0 -0.17560009740E-01 -0.22556986770E-02 -0.41496374151E-01  0.45118203724E-01  0.51100000000E-03 0.  1.
         11    1    4    4    0    0 -0.51547089345E-01 -0.16929656144E-01 -0.64112388518E-01  0.83990327774E-01  0.51100000000E-03 0. -1.
</event>
<event>
 8    1  0.1138737E+005  0.1043930E+01  0.7957747E-01            NaN
         13   -1    0    0    0    0  0.00000000000E+00  0.00000000000E+00  0.74505805969E-08  0.10566000000E+00  0.10566000000E+00 0. -1.
     999900   -1    0    0    0    0 -0.00000000000E+00 -0.00000000000E+00 -0.74505805969E-08  0.93827000000E+00  0.93827000000E+00 0. -1.
     999902    2    1    2    0    0  0.74892964640E-02 -0.19913099238E-01  0.96320359302E-02  0.10205762594E+01  0.10203090238E+01 0.  0.
     999903    2    3    3    0    0  0.24254582195E-01 -0.86582502182E-01  0.96599005266E-01  0.13362127869E+00  0.20939528606E-01 0.  0.
         14    1    1    2    0    0 -0.74892964640E-02  0.19913099238E-01 -0.96320359302E-02  0.23353740577E-01  0.00000000000E+00 0.  1.
     999901    1    3    3    0    0 -0.16765285731E-01  0.66669402945E-01 -0.86966969336E-01  0.88695498073E+00  0.88000000000E+00 0. -1.
        -11    1    4    4    0    0  0.12611184986E-01 -0.56949909755E-01  0.75560218903E-01  0.95456492757E-01  0.51100000000E-03 0.  1.
         11    1    4    4    0    0  0.11643397209E-01 -0.29632592427E-01  0.21038786364E-01  0.38164785932E-01  0.51100000000E-03 0. -1.
</event>
<event>
 8    1  0.1138737E+005  0.1043930E+01  0.7957747E-01            NaN
         13   -1    0    0    0    0  0.00000000000E+00  0.00000000000E+00  0.74505805969E-08  0.10566000000E+00  0.10566000000E+00 0.  1.
     999900   -1    0    0    0    0 -0.00000000000E+00 -0.00000000000E+00 -0.74505805969E-08  0.93827000000E+00  0.93827000000E+00 0.  1.
     999902    2    1    2    0    0 -0.33660273438E-02  0.22941102747E-01  0.17805538719E-02  0.10206750068E+01  0.10204100523E+01 0.  0.
     999903    2    3    3    0    0 -0.28934114109E-01 -0.15766978746E-01 -0.12448644777E+00  0.13045290065E+00  0.20863916967E-01 0.  0.
         14    1    1    2    0    0  0.33660273438E-02 -0.22941102747E-01 -0.17805538719E-02  0.23254993172E-01  0.00000000000E+00 0.  1.
     999901    1    3    3    0    0  0.25568086765E-01  0.38708081493E-01  0.12626700164E+00  0.89022210618E+00  0.88000000000E+00 0. -1.
        -11    1    4    4    0    0 -0.15902932806E-01  0.29422315942E-02 -0.53415896910E-01  0.55812894230E-01  0.51100000000E-03 0.  1.
         11    1    4    4    0    0 -0.13031181303E-01 -0.18709210340E-01 -0.71070550856E-01  0.74640006415E-01  0.51100000000E-03 0. -1.
</event>
<event>
 8    1  0.1138737E+005  0.1043930E+01  0.7957747E-01            NaN
         13   -1    0    0    0    0  0.00000000000E+00  0.00000000000E+00  0.74505805969E-08  0.10566000000E+00  0.10566000000E+00 0. -1.
     999900   -1    0    0    0    0 -0.00000000000E+00 -0.00000000000E+00 -0.74505805969E-08  0.93827000000E+00  0.93827000000E+00 0. -1.
     999902    2    1    2    0    0  0.19843858632E-01 -0.53995154876E-02  0.10837576546E-01  0.10206837840E+01  0.10204190318E+01 0.  0.
     999903    2    3    3    0    0 -0.10004695848E+00 -0.62406866861E-01 -0.47836316302E-01  0.12879462506E+00  0.19892997614E-01 0.  0.
         14    1    1    2    0    0 -0.19843858632E-01  0.53995154876E-02 -0.10837576546E-01  0.23246215999E-01  0.00000000000E+00 0. -1.
     999901    1    3    3    0    0  0.11989081711E+00  0.57007351373E-01  0.58673892848E-01  0.89188915894E+00  0.88000000000E+00 0.  1.
        -11    1    4    4    0    0 -0.61919254641E-01 -0.36048810927E-01 -0.39098346057E-01  0.81623848537E-01  0.51100000000E-03 0. -1.
         11    1    4    4    0    0 -0.38127703838E-01 -0.26358055933E-01 -0.87379702446E-02  0.47170776521E-01  0.51100000000E-03 0.  1.
</event>
<event>
 8    1  0.1138737E+005  0.1043930E+01  0.7957747E-01            NaN
         13   -1    0    0    0    0  0.00000000000E+00  0.00000000000E+00  0.74505805969E-08  0.10566000000E+00  0.10566000000E+00 0.  1.
     999900   -1    0    0    0    0 -0.00000000000E+00 -0.00000000000E+00 -0.74505805969E-08  0.93827000000E+00  0.93827000000E+00 0. -1.
     999902    2    1    2    0    0 -0.14963892351E-01 -0.96618030089E-02 -0.15795598831E-01  0.10201230797E+01  0.10198452472E+01 0.  0.
     999903    2    3    3    0    0 -0.22786931399E-02  0.56037493938E-01 -0.11643949239E+00  0.13186269828E+00  0.26157649724E-01 0.  0.
         14    1    1    2    0    0  0.14963892351E-01  0.96618030089E-02  0.15795598831E-01  0.23806920298E-01  0.00000000000E+00 0.  1.
     999901    1    3    3    0    0 -0.12685199211E-01 -0.65699296947E-01  0.10064389356E+00  0.88826038143E+00  0.88000000000E+00 0.  1.
        -11    1    4    4    0    0 -0.28188980488E-02  0.55752136375E-01 -0.93418675897E-01  0.10882810769E+00  0.51100000000E-03 0. -1.
         11    1    4    4    0    0  0.54020490891E-03  0.28535756250E-03 -0.23020816495E-01  0.23034590584E-01  0.51100000000E-03 0.  1.
</event>
<event>
 8    1  0.1138737E+005  0.1043930E+01  0.7957747E-01            NaN
         13   -1    0    0    0    0  0.00000000000E+00  0.00000000000E+00  0.74505805969E-08  0.10566000000E+00  0.10566000000E+00 0. -1.
     999900   -1    0    0    0    0 -0.00000000000E+00 -0.00000000000E+00 -0.74505805969E-08  0.93827000000E+00  0.93827000000E+00 0. -1.
     999902    2    1    2    0    0  0.22708458542E-01  0.61280427155E-02  0.38393800800E-02  0.10200979242E+01  0.10198194973E+01 0.  0.
     999903    2    3    3    0    0  0.62186112205E-01 -0.10382581984E+00  0.47135726139E-01  0.13132184971E+00  0.19409742822E-01 0.  0.
         14    1    1    2    0    0 -0.22708458542E-01 -0.61280427155E-02 -0.38393800800E-02  0.23832075786E-01  0.00000000000E+00 0.  1.
     999901    1    3    3    0    0 -0.39477653663E-01  0.10995386255E+00 -0.43296346059E-01  0.88877607450E+00  0.88000000000E+00 0. -1.
        -11    1    4    4    0    0  0.40062845064E-01 -0.50498357756E-01  0.29962309777E-01  0.71085278496E-01  0.51100000000E-03 0. -1.
         11    1    4    4    0    0  0.22123267141E-01 -0.53327462081E-01  0.17173416362E-01  0.60236571214E-01  0.51100000000E-03 0.  1.
</event>
<event>
 8    1  0.1138737E+005  0.1043930E+01  0.7957747E-01            NaN
         13   -1    0    0    0    0  0.00000000000E+00  0.00000000000E+00  0.74505805969E-08  0.10566000000E+00  0.10566000000E+00 0.  1.
     999900   -1    0    0    0    0 -0.00000000000E+00 -0.00000000000E+00 -0.74505805969E-08  0.93827000000E+00  0.93827000000E+00 0.  1.
     999902    2    1    2    0    0 -0.15749071433E-01  0.17589677462E-01 -0.23131035435E-02  0.10202070058E+01  0.10199311517E+01 0.  0.
     999903    2    3    3    0    0 -0.11395182145E+00 -0.24430273559E-01 -0.58600953316E-01  0.13196279480E+00  0.19956242234E-01 0.  0.
         14    1    1    2    0    0  0.15749071433E-01 -0.17589677462E-01  0.23131035435E-02  0.23722994166E-01  0.00000000000E+00 0. -1.
     999901    1    3    3    0    0  0.98202750021E-01  0.42019951021E-01  0.56287849773E-01  0.88824421103E+00  0.88000000000E+00 0. -1.
        -11    1    4    4    0    0 -0.62690750230E-01 -0.99590040854E-02 -0.42207453162E-01  0.76230191855E-01  0.51100000000E-03 0.  1.
         11    1    4    4    0    0 -0.51261071224E-01 -0.14471269473E-01 -0.16393500154E-01  0.55732602949E-01  0.51100000000E-03 0. -1.
</event>
<event>
 8    1  0.1138737E+005  0.1043930E+01  0.7957747E-01            NaN
         13   -1    0    0    0    0  0.00000000000E+00  0.00000000000E+00  0.74505805969E-08  0.10566000000E+00  0.10566000000E+00 0.  1.
     999900   -1    0    0    0    0 -0.00000000000E+00 -0.00000000000E+00 -0.74505805969E-08  0.93827000000E+00  0.93827000000E+00 0.  1.
     999902    2    1    2    0    0  0.82625350186E-03 -0.23426916339E-01 -0.50458654968E-02  0.10199515959E+01  0.10196696985E+01 0.  0.
     999903    2    3    3    0    0  0.30184329903E-01 -0.10059434321E+00  0.78076144991E-01  0.13218700040E+00  0.18633384025E-01 0.  0.
         14    1    1    2    0    0 -0.82625350186E-03  0.23426916339E-01  0.50458654968E-02  0.23978404088E-01  0.00000000000E+00 0.  1.
     999901    1    3    3    0    0 -0.29358076401E-01  0.77167426871E-01 -0.83122010488E-01  0.88776459551E+00  0.88000000000E+00 0.  1.
        -11    1    4    4    0    0  0.13080075169E-01 -0.44211143155E-01  0.45862656872E-01  0.65033514143E-01  0.51100000000E-03 0. -1.
         11    1    4    4    0    0  0.17104254734E-01 -0.56383200055E-01  0.32213488119E-01  0.67153486255E-01  0.51100000000E-03 0.  1.
</event>
<event>
 8    1  0.1138737E+005  0.1043930E+01  0.7957747E-01            NaN
         13   -1    0    0    0    0  0.00000000000E+00  0.00000000000E+00  0.74505805969E-08  0.10566000000E+00  0.10566000000E+00 0.  1.
     999900   -1    0    0    0    0 -0.00000000000E+00 -0.00000000000E+00 -0.74505805969E-08  0.93827000000E+00  0.93827000000E+00 0.  1.
     999902    2    1    2    0    0 -0.17082299845E-01  0.16465627340E-01  0.31491765253E-02  0.10199959413E+01  0.10197150980E+01 0.  0.
     999903    2    3    3    0    0  0.98623352744E-01  0.31128224109E-01  0.75547804855E-01  0.12935327944E+00  0.18145744456E-01 0.  0.
         14    1    1    2    0    0  0.17082299845E-01 -0.16465627340E-01 -0.31491765253E-02  0.23934058671E-01  0.00000000000E+00 0. -1.
     999901    1    3    3    0    0 -0.11570565259E+00 -0.14662596769E-01 -0.72398628330E-01  0.89064266188E+00  0.88000000000E+00 0.  1.
        -11    1    4    4    0    0  0.58017531149E-01  0.19139842863E-01  0.55356530416E-01  0.82443763173E-01  0.51100000000E-03 0.  1.
         11    1    4    4    0    0  0.40605821595E-01  0.11988381247E-01  0.20191274440E-01  0.46909516271E-01  0.51100000000E-03 0. -1.
</event>
<event>
 7    1  0.1138737E+005  0.1043930E+01  0.7957747E-01            NaN
         13   -1    0    0    0    0  0.00000000000E+00  0.00000000000E+00  0.74505805969E-08  0.10566000000E+00  0.10566000000E+00 0. -1.
     999900   -1    0    0    0    0 -0.00000000000E+00 -0.00000000000E+00 -0.74505805969E-08  0.93827000000E+00  0.93827000000E+00 0. -1.
     999903    2    1    2    0    0 -0.81254302902E-01 -0.43491025539E-01  0.50099902962E-01  0.10653366310E+00  0.18592741951E-01 0.  0.
         14    1    1    2    0    0  0.65455358239E-02 -0.45857573785E-01  0.11039392574E-01  0.47619631467E-01  0.00000000000E+00 0. -1.
     999901    1    1    2    0    0  0.74708767078E-01  0.89348599324E-01 -0.61139295536E-01  0.88977670544E+00  0.88000000000E+00 0. -1.
        -11    1    3    3    0    0 -0.45939778166E-01 -0.14187258455E-01  0.24027267175E-01  0.53752322827E-01  0.51100000000E-03 0.  1.
         11    1    3    3    0    0 -0.35314524736E-01 -0.29303767084E-01  0.26072635787E-01  0.52781340269E-01  0.51100000000E-03 0. -1.
</event>
<event>
 8    1  0.1138737E+005  0.1043930E+01  0.7957747E-01            NaN
         13   -1    0    0    0    0  0.00000000000E+00  0.00000000000E+00  0.74505805969E-08  0.10566000000E+00  0.10566000000E+00 0.  1.
     999900   -1    0    0    0    0 -0.00000000000E+00 -0.00000000000E+00 -0.74505805969E-08  0.93827000000E+00  0.93827000000E+00 0. -1.
     999902    2    1    2    0    0  0.81911348073E-02 -0.95860189605E-02  0.18764203278E-01  0.10213228822E+01  0.10210726458E+01 0.  0.
     999903    2    3    3    0    0 -0.11136052806E+00  0.47225361341E-01 -0.43529982224E-01  0.12924626077E+00  0.13354198098E-01 0.  0.
         14    1    1    2    0    0 -0.81911348073E-02  0.95860189605E-02 -0.18764203278E-01  0.22607117764E-01  0.00000000000E+00 0. -1.
     999901    1    3    3    0    0  0.11955166286E+00 -0.56811380302E-01  0.62294185502E-01  0.89207662147E+00  0.88000000000E+00 0.  1.
        -11    1    4    4    0    0 -0.21568466831E-01  0.10347498127E-01 -0.14275152739E-01  0.27862350684E-01  0.51100000000E-03 0. -1.
         11    1    4    4    0    0 -0.89792061226E-01  0.36877863214E-01 -0.29254829486E-01  0.10138391008E+00  0.51100000000E-03 0.  1.
</event>
<event>
 8    1  0.1138737E+005  0.1043930E+01  0.7957747E-01            NaN
         13   -1    0    0    0    0  0.00000000000E+00  0.00000000000E+00  0.74505805969E-08  0.10566000000E+00  0.10566000000E+00 0. -1.
     999900   -1    0    0    0    0 -0.00000000000E+00 -0.00000000000E+00 -0.74505805969E-08  0.93827000000E+00  0.93827000000E+00 0.  1.
     999902    2    1    2    0    0  0.11626719788E-01  0.17213328050E-01  0.11858174061E-01  0.10200114807E+01  0.10197310062E+01 0.  0.
     999903    2    3    3    0    0  0.48494470294E-01 -0.27534676719E-01 -0.11462088755E+00  0.12908018814E+00  0.20343918934E-01 0.  0.
         14    1    1    2    0    0 -0.11626719788E-01 -0.17213328050E-01 -0.11858174061E-01  0.23918519344E-01  0.00000000000E+00 0. -1.
     999901    1    3    3    0    0 -0.36867750506E-01  0.44748004768E-01  0.12647906161E+00  0.89093129252E+00  0.88000000000E+00 0. -1.
        -11    1    4    4    0    0  0.11643905044E-01  0.90577709711E-03 -0.14192772112E-01  0.18387410314E-01  0.51100000000E-03 0. -1.
         11    1    4    4    0    0  0.36850565250E-01 -0.28440453816E-01 -0.10042811543E+00  0.11069277783E+00  0.51100000000E-03 0.  1.
</event>
<event>
 8    1  0.1138737E+005  0.1043930E+01  0.7957747E-01            NaN
         13   -1    0    0    0    0  0.00000000000E+00  0.00000000000E+00  0.74505805969E-08  0.10566000000E+00  0.10566000000E+00 0. -1.
     999900   -1    0    0    0    0 -0.00000000000E+00 -0.00000000000E+00 -0.74505805969E-08  0.93827000000E+00  0.93827000000E+00 0.  1.
     999902    2    1    2    0    0  0.20473478892E-01  0.93239733546E-02  0.11133071857E-01  0.10188293007E+01  0.10185200532E+01 0.  0.
     999903    2    3    3    0    0 -0.51015979718E-01 -0.66952997854E-01 -0.92156815594E-01  0.12664225758E+00  0.21448744431E-01 0.  0.
         14    1    1    2    0    0 -0.20473478892E-01 -0.93239733546E-02 -0.11133071857E-01  0.25100699313E-01  0.00000000000E+00 0.  1.
     999901    1    3    3    0    0  0.71489458609E-01  0.76276971208E-01  0.10328988745E+00  0.89218704310E+00  0.88000000000E+00 0. -1.
        -11    1    4    4    0    0 -0.94041678799E-02 -0.27264667715E-01 -0.24481251678E-01  0.37833758521E-01  0.51100000000E-03 0. -1.
         11    1    4    4    0    0 -0.41611811838E-01 -0.39688330139E-01 -0.67675563916E-01  0.88808499064E-01  0.51100000000E-03 0.  1.
</event>
<event>
 8    1  0.1138737E+005  0.1043930E+01  0.7957747E-01            NaN
         13   -1    0    0    0    0  0.00000000000E+00  0.00000000000E+00  0.74505805969E-08  0.10566000000E+00  0.10566000000E+00 0. -1.
     999900   -1    0    0    0    0 -0.00000000000E+00 -0.00000000000E+00 -0.74505805969E-08  0.93827000000E+00  0.93827000000E+00 0.  1.
     999902    2    1    2    0    0  0.26184375400E-01 -0.29054929122E-03  0.13652402965E-01  0.10143987616E+01  0.10139688129E+01 0.  0.
     999903    2    3    3    0    0 -0.62827437343E-01 -0.10413546332E+00 -0.89272754649E-02  0.12354708436E+00  0.19816765701E-01 0.  0.
         14    1    1    2    0    0 -0.26184375400E-01  0.29054929122E-03 -0.13652402965E-01  0.29531238387E-01  0.00000000000E+00 0. -1.
     999901    1    3    3    0    0  0.89011812743E-01  0.10384491403E+00  0.22579678430E-01  0.89085167725E+00  0.88000000000E+00 0. -1.
        -11    1    4    4    0    0 -0.32979292716E-01 -0.70405287351E-01 -0.10629996735E-01  0.78471626635E-01  0.51100000000E-03 0. -1.
         11    1    4    4    0    0 -0.29848144626E-01 -0.33730175973E-01  0.17027212702E-02  0.45075457730E-01  0.51100000000E-03 0.  1.
</event>
<event>
 8    1  0.1138737E+005  0.1043930E+01  0.7957747E-01            NaN
         13   -1    0    0    0    0  0.00000000000E+00  0.00000000000E+00  0.74505805969E-08  0.10566000000E+00  0.10566000000E+00 0.  1.
     999900   -1    0    0    0    0 -0.00000000000E+00 -0.00000000000E+00 -0.74505805969E-08  0.93827000000E+00  0.93827000000E+00 0. -1.
     999902    2    1    2    0    0 -0.96142084420E-02 -0.20694688630E-01 -0.86794643750E-02  0.10195161465E+01  0.10192237913E+01 0.  0.
     999903    2    3    3    0    0  0.13908718147E-01 -0.79863153510E-01 -0.10228547762E+00  0.13226402841E+00  0.21444779142E-01 0.  0.
         14    1    1    2    0    0  0.96142084420E-02  0.20694688630E-01  0.86794643750E-02  0.24413853512E-01  0.00000000000E+00 0.  1.
     999901    1    3    3    0    0 -0.23522926589E-01  0.59168464880E-01  0.93606013240E-01  0.88725211807E+00  0.88000000000E+00 0.  1.
        -11    1    4    4    0    0  0.15810562766E-01 -0.50278999891E-01 -0.76910040762E-01  0.93238228297E-01  0.51100000000E-03 0.  1.
         11    1    4    4    0    0 -0.19018446187E-02 -0.29584153619E-01 -0.25375436853E-01  0.39025800118E-01  0.51100000000E-03 0. -1.
</event>
<event>
 8    1  0.1138737E+005  0.1043930E+01  0.7957747E-01            NaN
         13   -1    0    0    0    0  0.00000000000E+00  0.00000000000E+00  0.74505805969E-08  0.10566000000E+00  0.10566000000E+00 0. -1.
     999900   -1    0    0    0    0 -0.00000000000E+00 -0.00000000000E+00 -0.74505805969E-08  0.93827000000E+00  0.93827000000E+00 0. -1.
     999902    2    1    2    0    0  0.13355780429E-01  0.18872196923E-01  0.45657149605E-02  0.10203634466E+01  0.10200912609E+01 0.  0.
     999903    2    3    3    0    0  0.13048108293E+00 -0.35439018330E-02  0.11913149727E-01  0.13228979942E+00  0.17910769136E-01 0.  0.
         14    1    1    2    0    0 -0.13355780429E-01 -0.18872196923E-01 -0.45657149605E-02  0.23566553432E-01  0.00000000000E+00 0.  1.
     999901    1    3    3    0    0 -0.11712530250E+00  0.22416098756E-01 -0.73474347666E-02  0.88807364715E+00  0.88000000000E+00 0.  1.
        -11    1    4    4    0    0  0.49140999249E-01  0.42933482752E-02 -0.21147184747E-02  0.49376146081E-01  0.51100000000E-03 0.  1.
         11    1    4    4    0    0  0.81340083678E-01 -0.78372501083E-02  0.14027868202E-01  0.82913653334E-01  0.51100000000E-03 0. -1.
</event>
<event>
 7    1  0.1138737E+005  0.1043930E+01  0.7957747E-01            NaN
         13   -1    0    0    0    0  0.00000000000E+00  0.00000000000E+00  0.74505805969E-08  0.10566000000E+00  0.10566000000E+00 0.  1.
     999900   -1    0    0    0    0 -0.00000000000E+00 -0.00000000000E+00 -0.74505805969E-08  0.93827000000E+00  0.93827000000E+00 0. -1.
     999902    2    1    2    0    0  0.48060518535E-02 -0.23302311577E-01  0.42350230561E-02  0.10197632609E+01  0.10194768644E+01 0.  0.
         14    1    1    2    0    0 -0.48060518535E-02  0.23302311577E-01 -0.42350230561E-02  0.24166739117E-01  0.00000000000E+00 0. -1.
     999901    1    3    3    0    0  0.19289883363E-01 -0.12154538821E+00 -0.56414312458E-01  0.89035271418E+00  0.88000000000E+00 0. -1.
        -11    1    3    3    0    0  0.13983469065E-01  0.22312467304E-02  0.71390294716E-02  0.15866402613E-01  0.51100000000E-03 0.  1.
         11    1    3    3    0    0 -0.28467300575E-01  0.96011829904E-01  0.53510306042E-01  0.11354414409E+00  0.51100000000E-03 0. -1.
</event>
<event>
 8    1  0.1138737E+005  0.1043930E+01  0.7957747E-01            NaN
         13   -1    0    0    0    0  0.00000000000E+00  0.00000000000E+00  0.74505805969E-08  0.10566000000E+00  0.10566000000E+00 0. -1.
     999900   -1    0    0    0    0 -0.00000000000E+00 -0.00000000000E+00 -0.74505805969E-08  0.93827000000E+00  0.93827000000E+00 0.  1.
     999902    2    1    2    0    0 -0.42933381607E-02  0.22984786962E-01 -0.66995615246E-02  0.10196068154E+01  0.10193166538E+01 0.  0.
     999903    2    3    3    0    0  0.10922697444E+00  0.68841746562E-01 -0.10913763117E-01  0.13112075383E+00  0.20095368711E-01 0.  0.
         14    1    1    2    0    0  0.42933381607E-02 -0.22984786962E-01  0.66995615246E-02  0.24323184596E-01  0.00000000000E+00 0.  1.
     999901    1    3    3    0    0 -0.11352031260E+00 -0.45856959600E-01  0.42142015924E-02  0.88848606157E+00  0.88000000000E+00 0. -1.
        -11    1    4    4    0    0  0.49101747828E-01  0.21662890192E-01  0.15015275793E-02  0.53691509173E-01  0.51100000000E-03 0.  1.
         11    1    4    4    0    0  0.60125226616E-01  0.47178856370E-01 -0.12415290696E-01  0.77429244656E-01  0.51100000000E-03 0. -1.
</event>
<event>
 8    1  0.1138737E+005  0.1043930E+01  0.7957747E-01            NaN
         13   -1    0    0    0    0  0.00000000000E+00  0.00000000000E+00  0.74505805969E-08  0.10566000000E+00  0.10566000000E+00 0.  1.
     999900   -1    0    0    0    0 -0.00000000000E+00 -0.00000000000E+00 -0.74505805969E-08  0.93827000000E+00  0.93827000000E+00 0.  1.
     999902    2    1    2    0    0  0.21796178172E-01 -0.30210788176E-02  0.16059846392E-02  0.10218669203E+01  0.10216287111E+01 0.  0.
     999903    2    3    3    0    0 -0.72563470954E-01 -0.37568786522E-01  0.10005367563E+00  0.13069396549E+00  0.19831882674E-01 0.  0.
         14    1    1    2    0    0 -0.21796178172E-01  0.30210788176E-02 -0.16059846392E-02  0.22063079721E-01  0.00000000000E+00 0.  1.
     999901    1    3    3    0    0  0.94359649126E-01  0.34547707704E-01 -0.98447690989E-01  0.89117295479E+00  0.88000000000E+00 0.  1.
        -11    1    4    4    0    0 -0.15716991288E-02  0.62112869388E-03  0.86149038251E-02  0.87939597407E-02  0.51100000000E-03 0.  1.
         11    1    4    4    0    0 -0.70991771826E-01 -0.38189915216E-01  0.91438771803E-01  0.12190000575E+00  0.51100000000E-03 0. -1.
</event>
<event>
 8    1  0.1138737E+005  0.1043930E+01  0.7957747E-01            NaN
         13   -1    0    0    0    0  0.00000000000E+00  0.00000000000E+00  0.74505805969E-08  0.10566000000E+00  0.10566000000E+00 0. -1.
     999900   -1    0    0    0    0 -0.00000000000E+00 -0.00000000000E+00 -0.74505805969E-08  0.93827000000E+00  0.93827000000E+00 0.  1.
     999902    2    1    2    0    0 -0.89940276346E-02  0.12578669144E-01  0.18115481818E-01  0.10201122308E+01  0.10198341420E+01 0.  0.
     999903    2    3    3    0    0 -0.31648452850E-01 -0.75829131594E-01  0.10093612346E+00  0.13152435052E+00  0.18943917064E-01 0.  0.
         14    1    1    2    0    0  0.89940276346E-02 -0.12578669144E-01 -0.18115481818E-01  0.23817769249E-01  0.00000000000E+00 0.  1.
     999901    1    3    3    0    0  0.22654425216E-01  0.88407800738E-01 -0.82820641644E-01  0.88858788023E+00  0.88000000000E+00 0.  1.
        -11    1    4    4    0    0 -0.17349358200E-01 -0.48417707186E-01  0.76160276793E-01  0.91901705541E-01  0.51100000000E-03 0.  1.
         11    1    4    4    0    0 -0.14299094650E-01 -0.27411424408E-01  0.24775846669E-01  0.39622644978E-01  0.51100000000E-03 0. -1.
</event>
<event>
 8    1  0.1138737E+005  0.1043930E+01  0.7957747E-01            NaN
         13   -1    0    0    0    0  0.00000000000E+00  0.00000000000E+00  0.74505805969E-08  0.10566000000E+00  0.10566000000E+00 0.  1.
     999900   -1    0    0    0    0 -0.00000000000E+00 -0.00000000000E+00 -0.74505805969E-08  0.93827000000E+00  0.93827000000E+00 0.  1.
     999902    2    1    2    0    0  0.10238513422E-01  0.11445233960E-01 -0.18433849383E-01  0.10199377650E+01  0.10196555385E+01 0.  0.
     999903    2    3    3    0    0 -0.15962785140E-01 -0.11779599844E-01  0.12488750950E+00  0.12765590770E+00  0.17480596606E-01 0.  0.
         14    1    1    2    0    0 -0.10238513422E-01 -0.11445233960E-01  0.18433849383E-01  0.23992235006E-01  0.00000000000E+00 0.  1.
     999901    1    3    3    0    0  0.26201298562E-01  0.23224833805E-01 -0.14332135889E+00  0.89228185730E+00  0.88000000000E+00 0.  1.
        -11    1    4    4    0    0 -0.74077684977E-02  0.36420609577E-02  0.28886366517E-01  0.30047012059E-01  0.51100000000E-03 0. -1.
         11    1    4    4    0    0 -0.85550166423E-02 -0.15421660802E-01  0.96001142986E-01  0.97608895636E-01  0.51100000000E-03 0.  1.
</event>
<event>
 8    1  0.1138737E+005  0.1043930E+01  0.7957747E-01            NaN
         13   -1    0    0    0    0  0.00000000000E+00  0.00000000000E+00  0.74505805969E-08  0.10566000000E+00  0.10566000000E+00 0. -1.
     999900   -1    0    0    0    0 -0.00000000000E+00 -0.00000000000E+00 -0.74505805969E-08  0.93827000000E+00  0.93827000000E+00 0.  1.
     999902    2    1    2    0    0 -0.18581292723E-01 -0.94170922833E-02 -0.71334758338E-02  0.10219110867E+01  0.10216738406E+01 0.  0.
     999903    2    3    3    0    0  0.45278656644E-01 -0.44709867872E-01 -0.11383291728E+00  0.13246831508E+00  0.23254943792E-01 0.  0.
         14    1    1    2    0    0  0.18581292723E-01  0.94170922833E-02  0.71334758338E-02  0.22018913320E-01  0.00000000000E+00 0.  1.
     999901    1    3    3    0    0 -0.63859949367E-01  0.35292775589E-01  0.10669944145E+00  0.88944277160E+00  0.88000000000E+00 0. -1.
        -11    1    4    4    0    0  0.16590533435E-01 -0.31655710833E-01 -0.68315377166E-01  0.77101113522E-01  0.51100000000E-03 0.  1.
         11    1    4    4    0    0  0.28688123208E-01 -0.13054157039E-01 -0.45517540118E-01  0.55367201560E-01  0.51100000000E-03 0. -1.
</event>
<event>
 8    1  0.1138737E+005  0.1043930E+01  0.7957747E-01            NaN
         13   -1    0    0    0    0  0.00000000000E+00  0.00000000000E+00  0.74505805969E-08  0.10566000000E+00  0.10566000000E+00 0.  1.
     999900   -1    0    0    0    0 -0.00000000000E+00 -0.00000000000E+00 -0.74505805969E-08  0.93827000000E+00  0.93827000000E+00 0.  1.
     999902    2    1    2    0    0  0.90382485069E-02 -0.21634486551E-01  0.21288837448E-02  0.10203869949E+01  0.10201153593E+01 0.  0.
     999903    2    3    3    0    0  0.11518240831E+00  0.51949367892E-01  0.27281845593E-01  0.13060396639E+00  0.18637943232E-01 0.  0.
         14    1    1    2    0    0 -0.90382485069E-02  0.21634486551E-01 -0.21288837448E-02  0.23543005127E-01  0.00000000000E+00 0. -1.
     999901    1    3    3    0    0 -0.10614415980E+00 -0.73583854443E-01 -0.25152961849E-01  0.88978302849E+00  0.88000000000E+00 0.  1.
        -11    1    4    4    0    0  0.59498840389E-01  0.21169760808E-01  0.21505735234E-01  0.66716029178E-01  0.51100000000E-03 0.  1.
         11    1    4    4    0    0  0.55683567922E-01  0.30779607084E-01  0.57761103596E-02  0.63887937207E-01  0.51100000000E-03 0. -1.
</event>
<event>
 8    1  0.1138737E+005  0.1043930E+01  0.7957747E-01            NaN
         13   -1    0    0    0    0  0.00000000000E+00  0.00000000000E+00  0.74505805969E-08  0.10566000000E+00  0.10566000000E+00 0.  1.
     999900   -1    0    0    0    0 -0.00000000000E+00 -0.00000000000E+00 -0.74505805969E-08  0.93827000000E+00  0.93827000000E+00 0. -1.
     999902    2    1    2    0    0 -0.45045545988E-02 -0.19951257024E-01 -0.13046424419E-01  0.10196698916E+01  0.10193812511E+01 0.  0.
     999903    2    3    3    0    0 -0.38381110370E-01  0.10095679859E-01 -0.12391352817E+00  0.13155843794E+00  0.19442935573E-01 0.  0.
         14    1    1    2    0    0  0.45045545988E-02  0.19951257024E-01  0.13046424419E-01  0.24260108390E-01  0.00000000000E+00 0. -1.
     999901    1    3    3    0    0  0.33876555771E-01 -0.30046936882E-01  0.11086710375E+00  0.88811145367E+00  0.88000000000E+00 0.  1.
        -11    1    4    4    0    0 -0.11391151756E-01 -0.57450607626E-02 -0.40556904198E-01  0.42519262231E-01  0.51100000000E-03 0. -1.
         11    1    4    4    0    0 -0.26989958614E-01  0.15840740621E-01 -0.83356623975E-01  0.89039175708E-01  0.51100000000E-03 0.  1.
</event>
<event>
 8    1  0.1138737E+005  0.1043930E+01  0.7957747E-01            NaN
         13   -1    0    0    0    0  0.00000000000E+00  0.00000000000E+00  0.74505805969E-08  0.10566000000E+00  0.10566000000E+00 0.  1.
     999900   -1    0    0    0    0 -0.00000000000E+00 -0.00000000000E+00 -0.74505805969E-08  0.93827000000E+00  0.93827000000E+00 0.  1.
     999902    2    1    2    0    0  0.16416062719E-02 -0.64148447963E-02 -0.22460686535E-01  0.10205136052E+01  0.10202449171E+01 0.  0.
     999903    2    3    3    0    0  0.10561825326E+00  0.73738542473E-01  0.29105182974E-02  0.13041282068E+00  0.20160471523E-01 0.  0.
         14    1    1    2    0    0 -0.16416062719E-02  0.64148447963E-02  0.22460686535E-01  0.23416394781E-01  0.00000000000E+00 0.  1.
     999901    1    3    3    0    0 -0.10397664699E+00 -0.80153387269E-01 -0.25371204832E-01  0.89010078454E+00  0.88000000000E+00 0. -1.
        -11    1    4    4    0    0  0.52867608804E-01  0.27077220757E-01 -0.46361886331E-02  0.59581165737E-01  0.51100000000E-03 0.  1.
         11    1    4    4    0    0  0.52750644457E-01  0.46661321716E-01  0.75467069305E-02  0.70831654939E-01  0.51100000000E-03 0. -1.
</event>
<event>
 8    1  0.1138737E+005  0.1043930E+01  0.7957747E-01            NaN
         13   -1    0    0    0    0  0.00000000000E+00  0.00000000000E+00  0.74505805969E-08  0.10566000000E+00  0.10566000000E+00 0. -1.
     999900   -1    0    0    0    0 -0.00000000000E+00 -0.00000000000E+00 -0.74505805969E-08  0.93827000000E+00  0.93827000000E+00 0.  1.
     999902    2    1    2    0    0 -0.82242866824E-02 -0.17464558901E-01 -0.13777058216E-01  0.10202138232E+01  0.10199381295E+01 0.  0.
     999903    2    3    3    0    0  0.55997280333E-01  0.21172917835E-01  0.11148094378E+00  0.12818981492E+00  0.20509509203E-01 0.  0.
         14    1    1    2    0    0  0.82242866824E-02  0.17464558901E-01  0.13777058216E-01  0.23716176803E-01  0.00000000000E+00 0. -1.
     999901    1    3    3    0    0 -0.64221567015E-01 -0.38637476737E-01 -0.12525800200E+00  0.89202400828E+00  0.88000000000E+00 0.  1.
        -11    1    4    4    0    0  0.40624863823E-01  0.23517511789E-01  0.74334083857E-01  0.87916267352E-01  0.51100000000E-03 0. -1.
         11    1    4    4    0    0  0.15372416510E-01 -0.23445939536E-02  0.37146859928E-01  0.40273547567E-01  0.51100000000E-03 0.  1.
</event>
<event>
 8    1  0.1138737E+005  0.1043930E+01  0.7957747E-01            NaN
         13   -1    0    0    0    0  0.00000000000E+00  0.00000000000E+00  0.74505805969E-08  0.10566000000E+00  0.10566000000E+00 0. -1.
     999900   -1    0    0    0    0 -0.00000000000E+00 -0.00000000000E+00 -0.74505805969E-08  0.93827000000E+00  0.93827000000E+00 0.  1.
     999902    2    1    2    0    0  0.14676426874E-01  0.15178927174E-01  0.10409157847E-01  0.10203896537E+01  0.10201180802E+01 0.  0.
     999903    2    3    3    0    0 -0.38845178228E-01  0.33656375047E-03 -0.12115553921E+00  0.12887738377E+00  0.20534220678E-01 0.  0.
         14    1    1    2    0    0 -0.14676426874E-01 -0.15178927174E-01 -0.10409157847E-01  0.23540346281E-01  0.00000000000E+00 0.  1.
     999901    1    3    3    0    0  0.53521605103E-01  0.14842363423E-01  0.13156469706E+00  0.89151226995E+00  0.88000000000E+00 0. -1.
        -11    1    4    4    0    0 -0.67827643127E-02  0.18534273475E-02 -0.53832604223E-01  0.54292278301E-01  0.51100000000E-03 0. -1.
         11    1    4    4    0    0 -0.32062413916E-01 -0.15168635970E-02 -0.67322934985E-01  0.74585105466E-01  0.51100000000E-03 0.  1.
</event>
<event>
 8    1  0.1138737E+005  0.1043930E+01  0.7957747E-01            NaN
         13   -1    0    0    0    0  0.00000000000E+00  0.00000000000E+00  0.74505805969E-08  0.10566000000E+00  0.10566000000E+00 0.  1.
     999900   -1    0    0    0    0 -0.00000000000E+00 -0.00000000000E+00 -0.74505805969E-08  0.93827000000E+00  0.93827000000E+00 0.  1.
     999902    2    1    2    0    0 -0.15551414213E-01 -0.10180328959E-01 -0.14928879507E-01  0.10200897604E+01  0.10198111405E+01 0.  0.
     999903    2    3    3    0    0 -0.57456970000E-01  0.10625410953E+00 -0.46017763818E-01  0.13088811126E+00  0.20562681922E-01 0.  0.
         14    1    1    2    0    0  0.15551414213E-01  0.10180328959E-01  0.14928879507E-01  0.23840239619E-01  0.00000000000E+00 0.  1.
     999901    1    3    3    0    0  0.41905555786E-01 -0.11643443849E+00  0.31088884311E-01  0.88920164912E+00  0.88000000000E+00 0. -1.
        -11    1    4    4    0    0 -0.28027785184E-01  0.60446352860E-01 -0.35267067160E-01  0.75387966304E-01  0.51100000000E-03 0. -1.
         11    1    4    4    0    0 -0.29429184816E-01  0.45807756674E-01 -0.10750696658E-01  0.55500144955E-01  0.51100000000E-03 0.  1.
</event>
<event>
 8    1  0.1138737E+005  0.1043930E+01  0.7957747E-01            NaN
         13   -1    0    0    0    0  0.00000000000E+00  0.00000000000E+00  0.74505805969E-08  0.10566000000E+00  0.10566000000E+00 0.  1.
     999900   -1    0    0    0    0 -0.00000000000E+00 -0.00000000000E+00 -0.74505805969E-08  0.93827000000E+00  0.93827000000E+00 0. -1.
     999902    2    1    2    0    0 -0.21785856917E-01  0.59529894686E-02 -0.81213535316E-02  0.10199296244E+01  0.10196472040E+01 0.  0.
     999903    2    3    3    0    0  0.29651227719E-01  0.88678591746E-01 -0.89204579561E-01  0.13084931955E+00  0.20518271677E-01 0.  0.
         14    1    1    2    0    0  0.21785856917E-01 -0.59529894686E-02  0.81213535316E-02  0.24000375589E-01  0.00000000000E+00 0. -1.
     999901    1    3    3    0    0 -0.51437084636E-01 -0.82725602278E-01  0.81083226030E-01  0.88908030486E+00  0.88000000000E+00 0. -1.
        -11    1    4    4    0    0  0.16236800476E-01  0.34828861510E-01 -0.49226870325E-01  0.62451814759E-01  0.51100000000E-03 0.  1.
         11    1    4    4    0    0  0.13414427244E-01  0.53849730236E-01 -0.39977709237E-01  0.68397504791E-01  0.51100000000E-03 0. -1.
</event>
<event>
 8    1  0.1138737E+005  0.1043930E+01  0.7957747E-01            NaN
         13   -1    0    0    0    0  0.00000000000E+00  0.00000000000E+00  0.74505805969E-08  0.10566000000E+00  0.10566000000E+00 0.  1.
     999900   -1    0    0    0    0 -0.00000000000E+00 -0.00000000000E+00 -0.74505805969E-08  0.93827000000E+00  0.93827000000E+00 0. -1.
     999902    2    1    2    0    0 -0.11533245807E-01 -0.80145278075E-02 -0.16891826395E-01  0.10219622460E+01  0.10217261131E+01 0.  0.
     999903    2    3    3    0    0  0.49437952107E-02 -0.11922103897E+00 -0.57340962667E-01  0.13388876168E+00  0.20002931314E-01 0.  0.
         14    1    1    2    0    0  0.11533245807E-01  0.80145278075E-02  0.16891826395E-01  0.21967753954E-01  0.00000000000E+00 0.  1.
     999901    1    3    3    0    0 -0.16477041018E-01  0.11120651116E+00  0.40449136271E-01  0.88807348436E+00  0.88000000000E+00 0.  1.
        -11    1    4    4    0    0  0.86385228075E-02 -0.78353046959E-01 -0.28905336544E-01  0.83961917830E-01  0.51100000000E-03 0.  1.
         11    1    4    4    0    0 -0.36947275968E-02 -0.40867992010E-01 -0.28435626123E-01  0.49926843851E-01  0.51100000000E-03 0. -1.
</event>
<event>
 8    1  0.1138737E+005  0.1043930E+01  0.7957747E-01            NaN
         13   -1    0    0    0    0  0.00000000000E+00  0.00000000000E+00  0.74505805969E-08  0.10566000000E+00  0.10566000000E+00 0. -1.
     999900   -1    0    0    0    0 -0.00000000000E+00 -0.00000000000E+00 -0.74505805969E-08  0.93827000000E+00  0.93827000000E+00 0. -1.
     999902    2    1    2    0    0 -0.22537952580E-01  0.48103663538E-02  0.66170334856E-02  0.10199532600E+01  0.10196714022E+01 0.  0.
     999903    2    3    3    0    0  0.10040065507E+00  0.78405375266E-01  0.34389704155E-02  0.12835905480E+00  0.15379402485E-01 0.  0.
         14    1    1    2    0    0  0.22537952580E-01 -0.48103663538E-02 -0.66170334856E-02  0.23976740044E-01  0.00000000000E+00 0.  1.
     999901    1    3    3    0    0 -0.12293860766E+00 -0.73595008912E-01  0.31780630701E-02  0.89159420516E+00  0.88000000000E+00 0.  1.
        -11    1    4    4    0    0  0.53503410268E-01  0.51344049501E-01  0.12014986846E-02  0.74165565120E-01  0.51100000000E-03 0. -1.
         11    1    4    4    0    0  0.46897244807E-01  0.27061325765E-01  0.22374717309E-02  0.54193489677E-01  0.51100000000E-03 0.  1.
</event>
<event>
 8    1  0.1138737E+005  0.1043930E+01  0.7957747E-01            NaN
         13   -1    0    0    0    0  0.00000000000E+00  0.00000000000E+00  0.74505805969E-08  0.10566000000E+00  0.10566000000E+00 0. -1.
     999900   -1    0    0    0    0 -0.00000000000E+00 -0.00000000000E+00 -0.74505805969E-08  0.93827000000E+00  0.93827000000E+00 0.  1.
     999902    2    1    2    0    0  0.78182438968E-02 -0.19251969556E-01  0.10909173894E-01  0.10204614392E+01  0.10201915387E+01 0.  0.
     999903    2    3    3    0    0  0.78465286870E-01 -0.36059810373E-01  0.99402285680E-01  0.13304691432E+00  0.19067140422E-01 0.  0.
         14    1    1    2    0    0 -0.78182438968E-02  0.19251969556E-01 -0.10909173894E-01  0.23468560767E-01  0.00000000000E+00 0.  1.
     999901    1    3    3    0    0 -0.70647042974E-01  0.16807840817E-01 -0.88493111786E-01  0.88741452491E+00  0.88000000000E+00 0.  1.
        -11    1    4    4    0    0  0.30062227312E-01 -0.48323660960E-02  0.28661743025E-01  0.41819205005E-01  0.51100000000E-03 0.  1.
         11    1    4    4    0    0  0.48403059559E-01 -0.31227444277E-01  0.70740542654E-01  0.91227709314E-01  0.51100000000E-03 0. -1.
</event>
<event>
 8    1  0.1138737E+005  0.1043930E+01  0.7957747E-01            NaN
         13   -1    0    0    0    0  0.00000000000E+00  0.00000000000E+00  0.74505805969E-08  0.10566000000E+00  0.10566000000E+00 0. -1.
     999900   -1    0    0    0    0 -0.00000000000E+00 -0.00000000000E+00 -0.74505805969E-08  0.93827000000E+00  0.93827000000E+00 0.  1.
     999902    2    1    2    0    0  0.18481059920E-01  0.62487053561E-02  0.14008684945E-01  0.10199125241E+01  0.10196296964E+01 0.  0.
     999903    2    3    3    0    0 -0.98920380414E-01  0.68534515597E-01  0.43451035918E-01  0.12944665032E+00  0.19652512991E-01 0.  0.
         14    1    1    2    0    0 -0.18481059920E-01 -0.62487053561E-02 -0.14008684945E-01  0.24017475893E-01  0.00000000000E+00 0. -1.
     999901    1    3    3    0    0  0.11740144033E+00 -0.62285810241E-01 -0.29442350973E-01  0.89046587379E+00  0.88000000000E+00 0. -1.
        -11    1    4    4    0    0 -0.89271295117E-01  0.67955678190E-01  0.38865547812E-01  0.11873554757E+00  0.51100000000E-03 0.  1.
         11    1    4    4    0    0 -0.96490852972E-02  0.57883740736E-03  0.45854881065E-02  0.10711102744E-01  0.51100000000E-03 0. -1.
</event>
<event>
 8    1  0.1138737E+005  0.1043930E+01  0.7957747E-01            NaN
         13   -1    0    0    0    0  0.00000000000E+00  0.00000000000E+00  0.74505805969E-08  0.10566000000E+00  0.10566000000E+00 0. -1.
     999900   -1    0    0    0    0 -0.00000000000E+00 -0.00000000000E+00 -0.74505805969E-08  0.93827000000E+00  0.93827000000E+00 0.  1.
     999902    2    1    2    0    0  0.76350354638E-02 -0.20212040059E-01 -0.99701407757E-02  0.10201345375E+01  0.10198569755E+01 0.  0.
     999903    2    3    3    0    0  0.61117257055E-01  0.82075547275E-01 -0.77760070274E-01  0.13001175207E+00  0.19614091280E-01 0.  0.
         14    1    1    2    0    0 -0.76350354638E-02  0.20212040059E-01  0.99701407757E-02  0.23795462529E-01  0.00000000000E+00 0. -1.
     999901    1    3    3    0    0 -0.53482221591E-01 -0.10228758733E+00  0.67789929499E-01  0.89012278540E+00  0.88000000000E+00 0. -1.
        -11    1    4    4    0    0  0.34492112521E-01  0.48153059012E-01 -0.56780354844E-01  0.82052987366E-01  0.51100000000E-03 0.  1.
         11    1    4    4    0    0  0.26625144534E-01  0.33922488263E-01 -0.20979715430E-01  0.47958764704E-01  0.51100000000E-03 0. -1.
</event>
<event>
 8    1  0.1138737E+005  0.1043930E+01  0.7957747E-01            NaN
         13   -1    0    0    0    0  0.00000000000E+00  0.00000000000E+00  0.74505805969E-08  0.10566000000E+00  0.10566000000E+00 0.  1.
     999900   -1    0    0    0    0 -0.00000000000E+00 -0.00000000000E+00 -0.74505805969E-08  0.93827000000E+00  0.93827000000E+00 0. -1.
     999902    2    1    2    0    0 -0.24837783687E-01 -0.10221658862E-01 -0.20973392546E-01  0.10098524267E+01  0.10092772873E+01 0.  0.
     999903    2    3    3    0    0  0.84656686422E-01  0.46870964727E-01  0.63115817293E-01  0.11726091772E+00  0.20071734916E-01 0.  0.
         14    1    1    2    0    0  0.24837783687E-01  0.10221658862E-01  0.20973392546E-01  0.34077573318E-01  0.00000000000E+00 0.  1.
     999901    1    3    3    0    0 -0.10949447011E+00 -0.57092623589E-01 -0.84089209839E-01  0.89259150896E+00  0.88000000000E+00 0. -1.
        -11    1    4    4    0    0  0.50371778453E-01  0.36464707179E-01  0.32705370989E-01  0.70263029728E-01  0.51100000000E-03 0.  1.
         11    1    4    4    0    0  0.34284907969E-01  0.10406257548E-01  0.30410446304E-01  0.46997887995E-01  0.51100000000E-03 0. -1.
</event>
<event>
 8    1  0.1138737E+005  0.1043930E+01  0.7957747E-01            NaN
         13   -1    0    0    0    0  0.00000000000E+00  0.00000000000E+00  0.74505805969E-08  0.10566000000E+00  0.10566000000E+00 0. -1.
     999900   -1    0    0    0    0 -0.00000000000E+00 -0.00000000000E+00 -0.74505805969E-08  0.93827000000E+00  0.93827000000E+00 0.  1.
     999902    2    1    2    0    0 -0.25639973625E-02 -0.34115691112E-02  0.22855740896E-01  0.10206792413E+01  0.10204143844E+01 0.  0.
     999903    2    3    3    0    0  0.81525285761E-01 -0.22577816738E-01 -0.94286488704E-01  0.12873717229E+00  0.22960565122E-01 0.  0.
         14    1    1    2    0    0  0.25639973625E-02  0.34115691112E-02 -0.22855740896E-01  0.23250758658E-01  0.00000000000E+00 0.  1.
     999901    1    3    3    0    0 -0.84089283124E-01  0.19166247627E-01  0.11714222960E+00  0.89194206905E+00  0.88000000000E+00 0. -1.
        -11    1    4    4    0    0  0.82494646908E-01 -0.22809029977E-01 -0.89570738033E-01  0.12389026132E+00  0.51100000000E-03 0.  1.
         11    1    4    4    0    0 -0.96936114676E-03  0.23121323859E-03 -0.47157506714E-02  0.48469109740E-02  0.51100000000E-03 0. -1.
</event>
<event>
 8    1  0.1138737E+005  0.1043930E+01  0.7957747E-01            NaN
         13   -1    0    0    0    0  0.00000000000E+00  0.00000000000E+00  0.74505805969E-08  0.10566000000E+00  0.10566000000E+00 0.  1.
     999900   -1    0    0    0    0 -0.00000000000E+00 -0.00000000000E+00 -0.74505805969E-08  0.93827000000E+00  0.93827000000E+00 0.  1.
     999902    2    1    2    0    0 -0.21231426303E-01  0.34848295355E-02 -0.29453440127E-02  0.10222138182E+01  0.10219831200E+01 0.  0.
     999903    2    3    3    0    0 -0.24471300313E-01 -0.60015303179E-01 -0.11443661266E+00  0.13290337376E+00  0.19154302025E-01 0.  0.
         14    1    1    2    0    0  0.21231426303E-01 -0.34848295355E-02  0.29453440127E-02  0.21716181780E-01  0.00000000000E+00 0. -1.
     999901    1    3    3    0    0  0.32398740096E-02  0.63500132714E-01  0.11149126864E+00  0.88931044446E+00  0.88000000000E+00 0. -1.
        -11    1    4    4    0    0 -0.70704731409E-03 -0.88053222321E-02 -0.30410949002E-01  0.31672078487E-01  0.51100000000E-03 0.  1.
         11    1    4    4    0    0 -0.23764252999E-01 -0.51209980947E-01 -0.84025663655E-01  0.10123129527E+00  0.51100000000E-03 0. -1.
</event>
<event>
 8    1  0.1138737E+005  0.1043930E+01  0.7957747E-01            NaN
         13   -1    0    0    0    0  0.00000000000E+00  0.00000000000E+00  0.74505805969E-08  0.10566000000E+00  0.10566000000E+00 0. -1.
     999900   -1    0    0    0    0 -0.00000000000E+00 -0.00000000000E+00 -0.74505805969E-08  0.93827000000E+00  0.93827000000E+00 0. -1.
     999902    2    1    2    0    0  0.20417365067E-01  0.13217940711E-01 -0.34824663903E-02  0.10193594826E+01  0.10190633172E+01 0.  0.
     999903    2    3    3    0    0 -0.36141853013E-01  0.61237244256E-02 -0.12258847663E+00  0.12950808224E+00  0.20016873478E-01 0.  0.
         14    1    1    2    0    0 -0.20417365067E-01 -0.13217940711E-01  0.34824663903E-02  0.24570517395E-01  0.00000000000E+00 0.  1.
     999901    1    3    3    0    0  0.56559218080E-01  0.70942162852E-02  0.11910601024E+00  0.88985140036E+00  0.88000000000E+00 0.  1.
        -11    1    4    4    0    0 -0.23775833451E-01  0.60096408159E-02 -0.48047737532E-01  0.53946753767E-01  0.51100000000E-03 0. -1.
         11    1    4    4    0    0 -0.12366019562E-01  0.11408360971E-03 -0.74540739095E-01  0.75561328474E-01  0.51100000000E-03 0.  1.
</event>
<event>
 8    1  0.1138737E+005  0.1043930E+01  0.7957747E-01            NaN
         13   -1    0    0    0    0  0.00000000000E+00  0.00000000000E+00  0.74505805969E-08  0.10566000000E+00  0.10566000000E+00 0.  1.
     999900   -1    0    0    0    0 -0.00000000000E+00 -0.00000000000E+00 -0.74505805969E-08  0.93827000000E+00  0.93827000000E+00 0.  1.
     999902    2    1    2    0    0  0.64028617139E-02  0.13989744164E-01 -0.13812072387E-01  0.10232543398E+01  0.10230454345E+01 0.  0.
     999903    2    3    3    0    0  0.86260226536E-01 -0.85156736971E-01  0.48131552103E-01  0.13193832626E+00  0.19964445739E-01 0.  0.
         14    1    1    2    0    0 -0.64028617139E-02 -0.13989744164E-01  0.13812072387E-01  0.20675660171E-01  0.00000000000E+00 0.  1.
     999901    1    3    3    0    0 -0.79857364822E-01  0.99146481135E-01 -0.61943624490E-01  0.89131601357E+00  0.88000000000E+00 0.  1.
        -11    1    4    4    0    0  0.21520393087E-01 -0.33815256837E-01  0.12875932846E-01  0.42102846475E-01  0.51100000000E-03 0. -1.
         11    1    4    4    0    0  0.64739833448E-01 -0.51341480134E-01  0.35255619257E-01  0.89835479780E-01  0.51100000000E-03 0.  1.
</event>
<event>
 8    1  0.1138737E+005  0.1043930E+01  0.7957747E-01            NaN
         13   -1    0    0    0    0  0.00000000000E+00  0.00000000000E+00  0.74505805969E-08  0.10566000000E+00  0.10566000000E+00 0.  1.
     999900   -1    0    0    0    0 -0.00000000000E+00 -0.00000000000E+00 -0.74505805969E-08  0.93827000000E+00  0.93827000000E+00 0.  1.
     999902    2    1    2    0    0 -0.22685942102E-01 -0.36855465254E-02  0.48250579053E-02  0.10204456136E+01  0.10201753447E+01 0.  0.
     999903    2    3    3    0    0  0.12384502648E+00  0.20426967847E-01 -0.12975928370E-01  0.12782609036E+00  0.20403015965E-01 0.  0.
         14    1    1    2    0    0  0.22685942102E-01  0.36855465254E-02 -0.48250579053E-02  0.23484386431E-01  0.00000000000E+00 0.  1.
     999901    1    3    3    0    0 -0.14653096858E+00 -0.24112514373E-01  0.17800986275E-01  0.89261952321E+00  0.88000000000E+00 0.  1.
        -11    1    4    4    0    0  0.47513566139E-01  0.16959748317E-01 -0.94733645552E-02  0.51333982772E-01  0.51100000000E-03 0. -1.
         11    1    4    4    0    0  0.76331460340E-01  0.34672195302E-02 -0.35025638149E-02  0.76492107588E-01  0.51100000000E-03 0.  1.
</event>
<event>
 8    1  0.1138737E+005  0.1043930E+01  0.7957747E-01            NaN
         13   -1    0    0    0    0  0.00000000000E+00  0.00000000000E+00  0.74505805969E-08  0.10566000000E+00  0.10566000000E+00 0. -1.
     999900   -1    0    0    0    0 -0.00000000000E+00 -0.00000000000E+00 -0.74505805969E-08  0.93827000000E+00  0.93827000000E+00 0.  1.
     999902    2    1    2    0    0 -0.27707424469E-02  0.92485352691E-02  0.31024838662E-01  0.10114376466E+01  0.10109156047E+01 0.  0.
     999903    2    3    3    0    0  0.13722181726E-01 -0.38138164254E-01 -0.10972170725E+00  0.11884193403E+00  0.21017478363E-01 0.  0.
         14    1    1    2    0    0  0.27707424469E-02 -0.92485352691E-02 -0.31024838662E-01  0.32492353444E-01  0.00000000000E+00 0.  1.
     999901    1    3    3    0    0 -0.16492924173E-01  0.47386699523E-01  0.14074654591E+00  0.89259571253E+00  0.88000000000E+00 0. -1.
        -11    1    4    4    0    0  0.24008327496E-02 -0.25465184630E-01 -0.43431173439E-01  0.50406027154E-01  0.51100000000E-03 0.  1.
         11    1    4    4    0    0  0.11321348976E-01 -0.12672979624E-01 -0.66290533814E-01  0.68435906873E-01  0.51100000000E-03 0. -1.
</event>
<event>
 8    1  0.1138737E+005  0.1043930E+01  0.7957747E-01            NaN
         13   -1    0    0    0    0  0.00000000000E+00  0.00000000000E+00  0.74505805969E-08  0.10566000000E+00  0.10566000000E+00 0.  1.
     999900   -1    0    0    0    0 -0.00000000000E+00 -0.00000000000E+00 -0.74505805969E-08  0.93827000000E+00  0.93827000000E+00 0.  1.
     999902    2    1    2    0    0  0.40600044789E-02  0.25310268018E-02  0.22989166045E-01  0.10204482733E+01  0.10201780663E+01 0.  0.
     999903    2    3    3    0    0  0.72157565071E-01 -0.25943678377E-01  0.10870042335E+00  0.13320844878E+00  0.69942937199E-02 0.  0.
         14    1    1    2    0    0 -0.40600044789E-02 -0.25310268018E-02 -0.22989166045E-01  0.23481726693E-01  0.00000000000E+00 0. -1.
     999901    1    3    3    0    0 -0.68097560592E-01  0.28474705179E-01 -0.85711257309E-01  0.88723982453E+00  0.88000000000E+00 0.  1.
        -11    1    4    4    0    0  0.56836574161E-01 -0.20163445425E-01  0.80363838748E-01  0.10047670572E+00  0.51100000000E-03 0. -1.
         11    1    4    4    0    0  0.15320990910E-01 -0.57802329520E-02  0.28336584607E-01  0.32731743058E-01  0.51100000000E-03 0.  1.
</event>
<event>
 8    1  0.1138737E+005  0.1043930E+01  0.7957747E-01            NaN
         13   -1    0    0    0    0  0.00000000000E+00  0.00000000000E+00  0.74505805969E-08  0.10566000000E+00  0.10566000000E+00 0.  1.
     999900   -1    0    0    0    0 -0.00000000000E+00 -0.00000000000E+00 -0.74505805969E-08  0.93827000000E+00  0.93827000000E+00 0. -1.
     999902    2    1    2    0    0 -0.11991931135E-01 -0.73035376818E-02  0.19164587778E-01  0.10201722749E+01  0.10198956030E+01 0.  0.
     999903    2    3    3    0    0  0.92773978895E-01  0.81750931801E-01 -0.27417230322E-01  0.12827740434E+00  0.20326385197E-01 0.  0.
         14    1    1    2    0    0  0.11991931135E-01  0.73035376818E-02 -0.19164587778E-01  0.23757725053E-01  0.00000000000E+00 0. -1.
     999901    1    3    3    0    0 -0.10476591003E+00 -0.89054469482E-01  0.46581818099E-01  0.89189487061E+00  0.88000000000E+00 0. -1.
        -11    1    4    4    0    0  0.66818036614E-01  0.57592940649E-01 -0.28774180520E-01  0.92789069481E-01  0.51100000000E-03 0. -1.
         11    1    4    4    0    0  0.25955942281E-01  0.24157991151E-01  0.13569501978E-02  0.35488334858E-01  0.51100000000E-03 0.  1.
</event>
<event>
 8    1  0.1138737E+005  0.1043930E+01  0.7957747E-01            NaN
         13   -1    0    0    0    0  0.00000000000E+00  0.00000000000E+00  0.74505805969E-08  0.10566000000E+00  0.10566000000E+00 0.  1.
     999900   -1    0    0    0    0 -0.00000000000E+00 -0.00000000000E+00 -0.74505805969E-08  0.93827000000E+00  0.93827000000E+00 0. -1.
     999902    2    1    2    0    0  0.33153537869E-02  0.15151533884E-01  0.17254799930E-01  0.10207289511E+01  0.10204652385E+01 0.  0.
     999903    2    3    3    0    0 -0.31177689787E-01 -0.79344189767E-01 -0.93585320520E-01  0.12808974954E+00  0.19524931010E-01 0.  0.
         14    1    1    2    0    0 -0.33153537869E-02 -0.15151533884E-01 -0.17254799930E-01  0.23201048907E-01  0.00000000000E+00 0. -1.
     999901    1    3    3    0    0  0.34493043574E-01  0.94495723650E-01  0.11084012045E+00  0.89263920155E+00  0.88000000000E+00 0.  1.
        -11    1    4    4    0    0 -0.91923194339E-02 -0.41767742135E-01 -0.36043096068E-01  0.55932181388E-01  0.51100000000E-03 0.  1.
         11    1    4    4    0    0 -0.21985370353E-01 -0.37576447631E-01 -0.57542224452E-01  0.72157568155E-01  0.51100000000E-03 0. -1.
</event>
<event>
 8    1  0.1138737E+005  0.1043930E+01  0.7957747E-01            NaN
         13   -1    0    0    0    0  0.00000000000E+00  0.00000000000E+00  0.74505805969E-08  0.10566000000E+00  0.10566000000E+00 0.  1.
     999900   -1    0    0    0    0 -0.00000000000E+00 -0.00000000000E+00 -0.74505805969E-08  0.93827000000E+00  0.93827000000E+00 0.  1.
     999902    2    1    2    0    0 -0.28677359435E-02 -0.12731654818E-01 -0.21001124525E-01  0.10192041800E+01  0.10189042125E+01 0.  0.
     999903    2    3    3    0    0 -0.14935747961E-01 -0.10596440446E+00  0.70302643125E-01  0.12949953208E+00  0.19394215632E-01 0.  0.
         14    1    1    2    0    0  0.28677359435E-02  0.12731654818E-01  0.21001124525E-01  0.24725820010E-01  0.00000000000E+00 0. -1.
     999901    1    3    3    0    0  0.12068012017E-01  0.93232749641E-01 -0.91303767650E-01  0.88970464791E+00  0.88000000000E+00 0.  1.
        -11    1    4    4    0    0 -0.12113168846E-01 -0.52442981770E-01  0.25126188533E-01  0.59401865860E-01  0.51100000000E-03 0. -1.
         11    1    4    4    0    0 -0.28225791151E-02 -0.53521422689E-01  0.45176454592E-01  0.70097666224E-01  0.51100000000E-03 0.  1.
</event>
<event>
 8    1  0.1138737E+005  0.1043930E+01  0.7957747E-01            NaN
         13   -1    0    0    0    0  0.00000000000E+00  0.00000000000E+00  0.74505805969E-08  0.10566000000E+00  0.10566000000E+00 0. -1.
     999900   -1    0    0    0    0 -0.00000000000E+00 -0.00000000000E+00 -0.74505805969E-08  0.93827000000E+00  0.93827000000E+00 0.  1.
     999902    2    1    2    0    0  0.80816555163E-02  0.17219169332E-03  0.23263092924E-01  0.10193024890E+01  0.10190049312E+01 0.  0.
     999903    2    3    3    0    0 -0.18593276493E-01 -0.11101287261E+00 -0.57994098668E-01  0.12819284271E+00  0.20013036414E-01 0.  0.
         14    1    1    2    0    0 -0.80816555163E-02 -0.17219169332E-03 -0.23263092924E-01  0.24627511004E-01  0.00000000000E+00 0.  1.
     999901    1    3    3    0    0  0.26674932010E-01  0.11118506430E+00  0.81257191592E-01  0.89110964629E+00  0.88000000000E+00 0. -1.
        -11    1    4    4    0    0 -0.12266458426E-01 -0.41723935127E-01 -0.31666139880E-01  0.53799240708E-01  0.51100000000E-03 0. -1.
         11    1    4    4    0    0 -0.63268180672E-02 -0.69288937479E-01 -0.26327958788E-01  0.74393602001E-01  0.51100000000E-03 0.  1.
</event>
<event>
 8    1  0.1138737E+005  0.1043930E+01  0.7957747E-01            NaN
         13   -1    0    0    0    0  0.00000000000E+00  0.00000000000E+00  0.74505805969E-08  0.10566000000E+00  0.10566000000E+00 0.  1.
     999900   -1    0    0    0    0 -0.00000000000E+00 -0.00000000000E+00 -0.74505805969E-08  0.93827000000E+00  0.93827000000E+00 0. -1.
     999902    2    1    2    0    0  0.55859374953E-02 -0.13629168468E-01 -0.19708340604E-01  0.10193256179E+01  0.10190286255E+01 0.  0.
     999903    2    3    3    0    0  0.98792373238E-01  0.60518742547E-01 -0.56316040393E-01  0.13054810012E+00  0.21186288709E-01 0.  0.
         14    1    1    2    0    0 -0.55859374953E-02  0.13629168468E-01  0.19708340604E-01  0.24604382134E-01  0.00000000000E+00 0.  1.
     999901    1    3    3    0    0 -0.93206435743E-01 -0.74147911015E-01  0.36607699789E-01  0.88877751775E+00  0.88000000000E+00 0. -1.
        -11    1    4    4    0    0  0.48893784133E-01  0.26295247706E-01 -0.15786173382E-01  0.57719204515E-01  0.51100000000E-03 0.  1.
         11    1    4    4    0    0  0.49898589105E-01  0.34223494841E-01 -0.40529867010E-01  0.72828895602E-01  0.51100000000E-03 0. -1.
</event>
<event>
 8    1  0.1138737E+005  0.1043930E+01  0.7957747E-01            NaN
         13   -1    0    0    0    0  0.00000000000E+00  0.00000000000E+00  0.74505805969E-08  0.10566000000E+00  0.10566000000E+00 0.  1.
     999900   -1    0    0    0    0 -0.00000000000E+00 -0.00000000000E+00 -0.74505805969E-08  0.93827000000E+00  0.93827000000E+00 0. -1.
     999902    2    1    2    0    0  0.59818918577E-02  0.21352873244E-01  0.68402547934E-02  0.10207240242E+01  0.10204601983E+01 0.  0.
     999903    2    3    3    0    0  0.29992274315E-01 -0.12300452604E+00 -0.84052964372E-02  0.12850881251E+00  0.20352295651E-01 0.  0.
         14    1    1    2    0    0 -0.59818918577E-02 -0.21352873244E-01 -0.68402547934E-02  0.23205975774E-01  0.00000000000E+00 0.  1.
     999901    1    3    3    0    0 -0.24010382457E-01  0.14435739928E+00  0.15245551231E-01  0.89221521172E+00  0.88000000000E+00 0. -1.
        -11    1    4    4    0    0  0.97980618673E-03 -0.36300444216E-01  0.26411743985E-02  0.36413173353E-01  0.51100000000E-03 0. -1.
         11    1    4    4    0    0  0.29012468128E-01 -0.86704081825E-01 -0.11046470836E-01  0.92095639152E-01  0.51100000000E-03 0.  1.
</event>
<event>
 8    1  0.1138737E+005  0.1043930E+01  0.7957747E-01            NaN
         13   -1    0    0    0    0  0.00000000000E+00  0.00000000000E+00  0.74505805969E-08  0.10566000000E+00  0.10566000000E+00 0. -1.
     999900   -1    0    0    0    0 -0.00000000000E+00 -0.00000000000E+00 -0.74505805969E-08  0.93827000000E+00  0.93827000000E+00 0.  1.
     999902    2    1    2    0    0 -0.20629841047E-01  0.11068358897E-01  0.19503721834E-02  0.10204373871E+01  0.10201669266E+01 0.  0.
     999903    2    3    3    0    0 -0.99599127453E-01 -0.18937576660E-01 -0.82652155404E-01  0.13235287982E+00  0.20181377635E-01 0.  0.
         14    1    1    2    0    0  0.20629841047E-01 -0.11068358897E-01 -0.19503721834E-02  0.23492612923E-01  0.00000000000E+00 0.  1.
     999901    1    3    3    0    0  0.78969286406E-01  0.30005935556E-01  0.84602527587E-01  0.88808450726E+00  0.88000000000E+00 0. -1.
        -11    1    4    4    0    0 -0.87357683210E-01 -0.11170749555E-01 -0.76266343965E-01  0.11650307637E+00  0.51100000000E-03 0.  1.
         11    1    4    4    0    0 -0.12241444244E-01 -0.77668271047E-02 -0.63858114384E-02  0.15849803443E-01  0.51100000000E-03 0. -1.
</event>
<event>
 8    1  0.1138737E+005  0.1043930E+01  0.7957747E-01            NaN
         13   -1    0    0    0    0  0.00000000000E+00  0.00000000000E+00  0.74505805969E-08  0.10566000000E+00  0.10566000000E+00 0.  1.
     999900   -1    0    0    0    0 -0.00000000000E+00 -0.00000000000E+00 -0.74505805969E-08  0.93827000000E+00  0.93827000000E+00 0. -1.
     999902    2    1    2    0    0  0.48843965335E-02  0.14155141744E-01 -0.18441265333E-01  0.10201748819E+01  0.10198982714E+01 0.  0.
     999903    2    3    3    0    0 -0.14519389278E-01  0.18075746455E-01  0.12469056196E+00  0.12839094059E+00  0.19973785571E-01 0.  0.
         14    1    1    2    0    0 -0.48843965335E-02 -0.14155141744E-01  0.18441265333E-01  0.23755118067E-01  0.00000000000E+00 0. -1.
     999901    1    3    3    0    0  0.19403785812E-01 -0.39206047108E-02 -0.14313182729E+00  0.89178394134E+00  0.88000000000E+00 0. -1.
        -11    1    4    4    0    0  0.23943403037E-02  0.12482939779E-01  0.48020564464E-01  0.49676879767E-01  0.51100000000E-03 0. -1.
         11    1    4    4    0    0 -0.16913729582E-01  0.55928066762E-02  0.76669997496E-01  0.78714060827E-01  0.51100000000E-03 0.  1.
</event>
<event>
 8    1  0.1138737E+005  0.1043930E+01  0.7957747E-01            NaN
         13   -1    0    0    0    0  0.00000000000E+00  0.00000000000E+00  0.74505805969E-08  0.10566000000E+00  0.10566000000E+00 0.  1.
     999900   -1    0    0    0    0 -0.00000000000E+00 -0.00000000000E+00 -0.74505805969E-08  0.93827000000E+00  0.93827000000E+00 0.  1.
     999902    2    1    2    0    0 -0.23162997799E-01 -0.28466454043E-02 -0.64295080777E-02  0.10197232565E+01  0.10194358996E+01 0.  0.
     999903    2    3    3    0    0  0.10164224502E+00  0.73406883564E-01  0.11407423246E-01  0.12747379281E+00  0.19993049352E-01 0.  0.
         14    1    1    2    0    0  0.23162997799E-01  0.28466454043E-02  0.64295080777E-02  0.24206743507E-01  0.00000000000E+00 0. -1.
     999901    1    3    3    0    0 -0.12480524282E+00 -0.76253528968E-01 -0.17836931324E-01  0.89224946368E+00  0.88000000000E+00 0.  1.
        -11    1    4    4    0    0  0.77019056946E-01  0.60371049748E-01  0.16217252245E-01  0.99196064296E-01  0.51100000000E-03 0. -1.
         11    1    4    4    0    0  0.24623188072E-01  0.13035833816E-01 -0.48098289993E-02  0.28277728518E-01  0.51100000000E-03 0.  1.
</event>
<event>
 8    1  0.1138737E+005  0.1043930E+01  0.7957747E-01            NaN
         13   -1    0    0    0    0  0.00000000000E+00  0.00000000000E+00  0.74505805969E-08  0.10566000000E+00  0.10566000000E+00 0. -1.
     999900   -1    0    0    0    0 -0.00000000000E+00 -0.00000000000E+00 -0.74505805969E-08  0.93827000000E+00  0.93827000000E+00 0.  1.
     999902    2    1    2    0    0  0.24010546369E-01  0.34838336644E-02  0.19494692144E-02  0.10195898302E+01  0.10192992583E+01 0.  0.
     999903    2    3    3    0    0  0.51218759243E-02  0.10089322975E+00  0.80233216112E-01  0.13056018093E+00  0.20072729143E-01 0.  0.
         14    1    1    2    0    0 -0.24010546369E-01 -0.34838336644E-02 -0.19494692144E-02  0.24340169764E-01  0.00000000000E+00 0.  1.
     999901    1    3    3    0    0  0.18888670444E-01 -0.97409396082E-01 -0.78283746898E-01  0.88902964931E+00  0.88000000000E+00 0.  1.
        -11    1    4    4    0    0 -0.34938330880E-02  0.75350341890E-01  0.65110421244E-01  0.99646921519E-01  0.51100000000E-03 0.  1.
         11    1    4    4    0    0  0.86157090124E-02  0.25542887857E-01  0.15122794868E-01  0.30913259412E-01  0.51100000000E-03 0. -1.
</event>
<event>
 7    1  0.1138737E+005  0.1043930E+01  0.7957747E-01            NaN
         13   -1    0    0    0    0  0.00000000000E+00  0.00000000000E+00  0.74505805969E-08  0.10566000000E+00  0.10566000000E+00 0. -1.
     999900   -1    0    0    0    0 -0.00000000000E+00 -0.00000000000E+00 -0.74505805969E-08  0.93827000000E+00  0.93827000000E+00 0.  1.
     999903    2    1    2    0    0  0.81280969440E-02 -0.45427835794E-01  0.10187139776E+00  0.11340825274E+00  0.18812120676E-01 0.  0.
         14    1    1    2    0    0 -0.15928927472E-01  0.41904660508E-01 -0.71619229757E-02  0.45398507062E-01  0.00000000000E+00 0.  1.
     999901    1    1    2    0    0  0.78008305281E-02  0.35231752862E-02 -0.94709474781E-01  0.88512324020E+00  0.88000000000E+00 0.  1.
        -11    1    3    3    0    0  0.80894009397E-02 -0.37661374654E-01  0.63632855589E-01  0.74385610031E-01  0.51100000000E-03 0. -1.
         11    1    3    3    0    0  0.38696004289E-04 -0.77664611405E-02  0.38238542168E-01  0.39022642711E-01  0.51100000000E-03 0.  1.
</event>
<event>
 8    1  0.1138737E+005  0.1043930E+01  0.7957747E-01            NaN
         13   -1    0    0    0    0  0.00000000000E+00  0.00000000000E+00  0.74505805969E-08  0.10566000000E+00  0.10566000000E+00 0. -1.
     999900   -1    0    0    0    0 -0.00000000000E+00 -0.00000000000E+00 -0.74505805969E-08  0.93827000000E+00  0.93827000000E+00 0.  1.
     999902    2    1    2    0    0  0.10827158742E-01 -0.18861042577E-01  0.10764215488E-01  0.10196640850E+01  0.10193753046E+01 0.  0.
     999903    2    3    3    0    0  0.58909750737E-01  0.11106466011E+00 -0.16891108247E-01  0.12839676218E+00  0.19867097016E-01 0.  0.
         14    1    1    2    0    0 -0.10827158742E-01  0.18861042577E-01 -0.10764215488E-01  0.24265914955E-01  0.00000000000E+00 0.  1.
     999901    1    3    3    0    0 -0.48082591995E-01 -0.12992570269E+00  0.27655323734E-01  0.89126732286E+00  0.88000000000E+00 0. -1.
        -11    1    4    4    0    0  0.35032921557E-01  0.60192713962E-01 -0.18886180380E-01  0.72162437163E-01  0.51100000000E-03 0.  1.
         11    1    4    4    0    0  0.23876829179E-01  0.50871946149E-01  0.19950721328E-02  0.56234325020E-01  0.51100000000E-03 0. -1.
</event>
<event>
 8    1  0.1138737E+005  0.1043930E+01  0.7957747E-01            NaN
         13   -1    0    0    0    0  0.00000000000E+00  0.00000000000E+00  0.74505805969E-08  0.10566000000E+00  0.10566000000E+00 0.  1.
     999900   -1    0    0    0    0 -0.00000000000E+00 -0.00000000000E+00 -0.74505805969E-08  0.93827000000E+00  0.93827000000E+00 0.  1.
     999902    2    1    2    0    0  0.18104397177E-01  0.14299421678E-01 -0.54093628885E-02  0.10202339272E+01  0.10199587062E+01 0.  0.
     999903    2    3    3    0    0  0.95421682333E-01  0.35742697921E-01 -0.83135236524E-01  0.13317187298E+00  0.20986716897E-01 0.  0.
         14    1    1    2    0    0 -0.18104397177E-01 -0.14299421678E-01  0.54093628885E-02  0.23696072762E-01  0.00000000000E+00 0.  1.
     999901    1    3    3    0    0 -0.77317285155E-01 -0.21443276243E-01  0.77725873635E-01  0.88706205426E+00  0.88000000000E+00 0. -1.
        -11    1    4    4    0    0  0.42770458648E-01  0.24728663667E-01 -0.48237985493E-01  0.69050585118E-01  0.51100000000E-03 0.  1.
         11    1    4    4    0    0  0.52651223684E-01  0.11014034255E-01 -0.34897251031E-01  0.64121287858E-01  0.51100000000E-03 0. -1.
</event>
<event>
 8    1  0.1138737E+005  0.1043930E+01  0.7957747E-01            NaN
         13   -1    0    0    0    0  0.00000000000E+00  0.00000000000E+00  0.74505805969E-08  0.10566000000E+00  0.10566000000E+00 0.  1.
     999900   -1    0    0    0    0 -0.00000000000E+00 -0.00000000000E+00 -0.74505805969E-08  0.93827000000E+00  0.93827000000E+00 0.  1.
     999902    2    1    2    0    0 -0.12559768755E-01  0.13934280162E-01 -0.58090424534E-02  0.10242918502E+01  0.10241035775E+01 0.  0.
     999903    2    3    3    0    0  0.50667155120E-01  0.39190522468E-01 -0.11684341854E+00  0.13470534265E+00  0.19750625856E-01 0.  0.
         14    1    1    2    0    0  0.12559768755E-01 -0.13934280162E-01  0.58090424534E-02  0.19638149837E-01  0.00000000000E+00 0.  1.
     999901    1    3    3    0    0 -0.63226923875E-01 -0.25256242307E-01  0.11103437609E+00  0.88958650751E+00  0.88000000000E+00 0.  1.
        -11    1    4    4    0    0  0.34150848987E-01  0.18270627184E-01 -0.83244310403E-01  0.91814882452E-01  0.51100000000E-03 0. -1.
         11    1    4    4    0    0  0.16516306133E-01  0.20919895284E-01 -0.33599108141E-01  0.42890460196E-01  0.51100000000E-03 0.  1.
</event>
<event>
 8    1  0.1138737E+005  0.1043930E+01  0.7957747E-01            NaN
         13   -1    0    0    0    0  0.00000000000E+00  0.00000000000E+00  0.74505805969E-08  0.10566000000E+00  0.10566000000E+00 0. -1.
     999900   -1    0    0    0    0 -0.00000000000E+00 -0.00000000000E+00 -0.74505805969E-08  0.93827000000E+00  0.93827000000E+00 0.  1.
     999902    2    1    2    0    0  0.21834899065E-01  0.50984262861E-02 -0.25388356896E-02  0.10213644853E+01  0.10211151793E+01 0.  0.
     999903    2    3    3    0    0  0.10189104469E+00  0.40601558107E-01  0.73969718059E-01  0.13371420639E+00  0.19434461480E-01 0.  0.
         14    1    1    2    0    0 -0.21834899065E-01 -0.50984262861E-02  0.25388356896E-02  0.22565514717E-01  0.00000000000E+00 0. -1.
     999901    1    3    3    0    0 -0.80056145621E-01 -0.35503131821E-01 -0.76508553749E-01  0.88765027889E+00  0.88000000000E+00 0.  1.
        -11    1    4    4    0    0  0.25015118559E-01  0.58837488577E-02  0.89716900135E-02  0.27223647806E-01  0.51100000000E-03 0.  1.
         11    1    4    4    0    0  0.76875926127E-01  0.34717809249E-01  0.64998028045E-01  0.10649055859E+00  0.51100000000E-03 0. -1.
</event>
<event>
 8    1  0.1138737E+005  0.1043930E+01  0.7957747E-01            NaN
         13   -1    0    0    0    0  0.00000000000E+00  0.00000000000E+00  0.74505805969E-08  0.10566000000E+00  0.10566000000E+00 0.  1.
     999900   -1    0    0    0    0 -0.00000000000E+00 -0.00000000000E+00 -0.74505805969E-08  0.93827000000E+00  0.93827000000E+00 0. -1.
     999902    2    1    2    0    0  0.67548023219E-02 -0.20163128752E-01  0.99056796006E-02  0.10204714919E+01  0.10202018252E+01 0.  0.
     999903    2    3    3    0    0  0.81350145089E-01  0.92472988752E-01 -0.33119775536E-01  0.12912276667E+00  0.20166050308E-01 0.  0.
         14    1    1    2    0    0 -0.67548023219E-02  0.20163128752E-01 -0.99056796006E-02  0.23458508133E-01  0.00000000000E+00 0. -1.
     999901    1    3    3    0    0 -0.74595342767E-01 -0.11263611750E+00  0.43025455136E-01  0.89134872520E+00  0.88000000000E+00 0. -1.
        -11    1    4    4    0    0  0.56470585980E-01  0.63470417059E-01 -0.32326522241E-01  0.90899318390E-01  0.51100000000E-03 0. -1.
         11    1    4    4    0    0  0.24879559109E-01  0.29002571693E-01 -0.79325329504E-03  0.38223448275E-01  0.51100000000E-03 0.  1.
</event>
<event>
 8    1  0.1138737E+005  0.1043930E+01  0.7957747E-01            NaN
         13   -1    0    0    0    0  0.00000000000E+00  0.00000000000E+00  0.74505805969E-08  0.10566000000E+00  0.10566000000E+00 0.  1.
     999900   -1    0    0    0    0 -0.00000000000E+00 -0.00000000000E+00 -0.74505805969E-08  0.93827000000E+00  0.93827000000E+00 0.  1.
     999902    2    1    2    0    0  0.86251025411E-03 -0.21286929378E-01  0.98850654101E-02  0.10204440083E+01  0.10201737020E+01 0.  0.
     999903    2    3    3    0    0 -0.13847559106E-01  0.34988643239E-01  0.12423921197E+00  0.13114079961E+00  0.18616323050E-01 0.  0.
         14    1    1    2    0    0 -0.86251025411E-03  0.21286929378E-01 -0.98850654101E-02  0.23485991664E-01  0.00000000000E+00 0.  1.
     999901    1    3    3    0    0  0.14710069360E-01 -0.56275572617E-01 -0.11435414656E+00  0.88930320872E+00  0.88000000000E+00 0.  1.
        -11    1    4    4    0    0 -0.12803427439E-01  0.27253273301E-01  0.11572304348E+00  0.11957739156E+00  0.51100000000E-03 0. -1.
         11    1    4    4    0    0 -0.10441316667E-02  0.77353699379E-02  0.85161684873E-02  0.11563408049E-01  0.51100000000E-03 0.  1.
</event>
<event>
 8    1  0.1138737E+005  0.1043930E+01  0.7957747E-01            NaN
         13   -1    0    0    0    0  0.00000000000E+00  0.00000000000E+00  0.74505805969E-08  0.10566000000E+00  0.10566000000E+00 0.  1.
     999900   -1    0    0    0    0 -0.00000000000E+00 -0.00000000000E+00 -0.74505805969E-08  0.93827000000E+00  0.93827000000E+00 0.  1.
     999902    2    1    2    0    0 -0.18667984836E-01  0.12673281690E-01  0.71741700099E-02  0.10202535467E+01  0.10199787866E+01 0.  0.
     999903    2    3    3    0    0 -0.21908191310E-01 -0.11935127329E+00  0.42259700868E-01  0.12970765986E+00  0.17705914963E-01 0.  0.
         14    1    1    2    0    0  0.18667984836E-01 -0.12673281690E-01 -0.71741700099E-02  0.23676453323E-01  0.00000000000E+00 0.  1.
     999901    1    3    3    0    0  0.32402064743E-02  0.13202455498E+00 -0.35085530859E-01  0.89054588682E+00  0.88000000000E+00 0.  1.
        -11    1    4    4    0    0  0.15512667433E-02 -0.34097302003E-01  0.98210270505E-02  0.35521065943E-01  0.51100000000E-03 0. -1.
         11    1    4    4    0    0 -0.23459458053E-01 -0.85253971291E-01  0.32438673818E-01  0.94186593914E-01  0.51100000000E-03 0.  1.
</event>
<event>
 8    1  0.1138737E+005  0.1043930E+01  0.7957747E-01            NaN
         13   -1    0    0    0    0  0.00000000000E+00  0.00000000000E+00  0.74505805969E-08  0.10566000000E+00  0.10566000000E+00 0. -1.
     999900   -1    0    0    0    0 -0.00000000000E+00 -0.00000000000E+00 -0.74505805969E-08  0.93827000000E+00  0.93827000000E+00 0.  1.
     999902    2    1    2    0    0  0.14859412583E-01 -0.18460397841E-01 -0.47312979256E-03  0.10202274203E+01  0.10199520464E+01 0.  0.
     999903    2    3    3    0    0  0.80503418107E-01 -0.91356615129E-02 -0.10198794320E+00  0.13191365623E+00  0.20866516318E-01 0.  0.
         14    1    1    2    0    0 -0.14859412583E-01  0.18460397841E-01  0.47312979256E-03  0.23702579660E-01  0.00000000000E+00 0.  1.
     999901    1    3    3    0    0 -0.65644005524E-01 -0.93247363279E-02  0.10151481341E+00  0.88831376411E+00  0.88000000000E+00 0. -1.
        -11    1    4    4    0    0  0.13929262870E-01 -0.98777732564E-02 -0.20832524109E-01  0.26941602595E-01  0.51100000000E-03 0.  1.
         11    1    4    4    0    0  0.66574155237E-01  0.74211174353E-03 -0.81155419090E-01  0.10497205363E+00  0.51100000000E-03 0. -1.
</event>
<event>
 8    1  0.1373282E+005  0.1043930E+01  0.7957747E-01            NaN
         13   -1    0    0    0    0  0.00000000000E+00  0.00000000000E+00  0.74505805969E-08  0.10566000000E+00  0.10566000000E+00 0. -1.
     999900   -1    0    0    0    0 -0.00000000000E+00 -0.00000000000E+00 -0.74505805969E-08  0.93827000000E+00  0.93827000000E+00 0. -1.
     999902    2    1    2    0    0 -0.11120705929E-01 -0.81581491907E-02 -0.18906638458E-01  0.10205272977E+01  0.10202589273E+01 0.  0.
     999903    2    3    3    0    0  0.61925955233E-02 -0.12918800393E+00 -0.15874525841E-01  0.13206954974E+00  0.21505273767E-01 0.  0.
         14    1    1    2    0    0  0.11120705929E-01  0.81581491907E-02  0.18906638458E-01  0.23402702330E-01  0.00000000000E+00 0. -1.
     999901    1    3    3    0    0 -0.17313301452E-01  0.12102985474E+00 -0.30321126167E-02  0.88845774793E+00  0.88000000000E+00 0.  1.
        -11    1    4    4    0    0 -0.26919650317E-02 -0.50770039250E-01  0.29666057019E-02  0.50930397913E-01  0.51100000000E-03 0.  1.
         11    1    4    4    0    0  0.88845605550E-02 -0.78417964680E-01 -0.18841131543E-01  0.81139151830E-01  0.51100000000E-03 0. -1.
</event>
<event>
 8    1  0.1138737E+005  0.1043930E+01  0.7957747E-01            NaN
         13   -1    0    0    0    0  0.00000000000E+00  0.00000000000E+00  0.74505805969E-08  0.10566000000E+00  0.10566000000E+00 0. -1.
     999900   -1    0    0    0    0 -0.00000000000E+00 -0.00000000000E+00 -0.74505805969E-08  0.93827000000E+00  0.93827000000E+00 0.  1.
     999902    2    1    2    0    0  0.25416782238E-01  0.99778661810E-02 -0.28967552928E-03  0.10166233242E+01  0.10162565270E+01 0.  0.
     999903    2    3    3    0    0  0.11292675706E+00 -0.17280275702E-02 -0.61511942749E-01  0.13008895392E+00  0.19595364008E-01 0.  0.
         14    1    1    2    0    0 -0.25416782238E-01 -0.99778661810E-02  0.28967552928E-03  0.27306675828E-01  0.00000000000E+00 0. -1.
     999901    1    3    3    0    0 -0.87509974823E-01  0.11705893751E-01  0.61222267220E-01  0.88653437026E+00  0.88000000000E+00 0. -1.
        -11    1    4    4    0    0  0.30345787844E-01  0.41938914629E-02 -0.85685869571E-02  0.31814106446E-01  0.51100000000E-03 0. -1.
         11    1    4    4    0    0  0.82580969216E-01 -0.59219190331E-02 -0.52943355792E-01  0.98274847470E-01  0.51100000000E-03 0.  1.
</event>
<event>
 8    1  0.1138737E+005  0.1043930E+01  0.7957747E-01            NaN
         13   -1    0    0    0    0  0.00000000000E+00  0.00000000000E+00  0.74505805969E-08  0.10566000000E+00  0.10566000000E+00 0. -1.
     999900   -1    0    0    0    0 -0.00000000000E+00 -0.00000000000E+00 -0.74505805969E-08  0.93827000000E+00  0.93827000000E+00 0. -1.
     999902    2    1    2    0    0 -0.78862446143E-02 -0.17199499775E-01 -0.13395728548E-01  0.10207467908E+01  0.10204834882E+01 0.  0.
     999903    2    3    3    0    0 -0.57065055677E-01 -0.10723302727E+00  0.49090158881E-01  0.13258628858E+00  0.20345454152E-01 0.  0.
         14    1    1    2    0    0  0.78862446143E-02  0.17199499775E-01  0.13395728548E-01  0.23183209224E-01  0.00000000000E+00 0. -1.
     999901    1    3    3    0    0  0.49178811063E-01  0.90033527492E-01 -0.62485887429E-01  0.88816050219E+00  0.88000000000E+00 0. -1.
        -11    1    4    4    0    0 -0.10770886349E-01 -0.37255318915E-01  0.20986767895E-01  0.44098484417E-01  0.51100000000E-03 0. -1.
         11    1    4    4    0    0 -0.46294169328E-01 -0.69977708352E-01  0.28103390986E-01  0.88487804165E-01  0.51100000000E-03 0.  1.
</event>
<event>
 8    1  0.1138737E+005  0.1043930E+01  0.7957747E-01            NaN
         13   -1    0    0    0    0  0.00000000000E+00  0.00000000000E+00  0.74505805969E-08  0.10566000000E+00  0.10566000000E+00 0.  1.
     999900   -1    0    0    0    0 -0.00000000000E+00 -0.00000000000E+00 -0.74505805969E-08  0.93827000000E+00  0.93827000000E+00 0.  1.
     999902    2    1    2    0    0 -0.93942887651E-02  0.65727212648E-02 -0.21107358317E-01  0.10199097190E+01  0.10196268243E+01 0.  0.
     999903    2    3    3    0    0  0.12572566083E+00  0.83150190454E-02  0.16625494095E-01  0.12879569453E+00  0.20876842281E-01 0.  0.
         14    1    1    2    0    0  0.93942887651E-02 -0.65727212648E-02  0.21107358317E-01  0.24020281042E-01  0.00000000000E+00 0.  1.
     999901    1    3    3    0    0 -0.13511994959E+00 -0.17422977805E-02 -0.37732852413E-01  0.89111402443E+00  0.88000000000E+00 0.  1.
        -11    1    4    4    0    0  0.99601141821E-01  0.65288171043E-02  0.44550662907E-02  0.99915572567E-01  0.51100000000E-03 0. -1.
         11    1    4    4    0    0  0.26124519006E-01  0.17862019411E-02  0.12170427805E-01  0.28880121963E-01  0.51100000000E-03 0.  1.
</event>
<event>
 8    1  0.1138737E+005  0.1043930E+01  0.7957747E-01            NaN
         13   -1    0    0    0    0  0.00000000000E+00  0.00000000000E+00  0.74505805969E-08  0.10566000000E+00  0.10566000000E+00 0. -1.
     999900   -1    0    0    0    0 -0.00000000000E+00 -0.00000000000E+00 -0.74505805969E-08  0.93827000000E+00  0.93827000000E+00 0.  1.
     999902    2    1    2    0    0  0.22615385484E-01 -0.23552447802E-02 -0.63522021864E-02  0.10203216686E+01  0.10200485058E+01 0.  0.
     999903    2    3    3    0    0  0.34750141202E-02 -0.64306553740E-02 -0.12979005314E+00  0.13149105154E+00  0.19773964952E-01 0.  0.
         14    1    1    2    0    0 -0.22615385484E-01  0.23552447802E-02  0.63522021864E-02  0.23608331394E-01  0.00000000000E+00 0. -1.
     999901    1    3    3    0    0  0.19140371364E-01  0.40754105938E-02  0.12343785095E+00  0.88883061707E+00  0.88000000000E+00 0. -1.
        -11    1    4    4    0    0 -0.12608988863E-02  0.22175772168E-02 -0.19028024395E-02  0.32232425968E-02  0.51100000000E-03 0.  1.
         11    1    4    4    0    0  0.47359130066E-02 -0.86482325907E-02 -0.12788725070E+00  0.12826780894E+00  0.51100000000E-03 0. -1.
</event>
<event>
 8    1  0.1138737E+005  0.1043930E+01  0.7957747E-01            NaN
         13   -1    0    0    0    0  0.00000000000E+00  0.00000000000E+00  0.74505805969E-08  0.10566000000E+00  0.10566000000E+00 0.  1.
     999900   -1    0    0    0    0 -0.00000000000E+00 -0.00000000000E+00 -0.74505805969E-08  0.93827000000E+00  0.93827000000E+00 0.  1.
     999902    2    1    2    0    0 -0.11011262783E-01  0.51434643520E-02  0.22499125419E-01  0.10183582621E+01  0.10180371488E+01 0.  0.
     999903    2    3    3    0    0 -0.54070727249E-01  0.93998035235E-01 -0.65618657184E-01  0.12846276496E+00  0.20918882335E-01 0.  0.
         14    1    1    2    0    0  0.11011262783E-01 -0.51434643520E-02 -0.22499125419E-01  0.25571737880E-01  0.00000000000E+00 0. -1.
     999901    1    3    3    0    0  0.43059464467E-01 -0.88854570883E-01  0.88117782603E-01  0.88989549716E+00  0.88000000000E+00 0. -1.
        -11    1    4    4    0    0 -0.34196611146E-01  0.38558149400E-01 -0.31052483354E-01  0.60171894955E-01  0.51100000000E-03 0. -1.
         11    1    4    4    0    0 -0.19874116103E-01  0.55439885835E-01 -0.34566173830E-01  0.68290870009E-01  0.51100000000E-03 0.  1.
</event>
<event>
 8    1  0.1138737E+005  0.1043930E+01  0.7957747E-01            NaN
         13   -1    0    0    0    0  0.00000000000E+00  0.00000000000E+00  0.74505805969E-08  0.10566000000E+00  0.10566000000E+00 0. -1.
     999900   -1    0    0    0    0 -0.00000000000E+00 -0.00000000000E+00 -0.74505805969E-08  0.93827000000E+00  0.93827000000E+00 0. -1.
     999902    2    1    2    0    0  0.37016191353E-02  0.59797118311E-02 -0.24557077613E-01  0.10183857443E+01  0.10180653295E+01 0.  0.
     999903    2    3    3    0    0 -0.97745658014E-01  0.76625884332E-01 -0.31346587668E-01  0.12971902997E+00  0.20461631603E-01 0.  0.
         14    1    1    2    0    0 -0.37016191353E-02 -0.59797118311E-02  0.24557077613E-01  0.25544255689E-01  0.00000000000E+00 0. -1.
     999901    1    3    3    0    0  0.10144727715E+00 -0.70646172501E-01  0.67895100543E-02  0.88866671434E+00  0.88000000000E+00 0. -1.
        -11    1    4    4    0    0 -0.63747405385E-01  0.41421967839E-01 -0.11433517173E-01  0.76879760333E-01  0.51100000000E-03 0.  1.
         11    1    4    4    0    0 -0.33998252629E-01  0.35203916493E-01 -0.19913070494E-01  0.52839269637E-01  0.51100000000E-03 0. -1.
</event>
<event>
 8    1  0.1138737E+005  0.1043930E+01  0.7957747E-01            NaN
         13   -1    0    0    0    0  0.00000000000E+00  0.00000000000E+00  0.74505805969E-08  0.10566000000E+00  0.10566000000E+00 0.  1.
     999900   -1    0    0    0    0 -0.00000000000E+00 -0.00000000000E+00 -0.74505805969E-08  0.93827000000E+00  0.93827000000E+00 0.  1.
     999902    2    1    2    0    0 -0.94989499954E-02  0.20725187916E-01  0.60659443106E-02  0.10203384942E+01  0.10200657251E+01 0.  0.
     999903    2    3    3    0    0  0.53339123647E-01 -0.94839173126E-01  0.65572447819E-01  0.12857352012E+00  0.19795789792E-01 0.  0.
         14    1    1    2    0    0  0.94989499954E-02 -0.20725187916E-01 -0.60659443106E-02  0.23591505792E-01  0.00000000000E+00 0. -1.
     999901    1    3    3    0    0 -0.62838073642E-01  0.11556436104E+00 -0.59506503508E-01  0.89176497408E+00  0.88000000000E+00 0. -1.
        -11    1    4    4    0    0  0.26746463077E-01 -0.29141634356E-01  0.20200778709E-01  0.44417797351E-01  0.51100000000E-03 0. -1.
         11    1    4    4    0    0  0.26592660570E-01 -0.65697538770E-01  0.45371669110E-01  0.84155722773E-01  0.51100000000E-03 0.  1.
</event>
<event>
 8    1  0.1138737E+005  0.1043930E+01  0.7957747E-01            NaN
         13   -1    0    0    0    0  0.00000000000E+00  0.00000000000E+00  0.74505805969E-08  0.10566000000E+00  0.10566000000E+00 0. -1.
     999900   -1    0    0    0    0 -0.00000000000E+00 -0.00000000000E+00 -0.74505805969E-08  0.93827000000E+00  0.93827000000E+00 0.  1.
     999902    2    1    2    0    0 -0.26947718226E-02 -0.23645754163E-01 -0.35974901721E-02  0.10198608201E+01  0.10195767587E+01 0.  0.
     999903    2    3    3    0    0 -0.35468387714E-01  0.11666733101E+00 -0.32610181093E-01  0.12767047719E+00  0.19158658163E-01 0.  0.
         14    1    1    2    0    0  0.26947718226E-02  0.23645754163E-01  0.35974901721E-02  0.24069179892E-01  0.00000000000E+00 0. -1.
     999901    1    3    3    0    0  0.32773615891E-01 -0.14031308517E+00  0.29012690921E-01  0.89219034292E+00  0.88000000000E+00 0.  1.
        -11    1    4    4    0    0 -0.26226221132E-01  0.66581391655E-01 -0.26758310306E-01  0.76401339523E-01  0.51100000000E-03 0.  1.
         11    1    4    4    0    0 -0.92421665820E-02  0.50085939353E-01 -0.58518707870E-02  0.51269137663E-01  0.51100000000E-03 0. -1.
</event>
<event>
 8    1  0.1138737E+005  0.1043930E+01  0.7957747E-01            NaN
         13   -1    0    0    0    0  0.00000000000E+00  0.00000000000E+00  0.74505805969E-08  0.10566000000E+00  0.10566000000E+00 0.  1.
     999900   -1    0    0    0    0 -0.00000000000E+00 -0.00000000000E+00 -0.74505805969E-08  0.93827000000E+00  0.93827000000E+00 0.  1.
     999902    2    1    2    0    0  0.11614212882E-01  0.21891553364E-01 -0.46174666584E-02  0.10187218456E+01  0.10184099114E+01 0.  0.
     999903    2    3    3    0    0  0.99286968028E-01  0.66768474098E-01  0.50834887674E-01  0.13149278070E+00  0.19754351892E-01 0.  0.
         14    1    1    2    0    0 -0.11614212882E-01 -0.21891553364E-01  0.46174666584E-02  0.25208154393E-01  0.00000000000E+00 0. -1.
     999901    1    3    3    0    0 -0.87672755146E-01 -0.44876920734E-01 -0.55452354332E-01  0.88722906490E+00  0.88000000000E+00 0. -1.
        -11    1    4    4    0    0  0.55262913654E-01  0.40887169888E-01  0.19041615896E-01  0.71334385425E-01  0.51100000000E-03 0. -1.
         11    1    4    4    0    0  0.44024054374E-01  0.25881304209E-01  0.31793271778E-01  0.60158395278E-01  0.51100000000E-03 0.  1.
</event>
<event>
 8    1  0.1138737E+005  0.1043930E+01  0.7957747E-01            NaN
         13   -1    0    0    0    0  0.00000000000E+00  0.00000000000E+00  0.74505805969E-08  0.10566000000E+00  0.10566000000E+00 0.  1.
     999900   -1    0    0    0    0 -0.00000000000E+00 -0.00000000000E+00 -0.74505805969E-08  0.93827000000E+00  0.93827000000E+00 0.  1.
     999902    2    1    2    0    0  0.26868045549E-01 -0.96466660650E-02  0.54130109854E-02  0.10148740071E+01  0.10144579831E+01 0.  0.
     999903    2    3    3    0    0  0.44156195964E-01  0.85790914168E-01 -0.77914958348E-01  0.12563232881E+00  0.20072137701E-01 0.  0.
         14    1    1    2    0    0 -0.26868045549E-01  0.96466660650E-02 -0.54130109854E-02  0.29055992940E-01  0.00000000000E+00 0. -1.
     999901    1    3    3    0    0 -0.17288150414E-01 -0.95437580233E-01  0.83327969333E-01  0.88924167825E+00  0.88000000000E+00 0. -1.
        -11    1    4    4    0    0  0.23179831673E-01  0.25030162206E-01 -0.30383577766E-01  0.45686283886E-01  0.51100000000E-03 0. -1.
         11    1    4    4    0    0  0.20976364290E-01  0.60760751962E-01 -0.47531380582E-01  0.79946044923E-01  0.51100000000E-03 0.  1.
</event>
<event>
 8    1  0.1138737E+005  0.1043930E+01  0.7957747E-01            NaN
         13   -1    0    0    0    0  0.00000000000E+00  0.00000000000E+00  0.74505805969E-08  0.10566000000E+00  0.10566000000E+00 0. -1.
     999900   -1    0    0    0    0 -0.00000000000E+00 -0.00000000000E+00 -0.74505805969E-08  0.93827000000E+00  0.93827000000E+00 0.  1.
     999902    2    1    2    0    0  0.16724954619E-01 -0.53707156080E-02  0.95444827573E-02  0.10239383556E+01  0.10237431760E+01 0.  0.
     999903    2    3    3    0    0  0.97987708952E-01 -0.32968822404E-01  0.86644060366E-01  0.13640827975E+00  0.20285246638E-01 0.  0.
         14    1    1    2    0    0 -0.16724954619E-01  0.53707156080E-02 -0.95444827573E-02  0.19991644361E-01  0.00000000000E+00 0.  1.
     999901    1    3    3    0    0 -0.81262754333E-01  0.27598106796E-01 -0.77099577609E-01  0.88753007589E+00  0.88000000000E+00 0. -1.
        -11    1    4    4    0    0  0.59307242676E-01 -0.14452277016E-01  0.61698613384E-01  0.86793993798E-01  0.51100000000E-03 0.  1.
         11    1    4    4    0    0  0.38680466276E-01 -0.18516545388E-01  0.24945446982E-01  0.49614285952E-01  0.51100000000E-03 0. -1.
</event>
<event>
 8    1  0.1138737E+005  0.1043930E+01  0.7957747E-01            NaN
         13   -1    0    0    0    0  0.00000000000E+00  0.00000000000E+00  0.74505805969E-08  0.10566000000E+00  0.10566000000E+00 0.  1.
     999900   -1    0    0    0    0 -0.00000000000E+00 -0.00000000000E+00 -0.74505805969E-08  0.93827000000E+00  0.93827000000E+00 0. -1.
     999902    2    1    2    0    0  0.93437009671E-02  0.17651198989E-01 -0.12174229157E-01  0.10205402281E+01  0.10202721577E+01 0.  0.
     999903    2    3    3    0    0  0.11147196063E+00  0.68438197892E-01  0.11392953422E-01  0.13286635062E+00  0.20344109787E-01 0.  0.
         14    1    1    2    0    0 -0.93437009671E-02 -0.17651198989E-01  0.12174229157E-01  0.23389771890E-01  0.00000000000E+00 0. -1.
     999901    1    3    3    0    0 -0.10212825966E+00 -0.50786998902E-01 -0.23567182579E-01  0.88767387749E+00  0.88000000000E+00 0.  1.
        -11    1    4    4    0    0  0.32610092060E-02  0.61100767069E-02  0.33997821170E-02  0.77321961854E-02  0.51100000000E-03 0. -1.
         11    1    4    4    0    0  0.10821095142E+00  0.62328121185E-01  0.79931713055E-02  0.12513415444E+00  0.51100000000E-03 0.  1.
</event>
<event>
 8    1  0.1138737E+005  0.1043930E+01  0.7957747E-01            NaN
         13   -1    0    0    0    0  0.00000000000E+00  0.00000000000E+00  0.74505805969E-08  0.10566000000E+00  0.10566000000E+00 0.  1.
     999900   -1    0    0    0    0 -0.00000000000E+00 -0.00000000000E+00 -0.74505805969E-08  0.93827000000E+00  0.93827000000E+00 0.  1.
     999902    2    1    2    0    0 -0.81538752888E-02 -0.16904607857E-01  0.15185965879E-01  0.10197874026E+01  0.10195015849E+01 0.  0.
     999903    2    3    3    0    0  0.99107912522E-01  0.74908378681E-01 -0.22277843725E-01  0.12774578214E+00  0.19724071903E-01 0.  0.
         14    1    1    2    0    0  0.81538752888E-02  0.16904607857E-01 -0.15185965879E-01  0.24142597390E-01  0.00000000000E+00 0. -1.
     999901    1    3    3    0    0 -0.10726178781E+00 -0.91812986539E-01  0.37463809604E-01  0.89204162047E+00  0.88000000000E+00 0. -1.
        -11    1    4    4    0    0  0.17264456139E-01  0.22954405239E-01 -0.27693959694E-02  0.28859952195E-01  0.51100000000E-03 0. -1.
         11    1    4    4    0    0  0.81843456382E-01  0.51953973442E-01 -0.19508447755E-01  0.98885829945E-01  0.51100000000E-03 0.  1.
</event>
<event>
 8    1  0.1138737E+005  0.1043930E+01  0.7957747E-01            NaN
         13   -1    0    0    0    0  0.00000000000E+00  0.00000000000E+00  0.74505805969E-08  0.10566000000E+00  0.10566000000E+00 0.  1.
     999900   -1    0    0    0    0 -0.00000000000E+00 -0.00000000000E+00 -0.74505805969E-08  0.93827000000E+00  0.93827000000E+00 0.  1.
     999902    2    1    2    0    0  0.19091339328E-01  0.10503433983E-01 -0.72650895300E-02  0.10209608274E+01  0.10207024190E+01 0.  0.
     999903    2    3    3    0    0 -0.11018811649E+00  0.58007268848E-01 -0.31008490365E-01  0.12993134357E+00  0.20355915868E-01 0.  0.
         14    1    1    2    0    0 -0.19091339328E-01 -0.10503433983E-01  0.72650895300E-02  0.22969172572E-01  0.00000000000E+00 0.  1.
     999901    1    3    3    0    0  0.12927945582E+00 -0.47503834865E-01  0.23743400835E-01  0.89102948386E+00  0.88000000000E+00 0. -1.
        -11    1    4    4    0    0 -0.66375374913E-01  0.23758730546E-01 -0.15295489199E-01  0.72141394378E-01  0.51100000000E-03 0.  1.
         11    1    4    4    0    0 -0.43812741582E-01  0.34248538302E-01 -0.15713001166E-01  0.57789949190E-01  0.51100000000E-03 0. -1.
</event>
<event>
 8    1  0.1138737E+005  0.1043930E+01  0.7957747E-01            NaN
         13   -1    0    0    0    0  0.00000000000E+00  0.00000000000E+00  0.74505805969E-08  0.10566000000E+00  0.10566000000E+00 0. -1.
     999900   -1    0    0    0    0 -0.00000000000E+00 -0.00000000000E+00 -0.74505805969E-08  0.93827000000E+00  0.93827000000E+00 0.  1.
     999902    2    1    2    0    0 -0.11186693214E-01  0.14755681952E-01  0.14134348846E-01  0.10206351063E+01  0.10203692313E+01 0.  0.
     999903    2    3    3    0    0 -0.25229176571E-01 -0.10020822229E+00  0.78058995658E-01  0.13074733187E+00  0.17984961026E-01 0.  0.
         14    1    1    2    0    0  0.11186693214E-01 -0.14755681952E-01 -0.14134348846E-01  0.23294893695E-01  0.00000000000E+00 0.  1.
     999901    1    3    3    0    0  0.14042483357E-01  0.11496390424E+00 -0.63924646812E-01  0.88988777443E+00  0.88000000000E+00 0.  1.
        -11    1    4    4    0    0 -0.13900887505E-01 -0.62617611492E-01  0.58791081311E-01  0.87010644780E-01  0.51100000000E-03 0. -1.
         11    1    4    4    0    0 -0.11328289066E-01 -0.37590610798E-01  0.19267914348E-01  0.43736687091E-01  0.51100000000E-03 0.  1.
</event>
<event>
 8    1  0.1138737E+005  0.1043930E+01  0.7957747E-01            NaN
         13   -1    0    0    0    0  0.00000000000E+00  0.00000000000E+00  0.74505805969E-08  0.10566000000E+00  0.10566000000E+00 0.  1.
     999900   -1    0    0    0    0 -0.00000000000E+00 -0.00000000000E+00 -0.74505805969E-08  0.93827000000E+00  0.93827000000E+00 0.  1.
     999902    2    1    2    0    0 -0.17243119075E-01  0.61402883466E-02  0.16102859003E-01  0.10195511082E+01  0.10192595999E+01 0.  0.
     999903    2    3    3    0    0 -0.37571870235E-01 -0.37966662769E-01 -0.11500059737E+00  0.12851418556E+00  0.20919980426E-01 0.  0.
         14    1    1    2    0    0  0.17243119075E-01 -0.61402883466E-02 -0.16102859003E-01  0.24378891782E-01  0.00000000000E+00 0. -1.
     999901    1    3    3    0    0  0.20328751160E-01  0.44106951116E-01  0.13110345637E+00  0.89103692265E+00  0.88000000000E+00 0. -1.
        -11    1    4    4    0    0 -0.49203852107E-02 -0.65214364139E-02 -0.40385861972E-01  0.41207017507E-01  0.51100000000E-03 0.  1.
         11    1    4    4    0    0 -0.32651485025E-01 -0.31445226355E-01 -0.74614735397E-01  0.87307168058E-01  0.51100000000E-03 0. -1.
</event>
<event>
 7    1  0.1138737E+005  0.1043930E+01  0.7957747E-01            NaN
         13   -1    0    0    0    0  0.00000000000E+00  0.00000000000E+00  0.74505805969E-08  0.10566000000E+00  0.10566000000E+00 0.  1.
     999900   -1    0    0    0    0 -0.00000000000E+00 -0.00000000000E+00 -0.74505805969E-08  0.93827000000E+00  0.93827000000E+00 0.  1.
     999902    2    1    2    0    0  0.12289488811E-01 -0.19097343545E-01  0.95140389375E-02  0.10193077133E+01  0.10190102833E+01 0.  0.
         14    1    1    2    0    0 -0.12289488811E-01  0.19097343545E-01 -0.95140389375E-02  0.24622286706E-01  0.00000000000E+00 0.  1.
     999901    1    3    3    0    0  0.81436660187E-01 -0.14105699068E-01 -0.94574179815E-01  0.88891798039E+00  0.88000000000E+00 0.  1.
        -11    1    3    3    0    0 -0.35470316741E-01 -0.20936729766E-01  0.57488967637E-01  0.70722927993E-01  0.51100000000E-03 0.  1.
         11    1    3    3    0    0 -0.33676854636E-01  0.15945085289E-01  0.46599251115E-01  0.59666804913E-01  0.51100000000E-03 0. -1.
</event>
<event>
 8    1  0.1138737E+005  0.1043930E+01  0.7957747E-01            NaN
         13   -1    0    0    0    0  0.00000000000E+00  0.00000000000E+00  0.74505805969E-08  0.10566000000E+00  0.10566000000E+00 0. -1.
     999900   -1    0    0    0    0 -0.00000000000E+00 -0.00000000000E+00 -0.74505805969E-08  0.93827000000E+00  0.93827000000E+00 0.  1.
     999902    2    1    2    0    0 -0.13363937123E-01 -0.12765019501E-01 -0.14066658707E-01  0.10207047675E+01  0.10204404985E+01 0.  0.
     999903    2    3    3    0    0 -0.12641501606E-01 -0.11090335542E+00  0.64715003633E-01  0.13175133495E+00  0.26664972528E-01 0.  0.
         14    1    1    2    0    0  0.13363937123E-01  0.12765019501E-01  0.14066658707E-01  0.23225232517E-01  0.00000000000E+00 0. -1.
     999901    1    3    3    0    0 -0.72243551671E-03  0.98138335919E-01 -0.78781662340E-01  0.88895343253E+00  0.88000000000E+00 0.  1.
        -11    1    4    4    0    0  0.75576361442E-02 -0.29956630523E-01  0.12522884610E-01  0.33340685901E-01  0.51100000000E-03 0. -1.
         11    1    4    4    0    0 -0.20199137751E-01 -0.80946724896E-01  0.52192119023E-01  0.98410649050E-01  0.51100000000E-03 0.  1.
</event>
<event>
 8    1  0.1138737E+005  0.1043930E+01  0.7957747E-01            NaN
         13   -1    0    0    0    0  0.00000000000E+00  0.00000000000E+00  0.74505805969E-08  0.10566000000E+00  0.10566000000E+00 0.  1.
     999900   -1    0    0    0    0 -0.00000000000E+00 -0.00000000000E+00 -0.74505805969E-08  0.93827000000E+00  0.93827000000E+00 0.  1.
     999902    2    1    2    0    0 -0.31021866815E-02 -0.16001392173E-01  0.17428088275E-01  0.10200677626E+01  0.10197886222E+01 0.  0.
     999903    2    3    3    0    0  0.90507405379E-01  0.49631371547E-01  0.77391490203E-01  0.13064883712E+00  0.20610978018E-01 0.  0.
         14    1    1    2    0    0  0.31021866815E-02  0.16001392173E-01 -0.17428088275E-01  0.23862237418E-01  0.00000000000E+00 0. -1.
     999901    1    3    3    0    0 -0.93609592061E-01 -0.65632763720E-01 -0.59963401928E-01  0.88941892546E+00  0.88000000000E+00 0.  1.
        -11    1    4    4    0    0  0.52346652046E-01  0.17077622026E-01  0.38851492936E-01  0.67390776660E-01  0.51100000000E-03 0. -1.
         11    1    4    4    0    0  0.38160753333E-01  0.32553749521E-01  0.38539997267E-01  0.63258060460E-01  0.51100000000E-03 0.  1.
</event>
<event>
 8    1  0.1138737E+005  0.1043930E+01  0.7957747E-01            NaN
         13   -1    0    0    0    0  0.00000000000E+00  0.00000000000E+00  0.74505805969E-08  0.10566000000E+00  0.10566000000E+00 0.  1.
     999900   -1    0    0    0    0 -0.00000000000E+00 -0.00000000000E+00 -0.74505805969E-08  0.93827000000E+00  0.93827000000E+00 0.  1.
     999902    2    1    2    0    0  0.10736363150E-01  0.19414555030E-01  0.70388499066E-02  0.10206546944E+01  0.10203892715E+01 0.  0.
     999903    2    3    3    0    0  0.75838132089E-01 -0.96047555604E-01 -0.37975776744E-01  0.12959013117E+00  0.19362005604E-01 0.  0.
         14    1    1    2    0    0 -0.10736363150E-01 -0.19414555030E-01 -0.70388499066E-02  0.23275305556E-01  0.00000000000E+00 0. -1.
     999901    1    3    3    0    0 -0.65101768938E-01  0.11546211063E+00  0.45014626650E-01  0.89106456327E+00  0.88000000000E+00 0.  1.
        -11    1    4    4    0    0  0.46967729549E-01 -0.45942237678E-01 -0.25169167244E-01  0.70359113999E-01  0.51100000000E-03 0. -1.
         11    1    4    4    0    0  0.28870402539E-01 -0.50105317925E-01 -0.12806609499E-01  0.59231017171E-01  0.51100000000E-03 0.  1.
</event>
<event>
 8    1  0.1138737E+005  0.1043930E+01  0.7957747E-01            NaN
         13   -1    0    0    0    0  0.00000000000E+00  0.00000000000E+00  0.74505805969E-08  0.10566000000E+00  0.10566000000E+00 0.  1.
     999900   -1    0    0    0    0 -0.00000000000E+00 -0.00000000000E+00 -0.74505805969E-08  0.93827000000E+00  0.93827000000E+00 0. -1.
     999902    2    1    2    0    0 -0.32122462699E-02 -0.34558535095E-02  0.14048900405E-01  0.10291099780E+01  0.10290032623E+01 0.  0.
     999903    2    3    3    0    0  0.90339962520E-01  0.19815633072E-01  0.10235415339E+00  0.13945195630E+00  0.20408509467E-01 0.  0.
         14    1    1    2    0    0  0.32122462699E-02  0.34558535095E-02 -0.14048900405E-01  0.14820022003E-01  0.00000000000E+00 0. -1.
     999901    1    3    3    0    0 -0.93552208790E-01 -0.23271486581E-01 -0.88305252986E-01  0.88965802169E+00  0.88000000000E+00 0. -1.
        -11    1    4    4    0    0  0.72917931404E-01  0.75573978837E-02  0.76655207572E-01  0.10606800155E+00  0.51100000000E-03 0.  1.
         11    1    4    4    0    0  0.17422031116E-01  0.12258235188E-01  0.25698945819E-01  0.33383954758E-01  0.51100000000E-03 0. -1.
</event>
<event>
 8    1  0.1138737E+005  0.1043930E+01  0.7957747E-01            NaN
         13   -1    0    0    0    0  0.00000000000E+00  0.00000000000E+00  0.74505805969E-08  0.10566000000E+00  0.10566000000E+00 0.  1.
     999900   -1    0    0    0    0 -0.00000000000E+00 -0.00000000000E+00 -0.74505805969E-08  0.93827000000E+00  0.93827000000E+00 0.  1.
     999902    2    1    2    0    0  0.13477717403E-02  0.16303171756E-01  0.13656634113E-01  0.10226200598E+01  0.10223980013E+01 0.  0.
     999903    2    3    3    0    0  0.92477250132E-01  0.95136817750E-01  0.42906156924E-02  0.13435937287E+00  0.20759956892E-01 0.  0.
         14    1    1    2    0    0 -0.13477717403E-02 -0.16303171756E-01 -0.13656634113E-01  0.21309940245E-01  0.00000000000E+00 0.  1.
     999901    1    3    3    0    0 -0.91129478391E-01 -0.78833645994E-01  0.93660184202E-02  0.88826068689E+00  0.88000000000E+00 0. -1.
        -11    1    4    4    0    0  0.31216017322E-01  0.45390445318E-01 -0.25245810922E-02  0.55148589232E-01  0.51100000000E-03 0. -1.
         11    1    4    4    0    0  0.61261232810E-01  0.49746372432E-01  0.68151967846E-02  0.79210783633E-01  0.51100000000E-03 0.  1.
</event>
<event>
 8    1  0.1138737E+005  0.1043930E+01  0.7957747E-01            NaN
         13   -1    0    0    0    0  0.00000000000E+00  0.00000000000E+00  0.74505805969E-08  0.10566000000E+00  0.10566000000E+00 0.  1.
     999900   -1    0    0    0    0 -0.00000000000E+00 -0.00000000000E+00 -0.74505805969E-08  0.93827000000E+00  0.93827000000E+00 0. -1.
     999902    2    1    2    0    0 -0.12374628951E-01  0.18095540979E-01 -0.92826715988E-02  0.10201235295E+01  0.10198457077E+01 0.  0.
     999903    2    3    3    0    0  0.10709555890E+00 -0.64439177770E-01 -0.20615016725E-01  0.12815182165E+00  0.19391856824E-01 0.  0.
         14    1    1    2    0    0  0.12374628951E-01 -0.18095540979E-01  0.92826715988E-02  0.23806470486E-01  0.00000000000E+00 0. -1.
     999901    1    3    3    0    0 -0.11947018785E+00  0.82534718749E-01  0.11332345126E-01  0.89197170786E+00  0.88000000000E+00 0.  1.
        -11    1    4    4    0    0  0.71584834527E-01 -0.50805346675E-01 -0.83362751653E-02  0.88177811209E-01  0.51100000000E-03 0. -1.
         11    1    4    4    0    0  0.35510724368E-01 -0.13633831095E-01 -0.12278741560E-01  0.39974010442E-01  0.51100000000E-03 0.  1.
</event>
<event>
 8    1  0.1138737E+005  0.1043930E+01  0.7957747E-01            NaN
         13   -1    0    0    0    0  0.00000000000E+00  0.00000000000E+00  0.74505805969E-08  0.10566000000E+00  0.10566000000E+00 0. -1.
     999900   -1    0    0    0    0 -0.00000000000E+00 -0.00000000000E+00 -0.74505805969E-08  0.93827000000E+00  0.93827000000E+00 0.  1.
     999902    2    1    2    0    0 -0.10117256579E-01 -0.16860813899E-01  0.13561563411E-01  0.10200435618E+01  0.10197638482E+01 0.  0.
     999903    2    3    3    0    0 -0.49045122467E-01 -0.10813898843E+00  0.57342168812E-01  0.13338476314E+00  0.20097409226E-01 0.  0.
         14    1    1    2    0    0  0.10117256579E-01  0.16860813899E-01 -0.13561563411E-01  0.23886438164E-01  0.00000000000E+00 0.  1.
     999901    1    3    3    0    0  0.38927865889E-01  0.91278174535E-01 -0.43780605401E-01  0.88665879869E+00  0.88000000000E+00 0.  1.
        -11    1    4    4    0    0 -0.25790854279E-01 -0.37151225840E-01  0.15798095870E-01  0.47908482547E-01  0.51100000000E-03 0.  1.
         11    1    4    4    0    0 -0.23254268188E-01 -0.70987762594E-01  0.41544072941E-01  0.85476280597E-01  0.51100000000E-03 0. -1.
</event>
<event>
 8    1  0.1138737E+005  0.1043930E+01  0.7957747E-01            NaN
         13   -1    0    0    0    0  0.00000000000E+00  0.00000000000E+00  0.74505805969E-08  0.10566000000E+00  0.10566000000E+00 0. -1.
     999900   -1    0    0    0    0 -0.00000000000E+00 -0.00000000000E+00 -0.74505805969E-08  0.93827000000E+00  0.93827000000E+00 0.  1.
     999902    2    1    2    0    0 -0.27465209656E-01  0.27308511353E-02 -0.12990802983E-01  0.10134249799E+01  0.10129657613E+01 0.  0.
     999903    2    3    3    0    0 -0.17199157402E-01  0.12190552682E+00  0.85123091328E-02  0.12507235904E+00  0.20343723977E-01 0.  0.
         14    1    1    2    0    0  0.27465209656E-01 -0.27308511353E-02  0.12990802983E-01  0.30505020103E-01  0.00000000000E+00 0. -1.
     999901    1    3    3    0    0 -0.10266052254E-01 -0.11917467568E+00 -0.21503112115E-01  0.88835262086E+00  0.88000000000E+00 0.  1.
        -11    1    4    4    0    0 -0.20389199046E-01  0.10456676589E+00  0.29472105526E-02  0.10657802371E+00  0.51100000000E-03 0. -1.
         11    1    4    4    0    0  0.31900416440E-02  0.17338760925E-01  0.55650985802E-02  0.18494335330E-01  0.51100000000E-03 0.  1.
</event>
<event>
 8    1  0.1138737E+005  0.1043930E+01  0.7957747E-01            NaN
         13   -1    0    0    0    0  0.00000000000E+00  0.00000000000E+00  0.74505805969E-08  0.10566000000E+00  0.10566000000E+00 0.  1.
     999900   -1    0    0    0    0 -0.00000000000E+00 -0.00000000000E+00 -0.74505805969E-08  0.93827000000E+00  0.93827000000E+00 0.  1.
     999902    2    1    2    0    0 -0.17685966417E-01  0.15406649691E-01  0.33309347583E-02  0.10202392130E+01  0.10199641162E+01 0.  0.
     999903    2    3    3    0    0  0.93110624656E-01  0.65985060100E-01 -0.58295843495E-01  0.12971581633E+00  0.20104006023E-01 0.  0.
         14    1    1    2    0    0  0.17685966417E-01 -0.15406649691E-01 -0.33309347583E-02  0.23690787010E-01  0.00000000000E+00 0. -1.
     999901    1    3    3    0    0 -0.11079659107E+00 -0.50578410409E-01  0.61626778253E-01  0.89052339666E+00  0.88000000000E+00 0.  1.
        -11    1    4    4    0    0  0.74673703403E-01  0.54497200752E-01 -0.55450309977E-01  0.10780122851E+00  0.51100000000E-03 0.  1.
         11    1    4    4    0    0  0.18436921253E-01  0.11487859348E-01 -0.28455335175E-02  0.21914587829E-01  0.51100000000E-03 0. -1.
</event>
<event>
 8    1  0.1138737E+005  0.1043930E+01  0.7957747E-01            NaN
         13   -1    0    0    0    0  0.00000000000E+00  0.00000000000E+00  0.74505805969E-08  0.10566000000E+00  0.10566000000E+00 0.  1.
     999900   -1    0    0    0    0 -0.00000000000E+00 -0.00000000000E+00 -0.74505805969E-08  0.93827000000E+00  0.93827000000E+00 0.  1.
     999902    2    1    2    0    0  0.13848639937E-01  0.71046431390E-03  0.18115732531E-01  0.10211162026E+01  0.10208613176E+01 0.  0.
     999903    2    3    3    0    0 -0.49663111925E-01 -0.10929472295E-01 -0.11632186328E+00  0.12856777369E+00  0.20322856671E-01 0.  0.
         14    1    1    2    0    0 -0.13848639937E-01 -0.71046431390E-03 -0.18115732531E-01  0.22813797421E-01  0.00000000000E+00 0. -1.
     999901    1    3    3    0    0  0.63511751862E-01  0.11639936609E-01  0.13443759581E+00  0.89254842889E+00  0.88000000000E+00 0. -1.
        -11    1    4    4    0    0 -0.31162639975E-01 -0.14950172321E-01 -0.87497214123E-01  0.94077847461E-01  0.51100000000E-03 0.  1.
         11    1    4    4    0    0 -0.18500471950E-01  0.40207000257E-02 -0.28824649157E-01  0.34489926227E-01  0.51100000000E-03 0. -1.
</event>
<event>
 8    1  0.1138737E+005  0.1043930E+01  0.7957747E-01            NaN
         13   -1    0    0    0    0  0.00000000000E+00  0.00000000000E+00  0.74505805969E-08  0.10566000000E+00  0.10566000000E+00 0. -1.
     999900   -1    0    0    0    0 -0.00000000000E+00 -0.00000000000E+00 -0.74505805969E-08  0.93827000000E+00  0.93827000000E+00 0.  1.
     999902    2    1    2    0    0  0.61465133710E-02  0.22855017857E-01  0.17365047115E-02  0.10201992833E+01  0.10199232474E+01 0.  0.
     999903    2    3    3    0    0  0.12426279857E-01  0.36626403740E-01  0.12379825587E+00  0.13164531326E+00  0.22551595606E-01 0.  0.
         14    1    1    2    0    0 -0.61465133710E-02 -0.22855017857E-01 -0.17365047115E-02  0.23730716729E-01  0.00000000000E+00 0. -1.
     999901    1    3    3    0    0 -0.62797664856E-02 -0.13771385883E-01 -0.12206175116E+00  0.88855397002E+00  0.88000000000E+00 0.  1.
        -11    1    4    4    0    0 -0.19026436816E-02  0.25309268072E-01  0.57056001606E-01  0.62448599212E-01  0.51100000000E-03 0. -1.
         11    1    4    4    0    0  0.14328923538E-01  0.11317135668E-01  0.66742254261E-01  0.69196714043E-01  0.51100000000E-03 0.  1.
</event>
<event>
 8    1  0.1138737E+005  0.1043930E+01  0.7957747E-01            NaN
         13   -1    0    0    0    0  0.00000000000E+00  0.00000000000E+00  0.74505805969E-08  0.10566000000E+00  0.10566000000E+00 0.  1.
     999900   -1    0    0    0    0 -0.00000000000E+00 -0.00000000000E+00 -0.74505805969E-08  0.93827000000E+00  0.93827000000E+00 0.  1.
     999902    2    1    2    0    0  0.17222865764E-01 -0.12272291611E-01 -0.10481631873E-01  0.10203270160E+01  0.10200539783E+01 0.  0.
     999903    2    3    3    0    0  0.12325350065E+00  0.43319287796E-01  0.12637649865E-02  0.13214298464E+00  0.19803665559E-01 0.  0.
         14    1    1    2    0    0 -0.17222865764E-01  0.12272291611E-01  0.10481631873E-01  0.23602983990E-01  0.00000000000E+00 0.  1.
     999901    1    3    3    0    0 -0.10603063489E+00 -0.55591579407E-01 -0.11745396859E-01  0.88818403137E+00  0.88000000000E+00 0.  1.
        -11    1    4    4    0    0  0.40678624505E-01  0.10367212188E-01  0.88732458033E-02  0.42909500024E-01  0.51100000000E-03 0.  1.
         11    1    4    4    0    0  0.82574876145E-01  0.32952075609E-01 -0.76094808168E-02  0.89233484615E-01  0.51100000000E-03 0. -1.
</event>
<event>
 8    1  0.1138737E+005  0.1043930E+01  0.7957747E-01            NaN
         13   -1    0    0    0    0  0.00000000000E+00  0.00000000000E+00  0.74505805969E-08  0.10566000000E+00  0.10566000000E+00 0. -1.
     999900   -1    0    0    0    0 -0.00000000000E+00 -0.00000000000E+00 -0.74505805969E-08  0.93827000000E+00  0.93827000000E+00 0.  1.
     999902    2    1    2    0    0  0.71000033335E-02  0.86670653906E-02  0.21123613508E-01  0.10200190168E+01  0.10197387212E+01 0.  0.
     999903    2    3    3    0    0  0.13812194868E-02 -0.12517764821E+00  0.28206936957E-01  0.12985201825E+00  0.19863634412E-01 0.  0.
         14    1    1    2    0    0 -0.71000033335E-02 -0.86670653906E-02 -0.21123613508E-01  0.23910983197E-01  0.00000000000E+00 0.  1.
     999901    1    3    3    0    0  0.57187838467E-02  0.13384471360E+00 -0.70833234486E-02  0.89016699856E+00  0.88000000000E+00 0. -1.
        -11    1    4    4    0    0  0.14489967057E-02 -0.43936878893E-01  0.34594266470E-03  0.43965096561E-01  0.51100000000E-03 0.  1.
         11    1    4    4    0    0 -0.67777218894E-04 -0.81240769315E-01  0.27860994292E-01  0.85886921686E-01  0.51100000000E-03 0. -1.
</event>
<event>
 8    1  0.1138737E+005  0.1043930E+01  0.7957747E-01            NaN
         13   -1    0    0    0    0  0.00000000000E+00  0.00000000000E+00  0.74505805969E-08  0.10566000000E+00  0.10566000000E+00 0.  1.
     999900   -1    0    0    0    0 -0.00000000000E+00 -0.00000000000E+00 -0.74505805969E-08  0.93827000000E+00  0.93827000000E+00 0. -1.
     999902    2    1    2    0    0 -0.10074569754E-01 -0.18653711200E-01  0.10586230306E-01  0.10202334566E+01  0.10199582245E+01 0.  0.
     999903    2    3    3    0    0 -0.64517725992E-01  0.59413474605E-01  0.95408195103E-01  0.13104657608E+00  0.19441797210E-01 0.  0.
         14    1    1    2    0    0  0.10074569754E-01  0.18653711200E-01 -0.10586230306E-01  0.23696543405E-01  0.00000000000E+00 0. -1.
     999901    1    3    3    0    0  0.54443156238E-01 -0.78067185805E-01 -0.84821964797E-01  0.88918688051E+00  0.88000000000E+00 0. -1.
        -11    1    4    4    0    0 -0.21328199341E-01  0.32524573498E-01  0.38970007187E-01  0.55060535318E-01  0.51100000000E-03 0. -1.
         11    1    4    4    0    0 -0.43189526651E-01  0.26888901107E-01  0.56438187916E-01  0.75986040766E-01  0.51100000000E-03 0.  1.
</event>
<event>
 8    1  0.1138737E+005  0.1043930E+01  0.7957747E-01            NaN
         13   -1    0    0    0    0  0.00000000000E+00  0.00000000000E+00  0.74505805969E-08  0.10566000000E+00  0.10566000000E+00 0. -1.
     999900   -1    0    0    0    0 -0.00000000000E+00 -0.00000000000E+00 -0.74505805969E-08  0.93827000000E+00  0.93827000000E+00 0.  1.
     999902    2    1    2    0    0 -0.19622402388E-02  0.93209038055E-03 -0.22870656882E-01  0.10209564037E+01  0.10206978947E+01 0.  0.
     999903    2    3    3    0    0 -0.19388944698E-01 -0.45308753486E-01 -0.12285435403E+00  0.13391714566E+00  0.20292739570E-01 0.  0.
         14    1    1    2    0    0  0.19622402388E-02 -0.93209038055E-03  0.22870656882E-01  0.22973596267E-01  0.00000000000E+00 0. -1.
     999901    1    3    3    0    0  0.17426704459E-01  0.46240843866E-01  0.99983697144E-01  0.88703925807E+00  0.88000000000E+00 0. -1.
        -11    1    4    4    0    0  0.80519557258E-03 -0.13867112613E-01 -0.51820040515E-01  0.53651867369E-01  0.51100000000E-03 0.  1.
         11    1    4    4    0    0 -0.20194140271E-01 -0.31441640873E-01 -0.71034313511E-01  0.80265278290E-01  0.51100000000E-03 0. -1.
</event>
<event>
 8    1  0.1138737E+005  0.1043930E+01  0.7957747E-01            NaN
         13   -1    0    0    0    0  0.00000000000E+00  0.00000000000E+00  0.74505805969E-08  0.10566000000E+00  0.10566000000E+00 0. -1.
     999900   -1    0    0    0    0 -0.00000000000E+00 -0.00000000000E+00 -0.74505805969E-08  0.93827000000E+00  0.93827000000E+00 0.  1.
     999902    2    1    2    0    0 -0.16607066790E-01 -0.71018014721E-02 -0.14802972726E-01  0.10205770933E+01  0.10203098770E+01 0.  0.
     999903    2    3    3    0    0 -0.62141942883E-01 -0.11525123797E+00 -0.14992019966E-01  0.13278783826E+00  0.16228999024E-01 0.  0.
         14    1    1    2    0    0  0.16607066790E-01  0.71018014721E-02  0.14802972726E-01  0.23352906736E-01  0.00000000000E+00 0. -1.
     999901    1    3    3    0    0  0.45534876093E-01  0.10814943650E+00  0.18904724001E-03  0.88778925500E+00  0.88000000000E+00 0.  1.
        -11    1    4    4    0    0 -0.44579603596E-01 -0.73776604078E-01 -0.33546544998E-02  0.86266118458E-01  0.51100000000E-03 0. -1.
         11    1    4    4    0    0 -0.17562339287E-01 -0.41474633891E-01 -0.11637365466E-01  0.46521719805E-01  0.51100000000E-03 0.  1.
</event>
<event>
 8    1  0.1138737E+005  0.1043930E+01  0.7957747E-01            NaN
         13   -1    0    0    0    0  0.00000000000E+00  0.00000000000E+00  0.74505805969E-08  0.10566000000E+00  0.10566000000E+00 0.  1.
     999900   -1    0    0    0    0 -0.00000000000E+00 -0.00000000000E+00 -0.74505805969E-08  0.93827000000E+00  0.93827000000E+00 0.  1.
     999902    2    1    2    0    0  0.12314441891E-01  0.33825810927E-02 -0.20308658422E-01  0.10199398157E+01  0.10196576380E+01 0.  0.
     999903    2    3    3    0    0  0.70852906205E-01  0.87689584096E-01  0.61987624367E-01  0.13016057305E+00  0.19741117637E-01 0.  0.
         14    1    1    2    0    0 -0.12314441891E-01 -0.33825810927E-02  0.20308658422E-01  0.23990184260E-01  0.00000000000E+00 0.  1.
     999901    1    3    3    0    0 -0.58538464314E-01 -0.84307003003E-01 -0.82296282789E-01  0.88977924269E+00  0.88000000000E+00 0.  1.
        -11    1    4    4    0    0  0.39015586795E-01  0.38308781427E-01  0.38539802857E-01  0.66898103655E-01  0.51100000000E-03 0. -1.
         11    1    4    4    0    0  0.31837319411E-01  0.49380802669E-01  0.23447821510E-01  0.63262469396E-01  0.51100000000E-03 0.  1.
</event>
<event>
 8    1  0.1138737E+005  0.1043930E+01  0.7957747E-01            NaN
         13   -1    0    0    0    0  0.00000000000E+00  0.00000000000E+00  0.74505805969E-08  0.10566000000E+00  0.10566000000E+00 0.  1.
     999900   -1    0    0    0    0 -0.00000000000E+00 -0.00000000000E+00 -0.74505805969E-08  0.93827000000E+00  0.93827000000E+00 0.  1.
     999902    2    1    2    0    0  0.13619977466E-01  0.13575416012E-01 -0.13237752601E-01  0.10205840410E+01  0.10203169856E+01 0.  0.
     999903    2    3    3    0    0  0.74818661212E-01  0.42592225450E-01 -0.10034381597E+00  0.13369356279E+00  0.19828201976E-01 0.  0.
         14    1    1    2    0    0 -0.13619977466E-01 -0.13575416012E-01  0.13237752601E-01  0.23345958965E-01  0.00000000000E+00 0. -1.
     999901    1    3    3    0    0 -0.61198683746E-01 -0.29016809438E-01  0.87106063372E-01  0.88689047824E+00  0.88000000000E+00 0. -1.
        -11    1    4    4    0    0  0.22394118424E-01  0.23013970347E-01 -0.31663879039E-01  0.45099908292E-01  0.51100000000E-03 0. -1.
         11    1    4    4    0    0  0.52424542789E-01  0.19578255102E-01 -0.68679936933E-01  0.88593654500E-01  0.51100000000E-03 0.  1.
</event>
<event>
 8    1  0.1138737E+005  0.1043930E+01  0.7957747E-01            NaN
         13   -1    0    0    0    0  0.00000000000E+00  0.00000000000E+00  0.74505805969E-08  0.10566000000E+00  0.10566000000E+00 0.  1.
     999900   -1    0    0    0    0 -0.00000000000E+00 -0.00000000000E+00 -0.74505805969E-08  0.93827000000E+00  0.93827000000E+00 0.  1.
     999902    2    1    2    0    0 -0.12408103828E-01  0.11569512416E-02 -0.20364661567E-01  0.10200549290E+01  0.10197754846E+01 0.  0.
     999903    2    3    3    0    0  0.10575638969E+00  0.46318096919E-01 -0.57141452506E-01  0.13024882144E+00  0.19230960193E-01 0.  0.
         14    1    1    2    0    0  0.12408103828E-01 -0.11569512416E-02  0.20364661567E-01  0.23875071047E-01  0.00000000000E+00 0.  1.
     999901    1    3    3    0    0 -0.11816449352E+00 -0.45161145677E-01  0.36776790939E-01  0.88980610751E+00  0.88000000000E+00 0. -1.
        -11    1    4    4    0    0  0.41846799444E-01  0.26057030433E-01 -0.31294555178E-01  0.58392925629E-01  0.51100000000E-03 0. -1.
         11    1    4    4    0    0  0.63909590249E-01  0.20261066486E-01 -0.25846897328E-01  0.71855895815E-01  0.51100000000E-03 0.  1.
</event>
<event>
 7    1  0.1138737E+005  0.1043930E+01  0.7957747E-01            NaN
         13   -1    0    0    0    0  0.00000000000E+00  0.00000000000E+00  0.74505805969E-08  0.10566000000E+00  0.10566000000E+00 0.  1.
     999900   -1    0    0    0    0 -0.00000000000E+00 -0.00000000000E+00 -0.74505805969E-08  0.93827000000E+00  0.93827000000E+00 0.  1.
     999903    2    1    2    0    0 -0.52560316818E-02  0.10460338955E+00  0.30762577178E-01  0.11094609838E+00  0.19829412951E-01 0.  0.
         14    1    1    2    0    0  0.21857218358E-01 -0.36867392469E-01  0.22902659006E-01  0.48595003975E-01  0.00000000000E+00 0.  1.
     999901    1    1    2    0    0 -0.16601186676E-01 -0.67735997078E-01 -0.53665236183E-01  0.88438889764E+00  0.88000000000E+00 0.  1.
        -11    1    3    3    0    0 -0.82084046188E-02  0.99417026363E-01  0.32128270676E-01  0.10480271912E+00  0.51100000000E-03 0.  1.
         11    1    3    3    0    0  0.29523729370E-02  0.51863631837E-02 -0.13656934986E-02  0.61433792626E-02  0.51100000000E-03 0. -1.
</event>
<event>
 8    1  0.1138737E+005  0.1043930E+01  0.7957747E-01            NaN
         13   -1    0    0    0    0  0.00000000000E+00  0.00000000000E+00  0.74505805969E-08  0.10566000000E+00  0.10566000000E+00 0.  1.
     999900   -1    0    0    0    0 -0.00000000000E+00 -0.00000000000E+00 -0.74505805969E-08  0.93827000000E+00  0.93827000000E+00 0.  1.
     999902    2    1    2    0    0 -0.12324812090E-01  0.15527872523E-02 -0.18848818399E-01  0.10213558977E+01  0.10211063997E+01 0.  0.
     999903    2    3    3    0    0  0.63924404113E-01  0.43784967017E-02  0.10970813430E+00  0.12874802312E+00  0.20848934089E-01 0.  0.
         14    1    1    2    0    0  0.12324812090E-01 -0.15527872523E-02  0.18848818399E-01  0.22574102337E-01  0.00000000000E+00 0.  1.
     999901    1    3    3    0    0 -0.76249216203E-01 -0.28257094495E-02 -0.12855695269E+00  0.89260787454E+00  0.88000000000E+00 0.  1.
        -11    1    4    4    0    0  0.27094149062E-01  0.89724628183E-02  0.33734318470E-01  0.44191213675E-01  0.51100000000E-03 0. -1.
         11    1    4    4    0    0  0.36830255051E-01 -0.45939661165E-02  0.75973815826E-01  0.84556809448E-01  0.51100000000E-03 0.  1.
</event>
<event>
 8    1  0.1138737E+005  0.1043930E+01  0.7957747E-01            NaN
         13   -1    0    0    0    0  0.00000000000E+00  0.00000000000E+00  0.74505805969E-08  0.10566000000E+00  0.10566000000E+00 0. -1.
     999900   -1    0    0    0    0 -0.00000000000E+00 -0.00000000000E+00 -0.74505805969E-08  0.93827000000E+00  0.93827000000E+00 0. -1.
     999902    2    1    2    0    0  0.92892348571E-02 -0.22540808845E-01 -0.53400279197E-02  0.10189721586E+01  0.10186664647E+01 0.  0.
     999903    2    3    3    0    0 -0.11586567356E+00  0.27939310955E-02  0.50912083048E-01  0.12797838753E+00  0.18808697868E-01 0.  0.
         14    1    1    2    0    0 -0.92892348571E-02  0.22540808845E-01  0.53400279197E-02  0.24957841369E-01  0.00000000000E+00 0. -1.
     999901    1    3    3    0    0  0.12515490841E+00 -0.25334739941E-01 -0.56252110968E-01  0.89099377110E+00  0.88000000000E+00 0. -1.
        -11    1    4    4    0    0 -0.11005259606E+00  0.55862162828E-02  0.44414380635E-01  0.11880941899E+00  0.51100000000E-03 0.  1.
         11    1    4    4    0    0 -0.58130774987E-02 -0.27922851873E-02  0.64977024133E-02  0.91689685475E-02  0.51100000000E-03 0. -1.
</event>
<event>
 8    1  0.1138737E+005  0.1043930E+01  0.7957747E-01            NaN
         13   -1    0    0    0    0  0.00000000000E+00  0.00000000000E+00  0.74505805969E-08  0.10566000000E+00  0.10566000000E+00 0.  1.
     999900   -1    0    0    0    0 -0.00000000000E+00 -0.00000000000E+00 -0.74505805969E-08  0.93827000000E+00  0.93827000000E+00 0. -1.
     999902    2    1    2    0    0 -0.12979270176E-01 -0.16057136629E-01 -0.15629617546E-01  0.10180344785E+01  0.10177050758E+01 0.  0.
     999903    2    3    3    0    0  0.11061557845E+00  0.19580839990E-01  0.53458782556E-01  0.12600367237E+00  0.19996712965E-01 0.  0.
         14    1    1    2    0    0  0.12979270176E-01  0.16057136629E-01  0.15629617546E-01  0.25895521536E-01  0.00000000000E+00 0. -1.
     999901    1    3    3    0    0 -0.12359484862E+00 -0.35637976619E-01 -0.69088400102E-01  0.89203080609E+00  0.88000000000E+00 0.  1.
        -11    1    4    4    0    0  0.67862227509E-01  0.93088827558E-02  0.22034387136E-01  0.71956323962E-01  0.51100000000E-03 0.  1.
         11    1    4    4    0    0  0.42753350938E-01  0.10271957234E-01  0.31424395420E-01  0.54047348412E-01  0.51100000000E-03 0. -1.
</event>
<event>
 8    1  0.1138737E+005  0.1043930E+01  0.7957747E-01            NaN
         13   -1    0    0    0    0  0.00000000000E+00  0.00000000000E+00  0.74505805969E-08  0.10566000000E+00  0.10566000000E+00 0. -1.
     999900   -1    0    0    0    0 -0.00000000000E+00 -0.00000000000E+00 -0.74505805969E-08  0.93827000000E+00  0.93827000000E+00 0. -1.
     999902    2    1    2    0    0  0.10331645668E-01 -0.14328654388E-01 -0.17561629547E-01  0.10190208838E+01  0.10187163970E+01 0.  0.
     999903    2    3    3    0    0 -0.10622257991E+00  0.55367264694E-01 -0.41589632168E-01  0.12827975778E+00  0.19422365175E-01 0.  0.
         14    1    1    2    0    0 -0.10331645668E-01  0.14328654388E-01  0.17561629547E-01  0.24909116225E-01  0.00000000000E+00 0.  1.
     999901    1    3    3    0    0  0.11655422558E+00 -0.69695919082E-01  0.24028002621E-01  0.89074112600E+00  0.88000000000E+00 0. -1.
        -11    1    4    4    0    0 -0.34728732061E-01  0.14419672447E-01 -0.22081478834E-01  0.43610372763E-01  0.51100000000E-03 0.  1.
         11    1    4    4    0    0 -0.71493847848E-01  0.40947592247E-01 -0.19508153334E-01  0.84669385013E-01  0.51100000000E-03 0. -1.
</event>
<event>
 8    1  0.1138737E+005  0.1043930E+01  0.7957747E-01            NaN
         13   -1    0    0    0    0  0.00000000000E+00  0.00000000000E+00  0.74505805969E-08  0.10566000000E+00  0.10566000000E+00 0. -1.
     999900   -1    0    0    0    0 -0.00000000000E+00 -0.00000000000E+00 -0.74505805969E-08  0.93827000000E+00  0.93827000000E+00 0. -1.
     999902    2    1    2    0    0  0.19085491034E-02  0.21902796031E-01  0.88131598749E-02  0.10202435731E+01  0.10199685787E+01 0.  0.
     999903    2    3    3    0    0 -0.50589840545E-01 -0.73393456054E-01 -0.89654436517E-01  0.12809261941E+00  0.20588098568E-01 0.  0.
         14    1    1    2    0    0 -0.19085491034E-02 -0.21902796031E-01 -0.88131598749E-02  0.23686426928E-01  0.00000000000E+00 0.  1.
     999901    1    3    3    0    0  0.52498389649E-01  0.95296252085E-01  0.98467596392E-01  0.89215095366E+00  0.88000000000E+00 0.  1.
        -11    1    4    4    0    0 -0.10994803655E-01 -0.30464961468E-01 -0.39714373691E-01  0.51249313979E-01  0.51100000000E-03 0. -1.
         11    1    4    4    0    0 -0.39595036890E-01 -0.42928494587E-01 -0.49940062826E-01  0.76843305433E-01  0.51100000000E-03 0.  1.
</event>
<event>
 8    1  0.1138737E+005  0.1043930E+01  0.7957747E-01            NaN
         13   -1    0    0    0    0  0.00000000000E+00  0.00000000000E+00  0.74505805969E-08  0.10566000000E+00  0.10566000000E+00 0. -1.
     999900   -1    0    0    0    0 -0.00000000000E+00 -0.00000000000E+00 -0.74505805969E-08  0.93827000000E+00  0.93827000000E+00 0. -1.
     999902    2    1    2    0    0 -0.23208954286E-01  0.14624213137E-01  0.35646427826E-02  0.10162672119E+01  0.10158906516E+01 0.  0.
     999903    2    3    3    0    0 -0.67268997596E-01  0.49990497549E-01 -0.95882943297E-01  0.12886545175E+00  0.19712888075E-01 0.  0.
         14    1    1    2    0    0  0.23208954286E-01 -0.14624213137E-01 -0.35646427826E-02  0.27662788130E-01  0.00000000000E+00 0. -1.
     999901    1    3    3    0    0  0.44060043310E-01 -0.35366284413E-01  0.99447586080E-01  0.88740176012E+00  0.88000000000E+00 0.  1.
        -11    1    4    4    0    0 -0.40551203064E-01  0.21196831531E-01 -0.41479870176E-01  0.61762014926E-01  0.51100000000E-03 0. -1.
         11    1    4    4    0    0 -0.26717794533E-01  0.28793666018E-01 -0.54403073121E-01  0.67103436823E-01  0.51100000000E-03 0.  1.
</event>
<event>
 8    1  0.1138737E+005  0.1043930E+01  0.7957747E-01            NaN
         13   -1    0    0    0    0  0.00000000000E+00  0.00000000000E+00  0.74505805969E-08  0.10566000000E+00  0.10566000000E+00 0. -1.
     999900   -1    0    0    0    0 -0.00000000000E+00 -0.00000000000E+00 -0.74505805969E-08  0.93827000000E+00  0.93827000000E+00 0.  1.
     999902    2    1    2    0    0 -0.18190743941E-01  0.75106152535E-02 -0.12430497456E-01  0.10206527628E+01  0.10203872953E+01 0.  0.
     999903    2    3    3    0    0  0.54902347912E-01  0.10705619098E+00  0.45213884941E-01  0.13016143964E+00  0.20552594572E-01 0.  0.
         14    1    1    2    0    0  0.18190743941E-01 -0.75106152535E-02  0.12430497456E-01  0.23277237242E-01  0.00000000000E+00 0. -1.
     999901    1    3    3    0    0 -0.73093091853E-01 -0.99545575731E-01 -0.57644382396E-01  0.89049132312E+00  0.88000000000E+00 0.  1.
        -11    1    4    4    0    0  0.18286952496E-01  0.55528893614E-01  0.16620283446E-01  0.60781293178E-01  0.51100000000E-03 0. -1.
         11    1    4    4    0    0  0.36615395415E-01  0.51527297371E-01  0.28593601495E-01  0.69380146463E-01  0.51100000000E-03 0.  1.
</event>
<event>
 8    1  0.1138737E+005  0.1043930E+01  0.7957747E-01            NaN
         13   -1    0    0    0    0  0.00000000000E+00  0.00000000000E+00  0.74505805969E-08  0.10566000000E+00  0.10566000000E+00 0. -1.
     999900   -1    0    0    0    0 -0.00000000000E+00 -0.00000000000E+00 -0.74505805969E-08  0.93827000000E+00  0.93827000000E+00 0.  1.
     999902    2    1    2    0    0  0.17290877329E-01 -0.72476146629E-02  0.16436517824E-01  0.10189968599E+01  0.10186917782E+01 0.  0.
     999903    2    3    3    0    0 -0.25973300319E-01  0.11871674660E+00  0.37733584643E-01  0.12872028802E+00  0.19411617268E-01 0.  0.
         14    1    1    2    0    0 -0.17290877329E-01  0.72476146629E-02 -0.16436517824E-01  0.24933140100E-01  0.00000000000E+00 0.  1.
     999901    1    3    3    0    0  0.43264177648E-01 -0.12596436127E+00 -0.21297066819E-01  0.89027657188E+00  0.88000000000E+00 0. -1.
        -11    1    4    4    0    0 -0.13182678026E-01  0.49982764477E-01  0.63473573506E-02  0.52082720849E-01  0.51100000000E-03 0.  1.
         11    1    4    4    0    0 -0.12790622294E-01  0.68733982127E-01  0.31386227292E-01  0.76637567174E-01  0.51100000000E-03 0. -1.
</event>
<event>
 8    1  0.1138737E+005  0.1043930E+01  0.7957747E-01            NaN
         13   -1    0    0    0    0  0.00000000000E+00  0.00000000000E+00  0.74505805969E-08  0.10566000000E+00  0.10566000000E+00 0. -1.
     999900   -1    0    0    0    0 -0.00000000000E+00 -0.00000000000E+00 -0.74505805969E-08  0.93827000000E+00  0.93827000000E+00 0. -1.
     999902    2    1    2    0    0  0.13303290046E-01  0.65814637272E-02 -0.18702698250E-01  0.10200535657E+01  0.10197740891E+01 0.  0.
     999903    2    3    3    0    0  0.53428189344E-01 -0.30637090006E-01 -0.11653283333E+00  0.13294254473E+00  0.17338288690E-01 0.  0.
         14    1    1    2    0    0 -0.13303290046E-01 -0.65814637272E-02  0.18702698250E-01  0.23876434254E-01  0.00000000000E+00 0.  1.
     999901    1    3    3    0    0 -0.40124899298E-01  0.37218553733E-01  0.97830135076E-01  0.88711102102E+00  0.88000000000E+00 0.  1.
        -11    1    4    4    0    0  0.15444714893E-01 -0.20013791289E-02 -0.20272937259E-01  0.25569470910E-01  0.51100000000E-03 0.  1.
         11    1    4    4    0    0  0.37983474451E-01 -0.28635710877E-01 -0.96259896068E-01  0.10737307382E+00  0.51100000000E-03 0. -1.
</event>
<event>
 8    1  0.1138737E+005  0.1043930E+01  0.7957747E-01            NaN
         13   -1    0    0    0    0  0.00000000000E+00  0.00000000000E+00  0.74505805969E-08  0.10566000000E+00  0.10566000000E+00 0. -1.
     999900   -1    0    0    0    0 -0.00000000000E+00 -0.00000000000E+00 -0.74505805969E-08  0.93827000000E+00  0.93827000000E+00 0.  1.
     999902    2    1    2    0    0 -0.12150551880E-01 -0.58544354234E-02 -0.26593970745E-01  0.10141113883E+01  0.10136729049E+01 0.  0.
     999903    2    3    3    0    0 -0.78112049844E-01 -0.75965452473E-01 -0.64238187431E-01  0.12806197601E+00  0.20027048592E-01 0.  0.
         14    1    1    2    0    0  0.12150551880E-01  0.58544354234E-02  0.26593970745E-01  0.29818611724E-01  0.00000000000E+00 0. -1.
     999901    1    3    3    0    0  0.65961497963E-01  0.70111017050E-01  0.37644216686E-01  0.88604941227E+00  0.88000000000E+00 0. -1.
        -11    1    4    4    0    0 -0.60458255809E-01 -0.52341053402E-01 -0.37806110098E-01  0.88455353984E-01  0.51100000000E-03 0.  1.
         11    1    4    4    0    0 -0.17653794035E-01 -0.23624399072E-01 -0.26432077333E-01  0.39606622028E-01  0.51100000000E-03 0. -1.
</event>
<event>
 8    1  0.1138737E+005  0.1043930E+01  0.7957747E-01            NaN
         13   -1    0    0    0    0  0.00000000000E+00  0.00000000000E+00  0.74505805969E-08  0.10566000000E+00  0.10566000000E+00 0.  1.
     999900   -1    0    0    0    0 -0.00000000000E+00 -0.00000000000E+00 -0.74505805969E-08  0.93827000000E+00  0.93827000000E+00 0. -1.
     999902    2    1    2    0    0 -0.15730662364E-01 -0.44600095696E-02 -0.24395986403E-01  0.10145614867E+01  0.10141363324E+01 0.  0.
     999903    2    3    3    0    0 -0.22349117351E-01  0.51734330184E-01 -0.11145536126E+00  0.12845712343E+00  0.30050142099E-01 0.  0.
         14    1    1    2    0    0  0.15730662364E-01  0.44600095696E-02  0.24395986403E-01  0.29368513350E-01  0.00000000000E+00 0.  1.
     999901    1    3    3    0    0  0.66184549870E-02 -0.56194339753E-01  0.87059374858E-01  0.88610436322E+00  0.88000000000E+00 0.  1.
        -11    1    4    4    0    0 -0.67420828527E-02  0.10118423683E-01 -0.56401286372E-01  0.57699258266E-01  0.51100000000E-03 0. -1.
         11    1    4    4    0    0 -0.15607034498E-01  0.41615906501E-01 -0.55054074890E-01  0.70757865165E-01  0.51100000000E-03 0.  1.
</event>
<event>
 8    1  0.1138737E+005  0.1043930E+01  0.7957747E-01            NaN
         13   -1    0    0    0    0  0.00000000000E+00  0.00000000000E+00  0.74505805969E-08  0.10566000000E+00  0.10566000000E+00 0. -1.
     999900   -1    0    0    0    0 -0.00000000000E+00 -0.00000000000E+00 -0.74505805969E-08  0.93827000000E+00  0.93827000000E+00 0. -1.
     999902    2    1    2    0    0 -0.61812575417E-02  0.13520247727E-01 -0.18308980439E-01  0.10203456024E+01  0.10200729997E+01 0.  0.
     999903    2    3    3    0    0  0.59503401335E-01  0.10268041219E+00 -0.55692274184E-01  0.13261731068E+00  0.20044946251E-01 0.  0.
         14    1    1    2    0    0  0.61812575417E-02 -0.13520247727E-01  0.18308980439E-01  0.23584397557E-01  0.00000000000E+00 0. -1.
     999901    1    3    3    0    0 -0.65684658877E-01 -0.89160164468E-01  0.37383293746E-01  0.88772829176E+00  0.88000000000E+00 0. -1.
        -11    1    4    4    0    0  0.33000595766E-01  0.61706647796E-01 -0.43214645539E-01  0.82246680256E-01  0.51100000000E-03 0.  1.
         11    1    4    4    0    0  0.26502805569E-01  0.40973764399E-01 -0.12477628645E-01  0.50370630427E-01  0.51100000000E-03 0. -1.
</event>
<event>
 8    1  0.1138737E+005  0.1043930E+01  0.7957747E-01            NaN
         13   -1    0    0    0    0  0.00000000000E+00  0.00000000000E+00  0.74505805969E-08  0.10566000000E+00  0.10566000000E+00 0. -1.
     999900   -1    0    0    0    0 -0.00000000000E+00 -0.00000000000E+00 -0.74505805969E-08  0.93827000000E+00  0.93827000000E+00 0.  1.
     999902    2    1    2    0    0 -0.13369051282E-01 -0.13720198144E-01  0.14286059207E-01  0.10200329948E+01  0.10197530307E+01 0.  0.
     999903    2    3    3    0    0  0.56853882494E-01  0.19613715344E-01 -0.11101248773E+00  0.12776502157E+00  0.19572085223E-01 0.  0.
         14    1    1    2    0    0  0.13369051282E-01  0.13720198144E-01 -0.14286059207E-01  0.23897005188E-01  0.00000000000E+00 0.  1.
     999901    1    3    3    0    0 -0.70222933776E-01 -0.33333913487E-01  0.12529854693E+00  0.89226797325E+00  0.88000000000E+00 0. -1.
        -11    1    4    4    0    0  0.42278573092E-01  0.71973035518E-02 -0.64447626989E-01  0.77414705752E-01  0.51100000000E-03 0.  1.
         11    1    4    4    0    0  0.14575309402E-01  0.12416411792E-01 -0.46564860739E-01  0.50350315814E-01  0.51100000000E-03 0. -1.
</event>
<event>
 8    1  0.1138737E+005  0.1043930E+01  0.7957747E-01            NaN
         13   -1    0    0    0    0  0.00000000000E+00  0.00000000000E+00  0.74505805969E-08  0.10566000000E+00  0.10566000000E+00 0.  1.
     999900   -1    0    0    0    0 -0.00000000000E+00 -0.00000000000E+00 -0.74505805969E-08  0.93827000000E+00  0.93827000000E+00 0.  1.
     999902    2    1    2    0    0 -0.16290476921E-01  0.99592085216E-02 -0.14557762917E-01  0.10199197119E+01  0.10196370554E+01 0.  0.
     999903    2    3    3    0    0  0.16496819361E-01  0.11437684675E+00  0.56778099464E-01  0.13027548233E+00  0.19842897871E-01 0.  0.
         14    1    1    2    0    0  0.16290476921E-01 -0.99592085216E-02  0.14557762917E-01  0.24010288083E-01  0.00000000000E+00 0. -1.
     999901    1    3    3    0    0 -0.32787296281E-01 -0.10441763823E+00 -0.71335862380E-01  0.88964422958E+00  0.88000000000E+00 0.  1.
        -11    1    4    4    0    0  0.24981526082E-02  0.50827857926E-01  0.15445049635E-01  0.53183856452E-01  0.51100000000E-03 0.  1.
         11    1    4    4    0    0  0.13998666752E-01  0.63548988828E-01  0.41333049829E-01  0.77091625881E-01  0.51100000000E-03 0. -1.
</event>
<event>
 8    1  0.1138737E+005  0.1043930E+01  0.7957747E-01            NaN
         13   -1    0    0    0    0  0.00000000000E+00  0.00000000000E+00  0.74505805969E-08  0.10566000000E+00  0.10566000000E+00 0.  1.
     999900   -1    0    0    0    0 -0.00000000000E+00 -0.00000000000E+00 -0.74505805969E-08  0.93827000000E+00  0.93827000000E+00 0. -1.
     999902    2    1    2    0    0 -0.10113483100E-01 -0.15374869126E-01 -0.16582362240E-01  0.10191581636E+01  0.10188570648E+01 0.  0.
     999903    2    3    3    0    0 -0.71865676983E-01 -0.59158987362E-01 -0.92432304447E-01  0.13265740433E+00  0.19743219192E-01 0.  0.
         14    1    1    2    0    0  0.10113483100E-01  0.15374869126E-01  0.16582362240E-01  0.24771836398E-01  0.00000000000E+00 0. -1.
     999901    1    3    3    0    0  0.61752193883E-01  0.43784118236E-01  0.75849942207E-01  0.88650075927E+00  0.88000000000E+00 0. -1.
        -11    1    4    4    0    0 -0.50053007463E-01 -0.39165954739E-01 -0.49719100866E-01  0.80694025049E-01  0.51100000000E-03 0.  1.
         11    1    4    4    0    0 -0.21812669520E-01 -0.19993032623E-01 -0.42713203581E-01  0.51963379280E-01  0.51100000000E-03 0. -1.
</event>
<event>
 8    1  0.1138737E+005  0.1043930E+01  0.7957747E-01            NaN
         13   -1    0    0    0    0  0.00000000000E+00  0.00000000000E+00  0.74505805969E-08  0.10566000000E+00  0.10566000000E+00 0. -1.
     999900   -1    0    0    0    0 -0.00000000000E+00 -0.00000000000E+00 -0.74505805969E-08  0.93827000000E+00  0.93827000000E+00 0. -1.
     999902    2    1    2    0    0  0.99726314498E-02 -0.68227185019E-02 -0.20597692094E-01  0.10200497197E+01  0.10197701520E+01 0.  0.
     999903    2    3    3    0    0 -0.43083653284E-01 -0.10511710459E+00  0.58509250276E-01  0.12946863751E+00  0.20808384685E-01 0.  0.
         14    1    1    2    0    0 -0.99726314498E-02  0.68227185019E-02  0.20597692094E-01  0.23880280262E-01  0.00000000000E+00 0. -1.
     999901    1    3    3    0    0  0.53056284733E-01  0.98294386092E-01 -0.79106942370E-01  0.89058108223E+00  0.88000000000E+00 0. -1.
        -11    1    4    4    0    0 -0.40572950845E-01 -0.10101582034E+00  0.60136358644E-01  0.12436640644E+00  0.51100000000E-03 0. -1.
         11    1    4    4    0    0 -0.25107024383E-02 -0.41012842579E-02 -0.16271083681E-02  0.51022310747E-02  0.51100000000E-03 0.  1.
</event>
<event>
 8    1  0.1138737E+005  0.1043930E+01  0.7957747E-01            NaN
         13   -1    0    0    0    0  0.00000000000E+00  0.00000000000E+00  0.74505805969E-08  0.10566000000E+00  0.10566000000E+00 0.  1.
     999900   -1    0    0    0    0 -0.00000000000E+00 -0.00000000000E+00 -0.74505805969E-08  0.93827000000E+00  0.93827000000E+00 0.  1.
     999902    2    1    2    0    0  0.68221699431E-02  0.11212202839E-01  0.24142571566E-01  0.10164505667E+01  0.10160790497E+01 0.  0.
     999903    2    3    3    0    0 -0.77895815818E-01  0.39750709283E-01  0.93003528698E-01  0.12924517055E+00  0.20168806345E-01 0.  0.
         14    1    1    2    0    0 -0.68221699431E-02 -0.11212202839E-01 -0.24142571566E-01  0.27479433346E-01  0.00000000000E+00 0. -1.
     999901    1    3    3    0    0  0.84717985761E-01 -0.28538506444E-01 -0.68860957132E-01  0.88720539611E+00  0.88000000000E+00 0.  1.
        -11    1    4    4    0    0 -0.27878323476E-01  0.13430620163E-01  0.19724269782E-01  0.36700005685E-01  0.51100000000E-03 0. -1.
         11    1    4    4    0    0 -0.50017492342E-01  0.26320089120E-01  0.73279258916E-01  0.92545164864E-01  0.51100000000E-03 0.  1.
</event>
<event>
 8    1  0.1138737E+005  0.1043930E+01  0.7957747E-01            NaN
         13   -1    0    0    0    0  0.00000000000E+00  0.00000000000E+00  0.74505805969E-08  0.10566000000E+00  0.10566000000E+00 0.  1.
     999900   -1    0    0    0    0 -0.00000000000E+00 -0.00000000000E+00 -0.74505805969E-08  0.93827000000E+00  0.93827000000E+00 0.  1.
     999902    2    1    2    0    0 -0.80417304978E-03  0.23393575953E-01 -0.17093250578E-02  0.10204602773E+01  0.10201903497E+01 0.  0.
     999903    2    3    3    0    0  0.35945679560E-01  0.11263112934E+00 -0.58377818110E-01  0.13337222606E+00  0.20057862793E-01 0.  0.
         14    1    1    2    0    0  0.80417304978E-03 -0.23393575953E-01  0.17093250578E-02  0.23469722673E-01  0.00000000000E+00 0.  1.
     999901    1    3    3    0    0 -0.36749852609E-01 -0.89237553391E-01  0.56668493052E-01  0.88708805127E+00  0.88000000000E+00 0.  1.
        -11    1    4    4    0    0  0.37118260814E-01  0.91589051389E-01 -0.48781725905E-01  0.11020997016E+00  0.51100000000E-03 0. -1.
         11    1    4    4    0    0 -0.11725812543E-02  0.21042077955E-01 -0.95960922044E-02  0.23162255893E-01  0.51100000000E-03 0.  1.
</event>
<event>
 8    1  0.1138737E+005  0.1043930E+01  0.7957747E-01            NaN
         13   -1    0    0    0    0  0.00000000000E+00  0.00000000000E+00  0.74505805969E-08  0.10566000000E+00  0.10566000000E+00 0.  1.
     999900   -1    0    0    0    0 -0.00000000000E+00 -0.00000000000E+00 -0.74505805969E-08  0.93827000000E+00  0.93827000000E+00 0.  1.
     999902    2    1    2    0    0  0.19002752379E-01 -0.28146419730E-02  0.12737112194E-01  0.10208809038E+01  0.10206206734E+01 0.  0.
     999903    2    3    3    0    0 -0.11320740811E+00  0.58036572371E-01 -0.49764281610E-02  0.12875077524E+00  0.19179058967E-01 0.  0.
         14    1    1    2    0    0 -0.19002752379E-01  0.28146419730E-02 -0.12737112194E-01  0.23049096174E-01  0.00000000000E+00 0. -1.
     999901    1    3    3    0    0  0.13221016049E+00 -0.60851214344E-01  0.17713540355E-01  0.89213012859E+00  0.88000000000E+00 0.  1.
        -11    1    4    4    0    0 -0.32119571291E-01  0.14342488866E-01  0.69798625193E-02  0.35865769873E-01  0.51100000000E-03 0.  1.
         11    1    4    4    0    0 -0.81087836820E-01  0.43694083505E-01 -0.11956290680E-01  0.92885005364E-01  0.51100000000E-03 0. -1.
</event>
<event>
 8    1  0.1138737E+005  0.1043930E+01  0.7957747E-01            NaN
         13   -1    0    0    0    0  0.00000000000E+00  0.00000000000E+00  0.74505805969E-08  0.10566000000E+00  0.10566000000E+00 0.  1.
     999900   -1    0    0    0    0 -0.00000000000E+00 -0.00000000000E+00 -0.74505805969E-08  0.93827000000E+00  0.93827000000E+00 0. -1.
     999902    2    1    2    0    0  0.19100667491E-01  0.46220243022E-02  0.13331092278E-01  0.10201830712E+01  0.10199066536E+01 0.  0.
     999903    2    3    3    0    0  0.46127935688E-01  0.12135066693E+00 -0.10852655761E-01  0.13173447789E+00  0.19555605677E-01 0.  0.
         14    1    1    2    0    0 -0.19100667491E-01 -0.46220243022E-02 -0.13331092278E-01  0.23746928824E-01  0.00000000000E+00 0. -1.
     999901    1    3    3    0    0 -0.27027268197E-01 -0.11672864263E+00  0.24183748039E-01  0.88844859328E+00  0.88000000000E+00 0.  1.
        -11    1    4    4    0    0  0.10887838196E-01  0.43049656771E-01 -0.11468509314E-01  0.45865082531E-01  0.51100000000E-03 0.  1.
         11    1    4    4    0    0  0.35240097492E-01  0.78301010161E-01  0.61585355309E-03  0.85869395363E-01  0.51100000000E-03 0. -1.
</event>
<event>
 8    1  0.1138737E+005  0.1043930E+01  0.7957747E-01            NaN
         13   -1    0    0    0    0  0.00000000000E+00  0.00000000000E+00  0.74505805969E-08  0.10566000000E+00  0.10566000000E+00 0. -1.
     999900   -1    0    0    0    0 -0.00000000000E+00 -0.00000000000E+00 -0.74505805969E-08  0.93827000000E+00  0.93827000000E+00 0.  1.
     999902    2    1    2    0    0  0.13064659452E-01  0.18294168567E-01 -0.24489102443E-03  0.10214484097E+01  0.10212009752E+01 0.  0.
     999903    2    3    3    0    0 -0.27733247788E-01  0.84993041165E-01  0.95806394714E-01  0.13277577126E+00  0.21391355424E-01 0.  0.
         14    1    1    2    0    0 -0.13064659452E-01 -0.18294168567E-01  0.24489102443E-03  0.22481590286E-01  0.00000000000E+00 0.  1.
     999901    1    3    3    0    0  0.40797907241E-01 -0.66698872597E-01 -0.96051285738E-01  0.88867263845E+00  0.88000000000E+00 0.  1.
        -11    1    4    4    0    0 -0.15153244937E-01  0.72111899131E-01  0.80546651333E-01  0.10916854396E+00  0.51100000000E-03 0. -1.
         11    1    4    4    0    0 -0.12580002852E-01  0.12881142033E-01  0.15259743381E-01  0.23607227302E-01  0.51100000000E-03 0.  1.
</event>
<event>
 8    1  0.1138737E+005  0.1043930E+01  0.7957747E-01            NaN
         13   -1    0    0    0    0  0.00000000000E+00  0.00000000000E+00  0.74505805969E-08  0.10566000000E+00  0.10566000000E+00 0. -1.
     999900   -1    0    0    0    0 -0.00000000000E+00 -0.00000000000E+00 -0.74505805969E-08  0.93827000000E+00  0.93827000000E+00 0. -1.
     999902    2    1    2    0    0 -0.18439151593E-01  0.83342562036E-02  0.13252236574E-01  0.10197414921E+01  0.10194545732E+01 0.  0.
     999903    2    3    3    0    0 -0.29579153705E-01  0.10162878388E+00  0.76725955887E-01  0.13246651696E+00  0.21381528540E-01 0.  0.
         14    1    1    2    0    0  0.18439151593E-01 -0.83342562036E-02 -0.13252236574E-01  0.24188507853E-01  0.00000000000E+00 0.  1.
     999901    1    3    3    0    0  0.11140002112E-01 -0.93294527678E-01 -0.63473719313E-01  0.88727497518E+00  0.88000000000E+00 0. -1.
        -11    1    4    4    0    0 -0.18574860927E-01  0.39293712019E-01  0.41142558388E-01  0.59849749326E-01  0.51100000000E-03 0. -1.
         11    1    4    4    0    0 -0.11004292778E-01  0.62335071862E-01  0.35583397499E-01  0.72616767638E-01  0.51100000000E-03 0.  1.
</event>
<event>
 8    1  0.1138737E+005  0.1043930E+01  0.7957747E-01            NaN
         13   -1    0    0    0    0  0.00000000000E+00  0.00000000000E+00  0.74505805969E-08  0.10566000000E+00  0.10566000000E+00 0.  1.
     999900   -1    0    0    0    0 -0.00000000000E+00 -0.00000000000E+00 -0.74505805969E-08  0.93827000000E+00  0.93827000000E+00 0.  1.
     999902    2    1    2    0    0 -0.96204549638E-03  0.10391520727E-01  0.21674115420E-01  0.10198743039E+01  0.10195905645E+01 0.  0.
     999903    2    3    3    0    0 -0.12400102755E+00 -0.15700404916E-01  0.33137167303E-01  0.13085755422E+00  0.20071624078E-01 0.  0.
         14    1    1    2    0    0  0.96204549638E-03 -0.10391520727E-01 -0.21674115420E-01  0.24055696078E-01  0.00000000000E+00 0. -1.
     999901    1    3    3    0    0  0.12303898205E+00  0.26091925643E-01 -0.11463051883E-01  0.88901674970E+00  0.88000000000E+00 0.  1.
        -11    1    4    4    0    0 -0.29028147636E-01 -0.71047232820E-02 -0.37887911292E-04  0.29889346005E-01  0.51100000000E-03 0. -1.
         11    1    4    4    0    0 -0.94972879910E-01 -0.85956816344E-02  0.33175055215E-01  0.10096820822E+00  0.51100000000E-03 0.  1.
</event>
<event>
 8    1  0.1138737E+005  0.1043930E+01  0.7957747E-01            NaN
         13   -1    0    0    0    0  0.00000000000E+00  0.00000000000E+00  0.74505805969E-08  0.10566000000E+00  0.10566000000E+00 0. -1.
     999900   -1    0    0    0    0 -0.00000000000E+00 -0.00000000000E+00 -0.74505805969E-08  0.93827000000E+00  0.93827000000E+00 0. -1.
     999902    2    1    2    0    0  0.13971216257E-01  0.18963691975E-01  0.14401455909E-02  0.10203314722E+01  0.10200585388E+01 0.  0.
     999903    2    3    3    0    0  0.12013582927E+00  0.40244670704E-01 -0.36490771160E-01  0.13288425708E+00  0.16564975249E-01 0.  0.
         14    1    1    2    0    0 -0.13971216257E-01 -0.18963691975E-01 -0.14401455909E-02  0.23598527843E-01  0.00000000000E+00 0.  1.
     999901    1    3    3    0    0 -0.10616461301E+00 -0.21280978729E-01  0.37930916751E-01  0.88744721508E+00  0.88000000000E+00 0.  1.
        -11    1    4    4    0    0  0.61388407486E-01  0.23295118430E-01 -0.27044351512E-01  0.71013077571E-01  0.51100000000E-03 0.  1.
         11    1    4    4    0    0  0.58747421780E-01  0.16949552274E-01 -0.94464196479E-02  0.61871179505E-01  0.51100000000E-03 0. -1.
</event>
<event>
 8    1  0.1138737E+005  0.1043930E+01  0.7957747E-01            NaN
         13   -1    0    0    0    0  0.00000000000E+00  0.00000000000E+00  0.74505805969E-08  0.10566000000E+00  0.10566000000E+00 0. -1.
     999900   -1    0    0    0    0 -0.00000000000E+00 -0.00000000000E+00 -0.74505805969E-08  0.93827000000E+00  0.93827000000E+00 0.  1.
     999902    2    1    2    0    0 -0.91365952841E-02 -0.23530592713E-01  0.96938080367E-02  0.10168904719E+01  0.10165309123E+01 0.  0.
     999903    2    3    3    0    0 -0.48342886322E-01 -0.91873119871E-01 -0.74596237353E-01  0.12935870004E+00  0.19783069409E-01 0.  0.
         14    1    1    2    0    0  0.91365952841E-02  0.23530592713E-01 -0.96938080367E-02  0.27039528122E-01  0.00000000000E+00 0.  1.
     999901    1    3    3    0    0  0.39206291037E-01  0.68342527158E-01  0.84290045390E-01  0.88753177184E+00  0.88000000000E+00 0.  1.
        -11    1    4    4    0    0 -0.38295005015E-01 -0.64002408893E-01 -0.62662134729E-01  0.97414680634E-01  0.51100000000E-03 0.  1.
         11    1    4    4    0    0 -0.10047881307E-01 -0.27870710978E-01 -0.11934102624E-01  0.31944019403E-01  0.51100000000E-03 0. -1.
</event>
<event>
 8    1  0.1138737E+005  0.1043930E+01  0.7957747E-01            NaN
         13   -1    0    0    0    0  0.00000000000E+00  0.00000000000E+00  0.74505805969E-08  0.10566000000E+00  0.10566000000E+00 0. -1.
     999900   -1    0    0    0    0 -0.00000000000E+00 -0.00000000000E+00 -0.74505805969E-08  0.93827000000E+00  0.93827000000E+00 0.  1.
     999902    2    1    2    0    0  0.13249945503E-01  0.93614494380E-02 -0.16808650164E-01  0.10205691671E+01  0.10203017673E+01 0.  0.
     999903    2    3    3    0    0 -0.50952013664E-01  0.96466094356E-01 -0.71744542859E-01  0.13224092655E+00  0.20942019202E-01 0.  0.
         14    1    1    2    0    0 -0.13249945503E-01 -0.93614494380E-02  0.16808650164E-01  0.23360832857E-01  0.00000000000E+00 0. -1.
     999901    1    3    3    0    0  0.64201959167E-01 -0.87104644918E-01  0.54935892694E-01  0.88832824059E+00  0.88000000000E+00 0. -1.
        -11    1    4    4    0    0 -0.22547460398E-01  0.22563376226E-01 -0.19808076023E-01  0.37551496825E-01  0.51100000000E-03 0.  1.
         11    1    4    4    0    0 -0.28404553266E-01  0.73902718131E-01 -0.51936466836E-01  0.94689429726E-01  0.51100000000E-03 0. -1.
</event>
<event>
 8    1  0.1138737E+005  0.1043930E+01  0.7957747E-01            NaN
         13   -1    0    0    0    0  0.00000000000E+00  0.00000000000E+00  0.74505805969E-08  0.10566000000E+00  0.10566000000E+00 0. -1.
     999900   -1    0    0    0    0 -0.00000000000E+00 -0.00000000000E+00 -0.74505805969E-08  0.93827000000E+00  0.93827000000E+00 0. -1.
     999902    2    1    2    0    0 -0.21353351270E-01 -0.48254095222E-02  0.58900675025E-02  0.10212596872E+01  0.10210080341E+01 0.  0.
     999903    2    3    3    0    0 -0.13199653850E+00  0.11349089939E-01 -0.49746646095E-02  0.13411732448E+00  0.20268730134E-01 0.  0.
         14    1    1    2    0    0  0.21353351270E-01  0.48254095222E-02 -0.58900675025E-02  0.22670312805E-01  0.00000000000E+00 0.  1.
     999901    1    3    3    0    0  0.11064318723E+00 -0.16174499462E-01  0.10864732112E-01  0.88714236271E+00  0.88000000000E+00 0.  1.
        -11    1    4    4    0    0 -0.59995644697E-01  0.15150078284E-01 -0.64338871155E-03  0.61884386760E-01  0.51100000000E-03 0.  1.
         11    1    4    4    0    0 -0.72000893799E-01 -0.38009883449E-02 -0.43312758979E-02  0.72232937724E-01  0.51100000000E-03 0. -1.
</event>
<event>
 8    1  0.1138737E+005  0.1043930E+01  0.7957747E-01            NaN
         13   -1    0    0    0    0  0.00000000000E+00  0.00000000000E+00  0.74505805969E-08  0.10566000000E+00  0.10566000000E+00 0.  1.
     999900   -1    0    0    0    0 -0.00000000000E+00 -0.00000000000E+00 -0.74505805969E-08  0.93827000000E+00  0.93827000000E+00 0.  1.
     999902    2    1    2    0    0 -0.70784775376E-02  0.11648601176E-01 -0.18359979784E-01  0.10210633516E+01  0.10208072709E+01 0.  0.
     999903    2    3    3    0    0 -0.12672208225E+00 -0.87817150811E-02 -0.31912918331E-01  0.13262895774E+00  0.20890223198E-01 0.  0.
         14    1    1    2    0    0  0.70784775376E-02 -0.11648601176E-01  0.18359979784E-01  0.22866648448E-01  0.00000000000E+00 0.  1.
     999901    1    3    3    0    0  0.11964360471E+00  0.20430316257E-01  0.13552938548E-01  0.88843439381E+00  0.88000000000E+00 0.  1.
        -11    1    4    4    0    0 -0.54082319969E-01  0.45279249730E-03 -0.23321913743E-01  0.58900552934E-01  0.51100000000E-03 0.  1.
         11    1    4    4    0    0 -0.72639762277E-01 -0.92345075784E-02 -0.85910045885E-02  0.73728404803E-01  0.51100000000E-03 0. -1.
</event>
<event>
 8    1  0.1138737E+005  0.1043930E+01  0.7957747E-01            NaN
         13   -1    0    0    0    0  0.00000000000E+00  0.00000000000E+00  0.74505805969E-08  0.10566000000E+00  0.10566000000E+00 0. -1.
     999900   -1    0    0    0    0 -0.00000000000E+00 -0.00000000000E+00 -0.74505805969E-08  0.93827000000E+00  0.93827000000E+00 0. -1.
     999902    2    1    2    0    0 -0.21637668567E-01  0.21087758558E-02 -0.87272768355E-02  0.10205034980E+01  0.10202345752E+01 0.  0.
     999903    2    3    3    0    0 -0.82444650065E-01 -0.98870181676E-01 -0.25068826866E-01  0.13249376541E+00  0.18807409230E-01 0.  0.
         14    1    1    2    0    0  0.21637668567E-01 -0.21087758558E-02  0.87272768355E-02  0.23426502035E-01  0.00000000000E+00 0. -1.
     999901    1    3    3    0    0  0.60806981498E-01  0.10097895753E+00  0.16341550030E-01  0.88800973256E+00  0.88000000000E+00 0. -1.
        -11    1    4    4    0    0 -0.16811855927E-01 -0.22538408033E-01 -0.13392985490E-01  0.31148860616E-01  0.51100000000E-03 0. -1.
         11    1    4    4    0    0 -0.65632794138E-01 -0.76331773643E-01 -0.11675841375E-01  0.10134490479E+00  0.51100000000E-03 0.  1.
</event>
<event>
 8    1  0.1138737E+005  0.1043930E+01  0.7957747E-01            NaN
         13   -1    0    0    0    0  0.00000000000E+00  0.00000000000E+00  0.74505805969E-08  0.10566000000E+00  0.10566000000E+00 0. -1.
     999900   -1    0    0    0    0 -0.00000000000E+00 -0.00000000000E+00 -0.74505805969E-08  0.93827000000E+00  0.93827000000E+00 0. -1.
     999902    2    1    2    0    0  0.19815346757E-02 -0.21769391131E-01 -0.78409998606E-02  0.10207068618E+01  0.10204426410E+01 0.  0.
     999903    2    3    3    0    0  0.10905471420E+00  0.49916270896E-01 -0.47494058226E-01  0.13043956206E+00  0.19344999234E-01 0.  0.
         14    1    1    2    0    0 -0.19815346757E-02  0.21769391131E-01  0.78409998606E-02  0.23223138218E-01  0.00000000000E+00 0. -1.
     999901    1    3    3    0    0 -0.10707317952E+00 -0.71685662027E-01  0.39653058365E-01  0.89026729972E+00  0.88000000000E+00 0.  1.
        -11    1    4    4    0    0  0.26856825056E-01  0.17446130103E-01 -0.51580429060E-02  0.32442611413E-01  0.51100000000E-03 0. -1.
         11    1    4    4    0    0  0.82197889141E-01  0.32470140793E-01 -0.42336015320E-01  0.97996950649E-01  0.51100000000E-03 0.  1.
</event>
<event>
 8    1  0.1138737E+005  0.1043930E+01  0.7957747E-01            NaN
         13   -1    0    0    0    0  0.00000000000E+00  0.00000000000E+00  0.74505805969E-08  0.10566000000E+00  0.10566000000E+00 0.  1.
     999900   -1    0    0    0    0 -0.00000000000E+00 -0.00000000000E+00 -0.74505805969E-08  0.93827000000E+00  0.93827000000E+00 0. -1.
     999902    2    1    2    0    0  0.27742872084E-01 -0.90237288014E-02  0.11534257654E-01  0.10125590942E+01  0.10120730139E+01 0.  0.
     999903    2    3    3    0    0  0.10832280542E+00  0.16870032269E-03  0.63174292061E-01  0.12732222216E+00  0.22047640343E-01 0.  0.
         14    1    1    2    0    0 -0.27742872084E-01  0.90237288014E-02 -0.11534257654E-01  0.31370905830E-01  0.00000000000E+00 0. -1.
     999901    1    3    3    0    0 -0.80579933337E-01 -0.91924291241E-02 -0.51640034407E-01  0.88523687201E+00  0.88000000000E+00 0. -1.
        -11    1    4    4    0    0  0.95381262097E-01 -0.51183999605E-02  0.60534507791E-01  0.11308612175E+00  0.51100000000E-03 0. -1.
         11    1    4    4    0    0  0.12941543324E-01  0.52871002832E-02  0.26397842699E-02  0.14236100414E-01  0.51100000000E-03 0.  1.
</event>
<event>
 8    1  0.1138737E+005  0.1043930E+01  0.7957747E-01            NaN
         13   -1    0    0    0    0  0.00000000000E+00  0.00000000000E+00  0.74505805969E-08  0.10566000000E+00  0.10566000000E+00 0. -1.
     999900   -1    0    0    0    0 -0.00000000000E+00 -0.00000000000E+00 -0.74505805969E-08  0.93827000000E+00  0.93827000000E+00 0. -1.
     999902    2    1    2    0    0  0.39797640694E-02 -0.74461066270E-02  0.22096667476E-01  0.10202752808E+01  0.10200010308E+01 0.  0.
     999903    2    3    3    0    0  0.25373900927E-01 -0.76560497216E-01 -0.98674597843E-01  0.12908494952E+00  0.20515929191E-01 0.  0.
         14    1    1    2    0    0 -0.39797640694E-02  0.74461066270E-02 -0.22096667476E-01  0.23654719180E-01  0.00000000000E+00 0.  1.
     999901    1    3    3    0    0 -0.21394136858E-01  0.69114390589E-01  0.12077126532E+00  0.89119033130E+00  0.88000000000E+00 0.  1.
        -11    1    4    4    0    0  0.21407282324E-01 -0.32787922918E-01 -0.43214078370E-01  0.58318413183E-01  0.51100000000E-03 0.  1.
         11    1    4    4    0    0  0.39666186032E-02 -0.43772574297E-01 -0.55460519473E-01  0.70766536336E-01  0.51100000000E-03 0. -1.
</event>
<event>
 8    1  0.1138737E+005  0.1043930E+01  0.7957747E-01            NaN
         13   -1    0    0    0    0  0.00000000000E+00  0.00000000000E+00  0.74505805969E-08  0.10566000000E+00  0.10566000000E+00 0. -1.
     999900   -1    0    0    0    0 -0.00000000000E+00 -0.00000000000E+00 -0.74505805969E-08  0.93827000000E+00  0.93827000000E+00 0. -1.
     999902    2    1    2    0    0  0.20412599179E-01 -0.76391050289E-02  0.21271108614E-01  0.10134752764E+01  0.10130175939E+01 0.  0.
     999903    2    3    3    0    0  0.82883447488E-01 -0.82816385548E-01 -0.41069955022E-01  0.12587140152E+00  0.20703838608E-01 0.  0.
         14    1    1    2    0    0 -0.20412599179E-01  0.76391050289E-02 -0.21271108614E-01  0.30454723649E-01  0.00000000000E+00 0.  1.
     999901    1    3    3    0    0 -0.62470848310E-01  0.75177280519E-01  0.62341063636E-01  0.88760387483E+00  0.88000000000E+00 0.  1.
        -11    1    4    4    0    0  0.52998659443E-01 -0.61139533507E-01 -0.19958240097E-01  0.83339624003E-01  0.51100000000E-03 0.  1.
         11    1    4    4    0    0  0.29884788045E-01 -0.21676852041E-01 -0.21111714925E-01  0.42531777520E-01  0.51100000000E-03 0. -1.
</event>
<event>
 8    1  0.1138737E+005  0.1043930E+01  0.7957747E-01            NaN
         13   -1    0    0    0    0  0.00000000000E+00  0.00000000000E+00  0.74505805969E-08  0.10566000000E+00  0.10566000000E+00 0.  1.
     999900   -1    0    0    0    0 -0.00000000000E+00 -0.00000000000E+00 -0.74505805969E-08  0.93827000000E+00  0.93827000000E+00 0.  1.
     999902    2    1    2    0    0 -0.24302985144E-02  0.23101602831E-01 -0.31116658681E-02  0.10204934288E+01  0.10202242721E+01 0.  0.
     999903    2    3    3    0    0  0.28189857044E-01  0.12437698001E+00 -0.33891438418E-01  0.13362157204E+00  0.21018889602E-01 0.  0.
         14    1    1    2    0    0  0.24302985144E-02 -0.23101602831E-01  0.31116658681E-02  0.23436571181E-01  0.00000000000E+00 0.  1.
     999901    1    3    3    0    0 -0.30620155558E-01 -0.10127537718E+00  0.30779772550E-01  0.88687185678E+00  0.88000000000E+00 0. -1.
        -11    1    4    4    0    0  0.93037811425E-02  0.38957329582E-01 -0.20891587828E-01  0.45176912629E-01  0.51100000000E-03 0.  1.
         11    1    4    4    0    0  0.18886075902E-01  0.85419650426E-01 -0.12999850590E-01  0.88444659411E-01  0.51100000000E-03 0. -1.
</event>
<event>
 8    1  0.1138737E+005  0.1043930E+01  0.7957747E-01            NaN
         13   -1    0    0    0    0  0.00000000000E+00  0.00000000000E+00  0.74505805969E-08  0.10566000000E+00  0.10566000000E+00 0.  1.
     999900   -1    0    0    0    0 -0.00000000000E+00 -0.00000000000E+00 -0.74505805969E-08  0.93827000000E+00  0.93827000000E+00 0. -1.
     999902    2    1    2    0    0  0.15238349489E-01 -0.17748176247E-01 -0.37240364635E-03  0.10205346214E+01  0.10202664210E+01 0.  0.
     999903    2    3    3    0    0 -0.11502745441E+00  0.50914110172E-01  0.92432348184E-02  0.12824758813E+00  0.23204408814E-01 0.  0.
         14    1    1    2    0    0 -0.15238349489E-01  0.17748176247E-01  0.37240364635E-03  0.23395378597E-01  0.00000000000E+00 0.  1.
     999901    1    3    3    0    0  0.13026580390E+00 -0.68662286419E-01 -0.96156384647E-02  0.89228703327E+00  0.88000000000E+00 0.  1.
        -11    1    4    4    0    0 -0.26231481425E-01  0.40263666041E-02 -0.44094064022E-02  0.26907363892E-01  0.51100000000E-03 0.  1.
         11    1    4    4    0    0 -0.88795972987E-01  0.46887743568E-01  0.13652641221E-01  0.10134022424E+00  0.51100000000E-03 0. -1.
</event>
<event>
 8    1  0.1138737E+005  0.1043930E+01  0.7957747E-01            NaN
         13   -1    0    0    0    0  0.00000000000E+00  0.00000000000E+00  0.74505805969E-08  0.10566000000E+00  0.10566000000E+00 0.  1.
     999900   -1    0    0    0    0 -0.00000000000E+00 -0.00000000000E+00 -0.74505805969E-08  0.93827000000E+00  0.93827000000E+00 0.  1.
     999902    2    1    2    0    0  0.17921320445E-01 -0.11406961035E-01  0.11580504071E-01  0.10197349476E+01  0.10194478715E+01 0.  0.
     999903    2    3    3    0    0 -0.46384204287E-01  0.78852417958E-01  0.89324580880E-01  0.12938327691E+00  0.19797812230E-01 0.  0.
         14    1    1    2    0    0 -0.17921320445E-01  0.11406961035E-01 -0.11580504071E-01  0.24195052409E-01  0.00000000000E+00 0.  1.
     999901    1    3    3    0    0  0.64305524732E-01 -0.90259378993E-01 -0.77744076810E-01  0.89035167068E+00  0.88000000000E+00 0.  1.
        -11    1    4    4    0    0 -0.10979680877E-01  0.18222972989E-01  0.33479347592E-01  0.39670618509E-01  0.51100000000E-03 0. -1.
         11    1    4    4    0    0 -0.35404523410E-01  0.60629444969E-01  0.55845233289E-01  0.89712658400E-01  0.51100000000E-03 0.  1.
</event>
<event>
 8    1  0.1138737E+005  0.1043930E+01  0.7957747E-01            NaN
         13   -1    0    0    0    0  0.00000000000E+00  0.00000000000E+00  0.74505805969E-08  0.10566000000E+00  0.10566000000E+00 0. -1.
     999900   -1    0    0    0    0 -0.00000000000E+00 -0.00000000000E+00 -0.74505805969E-08  0.93827000000E+00  0.93827000000E+00 0. -1.
     999902    2    1    2    0    0 -0.14871025481E-01 -0.16686584228E-01 -0.60887923028E-02  0.10207640145E+01  0.10205011075E+01 0.  0.
     999903    2    3    3    0    0 -0.36043110073E-01  0.82117033659E-01  0.91497194822E-01  0.12962236642E+00  0.19695385653E-01 0.  0.
         14    1    1    2    0    0  0.14871025481E-01  0.16686584228E-01  0.60887923028E-02  0.23165985490E-01  0.00000000000E+00 0. -1.
     999901    1    3    3    0    0  0.21172084592E-01 -0.98803617886E-01 -0.97585987124E-01  0.89114164809E+00  0.88000000000E+00 0. -1.
        -11    1    4    4    0    0  0.11280339479E-02  0.19696357883E-02  0.69795272706E-02  0.73570950549E-02  0.51100000000E-03 0. -1.
         11    1    4    4    0    0 -0.37171144021E-01  0.80147397870E-01  0.84517667551E-01  0.12226527137E+00  0.51100000000E-03 0.  1.
</event>
<event>
 8    1  0.1138737E+005  0.1043930E+01  0.7957747E-01            NaN
         13   -1    0    0    0    0  0.00000000000E+00  0.00000000000E+00  0.74505805969E-08  0.10566000000E+00  0.10566000000E+00 0. -1.
     999900   -1    0    0    0    0 -0.00000000000E+00 -0.00000000000E+00 -0.74505805969E-08  0.93827000000E+00  0.93827000000E+00 0.  1.
     999902    2    1    2    0    0 -0.29558019889E-03 -0.33842631297E-02 -0.23538417691E-01  0.10201477017E+01  0.10198704504E+01 0.  0.
     999903    2    3    3    0    0 -0.12710367274E+00 -0.13324767054E-01  0.14648330490E-01  0.13018290820E+00  0.20003073730E-01 0.  0.
         14    1    1    2    0    0  0.29558019889E-03  0.33842631297E-02  0.23538417691E-01  0.23782298291E-01  0.00000000000E+00 0. -1.
     999901    1    3    3    0    0  0.12680809254E+00  0.99405039241E-02 -0.38186748181E-01  0.88996479351E+00  0.88000000000E+00 0.  1.
        -11    1    4    4    0    0 -0.10670012559E+00 -0.14975802100E-01  0.18565603747E-01  0.10933496336E+00  0.51100000000E-03 0.  1.
         11    1    4    4    0    0 -0.20403547157E-01  0.16510350458E-02 -0.39172732572E-02  0.20847944841E-01  0.51100000000E-03 0. -1.
</event>
<event>
 8    1  0.1138737E+005  0.1043930E+01  0.7957747E-01            NaN
         13   -1    0    0    0    0  0.00000000000E+00  0.00000000000E+00  0.74505805969E-08  0.10566000000E+00  0.10566000000E+00 0. -1.
     999900   -1    0    0    0    0 -0.00000000000E+00 -0.00000000000E+00 -0.74505805969E-08  0.93827000000E+00  0.93827000000E+00 0.  1.
     999902    2    1    2    0    0  0.58254472287E-02  0.16666213309E-01 -0.15444895820E-01  0.10204727344E+01  0.10202030966E+01 0.  0.
     999903    2    3    3    0    0 -0.36272659848E-01  0.66031302233E-01  0.10402529207E+00  0.13003335500E+00  0.20287269296E-01 0.  0.
         14    1    1    2    0    0 -0.58254472287E-02 -0.16666213309E-01  0.15444895820E-01  0.23457265578E-01  0.00000000000E+00 0. -1.
     999901    1    3    3    0    0  0.42098107076E-01 -0.49365088923E-01 -0.11947018789E+00  0.89043937942E+00  0.88000000000E+00 0.  1.
        -11    1    4    4    0    0 -0.23789432798E-01  0.35285522480E-01  0.42602812780E-01  0.60218485428E-01  0.51100000000E-03 0.  1.
         11    1    4    4    0    0 -0.12483227050E-01  0.30745779752E-01  0.61422479294E-01  0.69814869575E-01  0.51100000000E-03 0. -1.
</event>
<event>
 8    1  0.1138737E+005  0.1043930E+01  0.7957747E-01            NaN
         13   -1    0    0    0    0  0.00000000000E+00  0.00000000000E+00  0.74505805969E-08  0.10566000000E+00  0.10566000000E+00 0. -1.
     999900   -1    0    0    0    0 -0.00000000000E+00 -0.00000000000E+00 -0.74505805969E-08  0.93827000000E+00  0.93827000000E+00 0.  1.
     999902    2    1    2    0    0  0.12727106329E-01 -0.78191536005E-03  0.19659664149E-01  0.10204972660E+01  0.10202281985E+01 0.  0.
     999903    2    3    3    0    0  0.41975600794E-01 -0.10756165380E+00 -0.56739936696E-01  0.13027578461E+00  0.20515828242E-01 0.  0.
         14    1    1    2    0    0 -0.12727106329E-01  0.78191536005E-03 -0.19659664149E-01  0.23432733976E-01  0.00000000000E+00 0.  1.
     999901    1    3    3    0    0 -0.29248494465E-01  0.10677973844E+00  0.76399600845E-01  0.89022148142E+00  0.88000000000E+00 0. -1.
        -11    1    4    4    0    0  0.16677528042E-01 -0.65847971070E-01 -0.39213634425E-01  0.78435103630E-01  0.51100000000E-03 0.  1.
         11    1    4    4    0    0  0.25298072751E-01 -0.41713682729E-01 -0.17526302271E-01  0.51840680976E-01  0.51100000000E-03 0. -1.
</event>
<event>
 8    1  0.1138737E+005  0.1043930E+01  0.7957747E-01            NaN
         13   -1    0    0    0    0  0.00000000000E+00  0.00000000000E+00  0.74505805969E-08  0.10566000000E+00  0.10566000000E+00 0.  1.
     999900   -1    0    0    0    0 -0.00000000000E+00 -0.00000000000E+00 -0.74505805969E-08  0.93827000000E+00  0.93827000000E+00 0.  1.
     999902    2    1    2    0    0 -0.70327955681E-02 -0.99469779280E-02 -0.20259985340E-01  0.10202895772E+01  0.10200156625E+01 0.  0.
     999903    2    3    3    0    0  0.89731314012E-01 -0.63910257235E-01  0.64734244916E-01  0.12927928121E+00  0.19656561009E-01 0.  0.
         14    1    1    2    0    0  0.70327955681E-02  0.99469779280E-02  0.20259985340E-01  0.23640422783E-01  0.00000000000E+00 0.  1.
     999901    1    3    3    0    0 -0.96764109580E-01  0.53963279307E-01 -0.84994230256E-01  0.89101029601E+00  0.88000000000E+00 0.  1.
        -11    1    4    4    0    0  0.10119348719E-01 -0.12376367108E-01  0.34457545609E-02  0.16361846680E-01  0.51100000000E-03 0.  1.
         11    1    4    4    0    0  0.79611965293E-01 -0.51533890127E-01  0.61288490355E-01  0.11291743453E+00  0.51100000000E-03 0. -1.
</event>
<event>
 8    1  0.1138737E+005  0.1043930E+01  0.7957747E-01            NaN
         13   -1    0    0    0    0  0.00000000000E+00  0.00000000000E+00  0.74505805969E-08  0.10566000000E+00  0.10566000000E+00 0.  1.
     999900   -1    0    0    0    0 -0.00000000000E+00 -0.00000000000E+00 -0.74505805969E-08  0.93827000000E+00  0.93827000000E+00 0. -1.
     999902    2    1    2    0    0 -0.80140307377E-02  0.29624560789E-02 -0.25096650255E-01  0.10174188196E+01  0.10170733561E+01 0.  0.
     999903    2    3    3    0    0  0.84513703393E-01  0.26296095853E-01 -0.92539870832E-01  0.12969452208E+00  0.20566736366E-01 0.  0.
         14    1    1    2    0    0  0.80140307377E-02 -0.29624560789E-02  0.25096650255E-01  0.26511180447E-01  0.00000000000E+00 0.  1.
     999901    1    3    3    0    0 -0.92527734131E-01 -0.23333639774E-01  0.67443220577E-01  0.88772429748E+00  0.88000000000E+00 0.  1.
        -11    1    4    4    0    0  0.20656425188E-01  0.35602048134E-03 -0.31214989496E-01  0.37435963222E-01  0.51100000000E-03 0. -1.
         11    1    4    4    0    0  0.63857278205E-01  0.25940075372E-01 -0.61324881336E-01  0.92258558854E-01  0.51100000000E-03 0.  1.
</event>
<event>
 8    1  0.1138737E+005  0.1043930E+01  0.7957747E-01            NaN
         13   -1    0    0    0    0  0.00000000000E+00  0.00000000000E+00  0.74505805969E-08  0.10566000000E+00  0.10566000000E+00 0. -1.
     999900   -1    0    0    0    0 -0.00000000000E+00 -0.00000000000E+00 -0.74505805969E-08  0.93827000000E+00  0.93827000000E+00 0.  1.
     999902    2    1    2    0    0 -0.22285824307E-01  0.18153783193E-02  0.62244923778E-02  0.10207201342E+01  0.10204562188E+01 0.  0.
     999903    2    3    3    0    0 -0.13024236785E+00 -0.19917932949E-01  0.11471076005E-01  0.13384106765E+00  0.20543791489E-01 0.  0.
         14    1    1    2    0    0  0.22285824307E-01 -0.18153783193E-02 -0.62244923778E-02  0.23209865765E-01  0.00000000000E+00 0. -1.
     999901    1    3    3    0    0  0.10795654354E+00  0.21733311268E-01 -0.52465836271E-02  0.88687906659E+00  0.88000000000E+00 0.  1.
        -11    1    4    4    0    0 -0.56858870276E-01 -0.18996466640E-01  0.58427220468E-02  0.60234503367E-01  0.51100000000E-03 0.  1.
         11    1    4    4    0    0 -0.73383497571E-01 -0.92146630938E-03  0.56283539582E-02  0.73606564281E-01  0.51100000000E-03 0. -1.
</event>
<event>
 8    1  0.1138737E+005  0.1043930E+01  0.7957747E-01            NaN
         13   -1    0    0    0    0  0.00000000000E+00  0.00000000000E+00  0.74505805969E-08  0.10566000000E+00  0.10566000000E+00 0. -1.
     999900   -1    0    0    0    0 -0.00000000000E+00 -0.00000000000E+00 -0.74505805969E-08  0.93827000000E+00  0.93827000000E+00 0.  1.
     999902    2    1    2    0    0 -0.25668437460E-01 -0.16577057773E-01  0.83537811986E-02  0.10122526708E+01  0.10117568959E+01 0.  0.
     999903    2    3    3    0    0  0.11605259032E+00  0.78005432580E-02 -0.23864176882E-01  0.11999871928E+00  0.17353428897E-01 0.  0.
         14    1    1    2    0    0  0.25668437460E-01  0.16577057773E-01 -0.83537811986E-02  0.31677329218E-01  0.00000000000E+00 0. -1.
     999901    1    3    3    0    0 -0.14172102778E+00 -0.24377601031E-01  0.32217958081E-01  0.89225395150E+00  0.88000000000E+00 0. -1.
        -11    1    4    4    0    0  0.36396190726E-01  0.60466921602E-02 -0.26342954116E-03  0.36899535249E-01  0.51100000000E-03 0. -1.
         11    1    4    4    0    0  0.79656399598E-01  0.17538510978E-02 -0.23600747341E-01  0.83099184031E-01  0.51100000000E-03 0.  1.
</event>
<event>
 8    1  0.1138737E+005  0.1043930E+01  0.7957747E-01            NaN
         13   -1    0    0    0    0  0.00000000000E+00  0.00000000000E+00  0.74505805969E-08  0.10566000000E+00  0.10566000000E+00 0. -1.
     999900   -1    0    0    0    0 -0.00000000000E+00 -0.00000000000E+00 -0.74505805969E-08  0.93827000000E+00  0.93827000000E+00 0. -1.
     999902    2    1    2    0    0 -0.37175487100E-02  0.25821473259E-02  0.23360565753E-01  0.10201349651E+01  0.10198574132E+01 0.  0.
     999903    2    3    3    0    0  0.94346751995E-01 -0.56384103288E-02 -0.84160817252E-01  0.12814559721E+00  0.20128329301E-01 0.  0.
         14    1    1    2    0    0  0.37175487100E-02 -0.25821473259E-02 -0.23360565753E-01  0.23795034892E-01  0.00000000000E+00 0.  1.
     999901    1    3    3    0    0 -0.98064300705E-01  0.82205576548E-02  0.10752138300E+00  0.89198936790E+00  0.88000000000E+00 0.  1.
        -11    1    4    4    0    0  0.71370296700E-01 -0.12677966596E-01 -0.60521984917E-01  0.94433160846E-01  0.51100000000E-03 0. -1.
         11    1    4    4    0    0  0.22976455295E-01  0.70395562672E-02 -0.23638832334E-01  0.33712436363E-01  0.51100000000E-03 0.  1.
</event>
<event>
 8    1  0.1138737E+005  0.1043930E+01  0.7957747E-01            NaN
         13   -1    0    0    0    0  0.00000000000E+00  0.00000000000E+00  0.74505805969E-08  0.10566000000E+00  0.10566000000E+00 0. -1.
     999900   -1    0    0    0    0 -0.00000000000E+00 -0.00000000000E+00 -0.74505805969E-08  0.93827000000E+00  0.93827000000E+00 0. -1.
     999902    2    1    2    0    0  0.22376743464E-01  0.12317506513E-01 -0.14049017150E-01  0.10147784220E+01  0.10143596164E+01 0.  0.
     999903    2    3    3    0    0 -0.45221988872E-01 -0.59604916520E-01 -0.98249716514E-01  0.12526609423E+00  0.20995552339E-01 0.  0.
         14    1    1    2    0    0 -0.22376743464E-01 -0.12317506513E-01  0.14049017150E-01  0.29151577961E-01  0.00000000000E+00 0. -1.
     999901    1    3    3    0    0  0.67598732336E-01  0.71922423033E-01  0.84200699364E-01  0.88951232781E+00  0.88000000000E+00 0.  1.
        -11    1    4    4    0    0 -0.25922429404E-01 -0.19966551148E-01 -0.51392539508E-01  0.60926921382E-01  0.51100000000E-03 0.  1.
         11    1    4    4    0    0 -0.19299559468E-01 -0.39638365372E-01 -0.46857177006E-01  0.64339172850E-01  0.51100000000E-03 0. -1.
</event>
<event>
 8    1  0.1138737E+005  0.1043930E+01  0.7957747E-01            NaN
         13   -1    0    0    0    0  0.00000000000E+00  0.00000000000E+00  0.74505805969E-08  0.10566000000E+00  0.10566000000E+00 0.  1.
     999900   -1    0    0    0    0 -0.00000000000E+00 -0.00000000000E+00 -0.74505805969E-08  0.93827000000E+00  0.93827000000E+00 0.  1.
     999902    2    1    2    0    0  0.45637304719E-02 -0.22066305709E-01 -0.74968500105E-02  0.10201823213E+01  0.10199058861E+01 0.  0.
     999903    2    3    3    0    0 -0.95381921537E-01  0.43832315155E-01 -0.73159043030E-01  0.12965254348E+00  0.20941672498E-01 0.  0.
         14    1    1    2    0    0 -0.45637304719E-02  0.22066305709E-01  0.74968500105E-02  0.23747678698E-01  0.00000000000E+00 0.  1.
     999901    1    3    3    0    0  0.99945652009E-01 -0.65898620864E-01  0.65662193019E-01  0.89052977782E+00  0.88000000000E+00 0. -1.
        -11    1    4    4    0    0 -0.56650414775E-01  0.16057217537E-01 -0.46568332516E-01  0.75073127306E-01  0.51100000000E-03 0. -1.
         11    1    4    4    0    0 -0.38731506762E-01  0.27775097617E-01 -0.26590710513E-01  0.54579416178E-01  0.51100000000E-03 0.  1.
</event>
<event>
 8    1  0.1138737E+005  0.1043930E+01  0.7957747E-01            NaN
         13   -1    0    0    0    0  0.00000000000E+00  0.00000000000E+00  0.74505805969E-08  0.10566000000E+00  0.10566000000E+00 0.  1.
     999900   -1    0    0    0    0 -0.00000000000E+00 -0.00000000000E+00 -0.74505805969E-08  0.93827000000E+00  0.93827000000E+00 0. -1.
     999902    2    1    2    0    0  0.55599454359E-02 -0.18312412802E-01 -0.13639424791E-01  0.10204291199E+01  0.10201584668E+01 0.  0.
     999903    2    3    3    0    0 -0.73658205704E-01 -0.96370377739E-01 -0.49808799705E-01  0.13269223039E+00  0.20335449432E-01 0.  0.
         14    1    1    2    0    0 -0.55599454359E-02  0.18312412802E-01  0.13639424791E-01  0.23500880079E-01  0.00000000000E+00 0.  1.
     999901    1    3    3    0    0  0.79218151140E-01  0.78057964937E-01  0.36169374914E-01  0.88773688954E+00  0.88000000000E+00 0.  1.
        -11    1    4    4    0    0 -0.62311775638E-01 -0.78823121358E-01 -0.48959307542E-01  0.11177261185E+00  0.51100000000E-03 0.  1.
         11    1    4    4    0    0 -0.11346430065E-01 -0.17547256380E-01 -0.84949216255E-03  0.20919618535E-01  0.51100000000E-03 0. -1.
</event>
<event>
 8    1  0.1138737E+005  0.1043930E+01  0.7957747E-01            NaN
         13   -1    0    0    0    0  0.00000000000E+00  0.00000000000E+00  0.74505805969E-08  0.10566000000E+00  0.10566000000E+00 0.  1.
     999900   -1    0    0    0    0 -0.00000000000E+00 -0.00000000000E+00 -0.74505805969E-08  0.93827000000E+00  0.93827000000E+00 0. -1.
     999902    2    1    2    0    0 -0.13933501132E-01 -0.90360338981E-02  0.17881572797E-01  0.10195262501E+01  0.10192341398E+01 0.  0.
     999903    2    3    3    0    0  0.34535773650E-01 -0.11169919474E+00 -0.51829585127E-01  0.12949892429E+00  0.20352781894E-01 0.  0.
         14    1    1    2    0    0  0.13933501132E-01  0.90360338981E-02 -0.17881572797E-01  0.24403749878E-01  0.00000000000E+00 0. -1.
     999901    1    3    3    0    0 -0.48469274782E-01  0.10266316084E+00  0.69711157924E-01  0.89002732583E+00  0.88000000000E+00 0.  1.
        -11    1    4    4    0    0  0.68946218808E-02 -0.56484489988E-01 -0.26028675066E-01  0.62576245228E-01  0.51100000000E-03 0. -1.
         11    1    4    4    0    0  0.27641151770E-01 -0.55214704750E-01 -0.25800910061E-01  0.66922679061E-01  0.51100000000E-03 0.  1.
</event>
<event>
 8    1  0.1138737E+005  0.1043930E+01  0.7957747E-01            NaN
         13   -1    0    0    0    0  0.00000000000E+00  0.00000000000E+00  0.74505805969E-08  0.10566000000E+00  0.10566000000E+00 0. -1.
     999900   -1    0    0    0    0 -0.00000000000E+00 -0.00000000000E+00 -0.74505805969E-08  0.93827000000E+00  0.93827000000E+00 0.  1.
     999902    2    1    2    0    0 -0.11670584957E-01 -0.18732345624E-01  0.11276878569E-01  0.10191455025E+01  0.10188440921E+01 0.  0.
     999903    2    3    3    0    0  0.88734157741E-01 -0.55292695760E-01 -0.72251622106E-01  0.12875526110E+00  0.20653992601E-01 0.  0.
         14    1    1    2    0    0  0.11670584957E-01  0.18732345624E-01 -0.11276878569E-01  0.24784497495E-01  0.00000000000E+00 0.  1.
     999901    1    3    3    0    0 -0.10040474270E+00  0.36560350136E-01  0.83528500675E-01  0.89039024140E+00  0.88000000000E+00 0. -1.
        -11    1    4    4    0    0  0.20121620619E-01 -0.12680365248E-01 -0.66513428468E-02  0.24701675284E-01  0.51100000000E-03 0. -1.
         11    1    4    4    0    0  0.68612537122E-01 -0.42612330512E-01 -0.65600279260E-01  0.10405358582E+00  0.51100000000E-03 0.  1.
</event>
<event>
 8    1  0.1138737E+005  0.1043930E+01  0.7957747E-01            NaN
         13   -1    0    0    0    0  0.00000000000E+00  0.00000000000E+00  0.74505805969E-08  0.10566000000E+00  0.10566000000E+00 0. -1.
     999900   -1    0    0    0    0 -0.00000000000E+00 -0.00000000000E+00 -0.74505805969E-08  0.93827000000E+00  0.93827000000E+00 0.  1.
     999902    2    1    2    0    0  0.16482660396E-01  0.17110776094E-01  0.17216028430E-03  0.10201710776E+01  0.10198943775E+01 0.  0.
     999903    2    3    3    0    0  0.87326450122E-01 -0.94421550938E-01 -0.66209642473E-02  0.13028094451E+00  0.19696425095E-01 0.  0.
         14    1    1    2    0    0 -0.16482660396E-01 -0.17110776094E-01 -0.17216028430E-03  0.23758922355E-01  0.00000000000E+00 0. -1.
     999901    1    3    3    0    0 -0.70843789725E-01  0.11153232703E+00  0.67931245316E-02  0.88989013314E+00  0.88000000000E+00 0. -1.
        -11    1    4    4    0    0  0.44460987553E-01 -0.48600102862E-01 -0.13227343557E-01  0.67186108319E-01  0.51100000000E-03 0. -1.
         11    1    4    4    0    0  0.42865462569E-01 -0.45821448076E-01  0.66063793101E-02  0.63094836188E-01  0.51100000000E-03 0.  1.
</event>
<event>
 8    1  0.1138737E+005  0.1043930E+01  0.7957747E-01            NaN
         13   -1    0    0    0    0  0.00000000000E+00  0.00000000000E+00  0.74505805969E-08  0.10566000000E+00  0.10566000000E+00 0. -1.
     999900   -1    0    0    0    0 -0.00000000000E+00 -0.00000000000E+00 -0.74505805969E-08  0.93827000000E+00  0.93827000000E+00 0. -1.
     999902    2    1    2    0    0  0.13537423375E-01 -0.17971125750E-01  0.45861369949E-02  0.10209679477E+01  0.10207097013E+01 0.  0.
     999903    2    3    3    0    0 -0.98527358467E-01 -0.15955693730E-01 -0.80527226049E-01  0.12978510348E+00  0.19932747480E-01 0.  0.
         14    1    1    2    0    0 -0.13537423375E-01  0.17971125750E-01 -0.45861369949E-02  0.22962052279E-01  0.00000000000E+00 0.  1.
     999901    1    3    3    0    0  0.11206478184E+00 -0.20154320197E-02  0.85113363044E-01  0.89118284424E+00  0.88000000000E+00 0.  1.
        -11    1    4    4    0    0 -0.38618200751E-01 -0.55313042597E-02 -0.44170044516E-01  0.58933986032E-01  0.51100000000E-03 0. -1.
         11    1    4    4    0    0 -0.59909157716E-01 -0.10424389470E-01 -0.36357181532E-01  0.70851117451E-01  0.51100000000E-03 0.  1.
</event>
<event>
 8    1  0.1138737E+005  0.1043930E+01  0.7957747E-01            NaN
         13   -1    0    0    0    0  0.00000000000E+00  0.00000000000E+00  0.74505805969E-08  0.10566000000E+00  0.10566000000E+00 0.  1.
     999900   -1    0    0    0    0 -0.00000000000E+00 -0.00000000000E+00 -0.74505805969E-08  0.93827000000E+00  0.93827000000E+00 0.  1.
     999902    2    1    2    0    0  0.61957117768E-02  0.21452013852E-01  0.98336757176E-02  0.10195317025E+01  0.10192397242E+01 0.  0.
     999903    2    3    3    0    0 -0.28232304031E-01 -0.32914165101E-01 -0.11860576810E+00  0.12788285883E+00  0.20156688736E-01 0.  0.
         14    1    1    2    0    0 -0.61957117768E-02 -0.21452013852E-01 -0.98336757176E-02  0.24398297499E-01  0.00000000000E+00 0.  1.
     999901    1    3    3    0    0  0.34428015808E-01  0.54366178953E-01  0.12843944382E+00  0.89164884367E+00  0.88000000000E+00 0. -1.
        -11    1    4    4    0    0  0.10516153490E-02 -0.76687463508E-04 -0.18457217235E-01  0.18494371168E-01  0.51100000000E-03 0. -1.
         11    1    4    4    0    0 -0.29283919380E-01 -0.32837477638E-01 -0.10014855087E+00  0.10938848767E+00  0.51100000000E-03 0.  1.
</event>
<event>
 8    1  0.1138737E+005  0.1043930E+01  0.7957747E-01            NaN
         13   -1    0    0    0    0  0.00000000000E+00  0.00000000000E+00  0.74505805969E-08  0.10566000000E+00  0.10566000000E+00 0.  1.
     999900   -1    0    0    0    0 -0.00000000000E+00 -0.00000000000E+00 -0.74505805969E-08  0.93827000000E+00  0.93827000000E+00 0. -1.
     999902    2    1    2    0    0 -0.22621096402E-01  0.63481696667E-04 -0.64848550578E-02  0.10203976525E+01  0.10201262657E+01 0.  0.
     999903    2    3    3    0    0 -0.50394067385E-01  0.11842595659E+00 -0.22223908193E-01  0.13189963274E+00  0.18421232297E-01 0.  0.
         14    1    1    2    0    0  0.22621096402E-01 -0.63481696667E-04  0.64848550578E-02  0.23532347470E-01  0.00000000000E+00 0. -1.
     999901    1    3    3    0    0  0.27772970983E-01 -0.11836247489E+00  0.15739053136E-01  0.88849801979E+00  0.88000000000E+00 0. -1.
        -11    1    4    4    0    0 -0.41081845701E-01  0.74509171191E-01 -0.13155810478E-01  0.86096870489E-01  0.51100000000E-03 0. -1.
         11    1    4    4    0    0 -0.93122216844E-02  0.43916785399E-01 -0.90680977159E-02  0.45802762249E-01  0.51100000000E-03 0.  1.
</event>
<event>
 8    1  0.1138737E+005  0.1043930E+01  0.7957747E-01            NaN
         13   -1    0    0    0    0  0.00000000000E+00  0.00000000000E+00  0.74505805969E-08  0.10566000000E+00  0.10566000000E+00 0. -1.
     999900   -1    0    0    0    0 -0.00000000000E+00 -0.00000000000E+00 -0.74505805969E-08  0.93827000000E+00  0.93827000000E+00 0.  1.
     999902    2    1    2    0    0 -0.92567248200E-02  0.19604864635E-01  0.75495134464E-02  0.10209728045E+01  0.10207146686E+01 0.  0.
     999903    2    3    3    0    0 -0.47628445159E-01 -0.10235825499E+00  0.61321643549E-01  0.13010871080E+00  0.20548759235E-01 0.  0.
         14    1    1    2    0    0  0.92567248200E-02 -0.19604864635E-01 -0.75495134464E-02  0.22957195496E-01  0.00000000000E+00 0. -1.
     999901    1    3    3    0    0  0.38371720339E-01  0.12196311963E+00 -0.53772130102E-01  0.89086409370E+00  0.88000000000E+00 0.  1.
        -11    1    4    4    0    0 -0.19502184684E-01 -0.50089925912E-01  0.18242355770E-01  0.56766015805E-01  0.51100000000E-03 0.  1.
         11    1    4    4    0    0 -0.28126260475E-01 -0.52268329079E-01  0.43079287779E-01  0.73342694998E-01  0.51100000000E-03 0. -1.
</event>
<event>
 8    1  0.1138737E+005  0.1043930E+01  0.7957747E-01            NaN
         13   -1    0    0    0    0  0.00000000000E+00  0.00000000000E+00  0.74505805969E-08  0.10566000000E+00  0.10566000000E+00 0. -1.
     999900   -1    0    0    0    0 -0.00000000000E+00 -0.00000000000E+00 -0.74505805969E-08  0.93827000000E+00  0.93827000000E+00 0.  1.
     999902    2    1    2    0    0 -0.97934847115E-02 -0.98673434377E-02 -0.18877764895E-01  0.10204854523E+01  0.10202161102E+01 0.  0.
     999903    2    3    3    0    0  0.60733147003E-01  0.71942576052E-01 -0.88983799129E-01  0.13111391872E+00  0.20211229087E-01 0.  0.
         14    1    1    2    0    0  0.97934847115E-02  0.98673434377E-02  0.18877764895E-01  0.23444547698E-01  0.00000000000E+00 0. -1.
     999901    1    3    3    0    0 -0.70526631715E-01 -0.81809919490E-01  0.70106034234E-01  0.88937153358E+00  0.88000000000E+00 0. -1.
        -11    1    4    4    0    0  0.55635752354E-01  0.63236947818E-01 -0.69632527389E-01  0.10928494178E+00  0.51100000000E-03 0. -1.
         11    1    4    4    0    0  0.50973946492E-02  0.87056282345E-02 -0.19351271740E-01  0.21828976937E-01  0.51100000000E-03 0.  1.
</event>
<event>
 8    1  0.1138737E+005  0.1043930E+01  0.7957747E-01            NaN
         13   -1    0    0    0    0  0.00000000000E+00  0.00000000000E+00  0.74505805969E-08  0.10566000000E+00  0.10566000000E+00 0. -1.
     999900   -1    0    0    0    0 -0.00000000000E+00 -0.00000000000E+00 -0.74505805969E-08  0.93827000000E+00  0.93827000000E+00 0.  1.
     999902    2    1    2    0    0  0.14350959701E-01 -0.81384695726E-02  0.13697818776E-01  0.10224867034E+01  0.10222618273E+01 0.  0.
     999903    2    3    3    0    0  0.59837276353E-01 -0.90581287954E-01  0.77973826033E-01  0.13513264302E+00  0.19885781210E-01 0.  0.
         14    1    1    2    0    0 -0.14350959701E-01  0.81384695726E-02 -0.13697818776E-01  0.21443296634E-01  0.00000000000E+00 0.  1.
     999901    1    3    3    0    0 -0.45486316652E-01  0.82442818381E-01 -0.64276007257E-01  0.88735406035E+00  0.88000000000E+00 0.  1.
        -11    1    4    4    0    0  0.25997875340E-01 -0.26586036303E-01  0.19011453352E-01  0.41766054734E-01  0.51100000000E-03 0.  1.
         11    1    4    4    0    0  0.33839401013E-01 -0.63995251651E-01  0.58962372681E-01  0.93366588285E-01  0.51100000000E-03 0. -1.
</event>
<event>
 8    1  0.1138737E+005  0.1043930E+01  0.7957747E-01            NaN
         13   -1    0    0    0    0  0.00000000000E+00  0.00000000000E+00  0.74505805969E-08  0.10566000000E+00  0.10566000000E+00 0.  1.
     999900   -1    0    0    0    0 -0.00000000000E+00 -0.00000000000E+00 -0.74505805969E-08  0.93827000000E+00  0.93827000000E+00 0. -1.
     999902    2    1    2    0    0  0.13852753622E-01  0.22042248988E-02  0.16929386781E-01  0.10219445155E+01  0.10217079971E+01 0.  0.
     999903    2    3    3    0    0 -0.71976781848E-02  0.72548603690E-01 -0.10631788503E+00  0.13032725330E+00  0.19146639559E-01 0.  0.
         14    1    1    2    0    0 -0.13852753622E-01 -0.22042248988E-02 -0.16929386781E-01  0.21985484464E-01  0.00000000000E+00 0. -1.
     999901    1    3    3    0    0  0.21050431807E-01 -0.70344378791E-01  0.12324727181E+00  0.89161726224E+00  0.88000000000E+00 0.  1.
        -11    1    4    4    0    0 -0.31050109873E-02  0.44726807127E-01 -0.48615539839E-01  0.66135166166E-01  0.51100000000E-03 0.  1.
         11    1    4    4    0    0 -0.40926671975E-02  0.27821796563E-01 -0.57702345194E-01  0.64192087134E-01  0.51100000000E-03 0. -1.
</event>
<event>
 8    1  0.1138737E+005  0.1043930E+01  0.7957747E-01            NaN
         13   -1    0    0    0    0  0.00000000000E+00  0.00000000000E+00  0.74505805969E-08  0.10566000000E+00  0.10566000000E+00 0.  1.
     999900   -1    0    0    0    0 -0.00000000000E+00 -0.00000000000E+00 -0.74505805969E-08  0.93827000000E+00  0.93827000000E+00 0. -1.
     999902    2    1    2    0    0 -0.12545521453E-01 -0.41131246607E-02  0.19486198231E-01  0.10203923743E+01  0.10201208642E+01 0.  0.
     999903    2    3    3    0    0  0.10589947636E+00 -0.26732902599E-01 -0.63997676615E-01  0.12825425200E+00  0.20593770163E-01 0.  0.
         14    1    1    2    0    0  0.12545521453E-01  0.41131246607E-02 -0.19486198231E-01  0.23537625719E-01  0.00000000000E+00 0. -1.
     999901    1    3    3    0    0 -0.11844499782E+00  0.22619777939E-01  0.83483874846E-01  0.89213812228E+00  0.88000000000E+00 0.  1.
        -11    1    4    4    0    0  0.25961134783E-01 -0.13222855413E-01 -0.98400240292E-02  0.30755676198E-01  0.51100000000E-03 0.  1.
         11    1    4    4    0    0  0.79938341580E-01 -0.13510047187E-01 -0.54157652586E-01  0.97498575806E-01  0.51100000000E-03 0. -1.
</event>
<event>
 8    1  0.1138737E+005  0.1043930E+01  0.7957747E-01            NaN
         13   -1    0    0    0    0  0.00000000000E+00  0.00000000000E+00  0.74505805969E-08  0.10566000000E+00  0.10566000000E+00 0. -1.
     999900   -1    0    0    0    0 -0.00000000000E+00 -0.00000000000E+00 -0.74505805969E-08  0.93827000000E+00  0.93827000000E+00 0. -1.
     999902    2    1    2    0    0  0.36132527415E-02 -0.17248308235E-01 -0.15915218340E-01  0.10201843918E+01  0.10199080054E+01 0.  0.
     999903    2    3    3    0    0  0.61440877076E-01 -0.10077287386E+00 -0.58685126596E-01  0.13330804631E+00  0.19923294035E-01 0.  0.
         14    1    1    2    0    0 -0.36132527415E-02  0.17248308235E-01  0.15915218340E-01  0.23745608165E-01  0.00000000000E+00 0. -1.
     999901    1    3    3    0    0 -0.57827624335E-01  0.83524565626E-01  0.42769908257E-01  0.88687634552E+00  0.88000000000E+00 0.  1.
        -11    1    4    4    0    0  0.51862291914E-01 -0.71322732758E-01 -0.48840900033E-01  0.10080835366E+00  0.51100000000E-03 0.  1.
         11    1    4    4    0    0  0.95785851626E-02 -0.29450141103E-01 -0.98442265633E-02  0.32499692649E-01  0.51100000000E-03 0. -1.
</event>
<event>
 8    1  0.1138737E+005  0.1043930E+01  0.7957747E-01            NaN
         13   -1    0    0    0    0  0.00000000000E+00  0.00000000000E+00  0.74505805969E-08  0.10566000000E+00  0.10566000000E+00 0. -1.
     999900   -1    0    0    0    0 -0.00000000000E+00 -0.00000000000E+00 -0.74505805969E-08  0.93827000000E+00  0.93827000000E+00 0. -1.
     999902    2    1    2    0    0  0.20771503396E-01 -0.10549122343E-02  0.11863603306E-01  0.10199860388E+01  0.10197049603E+01 0.  0.
     999903    2    3    3    0    0 -0.55396066771E-01  0.69137601429E-02  0.11636131208E+00  0.13050036181E+00  0.19335593873E-01 0.  0.
         14    1    1    2    0    0 -0.20771503396E-01  0.10549122343E-02 -0.11863603306E-01  0.23943961170E-01  0.00000000000E+00 0.  1.
     999901    1    3    3    0    0  0.76167570166E-01 -0.79686723773E-02 -0.10449770877E+00  0.88948567702E+00  0.88000000000E+00 0. -1.
        -11    1    4    4    0    0 -0.28320409158E-01  0.10840371853E-01  0.75071361841E-01  0.80966225838E-01  0.51100000000E-03 0. -1.
         11    1    4    4    0    0 -0.27075657613E-01 -0.39266117102E-02  0.41289950239E-01  0.49534135972E-01  0.51100000000E-03 0.  1.
</event>
<event>
 8    1  0.1138737E+005  0.1043930E+01  0.7957747E-01            NaN
         13   -1    0    0    0    0  0.00000000000E+00  0.00000000000E+00  0.74505805969E-08  0.10566000000E+00  0.10566000000E+00 0.  1.
     999900   -1    0    0    0    0 -0.00000000000E+00 -0.00000000000E+00 -0.74505805969E-08  0.93827000000E+00  0.93827000000E+00 0. -1.
     999902    2    1    2    0    0 -0.11842966095E-01  0.20531123800E-01  0.40309699595E-02  0.10198877121E+01  0.10196042927E+01 0.  0.
     999903    2    3    3    0    0  0.10446773796E+00 -0.19712360647E-01 -0.69083393780E-01  0.12831975161E+00  0.19782768298E-01 0.  0.
         14    1    1    2    0    0  0.11842966095E-01 -0.20531123800E-01 -0.40309699595E-02  0.24042287937E-01  0.00000000000E+00 0.  1.
     999901    1    3    3    0    0 -0.11631070405E+00  0.40243484447E-01  0.73114363739E-01  0.89156796045E+00  0.88000000000E+00 0.  1.
        -11    1    4    4    0    0  0.46139232530E-01 -0.57802085021E-02 -0.19187114848E-01  0.50305527390E-01  0.51100000000E-03 0. -1.
         11    1    4    4    0    0  0.58328505427E-01 -0.13932152145E-01 -0.49896278932E-01  0.78014224223E-01  0.51100000000E-03 0.  1.
</event>
<event>
 8    1  0.1138737E+005  0.1043930E+01  0.7957747E-01            NaN
         13   -1    0    0    0    0  0.00000000000E+00  0.00000000000E+00  0.74505805969E-08  0.10566000000E+00  0.10566000000E+00 0. -1.
     999900   -1    0    0    0    0 -0.00000000000E+00 -0.00000000000E+00 -0.74505805969E-08  0.93827000000E+00  0.93827000000E+00 0.  1.
     999902    2    1    2    0    0 -0.18701345345E-01  0.13678165550E-01 -0.21202537815E-02  0.10206635433E+01  0.10203983245E+01 0.  0.
     999903    2    3    3    0    0  0.11581303489E+00  0.12020615574E-01 -0.52135643014E-01  0.12903671267E+00  0.19369917282E-01 0.  0.
         14    1    1    2    0    0  0.18701345345E-01 -0.13678165550E-01  0.21202537815E-02  0.23266456684E-01  0.00000000000E+00 0. -1.
     999901    1    3    3    0    0 -0.13451438024E+00  0.16575499762E-02  0.50015389233E-01  0.89162683064E+00  0.88000000000E+00 0.  1.
        -11    1    4    4    0    0  0.59221910551E-01 -0.33569139768E-02 -0.28450401503E-01  0.65788981049E-01  0.51100000000E-03 0.  1.
         11    1    4    4    0    0  0.56591124340E-01  0.15377529551E-01 -0.23685241511E-01  0.63247731624E-01  0.51100000000E-03 0. -1.
</event>
<event>
 8    1  0.1138737E+005  0.1043930E+01  0.7957747E-01            NaN
         13   -1    0    0    0    0  0.00000000000E+00  0.00000000000E+00  0.74505805969E-08  0.10566000000E+00  0.10566000000E+00 0.  1.
     999900   -1    0    0    0    0 -0.00000000000E+00 -0.00000000000E+00 -0.74505805969E-08  0.93827000000E+00  0.93827000000E+00 0.  1.
     999902    2    1    2    0    0 -0.85697194638E-02  0.10061993086E-01  0.19526821668E-01  0.10203507600E+01  0.10200782778E+01 0.  0.
     999903    2    3    3    0    0 -0.11526586304E+00  0.55836088434E-01  0.27970465188E-01  0.13268492758E+00  0.20470836059E-01 0.  0.
         14    1    1    2    0    0  0.85697194638E-02 -0.10061993086E-01 -0.19526821668E-01  0.23579240043E-01  0.00000000000E+00 0. -1.
     999901    1    3    3    0    0  0.10669614358E+00 -0.45774095348E-01 -0.84436435206E-02  0.88766583238E+00  0.88000000000E+00 0. -1.
        -11    1    4    4    0    0 -0.31599317307E-01  0.56745698923E-02  0.83838401343E-02  0.33185350595E-01  0.51100000000E-03 0. -1.
         11    1    4    4    0    0 -0.83666545735E-01  0.50161518541E-01  0.19586625054E-01  0.99499576982E-01  0.51100000000E-03 0.  1.
</event>
<event>
 8    1  0.1138737E+005  0.1043930E+01  0.7957747E-01            NaN
         13   -1    0    0    0    0  0.00000000000E+00  0.00000000000E+00  0.74505805969E-08  0.10566000000E+00  0.10566000000E+00 0.  1.
     999900   -1    0    0    0    0 -0.00000000000E+00 -0.00000000000E+00 -0.74505805969E-08  0.93827000000E+00  0.93827000000E+00 0. -1.
     999902    2    1    2    0    0  0.11132401940E-01 -0.15025440680E-01 -0.94891123434E-02  0.10229600812E+01  0.10227451248E+01 0.  0.
     999903    2    3    3    0    0  0.12692373412E+00 -0.24117746697E-01 -0.32521255184E-01  0.13502946330E+00  0.22000543918E-01 0.  0.
         14    1    1    2    0    0 -0.11132401940E-01  0.15025440680E-01  0.94891123434E-02  0.20969918780E-01  0.00000000000E+00 0.  1.
     999901    1    3    3    0    0 -0.11579133218E+00  0.90923060175E-02  0.23032142841E-01  0.88793061792E+00  0.88000000000E+00 0.  1.
        -11    1    4    4    0    0  0.75656971133E-01 -0.47035240994E-02 -0.13474679724E-01  0.76993042119E-01  0.51100000000E-03 0. -1.
         11    1    4    4    0    0  0.51266762983E-01 -0.19414222598E-01 -0.19046575460E-01  0.58036421182E-01  0.51100000000E-03 0.  1.
</event>
<event>
 8    1  0.1138737E+005  0.1043930E+01  0.7957747E-01            NaN
         13   -1    0    0    0    0  0.00000000000E+00  0.00000000000E+00  0.74505805969E-08  0.10566000000E+00  0.10566000000E+00 0.  1.
     999900   -1    0    0    0    0 -0.00000000000E+00 -0.00000000000E+00 -0.74505805969E-08  0.93827000000E+00  0.93827000000E+00 0.  1.
     999902    2    1    2    0    0  0.16804693518E-01  0.43352942387E-02 -0.15720842453E-01  0.10205133950E+01  0.10202447021E+01 0.  0.
     999903    2    3    3    0    0 -0.50976886126E-01  0.75363368781E-01  0.89057196005E-01  0.12887570671E+00  0.19987079485E-01 0.  0.
         14    1    1    2    0    0 -0.16804693518E-01 -0.43352942387E-02  0.15720842453E-01  0.23416604958E-01  0.00000000000E+00 0.  1.
     999901    1    3    3    0    0  0.67781579643E-01 -0.71028074543E-01 -0.10477803846E+00  0.89163768833E+00  0.88000000000E+00 0.  1.
        -11    1    4    4    0    0 -0.33675947566E-01  0.35019389594E-01  0.39062544686E-01  0.62342366095E-01  0.51100000000E-03 0. -1.
         11    1    4    4    0    0 -0.17300938560E-01  0.40343979188E-01  0.49994651319E-01  0.66533340614E-01  0.51100000000E-03 0.  1.
</event>
<event>
 8    1  0.1138737E+005  0.1043930E+01  0.7957747E-01            NaN
         13   -1    0    0    0    0  0.00000000000E+00  0.00000000000E+00  0.74505805969E-08  0.10566000000E+00  0.10566000000E+00 0. -1.
     999900   -1    0    0    0    0 -0.00000000000E+00 -0.00000000000E+00 -0.74505805969E-08  0.93827000000E+00  0.93827000000E+00 0. -1.
     999902    2    1    2    0    0  0.79083121237E-02 -0.14864137751E-01  0.16122027525E-01  0.10206189776E+01  0.10203527301E+01 0.  0.
     999903    2    3    3    0    0 -0.12366391280E+00 -0.18609753626E-01 -0.29464588492E-01  0.12966251430E+00  0.17467666754E-01 0.  0.
         14    1    1    2    0    0 -0.79083121237E-02  0.14864137751E-01 -0.16122027525E-01  0.23311022355E-01  0.00000000000E+00 0.  1.
     999901    1    3    3    0    0  0.13157222492E+00  0.37456158746E-02  0.45586616017E-01  0.89095646334E+00  0.88000000000E+00 0.  1.
        -11    1    4    4    0    0 -0.34170489958E-01 -0.17786869055E-02 -0.93169223328E-03  0.34233248202E-01  0.51100000000E-03 0. -1.
         11    1    4    4    0    0 -0.89493422841E-01 -0.16831066720E-01 -0.28532896259E-01  0.95429266101E-01  0.51100000000E-03 0.  1.
</event>
<event>
 8    1  0.1138737E+005  0.1043930E+01  0.7957747E-01            NaN
         13   -1    0    0    0    0  0.00000000000E+00  0.00000000000E+00  0.74505805969E-08  0.10566000000E+00  0.10566000000E+00 0.  1.
     999900   -1    0    0    0    0 -0.00000000000E+00 -0.00000000000E+00 -0.74505805969E-08  0.93827000000E+00  0.93827000000E+00 0. -1.
     999902    2    1    2    0    0 -0.20449922188E-01  0.59154536551E-02 -0.10086405848E-01  0.10203731010E+01  0.10201011409E+01 0.  0.
     999903    2    3    3    0    0  0.75130925856E-01 -0.14318465247E-01  0.10087273139E+00  0.12804074129E+00  0.19221056790E-01 0.  0.
         14    1    1    2    0    0  0.20449922188E-01 -0.59154536551E-02  0.10086405848E-01  0.23556899040E-01  0.00000000000E+00 0.  1.
     999901    1    3    3    0    0 -0.95580848044E-01  0.20233918902E-01 -0.11095913724E+00  0.89233235967E+00  0.88000000000E+00 0.  1.
        -11    1    4    4    0    0  0.43830015060E-01 -0.13505695019E-02  0.67400160598E-01  0.80411050408E-01  0.51100000000E-03 0. -1.
         11    1    4    4    0    0  0.31300910796E-01 -0.12967895745E-01  0.33472570790E-01  0.47629690877E-01  0.51100000000E-03 0.  1.
</event>
<event>
 8    1  0.1138737E+005  0.1043930E+01  0.7957747E-01            NaN
         13   -1    0    0    0    0  0.00000000000E+00  0.00000000000E+00  0.74505805969E-08  0.10566000000E+00  0.10566000000E+00 0.  1.
     999900   -1    0    0    0    0 -0.00000000000E+00 -0.00000000000E+00 -0.74505805969E-08  0.93827000000E+00  0.93827000000E+00 0. -1.
     999902    2    1    2    0    0  0.17992996713E-01 -0.88018824390E-02 -0.13293416564E-01  0.10198897007E+01  0.10196063288E+01 0.  0.
     999903    2    3    3    0    0 -0.76967026807E-01 -0.89938560714E-01  0.47238952657E-01  0.12901107019E+00  0.19986737199E-01 0.  0.
         14    1    1    2    0    0 -0.17992996713E-01  0.88018824390E-02  0.13293416564E-01  0.24040299273E-01  0.00000000000E+00 0.  1.
     999901    1    3    3    0    0  0.94960023520E-01  0.81136678275E-01 -0.60532369221E-01  0.89087863054E+00  0.88000000000E+00 0.  1.
        -11    1    4    4    0    0 -0.58138673847E-01 -0.64096637324E-01  0.25053965315E-01  0.90091323733E-01  0.51100000000E-03 0.  1.
         11    1    4    4    0    0 -0.18828352960E-01 -0.25841923391E-01  0.22184987343E-01  0.38919746455E-01  0.51100000000E-03 0. -1.
</event>
<event>
 8    1  0.1138737E+005  0.1043930E+01  0.7957747E-01            NaN
         13   -1    0    0    0    0  0.00000000000E+00  0.00000000000E+00  0.74505805969E-08  0.10566000000E+00  0.10566000000E+00 0.  1.
     999900   -1    0    0    0    0 -0.00000000000E+00 -0.00000000000E+00 -0.74505805969E-08  0.93827000000E+00  0.93827000000E+00 0. -1.
     999902    2    1    2    0    0  0.20898444153E-01 -0.80824432787E-02  0.73101044265E-02  0.10203607725E+01  0.10200885244E+01 0.  0.
     999903    2    3    3    0    0  0.56794185731E-01  0.96846040420E-01  0.64405391670E-01  0.13156475386E+00  0.23590144225E-01 0.  0.
         14    1    1    2    0    0 -0.20898444153E-01  0.80824432787E-02 -0.73101044265E-02  0.23569227482E-01  0.00000000000E+00 0. -1.
     999901    1    3    3    0    0 -0.35895741579E-01 -0.10492848370E+00 -0.57095287243E-01  0.88879601866E+00  0.88000000000E+00 0. -1.
        -11    1    4    4    0    0  0.12131917125E-01  0.42757048327E-01  0.21974086935E-01  0.49582962925E-01  0.51100000000E-03 0. -1.
         11    1    4    4    0    0  0.44662268606E-01  0.54088992093E-01  0.42431304735E-01  0.81981790937E-01  0.51100000000E-03 0.  1.
</event>
<event>
 8    1  0.1138737E+005  0.1043930E+01  0.7957747E-01            NaN
         13   -1    0    0    0    0  0.00000000000E+00  0.00000000000E+00  0.74505805969E-08  0.10566000000E+00  0.10566000000E+00 0.  1.
     999900   -1    0    0    0    0 -0.00000000000E+00 -0.00000000000E+00 -0.74505805969E-08  0.93827000000E+00  0.93827000000E+00 0. -1.
     999902    2    1    2    0    0 -0.20176730607E-01 -0.14163533057E-01 -0.10026317744E-01  0.10173173494E+01  0.10169692012E+01 0.  0.
     999903    2    3    3    0    0 -0.10098663042E+00 -0.81078601202E-01  0.26951335767E-02  0.13099364914E+00  0.19494442118E-01 0.  0.
         14    1    1    2    0    0  0.20176730607E-01  0.14163533057E-01  0.10026317744E-01  0.26612650641E-01  0.00000000000E+00 0. -1.
     999901    1    3    3    0    0  0.80809899810E-01  0.66915068145E-01 -0.12721451321E-01  0.88632370022E+00  0.88000000000E+00 0.  1.
        -11    1    4    4    0    0 -0.38306744984E-01 -0.41324212281E-01  0.61677517751E-02  0.56686854869E-01  0.51100000000E-03 0. -1.
         11    1    4    4    0    0 -0.62679885433E-01 -0.39754388921E-01 -0.34726181984E-02  0.74306794268E-01  0.51100000000E-03 0.  1.
</event>
<event>
 8    1  0.1138737E+005  0.1043930E+01  0.7957747E-01            NaN
         13   -1    0    0    0    0  0.00000000000E+00  0.00000000000E+00  0.74505805969E-08  0.10566000000E+00  0.10566000000E+00 0. -1.
     999900   -1    0    0    0    0 -0.00000000000E+00 -0.00000000000E+00 -0.74505805969E-08  0.93827000000E+00  0.93827000000E+00 0.  1.
     999902    2    1    2    0    0  0.13604421632E-01  0.17863439479E-01 -0.76308337247E-02  0.10202147648E+01  0.10199390932E+01 0.  0.
     999903    2    3    3    0    0  0.17237470056E-01 -0.75137703695E-01 -0.10310129849E+00  0.13017149543E+00  0.19285631500E-01 0.  0.
         14    1    1    2    0    0 -0.13604421632E-01 -0.17863439479E-01  0.76308337247E-02  0.23715235215E-01  0.00000000000E+00 0.  1.
     999901    1    3    3    0    0 -0.36330484245E-02  0.93001143174E-01  0.95470464768E-01  0.89004326935E+00  0.88000000000E+00 0. -1.
        -11    1    4    4    0    0  0.13502550276E-01 -0.24013336268E-01 -0.28377004448E-01  0.39553440875E-01  0.51100000000E-03 0.  1.
         11    1    4    4    0    0  0.37349197804E-02 -0.51124367427E-01 -0.74724294045E-01  0.90618054559E-01  0.51100000000E-03 0. -1.
</event>
<event>
 8    1  0.1138737E+005  0.1043930E+01  0.7957747E-01            NaN
         13   -1    0    0    0    0  0.00000000000E+00  0.00000000000E+00  0.74505805969E-08  0.10566000000E+00  0.10566000000E+00 0.  1.
     999900   -1    0    0    0    0 -0.00000000000E+00 -0.00000000000E+00 -0.74505805969E-08  0.93827000000E+00  0.93827000000E+00 0.  1.
     999902    2    1    2    0    0  0.33777199645E-03  0.13914891752E-01 -0.19458016603E-01  0.10200061058E+01  0.10197255039E+01 0.  0.
     999903    2    3    3    0    0  0.17572450508E-01  0.12848296691E+00 -0.17908377315E-01  0.13241088312E+00  0.19881352768E-01 0.  0.
         14    1    1    2    0    0 -0.33777199645E-03 -0.13914891752E-01  0.19458016603E-01  0.23923894176E-01  0.00000000000E+00 0.  1.
     999901    1    3    3    0    0 -0.17234678512E-01 -0.11456807516E+00 -0.15496392883E-02  0.88759522271E+00  0.88000000000E+00 0.  1.
        -11    1    4    4    0    0  0.13173512327E-01  0.34063438771E-01 -0.77944101968E-02  0.37348001811E-01  0.51100000000E-03 0. -1.
         11    1    4    4    0    0  0.43989381812E-02  0.94419528137E-01 -0.10113967118E-01  0.95062881308E-01  0.51100000000E-03 0.  1.
</event>
<event>
 8    1  0.1138737E+005  0.1043930E+01  0.7957747E-01            NaN
         13   -1    0    0    0    0  0.00000000000E+00  0.00000000000E+00  0.74505805969E-08  0.10566000000E+00  0.10566000000E+00 0.  1.
     999900   -1    0    0    0    0 -0.00000000000E+00 -0.00000000000E+00 -0.74505805969E-08  0.93827000000E+00  0.93827000000E+00 0.  1.
     999902    2    1    2    0    0  0.22345789163E-01 -0.69630812793E-02  0.49406273654E-02  0.10200087000E+01  0.10197281596E+01 0.  0.
     999903    2    3    3    0    0 -0.53059345288E-01 -0.93583942515E-01  0.70383950621E-01  0.13013683482E+00  0.20210068119E-01 0.  0.
         14    1    1    2    0    0 -0.22345789163E-01  0.69630812793E-02 -0.49406273654E-02  0.23921299985E-01  0.00000000000E+00 0. -1.
     999901    1    3    3    0    0  0.75405134451E-01  0.86620861236E-01 -0.65443323255E-01  0.88987186519E+00  0.88000000000E+00 0.  1.
        -11    1    4    4    0    0 -0.36869740771E-01 -0.73515982678E-01  0.62077045318E-01  0.10304270071E+00  0.51100000000E-03 0.  1.
         11    1    4    4    0    0 -0.16189604517E-01 -0.20067959837E-01  0.83069053028E-02  0.27094134110E-01  0.51100000000E-03 0. -1.
</event>
<event>
 8    1  0.1138737E+005  0.1043930E+01  0.7957747E-01            NaN
         13   -1    0    0    0    0  0.00000000000E+00  0.00000000000E+00  0.74505805969E-08  0.10566000000E+00  0.10566000000E+00 0.  1.
     999900   -1    0    0    0    0 -0.00000000000E+00 -0.00000000000E+00 -0.74505805969E-08  0.93827000000E+00  0.93827000000E+00 0. -1.
     999902    2    1    2    0    0  0.23187602830E-01  0.66903617047E-02 -0.45782136880E-02  0.10193660853E+01  0.10190700810E+01 0.  0.
     999903    2    3    3    0    0 -0.19144885777E-01 -0.60414973120E-01 -0.11101210953E+00  0.12940915391E+00  0.20162961713E-01 0.  0.
         14    1    1    2    0    0 -0.23187602830E-01 -0.66903617047E-02  0.45782136880E-02  0.24563914699E-01  0.00000000000E+00 0. -1.
     999901    1    3    3    0    0  0.42332488607E-01  0.67105334824E-01  0.10643389584E+00  0.88995693139E+00  0.88000000000E+00 0.  1.
        -11    1    4    4    0    0 -0.12814698248E-02 -0.36758854314E-01 -0.58428409926E-01  0.69043433742E-01  0.51100000000E-03 0.  1.
         11    1    4    4    0    0 -0.17863415952E-01 -0.23656118806E-01 -0.52583699600E-01  0.60365720165E-01  0.51100000000E-03 0. -1.
</event>
<event>
 8    1  0.1138737E+005  0.1043930E+01  0.7957747E-01            NaN
         13   -1    0    0    0    0  0.00000000000E+00  0.00000000000E+00  0.74505805969E-08  0.10566000000E+00  0.10566000000E+00 0.  1.
     999900   -1    0    0    0    0 -0.00000000000E+00 -0.00000000000E+00 -0.74505805969E-08  0.93827000000E+00  0.93827000000E+00 0. -1.
     999902    2    1    2    0    0  0.62420146601E-02 -0.17539273113E-01 -0.13907399443E-01  0.10206920008E+01  0.10204274378E+01 0.  0.
     999903    2    3    3    0    0  0.20165994141E-01  0.11065304129E+00  0.58503829540E-01  0.12835208082E+00  0.20019882920E-01 0.  0.
         14    1    1    2    0    0 -0.62420146601E-02  0.17539273113E-01  0.13907399443E-01  0.23237999217E-01  0.00000000000E+00 0. -1.
     999901    1    3    3    0    0 -0.13923979481E-01 -0.12819231441E+00 -0.72411228983E-01  0.89233991996E+00  0.88000000000E+00 0. -1.
        -11    1    4    4    0    0  0.13372216610E-01  0.40999108252E-01  0.31191779429E-01  0.53225287970E-01  0.51100000000E-03 0. -1.
         11    1    4    4    0    0  0.67937775318E-02  0.69653933043E-01  0.27312050111E-01  0.75126792849E-01  0.51100000000E-03 0.  1.
</event>
<event>
 8    1  0.1138737E+005  0.1043930E+01  0.7957747E-01            NaN
         13   -1    0    0    0    0  0.00000000000E+00  0.00000000000E+00  0.74505805969E-08  0.10566000000E+00  0.10566000000E+00 0.  1.
     999900   -1    0    0    0    0 -0.00000000000E+00 -0.00000000000E+00 -0.74505805969E-08  0.93827000000E+00  0.93827000000E+00 0.  1.
     999902    2    1    2    0    0  0.48465815856E-02 -0.10680239171E-01  0.19858714102E-01  0.10208664923E+01  0.10206059326E+01 0.  0.
     999903    2    3    3    0    0  0.81280767867E-01  0.22068884939E-01  0.10119527734E+00  0.13321209644E+00  0.20282494310E-01 0.  0.
         14    1    1    2    0    0 -0.48465815856E-02  0.10680239171E-01 -0.19858714102E-01  0.23063507704E-01  0.00000000000E+00 0. -1.
     999901    1    3    3    0    0 -0.76434186281E-01 -0.32749124110E-01 -0.81336563234E-01  0.88765439586E+00  0.88000000000E+00 0.  1.
        -11    1    4    4    0    0  0.67412122190E-01  0.14756853164E-01  0.70015031176E-01  0.98308314221E-01  0.51100000000E-03 0.  1.
         11    1    4    4    0    0  0.13868645677E-01  0.73120317759E-02  0.31180246160E-01  0.34903782220E-01  0.51100000000E-03 0. -1.
</event>
<event>
 8    1  0.1138737E+005  0.1043930E+01  0.7957747E-01            NaN
         13   -1    0    0    0    0  0.00000000000E+00  0.00000000000E+00  0.74505805969E-08  0.10566000000E+00  0.10566000000E+00 0.  1.
     999900   -1    0    0    0    0 -0.00000000000E+00 -0.00000000000E+00 -0.74505805969E-08  0.93827000000E+00  0.93827000000E+00 0.  1.
     999902    2    1    2    0    0 -0.21419585001E-01 -0.38988444407E-02 -0.10385956514E-01  0.10198080660E+01  0.10195227431E+01 0.  0.
     999903    2    3    3    0    0 -0.74452464125E-01  0.26342571650E-01  0.10203199537E+00  0.13055848039E+00  0.19947135777E-01 0.  0.
         14    1    1    2    0    0  0.21419585001E-01  0.38988444407E-02  0.10385956514E-01  0.24121934049E-01  0.00000000000E+00 0. -1.
     999901    1    3    3    0    0  0.53032879125E-01 -0.30241416091E-01 -0.11241795189E+00  0.88924958556E+00  0.88000000000E+00 0.  1.
        -11    1    4    4    0    0 -0.54818916120E-01  0.26983467589E-01  0.84118098234E-01  0.10396795977E+00  0.51100000000E-03 0.  1.
         11    1    4    4    0    0 -0.19633548005E-01 -0.64089593823E-03  0.17913897141E-01  0.26590520617E-01  0.51100000000E-03 0. -1.
</event>
<event>
 8    1  0.1138737E+005  0.1043930E+01  0.7957747E-01            NaN
         13   -1    0    0    0    0  0.00000000000E+00  0.00000000000E+00  0.74505805969E-08  0.10566000000E+00  0.10566000000E+00 0.  1.
     999900   -1    0    0    0    0 -0.00000000000E+00 -0.00000000000E+00 -0.74505805969E-08  0.93827000000E+00  0.93827000000E+00 0. -1.
     999902    2    1    2    0    0 -0.18730638164E-02  0.17327398968E-01  0.14816895857E-01  0.10210545213E+01  0.10207982406E+01 0.  0.
     999903    2    3    3    0    0  0.59227722758E-01 -0.46678448630E-01 -0.10268029193E+00  0.12884622511E+00  0.19269319233E-01 0.  0.
         14    1    1    2    0    0  0.18730638164E-02 -0.17327398968E-01 -0.14816895857E-01  0.22875478702E-01  0.00000000000E+00 0. -1.
     999901    1    3    3    0    0 -0.61100786574E-01  0.64005847598E-01  0.11749718779E+00  0.89220829619E+00  0.88000000000E+00 0.  1.
        -11    1    4    4    0    0  0.30969229195E-01 -0.16343558902E-01 -0.59080379018E-01  0.68680109060E-01  0.51100000000E-03 0. -1.
         11    1    4    4    0    0  0.28258493563E-01 -0.30334889728E-01 -0.43599912917E-01  0.60166116050E-01  0.51100000000E-03 0.  1.
</event>
<event>
 8    1  0.1138737E+005  0.1043930E+01  0.7957747E-01            NaN
         13   -1    0    0    0    0  0.00000000000E+00  0.00000000000E+00  0.74505805969E-08  0.10566000000E+00  0.10566000000E+00 0. -1.
     999900   -1    0    0    0    0 -0.00000000000E+00 -0.00000000000E+00 -0.74505805969E-08  0.93827000000E+00  0.93827000000E+00 0. -1.
     999902    2    1    2    0    0 -0.18961791417E-02  0.87548751471E-02  0.23006238330E-01  0.10192413318E+01  0.10189422762E+01 0.  0.
     999903    2    3    3    0    0  0.37970412852E-03  0.10051548927E+00  0.83609627233E-01  0.13239412926E+00  0.20835737060E-01 0.  0.
         14    1    1    2    0    0  0.18961791417E-02 -0.87548751471E-02 -0.23006238330E-01  0.24688668175E-01  0.00000000000E+00 0.  1.
     999901    1    3    3    0    0 -0.22758832702E-02 -0.91760614121E-01 -0.60603388904E-01  0.88684720256E+00  0.88000000000E+00 0. -1.
        -11    1    4    4    0    0  0.49180718021E-03  0.39106754137E-01  0.19821252057E-01  0.43848868258E-01  0.51100000000E-03 0.  1.
         11    1    4    4    0    0 -0.11210305169E-03  0.61408735131E-01  0.63788375177E-01  0.88545261003E-01  0.51100000000E-03 0. -1.
</event>
<event>
 8    1  0.1138737E+005  0.1043930E+01  0.7957747E-01            NaN
         13   -1    0    0    0    0  0.00000000000E+00  0.00000000000E+00  0.74505805969E-08  0.10566000000E+00  0.10566000000E+00 0. -1.
     999900   -1    0    0    0    0 -0.00000000000E+00 -0.00000000000E+00 -0.74505805969E-08  0.93827000000E+00  0.93827000000E+00 0.  1.
     999902    2    1    2    0    0 -0.16489514522E-01  0.56504081661E-02  0.15981708747E-01  0.10202816128E+01  0.10200075114E+01 0.  0.
     999903    2    3    3    0    0 -0.51895807724E-01  0.82092173690E-01  0.89042566140E-01  0.13324450086E+00  0.19829739895E-01 0.  0.
         14    1    1    2    0    0  0.16489514522E-01 -0.56504081661E-02 -0.15981708747E-01  0.23648387178E-01  0.00000000000E+00 0.  1.
     999901    1    3    3    0    0  0.35406293201E-01 -0.76441765524E-01 -0.73060857393E-01  0.88703711196E+00  0.88000000000E+00 0.  1.
        -11    1    4    4    0    0 -0.17950315473E-02  0.90579721512E-02  0.15831990292E-01  0.18335267529E-01  0.51100000000E-03 0. -1.
         11    1    4    4    0    0 -0.50100776176E-01  0.73034201539E-01  0.73210575849E-01  0.11490923333E+00  0.51100000000E-03 0.  1.
</event>
<event>
 8    1  0.1138737E+005  0.1043930E+01  0.7957747E-01            NaN
         13   -1    0    0    0    0  0.00000000000E+00  0.00000000000E+00  0.74505805969E-08  0.10566000000E+00  0.10566000000E+00 0.  1.
     999900   -1    0    0    0    0 -0.00000000000E+00 -0.00000000000E+00 -0.74505805969E-08  0.93827000000E+00  0.93827000000E+00 0.  1.
     999902    2    1    2    0    0 -0.72240315901E-02 -0.20534170576E-01  0.75152503167E-02  0.10209013704E+01  0.10206416072E+01 0.  0.
     999903    2    3    3    0    0 -0.14929399020E-02  0.87078121763E-03  0.13047651667E+00  0.13207602738E+00  0.20419806009E-01 0.  0.
         14    1    1    2    0    0  0.72240315901E-02  0.20534170576E-01 -0.75152503167E-02  0.23028629594E-01  0.00000000000E+00 0. -1.
     999901    1    3    3    0    0 -0.57310916881E-02 -0.21404951793E-01 -0.12296126636E+00  0.88882534302E+00  0.88000000000E+00 0.  1.
        -11    1    4    4    0    0 -0.78960527650E-02  0.77046922829E-02  0.65089806604E-01  0.66020102827E-01  0.51100000000E-03 0.  1.
         11    1    4    4    0    0  0.64031128630E-02 -0.68339110653E-02  0.65386710068E-01  0.66055924558E-01  0.51100000000E-03 0. -1.
</event>
<event>
 8    1  0.1138737E+005  0.1043930E+01  0.7957747E-01            NaN
         13   -1    0    0    0    0  0.00000000000E+00  0.00000000000E+00  0.74505805969E-08  0.10566000000E+00  0.10566000000E+00 0. -1.
     999900   -1    0    0    0    0 -0.00000000000E+00 -0.00000000000E+00 -0.74505805969E-08  0.93827000000E+00  0.93827000000E+00 0.  1.
     999902    2    1    2    0    0  0.15113294587E-01  0.14056962764E-01 -0.56196771660E-02  0.10225386315E+01  0.10223148547E+01 0.  0.
     999903    2    3    3    0    0  0.96688507512E-01  0.87280122341E-01 -0.31080709516E-01  0.13537212478E+00  0.19827113290E-01 0.  0.
         14    1    1    2    0    0 -0.15113294587E-01 -0.14056962764E-01  0.56196771660E-02  0.21391368513E-01  0.00000000000E+00 0. -1.
     999901    1    3    3    0    0 -0.81575212925E-01 -0.73223159577E-01  0.25461032350E-01  0.88716650671E+00  0.88000000000E+00 0.  1.
        -11    1    4    4    0    0  0.33711217435E-01  0.34696736240E-01 -0.23308736283E-02  0.48435563169E-01  0.51100000000E-03 0.  1.
         11    1    4    4    0    0  0.62977290077E-01  0.52583386100E-01 -0.28749835888E-01  0.86936561606E-01  0.51100000000E-03 0. -1.
</event>
<event>
 8    1  0.1138737E+005  0.1043930E+01  0.7957747E-01            NaN
         13   -1    0    0    0    0  0.00000000000E+00  0.00000000000E+00  0.74505805969E-08  0.10566000000E+00  0.10566000000E+00 0. -1.
     999900   -1    0    0    0    0 -0.00000000000E+00 -0.00000000000E+00 -0.74505805969E-08  0.93827000000E+00  0.93827000000E+00 0.  1.
     999902    2    1    2    0    0  0.65366893775E-02 -0.82102741521E-02 -0.21647825074E-01  0.10198724598E+01  0.10195886764E+01 0.  0.
     999903    2    3    3    0    0 -0.21378891964E-01  0.62585214458E-02  0.12376109589E+00  0.12738583244E+00  0.20349824059E-01 0.  0.
         14    1    1    2    0    0 -0.65366893775E-02  0.82102741521E-02  0.21647825074E-01  0.24057540192E-01  0.00000000000E+00 0. -1.
     999901    1    3    3    0    0  0.27915581341E-01 -0.14468795598E-01 -0.14540892096E+00  0.89248662736E+00  0.88000000000E+00 0.  1.
        -11    1    4    4    0    0 -0.62867061847E-02  0.90097603508E-02  0.84798930361E-01  0.85509170079E-01  0.51100000000E-03 0. -1.
         11    1    4    4    0    0 -0.15092185779E-01 -0.27512389050E-02  0.38962165529E-01  0.41876662365E-01  0.51100000000E-03 0.  1.
</event>
<event>
 8    1  0.1138737E+005  0.1043930E+01  0.7957747E-01            NaN
         13   -1    0    0    0    0  0.00000000000E+00  0.00000000000E+00  0.74505805969E-08  0.10566000000E+00  0.10566000000E+00 0.  1.
     999900   -1    0    0    0    0 -0.00000000000E+00 -0.00000000000E+00 -0.74505805969E-08  0.93827000000E+00  0.93827000000E+00 0.  1.
     999902    2    1    2    0    0 -0.20799179763E-01 -0.12266185537E-01  0.64083955836E-02  0.10189473516E+01  0.10186410421E+01 0.  0.
     999903    2    3    3    0    0 -0.44018116543E-02 -0.57320336499E-01  0.11583870756E+00  0.13087430091E+00  0.20111676938E-01 0.  0.
         14    1    1    2    0    0  0.20799179763E-01  0.12266185537E-01 -0.64083955836E-02  0.24982648387E-01  0.00000000000E+00 0. -1.
     999901    1    3    3    0    0 -0.16397368109E-01  0.45054150962E-01 -0.10943031197E+00  0.88807305070E+00  0.88000000000E+00 0.  1.
        -11    1    4    4    0    0 -0.95985784942E-02 -0.45689420315E-01  0.77566575671E-01  0.90534471999E-01  0.51100000000E-03 0. -1.
         11    1    4    4    0    0  0.51967668399E-02 -0.11630916185E-01  0.38272131885E-01  0.40339828916E-01  0.51100000000E-03 0.  1.
</event>
<event>
 8    1  0.1138737E+005  0.1043930E+01  0.7957747E-01            NaN
         13   -1    0    0    0    0  0.00000000000E+00  0.00000000000E+00  0.74505805969E-08  0.10566000000E+00  0.10566000000E+00 0.  1.
     999900   -1    0    0    0    0 -0.00000000000E+00 -0.00000000000E+00 -0.74505805969E-08  0.93827000000E+00  0.93827000000E+00 0. -1.
     999902    2    1    2    0    0  0.11718150350E-01 -0.19839833669E-02  0.19544071096E-01  0.10210559546E+01  0.10207997064E+01 0.  0.
     999903    2    3    3    0    0  0.69160073827E-01 -0.81747970489E-01  0.73518786591E-01  0.13393976260E+00  0.32695588873E-01 0.  0.
         14    1    1    2    0    0 -0.11718150350E-01  0.19839833669E-02 -0.19544071096E-01  0.22874045393E-01  0.00000000000E+00 0. -1.
     999901    1    3    3    0    0 -0.57441923477E-01  0.79763987122E-01 -0.53974715494E-01  0.88711619201E+00  0.88000000000E+00 0.  1.
        -11    1    4    4    0    0  0.42318872692E-01 -0.36124627948E-01  0.21293973179E-01  0.59578269067E-01  0.51100000000E-03 0.  1.
         11    1    4    4    0    0  0.26841201135E-01 -0.45623342540E-01  0.52224813412E-01  0.74361493529E-01  0.51100000000E-03 0. -1.
</event>
<event>
 8    1  0.1138737E+005  0.1043930E+01  0.7957747E-01            NaN
         13   -1    0    0    0    0  0.00000000000E+00  0.00000000000E+00  0.74505805969E-08  0.10566000000E+00  0.10566000000E+00 0. -1.
     999900   -1    0    0    0    0 -0.00000000000E+00 -0.00000000000E+00 -0.74505805969E-08  0.93827000000E+00  0.93827000000E+00 0. -1.
     999902    2    1    2    0    0 -0.16640600087E-01  0.17033415105E-01 -0.19397743923E-02  0.10200383796E+01  0.10197585431E+01 0.  0.
     999903    2    3    3    0    0  0.51686888010E-02  0.11008819593E+00  0.69707114880E-01  0.13196849829E+00  0.20260218413E-01 0.  0.
         14    1    1    2    0    0  0.16640600087E-01 -0.17033415105E-01  0.19397743923E-02  0.23891620416E-01  0.00000000000E+00 0. -1.
     999901    1    3    3    0    0 -0.21809288888E-01 -0.93054780822E-01 -0.71646889273E-01  0.88806988129E+00  0.88000000000E+00 0. -1.
        -11    1    4    4    0    0  0.11657950462E-01  0.40383128765E-01  0.25195349734E-01  0.49007873521E-01  0.51100000000E-03 0. -1.
         11    1    4    4    0    0 -0.64892616611E-02  0.69705067162E-01  0.44511765147E-01  0.82960624771E-01  0.51100000000E-03 0.  1.
</event>
<event>
 7    1  0.1138737E+005  0.1043930E+01  0.7957747E-01            NaN
         13   -1    0    0    0    0  0.00000000000E+00  0.00000000000E+00  0.74505805969E-08  0.10566000000E+00  0.10566000000E+00 0. -1.
     999900   -1    0    0    0    0 -0.00000000000E+00 -0.00000000000E+00 -0.74505805969E-08  0.93827000000E+00  0.93827000000E+00 0. -1.
     999903    2    1    2    0    0  0.88872875418E-01  0.38852421634E-01 -0.72218910073E-02  0.99615360182E-01  0.21521283016E-01 0.  0.
         14    1    1    2    0    0 -0.19941689710E-01 -0.29100592150E-01  0.49231510308E-01  0.60566137892E-01  0.00000000000E+00 0. -1.
     999901    1    1    2    0    0 -0.68931185708E-01 -0.97518294836E-02 -0.42009619301E-01  0.88374850193E+00  0.88000000000E+00 0. -1.
        -11    1    3    3    0    0  0.79632636746E-01  0.29606218828E-01 -0.11757832375E-01  0.85769416295E-01  0.51100000000E-03 0. -1.
         11    1    3    3    0    0  0.92402386718E-02  0.92462028059E-02  0.45359413674E-02  0.13845943887E-01  0.51100000000E-03 0.  1.
</event>
<event>
 8    1  0.1138737E+005  0.1043930E+01  0.7957747E-01            NaN
         13   -1    0    0    0    0  0.00000000000E+00  0.00000000000E+00  0.74505805969E-08  0.10566000000E+00  0.10566000000E+00 0.  1.
     999900   -1    0    0    0    0 -0.00000000000E+00 -0.00000000000E+00 -0.74505805969E-08  0.93827000000E+00  0.93827000000E+00 0.  1.
     999902    2    1    2    0    0  0.72453849080E-02  0.83794353643E-02  0.20783334201E-01  0.10203788319E+01  0.10201070057E+01 0.  0.
     999903    2    3    3    0    0 -0.93645903046E-01 -0.80550287543E-01  0.30302474947E-01  0.13011024227E+00  0.27432301664E-01 0.  0.
         14    1    1    2    0    0 -0.72453849080E-02 -0.83794353643E-02 -0.20783334201E-01  0.23551168124E-01  0.00000000000E+00 0. -1.
     999901    1    3    3    0    0  0.10089128795E+00  0.88929722907E-01 -0.95191407454E-02  0.89026858961E+00  0.88000000000E+00 0. -1.
        -11    1    4    4    0    0 -0.94427326512E-02 -0.85690221057E-02 -0.52032159440E-02  0.13781433776E-01  0.51100000000E-03 0.  1.
         11    1    4    4    0    0 -0.84203170395E-01 -0.71981265437E-01  0.35505690891E-01  0.11632880849E+00  0.51100000000E-03 0. -1.
</event>
<event>
 8    1  0.1138737E+005  0.1043930E+01  0.7957747E-01            NaN
         13   -1    0    0    0    0  0.00000000000E+00  0.00000000000E+00  0.74505805969E-08  0.10566000000E+00  0.10566000000E+00 0.  1.
     999900   -1    0    0    0    0 -0.00000000000E+00 -0.00000000000E+00 -0.74505805969E-08  0.93827000000E+00  0.93827000000E+00 0.  1.
     999902    2    1    2    0    0  0.60212490735E-02  0.17276575489E-01  0.93493371837E-02  0.10233838177E+01  0.10231775470E+01 0.  0.
     999903    2    3    3    0    0 -0.10846200283E+00  0.53080592108E-01  0.54751736838E-01  0.13408649933E+00  0.19997032313E-01 0.  0.
         14    1    1    2    0    0 -0.60212490735E-02 -0.17276575489E-01 -0.93493371837E-02  0.20546182293E-01  0.00000000000E+00 0. -1.
     999901    1    3    3    0    0  0.11448325190E+00 -0.35804016619E-01 -0.45402399655E-01  0.88929731837E+00  0.88000000000E+00 0.  1.
        -11    1    4    4    0    0 -0.51596947476E-01  0.16864867142E-01  0.31537384042E-01  0.62781656921E-01  0.51100000000E-03 0. -1.
         11    1    4    4    0    0 -0.56865055349E-01  0.36215724967E-01  0.23214352796E-01  0.71304842412E-01  0.51100000000E-03 0.  1.
</event>
<event>
 8    1  0.1138737E+005  0.1043930E+01  0.7957747E-01            NaN
         13   -1    0    0    0    0  0.00000000000E+00  0.00000000000E+00  0.74505805969E-08  0.10566000000E+00  0.10566000000E+00 0.  1.
     999900   -1    0    0    0    0 -0.00000000000E+00 -0.00000000000E+00 -0.74505805969E-08  0.93827000000E+00  0.93827000000E+00 0. -1.
     999902    2    1    2    0    0 -0.93923090518E-02 -0.17447321476E-01 -0.66158228790E-02  0.10230399639E+01  0.10228266589E+01 0.  0.
     999903    2    3    3    0    0 -0.63421466371E-01 -0.96508337131E-02  0.11468372528E+00  0.13304360691E+00  0.20804410790E-01 0.  0.
         14    1    1    2    0    0  0.93923090518E-02  0.17447321476E-01  0.66158228790E-02  0.20890036102E-01  0.00000000000E+00 0.  1.
     999901    1    3    3    0    0  0.54029157319E-01 -0.77964877625E-02 -0.12129954816E+00  0.88999635698E+00  0.88000000000E+00 0. -1.
        -11    1    4    4    0    0 -0.30473976010E-01  0.58223318241E-02  0.51768463372E-01  0.60355593631E-01  0.51100000000E-03 0.  1.
         11    1    4    4    0    0 -0.32947490361E-01 -0.15473165537E-01  0.62915261909E-01  0.72688013282E-01  0.51100000000E-03 0. -1.
</event>
<event>
 8    1  0.1138737E+005  0.1043930E+01  0.7957747E-01            NaN
         13   -1    0    0    0    0  0.00000000000E+00  0.00000000000E+00  0.74505805969E-08  0.10566000000E+00  0.10566000000E+00 0. -1.
     999900   -1    0    0    0    0 -0.00000000000E+00 -0.00000000000E+00 -0.74505805969E-08  0.93827000000E+00  0.93827000000E+00 0.  1.
     999902    2    1    2    0    0 -0.14041878835E-01 -0.67547058097E-02  0.17796149174E-01  0.10202761771E+01  0.10200019482E+01 0.  0.
     999903    2    3    3    0    0  0.69983422205E-01  0.10351506909E+00  0.26684741713E-01  0.12937849413E+00  0.20338888614E-01 0.  0.
         14    1    1    2    0    0  0.14041878835E-01  0.67547058097E-02 -0.17796149174E-01  0.23653822888E-01  0.00000000000E+00 0.  1.
     999901    1    3    3    0    0 -0.84025301040E-01 -0.11026977490E+00 -0.88885925382E-02  0.89089768299E+00  0.88000000000E+00 0. -1.
        -11    1    4    4    0    0  0.67346996552E-01  0.93814523152E-01  0.19768322934E-01  0.11716582442E+00  0.51100000000E-03 0. -1.
         11    1    4    4    0    0  0.26364256537E-02  0.97005459369E-02  0.69164187782E-02  0.12212669709E-01  0.51100000000E-03 0.  1.
</event>
<event>
 8    1  0.1138737E+005  0.1043930E+01  0.7957747E-01            NaN
         13   -1    0    0    0    0  0.00000000000E+00  0.00000000000E+00  0.74505805969E-08  0.10566000000E+00  0.10566000000E+00 0. -1.
     999900   -1    0    0    0    0 -0.00000000000E+00 -0.00000000000E+00 -0.74505805969E-08  0.93827000000E+00  0.93827000000E+00 0.  1.
     999902    2    1    2    0    0  0.11799851187E-01  0.11402165721E-01  0.21811349196E-01  0.10166356631E+01  0.10162692019E+01 0.  0.
     999903    2    3    3    0    0 -0.11344269209E-02 -0.50215821169E-02  0.12738307721E+00  0.13007916477E+00  0.25838682906E-01 0.  0.
         14    1    1    2    0    0 -0.11799851187E-01 -0.11402165721E-01 -0.21811349196E-01  0.27294336865E-01  0.00000000000E+00 0.  1.
     999901    1    3    3    0    0  0.12934278108E-01  0.16423747838E-01 -0.10557172802E+00  0.88655649837E+00  0.88000000000E+00 0.  1.
        -11    1    4    4    0    0 -0.93009025881E-02 -0.12132857578E-01  0.82445444369E-01  0.83852402710E-01  0.51100000000E-03 0. -1.
         11    1    4    4    0    0  0.81664756671E-02  0.71112754610E-02  0.44937632845E-01  0.46226762056E-01  0.51100000000E-03 0.  1.
</event>
<event>
 8    1  0.1138737E+005  0.1043930E+01  0.7957747E-01            NaN
         13   -1    0    0    0    0  0.00000000000E+00  0.00000000000E+00  0.74505805969E-08  0.10566000000E+00  0.10566000000E+00 0.  1.
     999900   -1    0    0    0    0 -0.00000000000E+00 -0.00000000000E+00 -0.74505805969E-08  0.93827000000E+00  0.93827000000E+00 0.  1.
     999902    2    1    2    0    0 -0.59218549389E-02  0.22662104602E-01  0.11304692095E-03  0.10205066755E+01  0.10202378265E+01 0.  0.
     999903    2    3    3    0    0  0.72228001920E-01  0.91427807595E-01  0.59830705458E-01  0.13236123652E+00  0.19074992942E-01 0.  0.
         14    1    1    2    0    0  0.59218549389E-02 -0.22662104602E-01 -0.11304692095E-03  0.23423324498E-01  0.00000000000E+00 0.  1.
     999901    1    3    3    0    0 -0.78149856859E-01 -0.68765702993E-01 -0.59717658537E-01  0.88814543898E+00  0.88000000000E+00 0.  1.
        -11    1    4    4    0    0  0.42624502420E-01  0.45831728352E-01  0.22948479697E-01  0.66665503611E-01  0.51100000000E-03 0. -1.
         11    1    4    4    0    0  0.29603499500E-01  0.45596079243E-01  0.36882225761E-01  0.65695732914E-01  0.51100000000E-03 0.  1.
</event>
<event>
 8    1  0.1138737E+005  0.1043930E+01  0.7957747E-01            NaN
         13   -1    0    0    0    0  0.00000000000E+00  0.00000000000E+00  0.74505805969E-08  0.10566000000E+00  0.10566000000E+00 0.  1.
     999900   -1    0    0    0    0 -0.00000000000E+00 -0.00000000000E+00 -0.74505805969E-08  0.93827000000E+00  0.93827000000E+00 0.  1.
     999902    2    1    2    0    0 -0.17527677403E-01 -0.61180500043E-02  0.14485994937E-01  0.10203823024E+01  0.10201105573E+01 0.  0.
     999903    2    3    3    0    0 -0.43961103277E-01  0.66550628505E-01  0.10387082406E+00  0.13248078171E+00  0.20011113792E-01 0.  0.
         14    1    1    2    0    0  0.17527677403E-01  0.61180500043E-02 -0.14485994937E-01  0.23547697559E-01  0.00000000000E+00 0. -1.
     999901    1    3    3    0    0  0.26433425873E-01 -0.72668678510E-01 -0.89384829125E-01  0.88790152073E+00  0.88000000000E+00 0. -1.
        -11    1    4    4    0    0 -0.13843648845E-01  0.10236957663E-01  0.31952939128E-01  0.36300046218E-01  0.51100000000E-03 0. -1.
         11    1    4    4    0    0 -0.30117454432E-01  0.56313670843E-01  0.71917884935E-01  0.96180735492E-01  0.51100000000E-03 0.  1.
</event>
<event>
 8    1  0.1138737E+005  0.1043930E+01  0.7957747E-01            NaN
         13   -1    0    0    0    0  0.00000000000E+00  0.00000000000E+00  0.74505805969E-08  0.10566000000E+00  0.10566000000E+00 0. -1.
     999900   -1    0    0    0    0 -0.00000000000E+00 -0.00000000000E+00 -0.74505805969E-08  0.93827000000E+00  0.93827000000E+00 0.  1.
     999902    2    1    2    0    0 -0.23889216973E-02  0.23800414924E-01  0.56357701961E-02  0.10193550411E+01  0.10190587673E+01 0.  0.
     999903    2    3    3    0    0 -0.81216211839E-01 -0.90331208561E-01  0.35618758377E-01  0.12798601053E+00  0.18865912024E-01 0.  0.
         14    1    1    2    0    0  0.23889216973E-02 -0.23800414924E-01 -0.56357701961E-02  0.24574958863E-01  0.00000000000E+00 0.  1.
     999901    1    3    3    0    0  0.78827290142E-01  0.11413162349E+00 -0.29982988181E-01  0.89136903061E+00  0.88000000000E+00 0.  1.
        -11    1    4    4    0    0 -0.16394521665E-01 -0.11098765987E-01  0.11163005491E-01  0.22734044067E-01  0.51100000000E-03 0.  1.
         11    1    4    4    0    0 -0.64821690175E-01 -0.79232442574E-01  0.24455752886E-01  0.10525196646E+00  0.51100000000E-03 0. -1.
</event>
<event>
 8    1  0.1138737E+005  0.1043930E+01  0.7957747E-01            NaN
         13   -1    0    0    0    0  0.00000000000E+00  0.00000000000E+00  0.74505805969E-08  0.10566000000E+00  0.10566000000E+00 0. -1.
     999900   -1    0    0    0    0 -0.00000000000E+00 -0.00000000000E+00 -0.74505805969E-08  0.93827000000E+00  0.93827000000E+00 0.  1.
     999902    2    1    2    0    0  0.15893829179E-01  0.36895643648E-02  0.16462465737E-01  0.10207515732E+01  0.10204883805E+01 0.  0.
     999903    2    3    3    0    0  0.10259841750E+00  0.67424045241E-01  0.48559191399E-01  0.13361574961E+00  0.20560552617E-01 0.  0.
         14    1    1    2    0    0 -0.15893829179E-01 -0.36895643648E-02 -0.16462465737E-01  0.23178426808E-01  0.00000000000E+00 0. -1.
     999901    1    3    3    0    0 -0.86704588320E-01 -0.63734480876E-01 -0.32096725662E-01  0.88713582358E+00  0.88000000000E+00 0.  1.
        -11    1    4    4    0    0  0.46382303176E-01  0.33505204734E-01  0.11999232540E-01  0.58465027963E-01  0.51100000000E-03 0. -1.
         11    1    4    4    0    0  0.56216114322E-01  0.33918840507E-01  0.36559958859E-01  0.75150721644E-01  0.51100000000E-03 0.  1.
</event>
<event>
 8    1  0.1138737E+005  0.1043930E+01  0.7957747E-01            NaN
         13   -1    0    0    0    0  0.00000000000E+00  0.00000000000E+00  0.74505805969E-08  0.10566000000E+00  0.10566000000E+00 0.  1.
     999900   -1    0    0    0    0 -0.00000000000E+00 -0.00000000000E+00 -0.74505805969E-08  0.93827000000E+00  0.93827000000E+00 0. -1.
     999902    2    1    2    0    0  0.41747950907E-02  0.42416858465E-02 -0.22775735737E-01  0.10203895040E+01  0.10201179270E+01 0.  0.
     999903    2    3    3    0    0 -0.13407675251E-01 -0.10930285101E+00 -0.69340959658E-01  0.13169955516E+00  0.20241668611E-01 0.  0.
         14    1    1    2    0    0 -0.41747950907E-02 -0.42416858465E-02  0.22775735737E-01  0.23540495985E-01  0.00000000000E+00 0.  1.
     999901    1    3    3    0    0  0.17582470342E-01  0.11354453686E+00  0.46565223922E-01  0.88868994885E+00  0.88000000000E+00 0.  1.
        -11    1    4    4    0    0 -0.11031488788E-01 -0.23262861709E-01 -0.13225587004E-01  0.28948778081E-01  0.51100000000E-03 0. -1.
         11    1    4    4    0    0 -0.23761864635E-02 -0.86039989305E-01 -0.56115372654E-01  0.10275077708E+00  0.51100000000E-03 0.  1.
</event>
<event>
 8    1  0.1168487E+005  0.1043930E+01  0.7957747E-01            NaN
         13   -1    0    0    0    0  0.00000000000E+00  0.00000000000E+00  0.74505805969E-08  0.10566000000E+00  0.10566000000E+00 0.  1.
     999900   -1    0    0    0    0 -0.00000000000E+00 -0.00000000000E+00 -0.74505805969E-08  0.93827000000E+00  0.93827000000E+00 0. -1.
     999902    2    1    2    0    0 -0.14443854809E-01 -0.18785588680E-01  0.49198673946E-02  0.10197281741E+01  0.10194409353E+01 0.  0.
     999903    2    3    3    0    0 -0.11814346419E+00 -0.53254392119E-01 -0.19341486186E-01  0.13263724260E+00  0.20606713154E-01 0.  0.
         14    1    1    2    0    0  0.14443854809E-01  0.18785588680E-01 -0.49198673946E-02  0.24201825943E-01  0.00000000000E+00 0. -1.
     999901    1    3    3    0    0  0.10369960938E+00  0.34468803438E-01  0.24261353581E-01  0.88709093146E+00  0.88000000000E+00 0.  1.
        -11    1    4    4    0    0 -0.59297080744E-01 -0.37329398987E-01 -0.68424028919E-02  0.70403887760E-01  0.51100000000E-03 0.  1.
         11    1    4    4    0    0 -0.58846383441E-01 -0.15924993132E-01 -0.12499083294E-01  0.62233354840E-01  0.51100000000E-03 0. -1.
</event>
<event>
 8    1  0.1138737E+005  0.1043930E+01  0.7957747E-01            NaN
         13   -1    0    0    0    0  0.00000000000E+00  0.00000000000E+00  0.74505805969E-08  0.10566000000E+00  0.10566000000E+00 0.  1.
     999900   -1    0    0    0    0 -0.00000000000E+00 -0.00000000000E+00 -0.74505805969E-08  0.93827000000E+00  0.93827000000E+00 0. -1.
     999902    2    1    2    0    0 -0.88346020126E-03 -0.16485867974E-01 -0.17339787109E-01  0.10199877244E+01  0.10197066859E+01 0.  0.
     999903    2    3    3    0    0 -0.10655767702E+00 -0.22378817621E-01  0.67247332045E-01  0.12961884146E+00  0.20578881970E-01 0.  0.
         14    1    1    2    0    0  0.88346020126E-03  0.16485867974E-01  0.17339787109E-01  0.23942275618E-01  0.00000000000E+00 0. -1.
     999901    1    3    3    0    0  0.10567421682E+00  0.58929496475E-02 -0.84587119154E-01  0.89036888293E+00  0.88000000000E+00 0. -1.
        -11    1    4    4    0    0 -0.34071525042E-01 -0.10385491695E-01  0.11645239677E-01  0.37477993337E-01  0.51100000000E-03 0.  1.
         11    1    4    4    0    0 -0.72486151979E-01 -0.11993325926E-01  0.55602092368E-01  0.92140848119E-01  0.51100000000E-03 0. -1.
</event>
