<event>
 8    1  0.1061722E+005  0.1043930E+01  0.7957747E-01            NaN
         13   -1    0    0    0    0  0.00000000000E+00  0.00000000000E+00  0.74505805969E-08  0.10566000000E+00  0.10566000000E+00 0.  1.
     999900   -1    0    0    0    0 -0.00000000000E+00 -0.00000000000E+00 -0.74505805969E-08  0.93827000000E+00  0.93827000000E+00 0.  1.
     999902    2    1    2    0    0  0.16382239185E-01 -0.13816857225E-01 -0.85902918705E-02  0.10208415523E+01  0.10205804223E+01 0.  0.
     999903    2    3    3    0    0  0.34723080575E-01  0.44426047391E-01 -0.11790707834E+00  0.13197779319E+00  0.18349189628E-01 0.  0.
         14    1    1    2    0    0 -0.16382239185E-01  0.13816857225E-01  0.85902918705E-02  0.23088447733E-01  0.00000000000E+00 0.  1.
     999901    1    3    3    0    0 -0.18340841390E-01 -0.58242904616E-01  0.10931678647E+00  0.88886375908E+00  0.88000000000E+00 0. -1.
        -11    1    4    4    0    0  0.10955158269E-01  0.28277688470E-01 -0.66297806635E-01  0.72906127613E-01  0.51100000000E-03 0.  1.
         11    1    4    4    0    0  0.23767922306E-01  0.16148358921E-01 -0.51609271707E-01  0.59071665574E-01  0.51100000000E-03 0. -1.
</event>
<event>
 8    1  0.1061722E+005  0.1043930E+01  0.7957747E-01            NaN
         13   -1    0    0    0    0  0.00000000000E+00  0.00000000000E+00  0.74505805969E-08  0.10566000000E+00  0.10566000000E+00 0. -1.
     999900   -1    0    0    0    0 -0.00000000000E+00 -0.00000000000E+00 -0.74505805969E-08  0.93827000000E+00  0.93827000000E+00 0.  1.
     999902    2    1    2    0    0 -0.70579379386E-02  0.18874129116E-01 -0.11872802982E-01  0.10205417404E+01  0.10202737050E+01 0.  0.
     999903    2    3    3    0    0 -0.11547541448E+00  0.19178836808E-01 -0.59097788381E-01  0.13263147390E+00  0.19903772129E-01 0.  0.
         14    1    1    2    0    0  0.70579379386E-02 -0.18874129116E-01  0.11872802982E-01  0.23388259629E-01  0.00000000000E+00 0. -1.
     999901    1    3    3    0    0  0.10841747654E+00 -0.30470769221E-03  0.47224985399E-01  0.88791026648E+00  0.88000000000E+00 0. -1.
        -11    1    4    4    0    0 -0.94602820984E-01  0.12898494059E-01 -0.55775584282E-01  0.11057685929E+00  0.51100000000E-03 0.  1.
         11    1    4    4    0    0 -0.20872593498E-01  0.62803427487E-02 -0.33222040994E-02  0.22054614607E-01  0.51100000000E-03 0. -1.
</event>
<event>
 8    1  0.1061722E+005  0.1043930E+01  0.7957747E-01            NaN
         13   -1    0    0    0    0  0.00000000000E+00  0.00000000000E+00  0.74505805969E-08  0.10566000000E+00  0.10566000000E+00 0.  1.
     999900   -1    0    0    0    0 -0.00000000000E+00 -0.00000000000E+00 -0.74505805969E-08  0.93827000000E+00  0.93827000000E+00 0.  1.
     999902    2    1    2    0    0  0.22423086710E-01 -0.45176088950E-02  0.18570817924E-02  0.10209810924E+01  0.10207231450E+01 0.  0.
     999903    2    3    3    0    0 -0.53073363927E-02 -0.11673508833E-01 -0.12859010303E+00  0.13090432531E+00  0.20882747884E-01 0.  0.
         14    1    1    2    0    0 -0.22423086710E-01  0.45176088950E-02 -0.18570817924E-02  0.22948907611E-01  0.00000000000E+00 0.  1.
     999901    1    3    3    0    0  0.27730423103E-01  0.71558999379E-02  0.13044718482E+00  0.89007676708E+00  0.88000000000E+00 0. -1.
        -11    1    4    4    0    0  0.65166748832E-02 -0.86635697792E-02 -0.38860219837E-01  0.40347271279E-01  0.51100000000E-03 0. -1.
         11    1    4    4    0    0 -0.11824011276E-01 -0.30099390536E-02 -0.89729883192E-01  0.90557054029E-01  0.51100000000E-03 0.  1.
</event>
<event>
 8    1  0.1061722E+005  0.1043930E+01  0.7957747E-01            NaN
         13   -1    0    0    0    0  0.00000000000E+00  0.00000000000E+00  0.74505805969E-08  0.10566000000E+00  0.10566000000E+00 0. -1.
     999900   -1    0    0    0    0 -0.00000000000E+00 -0.00000000000E+00 -0.74505805969E-08  0.93827000000E+00  0.93827000000E+00 0. -1.
     999902    2    1    2    0    0 -0.14881561524E-01 -0.17910246347E-01 -0.60718083140E-02  0.10198654066E+01  0.10195814548E+01 0.  0.
     999903    2    3    3    0    0 -0.34905086578E-01  0.12039770117E+00 -0.20826517657E-01  0.12871573831E+00  0.20494534261E-01 0.  0.
         14    1    1    2    0    0  0.14881561524E-01  0.17910246347E-01  0.60718083140E-02  0.24064593365E-01  0.00000000000E+00 0.  1.
     999901    1    3    3    0    0  0.20023525054E-01 -0.13830794752E+00  0.14754709343E-01  0.89114966832E+00  0.88000000000E+00 0.  1.
        -11    1    4    4    0    0 -0.23360589866E-01  0.72473210744E-01 -0.22461665934E-01  0.79390622821E-01  0.51100000000E-03 0. -1.
         11    1    4    4    0    0 -0.11544496712E-01  0.47924490431E-01  0.16351482770E-02  0.49325115492E-01  0.51100000000E-03 0.  1.
</event>
<event>
 8    1  0.1061722E+005  0.1043930E+01  0.7957747E-01            NaN
         13   -1    0    0    0    0  0.00000000000E+00  0.00000000000E+00  0.74505805969E-08  0.10566000000E+00  0.10566000000E+00 0. -1.
     999900   -1    0    0    0    0 -0.00000000000E+00 -0.00000000000E+00 -0.74505805969E-08  0.93827000000E+00  0.93827000000E+00 0. -1.
     999902    2    1    2    0    0  0.24725873560E-02 -0.11379907068E-01  0.17384045541E-01  0.10230058271E+01  0.10227918171E+01 0.  0.
     999903    2    3    3    0    0  0.11321232057E+00  0.56828779243E-01 -0.27304384849E-01  0.13232475665E+00  0.26791269332E-01 0.  0.
         14    1    1    2    0    0 -0.24725873560E-02  0.11379907068E-01 -0.17384045541E-01  0.20924172922E-01  0.00000000000E+00 0.  1.
     999901    1    3    3    0    0 -0.11073973321E+00 -0.68208686312E-01  0.44688430390E-01  0.89068107042E+00  0.88000000000E+00 0. -1.
        -11    1    4    4    0    0  0.45629628496E-01  0.34757872739E-01 -0.20447391768E-01  0.60897698357E-01  0.51100000000E-03 0. -1.
         11    1    4    4    0    0  0.67582692074E-01  0.22070906505E-01 -0.68569930810E-02  0.71427058297E-01  0.51100000000E-03 0.  1.
</event>
<event>
 8    1  0.1061722E+005  0.1043930E+01  0.7957747E-01            NaN
         13   -1    0    0    0    0  0.00000000000E+00  0.00000000000E+00  0.74505805969E-08  0.10566000000E+00  0.10566000000E+00 0. -1.
     999900   -1    0    0    0    0 -0.00000000000E+00 -0.00000000000E+00 -0.74505805969E-08  0.93827000000E+00  0.93827000000E+00 0. -1.
     999902    2    1    2    0    0  0.10479047162E-01  0.37989486576E-02 -0.26945873121E-01  0.10147697099E+01  0.10143506502E+01 0.  0.
     999903    2    3    3    0    0 -0.92042743100E-01  0.81598405123E-01  0.66870890383E-02  0.12477271606E+00  0.19832983572E-01 0.  0.
         14    1    1    2    0    0 -0.10479047162E-01 -0.37989486576E-02  0.26945873121E-01  0.29160290097E-01  0.00000000000E+00 0. -1.
     999901    1    3    3    0    0  0.10252179026E+00 -0.77799456465E-01 -0.33632962159E-01  0.88999699384E+00  0.88000000000E+00 0. -1.
        -11    1    4    4    0    0 -0.51430520721E-01  0.32384976855E-01  0.38213937116E-02  0.60899502120E-01  0.51100000000E-03 0. -1.
         11    1    4    4    0    0 -0.40612222379E-01  0.49213428268E-01  0.28656953268E-02  0.63873213941E-01  0.51100000000E-03 0.  1.
</event>
<event>
 8    1  0.1061722E+005  0.1043930E+01  0.7957747E-01            NaN
         13   -1    0    0    0    0  0.00000000000E+00  0.00000000000E+00  0.74505805969E-08  0.10566000000E+00  0.10566000000E+00 0.  1.
     999900   -1    0    0    0    0 -0.00000000000E+00 -0.00000000000E+00 -0.74505805969E-08  0.93827000000E+00  0.93827000000E+00 0. -1.
     999902    2    1    2    0    0 -0.38162071918E-02  0.11643991482E-01 -0.20293649674E-01  0.10202239208E+01  0.10199484645E+01 0.  0.
     999903    2    3    3    0    0 -0.96549831881E-01  0.33621238019E-01  0.77505180257E-01  0.12969198107E+00  0.18992085293E-01 0.  0.
         14    1    1    2    0    0  0.38162071918E-02 -0.11643991482E-01  0.20293649674E-01  0.23706079222E-01  0.00000000000E+00 0.  1.
     999901    1    3    3    0    0  0.92733624689E-01 -0.21977246537E-01 -0.97798829931E-01  0.89053193971E+00  0.88000000000E+00 0. -1.
        -11    1    4    4    0    0 -0.86932796536E-01  0.23646495968E-01  0.66143118467E-01  0.11176601061E+00  0.51100000000E-03 0. -1.
         11    1    4    4    0    0 -0.96170353454E-02  0.99747420505E-02  0.11362061790E-01  0.17925970460E-01  0.51100000000E-03 0.  1.
</event>
<event>
 8    1  0.1061722E+005  0.1043930E+01  0.7957747E-01            NaN
         13   -1    0    0    0    0  0.00000000000E+00  0.00000000000E+00  0.74505805969E-08  0.10566000000E+00  0.10566000000E+00 0.  1.
     999900   -1    0    0    0    0 -0.00000000000E+00 -0.00000000000E+00 -0.74505805969E-08  0.93827000000E+00  0.93827000000E+00 0.  1.
     999902    2    1    2    0    0  0.21316316364E-02 -0.26219535232E-01  0.14292211063E-01  0.10139921447E+01  0.10135500947E+01 0.  0.
     999903    2    3    3    0    0 -0.67990604276E-01  0.38287582212E-01 -0.91885601704E-01  0.12250348855E+00  0.21805496668E-01 0.  0.
         14    1    1    2    0    0 -0.21316316364E-02  0.26219535232E-01 -0.14292211063E-01  0.29937855272E-01  0.00000000000E+00 0. -1.
     999901    1    3    3    0    0  0.70122235912E-01 -0.64507117444E-01  0.10617781277E+00  0.89148865618E+00  0.88000000000E+00 0. -1.
        -11    1    4    4    0    0 -0.22318330231E-01  0.24136903436E-01 -0.42888186769E-01  0.54040315109E-01  0.51100000000E-03 0. -1.
         11    1    4    4    0    0 -0.45672274045E-01  0.14150678776E-01 -0.48997414935E-01  0.68463173440E-01  0.51100000000E-03 0.  1.
</event>
<event>
 8    1  0.1061722E+005  0.1043930E+01  0.7957747E-01            NaN
         13   -1    0    0    0    0  0.00000000000E+00  0.00000000000E+00  0.74505805969E-08  0.10566000000E+00  0.10566000000E+00 0.  1.
     999900   -1    0    0    0    0 -0.00000000000E+00 -0.00000000000E+00 -0.74505805969E-08  0.93827000000E+00  0.93827000000E+00 0.  1.
     999902    2    1    2    0    0  0.14314153451E-01 -0.14635703733E-01 -0.11167255587E-01  0.10206103428E+01  0.10203438957E+01 0.  0.
     999903    2    3    3    0    0  0.59316975329E-01  0.64293922849E-03  0.11448285858E+00  0.13041562139E+00  0.19570193148E-01 0.  0.
         14    1    1    2    0    0 -0.14314153451E-01  0.14635703733E-01  0.11167255587E-01  0.23319657162E-01  0.00000000000E+00 0. -1.
     999901    1    3    3    0    0 -0.45002821878E-01 -0.15278642962E-01 -0.12565011417E+00  0.89019472145E+00  0.88000000000E+00 0.  1.
        -11    1    4    4    0    0  0.54383625100E-01  0.64179779367E-02  0.10267441121E+00  0.11636608165E+00  0.51100000000E-03 0.  1.
         11    1    4    4    0    0  0.49333502294E-02 -0.57750387082E-02  0.11808447370E-01  0.14049539739E-01  0.51100000000E-03 0. -1.
</event>
<event>
 8    1  0.1061722E+005  0.1043930E+01  0.7957747E-01            NaN
         13   -1    0    0    0    0  0.00000000000E+00  0.00000000000E+00  0.74505805969E-08  0.10566000000E+00  0.10566000000E+00 0. -1.
     999900   -1    0    0    0    0 -0.00000000000E+00 -0.00000000000E+00 -0.74505805969E-08  0.93827000000E+00  0.93827000000E+00 0. -1.
     999902    2    1    2    0    0 -0.16595984303E-01  0.16029625338E-01 -0.59992476784E-02  0.10200895605E+01  0.10198109358E+01 0.  0.
     999903    2    3    3    0    0 -0.28356888358E-01  0.19460726404E-01  0.12288838644E+00  0.13061661905E+00  0.27862387945E-01 0.  0.
         14    1    1    2    0    0  0.16595984303E-01 -0.16029625338E-01  0.59992476784E-02  0.23840439513E-01  0.00000000000E+00 0. -1.
     999901    1    3    3    0    0  0.11760904055E-01 -0.34311010653E-02 -0.12888763411E+00  0.88947294144E+00  0.88000000000E+00 0. -1.
        -11    1    4    4    0    0 -0.12982041516E-01 -0.32231566539E-02  0.67540586118E-01  0.68854295690E-01  0.51100000000E-03 0. -1.
         11    1    4    4    0    0 -0.15374846842E-01  0.22683883058E-01  0.55347800317E-01  0.61762323361E-01  0.51100000000E-03 0.  1.
</event>
<event>
 8    1  0.1061722E+005  0.1043930E+01  0.7957747E-01            NaN
         13   -1    0    0    0    0  0.00000000000E+00  0.00000000000E+00  0.74505805969E-08  0.10566000000E+00  0.10566000000E+00 0.  1.
     999900   -1    0    0    0    0 -0.00000000000E+00 -0.00000000000E+00 -0.74505805969E-08  0.93827000000E+00  0.93827000000E+00 0.  1.
     999902    2    1    2    0    0  0.22413452807E-01 -0.45076214117E-02  0.53717508776E-02  0.10204451703E+01  0.10201748911E+01 0.  0.
     999903    2    3    3    0    0  0.48241105976E-01  0.63959792956E-01 -0.10168468960E+00  0.13094197418E+00  0.19696829245E-01 0.  0.
         14    1    1    2    0    0 -0.22413452807E-01  0.45076214117E-02 -0.53717508776E-02  0.23484829678E-01  0.00000000000E+00 0. -1.
     999901    1    3    3    0    0 -0.25827653169E-01 -0.68467414368E-01  0.10705644048E+00  0.88950319614E+00  0.88000000000E+00 0. -1.
        -11    1    4    4    0    0  0.33615599924E-01  0.46043473952E-01 -0.85283181844E-01  0.10258407419E+00  0.51100000000E-03 0.  1.
         11    1    4    4    0    0  0.14625506052E-01  0.17916319005E-01 -0.16401507757E-01  0.28357899987E-01  0.51100000000E-03 0. -1.
</event>
<event>
 8    1  0.1061722E+005  0.1043930E+01  0.7957747E-01            NaN
         13   -1    0    0    0    0  0.00000000000E+00  0.00000000000E+00  0.74505805969E-08  0.10566000000E+00  0.10566000000E+00 0. -1.
     999900   -1    0    0    0    0 -0.00000000000E+00 -0.00000000000E+00 -0.74505805969E-08  0.93827000000E+00  0.93827000000E+00 0. -1.
     999902    2    1    2    0    0 -0.17524448389E-01  0.12030665147E-01  0.10116234787E-01  0.10203889422E+01  0.10201173521E+01 0.  0.
     999903    2    3    3    0    0 -0.89345726288E-01  0.31803586814E-02 -0.93869338123E-01  0.13131660362E+00  0.20971987503E-01 0.  0.
         14    1    1    2    0    0  0.17524448389E-01 -0.12030665147E-01 -0.10116234787E-01  0.23541057782E-01  0.00000000000E+00 0.  1.
     999901    1    3    3    0    0  0.71821277898E-01  0.88503064661E-02  0.10398557291E+00  0.88907233860E+00  0.88000000000E+00 0.  1.
        -11    1    4    4    0    0 -0.12731259094E-01  0.20211233430E-02 -0.46593866609E-02  0.13716446433E-01  0.51100000000E-03 0. -1.
         11    1    4    4    0    0 -0.76614467194E-01  0.11592353384E-02 -0.89209951462E-01  0.11760015719E+00  0.51100000000E-03 0.  1.
</event>
<event>
 8    1  0.1061722E+005  0.1043930E+01  0.7957747E-01            NaN
         13   -1    0    0    0    0  0.00000000000E+00  0.00000000000E+00  0.74505805969E-08  0.10566000000E+00  0.10566000000E+00 0. -1.
     999900   -1    0    0    0    0 -0.00000000000E+00 -0.00000000000E+00 -0.74505805969E-08  0.93827000000E+00  0.93827000000E+00 0.  1.
     999902    2    1    2    0    0 -0.14082496300E-01 -0.18188416366E-01 -0.78907457269E-02  0.10196113023E+01  0.10193212490E+01 0.  0.
     999903    2    3    3    0    0  0.36783034536E-01  0.93569927976E-01 -0.77299245188E-01  0.12837913859E+00  0.19942589263E-01 0.  0.
         14    1    1    2    0    0  0.14082496300E-01  0.18188416366E-01  0.78907457269E-02  0.24318697746E-01  0.00000000000E+00 0. -1.
     999901    1    3    3    0    0 -0.50865530836E-01 -0.11175834434E+00  0.69408499461E-01  0.89123216367E+00  0.88000000000E+00 0.  1.
        -11    1    4    4    0    0  0.27982842283E-01  0.62886544675E-01 -0.63321315576E-01  0.93528643156E-01  0.51100000000E-03 0.  1.
         11    1    4    4    0    0  0.88001922530E-02  0.30683383302E-01 -0.13977929612E-01  0.34850495431E-01  0.51100000000E-03 0. -1.
</event>
<event>
 8    1  0.1061722E+005  0.1043930E+01  0.7957747E-01            NaN
         13   -1    0    0    0    0  0.00000000000E+00  0.00000000000E+00  0.74505805969E-08  0.10566000000E+00  0.10566000000E+00 0.  1.
     999900   -1    0    0    0    0 -0.00000000000E+00 -0.00000000000E+00 -0.74505805969E-08  0.93827000000E+00  0.93827000000E+00 0. -1.
     999902    2    1    2    0    0  0.12862833769E-01 -0.17305293484E-01  0.96529853070E-02  0.10203057370E+01  0.10200322011E+01 0.  0.
     999903    2    3    3    0    0 -0.56780697169E-02 -0.17054600925E-01 -0.12693625845E+00  0.12957544707E+00  0.18811775210E-01 0.  0.
         14    1    1    2    0    0 -0.12862833769E-01  0.17305293484E-01 -0.96529853070E-02  0.23624262962E-01  0.00000000000E+00 0. -1.
     999901    1    3    3    0    0  0.18540903486E-01 -0.25069255885E-03  0.13658924376E+00  0.89073028996E+00  0.88000000000E+00 0.  1.
        -11    1    4    4    0    0  0.40827892661E-02 -0.44359318883E-03 -0.53241537524E-01  0.53402138366E-01  0.51100000000E-03 0.  1.
         11    1    4    4    0    0 -0.97608589829E-02 -0.16611007737E-01 -0.73694720927E-01  0.76173308708E-01  0.51100000000E-03 0. -1.
</event>
<event>
 8    1  0.1061722E+005  0.1043930E+01  0.7957747E-01            NaN
         13   -1    0    0    0    0  0.00000000000E+00  0.00000000000E+00  0.74505805969E-08  0.10566000000E+00  0.10566000000E+00 0.  1.
     999900   -1    0    0    0    0 -0.00000000000E+00 -0.00000000000E+00 -0.74505805969E-08  0.93827000000E+00  0.93827000000E+00 0. -1.
     999902    2    1    2    0    0 -0.16575132960E-01 -0.16365561785E-01  0.68640996278E-02  0.10196466207E+01  0.10193574195E+01 0.  0.
     999903    2    3    3    0    0  0.90321951107E-01  0.79270459593E-01 -0.35451016076E-01  0.12703035145E+00  0.20930242046E-01 0.  0.
         14    1    1    2    0    0  0.16575132960E-01  0.16365561785E-01 -0.68640996278E-02  0.24283379272E-01  0.00000000000E+00 0.  1.
     999901    1    3    3    0    0 -0.10689708407E+00 -0.95636021378E-01  0.42315115704E-01  0.89261626928E+00  0.88000000000E+00 0. -1.
        -11    1    4    4    0    0  0.34671422811E-01  0.24284886737E-01 -0.21788947287E-01  0.47611790855E-01  0.51100000000E-03 0. -1.
         11    1    4    4    0    0  0.55650528296E-01  0.54985572856E-01 -0.13662068789E-01  0.79418560592E-01  0.51100000000E-03 0.  1.
</event>
<event>
 8    1  0.1061722E+005  0.1043930E+01  0.7957747E-01            NaN
         13   -1    0    0    0    0  0.00000000000E+00  0.00000000000E+00  0.74505805969E-08  0.10566000000E+00  0.10566000000E+00 0. -1.
     999900   -1    0    0    0    0 -0.00000000000E+00 -0.00000000000E+00 -0.74505805969E-08  0.93827000000E+00  0.93827000000E+00 0. -1.
     999902    2    1    2    0    0  0.21277917391E-01  0.78164899645E-02  0.11046121974E-01  0.10187136542E+01  0.10184015147E+01 0.  0.
     999903    2    3    3    0    0 -0.10180459090E+00  0.51203113274E-01 -0.52286468285E-01  0.12683769877E+00  0.19183157330E-01 0.  0.
         14    1    1    2    0    0 -0.21277917391E-01 -0.78164899645E-02 -0.11046121974E-01  0.25216345780E-01  0.00000000000E+00 0.  1.
     999901    1    3    3    0    0  0.12308250829E+00 -0.43386623310E-01  0.63332590259E-01  0.89187595545E+00  0.88000000000E+00 0. -1.
        -11    1    4    4    0    0 -0.99182816915E-01  0.47404753036E-01 -0.46353480889E-01  0.11930359631E+00  0.51100000000E-03 0. -1.
         11    1    4    4    0    0 -0.26217739845E-02  0.37983602384E-02 -0.59329873961E-02  0.75341024528E-02  0.51100000000E-03 0.  1.
</event>
<event>
 8    1  0.1061722E+005  0.1043930E+01  0.7957747E-01            NaN
         13   -1    0    0    0    0  0.00000000000E+00  0.00000000000E+00  0.74505805969E-08  0.10566000000E+00  0.10566000000E+00 0.  1.
     999900   -1    0    0    0    0 -0.00000000000E+00 -0.00000000000E+00 -0.74505805969E-08  0.93827000000E+00  0.93827000000E+00 0. -1.
     999902    2    1    2    0    0  0.61355105994E-02  0.42537810968E-02 -0.18791655468E-01  0.10237095782E+01  0.10235098607E+01 0.  0.
     999903    2    3    3    0    0  0.11546257722E+00  0.39154692076E-01 -0.55932638696E-01  0.13548104129E+00  0.19025136773E-01 0.  0.
         14    1    1    2    0    0 -0.61355105994E-02 -0.42537810968E-02  0.18791655468E-01  0.20220421834E-01  0.00000000000E+00 0.  1.
     999901    1    3    3    0    0 -0.10932706662E+00 -0.34900910980E-01  0.37140983228E-01  0.88822853687E+00  0.88000000000E+00 0.  1.
        -11    1    4    4    0    0  0.48419694218E-01  0.17935639648E-01 -0.33968021497E-01  0.61808102731E-01  0.51100000000E-03 0.  1.
         11    1    4    4    0    0  0.67042882997E-01  0.21219052428E-01 -0.21964617199E-01  0.73672938561E-01  0.51100000000E-03 0. -1.
</event>
<event>
 8    1  0.1061722E+005  0.1043930E+01  0.7957747E-01            NaN
         13   -1    0    0    0    0  0.00000000000E+00  0.00000000000E+00  0.74505805969E-08  0.10566000000E+00  0.10566000000E+00 0. -1.
     999900   -1    0    0    0    0 -0.00000000000E+00 -0.00000000000E+00 -0.74505805969E-08  0.93827000000E+00  0.93827000000E+00 0.  1.
     999902    2    1    2    0    0  0.76885098854E-02 -0.39199361570E-02  0.22251231884E-01  0.10200637811E+01  0.10197845464E+01 0.  0.
     999903    2    3    3    0    0 -0.16295493578E-01  0.54075248574E-01 -0.11276287883E+00  0.12755748759E+00  0.19125119086E-01 0.  0.
         14    1    1    2    0    0 -0.76885098854E-02  0.39199361570E-02 -0.22251231884E-01  0.23866218889E-01  0.00000000000E+00 0.  1.
     999901    1    3    3    0    0  0.23984003464E-01 -0.57995184731E-01  0.13501411071E+00  0.89250629352E+00  0.88000000000E+00 0. -1.
        -11    1    4    4    0    0  0.19788334103E-02  0.59246922495E-02 -0.25224892530E-01  0.25991808018E-01  0.51100000000E-03 0.  1.
         11    1    4    4    0    0 -0.18274326989E-01  0.48150556325E-01 -0.87537986300E-01  0.10156567958E+00  0.51100000000E-03 0. -1.
</event>
<event>
 8    1  0.1061722E+005  0.1043930E+01  0.7957747E-01            NaN
         13   -1    0    0    0    0  0.00000000000E+00  0.00000000000E+00  0.74505805969E-08  0.10566000000E+00  0.10566000000E+00 0.  1.
     999900   -1    0    0    0    0 -0.00000000000E+00 -0.00000000000E+00 -0.74505805969E-08  0.93827000000E+00  0.93827000000E+00 0. -1.
     999902    2    1    2    0    0 -0.14220577298E-01 -0.33577857185E-02 -0.19464899697E-01  0.10195911039E+01  0.10193005628E+01 0.  0.
     999903    2    3    3    0    0 -0.20597034482E-01  0.49767606532E-01 -0.11920015891E+00  0.13234249812E+00  0.20119802100E-01 0.  0.
         14    1    1    2    0    0  0.14220577298E-01  0.33577857185E-02  0.19464899697E-01  0.24338896110E-01  0.00000000000E+00 0.  1.
     999901    1    3    3    0    0  0.63764571844E-02 -0.53125392250E-01  0.99735259209E-01  0.88724860577E+00  0.88000000000E+00 0.  1.
        -11    1    4    4    0    0 -0.24611094421E-01  0.41153291390E-01 -0.97959367210E-01  0.10906694323E+00  0.51100000000E-03 0.  1.
         11    1    4    4    0    0  0.40140599383E-02  0.86143151424E-02 -0.21240791697E-01  0.23275554891E-01  0.51100000000E-03 0. -1.
</event>
<event>
 8    1  0.1061722E+005  0.1043930E+01  0.7957747E-01            NaN
         13   -1    0    0    0    0  0.00000000000E+00  0.00000000000E+00  0.74505805969E-08  0.10566000000E+00  0.10566000000E+00 0.  1.
     999900   -1    0    0    0    0 -0.00000000000E+00 -0.00000000000E+00 -0.74505805969E-08  0.93827000000E+00  0.93827000000E+00 0. -1.
     999902    2    1    2    0    0 -0.25663116081E-01  0.20877753757E-02 -0.10920646116E-01  0.10159618959E+01  0.10155768603E+01 0.  0.
     999903    2    3    3    0    0 -0.87326277347E-01  0.72006882882E-01 -0.60837937127E-01  0.12963082744E+00  0.17088795481E-01 0.  0.
         14    1    1    2    0    0  0.25663116081E-01 -0.20877753757E-02  0.10920646116E-01  0.27968104058E-01  0.00000000000E+00 0.  1.
     999901    1    3    3    0    0  0.61663161266E-01 -0.69919107506E-01  0.49917291011E-01  0.88633106850E+00  0.88000000000E+00 0. -1.
        -11    1    4    4    0    0 -0.61827472900E-01  0.58084030095E-01 -0.50847164573E-01  0.98904429746E-01  0.51100000000E-03 0. -1.
         11    1    4    4    0    0 -0.25498804447E-01  0.13922852786E-01 -0.99907725539E-02  0.30726397693E-01  0.51100000000E-03 0.  1.
</event>
<event>
 8    1  0.1061722E+005  0.1043930E+01  0.7957747E-01            NaN
         13   -1    0    0    0    0  0.00000000000E+00  0.00000000000E+00  0.74505805969E-08  0.10566000000E+00  0.10566000000E+00 0.  1.
     999900   -1    0    0    0    0 -0.00000000000E+00 -0.00000000000E+00 -0.74505805969E-08  0.93827000000E+00  0.93827000000E+00 0. -1.
     999902    2    1    2    0    0  0.56838756042E-02 -0.31050528949E-01 -0.10540199405E-01  0.10106503126E+01  0.10101022308E+01 0.  0.
     999903    2    3    3    0    0  0.11881135285E+00 -0.20032946389E-01  0.17195537964E-01  0.12290683368E+00  0.17115686717E-01 0.  0.
         14    1    1    2    0    0 -0.56838756042E-02  0.31050528949E-01  0.10540199405E-01  0.33279687399E-01  0.00000000000E+00 0.  1.
     999901    1    3    3    0    0 -0.11312747725E+00 -0.11017582560E-01 -0.27735737369E-01  0.88774347892E+00  0.88000000000E+00 0. -1.
        -11    1    4    4    0    0  0.26327271456E-01  0.24455792716E-02  0.19712041806E-02  0.26518914895E-01  0.51100000000E-03 0.  1.
         11    1    4    4    0    0  0.92484081399E-01 -0.22478525661E-01  0.15224333784E-01  0.96387918788E-01  0.51100000000E-03 0. -1.
</event>
<event>
 8    1  0.1061722E+005  0.1043930E+01  0.7957747E-01            NaN
         13   -1    0    0    0    0  0.00000000000E+00  0.00000000000E+00  0.74505805969E-08  0.10566000000E+00  0.10566000000E+00 0.  1.
     999900   -1    0    0    0    0 -0.00000000000E+00 -0.00000000000E+00 -0.74505805969E-08  0.93827000000E+00  0.93827000000E+00 0.  1.
     999902    2    1    2    0    0  0.15233951480E-01 -0.12812008138E-01  0.12936232358E-01  0.10201904352E+01  0.10199141910E+01 0.  0.
     999903    2    3    3    0    0  0.19597101613E-01  0.29025884981E-02  0.12917512329E+00  0.13239684127E+00  0.21218852227E-01 0.  0.
         14    1    1    2    0    0 -0.15233951480E-01  0.12812008138E-01 -0.12936232358E-01  0.23739564820E-01  0.00000000000E+00 0.  1.
     999901    1    3    3    0    0 -0.43631501336E-02 -0.15714596636E-01 -0.11623889093E+00  0.88779359391E+00  0.88000000000E+00 0.  1.
        -11    1    4    4    0    0  0.17641327658E-01  0.10919309915E-01  0.93789413531E-01  0.96058122936E-01  0.51100000000E-03 0.  1.
         11    1    4    4    0    0  0.19557739556E-02 -0.80167214168E-02  0.35385709757E-01  0.36338718333E-01  0.51100000000E-03 0. -1.
</event>
<event>
 8    1  0.1061722E+005  0.1043930E+01  0.7957747E-01            NaN
         13   -1    0    0    0    0  0.00000000000E+00  0.00000000000E+00  0.74505805969E-08  0.10566000000E+00  0.10566000000E+00 0. -1.
     999900   -1    0    0    0    0 -0.00000000000E+00 -0.00000000000E+00 -0.74505805969E-08  0.93827000000E+00  0.93827000000E+00 0.  1.
     999902    2    1    2    0    0  0.14735199962E-01  0.10861674563E-01 -0.14843885045E-01  0.10203621614E+01  0.10200899458E+01 0.  0.
     999903    2    3    3    0    0  0.17184043648E-01  0.91487819620E-01 -0.93488819577E-01  0.13318033235E+00  0.18207939029E-01 0.  0.
         14    1    1    2    0    0 -0.14735199962E-01 -0.10861674563E-01  0.14843885045E-01  0.23567838583E-01  0.00000000000E+00 0. -1.
     999901    1    3    3    0    0 -0.24488436860E-02 -0.80626145057E-01  0.78644934532E-01  0.88718182907E+00  0.88000000000E+00 0. -1.
        -11    1    4    4    0    0  0.47807843339E-02  0.67174250995E-01 -0.62458221710E-01  0.91850566006E-01  0.51100000000E-03 0. -1.
         11    1    4    4    0    0  0.12403259315E-01  0.24313568625E-01 -0.31030597867E-01  0.41329766342E-01  0.51100000000E-03 0.  1.
</event>
<event>
 8    1  0.1061722E+005  0.1043930E+01  0.7957747E-01            NaN
         13   -1    0    0    0    0  0.00000000000E+00  0.00000000000E+00  0.74505805969E-08  0.10566000000E+00  0.10566000000E+00 0. -1.
     999900   -1    0    0    0    0 -0.00000000000E+00 -0.00000000000E+00 -0.74505805969E-08  0.93827000000E+00  0.93827000000E+00 0. -1.
     999902    2    1    2    0    0 -0.16124968905E-01  0.56939859420E-02 -0.13232743565E-01  0.10223072897E+01  0.10220785943E+01 0.  0.
     999903    2    3    3    0    0 -0.51055331823E-01  0.40461564385E-01  0.11297558484E+00  0.13193800850E+00  0.20009253285E-01 0.  0.
         14    1    1    2    0    0  0.16124968905E-01 -0.56939859420E-02  0.13232743565E-01  0.21622710291E-01  0.00000000000E+00 0. -1.
     999901    1    3    3    0    0  0.34930362917E-01 -0.34767578443E-01 -0.12620832840E+00  0.89036928121E+00  0.88000000000E+00 0. -1.
        -11    1    4    4    0    0 -0.26429723267E-01  0.22773525297E-01  0.41010768574E-01  0.53845222503E-01  0.51100000000E-03 0. -1.
         11    1    4    4    0    0 -0.24625608556E-01  0.17688039088E-01  0.71964816265E-01  0.78092785995E-01  0.51100000000E-03 0.  1.
</event>
<event>
 8    1  0.1061722E+005  0.1043930E+01  0.7957747E-01            NaN
         13   -1    0    0    0    0  0.00000000000E+00  0.00000000000E+00  0.74505805969E-08  0.10566000000E+00  0.10566000000E+00 0. -1.
     999900   -1    0    0    0    0 -0.00000000000E+00 -0.00000000000E+00 -0.74505805969E-08  0.93827000000E+00  0.93827000000E+00 0. -1.
     999902    2    1    2    0    0  0.36492081196E-02 -0.24838650079E-01 -0.37947433539E-02  0.10185395424E+01  0.10182230228E+01 0.  0.
     999903    2    3    3    0    0  0.36049817707E-02  0.11713388249E+00  0.42224284379E-01  0.12597360490E+00  0.18791397442E-01 0.  0.
         14    1    1    2    0    0 -0.36492081196E-02  0.24838650079E-01  0.37947433539E-02  0.25390457553E-01  0.00000000000E+00 0. -1.
     999901    1    3    3    0    0  0.44226348976E-04 -0.14197253257E+00 -0.46019027733E-01  0.89256593755E+00  0.88000000000E+00 0. -1.
        -11    1    4    4    0    0  0.89547509533E-02  0.10521897146E+00  0.38196552200E-01  0.11229629219E+00  0.51100000000E-03 0. -1.
         11    1    4    4    0    0 -0.53497691826E-02  0.11914911034E-01  0.40277321785E-02  0.13677312703E-01  0.51100000000E-03 0.  1.
</event>
<event>
 8    1  0.1061722E+005  0.1043930E+01  0.7957747E-01            NaN
         13   -1    0    0    0    0  0.00000000000E+00  0.00000000000E+00  0.74505805969E-08  0.10566000000E+00  0.10566000000E+00 0. -1.
     999900   -1    0    0    0    0 -0.00000000000E+00 -0.00000000000E+00 -0.74505805969E-08  0.93827000000E+00  0.93827000000E+00 0.  1.
     999902    2    1    2    0    0  0.19465956293E-01 -0.70043234254E-02 -0.13537466710E-01  0.10192065899E+01  0.10189066817E+01 0.  0.
     999903    2    3    3    0    0  0.42844448144E-01 -0.11678956177E+00  0.34955723745E-01  0.13075234689E+00  0.19970606405E-01 0.  0.
         14    1    1    2    0    0 -0.19465956293E-01  0.70043234254E-02  0.13537466710E-01  0.24723410080E-01  0.00000000000E+00 0. -1.
     999901    1    3    3    0    0 -0.23378491851E-01  0.10978523834E+00 -0.48493190455E-01  0.88845424303E+00  0.88000000000E+00 0. -1.
        -11    1    4    4    0    0  0.17101461923E-01 -0.49136203082E-01  0.45163994923E-02  0.52225333303E-01  0.51100000000E-03 0.  1.
         11    1    4    4    0    0  0.25742986221E-01 -0.67653358684E-01  0.30439324253E-01  0.78527013586E-01  0.51100000000E-03 0. -1.
</event>
<event>
 8    1  0.1061722E+005  0.1043930E+01  0.7957747E-01            NaN
         13   -1    0    0    0    0  0.00000000000E+00  0.00000000000E+00  0.74505805969E-08  0.10566000000E+00  0.10566000000E+00 0.  1.
     999900   -1    0    0    0    0 -0.00000000000E+00 -0.00000000000E+00 -0.74505805969E-08  0.93827000000E+00  0.93827000000E+00 0. -1.
     999902    2    1    2    0    0  0.21037807118E-02  0.15110126132E-01  0.17038273706E-01  0.10210598322E+01  0.10208036718E+01 0.  0.
     999903    2    3    3    0    0 -0.10772965039E+00  0.73124892991E-01 -0.95367085222E-02  0.13193929736E+00  0.19081452547E-01 0.  0.
         14    1    1    2    0    0 -0.21037807118E-02 -0.15110126132E-01 -0.17038273706E-01  0.22870167815E-01  0.00000000000E+00 0. -1.
     999901    1    3    3    0    0  0.10983343110E+00 -0.58014766859E-01  0.26574982228E-01  0.88912053482E+00  0.88000000000E+00 0. -1.
        -11    1    4    4    0    0 -0.85834687549E-01  0.50036133521E-01 -0.27127839881E-02  0.99392296293E-01  0.51100000000E-03 0.  1.
         11    1    4    4    0    0 -0.21894962840E-01  0.23088759470E-01 -0.68239245341E-02  0.32547001070E-01  0.51100000000E-03 0. -1.
</event>
<event>
 8    1  0.1061722E+005  0.1043930E+01  0.7957747E-01            NaN
         13   -1    0    0    0    0  0.00000000000E+00  0.00000000000E+00  0.74505805969E-08  0.10566000000E+00  0.10566000000E+00 0.  1.
     999900   -1    0    0    0    0 -0.00000000000E+00 -0.00000000000E+00 -0.74505805969E-08  0.93827000000E+00  0.93827000000E+00 0. -1.
     999902    2    1    2    0    0 -0.80368195186E-02  0.12607730191E-01 -0.16761156476E-01  0.10214693300E+01  0.10212223610E+01 0.  0.
     999903    2    3    3    0    0  0.23702423264E-01 -0.68951236821E-01 -0.10867573993E+00  0.13236442325E+00  0.19845557804E-01 0.  0.
         14    1    1    2    0    0  0.80368195186E-02 -0.12607730191E-01  0.16761156476E-01  0.22460669958E-01  0.00000000000E+00 0. -1.
     999901    1    3    3    0    0 -0.31739242782E-01  0.81558967012E-01  0.91914583455E-01  0.88910490679E+00  0.88000000000E+00 0.  1.
        -11    1    4    4    0    0  0.65493191730E-02 -0.10146490991E-01 -0.32107390015E-01  0.34307294787E-01  0.51100000000E-03 0. -1.
         11    1    4    4    0    0  0.17153104091E-01 -0.58804745830E-01 -0.76568349917E-01  0.98057128461E-01  0.51100000000E-03 0.  1.
</event>
<event>
 8    1  0.1061722E+005  0.1043930E+01  0.7957747E-01            NaN
         13   -1    0    0    0    0  0.00000000000E+00  0.00000000000E+00  0.74505805969E-08  0.10566000000E+00  0.10566000000E+00 0.  1.
     999900   -1    0    0    0    0 -0.00000000000E+00 -0.00000000000E+00 -0.74505805969E-08  0.93827000000E+00  0.93827000000E+00 0. -1.
     999902    2    1    2    0    0 -0.19507198496E-01  0.10772100656E-01 -0.41307653189E-02  0.10212665455E+01  0.10210150464E+01 0.  0.
     999903    2    3    3    0    0 -0.94822967620E-01 -0.43026886456E-01  0.79420430695E-01  0.13247658248E+00  0.19993297548E-01 0.  0.
         14    1    1    2    0    0  0.19507198496E-01 -0.10772100656E-01  0.41307653189E-02  0.22663454455E-01  0.00000000000E+00 0. -1.
     999901    1    3    3    0    0  0.75315769124E-01  0.53798987113E-01 -0.83551196013E-01  0.88878996307E+00  0.88000000000E+00 0. -1.
        -11    1    4    4    0    0 -0.27567697796E-01 -0.18302079978E-01  0.34994897007E-01  0.48164800745E-01  0.51100000000E-03 0. -1.
         11    1    4    4    0    0 -0.67255269824E-01 -0.24724806479E-01  0.44425533688E-01  0.84311781733E-01  0.51100000000E-03 0.  1.
</event>
<event>
 8    1  0.1061722E+005  0.1043930E+01  0.7957747E-01            NaN
         13   -1    0    0    0    0  0.00000000000E+00  0.00000000000E+00  0.74505805969E-08  0.10566000000E+00  0.10566000000E+00 0.  1.
     999900   -1    0    0    0    0 -0.00000000000E+00 -0.00000000000E+00 -0.74505805969E-08  0.93827000000E+00  0.93827000000E+00 0.  1.
     999902    2    1    2    0    0  0.32916649818E-02  0.18010565614E-01  0.14375883241E-01  0.10206516506E+01  0.10203861574E+01 0.  0.
     999903    2    3    3    0    0 -0.47085043969E-01 -0.27421744278E-01 -0.11498311569E+00  0.12861148435E+00  0.18730819193E-01 0.  0.
         14    1    1    2    0    0 -0.32916649818E-02 -0.18010565614E-01 -0.14375883241E-01  0.23278349406E-01  0.00000000000E+00 0. -1.
     999901    1    3    3    0    0  0.50376708951E-01  0.45432309892E-01  0.12935899893E+00  0.89204016624E+00  0.88000000000E+00 0. -1.
        -11    1    4    4    0    0 -0.31708719828E-01 -0.26756996048E-01 -0.74128067928E-01  0.84950640529E-01  0.51100000000E-03 0. -1.
         11    1    4    4    0    0 -0.15376324142E-01 -0.66474822978E-03 -0.40855047765E-01  0.43660843822E-01  0.51100000000E-03 0.  1.
</event>
<event>
 8    1  0.1061722E+005  0.1043930E+01  0.7957747E-01            NaN
         13   -1    0    0    0    0  0.00000000000E+00  0.00000000000E+00  0.74505805969E-08  0.10566000000E+00  0.10566000000E+00 0. -1.
     999900   -1    0    0    0    0 -0.00000000000E+00 -0.00000000000E+00 -0.74505805969E-08  0.93827000000E+00  0.93827000000E+00 0.  1.
     999902    2    1    2    0    0 -0.18496880009E-01  0.71319042990E-02 -0.15145680614E-01  0.10189822492E+01  0.10186768054E+01 0.  0.
     999903    2    3    3    0    0  0.74625928546E-01  0.81872790060E-01 -0.64196701536E-01  0.12956442830E+00  0.19837883663E-01 0.  0.
         14    1    1    2    0    0  0.18496880009E-01 -0.71319042990E-02  0.15145680614E-01  0.24947750806E-01  0.00000000000E+00 0. -1.
     999901    1    3    3    0    0 -0.93122808554E-01 -0.74740885761E-01  0.49051020922E-01  0.88941782090E+00  0.88000000000E+00 0.  1.
        -11    1    4    4    0    0  0.26207658301E-01  0.23691674383E-01 -0.30631100898E-01  0.46761760574E-01  0.51100000000E-03 0. -1.
         11    1    4    4    0    0  0.48418270244E-01  0.58181115677E-01 -0.33565600638E-01  0.82802667723E-01  0.51100000000E-03 0.  1.
</event>
<event>
 8    1  0.1061722E+005  0.1043930E+01  0.7957747E-01            NaN
         13   -1    0    0    0    0  0.00000000000E+00  0.00000000000E+00  0.74505805969E-08  0.10566000000E+00  0.10566000000E+00 0.  1.
     999900   -1    0    0    0    0 -0.00000000000E+00 -0.00000000000E+00 -0.74505805969E-08  0.93827000000E+00  0.93827000000E+00 0.  1.
     999902    2    1    2    0    0  0.13073908392E-01 -0.45482819292E-02 -0.19622778682E-01  0.10199161000E+01  0.10196333575E+01 0.  0.
     999903    2    3    3    0    0  0.39403937652E-01  0.11811331763E+00  0.30238164247E-01  0.12962106348E+00  0.19592024322E-01 0.  0.
         14    1    1    2    0    0 -0.13073908392E-01  0.45482819292E-02  0.19622778682E-01  0.24013899982E-01  0.00000000000E+00 0.  1.
     999901    1    3    3    0    0 -0.26330029260E-01 -0.12266159956E+00 -0.49860942929E-01  0.89029503653E+00  0.88000000000E+00 0. -1.
        -11    1    4    4    0    0  0.29497169224E-01  0.72927809055E-01  0.27281131592E-01  0.83265056222E-01  0.51100000000E-03 0.  1.
         11    1    4    4    0    0  0.99067684279E-02  0.45185508578E-01  0.29570326552E-02  0.46356007262E-01  0.51100000000E-03 0. -1.
</event>
<event>
 8    1  0.1061722E+005  0.1043930E+01  0.7957747E-01            NaN
         13   -1    0    0    0    0  0.00000000000E+00  0.00000000000E+00  0.74505805969E-08  0.10566000000E+00  0.10566000000E+00 0. -1.
     999900   -1    0    0    0    0 -0.00000000000E+00 -0.00000000000E+00 -0.74505805969E-08  0.93827000000E+00  0.93827000000E+00 0. -1.
     999902    2    1    2    0    0  0.12973794369E-01 -0.18973348794E-01 -0.26395138723E-02  0.10207940034E+01  0.10205317844E+01 0.  0.
     999903    2    3    3    0    0 -0.96670256075E-01  0.67629445723E-01 -0.46746484598E-01  0.12868006075E+00  0.21317689238E-01 0.  0.
         14    1    1    2    0    0 -0.12973794369E-01  0.18973348794E-01  0.26395138723E-02  0.23135996591E-01  0.00000000000E+00 0.  1.
     999901    1    3    3    0    0  0.10964405044E+00 -0.86602794517E-01  0.44106970726E-01  0.89211394266E+00  0.88000000000E+00 0. -1.
        -11    1    4    4    0    0 -0.41405405939E-01  0.24740200364E-01 -0.29803000188E-01  0.56700662220E-01  0.51100000000E-03 0.  1.
         11    1    4    4    0    0 -0.55264850136E-01  0.42889245359E-01 -0.16943484410E-01  0.71979398532E-01  0.51100000000E-03 0. -1.
</event>
<event>
 8    1  0.1061722E+005  0.1043930E+01  0.7957747E-01            NaN
         13   -1    0    0    0    0  0.00000000000E+00  0.00000000000E+00  0.74505805969E-08  0.10566000000E+00  0.10566000000E+00 0. -1.
     999900   -1    0    0    0    0 -0.00000000000E+00 -0.00000000000E+00 -0.74505805969E-08  0.93827000000E+00  0.93827000000E+00 0. -1.
     999902    2    1    2    0    0  0.22107012486E-02  0.23943656951E-01  0.35156581694E-03  0.10198819334E+01  0.10195983761E+01 0.  0.
     999903    2    3    3    0    0  0.10915678157E+00 -0.72535622533E-02  0.67806430971E-01  0.13029726098E+00  0.20294014179E-01 0.  0.
         14    1    1    2    0    0 -0.22107012486E-02 -0.23943656951E-01 -0.35156581694E-03  0.24048066590E-01  0.00000000000E+00 0.  1.
     999901    1    3    3    0    0 -0.10694608032E+00  0.31197219204E-01 -0.67454865154E-01  0.88958467243E+00  0.88000000000E+00 0. -1.
        -11    1    4    4    0    0  0.44293799647E-01 -0.12635028608E-01  0.25225145465E-01  0.52518127535E-01  0.51100000000E-03 0.  1.
         11    1    4    4    0    0  0.64862981920E-01  0.53814663545E-02  0.42581285506E-01  0.77779133449E-01  0.51100000000E-03 0. -1.
</event>
<event>
 8    1  0.1061722E+005  0.1043930E+01  0.7957747E-01            NaN
         13   -1    0    0    0    0  0.00000000000E+00  0.00000000000E+00  0.74505805969E-08  0.10566000000E+00  0.10566000000E+00 0.  1.
     999900   -1    0    0    0    0 -0.00000000000E+00 -0.00000000000E+00 -0.74505805969E-08  0.93827000000E+00  0.93827000000E+00 0. -1.
     999902    2    1    2    0    0 -0.24451283619E-01 -0.53943950999E-02 -0.12927735827E-01  0.10157503775E+01  0.10153594134E+01 0.  0.
     999903    2    3    3    0    0 -0.84535087062E-01  0.37426694347E-01  0.84930668850E-01  0.12725728442E+00  0.20838894687E-01 0.  0.
         14    1    1    2    0    0  0.24451283619E-01  0.53943950999E-02  0.12927735827E-01  0.28179622473E-01  0.00000000000E+00 0. -1.
     999901    1    3    3    0    0  0.60083803443E-01 -0.42821089447E-01 -0.97858404677E-01  0.88849309311E+00  0.88000000000E+00 0. -1.
        -11    1    4    4    0    0 -0.22547776246E-01  0.24694976605E-02  0.28527774544E-01  0.36449906361E-01  0.51100000000E-03 0.  1.
         11    1    4    4    0    0 -0.61987310815E-01  0.34957196687E-01  0.56402894306E-01  0.90807378056E-01  0.51100000000E-03 0. -1.
</event>
<event>
 8    1  0.1061722E+005  0.1043930E+01  0.7957747E-01            NaN
         13   -1    0    0    0    0  0.00000000000E+00  0.00000000000E+00  0.74505805969E-08  0.10566000000E+00  0.10566000000E+00 0.  1.
     999900   -1    0    0    0    0 -0.00000000000E+00 -0.00000000000E+00 -0.74505805969E-08  0.93827000000E+00  0.93827000000E+00 0. -1.
     999902    2    1    2    0    0  0.20195537382E-01  0.37190902995E-02 -0.12130028384E-01  0.10200798648E+01  0.10198010107E+01 0.  0.
     999903    2    3    3    0    0 -0.49783892964E-01 -0.29140992995E-01 -0.11522134633E+00  0.13069540032E+00  0.21856247227E-01 0.  0.
         14    1    1    2    0    0 -0.20195537382E-01 -0.37190902995E-02  0.12130028384E-01  0.23850135249E-01  0.00000000000E+00 0.  1.
     999901    1    3    3    0    0  0.69979430346E-01  0.32860083295E-01  0.10309131794E+00  0.88938446444E+00  0.88000000000E+00 0.  1.
        -11    1    4    4    0    0 -0.34345489996E-01 -0.76026397217E-02 -0.65201377705E-01  0.74087067626E-01  0.51100000000E-03 0.  1.
         11    1    4    4    0    0 -0.15438402968E-01 -0.21538353273E-01 -0.50019968621E-01  0.56608332689E-01  0.51100000000E-03 0. -1.
</event>
<event>
 8    1  0.1061722E+005  0.1043930E+01  0.7957747E-01            NaN
         13   -1    0    0    0    0  0.00000000000E+00  0.00000000000E+00  0.74505805969E-08  0.10566000000E+00  0.10566000000E+00 0. -1.
     999900   -1    0    0    0    0 -0.00000000000E+00 -0.00000000000E+00 -0.74505805969E-08  0.93827000000E+00  0.93827000000E+00 0. -1.
     999902    2    1    2    0    0  0.68698718640E-02  0.22429968943E-01 -0.37130719011E-02  0.10201795148E+01  0.10199030134E+01 0.  0.
     999903    2    3    3    0    0  0.11318358655E+00  0.18702240035E-01  0.60227378557E-01  0.13146984164E+00  0.22286410329E-01 0.  0.
         14    1    1    2    0    0 -0.68698718640E-02 -0.22429968943E-01  0.37130719011E-02  0.23750485240E-01  0.00000000000E+00 0. -1.
     999901    1    3    3    0    0 -0.10631371469E+00  0.37277289084E-02 -0.63940450458E-01  0.88870967312E+00  0.88000000000E+00 0. -1.
        -11    1    4    4    0    0  0.68847691600E-01  0.13289820055E-01  0.24520759427E-01  0.74284269665E-01  0.51100000000E-03 0.  1.
         11    1    4    4    0    0  0.44335894953E-01  0.54124199795E-02  0.35706619130E-01  0.57185571974E-01  0.51100000000E-03 0. -1.
</event>
<event>
 8    1  0.1061722E+005  0.1043930E+01  0.7957747E-01            NaN
         13   -1    0    0    0    0  0.00000000000E+00  0.00000000000E+00  0.74505805969E-08  0.10566000000E+00  0.10566000000E+00 0.  1.
     999900   -1    0    0    0    0 -0.00000000000E+00 -0.00000000000E+00 -0.74505805969E-08  0.93827000000E+00  0.93827000000E+00 0. -1.
     999902    2    1    2    0    0  0.21262952339E-02  0.22268955725E-01 -0.58552971602E-02  0.10208061589E+01  0.10205442186E+01 0.  0.
     999903    2    3    3    0    0  0.56021858262E-01  0.11365825028E+00 -0.37960225926E-01  0.13385212331E+00  0.20463765583E-01 0.  0.
         14    1    1    2    0    0 -0.21262952339E-02 -0.22268955725E-01  0.58552971602E-02  0.23123841059E-01  0.00000000000E+00 0. -1.
     999901    1    3    3    0    0 -0.53895563028E-01 -0.91389294556E-01  0.32104928766E-01  0.88695403563E+00  0.88000000000E+00 0.  1.
        -11    1    4    4    0    0  0.38238147948E-01  0.70968510096E-01 -0.14200079633E-01  0.81857124103E-01  0.51100000000E-03 0.  1.
         11    1    4    4    0    0  0.17783710314E-01  0.42689740184E-01 -0.23760146293E-01  0.51994999206E-01  0.51100000000E-03 0. -1.
</event>
<event>
 8    1  0.1061722E+005  0.1043930E+01  0.7957747E-01            NaN
         13   -1    0    0    0    0  0.00000000000E+00  0.00000000000E+00  0.74505805969E-08  0.10566000000E+00  0.10566000000E+00 0. -1.
     999900   -1    0    0    0    0 -0.00000000000E+00 -0.00000000000E+00 -0.74505805969E-08  0.93827000000E+00  0.93827000000E+00 0. -1.
     999902    2    1    2    0    0  0.20484273147E-01 -0.10019378443E-01 -0.46629242348E-02  0.10206547717E+01  0.10203893505E+01 0.  0.
     999903    2    3    3    0    0  0.11859599467E+00  0.29675292147E-01 -0.46947021888E-01  0.13330505388E+00  0.24911475485E-01 0.  0.
         14    1    1    2    0    0 -0.20484273147E-01  0.10019378443E-01  0.46629242348E-02  0.23275228316E-01  0.00000000000E+00 0. -1.
     999901    1    3    3    0    0 -0.98111721519E-01 -0.39694670590E-01  0.42284097653E-01  0.88734971780E+00  0.88000000000E+00 0.  1.
        -11    1    4    4    0    0  0.97368380465E-01  0.26410730050E-01 -0.48147961057E-01  0.11178826169E+00  0.51100000000E-03 0. -1.
         11    1    4    4    0    0  0.21227614201E-01  0.32645620967E-02  0.12009391688E-02  0.21516792192E-01  0.51100000000E-03 0.  1.
</event>
<event>
 8    1  0.1061722E+005  0.1043930E+01  0.7957747E-01            NaN
         13   -1    0    0    0    0  0.00000000000E+00  0.00000000000E+00  0.74505805969E-08  0.10566000000E+00  0.10566000000E+00 0.  1.
     999900   -1    0    0    0    0 -0.00000000000E+00 -0.00000000000E+00 -0.74505805969E-08  0.93827000000E+00  0.93827000000E+00 0.  1.
     999902    2    1    2    0    0  0.11134897830E-01 -0.79357361682E-02 -0.18569719376E-01  0.10208692902E+01  0.10206087945E+01 0.  0.
     999903    2    3    3    0    0 -0.67947332701E-01  0.10532160228E+00 -0.28463821489E-01  0.13003871308E+00  0.19758487722E-01 0.  0.
         14    1    1    2    0    0 -0.11134897830E-01  0.79357361682E-02  0.18569719376E-01  0.23060709788E-01  0.00000000000E+00 0.  1.
     999901    1    3    3    0    0  0.79082230531E-01 -0.11325733845E+00  0.98941021136E-02  0.89083057713E+00  0.88000000000E+00 0. -1.
        -11    1    4    4    0    0 -0.55373963701E-01  0.88755113103E-01 -0.16119588776E-01  0.10584823202E+00  0.51100000000E-03 0. -1.
         11    1    4    4    0    0 -0.12573369000E-01  0.16566489180E-01 -0.12344232713E-01  0.24190481062E-01  0.51100000000E-03 0.  1.
</event>
<event>
 8    1  0.1061722E+005  0.1043930E+01  0.7957747E-01            NaN
         13   -1    0    0    0    0  0.00000000000E+00  0.00000000000E+00  0.74505805969E-08  0.10566000000E+00  0.10566000000E+00 0. -1.
     999900   -1    0    0    0    0 -0.00000000000E+00 -0.00000000000E+00 -0.74505805969E-08  0.93827000000E+00  0.93827000000E+00 0. -1.
     999902    2    1    2    0    0  0.15388897566E-01 -0.70943696191E-02 -0.16593379819E-01  0.10202131599E+01  0.10199374506E+01 0.  0.
     999903    2    3    3    0    0 -0.10900010334E+00  0.23487484453E-01 -0.65257561742E-01  0.12960882807E+00  0.10354443219E-01 0.  0.
         14    1    1    2    0    0 -0.15388897566E-01  0.70943696191E-02  0.16593379819E-01  0.23716840060E-01  0.00000000000E+00 0. -1.
     999901    1    3    3    0    0  0.12438900091E+00 -0.30581854072E-01  0.48664181922E-01  0.89060433187E+00  0.88000000000E+00 0.  1.
        -11    1    4    4    0    0 -0.36859824851E-01  0.75805147612E-02 -0.16489922837E-01  0.41088801008E-01  0.51100000000E-03 0. -1.
         11    1    4    4    0    0 -0.72140278492E-01  0.15906969692E-01 -0.48767638904E-01  0.88520027061E-01  0.51100000000E-03 0.  1.
</event>
<event>
 8    1  0.1061722E+005  0.1043930E+01  0.7957747E-01            NaN
         13   -1    0    0    0    0  0.00000000000E+00  0.00000000000E+00  0.74505805969E-08  0.10566000000E+00  0.10566000000E+00 0. -1.
     999900   -1    0    0    0    0 -0.00000000000E+00 -0.00000000000E+00 -0.74505805969E-08  0.93827000000E+00  0.93827000000E+00 0. -1.
     999902    2    1    2    0    0  0.86072467527E-02 -0.18833793037E-01 -0.10120518328E-01  0.10208817604E+01  0.10206215495E+01 0.  0.
     999903    2    3    3    0    0 -0.85187752426E-01 -0.57250050876E-01 -0.80946674224E-01  0.13223691848E+00  0.19992925057E-01 0.  0.
         14    1    1    2    0    0 -0.86072467527E-02  0.18833793037E-01  0.10120518328E-01  0.23048239587E-01  0.00000000000E+00 0. -1.
     999901    1    3    3    0    0  0.93794999178E-01  0.38416257839E-01  0.70826155896E-01  0.88864484193E+00  0.88000000000E+00 0. -1.
        -11    1    4    4    0    0 -0.51490523117E-01 -0.37827443110E-01 -0.38203404215E-01  0.74444278744E-01  0.51100000000E-03 0. -1.
         11    1    4    4    0    0 -0.33697229309E-01 -0.19422607766E-01 -0.42743270009E-01  0.57792639735E-01  0.51100000000E-03 0.  1.
</event>
<event>
 8    1  0.1061722E+005  0.1043930E+01  0.7957747E-01            NaN
         13   -1    0    0    0    0  0.00000000000E+00  0.00000000000E+00  0.74505805969E-08  0.10566000000E+00  0.10566000000E+00 0.  1.
     999900   -1    0    0    0    0 -0.00000000000E+00 -0.00000000000E+00 -0.74505805969E-08  0.93827000000E+00  0.93827000000E+00 0.  1.
     999902    2    1    2    0    0 -0.12490611697E-01 -0.15172014858E-01 -0.10292493430E-01  0.10217457525E+01  0.10215048908E+01 0.  0.
     999903    2    3    3    0    0 -0.10465617550E+00 -0.27237950311E-01 -0.77117121966E-01  0.13433062478E+00  0.20071005112E-01 0.  0.
         14    1    1    2    0    0  0.12490611697E-01  0.15172014858E-01  0.10292493430E-01  0.22184247484E-01  0.00000000000E+00 0.  1.
     999901    1    3    3    0    0  0.92165563806E-01  0.12065935453E-01  0.66824628536E-01  0.88741512773E+00  0.88000000000E+00 0. -1.
        -11    1    4    4    0    0 -0.17594644916E-01  0.18472070226E-02 -0.17418917703E-01  0.24832710655E-01  0.51100000000E-03 0.  1.
         11    1    4    4    0    0 -0.87061530587E-01 -0.29085157334E-01 -0.59698204264E-01  0.10949791413E+00  0.51100000000E-03 0. -1.
</event>
<event>
 8    1  0.1061722E+005  0.1043930E+01  0.7957747E-01            NaN
         13   -1    0    0    0    0  0.00000000000E+00  0.00000000000E+00  0.74505805969E-08  0.10566000000E+00  0.10566000000E+00 0. -1.
     999900   -1    0    0    0    0 -0.00000000000E+00 -0.00000000000E+00 -0.74505805969E-08  0.93827000000E+00  0.93827000000E+00 0. -1.
     999902    2    1    2    0    0  0.55452611975E-02 -0.19834481715E-01 -0.14779431247E-01  0.10185806770E+01  0.10182651951E+01 0.  0.
     999903    2    3    3    0    0 -0.21213283174E-01 -0.18383514457E-01  0.12274859871E+00  0.12749589767E+00  0.20000711265E-01 0.  0.
         14    1    1    2    0    0 -0.55452611975E-02  0.19834481715E-01  0.14779431247E-01  0.25349322962E-01  0.00000000000E+00 0. -1.
     999901    1    3    3    0    0  0.26758544371E-01 -0.14509672587E-02 -0.13752802995E+00  0.89108477937E+00  0.88000000000E+00 0. -1.
        -11    1    4    4    0    0 -0.11783718345E-02 -0.13120174261E-01  0.59370223504E-01  0.60816215705E-01  0.51100000000E-03 0. -1.
         11    1    4    4    0    0 -0.20034911339E-01 -0.52633401954E-02  0.63378375202E-01  0.66679681962E-01  0.51100000000E-03 0.  1.
</event>
<event>
 8    1  0.1061722E+005  0.1043930E+01  0.7957747E-01            NaN
         13   -1    0    0    0    0  0.00000000000E+00  0.00000000000E+00  0.74505805969E-08  0.10566000000E+00  0.10566000000E+00 0.  1.
     999900   -1    0    0    0    0 -0.00000000000E+00 -0.00000000000E+00 -0.74505805969E-08  0.93827000000E+00  0.93827000000E+00 0.  1.
     999902    2    1    2    0    0  0.85432101009E-02  0.69154626649E-02  0.15914575060E-01  0.10245887549E+01  0.10244061855E+01 0.  0.
     999903    2    3    3    0    0 -0.96624821021E-01 -0.52972332248E-01  0.74305757051E-01  0.13438855669E+00  0.19912674819E-01 0.  0.
         14    1    1    2    0    0 -0.85432101009E-02 -0.69154626649E-02 -0.15914575060E-01  0.19341245100E-01  0.00000000000E+00 0. -1.
     999901    1    3    3    0    0  0.10516803112E+00  0.59887794913E-01 -0.58391181991E-01  0.89020019820E+00  0.88000000000E+00 0.  1.
        -11    1    4    4    0    0 -0.58770052171E-01 -0.26392149557E-01  0.33061297639E-01  0.72413915189E-01  0.51100000000E-03 0. -1.
         11    1    4    4    0    0 -0.37854768850E-01 -0.26580182691E-01  0.41244459412E-01  0.61974641506E-01  0.51100000000E-03 0.  1.
</event>
<event>
 8    1  0.1061722E+005  0.1043930E+01  0.7957747E-01            NaN
         13   -1    0    0    0    0  0.00000000000E+00  0.00000000000E+00  0.74505805969E-08  0.10566000000E+00  0.10566000000E+00 0.  1.
     999900   -1    0    0    0    0 -0.00000000000E+00 -0.00000000000E+00 -0.74505805969E-08  0.93827000000E+00  0.93827000000E+00 0. -1.
     999902    2    1    2    0    0 -0.17218495622E-01 -0.13236922383E-01  0.18915746218E-01  0.10151289903E+01  0.10147203402E+01 0.  0.
     999903    2    3    3    0    0  0.17190514389E-01  0.11882844635E+00 -0.21681448617E-01  0.12368444696E+00  0.20298861066E-01 0.  0.
         14    1    1    2    0    0  0.17218495622E-01  0.13236922383E-01 -0.18915746218E-01  0.28801009716E-01  0.00000000000E+00 0. -1.
     999901    1    3    3    0    0 -0.34409010011E-01 -0.13206536873E+00  0.40597194836E-01  0.89144454332E+00  0.88000000000E+00 0. -1.
        -11    1    4    4    0    0  0.14565770934E-01  0.45197945779E-01 -0.25302130733E-02  0.47557113924E-01  0.51100000000E-03 0. -1.
         11    1    4    4    0    0  0.26247434555E-02  0.73630500567E-01 -0.19151235544E-01  0.76127333040E-01  0.51100000000E-03 0.  1.
</event>
<event>
 8    1  0.1061722E+005  0.1043930E+01  0.7957747E-01            NaN
         13   -1    0    0    0    0  0.00000000000E+00  0.00000000000E+00  0.74505805969E-08  0.10566000000E+00  0.10566000000E+00 0.  1.
     999900   -1    0    0    0    0 -0.00000000000E+00 -0.00000000000E+00 -0.74505805969E-08  0.93827000000E+00  0.93827000000E+00 0.  1.
     999902    2    1    2    0    0 -0.11982393263E-01 -0.53181557482E-02  0.19263664511E-01  0.10206287275E+01  0.10203627052E+01 0.  0.
     999903    2    3    3    0    0 -0.12676674348E+00 -0.33344486269E-01  0.44610861602E-02  0.13260843575E+00  0.19581468931E-01 0.  0.
         14    1    1    2    0    0  0.11982393263E-01  0.53181557482E-02 -0.19263664511E-01  0.23301272482E-01  0.00000000000E+00 0. -1.
     999901    1    3    3    0    0  0.11478435022E+00  0.28026330521E-01  0.14802578350E-01  0.88802029176E+00  0.88000000000E+00 0. -1.
        -11    1    4    4    0    0 -0.45613785980E-01 -0.38685852002E-02 -0.34188950143E-02  0.45907879356E-01  0.51100000000E-03 0. -1.
         11    1    4    4    0    0 -0.81152957505E-01 -0.29475901069E-01  0.78799811745E-02  0.86700556399E-01  0.51100000000E-03 0.  1.
</event>
<event>
 8    1  0.1061722E+005  0.1043930E+01  0.7957747E-01            NaN
         13   -1    0    0    0    0  0.00000000000E+00  0.00000000000E+00  0.74505805969E-08  0.10566000000E+00  0.10566000000E+00 0.  1.
     999900   -1    0    0    0    0 -0.00000000000E+00 -0.00000000000E+00 -0.74505805969E-08  0.93827000000E+00  0.93827000000E+00 0.  1.
     999902    2    1    2    0    0  0.46980921855E-02 -0.18793624381E-01 -0.12451147670E-01  0.10209016812E+01  0.10206419251E+01 0.  0.
     999903    2    3    3    0    0  0.27819187365E-01  0.88400453579E-01 -0.90805867425E-01  0.13064069842E+00  0.15255790557E-01 0.  0.
         14    1    1    2    0    0 -0.46980921855E-02  0.18793624381E-01  0.12451147670E-01  0.23028318781E-01  0.00000000000E+00 0.  1.
     999901    1    3    3    0    0 -0.23121095180E-01 -0.10719407796E+00  0.78354719755E-01  0.89026098280E+00  0.88000000000E+00 0.  1.
        -11    1    4    4    0    0  0.69657021527E-02  0.46100027272E-01 -0.48597979243E-01  0.67348038045E-01  0.51100000000E-03 0. -1.
         11    1    4    4    0    0  0.20853485213E-01  0.42300426306E-01 -0.42207888182E-01  0.63292660372E-01  0.51100000000E-03 0.  1.
</event>
<event>
 8    1  0.1061722E+005  0.1043930E+01  0.7957747E-01            NaN
         13   -1    0    0    0    0  0.00000000000E+00  0.00000000000E+00  0.74505805969E-08  0.10566000000E+00  0.10566000000E+00 0. -1.
     999900   -1    0    0    0    0 -0.00000000000E+00 -0.00000000000E+00 -0.74505805969E-08  0.93827000000E+00  0.93827000000E+00 0.  1.
     999902    2    1    2    0    0  0.12118503205E-01  0.21918543775E-01 -0.47712046986E-02  0.10184340184E+01  0.10181148289E+01 0.  0.
     999903    2    3    3    0    0 -0.95467446537E-01  0.62774640147E-01  0.56047818132E-01  0.12885945118E+00  0.20216613126E-01 0.  0.
         14    1    1    2    0    0 -0.12118503205E-01 -0.21918543775E-01  0.47712046986E-02  0.25495981555E-01  0.00000000000E+00 0. -1.
     999901    1    3    3    0    0  0.10758594974E+00 -0.40856096372E-01 -0.60819022831E-01  0.88957456727E+00  0.88000000000E+00 0.  1.
        -11    1    4    4    0    0 -0.38418374102E-01  0.36923582477E-01  0.22982770949E-01  0.58032674357E-01  0.51100000000E-03 0. -1.
         11    1    4    4    0    0 -0.57049072436E-01  0.25851057670E-01  0.33065047183E-01  0.70826776820E-01  0.51100000000E-03 0.  1.
</event>
<event>
 8    1  0.1061722E+005  0.1043930E+01  0.7957747E-01            NaN
         13   -1    0    0    0    0  0.00000000000E+00  0.00000000000E+00  0.74505805969E-08  0.10566000000E+00  0.10566000000E+00 0. -1.
     999900   -1    0    0    0    0 -0.00000000000E+00 -0.00000000000E+00 -0.74505805969E-08  0.93827000000E+00  0.93827000000E+00 0. -1.
     999902    2    1    2    0    0 -0.22041214857E-01 -0.31340498178E-03  0.81186132040E-02  0.10204390389E+01  0.10201686168E+01 0.  0.
     999903    2    3    3    0    0 -0.86396487187E-02  0.35446932347E-01 -0.12287647955E+00  0.12992339159E+00  0.21220978136E-01 0.  0.
         14    1    1    2    0    0  0.22041214857E-01  0.31340498178E-03 -0.81186132040E-02  0.23490961143E-01  0.00000000000E+00 0. -1.
     999901    1    3    3    0    0 -0.13401566138E-01 -0.35760337329E-01  0.13099509275E+00  0.89051564727E+00  0.88000000000E+00 0.  1.
        -11    1    4    4    0    0 -0.93973496910E-02  0.30848050417E-01 -0.72754846279E-01  0.79582920114E-01  0.51100000000E-03 0. -1.
         11    1    4    4    0    0  0.75770097232E-03  0.45988819299E-02 -0.50121633271E-01  0.50340471477E-01  0.51100000000E-03 0.  1.
</event>
<event>
 8    1  0.1061722E+005  0.1043930E+01  0.7957747E-01            NaN
         13   -1    0    0    0    0  0.00000000000E+00  0.00000000000E+00  0.74505805969E-08  0.10566000000E+00  0.10566000000E+00 0. -1.
     999900   -1    0    0    0    0 -0.00000000000E+00 -0.00000000000E+00 -0.74505805969E-08  0.93827000000E+00  0.93827000000E+00 0. -1.
     999902    2    1    2    0    0 -0.21040070295E-01 -0.69118071804E-02 -0.99057993667E-02  0.10196692808E+01  0.10193806255E+01 0.  0.
     999903    2    3    3    0    0 -0.12622332053E+00 -0.17419280016E-01  0.29505784032E-01  0.13246738942E+00  0.21006189708E-01 0.  0.
         14    1    1    2    0    0  0.21040070295E-01  0.69118071804E-02  0.99057993667E-02  0.24260719231E-01  0.00000000000E+00 0. -1.
     999901    1    3    3    0    0  0.10518325023E+00  0.10507472835E-01 -0.39411583399E-01  0.88720189135E+00  0.88000000000E+00 0.  1.
        -11    1    4    4    0    0 -0.36317089596E-01 -0.12994439720E-01  0.33113325686E-02  0.38717082855E-01  0.51100000000E-03 0. -1.
         11    1    4    4    0    0 -0.89906230931E-01 -0.44248402962E-02  0.26194451463E-01  0.93750306561E-01  0.51100000000E-03 0.  1.
</event>
<event>
 8    1  0.1061722E+005  0.1043930E+01  0.7957747E-01            NaN
         13   -1    0    0    0    0  0.00000000000E+00  0.00000000000E+00  0.74505805969E-08  0.10566000000E+00  0.10566000000E+00 0. -1.
     999900   -1    0    0    0    0 -0.00000000000E+00 -0.00000000000E+00 -0.74505805969E-08  0.93827000000E+00  0.93827000000E+00 0. -1.
     999902    2    1    2    0    0 -0.19147165758E-01 -0.10963879876E-01 -0.96902691568E-02  0.10198318271E+01  0.10195470728E+01 0.  0.
     999903    2    3    3    0    0 -0.87879609179E-02 -0.50923609346E-01 -0.11981362681E+00  0.13200794427E+00  0.20008746505E-01 0.  0.
         14    1    1    2    0    0  0.19147165758E-01  0.10963879876E-01  0.96902691568E-02  0.24098172853E-01  0.00000000000E+00 0. -1.
     999901    1    3    3    0    0 -0.10359204840E-01  0.39959729470E-01  0.11012335765E+00  0.88782388288E+00  0.88000000000E+00 0.  1.
        -11    1    4    4    0    0 -0.43070650407E-02 -0.44489457406E-01 -0.82056561059E-01  0.93441976453E-01  0.51100000000E-03 0.  1.
         11    1    4    4    0    0 -0.44808958772E-02 -0.64341519398E-02 -0.37757065746E-01  0.38565967819E-01  0.51100000000E-03 0. -1.
</event>
<event>
 8    1  0.1061722E+005  0.1043930E+01  0.7957747E-01            NaN
         13   -1    0    0    0    0  0.00000000000E+00  0.00000000000E+00  0.74505805969E-08  0.10566000000E+00  0.10566000000E+00 0.  1.
     999900   -1    0    0    0    0 -0.00000000000E+00 -0.00000000000E+00 -0.74505805969E-08  0.93827000000E+00  0.93827000000E+00 0.  1.
     999902    2    1    2    0    0 -0.13410131572E-01 -0.10681444864E-01 -0.16273665370E-01  0.10202919570E+01  0.10200180981E+01 0.  0.
     999903    2    3    3    0    0 -0.86915690962E-01 -0.95166131017E-01  0.22644557862E-01  0.13234186967E+00  0.19765238147E-01 0.  0.
         14    1    1    2    0    0  0.13410131572E-01  0.10681444864E-01  0.16273665370E-01  0.23638043018E-01  0.00000000000E+00 0.  1.
     999901    1    3    3    0    0  0.73505559390E-01  0.84484686153E-01 -0.38918223232E-01  0.88795008731E+00  0.88000000000E+00 0. -1.
        -11    1    4    4    0    0 -0.44157291153E-01 -0.35292365231E-01  0.14172533282E-01  0.58279835502E-01  0.51100000000E-03 0.  1.
         11    1    4    4    0    0 -0.42758399810E-01 -0.59873765787E-01  0.84720245801E-02  0.74062034169E-01  0.51100000000E-03 0. -1.
</event>
<event>
 8    1  0.1061722E+005  0.1043930E+01  0.7957747E-01            NaN
         13   -1    0    0    0    0  0.00000000000E+00  0.00000000000E+00  0.74505805969E-08  0.10566000000E+00  0.10566000000E+00 0. -1.
     999900   -1    0    0    0    0 -0.00000000000E+00 -0.00000000000E+00 -0.74505805969E-08  0.93827000000E+00  0.93827000000E+00 0. -1.
     999902    2    1    2    0    0 -0.15516065240E-01  0.26468806016E-03  0.16934960476E-01  0.10209602106E+01  0.10207017882E+01 0.  0.
     999903    2    3    3    0    0  0.48232141462E-01  0.10189870148E+00  0.64723708304E-01  0.13153507546E+00  0.20065712671E-01 0.  0.
         14    1    1    2    0    0  0.15516065240E-01 -0.26468806016E-03 -0.16934960476E-01  0.22969789433E-01  0.00000000000E+00 0.  1.
     999901    1    3    3    0    0 -0.63748206702E-01 -0.10163401342E+00 -0.47788747828E-01  0.88942513511E+00  0.88000000000E+00 0. -1.
        -11    1    4    4    0    0  0.33237549366E-02  0.18028161284E-01  0.17386357271E-01  0.25270704112E-01  0.51100000000E-03 0.  1.
         11    1    4    4    0    0  0.44908386526E-01  0.83870540201E-01  0.47337351033E-01  0.10626437135E+00  0.51100000000E-03 0. -1.
</event>
<event>
 8    1  0.1061722E+005  0.1043930E+01  0.7957747E-01            NaN
         13   -1    0    0    0    0  0.00000000000E+00  0.00000000000E+00  0.74505805969E-08  0.10566000000E+00  0.10566000000E+00 0.  1.
     999900   -1    0    0    0    0 -0.00000000000E+00 -0.00000000000E+00 -0.74505805969E-08  0.93827000000E+00  0.93827000000E+00 0. -1.
     999902    2    1    2    0    0 -0.11532913825E-01 -0.37024373545E-02 -0.21718707344E-01  0.10190619805E+01  0.10187585100E+01 0.  0.
     999903    2    3    3    0    0 -0.11941473139E+00 -0.37198079012E-02  0.47018790267E-01  0.12981323555E+00  0.19157099000E-01 0.  0.
         14    1    1    2    0    0  0.11532913825E-01  0.37024373545E-02  0.21718707344E-01  0.24868019470E-01  0.00000000000E+00 0.  1.
     999901    1    3    3    0    0  0.10788181757E+00  0.17370546698E-04 -0.68737497611E-01  0.88924874498E+00  0.88000000000E+00 0. -1.
        -11    1    4    4    0    0 -0.30156151300E-02  0.28608008212E-03  0.52465226198E-02  0.60797119197E-02  0.51100000000E-03 0. -1.
         11    1    4    4    0    0 -0.11639911626E+00 -0.40058879833E-02  0.41772267647E-01  0.12373352363E+00  0.51100000000E-03 0.  1.
</event>
<event>
 8    1  0.1061722E+005  0.1043930E+01  0.7957747E-01            NaN
         13   -1    0    0    0    0  0.00000000000E+00  0.00000000000E+00  0.74505805969E-08  0.10566000000E+00  0.10566000000E+00 0. -1.
     999900   -1    0    0    0    0 -0.00000000000E+00 -0.00000000000E+00 -0.74505805969E-08  0.93827000000E+00  0.93827000000E+00 0.  1.
     999902    2    1    2    0    0 -0.14287915335E-01 -0.18942035560E-01  0.58815102152E-02  0.10194854219E+01  0.10191923214E+01 0.  0.
     999903    2    3    3    0    0  0.30971606359E-01  0.21865297949E-01 -0.12097711593E+00  0.12830262708E+00  0.19717248342E-01 0.  0.
         14    1    1    2    0    0  0.14287915335E-01  0.18942035560E-01 -0.58815102152E-02  0.24444578094E-01  0.00000000000E+00 0. -1.
     999901    1    3    3    0    0 -0.45259521694E-01 -0.40807333510E-01  0.12685862614E+00  0.89118279483E+00  0.88000000000E+00 0. -1.
        -11    1    4    4    0    0  0.90319958015E-03  0.10478286562E-01 -0.32502462442E-01  0.34165500795E-01  0.51100000000E-03 0. -1.
         11    1    4    4    0    0  0.30068406779E-01  0.11387011387E-01 -0.88474653484E-01  0.94137126282E-01  0.51100000000E-03 0.  1.
</event>
<event>
 8    1  0.1061722E+005  0.1043930E+01  0.7957747E-01            NaN
         13   -1    0    0    0    0  0.00000000000E+00  0.00000000000E+00  0.74505805969E-08  0.10566000000E+00  0.10566000000E+00 0.  1.
     999900   -1    0    0    0    0 -0.00000000000E+00 -0.00000000000E+00 -0.74505805969E-08  0.93827000000E+00  0.93827000000E+00 0.  1.
     999902    2    1    2    0    0  0.22644941572E-01 -0.96412341369E-02  0.33517072213E-02  0.10190909035E+01  0.10187881472E+01 0.  0.
     999903    2    3    3    0    0  0.74202912623E-01  0.35968060032E-01 -0.98168479880E-01  0.13058385203E+00  0.24805611957E-01 0.  0.
         14    1    1    2    0    0 -0.22644941572E-01  0.96412341369E-02 -0.33517072213E-02  0.24839096517E-01  0.00000000000E+00 0. -1.
     999901    1    3    3    0    0 -0.51557971051E-01 -0.45609294169E-01  0.10152018710E+00  0.88850705145E+00  0.88000000000E+00 0. -1.
        -11    1    4    4    0    0  0.20032427077E-01  0.17895299527E-01 -0.18740443932E-01  0.32756758685E-01  0.51100000000E-03 0. -1.
         11    1    4    4    0    0  0.54170485546E-01  0.18072760505E-01 -0.79428035949E-01  0.97827093344E-01  0.51100000000E-03 0.  1.
</event>
<event>
 8    1  0.1061722E+005  0.1043930E+01  0.7957747E-01            NaN
         13   -1    0    0    0    0  0.00000000000E+00  0.00000000000E+00  0.74505805969E-08  0.10566000000E+00  0.10566000000E+00 0. -1.
     999900   -1    0    0    0    0 -0.00000000000E+00 -0.00000000000E+00 -0.74505805969E-08  0.93827000000E+00  0.93827000000E+00 0. -1.
     999902    2    1    2    0    0  0.11364681509E-01  0.18229102133E-01 -0.80524845106E-02  0.10209888000E+01  0.10207310278E+01 0.  0.
     999903    2    3    3    0    0  0.25961641463E-01  0.12340254734E+00 -0.40058967855E-01  0.13402829367E+00  0.21369770259E-01 0.  0.
         14    1    1    2    0    0 -0.11364681509E-01 -0.18229102133E-01  0.80524845106E-02  0.22941199994E-01  0.00000000000E+00 0. -1.
     999901    1    3    3    0    0 -0.14596959953E-01 -0.10517344521E+00  0.32006483344E-01  0.88696050633E+00  0.88000000000E+00 0.  1.
        -11    1    4    4    0    0  0.11367823341E-01  0.96241783212E-01 -0.33162491021E-01  0.10242909828E+00  0.51100000000E-03 0.  1.
         11    1    4    4    0    0  0.14593818121E-01  0.27160764132E-01 -0.68964768336E-02  0.31599195390E-01  0.51100000000E-03 0. -1.
</event>
<event>
 8    1  0.1061722E+005  0.1043930E+01  0.7957747E-01            NaN
         13   -1    0    0    0    0  0.00000000000E+00  0.00000000000E+00  0.74505805969E-08  0.10566000000E+00  0.10566000000E+00 0. -1.
     999900   -1    0    0    0    0 -0.00000000000E+00 -0.00000000000E+00 -0.74505805969E-08  0.93827000000E+00  0.93827000000E+00 0. -1.
     999902    2    1    2    0    0  0.23882415673E-01  0.17143120619E-02  0.31609025362E-02  0.10197783966E+01  0.10194923630E+01 0.  0.
     999903    2    3    3    0    0  0.51516345458E-01 -0.48748598776E-01 -0.10815791118E+00  0.13090156722E+00  0.20167469250E-01 0.  0.
         14    1    1    2    0    0 -0.23882415673E-01 -0.17143120619E-02 -0.31609025362E-02  0.24151603447E-01  0.00000000000E+00 0. -1.
     999901    1    3    3    0    0 -0.27633929785E-01  0.50462910838E-01  0.11131881372E+00  0.88887682934E+00  0.88000000000E+00 0.  1.
        -11    1    4    4    0    0  0.25667048413E-01 -0.33856713013E-01 -0.50627766118E-01  0.66094676135E-01  0.51100000000E-03 0. -1.
         11    1    4    4    0    0  0.25849297045E-01 -0.14891885763E-01 -0.57530145065E-01  0.64806891080E-01  0.51100000000E-03 0.  1.
</event>
<event>
 8    1  0.1061722E+005  0.1043930E+01  0.7957747E-01            NaN
         13   -1    0    0    0    0  0.00000000000E+00  0.00000000000E+00  0.74505805969E-08  0.10566000000E+00  0.10566000000E+00 0. -1.
     999900   -1    0    0    0    0 -0.00000000000E+00 -0.00000000000E+00 -0.74505805969E-08  0.93827000000E+00  0.93827000000E+00 0.  1.
     999902    2    1    2    0    0 -0.14881532003E-02  0.19861232228E-01 -0.11910396089E-01  0.10207235207E+01  0.10204596832E+01 0.  0.
     999903    2    3    3    0    0  0.43658479148E-01  0.80152977762E-01  0.92929496152E-01  0.13130533112E+00  0.16572147695E-01 0.  0.
         14    1    1    2    0    0  0.14881532003E-02 -0.19861232228E-01  0.11910396089E-01  0.23206479279E-01  0.00000000000E+00 0.  1.
     999901    1    3    3    0    0 -0.45146632349E-01 -0.60291745534E-01 -0.10483989224E+00  0.88941818960E+00  0.88000000000E+00 0.  1.
        -11    1    4    4    0    0  0.24402575611E-01  0.28177178225E-01  0.35159762069E-01  0.51243624569E-01  0.51100000000E-03 0. -1.
         11    1    4    4    0    0  0.19255903537E-01  0.51975799536E-01  0.57769734083E-01  0.80061706549E-01  0.51100000000E-03 0.  1.
</event>
<event>
 8    1  0.1061722E+005  0.1043930E+01  0.7957747E-01            NaN
         13   -1    0    0    0    0  0.00000000000E+00  0.00000000000E+00  0.74505805969E-08  0.10566000000E+00  0.10566000000E+00 0. -1.
     999900   -1    0    0    0    0 -0.00000000000E+00 -0.00000000000E+00 -0.74505805969E-08  0.93827000000E+00  0.93827000000E+00 0.  1.
     999902    2    1    2    0    0  0.76003181165E-02 -0.22794587255E-01  0.13407856483E-01  0.10164140290E+01  0.10160415098E+01 0.  0.
     999903    2    3    3    0    0 -0.95653177511E-01  0.73531614198E-01 -0.22826873998E-01  0.12442020777E+00  0.20072201458E-01 0.  0.
         14    1    1    2    0    0 -0.76003181165E-02  0.22794587255E-01 -0.13407856483E-01  0.27515970982E-01  0.00000000000E+00 0.  1.
     999901    1    3    3    0    0  0.10325349563E+00 -0.96326201454E-01  0.36234730481E-01  0.89199382124E+00  0.88000000000E+00 0. -1.
        -11    1    4    4    0    0 -0.69779195893E-02 -0.16413590865E-03 -0.16265542899E-02  0.71850610470E-02  0.51100000000E-03 0.  1.
         11    1    4    4    0    0 -0.88675257921E-01  0.73695750107E-01 -0.21200319708E-01  0.11723514673E+00  0.51100000000E-03 0. -1.
</event>
<event>
 8    1  0.1061722E+005  0.1043930E+01  0.7957747E-01            NaN
         13   -1    0    0    0    0  0.00000000000E+00  0.00000000000E+00  0.74505805969E-08  0.10566000000E+00  0.10566000000E+00 0. -1.
     999900   -1    0    0    0    0 -0.00000000000E+00 -0.00000000000E+00 -0.74505805969E-08  0.93827000000E+00  0.93827000000E+00 0. -1.
     999902    2    1    2    0    0 -0.12167581219E-01  0.18567657256E-01  0.95767391607E-02  0.10197531131E+01  0.10194664731E+01 0.  0.
     999903    2    3    3    0    0 -0.69633126952E-01 -0.10211816568E+00 -0.30109657765E-01  0.12877479296E+00  0.19986587523E-01 0.  0.
         14    1    1    2    0    0  0.12167581219E-01 -0.18567657256E-01 -0.95767391607E-02  0.24176886930E-01  0.00000000000E+00 0.  1.
     999901    1    3    3    0    0  0.57465545733E-01  0.12068582293E+00  0.39686396925E-01  0.89097832011E+00  0.88000000000E+00 0. -1.
        -11    1    4    4    0    0 -0.37749179171E-01 -0.39673298893E-01 -0.17810343032E-01  0.57588545850E-01  0.51100000000E-03 0.  1.
         11    1    4    4    0    0 -0.31883947781E-01 -0.62444866784E-01 -0.12299314732E-01  0.71186247111E-01  0.51100000000E-03 0. -1.
</event>
<event>
 8    1  0.1061722E+005  0.1043930E+01  0.7957747E-01            NaN
         13   -1    0    0    0    0  0.00000000000E+00  0.00000000000E+00  0.74505805969E-08  0.10566000000E+00  0.10566000000E+00 0. -1.
     999900   -1    0    0    0    0 -0.00000000000E+00 -0.00000000000E+00 -0.74505805969E-08  0.93827000000E+00  0.93827000000E+00 0. -1.
     999902    2    1    2    0    0 -0.14216672540E-01 -0.93044053054E-02 -0.15774609723E-01  0.10207454351E+01  0.10204821014E+01 0.  0.
     999903    2    3    3    0    0 -0.13094162987E-01  0.68145074852E-01  0.10662861546E+00  0.12890339108E+00  0.20765699260E-01 0.  0.
         14    1    1    2    0    0  0.14216672540E-01  0.93044053054E-02  0.15774609723E-01  0.23184564868E-01  0.00000000000E+00 0. -1.
     999901    1    3    3    0    0 -0.11225095530E-02 -0.77449480158E-01 -0.12240322518E+00  0.89184204405E+00  0.88000000000E+00 0. -1.
        -11    1    4    4    0    0  0.26908160857E-02  0.25700045725E-01  0.50963766918E-01  0.57142799205E-01  0.51100000000E-03 0.  1.
         11    1    4    4    0    0 -0.15784979073E-01  0.42445029127E-01  0.55664848543E-01  0.71760591875E-01  0.51100000000E-03 0. -1.
</event>
<event>
 8    1  0.1061722E+005  0.1043930E+01  0.7957747E-01            NaN
         13   -1    0    0    0    0  0.00000000000E+00  0.00000000000E+00  0.74505805969E-08  0.10566000000E+00  0.10566000000E+00 0.  1.
     999900   -1    0    0    0    0 -0.00000000000E+00 -0.00000000000E+00 -0.74505805969E-08  0.93827000000E+00  0.93827000000E+00 0. -1.
     999902    2    1    2    0    0  0.10224769098E-01 -0.10449703412E-01 -0.15374586708E-01  0.10227139655E+01  0.10224938802E+01 0.  0.
     999903    2    3    3    0    0 -0.26283604566E-01  0.10135588034E+00 -0.78965890728E-01  0.13261441832E+00  0.19675611771E-01 0.  0.
         14    1    1    2    0    0 -0.10224769098E-01  0.10449703412E-01  0.15374586708E-01  0.21216034525E-01  0.00000000000E+00 0.  1.
     999901    1    3    3    0    0  0.36508373664E-01 -0.11180558375E+00  0.63591304020E-01  0.89009954716E+00  0.88000000000E+00 0.  1.
        -11    1    4    4    0    0 -0.21325541380E-01  0.61844824657E-01 -0.38842810857E-01  0.76082758417E-01  0.51100000000E-03 0. -1.
         11    1    4    4    0    0 -0.49580631853E-02  0.39511055682E-01 -0.40123079870E-01  0.56531659899E-01  0.51100000000E-03 0.  1.
</event>
<event>
 8    1  0.1061722E+005  0.1043930E+01  0.7957747E-01            NaN
         13   -1    0    0    0    0  0.00000000000E+00  0.00000000000E+00  0.74505805969E-08  0.10566000000E+00  0.10566000000E+00 0. -1.
     999900   -1    0    0    0    0 -0.00000000000E+00 -0.00000000000E+00 -0.74505805969E-08  0.93827000000E+00  0.93827000000E+00 0.  1.
     999902    2    1    2    0    0 -0.10419897782E-01  0.89511378337E-02  0.20276826982E-01  0.10194382289E+01  0.10191439818E+01 0.  0.
     999903    2    3    3    0    0  0.15349840151E-01  0.10424296636E+00  0.76965964293E-01  0.13210612070E+00  0.20641071681E-01 0.  0.
         14    1    1    2    0    0  0.10419897782E-01 -0.89511378337E-02 -0.20276826982E-01  0.24491771083E-01  0.00000000000E+00 0. -1.
     999901    1    3    3    0    0 -0.25769737933E-01 -0.95291828525E-01 -0.56689137311E-01  0.88733210821E+00  0.88000000000E+00 0. -1.
        -11    1    4    4    0    0  0.26946354325E-02  0.63785724464E-01  0.55462429563E-01  0.84570810092E-01  0.51100000000E-03 0.  1.
         11    1    4    4    0    0  0.12655204718E-01  0.40457241894E-01  0.21503534730E-01  0.47535310612E-01  0.51100000000E-03 0. -1.
</event>
<event>
 8    1  0.1061722E+005  0.1043930E+01  0.7957747E-01            NaN
         13   -1    0    0    0    0  0.00000000000E+00  0.00000000000E+00  0.74505805969E-08  0.10566000000E+00  0.10566000000E+00 0.  1.
     999900   -1    0    0    0    0 -0.00000000000E+00 -0.00000000000E+00 -0.74505805969E-08  0.93827000000E+00  0.93827000000E+00 0.  1.
     999902    2    1    2    0    0 -0.12738085515E-01  0.19616668728E-01 -0.46299891961E-02  0.10200865666E+01  0.10198078712E+01 0.  0.
     999903    2    3    3    0    0 -0.12776165690E+00 -0.21062667193E-01  0.11419079785E-01  0.13152435556E+00  0.20039555845E-01 0.  0.
         14    1    1    2    0    0  0.12738085515E-01 -0.19616668728E-01  0.46299891961E-02  0.23843433363E-01  0.00000000000E+00 0.  1.
     999901    1    3    3    0    0  0.11502357138E+00  0.40679335921E-01 -0.16049068981E-01  0.88856221108E+00  0.88000000000E+00 0. -1.
        -11    1    4    4    0    0 -0.10716359694E+00 -0.15274528422E-01  0.23316625557E-02  0.10827301372E+00  0.51100000000E-03 0.  1.
         11    1    4    4    0    0 -0.20598059955E-01 -0.57881387709E-02  0.90874172289E-02  0.23251341837E-01  0.51100000000E-03 0. -1.
</event>
<event>
 8    1  0.1061722E+005  0.1043930E+01  0.7957747E-01            NaN
         13   -1    0    0    0    0  0.00000000000E+00  0.00000000000E+00  0.74505805969E-08  0.10566000000E+00  0.10566000000E+00 0.  1.
     999900   -1    0    0    0    0 -0.00000000000E+00 -0.00000000000E+00 -0.74505805969E-08  0.93827000000E+00  0.93827000000E+00 0. -1.
     999902    2    1    2    0    0  0.17270919314E-01  0.15779192190E-01  0.29641890540E-02  0.10203492032E+01  0.10200766846E+01 0.  0.
     999903    2    3    3    0    0 -0.29888607182E-01  0.39341027401E-02  0.12534788812E+00  0.13055029511E+00  0.20554330286E-01 0.  0.
         14    1    1    2    0    0 -0.17270919314E-01 -0.15779192190E-01 -0.29641890540E-02  0.23580796781E-01  0.00000000000E+00 0.  1.
     999901    1    3    3    0    0  0.47159526496E-01  0.11845089449E-01 -0.12238369906E+00  0.88979890811E+00  0.88000000000E+00 0. -1.
        -11    1    4    4    0    0 -0.62436928215E-02 -0.78172360002E-02  0.37909935009E-01  0.39211186823E-01  0.51100000000E-03 0.  1.
         11    1    4    4    0    0 -0.23644914360E-01  0.11751338740E-01  0.87437953107E-01  0.91339108282E-01  0.51100000000E-03 0. -1.
</event>
<event>
 8    1  0.1061722E+005  0.1043930E+01  0.7957747E-01            NaN
         13   -1    0    0    0    0  0.00000000000E+00  0.00000000000E+00  0.74505805969E-08  0.10566000000E+00  0.10566000000E+00 0.  1.
     999900   -1    0    0    0    0 -0.00000000000E+00 -0.00000000000E+00 -0.74505805969E-08  0.93827000000E+00  0.93827000000E+00 0. -1.
     999902    2    1    2    0    0  0.19967421659E-01  0.42912200940E-02  0.11763362053E-01  0.10203611819E+01  0.10200889434E+01 0.  0.
     999903    2    3    3    0    0  0.10817651548E+00  0.53677542650E-01 -0.50406983454E-01  0.13239440050E+00  0.20099159588E-01 0.  0.
         14    1    1    2    0    0 -0.19967421659E-01 -0.42912200940E-02 -0.11763362053E-01  0.23568818053E-01  0.00000000000E+00 0. -1.
     999901    1    3    3    0    0 -0.88209093825E-01 -0.49386322556E-01  0.62170345507E-01  0.88796678144E+00  0.88000000000E+00 0.  1.
        -11    1    4    4    0    0  0.57917876366E-01  0.18656597471E-01 -0.29853454108E-01  0.67779339590E-01  0.51100000000E-03 0.  1.
         11    1    4    4    0    0  0.50258639118E-01  0.35020945178E-01 -0.20553529346E-01  0.64615060913E-01  0.51100000000E-03 0. -1.
</event>
<event>
 8    1  0.1061722E+005  0.1043930E+01  0.7957747E-01            NaN
         13   -1    0    0    0    0  0.00000000000E+00  0.00000000000E+00  0.74505805969E-08  0.10566000000E+00  0.10566000000E+00 0.  1.
     999900   -1    0    0    0    0 -0.00000000000E+00 -0.00000000000E+00 -0.74505805969E-08  0.93827000000E+00  0.93827000000E+00 0.  1.
     999902    2    1    2    0    0  0.17028816409E-01 -0.47586084247E-02  0.15220122634E-01  0.10206002534E+01  0.10203335730E+01 0.  0.
     999903    2    3    3    0    0 -0.97774706923E-01 -0.71438112520E-01 -0.39328166471E-01  0.12897167544E+00  0.20583759433E-01 0.  0.
         14    1    1    2    0    0 -0.17028816409E-01  0.47586084247E-02 -0.15220122634E-01  0.23329746579E-01  0.00000000000E+00 0. -1.
     999901    1    3    3    0    0  0.11480352333E+00  0.66679504096E-01  0.54548289105E-01  0.89162857799E+00  0.88000000000E+00 0. -1.
        -11    1    4    4    0    0 -0.19252914775E-01 -0.53651936581E-02 -0.36519727340E-02  0.20323829761E-01  0.51100000000E-03 0. -1.
         11    1    4    4    0    0 -0.78521792148E-01 -0.66072918862E-01 -0.35676193737E-01  0.10864784567E+00  0.51100000000E-03 0.  1.
</event>
<event>
 8    1  0.1061722E+005  0.1043930E+01  0.7957747E-01            NaN
         13   -1    0    0    0    0  0.00000000000E+00  0.00000000000E+00  0.74505805969E-08  0.10566000000E+00  0.10566000000E+00 0. -1.
     999900   -1    0    0    0    0 -0.00000000000E+00 -0.00000000000E+00 -0.74505805969E-08  0.93827000000E+00  0.93827000000E+00 0.  1.
     999902    2    1    2    0    0 -0.13673911466E-01 -0.81498569793E-02  0.17494414439E-01  0.10202772928E+01  0.10200030900E+01 0.  0.
     999903    2    3    3    0    0  0.58791706897E-01 -0.52555762754E-01 -0.99530166193E-01  0.12847131453E+00  0.19494914142E-01 0.  0.
         14    1    1    2    0    0  0.13673911466E-01  0.81498569793E-02 -0.17494414439E-01  0.23652707248E-01  0.00000000000E+00 0.  1.
     999901    1    3    3    0    0 -0.72465618363E-01  0.44405905775E-01  0.11702458063E+00  0.89180597822E+00  0.88000000000E+00 0. -1.
        -11    1    4    4    0    0  0.97379396331E-02 -0.10374961379E-01 -0.31610669229E-01  0.34669335471E-01  0.51100000000E-03 0.  1.
         11    1    4    4    0    0  0.49053767264E-01 -0.42180801375E-01 -0.67919496964E-01  0.93801979064E-01  0.51100000000E-03 0. -1.
</event>
<event>
 8    1  0.1061722E+005  0.1043930E+01  0.7957747E-01            NaN
         13   -1    0    0    0    0  0.00000000000E+00  0.00000000000E+00  0.74505805969E-08  0.10566000000E+00  0.10566000000E+00 0. -1.
     999900   -1    0    0    0    0 -0.00000000000E+00 -0.00000000000E+00 -0.74505805969E-08  0.93827000000E+00  0.93827000000E+00 0. -1.
     999902    2    1    2    0    0 -0.23222901425E-01  0.18625554213E-02  0.36301252774E-03  0.10206296987E+01  0.10203636988E+01 0.  0.
     999903    2    3    3    0    0 -0.15082606817E-01 -0.12739564372E+00  0.17876678125E-01  0.13097770216E+00  0.19453734218E-01 0.  0.
         14    1    1    2    0    0  0.23222901425E-01 -0.18625554213E-02 -0.36301252774E-03  0.23300301316E-01  0.00000000000E+00 0.  1.
     999901    1    3    3    0    0 -0.81402946087E-02  0.12925819914E+00 -0.17513665597E-01  0.88965199653E+00  0.88000000000E+00 0. -1.
        -11    1    4    4    0    0 -0.10301362624E-01 -0.10281346316E+00  0.21855570929E-01  0.10561559251E+00  0.51100000000E-03 0.  1.
         11    1    4    4    0    0 -0.47812441931E-02 -0.24582180554E-01 -0.39788928037E-02  0.25362109647E-01  0.51100000000E-03 0. -1.
</event>
<event>
 8    1  0.1061722E+005  0.1043930E+01  0.7957747E-01            NaN
         13   -1    0    0    0    0  0.00000000000E+00  0.00000000000E+00  0.74505805969E-08  0.10566000000E+00  0.10566000000E+00 0.  1.
     999900   -1    0    0    0    0 -0.00000000000E+00 -0.00000000000E+00 -0.74505805969E-08  0.93827000000E+00  0.93827000000E+00 0.  1.
     999902    2    1    2    0    0  0.70027669954E-02  0.22357472546E-01  0.75436361979E-02  0.10193169593E+01  0.10190197554E+01 0.  0.
     999903    2    3    3    0    0 -0.98567717515E-02  0.12656508154E+00 -0.31141554319E-01  0.13216420259E+00  0.19537252260E-01 0.  0.
         14    1    1    2    0    0 -0.70027669954E-02 -0.22357472546E-01 -0.75436361979E-02  0.24613040676E-01  0.00000000000E+00 0.  1.
     999901    1    3    3    0    0  0.16859538747E-01 -0.10420760899E+00  0.38685190517E-01  0.88715275674E+00  0.88000000000E+00 0. -1.
        -11    1    4    4    0    0  0.96472027475E-03  0.26786349084E-01 -0.14338567613E-01  0.30402217429E-01  0.51100000000E-03 0.  1.
         11    1    4    4    0    0 -0.10821492026E-01  0.99778732456E-01 -0.16802986706E-01  0.10176198516E+00  0.51100000000E-03 0. -1.
</event>
<event>
 8    1  0.1061722E+005  0.1043930E+01  0.7957747E-01            NaN
         13   -1    0    0    0    0  0.00000000000E+00  0.00000000000E+00  0.74505805969E-08  0.10566000000E+00  0.10566000000E+00 0. -1.
     999900   -1    0    0    0    0 -0.00000000000E+00 -0.00000000000E+00 -0.74505805969E-08  0.93827000000E+00  0.93827000000E+00 0.  1.
     999902    2    1    2    0    0  0.18267606840E-01 -0.11412651544E-01  0.27005205645E-02  0.10222217784E+01  0.10219912511E+01 0.  0.
     999903    2    3    3    0    0  0.61858636219E-01 -0.17275594326E-01 -0.11503337812E+00  0.13329218451E+00  0.20228478315E-01 0.  0.
         14    1    1    2    0    0 -0.18267606840E-01  0.11412651544E-01 -0.27005205645E-02  0.21708221627E-01  0.00000000000E+00 0.  1.
     999901    1    3    3    0    0 -0.43591029380E-01  0.58629427828E-02  0.11773389869E+00  0.88892959386E+00  0.88000000000E+00 0. -1.
        -11    1    4    4    0    0  0.38915240432E-01 -0.83355682256E-02 -0.88786070390E-01  0.97299049594E-01  0.51100000000E-03 0. -1.
         11    1    4    4    0    0  0.22943395787E-01 -0.89400261009E-02 -0.26247307735E-01  0.35993134918E-01  0.51100000000E-03 0.  1.
</event>
<event>
 8    1  0.1061722E+005  0.1043930E+01  0.7957747E-01            NaN
         13   -1    0    0    0    0  0.00000000000E+00  0.00000000000E+00  0.74505805969E-08  0.10566000000E+00  0.10566000000E+00 0.  1.
     999900   -1    0    0    0    0 -0.00000000000E+00 -0.00000000000E+00 -0.74505805969E-08  0.93827000000E+00  0.93827000000E+00 0. -1.
     999902    2    1    2    0    0 -0.18631322853E-01  0.17550819884E-02 -0.13807102283E-01  0.10206739776E+01  0.10204089994E+01 0.  0.
     999903    2    3    3    0    0  0.55778266878E-02 -0.99232692339E-01 -0.84166545013E-01  0.13177855931E+00  0.20083376603E-01 0.  0.
         14    1    1    2    0    0  0.18631322853E-01 -0.17550819884E-02  0.13807102283E-01  0.23256022392E-01  0.00000000000E+00 0. -1.
     999901    1    3    3    0    0 -0.24209149541E-01  0.10098777433E+00  0.70359442731E-01  0.88889541830E+00  0.88000000000E+00 0.  1.
        -11    1    4    4    0    0  0.19503202219E-02 -0.60663247359E-01 -0.63600154350E-01  0.87915152753E-01  0.51100000000E-03 0.  1.
         11    1    4    4    0    0  0.36275064659E-02 -0.38569444979E-01 -0.20566390663E-01  0.43863406560E-01  0.51100000000E-03 0. -1.
</event>
<event>
 8    1  0.1061722E+005  0.1043930E+01  0.7957747E-01            NaN
         13   -1    0    0    0    0  0.00000000000E+00  0.00000000000E+00  0.74505805969E-08  0.10566000000E+00  0.10566000000E+00 0.  1.
     999900   -1    0    0    0    0 -0.00000000000E+00 -0.00000000000E+00 -0.74505805969E-08  0.93827000000E+00  0.93827000000E+00 0.  1.
     999902    2    1    2    0    0 -0.83022043451E-02 -0.10713173172E-01 -0.20760278522E-01  0.10191371010E+01  0.10188354837E+01 0.  0.
     999903    2    3    3    0    0 -0.33694826149E-02 -0.12173842322E+00 -0.47028842597E-01  0.13175839078E+00  0.17803494200E-01 0.  0.
         14    1    1    2    0    0  0.83022043451E-02  0.10713173172E-01  0.20760278522E-01  0.24792898997E-01  0.00000000000E+00 0.  1.
     999901    1    3    3    0    0 -0.49327217302E-02  0.11102525004E+00  0.26268564076E-01  0.88737871022E+00  0.88000000000E+00 0.  1.
        -11    1    4    4    0    0 -0.50531931040E-02 -0.47418562334E-01 -0.26845423256E-01  0.54726526339E-01  0.51100000000E-03 0. -1.
         11    1    4    4    0    0  0.16837104891E-02 -0.74319860882E-01 -0.20183419342E-01  0.77031864445E-01  0.51100000000E-03 0.  1.
</event>
<event>
 8    1  0.1061722E+005  0.1043930E+01  0.7957747E-01            NaN
         13   -1    0    0    0    0  0.00000000000E+00  0.00000000000E+00  0.74505805969E-08  0.10566000000E+00  0.10566000000E+00 0.  1.
     999900   -1    0    0    0    0 -0.00000000000E+00 -0.00000000000E+00 -0.74505805969E-08  0.93827000000E+00  0.93827000000E+00 0. -1.
     999902    2    1    2    0    0  0.70596137209E-03 -0.80414927950E-02 -0.23418873734E-01  0.10191588952E+01  0.10188578144E+01 0.  0.
     999903    2    3    3    0    0 -0.18541165148E-01 -0.21751103297E-01 -0.12777890400E+00  0.13267741131E+00  0.21423395271E-01 0.  0.
         14    1    1    2    0    0 -0.70596137209E-03  0.80414927950E-02  0.23418873734E-01  0.24771104836E-01  0.00000000000E+00 0.  1.
     999901    1    3    3    0    0  0.19247126520E-01  0.13709610502E-01  0.10436003026E+00  0.88648148385E+00  0.88000000000E+00 0.  1.
        -11    1    4    4    0    0  0.36170065070E-02 -0.11975389200E-02 -0.32299682704E-01  0.32527641465E-01  0.51100000000E-03 0.  1.
         11    1    4    4    0    0 -0.22158171655E-01 -0.20553564377E-01 -0.95479221295E-01  0.10014976984E+00  0.51100000000E-03 0. -1.
</event>
<event>
 8    1  0.1061722E+005  0.1043930E+01  0.7957747E-01            NaN
         13   -1    0    0    0    0  0.00000000000E+00  0.00000000000E+00  0.74505805969E-08  0.10566000000E+00  0.10566000000E+00 0.  1.
     999900   -1    0    0    0    0 -0.00000000000E+00 -0.00000000000E+00 -0.74505805969E-08  0.93827000000E+00  0.93827000000E+00 0.  1.
     999902    2    1    2    0    0  0.32745163336E-02  0.16868637524E-01 -0.15147058730E-01  0.10210235211E+01  0.10207665374E+01 0.  0.
     999903    2    3    3    0    0 -0.24599466530E-01  0.60487071432E-01 -0.11507580377E+00  0.13385652394E+00  0.20280750111E-01 0.  0.
         14    1    1    2    0    0 -0.32745163336E-02 -0.16868637524E-01  0.15147058730E-01  0.22906478938E-01  0.00000000000E+00 0. -1.
     999901    1    3    3    0    0  0.27873982864E-01 -0.43618433908E-01  0.99928745036E-01  0.88716699712E+00  0.88000000000E+00 0. -1.
        -11    1    4    4    0    0 -0.10415848139E-01  0.21432534670E-01 -0.24383060011E-01  0.34097480425E-01  0.51100000000E-03 0. -1.
         11    1    4    4    0    0 -0.14183618391E-01  0.39054536762E-01 -0.90692743755E-01  0.99759043516E-01  0.51100000000E-03 0.  1.
</event>
<event>
 8    1  0.1061722E+005  0.1043930E+01  0.7957747E-01            NaN
         13   -1    0    0    0    0  0.00000000000E+00  0.00000000000E+00  0.74505805969E-08  0.10566000000E+00  0.10566000000E+00 0.  1.
     999900   -1    0    0    0    0 -0.00000000000E+00 -0.00000000000E+00 -0.74505805969E-08  0.93827000000E+00  0.93827000000E+00 0.  1.
     999902    2    1    2    0    0  0.13478779798E-01  0.10853110811E-01 -0.16012122662E-01  0.10203534101E+01  0.10200809899E+01 0.  0.
     999903    2    3    3    0    0 -0.42692285229E-01 -0.11552054791E+00 -0.33796247199E-01  0.12937542763E+00  0.20692673649E-01 0.  0.
         14    1    1    2    0    0 -0.13478779798E-01 -0.10853110811E-01  0.16012122662E-01  0.23576589899E-01  0.00000000000E+00 0.  1.
     999901    1    3    3    0    0  0.56171065027E-01  0.12637365872E+00  0.17784124537E-01  0.89097798247E+00  0.88000000000E+00 0. -1.
        -11    1    4    4    0    0 -0.42937785461E-01 -0.10148617077E+00 -0.34017055786E-01  0.11532786950E+00  0.51100000000E-03 0.  1.
         11    1    4    4    0    0  0.24550023217E-03 -0.14034377139E-01  0.22080858658E-03  0.14047558132E-01  0.51100000000E-03 0. -1.
</event>
<event>
 8    1  0.1061722E+005  0.1043930E+01  0.7957747E-01            NaN
         13   -1    0    0    0    0  0.00000000000E+00  0.00000000000E+00  0.74505805969E-08  0.10566000000E+00  0.10566000000E+00 0. -1.
     999900   -1    0    0    0    0 -0.00000000000E+00 -0.00000000000E+00 -0.74505805969E-08  0.93827000000E+00  0.93827000000E+00 0.  1.
     999902    2    1    2    0    0  0.20554153201E-01  0.59909233854E-02  0.84984080453E-02  0.10208955190E+01  0.10206356222E+01 0.  0.
     999903    2    3    3    0    0 -0.66943918557E-01 -0.46753383981E-01 -0.97422832347E-01  0.12867515175E+00  0.19967956088E-01 0.  0.
         14    1    1    2    0    0 -0.20554153201E-01 -0.59909233854E-02 -0.84984080453E-02  0.23034481026E-01  0.00000000000E+00 0. -1.
     999901    1    3    3    0    0  0.87498071758E-01  0.52744307366E-01  0.10592124039E+00  0.89222036722E+00  0.88000000000E+00 0. -1.
        -11    1    4    4    0    0 -0.48424864998E-01 -0.29796364881E-01 -0.79837553838E-01  0.98015748908E-01  0.51100000000E-03 0.  1.
         11    1    4    4    0    0 -0.18519053559E-01 -0.16957019099E-01 -0.17585278509E-01  0.30659402843E-01  0.51100000000E-03 0. -1.
</event>
<event>
 8    1  0.1061722E+005  0.1043930E+01  0.7957747E-01            NaN
         13   -1    0    0    0    0  0.00000000000E+00  0.00000000000E+00  0.74505805969E-08  0.10566000000E+00  0.10566000000E+00 0.  1.
     999900   -1    0    0    0    0 -0.00000000000E+00 -0.00000000000E+00 -0.74505805969E-08  0.93827000000E+00  0.93827000000E+00 0. -1.
     999902    2    1    2    0    0  0.10108365731E-02 -0.38112558699E-02 -0.23102157520E-01  0.10204937643E+01  0.10202246154E+01 0.  0.
     999903    2    3    3    0    0 -0.77377079448E-02 -0.83616258495E-01  0.95708886189E-01  0.12888766316E+00  0.20007198966E-01 0.  0.
         14    1    1    2    0    0 -0.10108365731E-02  0.38112558699E-02  0.23102157520E-01  0.23436235704E-01  0.00000000000E+00 0.  1.
     999901    1    3    3    0    0  0.87485445179E-02  0.79805002625E-01 -0.11881104371E+00  0.89160610114E+00  0.88000000000E+00 0. -1.
        -11    1    4    4    0    0 -0.61250548835E-02 -0.30666922489E-01  0.49694163235E-01  0.58717522196E-01  0.51100000000E-03 0.  1.
         11    1    4    4    0    0 -0.16126530613E-02 -0.52949336006E-01  0.46014722954E-01  0.70170140964E-01  0.51100000000E-03 0. -1.
</event>
<event>
 8    1  0.1061722E+005  0.1043930E+01  0.7957747E-01            NaN
         13   -1    0    0    0    0  0.00000000000E+00  0.00000000000E+00  0.74505805969E-08  0.10566000000E+00  0.10566000000E+00 0. -1.
     999900   -1    0    0    0    0 -0.00000000000E+00 -0.00000000000E+00 -0.74505805969E-08  0.93827000000E+00  0.93827000000E+00 0.  1.
     999902    2    1    2    0    0  0.18792137426E-01  0.14159884834E-01  0.10082688901E-01  0.10183310277E+01  0.10180092213E+01 0.  0.
     999903    2    3    3    0    0  0.18568196722E-02 -0.87591833668E-01  0.92366707103E-01  0.12849347125E+00  0.17412250538E-01 0.  0.
         14    1    1    2    0    0 -0.18792137426E-01 -0.14159884834E-01 -0.10082688901E-01  0.25598972304E-01  0.00000000000E+00 0. -1.
     999901    1    3    3    0    0  0.16935317754E-01  0.10175171850E+00 -0.82284018203E-01  0.88983755644E+00  0.88000000000E+00 0.  1.
        -11    1    4    4    0    0 -0.70738695165E-02 -0.31599390252E-01  0.29143570960E-01  0.43567992191E-01  0.51100000000E-03 0.  1.
         11    1    4    4    0    0  0.89306891887E-02 -0.55992443417E-01  0.63223136143E-01  0.84925479062E-01  0.51100000000E-03 0. -1.
</event>
<event>
 8    1  0.1061722E+005  0.1043930E+01  0.7957747E-01            NaN
         13   -1    0    0    0    0  0.00000000000E+00  0.00000000000E+00  0.74505805969E-08  0.10566000000E+00  0.10566000000E+00 0.  1.
     999900   -1    0    0    0    0 -0.00000000000E+00 -0.00000000000E+00 -0.74505805969E-08  0.93827000000E+00  0.93827000000E+00 0.  1.
     999902    2    1    2    0    0 -0.49143306820E-02  0.88165018809E-02 -0.19889086279E-01  0.10216262536E+01  0.10213827612E+01 0.  0.
     999903    2    3    3    0    0  0.38220272236E-01 -0.70968706470E-01 -0.10386848626E+00  0.13298751198E+00  0.19991733232E-01 0.  0.
         14    1    1    2    0    0  0.49143306820E-02 -0.88165018809E-02  0.19889086279E-01  0.22303746423E-01  0.00000000000E+00 0.  1.
     999901    1    3    3    0    0 -0.43134602918E-01  0.79785208351E-01  0.83979399981E-01  0.88863874159E+00  0.88000000000E+00 0. -1.
        -11    1    4    4    0    0  0.21995545262E-01 -0.37450533576E-01 -0.71428138172E-01  0.83597766240E-01  0.51100000000E-03 0.  1.
         11    1    4    4    0    0  0.16224726974E-01 -0.33518172894E-01 -0.32440348088E-01  0.49389745743E-01  0.51100000000E-03 0. -1.
</event>
<event>
 8    1  0.1061722E+005  0.1043930E+01  0.7957747E-01            NaN
         13   -1    0    0    0    0  0.00000000000E+00  0.00000000000E+00  0.74505805969E-08  0.10566000000E+00  0.10566000000E+00 0. -1.
     999900   -1    0    0    0    0 -0.00000000000E+00 -0.00000000000E+00 -0.74505805969E-08  0.93827000000E+00  0.93827000000E+00 0. -1.
     999902    2    1    2    0    0 -0.79587678578E-02  0.84511296719E-02 -0.19143743852E-01  0.10215414648E+01  0.10212960971E+01 0.  0.
     999903    2    3    3    0    0  0.42596782792E-01  0.28066640659E-01 -0.12216248116E+00  0.13387402022E+00  0.19908773559E-01 0.  0.
         14    1    1    2    0    0  0.79587678578E-02 -0.84511296719E-02  0.19143743852E-01  0.22388535174E-01  0.00000000000E+00 0. -1.
     999901    1    3    3    0    0 -0.50555550650E-01 -0.19615510987E-01  0.10301873731E+00  0.88766744460E+00  0.88000000000E+00 0.  1.
        -11    1    4    4    0    0  0.37065901809E-01  0.19975793851E-01 -0.78067333105E-01  0.88699960744E-01  0.51100000000E-03 0.  1.
         11    1    4    4    0    0  0.55308809823E-02  0.80908468078E-02 -0.44095148057E-01  0.45174059478E-01  0.51100000000E-03 0. -1.
</event>
<event>
 8    1  0.1061722E+005  0.1043930E+01  0.7957747E-01            NaN
         13   -1    0    0    0    0  0.00000000000E+00  0.00000000000E+00  0.74505805969E-08  0.10566000000E+00  0.10566000000E+00 0.  1.
     999900   -1    0    0    0    0 -0.00000000000E+00 -0.00000000000E+00 -0.74505805969E-08  0.93827000000E+00  0.93827000000E+00 0. -1.
     999902    2    1    2    0    0 -0.47759040331E-02 -0.16909026971E-01  0.16408979391E-01  0.10198888050E+01  0.10196054117E+01 0.  0.
     999903    2    3    3    0    0  0.10373365432E+00 -0.66610246357E-01 -0.36959309390E-01  0.13023004474E+00  0.19906733590E-01 0.  0.
         14    1    1    2    0    0  0.47759040331E-02  0.16909026971E-01 -0.16408979391E-01  0.24041195001E-01  0.00000000000E+00 0. -1.
     999901    1    3    3    0    0 -0.10850955836E+00  0.49701219386E-01  0.53368288781E-01  0.88965876026E+00  0.88000000000E+00 0.  1.
        -11    1    4    4    0    0  0.98954998145E-01 -0.57546423309E-01 -0.35605369693E-01  0.11988196681E+00  0.51100000000E-03 0. -1.
         11    1    4    4    0    0  0.47786561792E-02 -0.90638230485E-02 -0.13539396977E-02  0.10348077930E-01  0.51100000000E-03 0.  1.
</event>
<event>
 8    1  0.1061722E+005  0.1043930E+01  0.7957747E-01            NaN
         13   -1    0    0    0    0  0.00000000000E+00  0.00000000000E+00  0.74505805969E-08  0.10566000000E+00  0.10566000000E+00 0. -1.
     999900   -1    0    0    0    0 -0.00000000000E+00 -0.00000000000E+00 -0.74505805969E-08  0.93827000000E+00  0.93827000000E+00 0. -1.
     999902    2    1    2    0    0  0.13562538058E-01  0.37274828678E-02 -0.19825028360E-01  0.10196222170E+01  0.10193324271E+01 0.  0.
     999903    2    3    3    0    0  0.10288364881E+00 -0.58384144221E-01  0.49737867038E-01  0.13019818340E+00  0.21999046689E-01 0.  0.
         14    1    1    2    0    0 -0.13562538058E-01 -0.37274828678E-02  0.19825028360E-01  0.24307783045E-01  0.00000000000E+00 0. -1.
     999901    1    3    3    0    0 -0.89321110750E-01  0.62111627088E-01 -0.69562895398E-01  0.88942403355E+00  0.88000000000E+00 0. -1.
        -11    1    4    4    0    0  0.28713445266E-01 -0.26984168234E-01  0.21201201488E-01  0.44747729996E-01  0.51100000000E-03 0. -1.
         11    1    4    4    0    0  0.74170203543E-01 -0.31399975987E-01  0.28536665550E-01  0.85450453406E-01  0.51100000000E-03 0.  1.
</event>
<event>
 8    1  0.1061722E+005  0.1043930E+01  0.7957747E-01            NaN
         13   -1    0    0    0    0  0.00000000000E+00  0.00000000000E+00  0.74505805969E-08  0.10566000000E+00  0.10566000000E+00 0.  1.
     999900   -1    0    0    0    0 -0.00000000000E+00 -0.00000000000E+00 -0.74505805969E-08  0.93827000000E+00  0.93827000000E+00 0. -1.
     999902    2    1    2    0    0 -0.23695182267E-01  0.21867715437E-03 -0.54766244123E-02  0.10196091674E+01  0.10193190626E+01 0.  0.
     999903    2    3    3    0    0  0.10779027101E-01  0.16986375744E-02 -0.12857667525E+00  0.13037113185E+00  0.18590261027E-01 0.  0.
         14    1    1    2    0    0  0.23695182267E-01 -0.21867715437E-03  0.54766244123E-02  0.24320832579E-01  0.00000000000E+00 0.  1.
     999901    1    3    3    0    0 -0.34474209369E-01 -0.14799604200E-02  0.12310005084E+00  0.88923803557E+00  0.88000000000E+00 0.  1.
        -11    1    4    4    0    0  0.84733890898E-02  0.98883498267E-02 -0.78205053605E-01  0.79283474415E-01  0.51100000000E-03 0.  1.
         11    1    4    4    0    0  0.23056380116E-02 -0.81897122523E-02 -0.50371621649E-01  0.51087657432E-01  0.51100000000E-03 0. -1.
</event>
<event>
 8    1  0.1061722E+005  0.1043930E+01  0.7957747E-01            NaN
         13   -1    0    0    0    0  0.00000000000E+00  0.00000000000E+00  0.74505805969E-08  0.10566000000E+00  0.10566000000E+00 0.  1.
     999900   -1    0    0    0    0 -0.00000000000E+00 -0.00000000000E+00 -0.74505805969E-08  0.93827000000E+00  0.93827000000E+00 0.  1.
     999902    2    1    2    0    0  0.10654593852E-01  0.20101019289E-01 -0.71339640599E-02  0.10200875003E+01  0.10198088270E+01 0.  0.
     999903    2    3    3    0    0  0.91307483678E-01  0.47465080633E-01  0.79487223127E-01  0.13174246008E+00  0.21162861167E-01 0.  0.
         14    1    1    2    0    0 -0.10654593852E-01 -0.20101019289E-01  0.71339640599E-02  0.23842499655E-01  0.00000000000E+00 0. -1.
     999901    1    3    3    0    0 -0.80652889827E-01 -0.27364061344E-01 -0.86621187187E-01  0.88834504026E+00  0.88000000000E+00 0.  1.
        -11    1    4    4    0    0  0.44164974587E-01  0.11730270006E-01  0.38733887562E-01  0.59905921087E-01  0.51100000000E-03 0.  1.
         11    1    4    4    0    0  0.47142509092E-01  0.35734810627E-01  0.40753335565E-01  0.71836538995E-01  0.51100000000E-03 0. -1.
</event>
<event>
 8    1  0.1061722E+005  0.1043930E+01  0.7957747E-01            NaN
         13   -1    0    0    0    0  0.00000000000E+00  0.00000000000E+00  0.74505805969E-08  0.10566000000E+00  0.10566000000E+00 0.  1.
     999900   -1    0    0    0    0 -0.00000000000E+00 -0.00000000000E+00 -0.74505805969E-08  0.93827000000E+00  0.93827000000E+00 0. -1.
     999902    2    1    2    0    0 -0.15748061348E-01  0.11170393402E-01  0.13799751819E-01  0.10201979062E+01  0.10199218380E+01 0.  0.
     999903    2    3    3    0    0  0.53969820390E-02  0.10053250987E-01 -0.12682020265E+00  0.12878199181E+00  0.19267650190E-01 0.  0.
         14    1    1    2    0    0  0.15748061348E-01 -0.11170393402E-01 -0.13799751819E-01  0.23732093781E-01  0.00000000000E+00 0. -1.
     999901    1    3    3    0    0 -0.21145043387E-01  0.11171424150E-02  0.14061995447E+00  0.89141591441E+00  0.88000000000E+00 0.  1.
        -11    1    4    4    0    0  0.93804541719E-02 -0.17918154748E-02 -0.44413171631E-01  0.45431205778E-01  0.51100000000E-03 0.  1.
         11    1    4    4    0    0 -0.39834721329E-02  0.11845066462E-01 -0.82407031019E-01  0.83350786031E-01  0.51100000000E-03 0. -1.
</event>
<event>
 8    1  0.1061722E+005  0.1043930E+01  0.7957747E-01            NaN
         13   -1    0    0    0    0  0.00000000000E+00  0.00000000000E+00  0.74505805969E-08  0.10566000000E+00  0.10566000000E+00 0. -1.
     999900   -1    0    0    0    0 -0.00000000000E+00 -0.00000000000E+00 -0.74505805969E-08  0.93827000000E+00  0.93827000000E+00 0.  1.
     999902    2    1    2    0    0 -0.10907701667E-01 -0.19928009448E-01 -0.50672029344E-02  0.10206538306E+01  0.10203883878E+01 0.  0.
     999903    2    3    3    0    0 -0.79226478302E-01  0.72538521630E-01  0.70486766951E-01  0.12996537947E+00  0.19594477846E-01 0.  0.
         14    1    1    2    0    0  0.10907701667E-01  0.19928009448E-01  0.50672029344E-02  0.23276169397E-01  0.00000000000E+00 0.  1.
     999901    1    3    3    0    0  0.68318776635E-01 -0.92466531078E-01 -0.75553969885E-01  0.89068845113E+00  0.88000000000E+00 0.  1.
        -11    1    4    4    0    0 -0.53071453176E-01  0.38501634534E-01  0.49659429412E-01  0.82251292115E-01  0.51100000000E-03 0. -1.
         11    1    4    4    0    0 -0.26155025126E-01  0.34036887095E-01  0.20827337539E-01  0.47714087359E-01  0.51100000000E-03 0.  1.
</event>
<event>
 8    1  0.1061722E+005  0.1043930E+01  0.7957747E-01            NaN
         13   -1    0    0    0    0  0.00000000000E+00  0.00000000000E+00  0.74505805969E-08  0.10566000000E+00  0.10566000000E+00 0.  1.
     999900   -1    0    0    0    0 -0.00000000000E+00 -0.00000000000E+00 -0.74505805969E-08  0.93827000000E+00  0.93827000000E+00 0. -1.
     999902    2    1    2    0    0  0.35760889131E-02 -0.73727703557E-02  0.19450641466E-01  0.10228237543E+01  0.10226059645E+01 0.  0.
     999903    2    3    3    0    0 -0.38850316400E-01  0.86682255028E-01  0.91601450670E-01  0.13386251389E+00  0.22476352859E-01 0.  0.
         14    1    1    2    0    0 -0.35760889131E-02  0.73727703557E-02 -0.19450641466E-01  0.21106245713E-01  0.00000000000E+00 0. -1.
     999901    1    3    3    0    0  0.42426405313E-01 -0.94055025384E-01 -0.72150809204E-01  0.88896124040E+00  0.88000000000E+00 0. -1.
        -11    1    4    4    0    0 -0.12143563354E-01  0.36696245247E-01  0.23406197108E-01  0.45190615511E-01  0.51100000000E-03 0.  1.
         11    1    4    4    0    0 -0.26706753046E-01  0.49986009781E-01  0.68195253562E-01  0.88671898375E-01  0.51100000000E-03 0. -1.
</event>
<event>
 8    1  0.1061722E+005  0.1043930E+01  0.7957747E-01            NaN
         13   -1    0    0    0    0  0.00000000000E+00  0.00000000000E+00  0.74505805969E-08  0.10566000000E+00  0.10566000000E+00 0.  1.
     999900   -1    0    0    0    0 -0.00000000000E+00 -0.00000000000E+00 -0.74505805969E-08  0.93827000000E+00  0.93827000000E+00 0. -1.
     999902    2    1    2    0    0 -0.17114913272E-01  0.44588043961E-02 -0.15754290303E-01  0.10202445856E+01  0.10199696150E+01 0.  0.
     999903    2    3    3    0    0 -0.92196916056E-02  0.11526746086E+00 -0.60544439696E-01  0.13213026279E+00  0.20522839027E-01 0.  0.
         14    1    1    2    0    0  0.17114913272E-01 -0.44588043961E-02  0.15754290303E-01  0.23685414413E-01  0.00000000000E+00 0.  1.
     999901    1    3    3    0    0 -0.78952216669E-02 -0.11080865646E+00  0.44790149393E-01  0.88811432280E+00  0.88000000000E+00 0. -1.
        -11    1    4    4    0    0  0.19824041594E-02  0.87032034911E-01 -0.44303263310E-01  0.97680833780E-01  0.51100000000E-03 0. -1.
         11    1    4    4    0    0 -0.11202095765E-01  0.28235425945E-01 -0.16241176386E-01  0.34449429012E-01  0.51100000000E-03 0.  1.
</event>
<event>
 8    1  0.1061722E+005  0.1043930E+01  0.7957747E-01            NaN
         13   -1    0    0    0    0  0.00000000000E+00  0.00000000000E+00  0.74505805969E-08  0.10566000000E+00  0.10566000000E+00 0. -1.
     999900   -1    0    0    0    0 -0.00000000000E+00 -0.00000000000E+00 -0.74505805969E-08  0.93827000000E+00  0.93827000000E+00 0.  1.
     999902    2    1    2    0    0  0.77880685041E-02  0.17262700028E-01 -0.14471980667E-01  0.10200952974E+01  0.10198168084E+01 0.  0.
     999903    2    3    3    0    0 -0.27862368311E-01 -0.11737808839E+00 -0.40435308185E-01  0.12876304178E+00  0.19773203493E-01 0.  0.
         14    1    1    2    0    0 -0.77880685041E-02 -0.17262700028E-01  0.14471980667E-01  0.23834702593E-01  0.00000000000E+00 0. -1.
     999901    1    3    3    0    0  0.35650436816E-01  0.13464078842E+00  0.25963327518E-01  0.89133225563E+00  0.88000000000E+00 0.  1.
        -11    1    4    4    0    0 -0.23964112821E-01 -0.59659331388E-01 -0.23913214530E-01  0.68597503418E-01  0.51100000000E-03 0.  1.
         11    1    4    4    0    0 -0.38982554902E-02 -0.57718757006E-01 -0.16522093655E-01  0.60165538358E-01  0.51100000000E-03 0. -1.
</event>
<event>
 8    1  0.1061722E+005  0.1043930E+01  0.7957747E-01            NaN
         13   -1    0    0    0    0  0.00000000000E+00  0.00000000000E+00  0.74505805969E-08  0.10566000000E+00  0.10566000000E+00 0. -1.
     999900   -1    0    0    0    0 -0.00000000000E+00 -0.00000000000E+00 -0.74505805969E-08  0.93827000000E+00  0.93827000000E+00 0.  1.
     999902    2    1    2    0    0  0.23967062368E-01  0.10008119971E-01 -0.12358912422E-02  0.10179278853E+01  0.10175957300E+01 0.  0.
     999903    2    3    3    0    0 -0.75839204450E-01 -0.73609340874E-01  0.65449136218E-01  0.12585161972E+00  0.19624493834E-01 0.  0.
         14    1    1    2    0    0 -0.23967062368E-01 -0.10008119971E-01  0.12358912422E-02  0.26002114742E-01  0.00000000000E+00 0. -1.
     999901    1    3    3    0    0  0.99806266818E-01  0.83617460845E-01 -0.66685027460E-01  0.89207626554E+00  0.88000000000E+00 0.  1.
        -11    1    4    4    0    0 -0.36251624937E-01 -0.39035418112E-01  0.43944891198E-01  0.69060544170E-01  0.51100000000E-03 0. -1.
         11    1    4    4    0    0 -0.39587579513E-01 -0.34573922762E-01  0.21504245020E-01  0.56791075547E-01  0.51100000000E-03 0.  1.
</event>
<event>
 8    1  0.1061722E+005  0.1043930E+01  0.7957747E-01            NaN
         13   -1    0    0    0    0  0.00000000000E+00  0.00000000000E+00  0.74505805969E-08  0.10566000000E+00  0.10566000000E+00 0. -1.
     999900   -1    0    0    0    0 -0.00000000000E+00 -0.00000000000E+00 -0.74505805969E-08  0.93827000000E+00  0.93827000000E+00 0.  1.
     999902    2    1    2    0    0 -0.83877047391E-03  0.21323572358E-01  0.10213220398E-01  0.10202718482E+01  0.10199975177E+01 0.  0.
     999903    2    3    3    0    0  0.10778818401E-01 -0.97179856935E-01 -0.79911556636E-01  0.12769103589E+00  0.18948251728E-01 0.  0.
         14    1    1    2    0    0  0.83877047391E-03 -0.21323572358E-01 -0.10213220398E-01  0.23658151765E-01  0.00000000000E+00 0.  1.
     999901    1    3    3    0    0 -0.11617588875E-01  0.11850342929E+00  0.90124777034E-01  0.89258081234E+00  0.88000000000E+00 0. -1.
        -11    1    4    4    0    0 -0.54203903067E-02 -0.29355621773E-01 -0.24537211693E-01  0.38645427147E-01  0.51100000000E-03 0. -1.
         11    1    4    4    0    0  0.16199208708E-01 -0.67824235162E-01 -0.55374344943E-01  0.89045608746E-01  0.51100000000E-03 0.  1.
</event>
<event>
 8    1  0.1061722E+005  0.1043930E+01  0.7957747E-01            NaN
         13   -1    0    0    0    0  0.00000000000E+00  0.00000000000E+00  0.74505805969E-08  0.10566000000E+00  0.10566000000E+00 0.  1.
     999900   -1    0    0    0    0 -0.00000000000E+00 -0.00000000000E+00 -0.74505805969E-08  0.93827000000E+00  0.93827000000E+00 0. -1.
     999902    2    1    2    0    0 -0.15911379431E-01  0.14165583135E-01 -0.84661662243E-02  0.10210059578E+01  0.10207485754E+01 0.  0.
     999903    2    3    3    0    0 -0.10395279201E+00 -0.37847588489E-01  0.68955095362E-01  0.13170808188E+00  0.18804008442E-01 0.  0.
         14    1    1    2    0    0  0.15911379431E-01 -0.14165583135E-01  0.84661662243E-02  0.22924042215E-01  0.00000000000E+00 0. -1.
     999901    1    3    3    0    0  0.88041412580E-01  0.52013171623E-01 -0.77421261586E-01  0.88929787591E+00  0.88000000000E+00 0.  1.
        -11    1    4    4    0    0 -0.91974816515E-02 -0.46877772363E-02  0.13552292314E-01  0.17043904251E-01  0.51100000000E-03 0. -1.
         11    1    4    4    0    0 -0.94755310360E-01 -0.33159811252E-01  0.55402803048E-01  0.11466417762E+00  0.51100000000E-03 0.  1.
</event>
<event>
 8    1  0.1061722E+005  0.1043930E+01  0.7957747E-01            NaN
         13   -1    0    0    0    0  0.00000000000E+00  0.00000000000E+00  0.74505805969E-08  0.10566000000E+00  0.10566000000E+00 0.  1.
     999900   -1    0    0    0    0 -0.00000000000E+00 -0.00000000000E+00 -0.74505805969E-08  0.93827000000E+00  0.93827000000E+00 0.  1.
     999902    2    1    2    0    0 -0.19867258005E-01 -0.89784101310E-02 -0.76528630745E-02  0.10208240245E+01  0.10205624934E+01 0.  0.
     999903    2    3    3    0    0 -0.14085753254E-01 -0.14365252652E-01  0.12718982479E+00  0.13051790058E+00  0.21281492257E-01 0.  0.
         14    1    1    2    0    0  0.19867258005E-01  0.89784101310E-02  0.76528630745E-02  0.23105975468E-01  0.00000000000E+00 0.  1.
     999901    1    3    3    0    0 -0.57815047504E-02  0.53868425213E-02 -0.13484268787E+00  0.89030612395E+00  0.88000000000E+00 0.  1.
        -11    1    4    4    0    0 -0.80361513557E-02 -0.18492238018E-01  0.69646326751E-01  0.72508030910E-01  0.51100000000E-03 0.  1.
         11    1    4    4    0    0 -0.60496018984E-02  0.41269853658E-02  0.57543498044E-01  0.58009869673E-01  0.51100000000E-03 0. -1.
</event>
<event>
 8    1  0.1061722E+005  0.1043930E+01  0.7957747E-01            NaN
         13   -1    0    0    0    0  0.00000000000E+00  0.00000000000E+00  0.74505805969E-08  0.10566000000E+00  0.10566000000E+00 0.  1.
     999900   -1    0    0    0    0 -0.00000000000E+00 -0.00000000000E+00 -0.74505805969E-08  0.93827000000E+00  0.93827000000E+00 0. -1.
     999902    2    1    2    0    0 -0.17746161586E-01  0.11502728285E-01  0.63147292676E-02  0.10218593223E+01  0.10216209472E+01 0.  0.
     999903    2    3    3    0    0 -0.25738638993E-01  0.30924345898E-01 -0.12408575393E+00  0.13200238719E+00  0.20212946030E-01 0.  0.
         14    1    1    2    0    0  0.17746161586E-01 -0.11502728285E-01 -0.63147292676E-02  0.22070677714E-01  0.00000000000E+00 0. -1.
     999901    1    3    3    0    0  0.79924774074E-02 -0.19421617613E-01  0.13040048320E+00  0.88985693510E+00  0.88000000000E+00 0.  1.
        -11    1    4    4    0    0 -0.15062625170E-01  0.26952496193E-01 -0.10770109803E+00  0.11204065050E+00  0.51100000000E-03 0.  1.
         11    1    4    4    0    0 -0.10676013823E-01  0.39718497044E-02 -0.16384655908E-01  0.19961736684E-01  0.51100000000E-03 0. -1.
</event>
<event>
 8    1  0.1061722E+005  0.1043930E+01  0.7957747E-01            NaN
         13   -1    0    0    0    0  0.00000000000E+00  0.00000000000E+00  0.74505805969E-08  0.10566000000E+00  0.10566000000E+00 0.  1.
     999900   -1    0    0    0    0 -0.00000000000E+00 -0.00000000000E+00 -0.74505805969E-08  0.93827000000E+00  0.93827000000E+00 0.  1.
     999902    2    1    2    0    0  0.16787180568E-01  0.10955252046E-01 -0.12228405281E-01  0.10204489252E+01  0.10201787334E+01 0.  0.
     999903    2    3    3    0    0  0.50479596498E-01  0.12050878280E+00 -0.12454124679E-01  0.13301599479E+00  0.21623904700E-01 0.  0.
         14    1    1    2    0    0 -0.16787180568E-01 -0.10955252046E-01  0.12228405281E-01  0.23481074816E-01  0.00000000000E+00 0.  1.
     999901    1    3    3    0    0 -0.33692415930E-01 -0.10955353076E+00  0.22571939800E-03  0.88743293039E+00  0.88000000000E+00 0. -1.
        -11    1    4    4    0    0  0.39454324199E-02  0.32132922559E-01 -0.12860948187E-03  0.32378523910E-01  0.51100000000E-03 0.  1.
         11    1    4    4    0    0  0.46534164078E-01  0.88375860243E-01 -0.12325515197E-01  0.10063747088E+00  0.51100000000E-03 0. -1.
</event>
<event>
 8    1  0.1061722E+005  0.1043930E+01  0.7957747E-01            NaN
         13   -1    0    0    0    0  0.00000000000E+00  0.00000000000E+00  0.74505805969E-08  0.10566000000E+00  0.10566000000E+00 0. -1.
     999900   -1    0    0    0    0 -0.00000000000E+00 -0.00000000000E+00 -0.74505805969E-08  0.93827000000E+00  0.93827000000E+00 0.  1.
     999902    2    1    2    0    0 -0.17240644778E-02 -0.24139737362E-01  0.11367757472E-02  0.10197020909E+01  0.10194142253E+01 0.  0.
     999903    2    3    3    0    0  0.24382303235E-01  0.11731580888E+00 -0.37852784950E-01  0.12717119521E+00  0.19549522667E-01 0.  0.
         14    1    1    2    0    0  0.17240644778E-02  0.24139737362E-01 -0.11367757472E-02  0.24227909058E-01  0.00000000000E+00 0. -1.
     999901    1    3    3    0    0 -0.26106367713E-01 -0.14145554625E+00  0.38989560697E-01  0.89253089574E+00  0.88000000000E+00 0.  1.
        -11    1    4    4    0    0  0.70785724504E-02  0.39355293537E-01 -0.22380522277E-01  0.45826784916E-01  0.51100000000E-03 0.  1.
         11    1    4    4    0    0  0.17303730785E-01  0.77960515347E-01 -0.15472262673E-01  0.81344410290E-01  0.51100000000E-03 0. -1.
</event>
<event>
 8    1  0.1061722E+005  0.1043930E+01  0.7957747E-01            NaN
         13   -1    0    0    0    0  0.00000000000E+00  0.00000000000E+00  0.74505805969E-08  0.10566000000E+00  0.10566000000E+00 0.  1.
     999900   -1    0    0    0    0 -0.00000000000E+00 -0.00000000000E+00 -0.74505805969E-08  0.93827000000E+00  0.93827000000E+00 0.  1.
     999902    2    1    2    0    0 -0.23283271625E-01 -0.24357062370E-02 -0.39131842898E-02  0.10201948696E+01  0.10199187299E+01 0.  0.
     999903    2    3    3    0    0 -0.37179795502E-01 -0.90287456656E-01  0.85049105155E-01  0.13124867757E+00  0.21417354045E-01 0.  0.
         14    1    1    2    0    0  0.23283271625E-01  0.24357062370E-02  0.39131842898E-02  0.23735130371E-01  0.00000000000E+00 0.  1.
     999901    1    3    3    0    0  0.13896523877E-01  0.87851750419E-01 -0.88962289444E-01  0.88894619206E+00  0.88000000000E+00 0.  1.
        -11    1    4    4    0    0 -0.10039896414E-01 -0.50875144400E-01  0.39590654878E-01  0.65243857277E-01  0.51100000000E-03 0. -1.
         11    1    4    4    0    0 -0.27139899087E-01 -0.39412312256E-01  0.45458450277E-01  0.66004820297E-01  0.51100000000E-03 0.  1.
</event>
<event>
 8    1  0.1061722E+005  0.1043930E+01  0.7957747E-01            NaN
         13   -1    0    0    0    0  0.00000000000E+00  0.00000000000E+00  0.74505805969E-08  0.10566000000E+00  0.10566000000E+00 0. -1.
     999900   -1    0    0    0    0 -0.00000000000E+00 -0.00000000000E+00 -0.74505805969E-08  0.93827000000E+00  0.93827000000E+00 0.  1.
     999902    2    1    2    0    0  0.14640555579E-01 -0.13941123390E-01  0.13765575984E-01  0.10194720387E+01  0.10191786133E+01 0.  0.
     999903    2    3    3    0    0  0.73427542997E-01  0.10465646263E+00 -0.55767898337E-02  0.12936225647E+00  0.18945014484E-01 0.  0.
         14    1    1    2    0    0 -0.14640555579E-01  0.13941123390E-01 -0.13765575984E-01  0.24457961305E-01  0.00000000000E+00 0.  1.
     999901    1    3    3    0    0 -0.58786987418E-01 -0.11859758602E+00  0.19342365818E-01  0.89010978223E+00  0.88000000000E+00 0. -1.
        -11    1    4    4    0    0  0.57722237273E-01  0.72929217113E-01  0.25167090383E-02  0.93043658193E-01  0.51100000000E-03 0. -1.
         11    1    4    4    0    0  0.15705305724E-01  0.31727245513E-01 -0.80934988720E-02  0.36318598276E-01  0.51100000000E-03 0.  1.
</event>
<event>
 8    1  0.1061722E+005  0.1043930E+01  0.7957747E-01            NaN
         13   -1    0    0    0    0  0.00000000000E+00  0.00000000000E+00  0.74505805969E-08  0.10566000000E+00  0.10566000000E+00 0.  1.
     999900   -1    0    0    0    0 -0.00000000000E+00 -0.00000000000E+00 -0.74505805969E-08  0.93827000000E+00  0.93827000000E+00 0. -1.
     999902    2    1    2    0    0  0.93744227330E-02  0.10054938326E-01  0.18103390447E-01  0.10211986487E+01  0.10209456233E+01 0.  0.
     999903    2    3    3    0    0 -0.73958915337E-01  0.62754199478E-01  0.87957207825E-01  0.13294124616E+00  0.22997691461E-01 0.  0.
         14    1    1    2    0    0 -0.93744227330E-02 -0.10054938326E-01 -0.18103390447E-01  0.22731351302E-01  0.00000000000E+00 0. -1.
     999901    1    3    3    0    0  0.83333338070E-01 -0.52699261151E-01 -0.69853817378E-01  0.88825740254E+00  0.88000000000E+00 0. -1.
        -11    1    4    4    0    0 -0.27696220774E-01  0.37413378951E-01  0.47049049181E-01  0.66186975452E-01  0.51100000000E-03 0. -1.
         11    1    4    4    0    0 -0.46262694563E-01  0.25340820527E-01  0.40908158645E-01  0.66754270709E-01  0.51100000000E-03 0.  1.
</event>
<event>
 8    1  0.1061722E+005  0.1043930E+01  0.7957747E-01            NaN
         13   -1    0    0    0    0  0.00000000000E+00  0.00000000000E+00  0.74505805969E-08  0.10566000000E+00  0.10566000000E+00 0. -1.
     999900   -1    0    0    0    0 -0.00000000000E+00 -0.00000000000E+00 -0.74505805969E-08  0.93827000000E+00  0.93827000000E+00 0.  1.
     999902    2    1    2    0    0 -0.10703643036E-01 -0.74598848788E-03  0.20845341195E-01  0.10204853263E+01  0.10202159813E+01 0.  0.
     999903    2    3    3    0    0 -0.51578951054E-01  0.10714718371E+00 -0.48992770812E-01  0.13021059948E+00  0.20337193903E-01 0.  0.
         14    1    1    2    0    0  0.10703643036E-01  0.74598848788E-03 -0.20845341195E-01  0.23444673651E-01  0.00000000000E+00 0.  1.
     999901    1    3    3    0    0  0.40875308018E-01 -0.10789317220E+00  0.69838112007E-01  0.89027472687E+00  0.88000000000E+00 0. -1.
        -11    1    4    4    0    0 -0.15456848386E-01  0.17070035299E-01 -0.46026630321E-02  0.23489271916E-01  0.51100000000E-03 0. -1.
         11    1    4    4    0    0 -0.36122102668E-01  0.90077148413E-01 -0.44390107780E-01  0.10672132756E+00  0.51100000000E-03 0.  1.
</event>
<event>
 8    1  0.1061722E+005  0.1043930E+01  0.7957747E-01            NaN
         13   -1    0    0    0    0  0.00000000000E+00  0.00000000000E+00  0.74505805969E-08  0.10566000000E+00  0.10566000000E+00 0. -1.
     999900   -1    0    0    0    0 -0.00000000000E+00 -0.00000000000E+00 -0.74505805969E-08  0.93827000000E+00  0.93827000000E+00 0. -1.
     999902    2    1    2    0    0 -0.15719174938E-01  0.15968493342E-01 -0.86810407707E-02  0.10198998999E+01  0.10196167712E+01 0.  0.
     999903    2    3    3    0    0 -0.37878931135E-01  0.36769756669E-01 -0.11990788163E+00  0.13237798050E+00  0.18952604385E-01 0.  0.
         14    1    1    2    0    0  0.15719174938E-01 -0.15968493342E-01  0.86810407707E-02  0.24030100067E-01  0.00000000000E+00 0.  1.
     999901    1    3    3    0    0  0.22159756197E-01 -0.20801263326E-01  0.11122684086E+00  0.88752191944E+00  0.88000000000E+00 0.  1.
        -11    1    4    4    0    0 -0.22438985925E-01  0.33360263046E-01 -0.88781565610E-01  0.97462006715E-01  0.51100000000E-03 0.  1.
         11    1    4    4    0    0 -0.15439945210E-01  0.34094936227E-02 -0.31126316025E-01  0.34915973782E-01  0.51100000000E-03 0. -1.
</event>
<event>
 8    1  0.1061722E+005  0.1043930E+01  0.7957747E-01            NaN
         13   -1    0    0    0    0  0.00000000000E+00  0.00000000000E+00  0.74505805969E-08  0.10566000000E+00  0.10566000000E+00 0. -1.
     999900   -1    0    0    0    0 -0.00000000000E+00 -0.00000000000E+00 -0.74505805969E-08  0.93827000000E+00  0.93827000000E+00 0.  1.
     999902    2    1    2    0    0 -0.39144641676E-02 -0.19317175497E-01  0.13457657925E-01  0.10200640231E+01  0.10197847941E+01 0.  0.
     999903    2    3    3    0    0 -0.30015446501E-01  0.10277264827E+00  0.70199369615E-01  0.12944243776E+00  0.19085306860E-01 0.  0.
         14    1    1    2    0    0  0.39144641676E-02  0.19317175497E-01 -0.13457657925E-01  0.23865976949E-01  0.00000000000E+00 0.  1.
     999901    1    3    3    0    0  0.26100982333E-01 -0.12208982376E+00 -0.56741711689E-01  0.89062158529E+00  0.88000000000E+00 0. -1.
        -11    1    4    4    0    0 -0.22065947693E-01  0.54201088780E-01  0.29303979422E-01  0.65449586733E-01  0.51100000000E-03 0. -1.
         11    1    4    4    0    0 -0.79494988072E-02  0.48571559486E-01  0.40895390192E-01  0.63992851024E-01  0.51100000000E-03 0.  1.
</event>
<event>
 8    1  0.1061722E+005  0.1043930E+01  0.7957747E-01            NaN
         13   -1    0    0    0    0  0.00000000000E+00  0.00000000000E+00  0.74505805969E-08  0.10566000000E+00  0.10566000000E+00 0.  1.
     999900   -1    0    0    0    0 -0.00000000000E+00 -0.00000000000E+00 -0.74505805969E-08  0.93827000000E+00  0.93827000000E+00 0.  1.
     999902    2    1    2    0    0 -0.19291490506E-01  0.14227457397E-01 -0.12760655893E-02  0.10199256151E+01  0.10196430993E+01 0.  0.
     999903    2    3    3    0    0  0.62617045337E-01  0.71949064743E-01  0.85873334482E-01  0.12996167758E+00  0.20451058152E-01 0.  0.
         14    1    1    2    0    0  0.19291490506E-01 -0.14227457397E-01  0.12760655893E-02  0.24004384877E-01  0.00000000000E+00 0. -1.
     999901    1    3    3    0    0 -0.81908535843E-01 -0.57721607346E-01 -0.87149400072E-01  0.88996393755E+00  0.88000000000E+00 0.  1.
        -11    1    4    4    0    0  0.12338073587E-01  0.26636336078E-01  0.20094449551E-01  0.35577668322E-01  0.51100000000E-03 0. -1.
         11    1    4    4    0    0  0.50278971750E-01  0.45312728665E-01  0.65778884932E-01  0.94384009256E-01  0.51100000000E-03 0.  1.
</event>
<event>
 8    1  0.1061722E+005  0.1043930E+01  0.7957747E-01            NaN
         13   -1    0    0    0    0  0.00000000000E+00  0.00000000000E+00  0.74505805969E-08  0.10566000000E+00  0.10566000000E+00 0. -1.
     999900   -1    0    0    0    0 -0.00000000000E+00 -0.00000000000E+00 -0.74505805969E-08  0.93827000000E+00  0.93827000000E+00 0.  1.
     999902    2    1    2    0    0 -0.17005475658E-01 -0.66657596311E-03  0.16454420969E-01  0.10202576850E+01  0.10199830221E+01 0.  0.
     999903    2    3    3    0    0  0.10327275760E+00  0.72728539752E-01  0.16197918756E-01  0.12904852766E+00  0.20891313083E-01 0.  0.
         14    1    1    2    0    0  0.17005475658E-01  0.66657596311E-03 -0.16454420969E-01  0.23672314955E-01  0.00000000000E+00 0.  1.
     999901    1    3    3    0    0 -0.12027823326E+00 -0.73395115715E-01  0.25650221329E-03  0.89120915738E+00  0.88000000000E+00 0. -1.
        -11    1    4    4    0    0  0.80786188542E-01  0.49791545965E-01  0.19066848905E-01  0.96795723857E-01  0.51100000000E-03 0. -1.
         11    1    4    4    0    0  0.22486569062E-01  0.22936993787E-01 -0.28689301493E-02  0.32252803807E-01  0.51100000000E-03 0.  1.
</event>
<event>
 8    1  0.1061722E+005  0.1043930E+01  0.7957747E-01            NaN
         13   -1    0    0    0    0  0.00000000000E+00  0.00000000000E+00  0.74505805969E-08  0.10566000000E+00  0.10566000000E+00 0. -1.
     999900   -1    0    0    0    0 -0.00000000000E+00 -0.00000000000E+00 -0.74505805969E-08  0.93827000000E+00  0.93827000000E+00 0.  1.
     999902    2    1    2    0    0 -0.95452044953E-02  0.20769462116E-01  0.62713700609E-02  0.10202274354E+01  0.10199520618E+01 0.  0.
     999903    2    3    3    0    0  0.72317673845E-01  0.10447852999E+00 -0.29100991210E-01  0.13176812693E+00  0.19244802041E-01 0.  0.
         14    1    1    2    0    0  0.95452044953E-02 -0.20769462116E-01 -0.62713700609E-02  0.23702564585E-01  0.00000000000E+00 0.  1.
     999901    1    3    3    0    0 -0.81862878340E-01 -0.83709067874E-01  0.35372361271E-01  0.88845930849E+00  0.88000000000E+00 0. -1.
        -11    1    4    4    0    0  0.26730661374E-01  0.46061521783E-01 -0.35155751745E-02  0.53374267548E-01  0.51100000000E-03 0. -1.
         11    1    4    4    0    0  0.45587012471E-01  0.58417008207E-01 -0.25585416035E-01  0.78393859381E-01  0.51100000000E-03 0.  1.
</event>
<event>
 8    1  0.1061722E+005  0.1043930E+01  0.7957747E-01            NaN
         13   -1    0    0    0    0  0.00000000000E+00  0.00000000000E+00  0.74505805969E-08  0.10566000000E+00  0.10566000000E+00 0.  1.
     999900   -1    0    0    0    0 -0.00000000000E+00 -0.00000000000E+00 -0.74505805969E-08  0.93827000000E+00  0.93827000000E+00 0.  1.
     999902    2    1    2    0    0 -0.15759586370E-01  0.15387186743E-01 -0.10336031485E-01  0.10195996974E+01  0.10193093639E+01 0.  0.
     999903    2    3    3    0    0 -0.12622269030E-01 -0.55703621433E-01 -0.11546488889E+00  0.13049013022E+00  0.20816301341E-01 0.  0.
         14    1    1    2    0    0  0.15759586370E-01 -0.15387186743E-01  0.10336031485E-01  0.24330302614E-01  0.00000000000E+00 0.  1.
     999901    1    3    3    0    0 -0.31373173401E-02  0.71090808176E-01  0.10512885741E+00  0.88910956717E+00  0.88000000000E+00 0. -1.
        -11    1    4    4    0    0 -0.54107105495E-02 -0.44851893342E-01 -0.71028011216E-01  0.84179615248E-01  0.51100000000E-03 0.  1.
         11    1    4    4    0    0 -0.72115584809E-02 -0.10851728091E-01 -0.44436877676E-01  0.46310514971E-01  0.51100000000E-03 0. -1.
</event>
<event>
 8    1  0.1061722E+005  0.1043930E+01  0.7957747E-01            NaN
         13   -1    0    0    0    0  0.00000000000E+00  0.00000000000E+00  0.74505805969E-08  0.10566000000E+00  0.10566000000E+00 0. -1.
     999900   -1    0    0    0    0 -0.00000000000E+00 -0.00000000000E+00 -0.74505805969E-08  0.93827000000E+00  0.93827000000E+00 0.  1.
     999902    2    1    2    0    0  0.23001550038E-01 -0.35510026229E-02 -0.13024641457E-02  0.10206195445E+01  0.10203533100E+01 0.  0.
     999903    2    3    3    0    0 -0.90517632650E-03 -0.12883834369E+00 -0.17997270790E-01  0.13126743987E+00  0.17524293568E-01 0.  0.
         14    1    1    2    0    0 -0.23001550038E-01  0.35510026229E-02  0.13024641457E-02  0.23310455521E-01  0.00000000000E+00 0.  1.
     999901    1    3    3    0    0  0.23906726364E-01  0.12528734107E+00  0.16694806644E-01  0.88935210461E+00  0.88000000000E+00 0. -1.
        -11    1    4    4    0    0 -0.74989781713E-02 -0.97238505146E-01 -0.16768096411E-01  0.98959545952E-01  0.51100000000E-03 0.  1.
         11    1    4    4    0    0  0.65938018448E-02 -0.31599838547E-01 -0.12291743785E-02  0.32307893921E-01  0.51100000000E-03 0. -1.
</event>
<event>
 8    1  0.1061722E+005  0.1043930E+01  0.7957747E-01            NaN
         13   -1    0    0    0    0  0.00000000000E+00  0.00000000000E+00  0.74505805969E-08  0.10566000000E+00  0.10566000000E+00 0.  1.
     999900   -1    0    0    0    0 -0.00000000000E+00 -0.00000000000E+00 -0.74505805969E-08  0.93827000000E+00  0.93827000000E+00 0.  1.
     999902    2    1    2    0    0  0.92805424669E-02  0.13087415735E-01  0.17262825065E-01  0.10203627760E+01  0.10200905747E+01 0.  0.
     999903    2    3    3    0    0 -0.59877380000E-01 -0.11141478522E+00 -0.17108464769E-02  0.12871059239E+00  0.23768352822E-01 0.  0.
         14    1    1    2    0    0 -0.92805424669E-02 -0.13087415735E-01 -0.17262825065E-01  0.23567224027E-01  0.00000000000E+00 0. -1.
     999901    1    3    3    0    0  0.69157922467E-01  0.12450220095E+00  0.18973671542E-01  0.89165218359E+00  0.88000000000E+00 0. -1.
        -11    1    4    4    0    0 -0.16145189169E-01 -0.49214499080E-01  0.66179445065E-02  0.52218697451E-01  0.51100000000E-03 0.  1.
         11    1    4    4    0    0 -0.43732190831E-01 -0.62200286139E-01 -0.83287909833E-02  0.76491894936E-01  0.51100000000E-03 0. -1.
</event>
<event>
 8    1  0.1061722E+005  0.1043930E+01  0.7957747E-01            NaN
         13   -1    0    0    0    0  0.00000000000E+00  0.00000000000E+00  0.74505805969E-08  0.10566000000E+00  0.10566000000E+00 0. -1.
     999900   -1    0    0    0    0 -0.00000000000E+00 -0.00000000000E+00 -0.74505805969E-08  0.93827000000E+00  0.93827000000E+00 0.  1.
     999902    2    1    2    0    0  0.15351881106E-02 -0.22253428879E-01 -0.97041876943E-03  0.10216025816E+01  0.10213585664E+01 0.  0.
     999903    2    3    3    0    0  0.78304382073E-01  0.10050878693E+00  0.12975991951E-01  0.12966167934E+00  0.20252955797E-01 0.  0.
         14    1    1    2    0    0 -0.15351881106E-02  0.22253428879E-01  0.97041876943E-03  0.22327418391E-01  0.00000000000E+00 0.  1.
     999901    1    3    3    0    0 -0.76769193963E-01 -0.12276221581E+00 -0.13946410721E-01  0.89194090227E+00  0.88000000000E+00 0.  1.
        -11    1    4    4    0    0  0.19871518714E-01  0.40147664650E-01  0.10911074822E-02  0.44812541429E-01  0.51100000000E-03 0.  1.
         11    1    4    4    0    0  0.58432863360E-01  0.60361122285E-01  0.11884884469E-01  0.84849137908E-01  0.51100000000E-03 0. -1.
</event>
<event>
 8    1  0.1061722E+005  0.1043930E+01  0.7957747E-01            NaN
         13   -1    0    0    0    0  0.00000000000E+00  0.00000000000E+00  0.74505805969E-08  0.10566000000E+00  0.10566000000E+00 0.  1.
     999900   -1    0    0    0    0 -0.00000000000E+00 -0.00000000000E+00 -0.74505805969E-08  0.93827000000E+00  0.93827000000E+00 0.  1.
     999902    2    1    2    0    0  0.92543974884E-02 -0.20500452207E-01 -0.39430978951E-02  0.10210944918E+01  0.10208391160E+01 0.  0.
     999903    2    3    3    0    0 -0.74730510286E-01 -0.10245093292E+00  0.34515400463E-01  0.13247286135E+00  0.16640411627E-01 0.  0.
         14    1    1    2    0    0 -0.92543974884E-02  0.20500452207E-01  0.39430978951E-02  0.22835508196E-01  0.00000000000E+00 0. -1.
     999901    1    3    3    0    0  0.83984907775E-01  0.81950480718E-01 -0.38458498358E-01  0.88862163046E+00  0.88000000000E+00 0.  1.
        -11    1    4    4    0    0 -0.62656791867E-02 -0.18537349874E-01  0.44076955885E-02  0.20064420685E-01  0.51100000000E-03 0. -1.
         11    1    4    4    0    0 -0.68464831100E-01 -0.83913583051E-01  0.30107704875E-01  0.11240844066E+00  0.51100000000E-03 0.  1.
</event>
<event>
 8    1  0.1061722E+005  0.1043930E+01  0.7957747E-01            NaN
         13   -1    0    0    0    0  0.00000000000E+00  0.00000000000E+00  0.74505805969E-08  0.10566000000E+00  0.10566000000E+00 0. -1.
     999900   -1    0    0    0    0 -0.00000000000E+00 -0.00000000000E+00 -0.74505805969E-08  0.93827000000E+00  0.93827000000E+00 0.  1.
     999902    2    1    2    0    0 -0.70909933716E-02 -0.34305976985E-02  0.22753778458E-01  0.10198512620E+01  0.10195669723E+01 0.  0.
     999903    2    3    3    0    0 -0.65583668427E-01 -0.34728698685E-01 -0.10268408358E+00  0.12848398567E+00  0.21373195275E-01 0.  0.
         14    1    1    2    0    0  0.70909933716E-02  0.34305976985E-02 -0.22753778458E-01  0.24078737958E-01  0.00000000000E+00 0.  1.
     999901    1    3    3    0    0  0.58492675055E-01  0.31298100987E-01  0.12543786203E+00  0.89136727637E+00  0.88000000000E+00 0. -1.
        -11    1    4    4    0    0 -0.31259834201E-01 -0.47653968774E-02 -0.44044713033E-01  0.54222542442E-01  0.51100000000E-03 0.  1.
         11    1    4    4    0    0 -0.34323834226E-01 -0.29963301808E-01 -0.58639370543E-01  0.74261443225E-01  0.51100000000E-03 0. -1.
</event>
<event>
 8    1  0.1061722E+005  0.1043930E+01  0.7957747E-01            NaN
         13   -1    0    0    0    0  0.00000000000E+00  0.00000000000E+00  0.74505805969E-08  0.10566000000E+00  0.10566000000E+00 0. -1.
     999900   -1    0    0    0    0 -0.00000000000E+00 -0.00000000000E+00 -0.74505805969E-08  0.93827000000E+00  0.93827000000E+00 0. -1.
     999902    2    1    2    0    0  0.10036558440E-01 -0.32220691197E-01 -0.55520159413E-02  0.10097286794E+01  0.10091492832E+01 0.  0.
     999903    2    3    3    0    0  0.58141329372E-01 -0.10157891453E+00  0.38099382446E-01  0.12461282448E+00  0.19444871437E-01 0.  0.
         14    1    1    2    0    0 -0.10036558440E-01  0.32220691197E-01  0.55520159413E-02  0.34201320553E-01  0.00000000000E+00 0. -1.
     999901    1    3    3    0    0 -0.48104770932E-01  0.69358223329E-01 -0.43651398387E-01  0.88511585497E+00  0.88000000000E+00 0. -1.
        -11    1    4    4    0    0  0.52893914727E-02 -0.19538506521E-02  0.30135614863E-03  0.56698440059E-02  0.51100000000E-03 0.  1.
         11    1    4    4    0    0  0.52851937899E-01 -0.99625063874E-01  0.37798026297E-01  0.11894298048E+00  0.51100000000E-03 0. -1.
</event>
<event>
 8    1  0.1061722E+005  0.1043930E+01  0.7957747E-01            NaN
         13   -1    0    0    0    0  0.00000000000E+00  0.00000000000E+00  0.74505805969E-08  0.10566000000E+00  0.10566000000E+00 0. -1.
     999900   -1    0    0    0    0 -0.00000000000E+00 -0.00000000000E+00 -0.74505805969E-08  0.93827000000E+00  0.93827000000E+00 0. -1.
     999902    2    1    2    0    0 -0.19432240411E-01  0.53763912306E-02 -0.10531668830E-01  0.10211828332E+01  0.10209294516E+01 0.  0.
     999903    2    3    3    0    0  0.44933768751E-01 -0.10062839834E+00  0.63931571098E-01  0.12937300331E+00  0.22472429244E-01 0.  0.
         14    1    1    2    0    0  0.19432240411E-01 -0.53763912306E-02  0.10531668830E-01  0.22747166822E-01  0.00000000000E+00 0.  1.
     999901    1    3    3    0    0 -0.64366009162E-01  0.10600478957E+00 -0.74463239928E-01  0.89180982987E+00  0.88000000000E+00 0. -1.
        -11    1    4    4    0    0  0.31084537511E-01 -0.51140041243E-01  0.43865059263E-01  0.74202134981E-01  0.51100000000E-03 0.  1.
         11    1    4    4    0    0  0.13849231239E-01 -0.49488357097E-01  0.20066511835E-01  0.55170868330E-01  0.51100000000E-03 0. -1.
</event>
<event>
 8    1  0.1061722E+005  0.1043930E+01  0.7957747E-01            NaN
         13   -1    0    0    0    0  0.00000000000E+00  0.00000000000E+00  0.74505805969E-08  0.10566000000E+00  0.10566000000E+00 0.  1.
     999900   -1    0    0    0    0 -0.00000000000E+00 -0.00000000000E+00 -0.74505805969E-08  0.93827000000E+00  0.93827000000E+00 0.  1.
     999902    2    1    2    0    0 -0.17854265104E-01  0.88546121850E-02  0.12869436241E-01  0.10202065658E+01  0.10199307014E+01 0.  0.
     999903    2    3    3    0    0 -0.61290968973E-02  0.11301866810E+00  0.65761515017E-01  0.13240861466E+00  0.19916807266E-01 0.  0.
         14    1    1    2    0    0  0.17854265104E-01 -0.88546121850E-02 -0.12869436241E-01  0.23723434164E-01  0.00000000000E+00 0. -1.
     999901    1    3    3    0    0 -0.11725168207E-01 -0.10416405591E+00 -0.52892078776E-01  0.88779795118E+00  0.88000000000E+00 0. -1.
        -11    1    4    4    0    0 -0.13424178129E-01  0.68399941332E-01  0.39420607221E-01  0.80081245790E-01  0.51100000000E-03 0.  1.
         11    1    4    4    0    0  0.72950812319E-02  0.44618726767E-01  0.26340907796E-01  0.52327368871E-01  0.51100000000E-03 0. -1.
</event>
<event>
 8    1  0.1061722E+005  0.1043930E+01  0.7957747E-01            NaN
         13   -1    0    0    0    0  0.00000000000E+00  0.00000000000E+00  0.74505805969E-08  0.10566000000E+00  0.10566000000E+00 0. -1.
     999900   -1    0    0    0    0 -0.00000000000E+00 -0.00000000000E+00 -0.74505805969E-08  0.93827000000E+00  0.93827000000E+00 0. -1.
     999902    2    1    2    0    0 -0.87515250879E-02 -0.20636655315E-01 -0.94875406430E-02  0.10195892079E+01  0.10192986209E+01 0.  0.
     999903    2    3    3    0    0  0.58865064112E-01 -0.11631884541E+00 -0.28492696420E-02  0.13179917004E+00  0.19176373868E-01 0.  0.
         14    1    1    2    0    0  0.87515250879E-02  0.20636655315E-01  0.94875406430E-02  0.24340792128E-01  0.00000000000E+00 0. -1.
     999901    1    3    3    0    0 -0.67616589200E-01  0.95682190095E-01 -0.66382710010E-02  0.88779003783E+00  0.88000000000E+00 0.  1.
        -11    1    4    4    0    0  0.18442259501E-01 -0.24715179912E-01 -0.68442029794E-02  0.31592108018E-01  0.51100000000E-03 0. -1.
         11    1    4    4    0    0  0.40422804611E-01 -0.91603665498E-01  0.39949333373E-02  0.10020706202E+00  0.51100000000E-03 0.  1.
</event>
<event>
 8    1  0.1061722E+005  0.1043930E+01  0.7957747E-01            NaN
         13   -1    0    0    0    0  0.00000000000E+00  0.00000000000E+00  0.74505805969E-08  0.10566000000E+00  0.10566000000E+00 0.  1.
     999900   -1    0    0    0    0 -0.00000000000E+00 -0.00000000000E+00 -0.74505805969E-08  0.93827000000E+00  0.93827000000E+00 0. -1.
     999902    2    1    2    0    0  0.21179852691E-01  0.10413275393E-01 -0.23630033893E-02  0.10202106777E+01  0.10199349100E+01 0.  0.
     999903    2    3    3    0    0  0.11029471645E+00 -0.58065470587E-01  0.38531647733E-01  0.13212105945E+00  0.20850974078E-01 0.  0.
         14    1    1    2    0    0 -0.21179852691E-01 -0.10413275393E-01  0.23630033893E-02  0.23719322280E-01  0.00000000000E+00 0. -1.
     999901    1    3    3    0    0 -0.89114863764E-01  0.68478745979E-01 -0.40894651122E-01  0.88808961827E+00  0.88000000000E+00 0.  1.
        -11    1    4    4    0    0  0.41132525651E-01 -0.30951541818E-01  0.94334971250E-02  0.52336742317E-01  0.51100000000E-03 0. -1.
         11    1    4    4    0    0  0.69162190803E-01 -0.27113928769E-01  0.29098150608E-01  0.79784317129E-01  0.51100000000E-03 0.  1.
</event>
<event>
 8    1  0.1061722E+005  0.1043930E+01  0.7957747E-01            NaN
         13   -1    0    0    0    0  0.00000000000E+00  0.00000000000E+00  0.74505805969E-08  0.10566000000E+00  0.10566000000E+00 0. -1.
     999900   -1    0    0    0    0 -0.00000000000E+00 -0.00000000000E+00 -0.74505805969E-08  0.93827000000E+00  0.93827000000E+00 0.  1.
     999902    2    1    2    0    0  0.20115439346E-02  0.56837437700E-02  0.22571898242E-01  0.10205667416E+01  0.10202992856E+01 0.  0.
     999903    2    3    3    0    0  0.61994917836E-01  0.88755204319E-01  0.74744525129E-01  0.13308668229E+00  0.20111311107E-01 0.  0.
         14    1    1    2    0    0 -0.20115439346E-02 -0.56837437700E-02 -0.22571898242E-01  0.23363258388E-01  0.00000000000E+00 0.  1.
     999901    1    3    3    0    0 -0.59983373901E-01 -0.83071460549E-01 -0.52172626887E-01  0.88748005932E+00  0.88000000000E+00 0.  1.
        -11    1    4    4    0    0  0.52652389740E-01  0.84968972235E-01  0.69127400363E-01  0.12153542278E+00  0.51100000000E-03 0.  1.
         11    1    4    4    0    0  0.93425280954E-02  0.37862320834E-02  0.56171247667E-02  0.11551259509E-01  0.51100000000E-03 0. -1.
</event>
<event>
 8    1  0.1061722E+005  0.1043930E+01  0.7957747E-01            NaN
         13   -1    0    0    0    0  0.00000000000E+00  0.00000000000E+00  0.74505805969E-08  0.10566000000E+00  0.10566000000E+00 0.  1.
     999900   -1    0    0    0    0 -0.00000000000E+00 -0.00000000000E+00 -0.74505805969E-08  0.93827000000E+00  0.93827000000E+00 0. -1.
     999902    2    1    2    0    0  0.10485859920E-02 -0.84276574977E-03 -0.24135600295E-01  0.10197569367E+01  0.10194703885E+01 0.  0.
     999903    2    3    3    0    0  0.60203816372E-02  0.83899690471E-02  0.12359043863E+00  0.12738204649E+00  0.29068069620E-01 0.  0.
         14    1    1    2    0    0 -0.10485859920E-02  0.84276574977E-03  0.24135600295E-01  0.24173063279E-01  0.00000000000E+00 0.  1.
     999901    1    3    3    0    0 -0.49717956452E-02 -0.92327347969E-02 -0.14772603892E+00  0.89237489023E+00  0.88000000000E+00 0. -1.
        -11    1    4    4    0    0  0.17202112194E-02 -0.10218591420E-01  0.63064347588E-01  0.63912062984E-01  0.51100000000E-03 0. -1.
         11    1    4    4    0    0  0.43001704178E-02  0.18608560467E-01  0.60526091040E-01  0.63469983503E-01  0.51100000000E-03 0.  1.
</event>
<event>
 8    1  0.1061722E+005  0.1043930E+01  0.7957747E-01            NaN
         13   -1    0    0    0    0  0.00000000000E+00  0.00000000000E+00  0.74505805969E-08  0.10566000000E+00  0.10566000000E+00 0. -1.
     999900   -1    0    0    0    0 -0.00000000000E+00 -0.00000000000E+00 -0.74505805969E-08  0.93827000000E+00  0.93827000000E+00 0. -1.
     999902    2    1    2    0    0 -0.13474788183E-01  0.14581890096E-01 -0.31875987820E-02  0.10238212402E+01  0.10236237442E+01 0.  0.
     999903    2    3    3    0    0 -0.85027541696E-01 -0.91168579556E-01 -0.43967214280E-01  0.13367185081E+00  0.19840741454E-01 0.  0.
         14    1    1    2    0    0  0.13474788183E-01 -0.14581890096E-01  0.31875987820E-02  0.20108759816E-01  0.00000000000E+00 0. -1.
     999901    1    3    3    0    0  0.71552753513E-01  0.10575046965E+00  0.40779615498E-01  0.89014938938E+00  0.88000000000E+00 0. -1.
        -11    1    4    4    0    0 -0.74102014470E-01 -0.74714834124E-01 -0.43613165843E-01  0.11391130033E+00  0.51100000000E-03 0. -1.
         11    1    4    4    0    0 -0.10925527225E-01 -0.16453745432E-01 -0.35404843721E-03  0.19760550478E-01  0.51100000000E-03 0.  1.
</event>
<event>
 8    1  0.1061722E+005  0.1043930E+01  0.7957747E-01            NaN
         13   -1    0    0    0    0  0.00000000000E+00  0.00000000000E+00  0.74505805969E-08  0.10566000000E+00  0.10566000000E+00 0. -1.
     999900   -1    0    0    0    0 -0.00000000000E+00 -0.00000000000E+00 -0.74505805969E-08  0.93827000000E+00  0.93827000000E+00 0. -1.
     999902    2    1    2    0    0  0.62140359947E-02  0.65680676842E-02 -0.23072260865E-01  0.10191493023E+01  0.10188479854E+01 0.  0.
     999903    2    3    3    0    0  0.12057078519E-01  0.29689318143E-01  0.12127133035E+00  0.12707093934E+00  0.20333698768E-01 0.  0.
         14    1    1    2    0    0 -0.62140359947E-02 -0.65680676842E-02  0.23072260865E-01  0.24780697688E-01  0.00000000000E+00 0. -1.
     999901    1    3    3    0    0 -0.58430425248E-02 -0.23121250458E-01 -0.14434359121E+00  0.89207836298E+00  0.88000000000E+00 0. -1.
        -11    1    4    4    0    0 -0.36419516493E-02  0.13149940712E-01  0.29490217245E-01  0.32497981271E-01  0.51100000000E-03 0. -1.
         11    1    4    4    0    0  0.15699030169E-01  0.16539377431E-01  0.91781113101E-01  0.94572958064E-01  0.51100000000E-03 0.  1.
</event>
<event>
 8    1  0.1061722E+005  0.1043930E+01  0.7957747E-01            NaN
         13   -1    0    0    0    0  0.00000000000E+00  0.00000000000E+00  0.74505805969E-08  0.10566000000E+00  0.10566000000E+00 0.  1.
     999900   -1    0    0    0    0 -0.00000000000E+00 -0.00000000000E+00 -0.74505805969E-08  0.93827000000E+00  0.93827000000E+00 0.  1.
     999902    2    1    2    0    0  0.41696675948E-02 -0.17419382293E-01  0.16058068917E-01  0.10198741777E+01  0.10195904353E+01 0.  0.
     999903    2    3    3    0    0 -0.10588919943E+00 -0.73653325935E-01  0.12741905323E-01  0.13123127557E+00  0.20541581229E-01 0.  0.
         14    1    1    2    0    0 -0.41696675948E-02  0.17419382293E-01 -0.16058068917E-01  0.24055822262E-01  0.00000000000E+00 0. -1.
     999901    1    3    3    0    0  0.11005886703E+00  0.56233943642E-01  0.33161635944E-02  0.88864290217E+00  0.88000000000E+00 0.  1.
        -11    1    4    4    0    0 -0.57565538850E-01 -0.41932334879E-01  0.17149998107E-01  0.73256368512E-01  0.51100000000E-03 0. -1.
         11    1    4    4    0    0 -0.48323660582E-01 -0.31720991056E-01 -0.44080927845E-02  0.57974907060E-01  0.51100000000E-03 0.  1.
</event>
<event>
 8    1  0.1061722E+005  0.1043930E+01  0.7957747E-01            NaN
         13   -1    0    0    0    0  0.00000000000E+00  0.00000000000E+00  0.74505805969E-08  0.10566000000E+00  0.10566000000E+00 0.  1.
     999900   -1    0    0    0    0 -0.00000000000E+00 -0.00000000000E+00 -0.74505805969E-08  0.93827000000E+00  0.93827000000E+00 0.  1.
     999902    2    1    2    0    0 -0.17716659116E-01  0.11548105869E-01 -0.12951639101E-01  0.10191311348E+01  0.10188293705E+01 0.  0.
     999903    2    3    3    0    0 -0.22280275242E-01 -0.14787751273E-01  0.12378760714E+00  0.12816984192E+00  0.19724310969E-01 0.  0.
         14    1    1    2    0    0  0.17716659116E-01 -0.11548105869E-01  0.12951639101E-01  0.24798865192E-01  0.00000000000E+00 0. -1.
     999901    1    3    3    0    0  0.45636161255E-02  0.26335857142E-01 -0.13673924624E+00  0.89096129289E+00  0.88000000000E+00 0.  1.
        -11    1    4    4    0    0 -0.64845177276E-02  0.36602904062E-02  0.48207520650E-01  0.48781890741E-01  0.51100000000E-03 0.  1.
         11    1    4    4    0    0 -0.15795757514E-01 -0.18448041680E-01  0.75580086491E-01  0.79387951178E-01  0.51100000000E-03 0. -1.
</event>
<event>
 8    1  0.1061722E+005  0.1043930E+01  0.7957747E-01            NaN
         13   -1    0    0    0    0  0.00000000000E+00  0.00000000000E+00  0.74505805969E-08  0.10566000000E+00  0.10566000000E+00 0.  1.
     999900   -1    0    0    0    0 -0.00000000000E+00 -0.00000000000E+00 -0.74505805969E-08  0.93827000000E+00  0.93827000000E+00 0.  1.
     999902    2    1    2    0    0 -0.20134804280E-01 -0.32613188650E-03 -0.99187959794E-02  0.10214823004E+01  0.10212356196E+01 0.  0.
     999903    2    3    3    0    0  0.40831379586E-01 -0.45703179017E-01  0.11256305005E+00  0.12975490110E+00  0.20246283429E-01 0.  0.
         14    1    1    2    0    0  0.20134804280E-01  0.32613188650E-03  0.99187959794E-02  0.22447699639E-01  0.00000000000E+00 0.  1.
     999901    1    3    3    0    0 -0.60966183867E-01  0.45377047130E-01 -0.12248184603E+00  0.89172739926E+00  0.88000000000E+00 0.  1.
        -11    1    4    4    0    0  0.13829250643E-01 -0.12047545557E-01  0.53849508209E-01  0.56889561280E-01  0.51100000000E-03 0.  1.
         11    1    4    4    0    0  0.27002128943E-01 -0.33655633460E-01  0.58713541839E-01  0.72865339822E-01  0.51100000000E-03 0. -1.
</event>
<event>
 8    1  0.1061722E+005  0.1043930E+01  0.7957747E-01            NaN
         13   -1    0    0    0    0  0.00000000000E+00  0.00000000000E+00  0.74505805969E-08  0.10566000000E+00  0.10566000000E+00 0.  1.
     999900   -1    0    0    0    0 -0.00000000000E+00 -0.00000000000E+00 -0.74505805969E-08  0.93827000000E+00  0.93827000000E+00 0.  1.
     999902    2    1    2    0    0  0.21749161741E-01 -0.11312186656E-01  0.41115987420E-03  0.10194114222E+01  0.10191165228E+01 0.  0.
     999903    2    3    3    0    0 -0.83731667212E-01  0.74945744851E-01 -0.56080128407E-01  0.12713461447E+00  0.19757849777E-01 0.  0.
         14    1    1    2    0    0 -0.21749161741E-01  0.11312186656E-01 -0.41115987420E-03  0.24518577769E-01  0.00000000000E+00 0.  1.
     999901    1    3    3    0    0  0.10548082895E+00 -0.86257931506E-01  0.56491288281E-01  0.89227680777E+00  0.88000000000E+00 0. -1.
        -11    1    4    4    0    0 -0.70391827589E-01  0.52947571577E-01 -0.47065729835E-01  0.99869408595E-01  0.51100000000E-03 0. -1.
         11    1    4    4    0    0 -0.13339839623E-01  0.21998173274E-01 -0.90143985726E-02  0.27265205871E-01  0.51100000000E-03 0.  1.
</event>
<event>
 8    1  0.1061722E+005  0.1043930E+01  0.7957747E-01            NaN
         13   -1    0    0    0    0  0.00000000000E+00  0.00000000000E+00  0.74505805969E-08  0.10566000000E+00  0.10566000000E+00 0. -1.
     999900   -1    0    0    0    0 -0.00000000000E+00 -0.00000000000E+00 -0.74505805969E-08  0.93827000000E+00  0.93827000000E+00 0.  1.
     999902    2    1    2    0    0 -0.63750118692E-02  0.68530192512E-02 -0.21879934813E-01  0.10201321808E+01  0.10198545633E+01 0.  0.
     999903    2    3    3    0    0 -0.17194365384E-01  0.33898932790E-01 -0.12610438421E+00  0.13350301614E+00  0.21816410238E-01 0.  0.
         14    1    1    2    0    0  0.63750118692E-02 -0.68530192512E-02  0.21879934813E-01  0.23797819157E-01  0.00000000000E+00 0. -1.
     999901    1    3    3    0    0  0.10819353515E-01 -0.27045913539E-01  0.10422444940E+00  0.88662916470E+00  0.88000000000E+00 0. -1.
        -11    1    4    4    0    0 -0.14368445238E-01  0.35705615479E-01 -0.99543972382E-01  0.10672678555E+00  0.51100000000E-03 0. -1.
         11    1    4    4    0    0 -0.28259201462E-02 -0.18066826887E-02 -0.26560411830E-01  0.26776230590E-01  0.51100000000E-03 0.  1.
</event>
<event>
 8    1  0.1061722E+005  0.1043930E+01  0.7957747E-01            NaN
         13   -1    0    0    0    0  0.00000000000E+00  0.00000000000E+00  0.74505805969E-08  0.10566000000E+00  0.10566000000E+00 0.  1.
     999900   -1    0    0    0    0 -0.00000000000E+00 -0.00000000000E+00 -0.74505805969E-08  0.93827000000E+00  0.93827000000E+00 0.  1.
     999902    2    1    2    0    0  0.23277885499E-01  0.13152051906E-02 -0.22338321254E-03  0.10206139193E+01  0.10203475549E+01 0.  0.
     999903    2    3    3    0    0 -0.82569965484E-01  0.58048785492E-01 -0.77826832270E-01  0.12907325172E+00  0.20382045796E-01 0.  0.
         14    1    1    2    0    0 -0.23277885499E-01 -0.13152051906E-02  0.22338321254E-03  0.23316080675E-01  0.00000000000E+00 0.  1.
     999901    1    3    3    0    0  0.10584785098E+00 -0.56733580301E-01  0.77603449057E-01  0.89154066761E+00  0.88000000000E+00 0.  1.
        -11    1    4    4    0    0 -0.19576622422E-01  0.10153909536E-01 -0.27649949169E-01  0.35371271314E-01  0.51100000000E-03 0. -1.
         11    1    4    4    0    0 -0.62993343062E-01  0.47894875956E-01 -0.50176883101E-01  0.93701980404E-01  0.51100000000E-03 0.  1.
</event>
<event>
 8    1  0.1061722E+005  0.1043930E+01  0.7957747E-01            NaN
         13   -1    0    0    0    0  0.00000000000E+00  0.00000000000E+00  0.74505805969E-08  0.10566000000E+00  0.10566000000E+00 0.  1.
     999900   -1    0    0    0    0 -0.00000000000E+00 -0.00000000000E+00 -0.74505805969E-08  0.93827000000E+00  0.93827000000E+00 0.  1.
     999902    2    1    2    0    0 -0.10723384950E-01  0.14637803112E-01 -0.15931149390E-01  0.10197834105E+01  0.10194974971E+01 0.  0.
     999903    2    3    3    0    0 -0.35071010464E-01  0.11506533949E+00  0.48202660488E-01  0.13141882175E+00  0.21849533315E-01 0.  0.
         14    1    1    2    0    0  0.10723384950E-01 -0.14637803112E-01  0.15931149390E-01  0.24146589524E-01  0.00000000000E+00 0.  1.
     999901    1    3    3    0    0  0.24347625515E-01 -0.10042753638E+00 -0.64133809878E-01  0.88836458872E+00  0.88000000000E+00 0.  1.
        -11    1    4    4    0    0 -0.36801600704E-01  0.92496038942E-01  0.37542871379E-01  0.10639362456E+00  0.51100000000E-03 0. -1.
         11    1    4    4    0    0  0.17305902400E-02  0.22569300546E-01  0.10659789109E-01  0.25025197193E-01  0.51100000000E-03 0.  1.
</event>
<event>
 8    1  0.1061722E+005  0.1043930E+01  0.7957747E-01            NaN
         13   -1    0    0    0    0  0.00000000000E+00  0.00000000000E+00  0.74505805969E-08  0.10566000000E+00  0.10566000000E+00 0. -1.
     999900   -1    0    0    0    0 -0.00000000000E+00 -0.00000000000E+00 -0.74505805969E-08  0.93827000000E+00  0.93827000000E+00 0. -1.
     999902    2    1    2    0    0 -0.84808265459E-02  0.75374838742E-02  0.21841921949E-01  0.10193168402E+01  0.10190196333E+01 0.  0.
     999903    2    3    3    0    0 -0.81615695576E-01  0.94709229883E-01 -0.31155332984E-01  0.13040945951E+00  0.20124919071E-01 0.  0.
         14    1    1    2    0    0  0.84808265459E-02 -0.75374838742E-02 -0.21841921949E-01  0.24613159823E-01  0.00000000000E+00 0.  1.
     999901    1    3    3    0    0  0.73134869030E-01 -0.87171746009E-01  0.52997254932E-01  0.88890738066E+00  0.88000000000E+00 0.  1.
        -11    1    4    4    0    0 -0.32794292675E-01  0.46493336542E-01 -0.22750849624E-01  0.61277714175E-01  0.51100000000E-03 0. -1.
         11    1    4    4    0    0 -0.48821402901E-01  0.48215893341E-01 -0.84044833597E-02  0.69131745337E-01  0.51100000000E-03 0.  1.
</event>
<event>
 8    1  0.1061722E+005  0.1043930E+01  0.7957747E-01            NaN
         13   -1    0    0    0    0  0.00000000000E+00  0.00000000000E+00  0.74505805969E-08  0.10566000000E+00  0.10566000000E+00 0.  1.
     999900   -1    0    0    0    0 -0.00000000000E+00 -0.00000000000E+00 -0.74505805969E-08  0.93827000000E+00  0.93827000000E+00 0.  1.
     999902    2    1    2    0    0  0.64650795905E-02 -0.20290447609E-01  0.44655298611E-02  0.10221713126E+01  0.10219397007E+01 0.  0.
     999903    2    3    3    0    0  0.90064274666E-01  0.57597176750E-01  0.74845098698E-01  0.13199796371E+00  0.19815783735E-01 0.  0.
         14    1    1    2    0    0 -0.64650795905E-02  0.20290447609E-01 -0.44655298611E-02  0.21758687350E-01  0.00000000000E+00 0.  1.
     999901    1    3    3    0    0 -0.83599195075E-01 -0.77887624358E-01 -0.70379568837E-01  0.89017334894E+00  0.88000000000E+00 0.  1.
        -11    1    4    4    0    0  0.72183350084E-01  0.45497640437E-01  0.49292876231E-01  0.98541971174E-01  0.51100000000E-03 0.  1.
         11    1    4    4    0    0  0.17880924582E-01  0.12099536313E-01  0.25552222467E-01  0.33455992541E-01  0.51100000000E-03 0. -1.
</event>
<event>
 8    1  0.1061722E+005  0.1043930E+01  0.7957747E-01            NaN
         13   -1    0    0    0    0  0.00000000000E+00  0.00000000000E+00  0.74505805969E-08  0.10566000000E+00  0.10566000000E+00 0. -1.
     999900   -1    0    0    0    0 -0.00000000000E+00 -0.00000000000E+00 -0.74505805969E-08  0.93827000000E+00  0.93827000000E+00 0. -1.
     999902    2    1    2    0    0 -0.17714051566E-01 -0.74153209343E-02  0.12466610680E-01  0.10210347824E+01  0.10207780542E+01 0.  0.
     999903    2    3    3    0    0 -0.38480504664E-01  0.22650239062E-01 -0.12050373279E+00  0.13029559738E+00  0.21494429790E-01 0.  0.
         14    1    1    2    0    0  0.17714051566E-01  0.74153209343E-02 -0.12466610680E-01  0.22895217607E-01  0.00000000000E+00 0.  1.
     999901    1    3    3    0    0  0.20766453098E-01 -0.30065559997E-01  0.13297034347E+00  0.89073918501E+00  0.88000000000E+00 0.  1.
        -11    1    4    4    0    0 -0.37550206992E-03 -0.32281033645E-02 -0.54920765558E-02  0.64020058600E-02  0.51100000000E-03 0. -1.
         11    1    4    4    0    0 -0.38105002594E-01  0.25878342427E-01 -0.11501165623E+00  0.12389359152E+00  0.51100000000E-03 0.  1.
</event>
<event>
 8    1  0.1061722E+005  0.1043930E+01  0.7957747E-01            NaN
         13   -1    0    0    0    0  0.00000000000E+00  0.00000000000E+00  0.74505805969E-08  0.10566000000E+00  0.10566000000E+00 0.  1.
     999900   -1    0    0    0    0 -0.00000000000E+00 -0.00000000000E+00 -0.74505805969E-08  0.93827000000E+00  0.93827000000E+00 0.  1.
     999902    2    1    2    0    0 -0.16903113206E-01  0.50975710456E-02  0.15322755716E-01  0.10205529320E+01  0.10202851561E+01 0.  0.
     999903    2    3    3    0    0  0.10905913202E+00 -0.56234529652E-01 -0.33605085567E-01  0.12812811864E+00  0.15208432139E-01 0.  0.
         14    1    1    2    0    0  0.16903113206E-01 -0.50975710456E-02 -0.15322755716E-01  0.23377068023E-01  0.00000000000E+00 0. -1.
     999901    1    3    3    0    0 -0.12596224523E+00  0.61332100697E-01  0.48927841283E-01  0.89242481333E+00  0.88000000000E+00 0. -1.
        -11    1    4    4    0    0  0.64652468028E-01 -0.36063662625E-01 -0.12937537290E-01  0.75154310430E-01  0.51100000000E-03 0.  1.
         11    1    4    4    0    0  0.44406663997E-01 -0.20170867027E-01 -0.20667548277E-01  0.52973808214E-01  0.51100000000E-03 0. -1.
</event>
<event>
 8    1  0.1061722E+005  0.1043930E+01  0.7957747E-01            NaN
         13   -1    0    0    0    0  0.00000000000E+00  0.00000000000E+00  0.74505805969E-08  0.10566000000E+00  0.10566000000E+00 0. -1.
     999900   -1    0    0    0    0 -0.00000000000E+00 -0.00000000000E+00 -0.74505805969E-08  0.93827000000E+00  0.93827000000E+00 0.  1.
     999902    2    1    2    0    0 -0.21766658275E-02  0.22769201067E-01 -0.54963532204E-02  0.10204058785E+01  0.10201346836E+01 0.  0.
     999903    2    3    3    0    0 -0.28010390771E-01  0.10838210516E+00 -0.69938194898E-01  0.13352950517E+00  0.20186999198E-01 0.  0.
         14    1    1    2    0    0  0.21766658275E-02 -0.22769201067E-01  0.54963532204E-02  0.23524121452E-01  0.00000000000E+00 0.  1.
     999901    1    3    3    0    0  0.25833724944E-01 -0.85612904091E-01  0.64441841678E-01  0.88687637337E+00  0.88000000000E+00 0. -1.
        -11    1    4    4    0    0 -0.28930750264E-01  0.96770783732E-01 -0.56478337928E-01  0.11572223931E+00  0.51100000000E-03 0. -1.
         11    1    4    4    0    0  0.92035949318E-03  0.11611321426E-01 -0.13459856970E-01  0.17807265862E-01  0.51100000000E-03 0.  1.
</event>
<event>
 8    1  0.1061722E+005  0.1043930E+01  0.7957747E-01            NaN
         13   -1    0    0    0    0  0.00000000000E+00  0.00000000000E+00  0.74505805969E-08  0.10566000000E+00  0.10566000000E+00 0. -1.
     999900   -1    0    0    0    0 -0.00000000000E+00 -0.00000000000E+00 -0.74505805969E-08  0.93827000000E+00  0.93827000000E+00 0.  1.
     999902    2    1    2    0    0 -0.61102032128E-02  0.15254877676E-01  0.13827596695E-01  0.10224533078E+01  0.10222277234E+01 0.  0.
     999903    2    3    3    0    0  0.63910086976E-01  0.40718854609E-01  0.10908256676E+00  0.13418264836E+00  0.19064427930E-01 0.  0.
         14    1    1    2    0    0  0.61102032128E-02 -0.15254877676E-01 -0.13827596695E-01  0.21476692170E-01  0.00000000000E+00 0.  1.
     999901    1    3    3    0    0 -0.70020290188E-01 -0.25463976933E-01 -0.95254970060E-01  0.88827065947E+00  0.88000000000E+00 0.  1.
        -11    1    4    4    0    0  0.24034165917E-02  0.79223156158E-02  0.92713265971E-02  0.12440181426E-01  0.51100000000E-03 0. -1.
         11    1    4    4    0    0  0.61506670384E-01  0.32796538993E-01  0.99811240158E-01  0.12174246693E+00  0.51100000000E-03 0.  1.
</event>
<event>
 8    1  0.1061722E+005  0.1043930E+01  0.7957747E-01            NaN
         13   -1    0    0    0    0  0.00000000000E+00  0.00000000000E+00  0.74505805969E-08  0.10566000000E+00  0.10566000000E+00 0. -1.
     999900   -1    0    0    0    0 -0.00000000000E+00 -0.00000000000E+00 -0.74505805969E-08  0.93827000000E+00  0.93827000000E+00 0.  1.
     999902    2    1    2    0    0 -0.14490336285E-01 -0.10423168887E-01  0.15436483026E-01  0.10203313284E+01  0.10200583916E+01 0.  0.
     999903    2    3    3    0    0  0.10947499029E+00 -0.39188501430E-01  0.55211763133E-01  0.13028811622E+00  0.20152972394E-01 0.  0.
         14    1    1    2    0    0  0.14490336285E-01  0.10423168887E-01 -0.15436483026E-01  0.23598671647E-01  0.00000000000E+00 0. -1.
     999901    1    3    3    0    0 -0.12396532658E+00  0.28765332543E-01 -0.39775280107E-01  0.89004321213E+00  0.88000000000E+00 0.  1.
        -11    1    4    4    0    0  0.44419970468E-01 -0.16242582032E-01  0.11692298490E-01  0.48722953650E-01  0.51100000000E-03 0. -1.
         11    1    4    4    0    0  0.65055019827E-01 -0.22945919399E-01  0.43519464643E-01  0.81565162573E-01  0.51100000000E-03 0.  1.
</event>
<event>
 8    1  0.1061722E+005  0.1043930E+01  0.7957747E-01            NaN
         13   -1    0    0    0    0  0.00000000000E+00  0.00000000000E+00  0.74505805969E-08  0.10566000000E+00  0.10566000000E+00 0.  1.
     999900   -1    0    0    0    0 -0.00000000000E+00 -0.00000000000E+00 -0.74505805969E-08  0.93827000000E+00  0.93827000000E+00 0. -1.
     999902    2    1    2    0    0 -0.22359370850E-01  0.39973746206E-02 -0.21787625726E-01  0.10124558661E+01  0.10119665309E+01 0.  0.
     999903    2    3    3    0    0  0.47245092114E-01  0.36293444159E-01  0.10263400180E+00  0.12039725887E+00  0.20308835550E-01 0.  0.
         14    1    1    2    0    0  0.22359370850E-01 -0.39973746206E-02  0.21787625726E-01  0.31474133879E-01  0.00000000000E+00 0.  1.
     999901    1    3    3    0    0 -0.69604462963E-01 -0.32296069539E-01 -0.12442162752E+00  0.89205860725E+00  0.88000000000E+00 0. -1.
        -11    1    4    4    0    0  0.25144862812E-01  0.31379992901E-01  0.62670280997E-01  0.74463368991E-01  0.51100000000E-03 0.  1.
         11    1    4    4    0    0  0.22100229302E-01  0.49134512587E-02  0.39963720800E-01  0.45933889881E-01  0.51100000000E-03 0. -1.
</event>
<event>
 8    1  0.1061722E+005  0.1043930E+01  0.7957747E-01            NaN
         13   -1    0    0    0    0  0.00000000000E+00  0.00000000000E+00  0.74505805969E-08  0.10566000000E+00  0.10566000000E+00 0.  1.
     999900   -1    0    0    0    0 -0.00000000000E+00 -0.00000000000E+00 -0.74505805969E-08  0.93827000000E+00  0.93827000000E+00 0.  1.
     999902    2    1    2    0    0 -0.20770595638E-01  0.68177093254E-02  0.76211588792E-02  0.10207787394E+01  0.10205161704E+01 0.  0.
     999903    2    3    3    0    0  0.11855074135E-01 -0.49738455711E-01 -0.11730721163E+00  0.12956039811E+00  0.20259765550E-01 0.  0.
         14    1    1    2    0    0  0.20770595638E-01 -0.68177093254E-02 -0.76211588792E-02  0.23151260577E-01  0.00000000000E+00 0. -1.
     999901    1    3    3    0    0 -0.32625669773E-01  0.56556165036E-01  0.12492837051E+00  0.89121834131E+00  0.88000000000E+00 0. -1.
        -11    1    4    4    0    0 -0.22190179622E-02 -0.10257769106E-01 -0.10645794453E-01  0.14957938638E-01  0.51100000000E-03 0.  1.
         11    1    4    4    0    0  0.14074092097E-01 -0.39480686604E-01 -0.10666141717E+00  0.11460245947E+00  0.51100000000E-03 0. -1.
</event>
<event>
 8    1  0.1061722E+005  0.1043930E+01  0.7957747E-01            NaN
         13   -1    0    0    0    0  0.00000000000E+00  0.00000000000E+00  0.74505805969E-08  0.10566000000E+00  0.10566000000E+00 0. -1.
     999900   -1    0    0    0    0 -0.00000000000E+00 -0.00000000000E+00 -0.74505805969E-08  0.93827000000E+00  0.93827000000E+00 0. -1.
     999902    2    1    2    0    0 -0.63104894446E-02  0.21688089434E-01  0.65730039899E-02  0.10204055472E+01  0.10201343445E+01 0.  0.
     999903    2    3    3    0    0 -0.46531675319E-02 -0.11245236580E+00 -0.57240131026E-01  0.12795469436E+00  0.20707116368E-01 0.  0.
         14    1    1    2    0    0  0.63104894446E-02 -0.21688089434E-01 -0.65730039899E-02  0.23524452848E-01  0.00000000000E+00 0.  1.
     999901    1    3    3    0    0 -0.16573219127E-02  0.13414045523E+00  0.63813135016E-01  0.89245085279E+00  0.88000000000E+00 0.  1.
        -11    1    4    4    0    0 -0.60389158995E-02 -0.10398149921E+00 -0.58178913988E-01  0.11930493635E+00  0.51100000000E-03 0.  1.
         11    1    4    4    0    0  0.13857483676E-02 -0.84708665850E-02  0.93878296199E-03  0.86497580133E-02  0.51100000000E-03 0. -1.
</event>
<event>
 8    1  0.1061722E+005  0.1043930E+01  0.7957747E-01            NaN
         13   -1    0    0    0    0  0.00000000000E+00  0.00000000000E+00  0.74505805969E-08  0.10566000000E+00  0.10566000000E+00 0. -1.
     999900   -1    0    0    0    0 -0.00000000000E+00 -0.00000000000E+00 -0.74505805969E-08  0.93827000000E+00  0.93827000000E+00 0.  1.
     999902    2    1    2    0    0  0.12350229230E-01  0.99978574450E-02 -0.16840526948E-01  0.10207764114E+01  0.10205137890E+01 0.  0.
     999903    2    3    3    0    0  0.10152936946E+00  0.10784270052E-01 -0.83693256263E-01  0.13374607097E+00  0.21422815195E-01 0.  0.
         14    1    1    2    0    0 -0.12350229230E-01 -0.99978574450E-02  0.16840526948E-01  0.23153588564E-01  0.00000000000E+00 0. -1.
     999901    1    3    3    0    0 -0.89179140233E-01 -0.78641260681E-03  0.66852729315E-01  0.88703034047E+00  0.88000000000E+00 0. -1.
        -11    1    4    4    0    0  0.57100968008E-01  0.59686523953E-02 -0.60455041204E-01  0.83373967680E-01  0.51100000000E-03 0.  1.
         11    1    4    4    0    0  0.44428401455E-01  0.48156176565E-02 -0.23238215059E-01  0.50372103286E-01  0.51100000000E-03 0. -1.
</event>
<event>
 8    1  0.1061722E+005  0.1043930E+01  0.7957747E-01            NaN
         13   -1    0    0    0    0  0.00000000000E+00  0.00000000000E+00  0.74505805969E-08  0.10566000000E+00  0.10566000000E+00 0. -1.
     999900   -1    0    0    0    0 -0.00000000000E+00 -0.00000000000E+00 -0.74505805969E-08  0.93827000000E+00  0.93827000000E+00 0. -1.
     999902    2    1    2    0    0 -0.36122380477E-02  0.22722108657E-01  0.71007156669E-03  0.10209116011E+01  0.10206520713E+01 0.  0.
     999903    2    3    3    0    0 -0.88987265186E-01 -0.92066455405E-01 -0.16788990830E-02  0.12935620919E+00  0.18309685328E-01 0.  0.
         14    1    1    2    0    0  0.36122380477E-02 -0.22722108657E-01 -0.71007156669E-03  0.23018398884E-01  0.00000000000E+00 0. -1.
     999901    1    3    3    0    0  0.85375027139E-01  0.11478856406E+00  0.23889706497E-02  0.89155539193E+00  0.88000000000E+00 0. -1.
        -11    1    4    4    0    0 -0.10012702944E-01 -0.69186196839E-02 -0.50146685270E-02  0.13173061148E-01  0.51100000000E-03 0. -1.
         11    1    4    4    0    0 -0.78974562242E-01 -0.85147835721E-01  0.33357694441E-02  0.11618314804E+00  0.51100000000E-03 0.  1.
</event>
<event>
 8    1  0.1061722E+005  0.1043930E+01  0.7957747E-01            NaN
         13   -1    0    0    0    0  0.00000000000E+00  0.00000000000E+00  0.74505805969E-08  0.10566000000E+00  0.10566000000E+00 0. -1.
     999900   -1    0    0    0    0 -0.00000000000E+00 -0.00000000000E+00 -0.74505805969E-08  0.93827000000E+00  0.93827000000E+00 0.  1.
     999902    2    1    2    0    0 -0.69474365808E-02 -0.37242738045E-02  0.20196718391E-01  0.10222494898E+01  0.10220195570E+01 0.  0.
     999903    2    3    3    0    0 -0.55660554073E-01 -0.11701488748E+00  0.24996343157E-01  0.13363778189E+00  0.21063200284E-01 0.  0.
         14    1    1    2    0    0  0.69474365808E-02  0.37242738045E-02 -0.20196718391E-01  0.21680510238E-01  0.00000000000E+00 0.  1.
     999901    1    3    3    0    0  0.48713117493E-01  0.11329061368E+00 -0.47996247660E-02  0.88861170787E+00  0.88000000000E+00 0.  1.
        -11    1    4    4    0    0 -0.38242094254E-01 -0.56476053964E-01  0.10740411103E-01  0.69047954321E-01  0.51100000000E-03 0. -1.
         11    1    4    4    0    0 -0.17418459820E-01 -0.60538833517E-01  0.14255932054E-01  0.64589827572E-01  0.51100000000E-03 0.  1.
</event>
<event>
 8    1  0.1061722E+005  0.1043930E+01  0.7957747E-01            NaN
         13   -1    0    0    0    0  0.00000000000E+00  0.00000000000E+00  0.74505805969E-08  0.10566000000E+00  0.10566000000E+00 0. -1.
     999900   -1    0    0    0    0 -0.00000000000E+00 -0.00000000000E+00 -0.74505805969E-08  0.93827000000E+00  0.93827000000E+00 0. -1.
     999902    2    1    2    0    0  0.39440694822E-02  0.54961635665E-02  0.22471830239E-01  0.10204620079E+01  0.10201921206E+01 0.  0.
     999903    2    3    3    0    0 -0.42635332201E-01  0.19782736622E-01 -0.11745635092E+00  0.12807552062E+00  0.19955359923E-01 0.  0.
         14    1    1    2    0    0 -0.39440694822E-02 -0.54961635665E-02 -0.22471830239E-01  0.23467992081E-01  0.00000000000E+00 0.  1.
     999901    1    3    3    0    0  0.46579401683E-01 -0.14286573056E-01  0.13992818116E+00  0.89238648730E+00  0.88000000000E+00 0.  1.
        -11    1    4    4    0    0 -0.34702592345E-01  0.62754810035E-02 -0.77157461527E-01  0.84836233813E-01  0.51100000000E-03 0.  1.
         11    1    4    4    0    0 -0.79327398559E-02  0.13507255619E-01 -0.40298889397E-01  0.43239286807E-01  0.51100000000E-03 0. -1.
</event>
<event>
 8    1  0.1061722E+005  0.1043930E+01  0.7957747E-01            NaN
         13   -1    0    0    0    0  0.00000000000E+00  0.00000000000E+00  0.74505805969E-08  0.10566000000E+00  0.10566000000E+00 0.  1.
     999900   -1    0    0    0    0 -0.00000000000E+00 -0.00000000000E+00 -0.74505805969E-08  0.93827000000E+00  0.93827000000E+00 0.  1.
     999902    2    1    2    0    0 -0.72582088761E-02 -0.18269617513E-01 -0.10441655324E-01  0.10216704248E+01  0.10214279066E+01 0.  0.
     999903    2    3    3    0    0  0.86652619458E-01 -0.62584759616E-01 -0.76992660001E-01  0.13306921411E+00  0.18815351565E-01 0.  0.
         14    1    1    2    0    0  0.72582088761E-02  0.18269617513E-01  0.10441655324E-01  0.22259575155E-01  0.00000000000E+00 0.  1.
     999901    1    3    3    0    0 -0.93910828334E-01  0.44315142103E-01  0.66551004677E-01  0.88860121074E+00  0.88000000000E+00 0.  1.
        -11    1    4    4    0    0  0.49824365604E-01 -0.46969692402E-01 -0.46582078617E-01  0.82817694857E-01  0.51100000000E-03 0. -1.
         11    1    4    4    0    0  0.36828253854E-01 -0.15615067214E-01 -0.30410581384E-01  0.50251519252E-01  0.51100000000E-03 0.  1.
</event>
<event>
 8    1  0.1061722E+005  0.1043930E+01  0.7957747E-01            NaN
         13   -1    0    0    0    0  0.00000000000E+00  0.00000000000E+00  0.74505805969E-08  0.10566000000E+00  0.10566000000E+00 0.  1.
     999900   -1    0    0    0    0 -0.00000000000E+00 -0.00000000000E+00 -0.74505805969E-08  0.93827000000E+00  0.93827000000E+00 0.  1.
     999902    2    1    2    0    0 -0.17180165770E-01  0.14399532418E-01  0.10323086087E-01  0.10192506415E+01  0.10189518141E+01 0.  0.
     999903    2    3    3    0    0 -0.41342390631E-01  0.11841485977E+00  0.37254021006E-01  0.13238634709E+00  0.20174502195E-01 0.  0.
         14    1    1    2    0    0  0.17180165770E-01 -0.14399532418E-01 -0.10323086087E-01  0.24679358503E-01  0.00000000000E+00 0. -1.
     999901    1    3    3    0    0  0.24162224861E-01 -0.10401532735E+00 -0.26930934919E-01  0.88686429440E+00  0.88000000000E+00 0.  1.
        -11    1    4    4    0    0 -0.38340492422E-01  0.11473887916E+00  0.31695404155E-01  0.12505943993E+00  0.51100000000E-03 0.  1.
         11    1    4    4    0    0 -0.30018982096E-02  0.36759806072E-02  0.55586168510E-02  0.73269071634E-02  0.51100000000E-03 0. -1.
</event>
<event>
 8    1  0.1061722E+005  0.1043930E+01  0.7957747E-01            NaN
         13   -1    0    0    0    0  0.00000000000E+00  0.00000000000E+00  0.74505805969E-08  0.10566000000E+00  0.10566000000E+00 0. -1.
     999900   -1    0    0    0    0 -0.00000000000E+00 -0.00000000000E+00 -0.74505805969E-08  0.93827000000E+00  0.93827000000E+00 0.  1.
     999902    2    1    2    0    0 -0.89208622077E-03  0.11996591599E-01  0.20686973662E-01  0.10199995820E+01  0.10197188251E+01 0.  0.
     999903    2    3    3    0    0  0.28414702655E-01 -0.44682628923E-01 -0.11419509800E+00  0.12743888646E+00  0.19905193300E-01 0.  0.
         14    1    1    2    0    0  0.89208622077E-03 -0.11996591599E-01 -0.20686973662E-01  0.23930418030E-01  0.00000000000E+00 0.  1.
     999901    1    3    3    0    0 -0.29306788876E-01  0.56679220522E-01  0.13488207166E+00  0.89256069551E+00  0.88000000000E+00 0. -1.
        -11    1    4    4    0    0  0.14281885400E-01 -0.22811137084E-01 -0.80306848440E-01  0.84698118355E-01  0.51100000000E-03 0. -1.
         11    1    4    4    0    0  0.14132817256E-01 -0.21871491839E-01 -0.33888249561E-01  0.42740768105E-01  0.51100000000E-03 0.  1.
</event>
<event>
 8    1  0.1061722E+005  0.1043930E+01  0.7957747E-01            NaN
         13   -1    0    0    0    0  0.00000000000E+00  0.00000000000E+00  0.74505805969E-08  0.10566000000E+00  0.10566000000E+00 0. -1.
     999900   -1    0    0    0    0 -0.00000000000E+00 -0.00000000000E+00 -0.74505805969E-08  0.93827000000E+00  0.93827000000E+00 0. -1.
     999902    2    1    2    0    0  0.43494356008E-02  0.22784317844E-01 -0.43130630055E-02  0.10203366695E+01  0.10200638578E+01 0.  0.
     999903    2    3    3    0    0  0.42703566888E-01 -0.11810831867E+00  0.15298882403E-01  0.12808872036E+00  0.19987368962E-01 0.  0.
         14    1    1    2    0    0 -0.43494356008E-02 -0.22784317844E-01  0.43130630055E-02  0.23593330460E-01  0.00000000000E+00 0.  1.
     999901    1    3    3    0    0 -0.38354131287E-01  0.14089263651E+00 -0.19611945409E-01  0.89224794918E+00  0.88000000000E+00 0. -1.
        -11    1    4    4    0    0  0.28783763608E-02 -0.30075370422E-01 -0.27358340496E-03  0.30218354114E-01  0.51100000000E-03 0. -1.
         11    1    4    4    0    0  0.39825190527E-01 -0.88032948245E-01  0.15572465808E-01  0.97870366248E-01  0.51100000000E-03 0.  1.
</event>
<event>
 8    1  0.1061722E+005  0.1043930E+01  0.7957747E-01            NaN
         13   -1    0    0    0    0  0.00000000000E+00  0.00000000000E+00  0.74505805969E-08  0.10566000000E+00  0.10566000000E+00 0.  1.
     999900   -1    0    0    0    0 -0.00000000000E+00 -0.00000000000E+00 -0.74505805969E-08  0.93827000000E+00  0.93827000000E+00 0. -1.
     999902    2    1    2    0    0 -0.12202334492E-01 -0.10054980948E-01 -0.16760342934E-01  0.10208885438E+01  0.10206284878E+01 0.  0.
     999903    2    3    3    0    0 -0.22970470555E-01  0.12436215986E+00 -0.25734369381E-01  0.13057149147E+00  0.19825924812E-01 0.  0.
         14    1    1    2    0    0  0.12202334492E-01  0.10054980948E-01  0.16760342934E-01  0.23041456208E-01  0.00000000000E+00 0.  1.
     999901    1    3    3    0    0  0.10768136063E-01 -0.13441714081E+00  0.89740264469E-02  0.89031705232E+00  0.88000000000E+00 0.  1.
        -11    1    4    4    0    0 -0.20068043860E-01  0.78714009558E-01 -0.24361095854E-01  0.84807698927E-01  0.51100000000E-03 0. -1.
         11    1    4    4    0    0 -0.29024266950E-02  0.45648150306E-01 -0.13732735268E-02  0.45763792547E-01  0.51100000000E-03 0.  1.
</event>
<event>
 8    1  0.1061722E+005  0.1043930E+01  0.7957747E-01            NaN
         13   -1    0    0    0    0  0.00000000000E+00  0.00000000000E+00  0.74505805969E-08  0.10566000000E+00  0.10566000000E+00 0.  1.
     999900   -1    0    0    0    0 -0.00000000000E+00 -0.00000000000E+00 -0.74505805969E-08  0.93827000000E+00  0.93827000000E+00 0. -1.
     999902    2    1    2    0    0  0.24453370823E-02 -0.23276948779E-01  0.39156639550E-02  0.10201996725E+01  0.10199236459E+01 0.  0.
     999903    2    3    3    0    0  0.12160265208E+00 -0.31961813797E-01 -0.32740495833E-01  0.13137034884E+00  0.19428482975E-01 0.  0.
         14    1    1    2    0    0 -0.24453370823E-02  0.23276948779E-01 -0.39156639550E-02  0.23730327476E-01  0.00000000000E+00 0. -1.
     999901    1    3    3    0    0 -0.11915731500E+00  0.86848650184E-02  0.36656159788E-01  0.88882932369E+00  0.88000000000E+00 0.  1.
        -11    1    4    4    0    0  0.27025485954E-01 -0.36109170016E-03 -0.24021437133E-02  0.27139246373E-01  0.51100000000E-03 0. -1.
         11    1    4    4    0    0  0.94577166130E-01 -0.31600722097E-01 -0.30338352119E-01  0.10423110246E+00  0.51100000000E-03 0.  1.
</event>
<event>
 8    1  0.1061722E+005  0.1043930E+01  0.7957747E-01            NaN
         13   -1    0    0    0    0  0.00000000000E+00  0.00000000000E+00  0.74505805969E-08  0.10566000000E+00  0.10566000000E+00 0.  1.
     999900   -1    0    0    0    0 -0.00000000000E+00 -0.00000000000E+00 -0.74505805969E-08  0.93827000000E+00  0.93827000000E+00 0.  1.
     999902    2    1    2    0    0 -0.10210610615E-01 -0.15740351192E-01 -0.13929048892E-01  0.10205626376E+01  0.10202950865E+01 0.  0.
     999903    2    3    3    0    0  0.29377155229E-01 -0.25441745051E-01  0.12155404763E+00  0.12926191519E+00  0.20565908252E-01 0.  0.
         14    1    1    2    0    0  0.10210610615E-01  0.15740351192E-01  0.13929048892E-01  0.23367362449E-01  0.00000000000E+00 0.  1.
     999901    1    3    3    0    0 -0.39587765844E-01  0.97013938582E-02 -0.13548309652E+00  0.89130072237E+00  0.88000000000E+00 0.  1.
        -11    1    4    4    0    0  0.76213625955E-02 -0.18596250044E-01  0.43096299339E-01  0.47554787574E-01  0.51100000000E-03 0. -1.
         11    1    4    4    0    0  0.21755792633E-01 -0.68454950070E-02  0.78457748288E-01  0.81707127611E-01  0.51100000000E-03 0.  1.
</event>
<event>
 8    1  0.1061722E+005  0.1043930E+01  0.7957747E-01            NaN
         13   -1    0    0    0    0  0.00000000000E+00  0.00000000000E+00  0.74505805969E-08  0.10566000000E+00  0.10566000000E+00 0.  1.
     999900   -1    0    0    0    0 -0.00000000000E+00 -0.00000000000E+00 -0.74505805969E-08  0.93827000000E+00  0.93827000000E+00 0. -1.
     999902    2    1    2    0    0 -0.17116183729E-01 -0.96017490641E-02  0.13412947113E-01  0.10201589150E+01  0.10198819282E+01 0.  0.
     999903    2    3    3    0    0  0.54072369597E-01  0.58131585775E-01  0.10141466150E+00  0.13032751723E+00  0.19930523343E-01 0.  0.
         14    1    1    2    0    0  0.17116183729E-01  0.96017490641E-02 -0.13412947113E-01  0.23771084973E-01  0.00000000000E+00 0.  1.
     999901    1    3    3    0    0 -0.71188553326E-01 -0.67733334839E-01 -0.88001714389E-01  0.88983139780E+00  0.88000000000E+00 0. -1.
        -11    1    4    4    0    0  0.18989644711E-01  0.21866936563E-01  0.52993994106E-01  0.60393659048E-01  0.51100000000E-03 0.  1.
         11    1    4    4    0    0  0.35082724886E-01  0.36264649212E-01  0.48420667396E-01  0.69933858180E-01  0.51100000000E-03 0. -1.
</event>
<event>
 8    1  0.1061722E+005  0.1043930E+01  0.7957747E-01            NaN
         13   -1    0    0    0    0  0.00000000000E+00  0.00000000000E+00  0.74505805969E-08  0.10566000000E+00  0.10566000000E+00 0.  1.
     999900   -1    0    0    0    0 -0.00000000000E+00 -0.00000000000E+00 -0.74505805969E-08  0.93827000000E+00  0.93827000000E+00 0. -1.
     999902    2    1    2    0    0 -0.15197109914E-01  0.99221783553E-03  0.17387507906E-01  0.10208158901E+01  0.10205541727E+01 0.  0.
     999903    2    3    3    0    0 -0.48023928188E-03  0.12210765369E+00 -0.41409762656E-01  0.13045492165E+00  0.19829483639E-01 0.  0.
         14    1    1    2    0    0  0.15197109914E-01 -0.99221783553E-03 -0.17387507906E-01  0.23114109915E-01  0.00000000000E+00 0. -1.
     999901    1    3    3    0    0 -0.14716870632E-01 -0.12111543585E+00  0.58797270563E-01  0.89036096843E+00  0.88000000000E+00 0.  1.
        -11    1    4    4    0    0  0.20283929481E-02  0.83318118571E-01 -0.18640050958E-01  0.85403371601E-01  0.51100000000E-03 0.  1.
         11    1    4    4    0    0 -0.25086322299E-02  0.38789535116E-01 -0.22769711699E-01  0.45051550051E-01  0.51100000000E-03 0. -1.
</event>
<event>
 8    1  0.1061722E+005  0.1043930E+01  0.7957747E-01            NaN
         13   -1    0    0    0    0  0.00000000000E+00  0.00000000000E+00  0.74505805969E-08  0.10566000000E+00  0.10566000000E+00 0.  1.
     999900   -1    0    0    0    0 -0.00000000000E+00 -0.00000000000E+00 -0.74505805969E-08  0.93827000000E+00  0.93827000000E+00 0. -1.
     999902    2    1    2    0    0 -0.43797450686E-02 -0.20934558098E-01  0.10213545119E-01  0.10202286415E+01  0.10199532963E+01 0.  0.
     999903    2    3    3    0    0 -0.75258702784E-01  0.16532794433E-01  0.10483412625E+00  0.13153258351E+00  0.19324100544E-01 0.  0.
         14    1    1    2    0    0  0.43797450686E-02  0.20934558098E-01 -0.10213545119E-01  0.23701358474E-01  0.00000000000E+00 0. -1.
     999901    1    3    3    0    0  0.70878957715E-01 -0.37467352532E-01 -0.94620581134E-01  0.88869605801E+00  0.88000000000E+00 0. -1.
        -11    1    4    4    0    0 -0.21202606738E-01  0.10373035558E-01  0.21041314625E-01  0.31625123577E-01  0.51100000000E-03 0.  1.
         11    1    4    4    0    0 -0.54056096046E-01  0.61597588756E-02  0.83792811629E-01  0.99907459936E-01  0.51100000000E-03 0. -1.
</event>
<event>
 8    1  0.1061722E+005  0.1043930E+01  0.7957747E-01            NaN
         13   -1    0    0    0    0  0.00000000000E+00  0.00000000000E+00  0.74505805969E-08  0.10566000000E+00  0.10566000000E+00 0. -1.
     999900   -1    0    0    0    0 -0.00000000000E+00 -0.00000000000E+00 -0.74505805969E-08  0.93827000000E+00  0.93827000000E+00 0.  1.
     999902    2    1    2    0    0 -0.11753855865E-01 -0.12253533261E-01 -0.16107128999E-01  0.10205261155E+01  0.10202577177E+01 0.  0.
     999903    2    3    3    0    0 -0.92841326028E-01 -0.67181251831E-01  0.61945798795E-01  0.13165914479E+00  0.19079203385E-01 0.  0.
         14    1    1    2    0    0  0.11753855865E-01  0.12253533261E-01  0.16107128999E-01  0.23403884500E-01  0.00000000000E+00 0.  1.
     999901    1    3    3    0    0  0.81087470164E-01  0.54927718570E-01 -0.78052927794E-01  0.88886697071E+00  0.88000000000E+00 0.  1.
        -11    1    4    4    0    0 -0.22232913982E-01 -0.23713852771E-01  0.24344038746E-01  0.40614561684E-01  0.51100000000E-03 0.  1.
         11    1    4    4    0    0 -0.70608412047E-01 -0.43467399061E-01  0.37601760049E-01  0.91044583104E-01  0.51100000000E-03 0. -1.
</event>
<event>
 8    1  0.1061722E+005  0.1043930E+01  0.7957747E-01            NaN
         13   -1    0    0    0    0  0.00000000000E+00  0.00000000000E+00  0.74505805969E-08  0.10566000000E+00  0.10566000000E+00 0.  1.
     999900   -1    0    0    0    0 -0.00000000000E+00 -0.00000000000E+00 -0.74505805969E-08  0.93827000000E+00  0.93827000000E+00 0.  1.
     999902    2    1    2    0    0 -0.14942220446E-01 -0.43264586986E-02  0.17881097045E-01  0.10202293285E+01  0.10199539994E+01 0.  0.
     999903    2    3    3    0    0 -0.11783250943E+00 -0.53845451098E-01  0.21481755221E-01  0.13284468424E+00  0.20060195475E-01 0.  0.
         14    1    1    2    0    0  0.14942220446E-01  0.43264586986E-02 -0.17881097045E-01  0.23700671473E-01  0.00000000000E+00 0. -1.
     999901    1    3    3    0    0  0.10289028898E+00  0.49518992400E-01 -0.36006581760E-02  0.88738464429E+00  0.88000000000E+00 0. -1.
        -11    1    4    4    0    0 -0.39587722652E-01 -0.23466113155E-01 -0.69266996076E-03  0.46028112758E-01  0.51100000000E-03 0. -1.
         11    1    4    4    0    0 -0.78244786773E-01 -0.30379337943E-01  0.22174425182E-01  0.86816571483E-01  0.51100000000E-03 0.  1.
</event>
<event>
 8    1  0.1061722E+005  0.1043930E+01  0.7957747E-01            NaN
         13   -1    0    0    0    0  0.00000000000E+00  0.00000000000E+00  0.74505805969E-08  0.10566000000E+00  0.10566000000E+00 0.  1.
     999900   -1    0    0    0    0 -0.00000000000E+00 -0.00000000000E+00 -0.74505805969E-08  0.93827000000E+00  0.93827000000E+00 0. -1.
     999902    2    1    2    0    0  0.46949516081E-02  0.19011405261E-01 -0.15536753281E-01  0.10189326641E+01  0.10186259898E+01 0.  0.
     999903    2    3    3    0    0 -0.12619808907E+00 -0.49386048378E-02 -0.16048328375E-01  0.12892881421E+00  0.20365234770E-01 0.  0.
         14    1    1    2    0    0 -0.46949516081E-02 -0.19011405261E-01  0.15536753281E-01  0.24997335920E-01  0.00000000000E+00 0.  1.
     999901    1    3    3    0    0  0.13089304067E+00  0.23950010099E-01  0.51157509410E-03  0.89000384987E+00  0.88000000000E+00 0.  1.
        -11    1    4    4    0    0 -0.95783438341E-01 -0.13977528415E-02 -0.35749365681E-02  0.95861681948E-01  0.51100000000E-03 0.  1.
         11    1    4    4    0    0 -0.30414650725E-01 -0.35408519964E-02 -0.12473391807E-01  0.33067132258E-01  0.51100000000E-03 0. -1.
</event>
<event>
 8    1  0.1061722E+005  0.1043930E+01  0.7957747E-01            NaN
         13   -1    0    0    0    0  0.00000000000E+00  0.00000000000E+00  0.74505805969E-08  0.10566000000E+00  0.10566000000E+00 0. -1.
     999900   -1    0    0    0    0 -0.00000000000E+00 -0.00000000000E+00 -0.74505805969E-08  0.93827000000E+00  0.93827000000E+00 0. -1.
     999902    2    1    2    0    0  0.10449222619E-01  0.20263770975E-01  0.27986807029E-02  0.10209595999E+01  0.10207011636E+01 0.  0.
     999903    2    3    3    0    0 -0.10229216489E-02 -0.11951286059E+00 -0.43164843322E-01  0.12866942155E+00  0.20205101519E-01 0.  0.
         14    1    1    2    0    0 -0.10449222619E-01 -0.20263770975E-01 -0.27986807029E-02  0.22970400108E-01  0.00000000000E+00 0.  1.
     999901    1    3    3    0    0  0.11472144268E-01  0.13977663157E+00  0.45963524025E-01  0.89229017834E+00  0.88000000000E+00 0. -1.
        -11    1    4    4    0    0 -0.97866671988E-02 -0.73059494682E-01 -0.30093834912E-01  0.79620152215E-01  0.51100000000E-03 0. -1.
         11    1    4    4    0    0  0.87637455498E-02 -0.46453365909E-01 -0.13071008410E-01  0.49049269334E-01  0.51100000000E-03 0.  1.
</event>
<event>
 8    1  0.1061722E+005  0.1043930E+01  0.7957747E-01            NaN
         13   -1    0    0    0    0  0.00000000000E+00  0.00000000000E+00  0.74505805969E-08  0.10566000000E+00  0.10566000000E+00 0.  1.
     999900   -1    0    0    0    0 -0.00000000000E+00 -0.00000000000E+00 -0.74505805969E-08  0.93827000000E+00  0.93827000000E+00 0.  1.
     999902    2    1    2    0    0  0.15653316722E-01  0.16992241176E-01  0.58706078105E-02  0.10200924955E+01  0.10198139403E+01 0.  0.
     999903    2    3    3    0    0 -0.40085273006E-01  0.27739970855E-01  0.12002783333E+00  0.13090512705E+00  0.18791924306E-01 0.  0.
         14    1    1    2    0    0 -0.15653316722E-01 -0.16992241176E-01 -0.58706078105E-02  0.23837504497E-01  0.00000000000E+00 0. -1.
     999901    1    3    3    0    0  0.55738589728E-01 -0.10747729679E-01 -0.11415722552E+00  0.88918736845E+00  0.88000000000E+00 0.  1.
        -11    1    4    4    0    0 -0.21665338347E-01  0.24301856994E-01  0.87508385474E-01  0.93369940497E-01  0.51100000000E-03 0.  1.
         11    1    4    4    0    0 -0.18419934658E-01  0.34381138607E-02  0.32519447856E-01  0.37535186553E-01  0.51100000000E-03 0. -1.
</event>
<event>
 8    1  0.1061722E+005  0.1043930E+01  0.7957747E-01            NaN
         13   -1    0    0    0    0  0.00000000000E+00  0.00000000000E+00  0.74505805969E-08  0.10566000000E+00  0.10566000000E+00 0. -1.
     999900   -1    0    0    0    0 -0.00000000000E+00 -0.00000000000E+00 -0.74505805969E-08  0.93827000000E+00  0.93827000000E+00 0. -1.
     999902    2    1    2    0    0 -0.62227167990E-03 -0.24865968277E-01  0.99014701110E-02  0.10171579491E+01  0.10168055619E+01 0.  0.
     999903    2    3    3    0    0  0.87849746560E-01 -0.88829570515E-01  0.33185558540E-01  0.13010620921E+00  0.14767322403E-01 0.  0.
         14    1    1    2    0    0  0.62227167990E-03  0.24865968277E-01 -0.99014701110E-02  0.26772050925E-01  0.00000000000E+00 0.  1.
     999901    1    3    3    0    0 -0.88472018240E-01  0.63963602238E-01 -0.23284088429E-01  0.88705173986E+00  0.88000000000E+00 0. -1.
        -11    1    4    4    0    0  0.32316332452E-01 -0.41589630766E-01  0.17735503245E-01  0.55577440808E-01  0.51100000000E-03 0.  1.
         11    1    4    4    0    0  0.55533414108E-01 -0.47239939749E-01  0.15450055295E-01  0.74528768403E-01  0.51100000000E-03 0. -1.
</event>
<event>
 8    1  0.1061722E+005  0.1043930E+01  0.7957747E-01            NaN
         13   -1    0    0    0    0  0.00000000000E+00  0.00000000000E+00  0.74505805969E-08  0.10566000000E+00  0.10566000000E+00 0.  1.
     999900   -1    0    0    0    0 -0.00000000000E+00 -0.00000000000E+00 -0.74505805969E-08  0.93827000000E+00  0.93827000000E+00 0. -1.
     999902    2    1    2    0    0  0.19855774517E-01 -0.53209053610E-02  0.76566919465E-02  0.10219939852E+01  0.10217585414E+01 0.  0.
     999903    2    3    3    0    0 -0.84752454478E-01  0.53070222072E-01 -0.79949556162E-01  0.12956625137E+00  0.19901129403E-01 0.  0.
         14    1    1    2    0    0 -0.19855774517E-01  0.53209053610E-02 -0.76566919465E-02  0.21936014840E-01  0.00000000000E+00 0. -1.
     999901    1    3    3    0    0  0.10460822900E+00 -0.58391127433E-01  0.87606248109E-01  0.89242773379E+00  0.88000000000E+00 0.  1.
        -11    1    4    4    0    0 -0.25539939988E-01  0.14946822728E-01 -0.12757781233E-01  0.32229150582E-01  0.51100000000E-03 0. -1.
         11    1    4    4    0    0 -0.59212514490E-01  0.38123399345E-01 -0.67191774929E-01  0.97337100784E-01  0.51100000000E-03 0.  1.
</event>
<event>
 8    1  0.1061722E+005  0.1043930E+01  0.7957747E-01            NaN
         13   -1    0    0    0    0  0.00000000000E+00  0.00000000000E+00  0.74505805969E-08  0.10566000000E+00  0.10566000000E+00 0.  1.
     999900   -1    0    0    0    0 -0.00000000000E+00 -0.00000000000E+00 -0.74505805969E-08  0.93827000000E+00  0.93827000000E+00 0.  1.
     999902    2    1    2    0    0 -0.91532802336E-02  0.25180725292E-02  0.21842865323E-01  0.10201133253E+01  0.10198352624E+01 0.  0.
     999903    2    3    3    0    0 -0.91260863498E-01 -0.73240399438E-01 -0.52730960932E-01  0.12992106693E+00  0.20155100452E-01 0.  0.
         14    1    1    2    0    0  0.91532802336E-02 -0.25180725292E-02 -0.21842865323E-01  0.23816674701E-01  0.00000000000E+00 0. -1.
     999901    1    3    3    0    0  0.82107583264E-01  0.75758471968E-01  0.74573826255E-01  0.89019225837E+00  0.88000000000E+00 0. -1.
        -11    1    4    4    0    0 -0.20977594949E-01 -0.24682351072E-01 -0.74805309997E-02  0.33249021178E-01  0.51100000000E-03 0.  1.
         11    1    4    4    0    0 -0.70283268549E-01 -0.48558048367E-01 -0.45250429932E-01  0.96672045748E-01  0.51100000000E-03 0. -1.
</event>
<event>
 8    1  0.1061722E+005  0.1043930E+01  0.7957747E-01            NaN
         13   -1    0    0    0    0  0.00000000000E+00  0.00000000000E+00  0.74505805969E-08  0.10566000000E+00  0.10566000000E+00 0. -1.
     999900   -1    0    0    0    0 -0.00000000000E+00 -0.00000000000E+00 -0.74505805969E-08  0.93827000000E+00  0.93827000000E+00 0. -1.
     999902    2    1    2    0    0  0.70531927034E-02 -0.18242030141E-01 -0.13832246152E-01  0.10199748289E+01  0.10196934840E+01 0.  0.
     999903    2    3    3    0    0 -0.11517612662E+00  0.41361306841E-01  0.32606506062E-01  0.12831955803E+00  0.20650106267E-01 0.  0.
         14    1    1    2    0    0 -0.70531927034E-02  0.18242030141E-01  0.13832246152E-01  0.23955171146E-01  0.00000000000E+00 0. -1.
     999901    1    3    3    0    0  0.12222931932E+00 -0.59603336983E-01 -0.46438752214E-01  0.89165527082E+00  0.88000000000E+00 0. -1.
        -11    1    4    4    0    0 -0.74309100359E-01  0.29594802109E-01  0.30921131163E-01  0.85755887153E-01  0.51100000000E-03 0. -1.
         11    1    4    4    0    0 -0.40867026260E-01  0.11766504732E-01  0.16853748993E-02  0.42563670877E-01  0.51100000000E-03 0.  1.
</event>
<event>
 8    1  0.1061722E+005  0.1043930E+01  0.7957747E-01            NaN
         13   -1    0    0    0    0  0.00000000000E+00  0.00000000000E+00  0.74505805969E-08  0.10566000000E+00  0.10566000000E+00 0. -1.
     999900   -1    0    0    0    0 -0.00000000000E+00 -0.00000000000E+00 -0.74505805969E-08  0.93827000000E+00  0.93827000000E+00 0.  1.
     999902    2    1    2    0    0 -0.13991628674E-01 -0.88701376145E-02 -0.16070432795E-01  0.10208496225E+01  0.10205886772E+01 0.  0.
     999903    2    3    3    0    0  0.73014484255E-01  0.74514538778E-01 -0.75308127778E-01  0.13066302835E+00  0.22759206206E-01 0.  0.
         14    1    1    2    0    0  0.13991628674E-01  0.88701376145E-02  0.16070432795E-01  0.23080377477E-01  0.00000000000E+00 0. -1.
     999901    1    3    3    0    0 -0.87006112929E-01 -0.83384676393E-01  0.59237694983E-01  0.89018659418E+00  0.88000000000E+00 0. -1.
        -11    1    4    4    0    0  0.23015712945E-01  0.27234574193E-01 -0.39039421105E-01  0.52875160473E-01  0.51100000000E-03 0.  1.
         11    1    4    4    0    0  0.49998771310E-01  0.47279964585E-01 -0.36268706673E-01  0.77787867874E-01  0.51100000000E-03 0. -1.
</event>
<event>
 8    1  0.1061722E+005  0.1043930E+01  0.7957747E-01            NaN
         13   -1    0    0    0    0  0.00000000000E+00  0.00000000000E+00  0.74505805969E-08  0.10566000000E+00  0.10566000000E+00 0.  1.
     999900   -1    0    0    0    0 -0.00000000000E+00 -0.00000000000E+00 -0.74505805969E-08  0.93827000000E+00  0.93827000000E+00 0.  1.
     999902    2    1    2    0    0  0.75710835906E-02  0.16939525704E-01 -0.12301071214E-01  0.10216682572E+01  0.10214256912E+01 0.  0.
     999903    2    3    3    0    0 -0.89768158540E-01  0.69670183993E-01  0.63013550141E-01  0.13154032117E+00  0.20491260731E-01 0.  0.
         14    1    1    2    0    0 -0.75710835906E-02 -0.16939525704E-01  0.12301071214E-01  0.22261742762E-01  0.00000000000E+00 0. -1.
     999901    1    3    3    0    0  0.97339242131E-01 -0.52730658289E-01 -0.75314621355E-01  0.89012793607E+00  0.88000000000E+00 0.  1.
        -11    1    4    4    0    0 -0.42373760605E-01  0.20732914594E-01  0.22386809307E-01  0.52218959079E-01  0.51100000000E-03 0.  1.
         11    1    4    4    0    0 -0.47394397935E-01  0.48937269399E-01  0.40626740833E-01  0.79321362089E-01  0.51100000000E-03 0. -1.
</event>
<event>
 8    1  0.1061722E+005  0.1043930E+01  0.7957747E-01            NaN
         13   -1    0    0    0    0  0.00000000000E+00  0.00000000000E+00  0.74505805969E-08  0.10566000000E+00  0.10566000000E+00 0. -1.
     999900   -1    0    0    0    0 -0.00000000000E+00 -0.00000000000E+00 -0.74505805969E-08  0.93827000000E+00  0.93827000000E+00 0. -1.
     999902    2    1    2    0    0  0.10946235644E-01  0.19617802565E-01  0.60265797208E-02  0.10206706381E+01  0.10204055829E+01 0.  0.
     999903    2    3    3    0    0 -0.11926239337E+00  0.20153183085E-01  0.44053248923E-01  0.13027712889E+00  0.20044258737E-01 0.  0.
         14    1    1    2    0    0 -0.10946235644E-01 -0.19617802565E-01 -0.60265797208E-02  0.23259361887E-01  0.00000000000E+00 0. -1.
     999901    1    3    3    0    0  0.13020862902E+00 -0.53538052039E-03 -0.38026669202E-01  0.89039350923E+00  0.88000000000E+00 0. -1.
        -11    1    4    4    0    0 -0.41005094088E-01  0.27113192512E-02  0.60257901005E-02  0.41537215369E-01  0.51100000000E-03 0. -1.
         11    1    4    4    0    0 -0.78257299286E-01  0.17441863834E-01  0.38027458822E-01  0.88739913517E-01  0.51100000000E-03 0.  1.
</event>
<event>
 8    1  0.1061722E+005  0.1043930E+01  0.7957747E-01            NaN
         13   -1    0    0    0    0  0.00000000000E+00  0.00000000000E+00  0.74505805969E-08  0.10566000000E+00  0.10566000000E+00 0. -1.
     999900   -1    0    0    0    0 -0.00000000000E+00 -0.00000000000E+00 -0.74505805969E-08  0.93827000000E+00  0.93827000000E+00 0.  1.
     999902    2    1    2    0    0  0.19112928393E-01  0.13726923966E-01 -0.40690214872E-02  0.10200492670E+01  0.10197696885E+01 0.  0.
     999903    2    3    3    0    0  0.10251281451E+00  0.42396582336E-01  0.69787954184E-01  0.13256273573E+00  0.19904095596E-01 0.  0.
         14    1    1    2    0    0 -0.19112928393E-01 -0.13726923966E-01  0.40690214872E-02  0.23880733012E-01  0.00000000000E+00 0.  1.
     999901    1    3    3    0    0 -0.83399886117E-01 -0.28669658370E-01 -0.73856975671E-01  0.88748653126E+00  0.88000000000E+00 0.  1.
        -11    1    4    4    0    0  0.67927504543E-01  0.33291315770E-01  0.37749771850E-01  0.84544449699E-01  0.51100000000E-03 0.  1.
         11    1    4    4    0    0  0.34585309967E-01  0.91052665660E-02  0.32038182334E-01  0.48018286027E-01  0.51100000000E-03 0. -1.
</event>
<event>
 8    1  0.1061722E+005  0.1043930E+01  0.7957747E-01            NaN
         13   -1    0    0    0    0  0.00000000000E+00  0.00000000000E+00  0.74505805969E-08  0.10566000000E+00  0.10566000000E+00 0. -1.
     999900   -1    0    0    0    0 -0.00000000000E+00 -0.00000000000E+00 -0.74505805969E-08  0.93827000000E+00  0.93827000000E+00 0.  1.
     999902    2    1    2    0    0 -0.81789144644E-02 -0.21684297379E-01 -0.73333602009E-02  0.10196219444E+01  0.10193321480E+01 0.  0.
     999903    2    3    3    0    0  0.18454834157E-01 -0.12720345018E+00  0.23879203735E-01  0.13236895213E+00  0.20737031480E-01 0.  0.
         14    1    1    2    0    0  0.81789144644E-02  0.21684297379E-01  0.73333602009E-02  0.24308055588E-01  0.00000000000E+00 0. -1.
     999901    1    3    3    0    0 -0.26633748621E-01  0.10551915280E+00 -0.31212563936E-01  0.88725299229E+00  0.88000000000E+00 0.  1.
        -11    1    4    4    0    0  0.70249556432E-02 -0.10309417407E+00  0.21743083187E-01  0.10559726093E+00  0.51100000000E-03 0. -1.
         11    1    4    4    0    0  0.11429878514E-01 -0.24109276108E-01  0.21361205477E-02  0.26771691192E-01  0.51100000000E-03 0.  1.
</event>
<event>
 8    1  0.1061722E+005  0.1043930E+01  0.7957747E-01            NaN
         13   -1    0    0    0    0  0.00000000000E+00  0.00000000000E+00  0.74505805969E-08  0.10566000000E+00  0.10566000000E+00 0.  1.
     999900   -1    0    0    0    0 -0.00000000000E+00 -0.00000000000E+00 -0.74505805969E-08  0.93827000000E+00  0.93827000000E+00 0. -1.
     999902    2    1    2    0    0 -0.35034924778E-02 -0.21028924467E-01 -0.80709159768E-02  0.10211346099E+01  0.10208801408E+01 0.  0.
     999903    2    3    3    0    0 -0.14684028420E-01  0.12625658388E+00  0.58766258736E-02  0.12871511256E+00  0.19408755971E-01 0.  0.
         14    1    1    2    0    0  0.35034924778E-02  0.21028924467E-01  0.80709159768E-02  0.22795390071E-01  0.00000000000E+00 0. -1.
     999901    1    3    3    0    0  0.11180535942E-01 -0.14728550834E+00 -0.13947541850E-01  0.89241949736E+00  0.88000000000E+00 0.  1.
        -11    1    4    4    0    0 -0.19006948312E-01  0.10918797141E+00  0.70956866733E-02  0.11105803472E+00  0.51100000000E-03 0. -1.
         11    1    4    4    0    0  0.43229198925E-02  0.17068612465E-01 -0.12190607997E-02  0.17657077847E-01  0.51100000000E-03 0.  1.
</event>
<event>
 8    1  0.1061722E+005  0.1043930E+01  0.7957747E-01            NaN
         13   -1    0    0    0    0  0.00000000000E+00  0.00000000000E+00  0.74505805969E-08  0.10566000000E+00  0.10566000000E+00 0. -1.
     999900   -1    0    0    0    0 -0.00000000000E+00 -0.00000000000E+00 -0.74505805969E-08  0.93827000000E+00  0.93827000000E+00 0. -1.
     999902    2    1    2    0    0 -0.12143701710E-01  0.13476003332E-01  0.11203683812E-01  0.10226087738E+01  0.10223864776E+01 0.  0.
     999903    2    3    3    0    0 -0.12617792152E+00 -0.38912652304E-01 -0.34605151435E-03  0.13363083765E+00  0.20543092003E-01 0.  0.
         14    1    1    2    0    0  0.12143701710E-01 -0.13476003332E-01 -0.11203683812E-01  0.21321226231E-01  0.00000000000E+00 0. -1.
     999901    1    3    3    0    0  0.11403421981E+00  0.52388655636E-01  0.11549735327E-01  0.88897793612E+00  0.88000000000E+00 0. -1.
        -11    1    4    4    0    0 -0.54147312320E-01 -0.63851678199E-02  0.19751628785E-02  0.54560646889E-01  0.51100000000E-03 0.  1.
         11    1    4    4    0    0 -0.72030609203E-01 -0.32527484484E-01 -0.23212143928E-02  0.79070190756E-01  0.51100000000E-03 0. -1.
</event>
<event>
 8    1  0.1061722E+005  0.1043930E+01  0.7957747E-01            NaN
         13   -1    0    0    0    0  0.00000000000E+00  0.00000000000E+00  0.74505805969E-08  0.10566000000E+00  0.10566000000E+00 0.  1.
     999900   -1    0    0    0    0 -0.00000000000E+00 -0.00000000000E+00 -0.74505805969E-08  0.93827000000E+00  0.93827000000E+00 0. -1.
     999902    2    1    2    0    0  0.15275138703E-01 -0.72195799284E-02  0.16933625362E-01  0.10200093005E+01  0.10197287744E+01 0.  0.
     999903    2    3    3    0    0 -0.80547102221E-01  0.93013833362E-01  0.33228006363E-01  0.12900192351E+00  0.19949611259E-01 0.  0.
         14    1    1    2    0    0 -0.15275138703E-01  0.72195799284E-02 -0.16933625362E-01  0.23920699502E-01  0.00000000000E+00 0. -1.
     999901    1    3    3    0    0  0.95822240924E-01 -0.10023341329E+00 -0.16294381001E-01  0.89100737699E+00  0.88000000000E+00 0. -1.
        -11    1    4    4    0    0 -0.34579467090E-01  0.54855890656E-01  0.19261126066E-01  0.67647323541E-01  0.51100000000E-03 0. -1.
         11    1    4    4    0    0 -0.45967635131E-01  0.38157942706E-01  0.13966880297E-01  0.61354599968E-01  0.51100000000E-03 0.  1.
</event>
<event>
 8    1  0.1061722E+005  0.1043930E+01  0.7957747E-01            NaN
         13   -1    0    0    0    0  0.00000000000E+00  0.00000000000E+00  0.74505805969E-08  0.10566000000E+00  0.10566000000E+00 0. -1.
     999900   -1    0    0    0    0 -0.00000000000E+00 -0.00000000000E+00 -0.74505805969E-08  0.93827000000E+00  0.93827000000E+00 0. -1.
     999902    2    1    2    0    0 -0.24159671171E-01  0.52605973873E-02 -0.87914000354E-02  0.10176878143E+01  0.10173494164E+01 0.  0.
     999903    2    3    3    0    0 -0.42350961561E-01 -0.11882860213E+00 -0.17558153358E-01  0.12875254756E+00  0.18843808679E-01 0.  0.
         14    1    1    2    0    0  0.24159671171E-01 -0.52605973873E-02  0.87914000354E-02  0.26242185704E-01  0.00000000000E+00 0.  1.
     999901    1    3    3    0    0  0.18191290390E-01  0.12408919951E+00  0.87667533226E-02  0.88893526674E+00  0.88000000000E+00 0.  1.
        -11    1    4    4    0    0 -0.31566778568E-01 -0.71758646538E-01 -0.35812190229E-02  0.78478348051E-01  0.51100000000E-03 0.  1.
         11    1    4    4    0    0 -0.10784182993E-01 -0.47069955588E-01 -0.13976934335E-01  0.50274199509E-01  0.51100000000E-03 0. -1.
</event>
<event>
 8    1  0.1061722E+005  0.1043930E+01  0.7957747E-01            NaN
         13   -1    0    0    0    0  0.00000000000E+00  0.00000000000E+00  0.74505805969E-08  0.10566000000E+00  0.10566000000E+00 0.  1.
     999900   -1    0    0    0    0 -0.00000000000E+00 -0.00000000000E+00 -0.74505805969E-08  0.93827000000E+00  0.93827000000E+00 0.  1.
     999902    2    1    2    0    0 -0.38250628934E-02 -0.22922802993E-01 -0.40147338172E-02  0.10203460205E+01  0.10200734274E+01 0.  0.
     999903    2    3    3    0    0  0.65330671632E-01 -0.11065106210E+00  0.27490975191E-01  0.13272483281E+00  0.18664761677E-01 0.  0.
         14    1    1    2    0    0  0.38250628934E-02  0.22922802993E-01  0.40147338172E-02  0.23583979537E-01  0.00000000000E+00 0.  1.
     999901    1    3    3    0    0 -0.69155734526E-01  0.87728259108E-01 -0.31505709008E-01  0.88762118765E+00  0.88000000000E+00 0. -1.
        -11    1    4    4    0    0  0.43060678223E-01 -0.60214868864E-01  0.22450517891E-01  0.77358511593E-01  0.51100000000E-03 0. -1.
         11    1    4    4    0    0  0.22269993409E-01 -0.50436193237E-01  0.50404573001E-02  0.55366321221E-01  0.51100000000E-03 0.  1.
</event>
<event>
 8    1  0.1061722E+005  0.1043930E+01  0.7957747E-01            NaN
         13   -1    0    0    0    0  0.00000000000E+00  0.00000000000E+00  0.74505805969E-08  0.10566000000E+00  0.10566000000E+00 0. -1.
     999900   -1    0    0    0    0 -0.00000000000E+00 -0.00000000000E+00 -0.74505805969E-08  0.93827000000E+00  0.93827000000E+00 0. -1.
     999902    2    1    2    0    0 -0.20197754520E-01  0.10802797054E-01  0.32877447163E-02  0.10207900135E+01  0.10205277030E+01 0.  0.
     999903    2    3    3    0    0 -0.69282302952E-01  0.92057040965E-01 -0.62535471079E-01  0.13324044257E+00  0.23828430481E-01 0.  0.
         14    1    1    2    0    0  0.20197754520E-01 -0.10802797054E-01 -0.32877447163E-02  0.23139986542E-01  0.00000000000E+00 0.  1.
     999901    1    3    3    0    0  0.49084548432E-01 -0.81254243911E-01  0.65823215796E-01  0.88754957089E+00  0.88000000000E+00 0.  1.
        -11    1    4    4    0    0 -0.41522076449E-01  0.68511314272E-01 -0.51344471210E-01  0.95154605042E-01  0.51100000000E-03 0. -1.
         11    1    4    4    0    0 -0.27760226503E-01  0.23545726693E-01 -0.11190999869E-01  0.38085837526E-01  0.51100000000E-03 0.  1.
</event>
<event>
 8    1  0.1061722E+005  0.1043930E+01  0.7957747E-01            NaN
         13   -1    0    0    0    0  0.00000000000E+00  0.00000000000E+00  0.74505805969E-08  0.10566000000E+00  0.10566000000E+00 0.  1.
     999900   -1    0    0    0    0 -0.00000000000E+00 -0.00000000000E+00 -0.74505805969E-08  0.93827000000E+00  0.93827000000E+00 0. -1.
     999902    2    1    2    0    0 -0.15352603283E-01 -0.17814002209E-01  0.31853549737E-02  0.10201984263E+01  0.10199223703E+01 0.  0.
     999903    2    3    3    0    0  0.50993097107E-01 -0.10273238909E+00  0.61799591748E-01  0.13168927436E+00  0.19199888542E-01 0.  0.
         14    1    1    2    0    0  0.15352603283E-01  0.17814002209E-01 -0.31853549737E-02  0.23731573664E-01  0.00000000000E+00 0. -1.
     999901    1    3    3    0    0 -0.66345700390E-01  0.84918386884E-01 -0.58614236775E-01  0.88850915198E+00  0.88000000000E+00 0. -1.
        -11    1    4    4    0    0  0.27779931764E-01 -0.74562499047E-01  0.46007747138E-01  0.91914442775E-01  0.51100000000E-03 0.  1.
         11    1    4    4    0    0  0.23213165343E-01 -0.28169890046E-01  0.15791844610E-01  0.39774831585E-01  0.51100000000E-03 0. -1.
</event>
<event>
 8    1  0.1061722E+005  0.1043930E+01  0.7957747E-01            NaN
         13   -1    0    0    0    0  0.00000000000E+00  0.00000000000E+00  0.74505805969E-08  0.10566000000E+00  0.10566000000E+00 0.  1.
     999900   -1    0    0    0    0 -0.00000000000E+00 -0.00000000000E+00 -0.74505805969E-08  0.93827000000E+00  0.93827000000E+00 0. -1.
     999902    2    1    2    0    0 -0.55934946310E-02  0.17797292178E-01 -0.82390075822E-02  0.10235360784E+01  0.10233328842E+01 0.  0.
     999903    2    3    3    0    0  0.84216812658E-01  0.31200420991E-01 -0.97975159217E-01  0.13432400470E+00  0.19438842834E-01 0.  0.
         14    1    1    2    0    0  0.55934946310E-02 -0.17797292178E-01  0.82390075822E-02  0.20393921570E-01  0.00000000000E+00 0.  1.
     999901    1    3    3    0    0 -0.89810307289E-01 -0.13403128813E-01  0.89736151635E-01  0.88921207373E+00  0.88000000000E+00 0.  1.
        -11    1    4    4    0    0  0.73828265923E-01  0.31425213609E-01 -0.78546292397E-01  0.11228507501E+00  0.51100000000E-03 0. -1.
         11    1    4    4    0    0  0.10388546735E-01 -0.22479261794E-03 -0.19428866820E-01  0.22038929691E-01  0.51100000000E-03 0.  1.
</event>
<event>
 8    1  0.1061722E+005  0.1043930E+01  0.7957747E-01            NaN
         13   -1    0    0    0    0  0.00000000000E+00  0.00000000000E+00  0.74505805969E-08  0.10566000000E+00  0.10566000000E+00 0.  1.
     999900   -1    0    0    0    0 -0.00000000000E+00 -0.00000000000E+00 -0.74505805969E-08  0.93827000000E+00  0.93827000000E+00 0. -1.
     999902    2    1    2    0    0 -0.36056842712E-02 -0.17246248963E-01 -0.13207698519E-01  0.10219100690E+01  0.10216728007E+01 0.  0.
     999903    2    3    3    0    0 -0.11942526710E+00 -0.23236603315E-01  0.47855226001E-01  0.13220295938E+00  0.19625637705E-01 0.  0.
         14    1    1    2    0    0  0.36056842712E-02  0.17246248963E-01  0.13207698519E-01  0.22019931030E-01  0.00000000000E+00 0.  1.
     999901    1    3    3    0    0  0.11581958283E+00  0.59903543519E-02 -0.61062924521E-01  0.88970710960E+00  0.88000000000E+00 0. -1.
        -11    1    4    4    0    0 -0.43485624071E-01 -0.65095934095E-02  0.75503578480E-02  0.44616626182E-01  0.51100000000E-03 0.  1.
         11    1    4    4    0    0 -0.75939643033E-01 -0.16727009906E-01  0.40304868153E-01  0.87586333193E-01  0.51100000000E-03 0. -1.
</event>
<event>
 8    1  0.1061722E+005  0.1043930E+01  0.7957747E-01            NaN
         13   -1    0    0    0    0  0.00000000000E+00  0.00000000000E+00  0.74505805969E-08  0.10566000000E+00  0.10566000000E+00 0. -1.
     999900   -1    0    0    0    0 -0.00000000000E+00 -0.00000000000E+00 -0.74505805969E-08  0.93827000000E+00  0.93827000000E+00 0.  1.
     999902    2    1    2    0    0  0.24684036083E-01 -0.41512818818E-02 -0.84487548051E-02  0.10175118957E+01  0.10171688855E+01 0.  0.
     999903    2    3    3    0    0 -0.11398391693E+00 -0.90961698597E-02 -0.48356730402E-01  0.12574628766E+00  0.19967019363E-01 0.  0.
         14    1    1    2    0    0 -0.24684036083E-01  0.41512818818E-02  0.84487548051E-02  0.26418104329E-01  0.00000000000E+00 0.  1.
     999901    1    3    3    0    0  0.13866795301E+00  0.49448879779E-02  0.39907975597E-01  0.89176560801E+00  0.88000000000E+00 0. -1.
        -11    1    4    4    0    0 -0.30815571574E-01 -0.37861867707E-02 -0.22976975387E-01  0.38628191526E-01  0.51100000000E-03 0.  1.
         11    1    4    4    0    0 -0.83168345351E-01 -0.53099830889E-02 -0.25379755015E-01  0.87118096137E-01  0.51100000000E-03 0. -1.
</event>
<event>
 7    1  0.1061722E+005  0.1043930E+01  0.7957747E-01            NaN
         13   -1    0    0    0    0  0.00000000000E+00  0.00000000000E+00  0.74505805969E-08  0.10566000000E+00  0.10566000000E+00 0.  1.
     999900   -1    0    0    0    0 -0.00000000000E+00 -0.00000000000E+00 -0.74505805969E-08  0.93827000000E+00  0.93827000000E+00 0.  1.
     999902    2    1    2    0    0  0.15419009720E-02  0.14920321336E-01 -0.18981858576E-01  0.10197369348E+01  0.10194499065E+01 0.  0.
         14    1    1    2    0    0 -0.15419009720E-02 -0.14920321336E-01  0.18981858576E-01  0.24193065171E-01  0.00000000000E+00 0.  1.
     999901    1    3    3    0    0 -0.41352755940E-01 -0.96977736892E-01 -0.59944554459E-01  0.88831755667E+00  0.88000000000E+00 0.  1.
        -11    1    3    3    0    0  0.37553539219E-01  0.52710587947E-01  0.28385161637E-01  0.70672858381E-01  0.51100000000E-03 0.  1.
         11    1    3    3    0    0  0.53411176924E-02  0.59187470282E-01  0.12577534245E-01  0.60746519779E-01  0.51100000000E-03 0. -1.
</event>
<event>
 8    1  0.1061722E+005  0.1043930E+01  0.7957747E-01            NaN
         13   -1    0    0    0    0  0.00000000000E+00  0.00000000000E+00  0.74505805969E-08  0.10566000000E+00  0.10566000000E+00 0. -1.
     999900   -1    0    0    0    0 -0.00000000000E+00 -0.00000000000E+00 -0.74505805969E-08  0.93827000000E+00  0.93827000000E+00 0.  1.
     999902    2    1    2    0    0  0.14891944924E-01  0.14887476699E-01  0.11820008384E-01  0.10197821309E+01  0.10194961868E+01 0.  0.
     999903    2    3    3    0    0 -0.11256208394E+00  0.48482812098E-01  0.37392128048E-01  0.12959838053E+00  0.19410388653E-01 0.  0.
         14    1    1    2    0    0 -0.14891944924E-01 -0.14887476699E-01 -0.11820008384E-01  0.24147869146E-01  0.00000000000E+00 0.  1.
     999901    1    3    3    0    0  0.12745402886E+00 -0.33595335398E-01 -0.25572119664E-01  0.89018375032E+00  0.88000000000E+00 0.  1.
        -11    1    4    4    0    0 -0.38089634599E-01  0.68202122109E-02  0.99263485528E-02  0.39951584137E-01  0.51100000000E-03 0. -1.
         11    1    4    4    0    0 -0.74472449337E-01  0.41662599887E-01  0.27465779496E-01  0.89646796395E-01  0.51100000000E-03 0.  1.
</event>
<event>
 8    1  0.1061722E+005  0.1043930E+01  0.7957747E-01            NaN
         13   -1    0    0    0    0  0.00000000000E+00  0.00000000000E+00  0.74505805969E-08  0.10566000000E+00  0.10566000000E+00 0. -1.
     999900   -1    0    0    0    0 -0.00000000000E+00 -0.00000000000E+00 -0.74505805969E-08  0.93827000000E+00  0.93827000000E+00 0. -1.
     999902    2    1    2    0    0 -0.51078074021E-02 -0.11347210782E-01  0.19637646109E-01  0.10206816445E+01  0.10204168429E+01 0.  0.
     999903    2    3    3    0    0 -0.63077883443E-01 -0.66703919199E-01 -0.90172216828E-01  0.13024180886E+00  0.20091487552E-01 0.  0.
         14    1    1    2    0    0  0.51078074021E-02  0.11347210782E-01 -0.19637646109E-01  0.23248355505E-01  0.00000000000E+00 0.  1.
     999901    1    3    3    0    0  0.57970076041E-01  0.55356708417E-01  0.10980986294E+00  0.89043983563E+00  0.88000000000E+00 0.  1.
        -11    1    4    4    0    0 -0.35192739535E-02 -0.12994477076E-01 -0.16867845079E-01  0.21587659490E-01  0.51100000000E-03 0.  1.
         11    1    4    4    0    0 -0.59558609489E-01 -0.53709442122E-01 -0.73304371749E-01  0.10865414937E+00  0.51100000000E-03 0. -1.
</event>
<event>
 8    1  0.1061722E+005  0.1043930E+01  0.7957747E-01            NaN
         13   -1    0    0    0    0  0.00000000000E+00  0.00000000000E+00  0.74505805969E-08  0.10566000000E+00  0.10566000000E+00 0. -1.
     999900   -1    0    0    0    0 -0.00000000000E+00 -0.00000000000E+00 -0.74505805969E-08  0.93827000000E+00  0.93827000000E+00 0. -1.
     999902    2    1    2    0    0  0.21345877996E-01 -0.91908153910E-02 -0.24735496417E-02  0.10205583068E+01  0.10202906554E+01 0.  0.
     999903    2    3    3    0    0  0.87633965732E-01 -0.93178163881E-01  0.33058440810E-01  0.13336582057E+00  0.18212616894E-01 0.  0.
         14    1    1    2    0    0 -0.21345877996E-01  0.91908153910E-02  0.24735496417E-02  0.23371693195E-01  0.00000000000E+00 0. -1.
     999901    1    3    3    0    0 -0.66288087735E-01  0.83987348490E-01 -0.35531990451E-01  0.88719248623E+00  0.88000000000E+00 0. -1.
        -11    1    4    4    0    0  0.54149244256E-01 -0.44517052084E-01  0.16474517621E-01  0.72010967440E-01  0.51100000000E-03 0. -1.
         11    1    4    4    0    0  0.33484721475E-01 -0.48661111797E-01  0.16583923188E-01  0.61354853132E-01  0.51100000000E-03 0.  1.
</event>
<event>
 8    1  0.1061722E+005  0.1043930E+01  0.7957747E-01            NaN
         13   -1    0    0    0    0  0.00000000000E+00  0.00000000000E+00  0.74505805969E-08  0.10566000000E+00  0.10566000000E+00 0. -1.
     999900   -1    0    0    0    0 -0.00000000000E+00 -0.00000000000E+00 -0.74505805969E-08  0.93827000000E+00  0.93827000000E+00 0. -1.
     999902    2    1    2    0    0 -0.15128684202E-01 -0.12481378911E-01  0.12505383709E-01  0.10206695931E+01  0.10204045138E+01 0.  0.
     999903    2    3    3    0    0  0.46507072960E-01  0.82503216046E-01 -0.82490543684E-01  0.12834383085E+00  0.26415159031E-01 0.  0.
         14    1    1    2    0    0  0.15128684202E-01  0.12481378911E-01 -0.12505383709E-01  0.23260406852E-01  0.00000000000E+00 0.  1.
     999901    1    3    3    0    0 -0.61635757162E-01 -0.94984594957E-01  0.94995927393E-01  0.89232576230E+00  0.88000000000E+00 0.  1.
        -11    1    4    4    0    0  0.12041293580E-01  0.46790702342E-01 -0.46265957994E-01  0.66896655872E-01  0.51100000000E-03 0. -1.
         11    1    4    4    0    0  0.34465779380E-01  0.35712513704E-01 -0.36224585690E-01  0.61447174978E-01  0.51100000000E-03 0.  1.
</event>
<event>
 8    1  0.1061722E+005  0.1043930E+01  0.7957747E-01            NaN
         13   -1    0    0    0    0  0.00000000000E+00  0.00000000000E+00  0.74505805969E-08  0.10566000000E+00  0.10566000000E+00 0.  1.
     999900   -1    0    0    0    0 -0.00000000000E+00 -0.00000000000E+00 -0.74505805969E-08  0.93827000000E+00  0.93827000000E+00 0. -1.
     999902    2    1    2    0    0  0.20580444101E-01 -0.10586479628E-01  0.43696724401E-02  0.10203774573E+01  0.10201055990E+01 0.  0.
     999903    2    3    3    0    0 -0.75208645669E-01 -0.98899980046E-01 -0.32378189944E-01  0.13002627408E+00  0.20516781684E-01 0.  0.
         14    1    1    2    0    0 -0.20580444101E-01  0.10586479628E-01 -0.43696724401E-02  0.23552542698E-01  0.00000000000E+00 0. -1.
     999901    1    3    3    0    0  0.95789089770E-01  0.88313500418E-01  0.36747862384E-01  0.89035118322E+00  0.88000000000E+00 0.  1.
        -11    1    4    4    0    0 -0.60479891520E-01 -0.73184416441E-01 -0.32608730243E-01  0.10038608717E+00  0.51100000000E-03 0. -1.
         11    1    4    4    0    0 -0.14728754149E-01 -0.25715563605E-01  0.23054029839E-03  0.29640186911E-01  0.51100000000E-03 0.  1.
</event>
<event>
 8    1  0.1061722E+005  0.1043930E+01  0.7957747E-01            NaN
         13   -1    0    0    0    0  0.00000000000E+00  0.00000000000E+00  0.74505805969E-08  0.10566000000E+00  0.10566000000E+00 0. -1.
     999900   -1    0    0    0    0 -0.00000000000E+00 -0.00000000000E+00 -0.74505805969E-08  0.93827000000E+00  0.93827000000E+00 0. -1.
     999902    2    1    2    0    0  0.15400066379E-01 -0.33835780054E-02  0.18895998607E-01  0.10193196484E+01  0.10190225101E+01 0.  0.
     999903    2    3    3    0    0  0.10860107870E+00 -0.10518324858E-01  0.72668721119E-01  0.13273697370E+00  0.20821424206E-01 0.  0.
         14    1    1    2    0    0 -0.15400066379E-01  0.33835780054E-02 -0.18895998607E-01  0.24610351642E-01  0.00000000000E+00 0.  1.
     999901    1    3    3    0    0 -0.93201012322E-01  0.71347468523E-02 -0.53772722512E-01  0.88658267465E+00  0.88000000000E+00 0. -1.
        -11    1    4    4    0    0  0.52207124999E-01  0.16898352878E-03  0.45402820067E-01  0.69190242427E-01  0.51100000000E-03 0. -1.
         11    1    4    4    0    0  0.56393953702E-01 -0.10687308387E-01  0.27265901052E-01  0.63546731277E-01  0.51100000000E-03 0.  1.
</event>
<event>
 8    1  0.1061722E+005  0.1043930E+01  0.7957747E-01            NaN
         13   -1    0    0    0    0  0.00000000000E+00  0.00000000000E+00  0.74505805969E-08  0.10566000000E+00  0.10566000000E+00 0.  1.
     999900   -1    0    0    0    0 -0.00000000000E+00 -0.00000000000E+00 -0.74505805969E-08  0.93827000000E+00  0.93827000000E+00 0.  1.
     999902    2    1    2    0    0 -0.18988356990E-01 -0.13511423275E-01 -0.40705228491E-02  0.10202723286E+01  0.10199980094E+01 0.  0.
     999903    2    3    3    0    0 -0.21534288077E-01  0.10840588019E+00  0.64535006682E-01  0.12921844171E+00  0.17806688826E-01 0.  0.
         14    1    1    2    0    0  0.18988356990E-01  0.13511423275E-01  0.40705228491E-02  0.23657671406E-01  0.00000000000E+00 0. -1.
     999901    1    3    3    0    0  0.25459310874E-02 -0.12191730347E+00 -0.68605529532E-01  0.89105388688E+00  0.88000000000E+00 0. -1.
        -11    1    4    4    0    0 -0.78440247125E-02  0.78517864917E-01  0.42362143939E-01  0.89562247598E-01  0.51100000000E-03 0.  1.
         11    1    4    4    0    0 -0.13690263364E-01  0.29888015276E-01  0.22172862743E-01  0.39656194111E-01  0.51100000000E-03 0. -1.
</event>
<event>
 8    1  0.1061722E+005  0.1043930E+01  0.7957747E-01            NaN
         13   -1    0    0    0    0  0.00000000000E+00  0.00000000000E+00  0.74505805969E-08  0.10566000000E+00  0.10566000000E+00 0.  1.
     999900   -1    0    0    0    0 -0.00000000000E+00 -0.00000000000E+00 -0.74505805969E-08  0.93827000000E+00  0.93827000000E+00 0. -1.
     999902    2    1    2    0    0  0.19517039047E-02  0.16797118992E-01  0.16159193059E-01  0.10205404323E+01  0.10202723667E+01 0.  0.
     999903    2    3    3    0    0  0.87092986318E-01  0.94671858484E-01  0.26823158113E-01  0.13294410903E+00  0.20166934810E-01 0.  0.
         14    1    1    2    0    0 -0.19517039047E-02 -0.16797118992E-01 -0.16159193059E-01  0.23389567651E-01  0.00000000000E+00 0. -1.
     999901    1    3    3    0    0 -0.85141282413E-01 -0.77874739492E-01 -0.10663965055E-01  0.88759632332E+00  0.88000000000E+00 0.  1.
        -11    1    4    4    0    0  0.36523953950E-01  0.45112561226E-01  0.25867352946E-02  0.58104171219E-01  0.51100000000E-03 0.  1.
         11    1    4    4    0    0  0.50569032368E-01  0.49559297258E-01  0.24236422819E-01  0.74839937810E-01  0.51100000000E-03 0. -1.
</event>
<event>
 8    1  0.1061722E+005  0.1043930E+01  0.7957747E-01            NaN
         13   -1    0    0    0    0  0.00000000000E+00  0.00000000000E+00  0.74505805969E-08  0.10566000000E+00  0.10566000000E+00 0.  1.
     999900   -1    0    0    0    0 -0.00000000000E+00 -0.00000000000E+00 -0.74505805969E-08  0.93827000000E+00  0.93827000000E+00 0.  1.
     999902    2    1    2    0    0  0.14836166249E-01  0.23474100250E-02 -0.23181645948E-01  0.10163073486E+01  0.10159318953E+01 0.  0.
     999903    2    3    3    0    0 -0.58475811557E-02 -0.12444839066E+00 -0.14553395706E-01  0.12693709993E+00  0.19484092735E-01 0.  0.
         14    1    1    2    0    0 -0.14836166249E-01 -0.23474100250E-02  0.23181645948E-01  0.27622651423E-01  0.00000000000E+00 0.  1.
     999901    1    3    3    0    0  0.20683747404E-01  0.12679580068E+00 -0.86282502417E-02  0.88937024865E+00  0.88000000000E+00 0.  1.
        -11    1    4    4    0    0  0.37760460441E-02 -0.75344126636E-01 -0.25848365497E-02  0.75484690125E-01  0.51100000000E-03 0.  1.
         11    1    4    4    0    0 -0.96236271998E-02 -0.49104264019E-01 -0.11968559156E-01  0.51452409804E-01  0.51100000000E-03 0. -1.
</event>
<event>
 8    1  0.1061722E+005  0.1043930E+01  0.7957747E-01            NaN
         13   -1    0    0    0    0  0.00000000000E+00  0.00000000000E+00  0.74505805969E-08  0.10566000000E+00  0.10566000000E+00 0. -1.
     999900   -1    0    0    0    0 -0.00000000000E+00 -0.00000000000E+00 -0.74505805969E-08  0.93827000000E+00  0.93827000000E+00 0. -1.
     999902    2    1    2    0    0 -0.66845411616E-02 -0.14633435672E-01 -0.17026797370E-01  0.10205049630E+01  0.10202360742E+01 0.  0.
     999903    2    3    3    0    0  0.61876805131E-02 -0.12747237259E+00  0.28797793719E-01  0.13202411743E+00  0.17707667769E-01 0.  0.
         14    1    1    2    0    0  0.66845411616E-02  0.14633435672E-01  0.17026797370E-01  0.23425037007E-01  0.00000000000E+00 0. -1.
     999901    1    3    3    0    0 -0.12872221675E-01  0.11283893692E+00 -0.45824591089E-01  0.88848084556E+00  0.88000000000E+00 0. -1.
        -11    1    4    4    0    0  0.11018485562E-01 -0.51416141569E-01  0.13528431848E-01  0.54298307775E-01  0.51100000000E-03 0.  1.
         11    1    4    4    0    0 -0.48308050494E-02 -0.76056231020E-01  0.15269361871E-01  0.77725809660E-01  0.51100000000E-03 0. -1.
</event>
<event>
 8    1  0.1061722E+005  0.1043930E+01  0.7957747E-01            NaN
         13   -1    0    0    0    0  0.00000000000E+00  0.00000000000E+00  0.74505805969E-08  0.10566000000E+00  0.10566000000E+00 0.  1.
     999900   -1    0    0    0    0 -0.00000000000E+00 -0.00000000000E+00 -0.74505805969E-08  0.93827000000E+00  0.93827000000E+00 0. -1.
     999902    2    1    2    0    0 -0.83466861035E-02  0.81636010198E-02  0.20211202630E-01  0.10205889576E+01  0.10203220158E+01 0.  0.
     999903    2    3    3    0    0 -0.34160285487E-01 -0.11440403016E+00 -0.45544985556E-01  0.12929044280E+00  0.19658730064E-01 0.  0.
         14    1    1    2    0    0  0.83466861035E-02 -0.81636010198E-02 -0.20211202630E-01  0.23341042442E-01  0.00000000000E+00 0. -1.
     999901    1    3    3    0    0  0.25813599383E-01  0.12256763118E+00  0.65756188186E-01  0.89129851476E+00  0.88000000000E+00 0.  1.
        -11    1    4    4    0    0 -0.28067759328E-01 -0.76729193459E-01 -0.39119442372E-01  0.90585650823E-01  0.51100000000E-03 0.  1.
         11    1    4    4    0    0 -0.60925261592E-02 -0.37674836704E-01 -0.64255431839E-02  0.38704791976E-01  0.51100000000E-03 0. -1.
</event>
<event>
 8    1  0.1061722E+005  0.1043930E+01  0.7957747E-01            NaN
         13   -1    0    0    0    0  0.00000000000E+00  0.00000000000E+00  0.74505805969E-08  0.10566000000E+00  0.10566000000E+00 0.  1.
     999900   -1    0    0    0    0 -0.00000000000E+00 -0.00000000000E+00 -0.74505805969E-08  0.93827000000E+00  0.93827000000E+00 0.  1.
     999902    2    1    2    0    0 -0.28930292843E-02  0.74945562776E-02 -0.20951351068E-01  0.10214912589E+01  0.10212447771E+01 0.  0.
     999903    2    3    3    0    0  0.69231907496E-01  0.49440452705E-01  0.96113106115E-01  0.12982677495E+00  0.19489662599E-01 0.  0.
         14    1    1    2    0    0  0.28930292843E-02 -0.74945562776E-02  0.20951351068E-01  0.22438741137E-01  0.00000000000E+00 0.  1.
     999901    1    3    3    0    0 -0.72124936780E-01 -0.41945896427E-01 -0.11706445718E+00  0.89166448391E+00  0.88000000000E+00 0.  1.
        -11    1    4    4    0    0  0.50112800369E-01  0.36256249451E-01  0.55826697219E-01  0.83322803772E-01  0.51100000000E-03 0. -1.
         11    1    4    4    0    0  0.19119107127E-01  0.13184203254E-01  0.40286408897E-01  0.46503971181E-01  0.51100000000E-03 0.  1.
</event>
<event>
 8    1  0.1061722E+005  0.1043930E+01  0.7957747E-01            NaN
         13   -1    0    0    0    0  0.00000000000E+00  0.00000000000E+00  0.74505805969E-08  0.10566000000E+00  0.10566000000E+00 0.  1.
     999900   -1    0    0    0    0 -0.00000000000E+00 -0.00000000000E+00 -0.74505805969E-08  0.93827000000E+00  0.93827000000E+00 0. -1.
     999902    2    1    2    0    0  0.31433247458E-02  0.94755307285E-02 -0.21364313707E-01  0.10203482258E+01  0.10200756844E+01 0.  0.
     999903    2    3    3    0    0  0.10620926574E+00  0.16526018648E-01 -0.75225378410E-01  0.13266961740E+00  0.19719340804E-01 0.  0.
         14    1    1    2    0    0 -0.31433247458E-02 -0.94755307285E-02  0.21364313707E-01  0.23581774174E-01  0.00000000000E+00 0.  1.
     999901    1    3    3    0    0 -0.10306594099E+00 -0.70504879195E-02  0.53861064703E-01  0.88767860843E+00  0.88000000000E+00 0.  1.
        -11    1    4    4    0    0  0.50229264082E-01 -0.18968885397E-02 -0.32138064571E-01  0.59663166793E-01  0.51100000000E-03 0. -1.
         11    1    4    4    0    0  0.55980001657E-01  0.18422907188E-01 -0.43087313839E-01  0.73006450603E-01  0.51100000000E-03 0.  1.
</event>
<event>
 8    1  0.1061722E+005  0.1043930E+01  0.7957747E-01            NaN
         13   -1    0    0    0    0  0.00000000000E+00  0.00000000000E+00  0.74505805969E-08  0.10566000000E+00  0.10566000000E+00 0. -1.
     999900   -1    0    0    0    0 -0.00000000000E+00 -0.00000000000E+00 -0.74505805969E-08  0.93827000000E+00  0.93827000000E+00 0. -1.
     999902    2    1    2    0    0  0.20745377253E-01  0.11229553658E-01  0.85830812651E-02  0.10188273540E+01  0.10185180580E+01 0.  0.
     999903    2    3    3    0    0  0.16193461726E-01  0.11282616996E+00 -0.59811645676E-01  0.13033400508E+00  0.20433969050E-01 0.  0.
         14    1    1    2    0    0 -0.20745377253E-01 -0.11229553658E-01 -0.85830812651E-02  0.25102646011E-01  0.00000000000E+00 0.  1.
     999901    1    3    3    0    0  0.45519155272E-02 -0.10159661630E+00  0.68394726941E-01  0.88849334891E+00  0.88000000000E+00 0.  1.
        -11    1    4    4    0    0  0.96462781509E-02  0.10200899423E+00 -0.48513635409E-01  0.11336983518E+00  0.51100000000E-03 0. -1.
         11    1    4    4    0    0  0.65471835753E-02  0.10817175727E-01 -0.11298010267E-01  0.16964169902E-01  0.51100000000E-03 0.  1.
</event>
<event>
 8    1  0.1061722E+005  0.1043930E+01  0.7957747E-01            NaN
         13   -1    0    0    0    0  0.00000000000E+00  0.00000000000E+00  0.74505805969E-08  0.10566000000E+00  0.10566000000E+00 0. -1.
     999900   -1    0    0    0    0 -0.00000000000E+00 -0.00000000000E+00 -0.74505805969E-08  0.93827000000E+00  0.93827000000E+00 0. -1.
     999902    2    1    2    0    0 -0.76502894826E-02  0.22288900367E-01 -0.19892370095E-02  0.10202809181E+01  0.10200068004E+01 0.  0.
     999903    2    3    3    0    0 -0.78718575090E-01  0.93355752813E-01  0.49118511414E-01  0.13308691417E+00  0.19687252545E-01 0.  0.
         14    1    1    2    0    0  0.76502894826E-02 -0.22288900367E-01  0.19892370095E-02  0.23649081856E-01  0.00000000000E+00 0. -1.
     999901    1    3    3    0    0  0.71068285608E-01 -0.71066852446E-01 -0.51107748423E-01  0.88719400397E+00  0.88000000000E+00 0.  1.
        -11    1    4    4    0    0 -0.37050518086E-01  0.43996264984E-01  0.12612417623E-01  0.58887574430E-01  0.51100000000E-03 0. -1.
         11    1    4    4    0    0 -0.41668057004E-01  0.49359487829E-01  0.36506093790E-01  0.74199339742E-01  0.51100000000E-03 0.  1.
</event>
<event>
 8    1  0.1061722E+005  0.1043930E+01  0.7957747E-01            NaN
         13   -1    0    0    0    0  0.00000000000E+00  0.00000000000E+00  0.74505805969E-08  0.10566000000E+00  0.10566000000E+00 0. -1.
     999900   -1    0    0    0    0 -0.00000000000E+00 -0.00000000000E+00 -0.74505805969E-08  0.93827000000E+00  0.93827000000E+00 0.  1.
     999902    2    1    2    0    0 -0.75560541246E-02 -0.10823779675E-01  0.21768765272E-01  0.10184716556E+01  0.10181534196E+01 0.  0.
     999903    2    3    3    0    0  0.72187570459E-01  0.71947298493E-01 -0.71493034749E-01  0.12611082025E+00  0.20130222984E-01 0.  0.
         14    1    1    2    0    0  0.75560541246E-02  0.10823779675E-01 -0.21768765272E-01  0.25458344445E-01  0.00000000000E+00 0.  1.
     999901    1    3    3    0    0 -0.79743624584E-01 -0.82771078168E-01  0.93261800021E-01  0.89236083530E+00  0.88000000000E+00 0.  1.
        -11    1    4    4    0    0  0.48281847143E-01  0.40128240430E-01 -0.53264016314E-01  0.82333037102E-01  0.51100000000E-03 0.  1.
         11    1    4    4    0    0  0.23905723316E-01  0.31819058063E-01 -0.18229018435E-01  0.43777783148E-01  0.51100000000E-03 0. -1.
</event>
<event>
 8    1  0.1061722E+005  0.1043930E+01  0.7957747E-01            NaN
         13   -1    0    0    0    0  0.00000000000E+00  0.00000000000E+00  0.74505805969E-08  0.10566000000E+00  0.10566000000E+00 0. -1.
     999900   -1    0    0    0    0 -0.00000000000E+00 -0.00000000000E+00 -0.74505805969E-08  0.93827000000E+00  0.93827000000E+00 0. -1.
     999902    2    1    2    0    0 -0.20642422367E-02 -0.76850328444E-02  0.22325018071E-01  0.10202292140E+01  0.10199538822E+01 0.  0.
     999903    2    3    3    0    0  0.56496912338E-01 -0.10333973601E+00  0.57092778283E-01  0.13242967118E+00  0.20174992780E-01 0.  0.
         14    1    1    2    0    0  0.20642422367E-02  0.76850328444E-02 -0.22325018071E-01  0.23700786015E-01  0.00000000000E+00 0.  1.
     999901    1    3    3    0    0 -0.58561154574E-01  0.95654703164E-01 -0.34767760212E-01  0.88779954281E+00  0.88000000000E+00 0. -1.
        -11    1    4    4    0    0  0.31139584120E-01 -0.42118074712E-01  0.33044104070E-01  0.61933673001E-01  0.51100000000E-03 0.  1.
         11    1    4    4    0    0  0.25357328217E-01 -0.61221661297E-01  0.24048674213E-01  0.70495998175E-01  0.51100000000E-03 0. -1.
</event>
<event>
 8    1  0.1061722E+005  0.1043930E+01  0.7957747E-01            NaN
         13   -1    0    0    0    0  0.00000000000E+00  0.00000000000E+00  0.74505805969E-08  0.10566000000E+00  0.10566000000E+00 0.  1.
     999900   -1    0    0    0    0 -0.00000000000E+00 -0.00000000000E+00 -0.74505805969E-08  0.93827000000E+00  0.93827000000E+00 0. -1.
     999902    2    1    2    0    0 -0.16352423717E-01 -0.12617454307E-02 -0.16516771781E-01  0.10206534557E+01  0.10203880042E+01 0.  0.
     999903    2    3    3    0    0  0.15937135376E-01  0.13275575878E-01 -0.12962026081E+00  0.13270844135E+00  0.19490643781E-01 0.  0.
         14    1    1    2    0    0  0.16352423717E-01  0.12617454307E-02  0.16516771781E-01  0.23276544267E-01  0.00000000000E+00 0.  1.
     999901    1    3    3    0    0 -0.32289559092E-01 -0.14537321309E-01  0.11310348903E+00  0.88794501438E+00  0.88000000000E+00 0.  1.
        -11    1    4    4    0    0  0.54432402618E-02  0.16179821282E-01 -0.90529380651E-01  0.92126246875E-01  0.51100000000E-03 0.  1.
         11    1    4    4    0    0  0.10493895114E-01 -0.29042454037E-02 -0.39090880157E-01  0.40582194475E-01  0.51100000000E-03 0. -1.
</event>
<event>
 8    1  0.1061722E+005  0.1043930E+01  0.7957747E-01            NaN
         13   -1    0    0    0    0  0.00000000000E+00  0.00000000000E+00  0.74505805969E-08  0.10566000000E+00  0.10566000000E+00 0.  1.
     999900   -1    0    0    0    0 -0.00000000000E+00 -0.00000000000E+00 -0.74505805969E-08  0.93827000000E+00  0.93827000000E+00 0. -1.
     999902    2    1    2    0    0 -0.15162711511E-01  0.16111458343E-01 -0.10689070331E-01  0.10193588149E+01  0.10190626332E+01 0.  0.
     999903    2    3    3    0    0 -0.32608539660E-01  0.63438727128E-01 -0.10982162894E+00  0.13235741051E+00  0.19232913889E-01 0.  0.
         14    1    1    2    0    0  0.15162711511E-01 -0.16111458343E-01  0.10689070331E-01  0.24571185052E-01  0.00000000000E+00 0.  1.
     999901    1    3    3    0    0  0.17445828149E-01 -0.47327268785E-01  0.99132558610E-01  0.88700140443E+00  0.88000000000E+00 0.  1.
        -11    1    4    4    0    0 -0.12200050484E-01  0.29616409412E-01 -0.65956980706E-01  0.73325011852E-01  0.51100000000E-03 0. -1.
         11    1    4    4    0    0 -0.20408489176E-01  0.33822317716E-01 -0.43864648235E-01  0.59032398663E-01  0.51100000000E-03 0.  1.
</event>
<event>
 8    1  0.1061722E+005  0.1043930E+01  0.7957747E-01            NaN
         13   -1    0    0    0    0  0.00000000000E+00  0.00000000000E+00  0.74505805969E-08  0.10566000000E+00  0.10566000000E+00 0.  1.
     999900   -1    0    0    0    0 -0.00000000000E+00 -0.00000000000E+00 -0.74505805969E-08  0.93827000000E+00  0.93827000000E+00 0.  1.
     999902    2    1    2    0    0 -0.18015414587E-01  0.94518536379E-02 -0.30071917453E-02  0.10233645945E+01  0.10231579338E+01 0.  0.
     999903    2    3    3    0    0  0.89667096630E-01  0.75982719880E-01  0.57359160151E-01  0.13226079820E+00  0.19730269894E-01 0.  0.
         14    1    1    2    0    0  0.18015414587E-01 -0.94518536379E-02  0.30071917453E-02  0.20565405470E-01  0.00000000000E+00 0. -1.
     999901    1    3    3    0    0 -0.10768251122E+00 -0.66530866242E-01 -0.60366351896E-01  0.89110379633E+00  0.88000000000E+00 0.  1.
        -11    1    4    4    0    0  0.27743653210E-01  0.30454872219E-01  0.28788349213E-01  0.50261712135E-01  0.51100000000E-03 0. -1.
         11    1    4    4    0    0  0.61923443420E-01  0.45527847661E-01  0.28570810938E-01  0.81999086070E-01  0.51100000000E-03 0.  1.
</event>
<event>
 8    1  0.1061722E+005  0.1043930E+01  0.7957747E-01            NaN
         13   -1    0    0    0    0  0.00000000000E+00  0.00000000000E+00  0.74505805969E-08  0.10566000000E+00  0.10566000000E+00 0. -1.
     999900   -1    0    0    0    0 -0.00000000000E+00 -0.00000000000E+00 -0.74505805969E-08  0.93827000000E+00  0.93827000000E+00 0. -1.
     999902    2    1    2    0    0  0.66102131067E-02 -0.23228905406E-01  0.14923576843E-02  0.10197328081E+01  0.10194456807E+01 0.  0.
     999903    2    3    3    0    0  0.27858162309E-02 -0.77414811908E-01  0.10501053829E+00  0.13200156940E+00  0.19909477572E-01 0.  0.
         14    1    1    2    0    0 -0.66102131067E-02  0.23228905406E-01 -0.14923576843E-02  0.24197191885E-01  0.00000000000E+00 0. -1.
     999901    1    3    3    0    0  0.38243968759E-02  0.54185906502E-01 -0.10351818061E+00  0.88773123872E+00  0.88000000000E+00 0. -1.
        -11    1    4    4    0    0  0.85666034438E-02 -0.32754221356E-01  0.34532111060E-01  0.48362728691E-01  0.51100000000E-03 0.  1.
         11    1    4    4    0    0 -0.57807872129E-02 -0.44660590553E-01  0.70478427230E-01  0.83638840708E-01  0.51100000000E-03 0. -1.
</event>
<event>
 8    1  0.1061722E+005  0.1043930E+01  0.7957747E-01            NaN
         13   -1    0    0    0    0  0.00000000000E+00  0.00000000000E+00  0.74505805969E-08  0.10566000000E+00  0.10566000000E+00 0.  1.
     999900   -1    0    0    0    0 -0.00000000000E+00 -0.00000000000E+00 -0.74505805969E-08  0.93827000000E+00  0.93827000000E+00 0. -1.
     999902    2    1    2    0    0  0.48386712413E-02 -0.60492881139E-02  0.25266601736E-01  0.10175025940E+01  0.10171593390E+01 0.  0.
     999903    2    3    3    0    0 -0.77660853102E-01  0.32298761916E-01  0.96975600222E-01  0.12991095086E+00  0.19954197285E-01 0.  0.
         14    1    1    2    0    0 -0.48386712413E-02  0.60492881139E-02 -0.25266601736E-01  0.26427406027E-01  0.00000000000E+00 0. -1.
     999901    1    3    3    0    0  0.82499524343E-01 -0.38348050030E-01 -0.71708998486E-01  0.88759164311E+00  0.88000000000E+00 0. -1.
        -11    1    4    4    0    0 -0.29168339627E-01  0.17710160932E-01  0.51892461569E-01  0.62109021289E-01  0.51100000000E-03 0.  1.
         11    1    4    4    0    0 -0.48492513475E-01  0.14588600984E-01  0.45083138653E-01  0.67801929572E-01  0.51100000000E-03 0. -1.
</event>
<event>
 8    1  0.1061722E+005  0.1043930E+01  0.7957747E-01            NaN
         13   -1    0    0    0    0  0.00000000000E+00  0.00000000000E+00  0.74505805969E-08  0.10566000000E+00  0.10566000000E+00 0. -1.
     999900   -1    0    0    0    0 -0.00000000000E+00 -0.00000000000E+00 -0.74505805969E-08  0.93827000000E+00  0.93827000000E+00 0.  1.
     999902    2    1    2    0    0 -0.33144890752E-02 -0.82989711929E-02 -0.21787906261E-01  0.10203806556E+01  0.10201088720E+01 0.  0.
     999903    2    3    3    0    0  0.39988573815E-01  0.11304904139E+00  0.42377965404E-01  0.12868689963E+00  0.19627898289E-01 0.  0.
         14    1    1    2    0    0  0.33144890752E-02  0.82989711929E-02  0.21787906261E-01  0.23549344363E-01  0.00000000000E+00 0. -1.
     999901    1    3    3    0    0 -0.43303062891E-01 -0.12134801258E+00 -0.64165871664E-01  0.89169375601E+00  0.88000000000E+00 0.  1.
        -11    1    4    4    0    0  0.33380173092E-02  0.15075875755E-01 -0.91543148189E-03  0.15476547585E-01  0.51100000000E-03 0.  1.
         11    1    4    4    0    0  0.36650556506E-01  0.97973165630E-01  0.43293396885E-01  0.11321035205E+00  0.51100000000E-03 0. -1.
</event>
<event>
 8    1  0.1061722E+005  0.1043930E+01  0.7957747E-01            NaN
         13   -1    0    0    0    0  0.00000000000E+00  0.00000000000E+00  0.74505805969E-08  0.10566000000E+00  0.10566000000E+00 0.  1.
     999900   -1    0    0    0    0 -0.00000000000E+00 -0.00000000000E+00 -0.74505805969E-08  0.93827000000E+00  0.93827000000E+00 0.  1.
     999902    2    1    2    0    0  0.13339938342E-01 -0.20040463171E-01 -0.22464080955E-02  0.10197510739E+01  0.10194643850E+01 0.  0.
     999903    2    3    3    0    0 -0.92203988802E-01  0.21593206309E-01  0.84347895866E-01  0.12825151893E+00  0.19132236196E-01 0.  0.
         14    1    1    2    0    0 -0.13339938342E-01  0.20040463171E-01  0.22464080955E-02  0.24178926121E-01  0.00000000000E+00 0.  1.
     999901    1    3    3    0    0  0.10554392714E+00 -0.41633669479E-01 -0.86594303961E-01  0.89149955495E+00  0.88000000000E+00 0.  1.
        -11    1    4    4    0    0 -0.30996352510E-01  0.14441217397E-01  0.22468141385E-01  0.40919446809E-01  0.51100000000E-03 0.  1.
         11    1    4    4    0    0 -0.61207636291E-01  0.71519889112E-02  0.61879754480E-01  0.87332072123E-01  0.51100000000E-03 0. -1.
</event>
<event>
 8    1  0.1061722E+005  0.1043930E+01  0.7957747E-01            NaN
         13   -1    0    0    0    0  0.00000000000E+00  0.00000000000E+00  0.74505805969E-08  0.10566000000E+00  0.10566000000E+00 0. -1.
     999900   -1    0    0    0    0 -0.00000000000E+00 -0.00000000000E+00 -0.74505805969E-08  0.93827000000E+00  0.93827000000E+00 0.  1.
     999902    2    1    2    0    0  0.20103824334E-01  0.16974752131E-01 -0.19835332130E-02  0.10175436329E+01  0.10172014572E+01 0.  0.
     999903    2    3    3    0    0 -0.95318730216E-01 -0.36190879956E-01 -0.70870147119E-01  0.12575087892E+00  0.19881289587E-01 0.  0.
         14    1    1    2    0    0 -0.20103824334E-01 -0.16974752131E-01  0.19835332130E-02  0.26386367063E-01  0.00000000000E+00 0.  1.
     999901    1    3    3    0    0  0.11542255455E+00  0.53165632088E-01  0.68886613906E-01  0.89179275401E+00  0.88000000000E+00 0. -1.
        -11    1    4    4    0    0 -0.30936023216E-01 -0.30315415307E-02 -0.16534221432E-01  0.35211778936E-01  0.51100000000E-03 0.  1.
         11    1    4    4    0    0 -0.64382707000E-01 -0.33159338426E-01 -0.54335925687E-01  0.90539099988E-01  0.51100000000E-03 0. -1.
</event>
<event>
 8    1  0.1061722E+005  0.1043930E+01  0.7957747E-01            NaN
         13   -1    0    0    0    0  0.00000000000E+00  0.00000000000E+00  0.74505805969E-08  0.10566000000E+00  0.10566000000E+00 0.  1.
     999900   -1    0    0    0    0 -0.00000000000E+00 -0.00000000000E+00 -0.74505805969E-08  0.93827000000E+00  0.93827000000E+00 0. -1.
     999902    2    1    2    0    0  0.40850157224E-02  0.44857989184E-03 -0.22977250777E-01  0.10205881357E+01  0.10203211749E+01 0.  0.
     999903    2    3    3    0    0 -0.59997285994E-01 -0.66277964062E-01 -0.96077055086E-01  0.13272409514E+00  0.19810150703E-01 0.  0.
         14    1    1    2    0    0 -0.40850157224E-02 -0.44857989184E-03  0.22977250777E-01  0.23341864335E-01  0.00000000000E+00 0.  1.
     999901    1    3    3    0    0  0.64082301716E-01  0.66726543954E-01  0.73099804309E-01  0.88786404052E+00  0.88000000000E+00 0. -1.
        -11    1    4    4    0    0 -0.47944569932E-01 -0.39447223991E-01 -0.62882357588E-01  0.88369775848E-01  0.51100000000E-03 0.  1.
         11    1    4    4    0    0 -0.12052716062E-01 -0.26830740070E-01 -0.33194697498E-01  0.44354319295E-01  0.51100000000E-03 0. -1.
</event>
<event>
 8    1  0.1061722E+005  0.1043930E+01  0.7957747E-01            NaN
         13   -1    0    0    0    0  0.00000000000E+00  0.00000000000E+00  0.74505805969E-08  0.10566000000E+00  0.10566000000E+00 0.  1.
     999900   -1    0    0    0    0 -0.00000000000E+00 -0.00000000000E+00 -0.74505805969E-08  0.93827000000E+00  0.93827000000E+00 0. -1.
     999902    2    1    2    0    0  0.14930285923E-02  0.23072694030E-01 -0.17289744052E-02  0.10207444938E+01  0.10204811385E+01 0.  0.
     999903    2    3    3    0    0 -0.21553221752E-01  0.27487600081E-01 -0.12560903952E+00  0.13175805322E+00  0.19037968676E-01 0.  0.
         14    1    1    2    0    0 -0.14930285923E-02 -0.23072694030E-01  0.17289744052E-02  0.23185506177E-01  0.00000000000E+00 0.  1.
     999901    1    3    3    0    0  0.23046250345E-01 -0.44149060502E-02  0.12388006512E+00  0.88898644061E+00  0.88000000000E+00 0.  1.
        -11    1    4    4    0    0  0.16005869111E-02  0.11534848316E-01 -0.36114082710E-01  0.37948685024E-01  0.51100000000E-03 0.  1.
         11    1    4    4    0    0 -0.23153808663E-01  0.15952751765E-01 -0.89494956813E-01  0.93809368191E-01  0.51100000000E-03 0. -1.
</event>
<event>
 8    1  0.1061722E+005  0.1043930E+01  0.7957747E-01            NaN
         13   -1    0    0    0    0  0.00000000000E+00  0.00000000000E+00  0.74505805969E-08  0.10566000000E+00  0.10566000000E+00 0. -1.
     999900   -1    0    0    0    0 -0.00000000000E+00 -0.00000000000E+00 -0.74505805969E-08  0.93827000000E+00  0.93827000000E+00 0.  1.
     999902    2    1    2    0    0  0.17141009506E-01 -0.39750294341E-02 -0.12041552400E-01  0.10226083197E+01  0.10223860139E+01 0.  0.
     999903    2    3    3    0    0 -0.83686274203E-01 -0.43354243549E-01  0.87995818601E-01  0.13035031934E+00  0.19103893226E-01 0.  0.
         14    1    1    2    0    0 -0.17141009506E-01  0.39750294341E-02  0.12041552400E-01  0.21321680283E-01  0.00000000000E+00 0.  1.
     999901    1    3    3    0    0  0.10082728371E+00  0.39379214115E-01 -0.10003737100E+00  0.89225800038E+00  0.88000000000E+00 0.  1.
        -11    1    4    4    0    0 -0.67114628671E-01 -0.30126729644E-01  0.58350425457E-01  0.93899022853E-01  0.51100000000E-03 0. -1.
         11    1    4    4    0    0 -0.16571645532E-01 -0.13227513905E-01  0.29645393144E-01  0.36451296485E-01  0.51100000000E-03 0.  1.
</event>
<event>
 8    1  0.1061722E+005  0.1043930E+01  0.7957747E-01            NaN
         13   -1    0    0    0    0  0.00000000000E+00  0.00000000000E+00  0.74505805969E-08  0.10566000000E+00  0.10566000000E+00 0.  1.
     999900   -1    0    0    0    0 -0.00000000000E+00 -0.00000000000E+00 -0.74505805969E-08  0.93827000000E+00  0.93827000000E+00 0. -1.
     999902    2    1    2    0    0 -0.12022138296E-01  0.77018246874E-02  0.18824786447E-01  0.10203032673E+01  0.10200296735E+01 0.  0.
     999903    2    3    3    0    0 -0.79883690011E-01  0.67469996945E-01 -0.75548094065E-01  0.13064959020E+00  0.20692909071E-01 0.  0.
         14    1    1    2    0    0  0.12022138296E-01 -0.77018246874E-02 -0.18824786447E-01  0.23626732688E-01  0.00000000000E+00 0. -1.
     999901    1    3    3    0    0  0.67861551715E-01 -0.59768172258E-01  0.94372880512E-01  0.88965367711E+00  0.88000000000E+00 0.  1.
        -11    1    4    4    0    0 -0.16008562069E-01  0.25571039395E-01 -0.20094163577E-01  0.36251739905E-01  0.51100000000E-03 0.  1.
         11    1    4    4    0    0 -0.63875127942E-01  0.41898957550E-01 -0.55453930488E-01  0.94397850298E-01  0.51100000000E-03 0. -1.
</event>
<event>
 8    1  0.1061722E+005  0.1043930E+01  0.7957747E-01            NaN
         13   -1    0    0    0    0  0.00000000000E+00  0.00000000000E+00  0.74505805969E-08  0.10566000000E+00  0.10566000000E+00 0.  1.
     999900   -1    0    0    0    0 -0.00000000000E+00 -0.00000000000E+00 -0.74505805969E-08  0.93827000000E+00  0.93827000000E+00 0. -1.
     999902    2    1    2    0    0  0.22838519148E-01 -0.55135089888E-02 -0.36538593404E-03  0.10204325481E+01  0.10201619749E+01 0.  0.
     999903    2    3    3    0    0  0.54277178713E-01  0.11088772669E+00 -0.39910581899E-01  0.13133105812E+00  0.20319749491E-01 0.  0.
         14    1    1    2    0    0 -0.22838519148E-01  0.55135089888E-02  0.36538593404E-03  0.23497451886E-01  0.00000000000E+00 0. -1.
     999901    1    3    3    0    0 -0.31438659566E-01 -0.11640123568E+00  0.39545195965E-01  0.88910148999E+00  0.88000000000E+00 0. -1.
        -11    1    4    4    0    0  0.46687787463E-01  0.96403742687E-01 -0.26934357915E-01  0.11044977075E+00  0.51100000000E-03 0. -1.
         11    1    4    4    0    0  0.75893912509E-02  0.14483984007E-01 -0.12976223983E-01  0.20881287368E-01  0.51100000000E-03 0.  1.
</event>
<event>
 8    1  0.1061722E+005  0.1043930E+01  0.7957747E-01            NaN
         13   -1    0    0    0    0  0.00000000000E+00  0.00000000000E+00  0.74505805969E-08  0.10566000000E+00  0.10566000000E+00 0. -1.
     999900   -1    0    0    0    0 -0.00000000000E+00 -0.00000000000E+00 -0.74505805969E-08  0.93827000000E+00  0.93827000000E+00 0.  1.
     999902    2    1    2    0    0 -0.21102843294E-01 -0.13860181445E-01  0.23075809270E-02  0.10185772969E+01  0.10182617297E+01 0.  0.
     999903    2    3    3    0    0  0.28614548491E-01 -0.85589527933E-01  0.90882272843E-01  0.12983526783E+00  0.21289658924E-01 0.  0.
         14    1    1    2    0    0  0.21102843294E-01  0.13860181445E-01 -0.23075809270E-02  0.25352703101E-01  0.00000000000E+00 0. -1.
     999901    1    3    3    0    0 -0.49717391785E-01  0.71729346489E-01 -0.88574691916E-01  0.88874202907E+00  0.88000000000E+00 0.  1.
        -11    1    4    4    0    0  0.17729062329E-01 -0.34186652660E-01  0.50791341837E-01  0.63742202643E-01  0.51100000000E-03 0. -1.
         11    1    4    4    0    0  0.10885486162E-01 -0.51402875274E-01  0.40090931006E-01  0.66093065183E-01  0.51100000000E-03 0.  1.
</event>
<event>
 8    1  0.1176767E+005  0.1043930E+01  0.7957747E-01            NaN
         13   -1    0    0    0    0  0.00000000000E+00  0.00000000000E+00  0.74505805969E-08  0.10566000000E+00  0.10566000000E+00 0.  1.
     999900   -1    0    0    0    0 -0.00000000000E+00 -0.00000000000E+00 -0.74505805969E-08  0.93827000000E+00  0.93827000000E+00 0. -1.
     999902    2    1    2    0    0 -0.14973021440E-01  0.11309591267E-01  0.14998283045E-01  0.10199082032E+01  0.10196252725E+01 0.  0.
     999903    2    3    3    0    0  0.20893257866E-01  0.59631154504E-01 -0.11059010165E+00  0.12895713508E+00  0.20183391553E-01 0.  0.
         14    1    1    2    0    0  0.14973021440E-01 -0.11309591267E-01 -0.14998283045E-01  0.24021796768E-01  0.00000000000E+00 0. -1.
     999901    1    3    3    0    0 -0.35866279306E-01 -0.48321563237E-01  0.12558838469E+00  0.89095106815E+00  0.88000000000E+00 0.  1.
        -11    1    4    4    0    0  0.16903236942E-01  0.33692551434E-01 -0.47623727619E-01  0.60738686144E-01  0.51100000000E-03 0. -1.
         11    1    4    4    0    0  0.39900209242E-02  0.25938603070E-01 -0.62966374030E-01  0.68218448940E-01  0.51100000000E-03 0.  1.
</event>
<event>
 8    1  0.1061722E+005  0.1043930E+01  0.7957747E-01            NaN
         13   -1    0    0    0    0  0.00000000000E+00  0.00000000000E+00  0.74505805969E-08  0.10566000000E+00  0.10566000000E+00 0.  1.
     999900   -1    0    0    0    0 -0.00000000000E+00 -0.00000000000E+00 -0.74505805969E-08  0.93827000000E+00  0.93827000000E+00 0.  1.
     999902    2    1    2    0    0  0.11933731344E-01  0.76438623770E-02 -0.19291450458E-01  0.10199925265E+01  0.10197116021E+01 0.  0.
     999903    2    3    3    0    0  0.10393424559E-01 -0.30033277850E-01 -0.12720874579E+00  0.13259854295E+00  0.19755696304E-01 0.  0.
         14    1    1    2    0    0 -0.11933731344E-01 -0.76438623770E-02  0.19291450458E-01  0.23937473480E-01  0.00000000000E+00 0.  1.
     999901    1    3    3    0    0  0.15403067853E-02  0.37677140227E-01  0.10791729533E+00  0.88739398357E+00  0.88000000000E+00 0. -1.
        -11    1    4    4    0    0 -0.37082220484E-02 -0.11647300657E-01 -0.25504860399E-01  0.28287268308E-01  0.51100000000E-03 0. -1.
         11    1    4    4    0    0  0.14101646607E-01 -0.18385977194E-01 -0.10170388539E+00  0.10431127464E+00  0.51100000000E-03 0.  1.
</event>
<event>
 8    1  0.1061722E+005  0.1043930E+01  0.7957747E-01            NaN
         13   -1    0    0    0    0  0.00000000000E+00  0.00000000000E+00  0.74505805969E-08  0.10566000000E+00  0.10566000000E+00 0.  1.
     999900   -1    0    0    0    0 -0.00000000000E+00 -0.00000000000E+00 -0.74505805969E-08  0.93827000000E+00  0.93827000000E+00 0.  1.
     999902    2    1    2    0    0 -0.10433961322E-01 -0.62945337745E-02  0.19292992483E-01  0.10211109671E+01  0.10208559638E+01 0.  0.
     999903    2    3    3    0    0 -0.33959760672E-01  0.18523420992E-01  0.12652811897E+00  0.13394200546E+00  0.20849783350E-01 0.  0.
         14    1    1    2    0    0  0.10433961322E-01  0.62945337745E-02 -0.19292992483E-01  0.22819032917E-01  0.00000000000E+00 0. -1.
     999901    1    3    3    0    0  0.23525799351E-01 -0.24817954767E-01 -0.10723512649E+00  0.88716896162E+00  0.88000000000E+00 0.  1.
        -11    1    4    4    0    0 -0.24215286645E-01  0.28538736781E-02  0.86318184277E-01  0.89697350909E-01  0.51100000000E-03 0. -1.
         11    1    4    4    0    0 -0.97444740274E-02  0.15669547314E-01  0.40209934696E-01  0.44244654551E-01  0.51100000000E-03 0.  1.
</event>
<event>
 8    1  0.1061722E+005  0.1043930E+01  0.7957747E-01            NaN
         13   -1    0    0    0    0  0.00000000000E+00  0.00000000000E+00  0.74505805969E-08  0.10566000000E+00  0.10566000000E+00 0.  1.
     999900   -1    0    0    0    0 -0.00000000000E+00 -0.00000000000E+00 -0.74505805969E-08  0.93827000000E+00  0.93827000000E+00 0.  1.
     999902    2    1    2    0    0  0.69627971594E-02  0.15698690459E-02 -0.23846152137E-01  0.10190385556E+01  0.10187345060E+01 0.  0.
     999903    2    3    3    0    0  0.86038118585E-01  0.95456449089E-01 -0.51258246504E-02  0.13032147629E+00  0.21045702243E-01 0.  0.
         14    1    1    2    0    0 -0.69627971594E-02 -0.15698690459E-02  0.23846152137E-01  0.24891444410E-01  0.00000000000E+00 0. -1.
     999901    1    3    3    0    0 -0.79075321425E-01 -0.93886580043E-01 -0.18720327486E-01  0.88871707930E+00  0.88000000000E+00 0.  1.
        -11    1    4    4    0    0  0.54175724314E-01  0.74333211487E-01 -0.30112193404E-02  0.92031320744E-01  0.51100000000E-03 0.  1.
         11    1    4    4    0    0  0.31862394271E-01  0.21123237602E-01 -0.21146053100E-02  0.38290155550E-01  0.51100000000E-03 0. -1.
</event>
<event>
 8    1  0.1061722E+005  0.1043930E+01  0.7957747E-01            NaN
         13   -1    0    0    0    0  0.00000000000E+00  0.00000000000E+00  0.74505805969E-08  0.10566000000E+00  0.10566000000E+00 0. -1.
     999900   -1    0    0    0    0 -0.00000000000E+00 -0.00000000000E+00 -0.74505805969E-08  0.93827000000E+00  0.93827000000E+00 0. -1.
     999902    2    1    2    0    0 -0.87373880240E-02  0.17614789869E-01 -0.12442601722E-01  0.10206611128E+01  0.10203958380E+01 0.  0.
     999903    2    3    3    0    0 -0.11421570367E+00  0.60720325158E-01 -0.23785948174E-01  0.13324213979E+00  0.21342718508E-01 0.  0.
         14    1    1    2    0    0  0.87373880240E-02 -0.17614789869E-01  0.12442601722E-01  0.23268887151E-01  0.00000000000E+00 0. -1.
     999901    1    3    3    0    0  0.10547831564E+00 -0.43105535289E-01  0.11343346452E-01  0.88741897306E+00  0.88000000000E+00 0.  1.
        -11    1    4    4    0    0 -0.73457273648E-01  0.49468242128E-01 -0.12211833318E-01  0.89400604165E-01  0.51100000000E-03 0.  1.
         11    1    4    4    0    0 -0.40758430017E-01  0.11252083030E-01 -0.11574114856E-01  0.43841535621E-01  0.51100000000E-03 0. -1.
</event>
<event>
 8    1  0.1061722E+005  0.1043930E+01  0.7957747E-01            NaN
         13   -1    0    0    0    0  0.00000000000E+00  0.00000000000E+00  0.74505805969E-08  0.10566000000E+00  0.10566000000E+00 0. -1.
     999900   -1    0    0    0    0 -0.00000000000E+00 -0.00000000000E+00 -0.74505805969E-08  0.93827000000E+00  0.93827000000E+00 0.  1.
     999902    2    1    2    0    0 -0.23761526861E-01 -0.33780758261E-02  0.89787896334E-03  0.10199127616E+01  0.10196299395E+01 0.  0.
     999903    2    3    3    0    0  0.44770869262E-01  0.65600969264E-01 -0.99460727921E-01  0.12888714580E+00  0.20286499255E-01 0.  0.
         14    1    1    2    0    0  0.23761526861E-01  0.33780758261E-02 -0.89787896334E-03  0.24017238428E-01  0.00000000000E+00 0.  1.
     999901    1    3    3    0    0 -0.68532396123E-01 -0.68979045090E-01  0.10035860688E+00  0.89102561577E+00  0.88000000000E+00 0. -1.
        -11    1    4    4    0    0  0.14289351331E-01  0.24414086506E-01 -0.51195839214E-01  0.58493659958E-01  0.51100000000E-03 0.  1.
         11    1    4    4    0    0  0.30481517931E-01  0.41186882758E-01 -0.48264888706E-01  0.70393485846E-01  0.51100000000E-03 0. -1.
</event>
<event>
 8    1  0.1061722E+005  0.1043930E+01  0.7957747E-01            NaN
         13   -1    0    0    0    0  0.00000000000E+00  0.00000000000E+00  0.74505805969E-08  0.10566000000E+00  0.10566000000E+00 0.  1.
     999900   -1    0    0    0    0 -0.00000000000E+00 -0.00000000000E+00 -0.74505805969E-08  0.93827000000E+00  0.93827000000E+00 0.  1.
     999902    2    1    2    0    0 -0.18088566187E-01 -0.12979638324E-01  0.92673651760E-02  0.10198146253E+01  0.10195294595E+01 0.  0.
     999903    2    3    3    0    0 -0.74175241484E-01 -0.10434483061E+00  0.29980402302E-01  0.13306644044E+00  0.20446098039E-01 0.  0.
         14    1    1    2    0    0  0.18088566187E-01  0.12979638324E-01 -0.92673651760E-02  0.24115374661E-01  0.00000000000E+00 0.  1.
     999901    1    3    3    0    0  0.56086675297E-01  0.91365192290E-01 -0.20713037126E-01  0.88674818490E+00  0.88000000000E+00 0.  1.
        -11    1    4    4    0    0 -0.52561208097E-01 -0.72181266607E-01  0.11170161668E-01  0.89988051864E-01  0.51100000000E-03 0. -1.
         11    1    4    4    0    0 -0.21614033388E-01 -0.32163564007E-01  0.18810240634E-01  0.43078388580E-01  0.51100000000E-03 0.  1.
</event>
<event>
 8    1  0.1061722E+005  0.1043930E+01  0.7957747E-01            NaN
         13   -1    0    0    0    0  0.00000000000E+00  0.00000000000E+00  0.74505805969E-08  0.10566000000E+00  0.10566000000E+00 0.  1.
     999900   -1    0    0    0    0 -0.00000000000E+00 -0.00000000000E+00 -0.74505805969E-08  0.93827000000E+00  0.93827000000E+00 0. -1.
     999902    2    1    2    0    0 -0.22020744960E-01 -0.43659851375E-02 -0.80680475743E-02  0.10200748449E+01  0.10197958721E+01 0.  0.
     999903    2    3    3    0    0 -0.56182960281E-01  0.92312199953E-01  0.70458015864E-01  0.13064802322E+00  0.20652038281E-01 0.  0.
         14    1    1    2    0    0  0.22020744960E-01  0.43659851375E-02  0.80680475743E-02  0.23855155135E-01  0.00000000000E+00 0. -1.
     999901    1    3    3    0    0  0.34162215321E-01 -0.96678185090E-01 -0.78526063438E-01  0.88942682165E+00  0.88000000000E+00 0.  1.
        -11    1    4    4    0    0 -0.16330616422E-01  0.39556426754E-01  0.18813581275E-01  0.46750528250E-01  0.51100000000E-03 0.  1.
         11    1    4    4    0    0 -0.39852343859E-01  0.52755773199E-01  0.51644434588E-01  0.83897494967E-01  0.51100000000E-03 0. -1.
</event>
<event>
 8    1  0.1061722E+005  0.1043930E+01  0.7957747E-01            NaN
         13   -1    0    0    0    0  0.00000000000E+00  0.00000000000E+00  0.74505805969E-08  0.10566000000E+00  0.10566000000E+00 0.  1.
     999900   -1    0    0    0    0 -0.00000000000E+00 -0.00000000000E+00 -0.74505805969E-08  0.93827000000E+00  0.93827000000E+00 0.  1.
     999902    2    1    2    0    0 -0.15240939685E-01 -0.95239195279E-02 -0.15584898186E-01  0.10201417605E+01  0.10198643690E+01 0.  0.
     999903    2    3    3    0    0 -0.73066437377E-01  0.94028886149E-01 -0.51915140990E-01  0.13144222847E+00  0.20043499165E-01 0.  0.
         14    1    1    2    0    0  0.15240939685E-01  0.95239195279E-02  0.15584898186E-01  0.23788239471E-01  0.00000000000E+00 0.  1.
     999901    1    3    3    0    0  0.57825497692E-01 -0.10355280568E+00  0.36330242804E-01  0.88869953206E+00  0.88000000000E+00 0. -1.
        -11    1    4    4    0    0 -0.64607384872E-01  0.70638470013E-01 -0.43798914737E-01  0.10527351841E+00  0.51100000000E-03 0. -1.
         11    1    4    4    0    0 -0.84590525048E-02  0.23390416135E-01 -0.81162262535E-02  0.26168710054E-01  0.51100000000E-03 0.  1.
</event>
<event>
 8    1  0.1061722E+005  0.1043930E+01  0.7957747E-01            NaN
         13   -1    0    0    0    0  0.00000000000E+00  0.00000000000E+00  0.74505805969E-08  0.10566000000E+00  0.10566000000E+00 0. -1.
     999900   -1    0    0    0    0 -0.00000000000E+00 -0.00000000000E+00 -0.74505805969E-08  0.93827000000E+00  0.93827000000E+00 0. -1.
     999902    2    1    2    0    0  0.92250550975E-02 -0.19445437137E-01  0.93598544523E-02  0.10204601567E+01  0.10201902264E+01 0.  0.
     999903    2    3    3    0    0  0.15609651419E-01 -0.12667378879E+00 -0.30777346411E-01  0.13302019970E+00  0.21382668049E-01 0.  0.
         14    1    1    2    0    0 -0.92250550975E-02  0.19445437137E-01 -0.93598544523E-02  0.23469843254E-01  0.00000000000E+00 0.  1.
     999901    1    3    3    0    0 -0.63845963218E-02  0.10722835165E+00  0.40137200863E-01  0.88743995705E+00  0.88000000000E+00 0.  1.
        -11    1    4    4    0    0  0.37086434119E-02 -0.67198449166E-01 -0.26090728622E-01  0.72182912433E-01  0.51100000000E-03 0.  1.
         11    1    4    4    0    0  0.11901008007E-01 -0.59475339622E-01 -0.46866177886E-02  0.60837287267E-01  0.51100000000E-03 0. -1.
</event>
<event>
 8    1  0.1061722E+005  0.1043930E+01  0.7957747E-01            NaN
         13   -1    0    0    0    0  0.00000000000E+00  0.00000000000E+00  0.74505805969E-08  0.10566000000E+00  0.10566000000E+00 0.  1.
     999900   -1    0    0    0    0 -0.00000000000E+00 -0.00000000000E+00 -0.74505805969E-08  0.93827000000E+00  0.93827000000E+00 0.  1.
     999902    2    1    2    0    0  0.23743521419E-01  0.30158156209E-02 -0.28832696646E-02  0.10198226734E+01  0.10195377001E+01 0.  0.
     999903    2    3    3    0    0 -0.11334892946E+00 -0.21948639912E-01 -0.50428939593E-01  0.12759055399E+00  0.20163058184E-01 0.  0.
         14    1    1    2    0    0 -0.23743521419E-01 -0.30158156209E-02  0.28832696646E-02  0.24107326629E-01  0.00000000000E+00 0.  1.
     999901    1    3    3    0    0  0.13709245088E+00  0.24964455533E-01  0.47545669928E-01  0.89223211938E+00  0.88000000000E+00 0. -1.
        -11    1    4    4    0    0 -0.70718425473E-01 -0.17811331909E-01 -0.21976587696E-01  0.76168042994E-01  0.51100000000E-03 0.  1.
         11    1    4    4    0    0 -0.42630503986E-01 -0.41373080033E-02 -0.28452351896E-01  0.51422510995E-01  0.51100000000E-03 0. -1.
</event>
<event>
 8    1  0.1061722E+005  0.1043930E+01  0.7957747E-01            NaN
         13   -1    0    0    0    0  0.00000000000E+00  0.00000000000E+00  0.74505805969E-08  0.10566000000E+00  0.10566000000E+00 0.  1.
     999900   -1    0    0    0    0 -0.00000000000E+00 -0.00000000000E+00 -0.74505805969E-08  0.93827000000E+00  0.93827000000E+00 0. -1.
     999902    2    1    2    0    0  0.16457856941E-01  0.68168472099E-02 -0.11892264215E-01  0.10225114004E+01  0.10222870475E+01 0.  0.
     999903    2    3    3    0    0  0.11856400091E+00  0.49922365208E-01 -0.36450625302E-01  0.13521952991E+00  0.20149648251E-01 0.  0.
         14    1    1    2    0    0 -0.16457856941E-01 -0.68168472099E-02  0.11892264215E-01  0.21418599607E-01  0.00000000000E+00 0.  1.
     999901    1    3    3    0    0 -0.10210614397E+00 -0.43105517998E-01  0.24558361088E-01  0.88729187048E+00  0.88000000000E+00 0. -1.
        -11    1    4    4    0    0  0.24844869156E-01  0.21052753759E-02 -0.53698121380E-02  0.25510697975E-01  0.51100000000E-03 0.  1.
         11    1    4    4    0    0  0.93719131758E-01  0.47817089832E-01 -0.31080813164E-01  0.10970883194E+00  0.51100000000E-03 0. -1.
</event>
<event>
 8    1  0.1061722E+005  0.1043930E+01  0.7957747E-01            NaN
         13   -1    0    0    0    0  0.00000000000E+00  0.00000000000E+00  0.74505805969E-08  0.10566000000E+00  0.10566000000E+00 0.  1.
     999900   -1    0    0    0    0 -0.00000000000E+00 -0.00000000000E+00 -0.74505805969E-08  0.93827000000E+00  0.93827000000E+00 0. -1.
     999902    2    1    2    0    0  0.87638752390E-02 -0.12348153927E-01  0.17701377953E-01  0.10206357690E+01  0.10203699093E+01 0.  0.
     999903    2    3    3    0    0  0.79811411039E-01 -0.10418362521E+00 -0.15995354111E-02  0.13279905467E+00  0.20222297444E-01 0.  0.
         14    1    1    2    0    0 -0.87638752390E-02  0.12348153927E-01 -0.17701377953E-01  0.23294230961E-01  0.00000000000E+00 0. -1.
     999901    1    3    3    0    0 -0.71047535800E-01  0.91835471281E-01  0.19300913364E-01  0.88783671437E+00  0.88000000000E+00 0. -1.
        -11    1    4    4    0    0  0.52669378704E-02 -0.83138812743E-03  0.46257689155E-04  0.53567808918E-02  0.51100000000E-03 0.  1.
         11    1    4    4    0    0  0.74544473168E-01 -0.10335223708E+00 -0.16457931002E-02  0.12744227378E+00  0.51100000000E-03 0. -1.
</event>
<event>
 8    1  0.1061722E+005  0.1043930E+01  0.7957747E-01            NaN
         13   -1    0    0    0    0  0.00000000000E+00  0.00000000000E+00  0.74505805969E-08  0.10566000000E+00  0.10566000000E+00 0. -1.
     999900   -1    0    0    0    0 -0.00000000000E+00 -0.00000000000E+00 -0.74505805969E-08  0.93827000000E+00  0.93827000000E+00 0.  1.
     999902    2    1    2    0    0  0.46498704345E-02 -0.18120098236E-01  0.15818947735E-01  0.10194310538E+01  0.10191366322E+01 0.  0.
     999903    2    3    3    0    0 -0.43131957994E-01 -0.96576849889E-01  0.77690205548E-01  0.13248876849E+00  0.18167333424E-01 0.  0.
         14    1    1    2    0    0 -0.46498704345E-02  0.18120098236E-01 -0.15818947735E-01  0.24498946153E-01  0.00000000000E+00 0. -1.
     999901    1    3    3    0    0  0.47781828428E-01  0.78456751653E-01 -0.61871257812E-01  0.88694228536E+00  0.88000000000E+00 0.  1.
        -11    1    4    4    0    0 -0.17481109964E-01 -0.27424644951E-01  0.15590410345E-01  0.36069687717E-01  0.51100000000E-03 0. -1.
         11    1    4    4    0    0 -0.25650848030E-01 -0.69152204938E-01  0.62099795202E-01  0.96419080775E-01  0.51100000000E-03 0.  1.
</event>
<event>
 8    1  0.1061722E+005  0.1043930E+01  0.7957747E-01            NaN
         13   -1    0    0    0    0  0.00000000000E+00  0.00000000000E+00  0.74505805969E-08  0.10566000000E+00  0.10566000000E+00 0. -1.
     999900   -1    0    0    0    0 -0.00000000000E+00 -0.00000000000E+00 -0.74505805969E-08  0.93827000000E+00  0.93827000000E+00 0.  1.
     999902    2    1    2    0    0  0.61522003626E-02 -0.22205385492E-01 -0.28363636048E-02  0.10207141935E+01  0.10204501414E+01 0.  0.
     999903    2    3    3    0    0  0.23150273812E-01 -0.85755328125E-01 -0.97323189295E-01  0.13321473435E+00  0.19607416837E-01 0.  0.
         14    1    1    2    0    0 -0.61522003626E-02  0.22205385492E-01  0.28363636048E-02  0.23215806526E-01  0.00000000000E+00 0.  1.
     999901    1    3    3    0    0 -0.16998073450E-01  0.63549942633E-01  0.94486825690E-01  0.88749945912E+00  0.88000000000E+00 0. -1.
        -11    1    4    4    0    0  0.14292862179E-01 -0.49337456449E-01 -0.41815107159E-01  0.66236204797E-01  0.51100000000E-03 0.  1.
         11    1    4    4    0    0  0.88574116328E-02 -0.36417871675E-01 -0.55508082136E-01  0.66978529557E-01  0.51100000000E-03 0. -1.
</event>
<event>
 8    1  0.1061722E+005  0.1043930E+01  0.7957747E-01            NaN
         13   -1    0    0    0    0  0.00000000000E+00  0.00000000000E+00  0.74505805969E-08  0.10566000000E+00  0.10566000000E+00 0. -1.
     999900   -1    0    0    0    0 -0.00000000000E+00 -0.00000000000E+00 -0.74505805969E-08  0.93827000000E+00  0.93827000000E+00 0. -1.
     999902    2    1    2    0    0  0.89755631101E-02 -0.85437651012E-02  0.20769645876E-01  0.10197445737E+01  0.10194577288E+01 0.  0.
     999903    2    3    3    0    0  0.10807466715E+00 -0.61796673432E-01 -0.34568230981E-01  0.13085831254E+00  0.20735786477E-01 0.  0.
         14    1    1    2    0    0 -0.89755631101E-02  0.85437651012E-02 -0.20769645876E-01  0.24185426295E-01  0.00000000000E+00 0.  1.
     999901    1    3    3    0    0 -0.99099104044E-01  0.53252908331E-01  0.55337876857E-01  0.88888626116E+00  0.88000000000E+00 0.  1.
        -11    1    4    4    0    0  0.63764291369E-01 -0.47711585386E-01 -0.19690230269E-01  0.82038079712E-01  0.51100000000E-03 0. -1.
         11    1    4    4    0    0  0.44310375785E-01 -0.14085088045E-01 -0.14878000711E-01  0.48820232831E-01  0.51100000000E-03 0.  1.
</event>
<event>
 8    1  0.1061722E+005  0.1043930E+01  0.7957747E-01            NaN
         13   -1    0    0    0    0  0.00000000000E+00  0.00000000000E+00  0.74505805969E-08  0.10566000000E+00  0.10566000000E+00 0. -1.
     999900   -1    0    0    0    0 -0.00000000000E+00 -0.00000000000E+00 -0.74505805969E-08  0.93827000000E+00  0.93827000000E+00 0. -1.
     999902    2    1    2    0    0 -0.21039954703E-01 -0.59738719083E-02  0.86401057421E-02  0.10204136596E+01  0.10201426461E+01 0.  0.
     999903    2    3    3    0    0 -0.83748236438E-01 -0.10054651253E+00 -0.11859110225E-01  0.13289096646E+00  0.19899803603E-01 0.  0.
         14    1    1    2    0    0  0.21039954703E-01  0.59738719083E-02 -0.86401057421E-02  0.23516340419E-01  0.00000000000E+00 0.  1.
     999901    1    3    3    0    0  0.62708281735E-01  0.94572640618E-01  0.20499215967E-01  0.88752269312E+00  0.88000000000E+00 0.  1.
        -11    1    4    4    0    0 -0.57251271537E-01 -0.53887791654E-01 -0.92585068891E-02  0.79168069654E-01  0.51100000000E-03 0.  1.
         11    1    4    4    0    0 -0.26496964901E-01 -0.46658720872E-01 -0.26006033355E-02  0.53722896805E-01  0.51100000000E-03 0. -1.
</event>
<event>
 8    1  0.1061722E+005  0.1043930E+01  0.7957747E-01            NaN
         13   -1    0    0    0    0  0.00000000000E+00  0.00000000000E+00  0.74505805969E-08  0.10566000000E+00  0.10566000000E+00 0. -1.
     999900   -1    0    0    0    0 -0.00000000000E+00 -0.00000000000E+00 -0.74505805969E-08  0.93827000000E+00  0.93827000000E+00 0.  1.
     999902    2    1    2    0    0  0.13704401239E-01 -0.13706963208E-01 -0.11640774698E-01  0.10213202877E+01  0.10210699932E+01 0.  0.
     999903    2    3    3    0    0 -0.40719423991E-01 -0.85769569428E-01  0.87576063965E-01  0.13115235242E+00  0.22735039816E-01 0.  0.
         14    1    1    2    0    0 -0.13704401239E-01  0.13706963208E-01  0.11640774698E-01  0.22609712278E-01  0.00000000000E+00 0.  1.
     999901    1    3    3    0    0  0.54423825230E-01  0.72062606220E-01 -0.99216838663E-01  0.89016793530E+00  0.88000000000E+00 0.  1.
        -11    1    4    4    0    0 -0.29506413114E-01 -0.48966036565E-01  0.39105087936E-01  0.69265938059E-01  0.51100000000E-03 0. -1.
         11    1    4    4    0    0 -0.11213010876E-01 -0.36803532863E-01  0.48470976029E-01  0.61886414360E-01  0.51100000000E-03 0.  1.
</event>
<event>
 8    1  0.1061722E+005  0.1043930E+01  0.7957747E-01            NaN
         13   -1    0    0    0    0  0.00000000000E+00  0.00000000000E+00  0.74505805969E-08  0.10566000000E+00  0.10566000000E+00 0.  1.
     999900   -1    0    0    0    0 -0.00000000000E+00 -0.00000000000E+00 -0.74505805969E-08  0.93827000000E+00  0.93827000000E+00 0.  1.
     999902    2    1    2    0    0  0.90087951685E-02 -0.21686565858E-01  0.17585277485E-02  0.10203809459E+01  0.10201091691E+01 0.  0.
     999903    2    3    3    0    0  0.28969722168E-01 -0.11895974505E+00  0.49585652123E-01  0.13350556355E+00  0.19347683512E-01 0.  0.
         14    1    1    2    0    0 -0.90087951685E-02  0.21686565858E-01 -0.17585277485E-02  0.23549054099E-01  0.00000000000E+00 0. -1.
     999901    1    3    3    0    0 -0.19960926999E-01  0.97273179191E-01 -0.47827124374E-01  0.88687538235E+00  0.88000000000E+00 0.  1.
        -11    1    4    4    0    0  0.22881244564E-01 -0.53229420342E-01  0.23408472502E-01  0.62491121358E-01  0.51100000000E-03 0.  1.
         11    1    4    4    0    0  0.60884776031E-02 -0.65730324708E-01  0.26177179621E-01  0.71014442190E-01  0.51100000000E-03 0. -1.
</event>
<event>
 8    1  0.1061722E+005  0.1043930E+01  0.7957747E-01            NaN
         13   -1    0    0    0    0  0.00000000000E+00  0.00000000000E+00  0.74505805969E-08  0.10566000000E+00  0.10566000000E+00 0.  1.
     999900   -1    0    0    0    0 -0.00000000000E+00 -0.00000000000E+00 -0.74505805969E-08  0.93827000000E+00  0.93827000000E+00 0.  1.
     999902    2    1    2    0    0 -0.36029155180E-02  0.46972695803E-02  0.24760803458E-01  0.10184713526E+01  0.10181531089E+01 0.  0.
     999903    2    3    3    0    0 -0.11199035567E+00 -0.42869480773E-01  0.46734457020E-01  0.13027471083E+00  0.20193035060E-01 0.  0.
         14    1    1    2    0    0  0.36029155180E-02 -0.46972695803E-02 -0.24760803458E-01  0.25458647443E-01  0.00000000000E+00 0. -1.
     999901    1    3    3    0    0  0.10838744015E+00  0.47566750353E-01 -0.21973653562E-01  0.88819664173E+00  0.88000000000E+00 0.  1.
        -11    1    4    4    0    0 -0.85083955850E-01 -0.40795314619E-01  0.32793778296E-01  0.99896097291E-01  0.51100000000E-03 0.  1.
         11    1    4    4    0    0 -0.26906399817E-01 -0.20741661539E-02  0.13940678724E-01  0.30378613541E-01  0.51100000000E-03 0. -1.
</event>
<event>
 8    1  0.1061722E+005  0.1043930E+01  0.7957747E-01            NaN
         13   -1    0    0    0    0  0.00000000000E+00  0.00000000000E+00  0.74505805969E-08  0.10566000000E+00  0.10566000000E+00 0. -1.
     999900   -1    0    0    0    0 -0.00000000000E+00 -0.00000000000E+00 -0.74505805969E-08  0.93827000000E+00  0.93827000000E+00 0.  1.
     999902    2    1    2    0    0  0.94643182518E-02 -0.13155949825E-01  0.13784949201E-01  0.10226537889E+01  0.10224324402E+01 0.  0.
     999903    2    3    3    0    0 -0.80847540151E-01  0.79561958601E-01  0.63805296262E-01  0.13178069048E+00  0.20702766649E-01 0.  0.
         14    1    1    2    0    0 -0.94643182518E-02  0.13155949825E-01 -0.13784949201E-01  0.21276211134E-01  0.00000000000E+00 0.  1.
     999901    1    3    3    0    0  0.90311858403E-01 -0.92717908425E-01 -0.50020347062E-01  0.89087309839E+00  0.88000000000E+00 0. -1.
        -11    1    4    4    0    0 -0.71469145452E-01  0.77807808861E-01  0.56964992207E-01  0.12002985183E+00  0.51100000000E-03 0. -1.
         11    1    4    4    0    0 -0.93783946990E-02  0.17541497396E-02  0.68403040557E-02  0.11750838651E-01  0.51100000000E-03 0.  1.
</event>
<event>
 8    1  0.1061722E+005  0.1043930E+01  0.7957747E-01            NaN
         13   -1    0    0    0    0  0.00000000000E+00  0.00000000000E+00  0.74505805969E-08  0.10566000000E+00  0.10566000000E+00 0.  1.
     999900   -1    0    0    0    0 -0.00000000000E+00 -0.00000000000E+00 -0.74505805969E-08  0.93827000000E+00  0.93827000000E+00 0. -1.
     999902    2    1    2    0    0  0.11511382563E-01 -0.21788793216E-01  0.88594075321E-02  0.10177431227E+01  0.10174061683E+01 0.  0.
     999903    2    3    3    0    0  0.12331637004E+00 -0.24944396925E-01  0.29144139506E-01  0.13043157464E+00  0.18271965858E-01 0.  0.
         14    1    1    2    0    0 -0.11511382563E-01  0.21788793216E-01 -0.88594075321E-02  0.26186877251E-01  0.00000000000E+00 0. -1.
     999901    1    3    3    0    0 -0.11180498748E+00  0.31556037084E-02 -0.20284731974E-01  0.88731154811E+00  0.88000000000E+00 0. -1.
        -11    1    4    4    0    0  0.33524240812E-01 -0.14961463998E-01  0.64362310135E-02  0.37274741014E-01  0.51100000000E-03 0. -1.
         11    1    4    4    0    0  0.89792129232E-01 -0.99829329265E-02  0.22707908492E-01  0.93156833624E-01  0.51100000000E-03 0.  1.
</event>
<event>
 8    1  0.1061722E+005  0.1043930E+01  0.7957747E-01            NaN
         13   -1    0    0    0    0  0.00000000000E+00  0.00000000000E+00  0.74505805969E-08  0.10566000000E+00  0.10566000000E+00 0.  1.
     999900   -1    0    0    0    0 -0.00000000000E+00 -0.00000000000E+00 -0.74505805969E-08  0.93827000000E+00  0.93827000000E+00 0. -1.
     999902    2    1    2    0    0 -0.10879113722E-02 -0.19557474770E-01 -0.44365652742E-02  0.10238461388E+01  0.10236491364E+01 0.  0.
     999903    2    3    3    0    0  0.74760405908E-01  0.80403704956E-03  0.10852204415E+00  0.13315696412E+00  0.19078214241E-01 0.  0.
         14    1    1    2    0    0  0.10879113722E-02  0.19557474770E-01  0.44365652742E-02  0.20083861232E-01  0.00000000000E+00 0. -1.
     999901    1    3    3    0    0 -0.75848317280E-01 -0.20361511820E-01 -0.11295860943E+00  0.89068917465E+00  0.88000000000E+00 0. -1.
        -11    1    4    4    0    0  0.33588460198E-01  0.22570348431E-02  0.65149943602E-01  0.73335224395E-01  0.51100000000E-03 0.  1.
         11    1    4    4    0    0  0.41171945710E-01 -0.14529977936E-02  0.43372100550E-01  0.59821739721E-01  0.51100000000E-03 0. -1.
</event>
<event>
 8    1  0.1061722E+005  0.1043930E+01  0.7957747E-01            NaN
         13   -1    0    0    0    0  0.00000000000E+00  0.00000000000E+00  0.74505805969E-08  0.10566000000E+00  0.10566000000E+00 0. -1.
     999900   -1    0    0    0    0 -0.00000000000E+00 -0.00000000000E+00 -0.74505805969E-08  0.93827000000E+00  0.93827000000E+00 0. -1.
     999902    2    1    2    0    0  0.33083127870E-02 -0.12581551422E-01 -0.20901075286E-01  0.10193109968E+01  0.10190136471E+01 0.  0.
     999903    2    3    3    0    0  0.11531324818E+00  0.18776120870E-01  0.50870301099E-01  0.12876086368E+00  0.18490120615E-01 0.  0.
         14    1    1    2    0    0 -0.33083127870E-02  0.12581551422E-01  0.20901075286E-01  0.24619003185E-01  0.00000000000E+00 0. -1.
     999901    1    3    3    0    0 -0.11200493539E+00 -0.31357672292E-01 -0.71771376385E-01  0.89055013314E+00  0.88000000000E+00 0. -1.
        -11    1    4    4    0    0  0.13964456659E-01 -0.23251022465E-02  0.10548940304E-01  0.17662202943E-01  0.51100000000E-03 0.  1.
         11    1    4    4    0    0  0.10134879152E+00  0.21101223117E-01  0.40321360795E-01  0.11109866073E+00  0.51100000000E-03 0. -1.
</event>
<event>
 8    1  0.1061722E+005  0.1043930E+01  0.7957747E-01            NaN
         13   -1    0    0    0    0  0.00000000000E+00  0.00000000000E+00  0.74505805969E-08  0.10566000000E+00  0.10566000000E+00 0.  1.
     999900   -1    0    0    0    0 -0.00000000000E+00 -0.00000000000E+00 -0.74505805969E-08  0.93827000000E+00  0.93827000000E+00 0. -1.
     999902    2    1    2    0    0 -0.11957169405E-01  0.18481275063E-01 -0.53445799754E-02  0.10212783784E+01  0.10210271447E+01 0.  0.
     999903    2    3    3    0    0 -0.56361493759E-01  0.90905083335E-01 -0.78484718133E-01  0.13416709343E+00  0.20015139880E-01 0.  0.
         14    1    1    2    0    0  0.11957169405E-01 -0.18481275063E-01  0.53445799754E-02  0.22651621647E-01  0.00000000000E+00 0.  1.
     999901    1    3    3    0    0  0.44404324354E-01 -0.72423808272E-01  0.73140138157E-01  0.88711128492E+00  0.88000000000E+00 0.  1.
        -11    1    4    4    0    0 -0.14856573115E-01  0.18509393896E-01 -0.83731809516E-02  0.25173134635E-01  0.51100000000E-03 0. -1.
         11    1    4    4    0    0 -0.41504920644E-01  0.72395689439E-01 -0.70111537181E-01  0.10899395880E+00  0.51100000000E-03 0.  1.
</event>
<event>
 8    1  0.1061722E+005  0.1043930E+01  0.7957747E-01            NaN
         13   -1    0    0    0    0  0.00000000000E+00  0.00000000000E+00  0.74505805969E-08  0.10566000000E+00  0.10566000000E+00 0. -1.
     999900   -1    0    0    0    0 -0.00000000000E+00 -0.00000000000E+00 -0.74505805969E-08  0.93827000000E+00  0.93827000000E+00 0. -1.
     999902    2    1    2    0    0 -0.63071684345E-02 -0.21916768939E-01  0.65236712182E-02  0.10202090510E+01  0.10199332451E+01 0.  0.
     999903    2    3    3    0    0  0.26683674388E-01  0.56691750928E-01 -0.11029846335E+00  0.12840464072E+00  0.19900443189E-01 0.  0.
         14    1    1    2    0    0  0.63071684345E-02  0.21916768939E-01 -0.65236712182E-02  0.23720948980E-01  0.00000000000E+00 0. -1.
     999901    1    3    3    0    0 -0.32990842823E-01 -0.78608519866E-01  0.11682213457E+00  0.89180441030E+00  0.88000000000E+00 0.  1.
        -11    1    4    4    0    0  0.96877200526E-02  0.79215010518E-02 -0.34312532913E-01  0.36526882356E-01  0.51100000000E-03 0. -1.
         11    1    4    4    0    0  0.16995954336E-01  0.48770249876E-01 -0.75985930435E-01  0.91877758363E-01  0.51100000000E-03 0.  1.
</event>
<event>
 8    1  0.1061722E+005  0.1043930E+01  0.7957747E-01            NaN
         13   -1    0    0    0    0  0.00000000000E+00  0.00000000000E+00  0.74505805969E-08  0.10566000000E+00  0.10566000000E+00 0.  1.
     999900   -1    0    0    0    0 -0.00000000000E+00 -0.00000000000E+00 -0.74505805969E-08  0.93827000000E+00  0.93827000000E+00 0. -1.
     999902    2    1    2    0    0 -0.15581819044E-01  0.18183100973E-01  0.14007520035E-03  0.10199834373E+01  0.10197022970E+01 0.  0.
     999903    2    3    3    0    0  0.75415007365E-01 -0.67116410430E-01  0.76077954855E-01  0.12795037138E+00  0.19783994469E-01 0.  0.
         14    1    1    2    0    0  0.15581819044E-01 -0.18183100973E-01 -0.14007520035E-03  0.23946562734E-01  0.00000000000E+00 0. -1.
     999901    1    3    3    0    0 -0.90996826409E-01  0.85299511403E-01 -0.75937879655E-01  0.89203306588E+00  0.88000000000E+00 0.  1.
        -11    1    4    4    0    0  0.54420809060E-01 -0.50036116062E-01  0.65880332515E-01  0.99023818865E-01  0.51100000000E-03 0. -1.
         11    1    4    4    0    0  0.20994198306E-01 -0.17080294368E-01  0.10197622340E-01  0.28926552518E-01  0.51100000000E-03 0.  1.
</event>
<event>
 8    1  0.1061722E+005  0.1043930E+01  0.7957747E-01            NaN
         13   -1    0    0    0    0  0.00000000000E+00  0.00000000000E+00  0.74505805969E-08  0.10566000000E+00  0.10566000000E+00 0. -1.
     999900   -1    0    0    0    0 -0.00000000000E+00 -0.00000000000E+00 -0.74505805969E-08  0.93827000000E+00  0.93827000000E+00 0. -1.
     999902    2    1    2    0    0 -0.20845233089E-04  0.40146630353E-02 -0.23589267149E-01  0.10200015341E+01  0.10197208236E+01 0.  0.
     999903    2    3    3    0    0 -0.10143826208E+00  0.31594707475E-01  0.70040841290E-01  0.12881538720E+00  0.19993448355E-01 0.  0.
         14    1    1    2    0    0  0.20845233089E-04 -0.40146630353E-02  0.23589267149E-01  0.23928465861E-01  0.00000000000E+00 0. -1.
     999901    1    3    3    0    0  0.10141741684E+00 -0.27580044440E-01 -0.93630108439E-01  0.89118614694E+00  0.88000000000E+00 0. -1.
        -11    1    4    4    0    0 -0.96703120142E-01  0.27083080421E-01  0.60514484300E-01  0.11724867002E+00  0.51100000000E-03 0. -1.
         11    1    4    4    0    0 -0.47351419351E-02  0.45116270536E-02  0.95263569900E-02  0.11566717180E-01  0.51100000000E-03 0.  1.
</event>
<event>
 7    1  0.1061722E+005  0.1043930E+01  0.7957747E-01            NaN
         13   -1    0    0    0    0  0.00000000000E+00  0.00000000000E+00  0.74505805969E-08  0.10566000000E+00  0.10566000000E+00 0. -1.
     999900   -1    0    0    0    0 -0.00000000000E+00 -0.00000000000E+00 -0.74505805969E-08  0.93827000000E+00  0.93827000000E+00 0.  1.
     999903    2    1    2    0    0 -0.18317445061E-01  0.30286772127E-02  0.10900687865E+00  0.11251649307E+00  0.20802882984E-01 0.  0.
         14    1    1    2    0    0  0.41577482782E-02 -0.29287803242E-02  0.38663973891E-01  0.38997019142E-01  0.00000000000E+00 0. -1.
     999901    1    1    2    0    0  0.14159696783E-01 -0.99896888567E-04 -0.14767085254E+00  0.89241648779E+00  0.88000000000E+00 0.  1.
        -11    1    3    3    0    0 -0.61562827491E-02  0.36697569657E-02  0.87510226376E-01  0.87804713853E-01  0.51100000000E-03 0.  1.
         11    1    3    3    0    0 -0.12161162312E-01 -0.64107975297E-03  0.21496652271E-01  0.24711779213E-01  0.51100000000E-03 0. -1.
</event>
<event>
 8    1  0.1061722E+005  0.1043930E+01  0.7957747E-01            NaN
         13   -1    0    0    0    0  0.00000000000E+00  0.00000000000E+00  0.74505805969E-08  0.10566000000E+00  0.10566000000E+00 0. -1.
     999900   -1    0    0    0    0 -0.00000000000E+00 -0.00000000000E+00 -0.74505805969E-08  0.93827000000E+00  0.93827000000E+00 0. -1.
     999902    2    1    2    0    0  0.59614317878E-02  0.18593568556E-01 -0.12748433211E-01  0.10206108660E+01  0.10203444310E+01 0.  0.
     999903    2    3    3    0    0  0.33094561147E-01 -0.12376061311E+00  0.74463735801E-02  0.12852973183E+00  0.72459746417E-02 0.  0.
         14    1    1    2    0    0 -0.59614317878E-02 -0.18593568556E-01  0.12748433211E-01  0.23319133987E-01  0.00000000000E+00 0. -1.
     999901    1    3    3    0    0 -0.27133129359E-01  0.14235418167E+00 -0.20194806791E-01  0.89208113418E+00  0.88000000000E+00 0. -1.
        -11    1    4    4    0    0  0.21102454537E-01 -0.88951565561E-01  0.33641468998E-02  0.91483731935E-01  0.51100000000E-03 0. -1.
         11    1    4    4    0    0  0.11992106609E-01 -0.34809047552E-01  0.40822266803E-02  0.37045999893E-01  0.51100000000E-03 0.  1.
</event>
<event>
 8    1  0.1061722E+005  0.1043930E+01  0.7957747E-01            NaN
         13   -1    0    0    0    0  0.00000000000E+00  0.00000000000E+00  0.74505805969E-08  0.10566000000E+00  0.10566000000E+00 0.  1.
     999900   -1    0    0    0    0 -0.00000000000E+00 -0.00000000000E+00 -0.74505805969E-08  0.93827000000E+00  0.93827000000E+00 0. -1.
     999902    2    1    2    0    0 -0.12520191693E-01 -0.12493193832E-01 -0.16327456553E-01  0.10198588361E+01  0.10195747274E+01 0.  0.
     999903    2    3    3    0    0  0.42567086387E-02 -0.73707389599E-01  0.10463760402E+00  0.12931900658E+00  0.17985506348E-01 0.  0.
         14    1    1    2    0    0  0.12520191693E-01  0.12493193832E-01  0.16327456553E-01  0.24071163861E-01  0.00000000000E+00 0.  1.
     999901    1    3    3    0    0 -0.16776900332E-01  0.61214195768E-01 -0.12096506057E+00  0.89053982956E+00  0.88000000000E+00 0. -1.
        -11    1    4    4    0    0  0.73040451079E-02 -0.29004278355E-01  0.53756680797E-01  0.61519420422E-01  0.51100000000E-03 0. -1.
         11    1    4    4    0    0 -0.30473364692E-02 -0.44703111245E-01  0.50880923222E-01  0.67799586160E-01  0.51100000000E-03 0.  1.
</event>
<event>
 8    1  0.1061722E+005  0.1043930E+01  0.7957747E-01            NaN
         13   -1    0    0    0    0  0.00000000000E+00  0.00000000000E+00  0.74505805969E-08  0.10566000000E+00  0.10566000000E+00 0. -1.
     999900   -1    0    0    0    0 -0.00000000000E+00 -0.00000000000E+00 -0.74505805969E-08  0.93827000000E+00  0.93827000000E+00 0. -1.
     999902    2    1    2    0    0  0.12847232143E-01 -0.20171274074E-02  0.14270830911E-01  0.10246225716E+01  0.10244406461E+01 0.  0.
     999903    2    3    3    0    0 -0.44979738536E-01  0.10117527855E+00 -0.70407838304E-01  0.13267912708E+00  0.19669092509E-01 0.  0.
         14    1    1    2    0    0 -0.12847232143E-01  0.20171274074E-02 -0.14270830911E-01  0.19307428405E-01  0.00000000000E+00 0.  1.
     999901    1    3    3    0    0  0.57826970679E-01 -0.10319240596E+00  0.84678669215E-01  0.89194344451E+00  0.88000000000E+00 0.  1.
        -11    1    4    4    0    0 -0.26169485723E-01  0.45724421722E-01 -0.43093437980E-01  0.68065191124E-01  0.51100000000E-03 0. -1.
         11    1    4    4    0    0 -0.18810252813E-01  0.55450856831E-01 -0.27314400324E-01  0.64613935960E-01  0.51100000000E-03 0.  1.
</event>
<event>
 8    1  0.1061722E+005  0.1043930E+01  0.7957747E-01            NaN
         13   -1    0    0    0    0  0.00000000000E+00  0.00000000000E+00  0.74505805969E-08  0.10566000000E+00  0.10566000000E+00 0.  1.
     999900   -1    0    0    0    0 -0.00000000000E+00 -0.00000000000E+00 -0.74505805969E-08  0.93827000000E+00  0.93827000000E+00 0.  1.
     999902    2    1    2    0    0 -0.19078480274E-01 -0.34275999560E-03  0.94842153829E-02  0.10226214047E+01  0.10223993745E+01 0.  0.
     999903    2    3    3    0    0 -0.97705976215E-01  0.68599759749E-01 -0.56765555083E-01  0.13395702131E+00  0.21674189455E-01 0.  0.
         14    1    1    2    0    0  0.19078480274E-01  0.34275999560E-03 -0.94842153829E-02  0.21308595341E-01  0.00000000000E+00 0. -1.
     999901    1    3    3    0    0  0.78627495941E-01 -0.68942519744E-01  0.66249770466E-01  0.88866438335E+00  0.88000000000E+00 0. -1.
        -11    1    4    4    0    0 -0.79723385513E-01  0.65279321738E-01 -0.48155418589E-01  0.11373835547E+00  0.51100000000E-03 0.  1.
         11    1    4    4    0    0 -0.17982590702E-01  0.33204380107E-02 -0.86101364942E-02  0.20218665841E-01  0.51100000000E-03 0. -1.
</event>
<event>
 8    1  0.1061722E+005  0.1043930E+01  0.7957747E-01            NaN
         13   -1    0    0    0    0  0.00000000000E+00  0.00000000000E+00  0.74505805969E-08  0.10566000000E+00  0.10566000000E+00 0.  1.
     999900   -1    0    0    0    0 -0.00000000000E+00 -0.00000000000E+00 -0.74505805969E-08  0.93827000000E+00  0.93827000000E+00 0.  1.
     999902    2    1    2    0    0  0.22535763800E-01 -0.42701613471E-03  0.54879180912E-02  0.10207317191E+01  0.10204680701E+01 0.  0.
     999903    2    3    3    0    0 -0.54171314419E-01  0.54895110099E-01 -0.10159866470E+00  0.12920939759E+00  0.20610078544E-01 0.  0.
         14    1    1    2    0    0 -0.22535763800E-01  0.42701613471E-03 -0.54879180912E-02  0.23198280924E-01  0.00000000000E+00 0.  1.
     999901    1    3    3    0    0  0.76707078220E-01 -0.55322126234E-01  0.10708658279E+00  0.89152232149E+00  0.88000000000E+00 0. -1.
        -11    1    4    4    0    0 -0.45181291144E-01  0.33154218478E-01 -0.76132957905E-01  0.94535917368E-01  0.51100000000E-03 0.  1.
         11    1    4    4    0    0 -0.89900232756E-02  0.21740891622E-01 -0.25465706793E-01  0.34673480219E-01  0.51100000000E-03 0. -1.
</event>
<event>
 8    1  0.1061722E+005  0.1043930E+01  0.7957747E-01            NaN
         13   -1    0    0    0    0  0.00000000000E+00  0.00000000000E+00  0.74505805969E-08  0.10566000000E+00  0.10566000000E+00 0. -1.
     999900   -1    0    0    0    0 -0.00000000000E+00 -0.00000000000E+00 -0.74505805969E-08  0.93827000000E+00  0.93827000000E+00 0. -1.
     999902    2    1    2    0    0  0.81098175735E-02 -0.12267091547E-01  0.15482931167E-01  0.10225765030E+01  0.10223535263E+01 0.  0.
     999903    2    3    3    0    0  0.89771728677E-01 -0.39473019720E-01  0.90738021649E-01  0.13518022237E+00  0.20572345311E-01 0.  0.
         14    1    1    2    0    0 -0.81098175735E-02  0.12267091547E-01 -0.15482931167E-01  0.21353496988E-01  0.00000000000E+00 0. -1.
     999901    1    3    3    0    0 -0.81661911104E-01  0.27205928173E-01 -0.75255090482E-01  0.88739628064E+00  0.88000000000E+00 0. -1.
        -11    1    4    4    0    0  0.75756450638E-01 -0.36529791501E-01  0.85471776767E-01  0.11991309864E+00  0.51100000000E-03 0.  1.
         11    1    4    4    0    0  0.14015278040E-01 -0.29432282196E-02  0.52662448827E-02  0.15267123732E-01  0.51100000000E-03 0. -1.
</event>
<event>
 8    1  0.1061722E+005  0.1043930E+01  0.7957747E-01            NaN
         13   -1    0    0    0    0  0.00000000000E+00  0.00000000000E+00  0.74505805969E-08  0.10566000000E+00  0.10566000000E+00 0. -1.
     999900   -1    0    0    0    0 -0.00000000000E+00 -0.00000000000E+00 -0.74505805969E-08  0.93827000000E+00  0.93827000000E+00 0. -1.
     999902    2    1    2    0    0  0.18831578440E-01  0.14999225050E-01  0.66475712700E-02  0.10189541056E+01  0.10186479637E+01 0.  0.
     999903    2    3    3    0    0 -0.86177998618E-01  0.93841863300E-01 -0.40301729162E-02  0.12914671793E+00  0.20728958131E-01 0.  0.
         14    1    1    2    0    0 -0.18831578440E-01 -0.14999225050E-01 -0.66475712700E-02  0.24975894427E-01  0.00000000000E+00 0. -1.
     999901    1    3    3    0    0  0.10500957706E+00 -0.78842638251E-01  0.10677744186E-01  0.88980738764E+00  0.88000000000E+00 0. -1.
        -11    1    4    4    0    0 -0.18192406810E-01  0.33748793763E-01 -0.86564291237E-03  0.38353033839E-01  0.51100000000E-03 0.  1.
         11    1    4    4    0    0 -0.67985591808E-01  0.60093069537E-01 -0.31645300039E-02  0.90793684092E-01  0.51100000000E-03 0. -1.
</event>
<event>
 8    1  0.1061722E+005  0.1043930E+01  0.7957747E-01            NaN
         13   -1    0    0    0    0  0.00000000000E+00  0.00000000000E+00  0.74505805969E-08  0.10566000000E+00  0.10566000000E+00 0.  1.
     999900   -1    0    0    0    0 -0.00000000000E+00 -0.00000000000E+00 -0.74505805969E-08  0.93827000000E+00  0.93827000000E+00 0. -1.
     999902    2    1    2    0    0  0.17382612202E-02  0.88171749456E-02 -0.34290956329E-01  0.10084809688E+01  0.10078577433E+01 0.  0.
     999903    2    3    3    0    0  0.94932044913E-01 -0.63688072649E-01 -0.32689201577E-01  0.12059321810E+00  0.20146379399E-01 0.  0.
         14    1    1    2    0    0 -0.17382612202E-02 -0.88171749456E-02  0.34290956329E-01  0.35449031186E-01  0.00000000000E+00 0.  1.
     999901    1    3    3    0    0 -0.93193783693E-01  0.72505247595E-01 -0.16017547517E-02  0.88788775071E+00  0.88000000000E+00 0. -1.
        -11    1    4    4    0    0  0.89149476651E-01 -0.55412094628E-01 -0.25033008585E-01  0.10791219606E+00  0.51100000000E-03 0.  1.
         11    1    4    4    0    0  0.57825682623E-02 -0.82759780216E-02 -0.76561929918E-02  0.12681022043E-01  0.51100000000E-03 0. -1.
</event>
<event>
 8    1  0.1061722E+005  0.1043930E+01  0.7957747E-01            NaN
         13   -1    0    0    0    0  0.00000000000E+00  0.00000000000E+00  0.74505805969E-08  0.10566000000E+00  0.10566000000E+00 0. -1.
     999900   -1    0    0    0    0 -0.00000000000E+00 -0.00000000000E+00 -0.74505805969E-08  0.93827000000E+00  0.93827000000E+00 0.  1.
     999902    2    1    2    0    0 -0.62236644001E-02 -0.21883462719E-01 -0.58221589110E-02  0.10204455908E+01  0.10201753214E+01 0.  0.
     999903    2    3    3    0    0 -0.11986375234E+00  0.38639944404E-02  0.48732988424E-01  0.13109005719E+00  0.20674848363E-01 0.  0.
         14    1    1    2    0    0  0.62236644001E-02  0.21883462719E-01  0.58221589110E-02  0.23484409158E-01  0.00000000000E+00 0. -1.
     999901    1    3    3    0    0  0.11364008794E+00 -0.25747457159E-01 -0.54555147335E-01  0.88935553365E+00  0.88000000000E+00 0.  1.
        -11    1    4    4    0    0 -0.96918061406E-01  0.10606014727E-01  0.42579123738E-01  0.10639004218E+00  0.51100000000E-03 0.  1.
         11    1    4    4    0    0 -0.22945690935E-01 -0.67420202870E-02  0.61538646856E-02  0.24700015012E-01  0.51100000000E-03 0. -1.
</event>
<event>
 8    1  0.1061722E+005  0.1043930E+01  0.7957747E-01            NaN
         13   -1    0    0    0    0  0.00000000000E+00  0.00000000000E+00  0.74505805969E-08  0.10566000000E+00  0.10566000000E+00 0. -1.
     999900   -1    0    0    0    0 -0.00000000000E+00 -0.00000000000E+00 -0.74505805969E-08  0.93827000000E+00  0.93827000000E+00 0.  1.
     999902    2    1    2    0    0  0.95344008270E-02  0.15796450427E-02  0.17655518515E-01  0.10238024713E+01  0.10236046028E+01 0.  0.
     999903    2    3    3    0    0  0.10859501931E+00 -0.62206853576E-01  0.48751097749E-01  0.13540579268E+00  0.17189773355E-01 0.  0.
         14    1    1    2    0    0 -0.95344008270E-02 -0.15796450427E-02 -0.17655518515E-01  0.20127528701E-01  0.00000000000E+00 0.  1.
     999901    1    3    3    0    0 -0.99060618482E-01  0.63786498619E-01 -0.31095579234E-01  0.88839667862E+00  0.88000000000E+00 0.  1.
        -11    1    4    4    0    0  0.24149809048E-01 -0.21242773863E-01  0.84303085937E-02  0.33253570371E-01  0.51100000000E-03 0. -1.
         11    1    4    4    0    0  0.84445210261E-01 -0.40964079713E-01  0.40320789155E-01  0.10215222230E+00  0.51100000000E-03 0.  1.
</event>
<event>
 8    1  0.1061722E+005  0.1043930E+01  0.7957747E-01            NaN
         13   -1    0    0    0    0  0.00000000000E+00  0.00000000000E+00  0.74505805969E-08  0.10566000000E+00  0.10566000000E+00 0.  1.
     999900   -1    0    0    0    0 -0.00000000000E+00 -0.00000000000E+00 -0.74505805969E-08  0.93827000000E+00  0.93827000000E+00 0. -1.
     999902    2    1    2    0    0  0.14325824069E-01  0.16760838953E-01 -0.49038678258E-02  0.10213423291E+01  0.10210925278E+01 0.  0.
     999903    2    3    3    0    0  0.74501074795E-01 -0.39389148715E-01  0.98722620752E-01  0.13144776733E+00  0.20747156547E-01 0.  0.
         14    1    1    2    0    0 -0.14325824069E-01 -0.16760838953E-01  0.49038678258E-02  0.22587670914E-01  0.00000000000E+00 0.  1.
     999901    1    3    3    0    0 -0.60175250725E-01  0.56149987668E-01 -0.10362648858E+00  0.88989456176E+00  0.88000000000E+00 0.  1.
        -11    1    4    4    0    0  0.33732240065E-01 -0.64393860603E-02  0.37629356784E-01  0.50946632132E-01  0.51100000000E-03 0. -1.
         11    1    4    4    0    0  0.40768834730E-01 -0.32949762655E-01  0.61093263968E-01  0.80501135194E-01  0.51100000000E-03 0.  1.
</event>
<event>
 8    1  0.1061722E+005  0.1043930E+01  0.7957747E-01            NaN
         13   -1    0    0    0    0  0.00000000000E+00  0.00000000000E+00  0.74505805969E-08  0.10566000000E+00  0.10566000000E+00 0. -1.
     999900   -1    0    0    0    0 -0.00000000000E+00 -0.00000000000E+00 -0.74505805969E-08  0.93827000000E+00  0.93827000000E+00 0. -1.
     999902    2    1    2    0    0 -0.19248147147E-01  0.14427242451E-01  0.98741055800E-03  0.10198548785E+01  0.10195706752E+01 0.  0.
     999903    2    3    3    0    0  0.24290695503E-01  0.27685480887E-01 -0.12316121055E+00  0.12997607117E+00  0.19198217419E-01 0.  0.
         14    1    1    2    0    0  0.19248147147E-01 -0.14427242451E-01 -0.98741055800E-03  0.24075121453E-01  0.00000000000E+00 0.  1.
     999901    1    3    3    0    0 -0.43538842651E-01 -0.13258238436E-01  0.12414862111E+00  0.88987880738E+00  0.88000000000E+00 0.  1.
        -11    1    4    4    0    0  0.15510325494E-01  0.27956923579E-01 -0.85047421089E-01  0.90859698040E-01  0.51100000000E-03 0. -1.
         11    1    4    4    0    0  0.87803700091E-02 -0.27144269200E-03 -0.38113789458E-01  0.39116373125E-01  0.51100000000E-03 0.  1.
</event>
<event>
 8    1  0.1061722E+005  0.1043930E+01  0.7957747E-01            NaN
         13   -1    0    0    0    0  0.00000000000E+00  0.00000000000E+00  0.74505805969E-08  0.10566000000E+00  0.10566000000E+00 0. -1.
     999900   -1    0    0    0    0 -0.00000000000E+00 -0.00000000000E+00 -0.74505805969E-08  0.93827000000E+00  0.93827000000E+00 0. -1.
     999902    2    1    2    0    0  0.44691927760E-02 -0.20787617069E-01  0.12381481370E-01  0.10193251267E+01  0.10190281224E+01 0.  0.
     999903    2    3    3    0    0 -0.69832896519E-01 -0.93627578670E-01 -0.53017767782E-01  0.13078501944E+00  0.25516282761E-01 0.  0.
         14    1    1    2    0    0 -0.44691927760E-02  0.20787617069E-01 -0.12381481370E-01  0.24604873265E-01  0.00000000000E+00 0.  1.
     999901    1    3    3    0    0  0.74302089295E-01  0.72839961601E-01  0.65399249152E-01  0.88854010729E+00  0.88000000000E+00 0.  1.
        -11    1    4    4    0    0 -0.13729031117E-01 -0.30127435506E-01 -0.25162892529E-01  0.41588230872E-01  0.51100000000E-03 0.  1.
         11    1    4    4    0    0 -0.56103865402E-01 -0.63500143164E-01 -0.27854875253E-01  0.89196788570E-01  0.51100000000E-03 0. -1.
</event>
<event>
 8    1  0.1061722E+005  0.1043930E+01  0.7957747E-01            NaN
         13   -1    0    0    0    0  0.00000000000E+00  0.00000000000E+00  0.74505805969E-08  0.10566000000E+00  0.10566000000E+00 0.  1.
     999900   -1    0    0    0    0 -0.00000000000E+00 -0.00000000000E+00 -0.74505805969E-08  0.93827000000E+00  0.93827000000E+00 0.  1.
     999902    2    1    2    0    0  0.11377793772E-01 -0.65359495298E-02  0.29755381371E-01  0.10114099209E+01  0.10108869731E+01 0.  0.
     999903    2    3    3    0    0 -0.33731957610E-01 -0.68635166050E-01  0.97344343308E-01  0.12548697266E+00  0.20553056934E-01 0.  0.
         14    1    1    2    0    0 -0.11377793772E-01  0.65359495298E-02 -0.29755381371E-01  0.32520079150E-01  0.00000000000E+00 0. -1.
     999901    1    3    3    0    0  0.45109751382E-01  0.62099216520E-01 -0.67588961937E-01  0.88592294819E+00  0.88000000000E+00 0.  1.
        -11    1    4    4    0    0 -0.21927036073E-01 -0.24097320462E-01  0.47555091218E-01  0.57647407453E-01  0.51100000000E-03 0.  1.
         11    1    4    4    0    0 -0.11804921537E-01 -0.44537845588E-01  0.49789252090E-01  0.67839565202E-01  0.51100000000E-03 0. -1.
</event>
<event>
 8    1  0.1061722E+005  0.1043930E+01  0.7957747E-01            NaN
         13   -1    0    0    0    0  0.00000000000E+00  0.00000000000E+00  0.74505805969E-08  0.10566000000E+00  0.10566000000E+00 0. -1.
     999900   -1    0    0    0    0 -0.00000000000E+00 -0.00000000000E+00 -0.74505805969E-08  0.93827000000E+00  0.93827000000E+00 0.  1.
     999902    2    1    2    0    0  0.11185558267E-01  0.17543123845E-01  0.11194096459E-01  0.10203040460E+01  0.10200304704E+01 0.  0.
     999903    2    3    3    0    0 -0.34111311281E-01 -0.11478185940E+00  0.43389042045E-01  0.12867731797E+00  0.18351740669E-01 0.  0.
         14    1    1    2    0    0 -0.11185558267E-01 -0.17543123845E-01 -0.11194096459E-01  0.23625954023E-01  0.00000000000E+00 0.  1.
     999901    1    3    3    0    0  0.45296869547E-01  0.13232498324E+00 -0.32194945586E-01  0.89162672801E+00  0.88000000000E+00 0. -1.
        -11    1    4    4    0    0 -0.13183763459E-01 -0.49644863514E-01  0.91744926195E-02  0.52180997769E-01  0.51100000000E-03 0. -1.
         11    1    4    4    0    0 -0.20927547821E-01 -0.65136995883E-01  0.34214549426E-01  0.76496320198E-01  0.51100000000E-03 0.  1.
</event>
<event>
 8    1  0.1061722E+005  0.1043930E+01  0.7957747E-01            NaN
         13   -1    0    0    0    0  0.00000000000E+00  0.00000000000E+00  0.74505805969E-08  0.10566000000E+00  0.10566000000E+00 0.  1.
     999900   -1    0    0    0    0 -0.00000000000E+00 -0.00000000000E+00 -0.74505805969E-08  0.93827000000E+00  0.93827000000E+00 0. -1.
     999902    2    1    2    0    0  0.12237511810E-01  0.12917692191E-01 -0.14799714905E-01  0.10207857777E+01  0.10205233701E+01 0.  0.
     999903    2    3    3    0    0  0.71618976349E-01  0.79035730872E-02  0.10695857629E+00  0.13040586930E+00  0.19334152816E-01 0.  0.
         14    1    1    2    0    0 -0.12237511810E-01 -0.12917692191E-01  0.14799714905E-01  0.23144222348E-01  0.00000000000E+00 0.  1.
     999901    1    3    3    0    0 -0.59381464540E-01  0.50141191035E-02 -0.12175829120E+00  0.89037990835E+00  0.88000000000E+00 0. -1.
        -11    1    4    4    0    0  0.39041220928E-01  0.12698732650E-01  0.50969537377E-01  0.65449443114E-01  0.51100000000E-03 0.  1.
         11    1    4    4    0    0  0.32577755421E-01 -0.47951595630E-02  0.55989038913E-01  0.64956426187E-01  0.51100000000E-03 0. -1.
</event>
<event>
 8    1  0.1061722E+005  0.1043930E+01  0.7957747E-01            NaN
         13   -1    0    0    0    0  0.00000000000E+00  0.00000000000E+00  0.74505805969E-08  0.10566000000E+00  0.10566000000E+00 0. -1.
     999900   -1    0    0    0    0 -0.00000000000E+00 -0.00000000000E+00 -0.74505805969E-08  0.93827000000E+00  0.93827000000E+00 0. -1.
     999902    2    1    2    0    0  0.46552029343E-02 -0.86868215467E-02 -0.21586184173E-01  0.10202003744E+01  0.10199243643E+01 0.  0.
     999903    2    3    3    0    0 -0.94849173934E-01  0.83247444682E-01  0.17803880071E-01  0.12896269149E+00  0.19695045255E-01 0.  0.
         14    1    1    2    0    0 -0.46552029343E-02  0.86868215467E-02  0.21586184173E-01  0.23729625579E-01  0.00000000000E+00 0. -1.
     999901    1    3    3    0    0  0.99504376868E-01 -0.91934266229E-01 -0.39390064245E-01  0.89123768294E+00  0.88000000000E+00 0. -1.
        -11    1    4    4    0    0 -0.22609862019E-01  0.12538901296E-01  0.94497148361E-02  0.27531584366E-01  0.51100000000E-03 0. -1.
         11    1    4    4    0    0 -0.72239311915E-01  0.70708543386E-01  0.83541652353E-02  0.10143110712E+00  0.51100000000E-03 0.  1.
</event>
<event>
 8    1  0.1061722E+005  0.1043930E+01  0.7957747E-01            NaN
         13   -1    0    0    0    0  0.00000000000E+00  0.00000000000E+00  0.74505805969E-08  0.10566000000E+00  0.10566000000E+00 0. -1.
     999900   -1    0    0    0    0 -0.00000000000E+00 -0.00000000000E+00 -0.74505805969E-08  0.93827000000E+00  0.93827000000E+00 0. -1.
     999902    2    1    2    0    0  0.93123530705E-02  0.23786593835E-02 -0.22008330165E-01  0.10199144938E+01  0.10196317130E+01 0.  0.
     999903    2    3    3    0    0  0.11796528482E+00 -0.32144138906E-01  0.40520319001E-01  0.13036004628E+00  0.20069661805E-01 0.  0.
         14    1    1    2    0    0 -0.93123530705E-02 -0.23786593835E-02  0.22008330165E-01  0.24015506175E-01  0.00000000000E+00 0. -1.
     999901    1    3    3    0    0 -0.10865293175E+00  0.34522798290E-01 -0.62528649166E-01  0.88955444754E+00  0.88000000000E+00 0.  1.
        -11    1    4    4    0    0  0.24226258897E-01 -0.24972150966E-02  0.94899074460E-03  0.24378461966E-01  0.51100000000E-03 0. -1.
         11    1    4    4    0    0  0.93739025926E-01 -0.29646923809E-01  0.39571328256E-01  0.10598158431E+00  0.51100000000E-03 0.  1.
</event>
<event>
 8    1  0.1061722E+005  0.1043930E+01  0.7957747E-01            NaN
         13   -1    0    0    0    0  0.00000000000E+00  0.00000000000E+00  0.74505805969E-08  0.10566000000E+00  0.10566000000E+00 0.  1.
     999900   -1    0    0    0    0 -0.00000000000E+00 -0.00000000000E+00 -0.74505805969E-08  0.93827000000E+00  0.93827000000E+00 0. -1.
     999902    2    1    2    0    0  0.78204457285E-02  0.38412510188E-02  0.21933855106E-01  0.10203289708E+01  0.10200559789E+01 0.  0.
     999903    2    3    3    0    0 -0.67538944776E-01  0.94296238850E-01  0.59180963004E-01  0.13170729109E+00  0.19777118617E-01 0.  0.
         14    1    1    2    0    0 -0.78204457285E-02 -0.38412510188E-02 -0.21933855106E-01  0.23601029227E-01  0.00000000000E+00 0. -1.
     999901    1    3    3    0    0  0.75359390504E-01 -0.90454987831E-01 -0.37247107898E-01  0.88862167969E+00  0.88000000000E+00 0. -1.
        -11    1    4    4    0    0 -0.50230524048E-01  0.59078197113E-01  0.31593207814E-01  0.83736078373E-01  0.51100000000E-03 0. -1.
         11    1    4    4    0    0 -0.17308420728E-01  0.35218041736E-01  0.27587755190E-01  0.47971212714E-01  0.51100000000E-03 0.  1.
</event>
<event>
 8    1  0.1061722E+005  0.1043930E+01  0.7957747E-01            NaN
         13   -1    0    0    0    0  0.00000000000E+00  0.00000000000E+00  0.74505805969E-08  0.10566000000E+00  0.10566000000E+00 0.  1.
     999900   -1    0    0    0    0 -0.00000000000E+00 -0.00000000000E+00 -0.74505805969E-08  0.93827000000E+00  0.93827000000E+00 0. -1.
     999902    2    1    2    0    0 -0.21927086782E-01 -0.45447133798E-02 -0.26813246481E-02  0.10213769280E+01  0.10211278999E+01 0.  0.
     999903    2    3    3    0    0 -0.35602767048E-01 -0.53515120465E-01 -0.11455153232E+00  0.13283876430E+00  0.19815615123E-01 0.  0.
         14    1    1    2    0    0  0.21927086782E-01  0.45447133798E-02  0.26813246481E-02  0.22553071993E-01  0.00000000000E+00 0. -1.
     999901    1    3    3    0    0  0.13675680265E-01  0.48970407085E-01  0.11187020768E+00  0.88853816371E+00  0.88000000000E+00 0.  1.
        -11    1    4    4    0    0 -0.10762747683E-01 -0.23166356164E-01 -0.63596059639E-01  0.68536389738E-01  0.51100000000E-03 0. -1.
         11    1    4    4    0    0 -0.24840019365E-01 -0.30348764301E-01 -0.50955472684E-01  0.64302374561E-01  0.51100000000E-03 0.  1.
</event>
<event>
 8    1  0.1061722E+005  0.1043930E+01  0.7957747E-01            NaN
         13   -1    0    0    0    0  0.00000000000E+00  0.00000000000E+00  0.74505805969E-08  0.10566000000E+00  0.10566000000E+00 0.  1.
     999900   -1    0    0    0    0 -0.00000000000E+00 -0.00000000000E+00 -0.74505805969E-08  0.93827000000E+00  0.93827000000E+00 0.  1.
     999902    2    1    2    0    0 -0.29278774051E-02 -0.22577859068E-01  0.68392249955E-02  0.10201580168E+01  0.10198810088E+01 0.  0.
     999903    2    3    3    0    0 -0.10782906744E+00  0.41836747585E-01  0.56450081377E-01  0.13020591794E+00  0.19736974046E-01 0.  0.
         14    1    1    2    0    0  0.29278774051E-02  0.22577859068E-01 -0.68392249955E-02  0.23771983189E-01  0.00000000000E+00 0.  1.
     999901    1    3    3    0    0  0.10490119004E+00 -0.64414606653E-01 -0.49610856381E-01  0.88995209887E+00  0.88000000000E+00 0. -1.
        -11    1    4    4    0    0 -0.44347804413E-01  0.13280288882E-01  0.32602163723E-01  0.56623811506E-01  0.51100000000E-03 0. -1.
         11    1    4    4    0    0 -0.63481263028E-01  0.28556458703E-01  0.23847917653E-01  0.73582106430E-01  0.51100000000E-03 0.  1.
</event>
<event>
 8    1  0.1061722E+005  0.1043930E+01  0.7957747E-01            NaN
         13   -1    0    0    0    0  0.00000000000E+00  0.00000000000E+00  0.74505805969E-08  0.10566000000E+00  0.10566000000E+00 0. -1.
     999900   -1    0    0    0    0 -0.00000000000E+00 -0.00000000000E+00 -0.74505805969E-08  0.93827000000E+00  0.93827000000E+00 0.  1.
     999902    2    1    2    0    0  0.15890501671E-01  0.14464022991E-01  0.10522843629E-01  0.10200041512E+01  0.10197235028E+01 0.  0.
     999903    2    3    3    0    0  0.43925990321E-01  0.57210305374E-01  0.11033746181E+00  0.13288736557E+00  0.16798356577E-01 0.  0.
         14    1    1    2    0    0 -0.15890501671E-01 -0.14464022991E-01 -0.10522843629E-01  0.23925848835E-01  0.00000000000E+00 0. -1.
     999901    1    3    3    0    0 -0.28035488650E-01 -0.42746282383E-01 -0.99814618177E-01  0.88711678559E+00  0.88000000000E+00 0.  1.
        -11    1    4    4    0    0  0.23863603505E-01  0.43845736019E-01  0.76017434154E-01  0.90944112265E-01  0.51100000000E-03 0.  1.
         11    1    4    4    0    0  0.20062386816E-01  0.13364569356E-01  0.34320027653E-01  0.41943253306E-01  0.51100000000E-03 0. -1.
</event>
<event>
 8    1  0.1061722E+005  0.1043930E+01  0.7957747E-01            NaN
         13   -1    0    0    0    0  0.00000000000E+00  0.00000000000E+00  0.74505805969E-08  0.10566000000E+00  0.10566000000E+00 0.  1.
     999900   -1    0    0    0    0 -0.00000000000E+00 -0.00000000000E+00 -0.74505805969E-08  0.93827000000E+00  0.93827000000E+00 0. -1.
     999902    2    1    2    0    0  0.45409644213E-02 -0.38012001104E-02 -0.23051170963E-01  0.10201302949E+01  0.10198526328E+01 0.  0.
     999903    2    3    3    0    0  0.25202083344E-02  0.44162962710E-01  0.11794225749E+00  0.12761486577E+00  0.20456273778E-01 0.  0.
         14    1    1    2    0    0 -0.45409644213E-02  0.38012001104E-02  0.23051170963E-01  0.23799705102E-01  0.00000000000E+00 0.  1.
     999901    1    3    3    0    0  0.20207560869E-02 -0.47964162820E-01 -0.14099342846E+00  0.89251542913E+00  0.88000000000E+00 0. -1.
        -11    1    4    4    0    0  0.42316410829E-02  0.34426056458E-01  0.64237203686E-01  0.73005065632E-01  0.51100000000E-03 0. -1.
         11    1    4    4    0    0 -0.17114327485E-02  0.97369062513E-02  0.53705053806E-01  0.54609800134E-01  0.51100000000E-03 0.  1.
</event>
<event>
 8    1  0.1061722E+005  0.1043930E+01  0.7957747E-01            NaN
         13   -1    0    0    0    0  0.00000000000E+00  0.00000000000E+00  0.74505805969E-08  0.10566000000E+00  0.10566000000E+00 0.  1.
     999900   -1    0    0    0    0 -0.00000000000E+00 -0.00000000000E+00 -0.74505805969E-08  0.93827000000E+00  0.93827000000E+00 0. -1.
     999902    2    1    2    0    0 -0.20841036226E-01 -0.24945680870E-02 -0.11714674437E-01  0.10198924199E+01  0.10196091128E+01 0.  0.
     999903    2    3    3    0    0  0.12433736751E+00 -0.21005925756E-01 -0.55933551153E-04  0.12772911335E+00  0.20339454076E-01 0.  0.
         14    1    1    2    0    0  0.20841036226E-01  0.24945680870E-02  0.11714674437E-01  0.24037580121E-01  0.00000000000E+00 0.  1.
     999901    1    3    3    0    0 -0.14517840374E+00  0.18511357669E-01 -0.11658740886E-01  0.89216330653E+00  0.88000000000E+00 0.  1.
        -11    1    4    4    0    0  0.80311567021E-01 -0.22556499292E-01  0.37809572494E-02  0.83506288484E-01  0.51100000000E-03 0. -1.
         11    1    4    4    0    0  0.44025800492E-01  0.15505735358E-02 -0.38368908006E-02  0.44222824868E-01  0.51100000000E-03 0.  1.
</event>
<event>
 8    1  0.1061722E+005  0.1043930E+01  0.7957747E-01            NaN
         13   -1    0    0    0    0  0.00000000000E+00  0.00000000000E+00  0.74505805969E-08  0.10566000000E+00  0.10566000000E+00 0. -1.
     999900   -1    0    0    0    0 -0.00000000000E+00 -0.00000000000E+00 -0.74505805969E-08  0.93827000000E+00  0.93827000000E+00 0. -1.
     999902    2    1    2    0    0  0.15685882329E-01  0.10240448182E-02 -0.17162930151E-01  0.10206563724E+01  0.10203909881E+01 0.  0.
     999903    2    3    3    0    0  0.41828969344E-01  0.11115117415E+00  0.51210399370E-01  0.13077640416E+00  0.19383412781E-01 0.  0.
         14    1    1    2    0    0 -0.15685882329E-01 -0.10240448182E-02  0.17162930151E-01  0.23273627641E-01  0.00000000000E+00 0. -1.
     999901    1    3    3    0    0 -0.26143087015E-01 -0.11012712933E+00 -0.68373329520E-01  0.88987996820E+00  0.88000000000E+00 0. -1.
        -11    1    4    4    0    0  0.31618265010E-01  0.59191632674E-01  0.24279640103E-01  0.71366141169E-01  0.51100000000E-03 0. -1.
         11    1    4    4    0    0  0.10210704334E-01  0.51959541472E-01  0.26930759267E-01  0.59410262991E-01  0.51100000000E-03 0.  1.
</event>
<event>
 8    1  0.1061722E+005  0.1043930E+01  0.7957747E-01            NaN
         13   -1    0    0    0    0  0.00000000000E+00  0.00000000000E+00  0.74505805969E-08  0.10566000000E+00  0.10566000000E+00 0. -1.
     999900   -1    0    0    0    0 -0.00000000000E+00 -0.00000000000E+00 -0.74505805969E-08  0.93827000000E+00  0.93827000000E+00 0.  1.
     999902    2    1    2    0    0  0.10450305363E-01  0.21483978278E-01  0.31970566242E-02  0.10198262373E+01  0.10195413493E+01 0.  0.
     999903    2    3    3    0    0 -0.27709530623E-01 -0.93132948024E-01  0.81280903143E-01  0.12814787603E+00  0.19332067176E-01 0.  0.
         14    1    1    2    0    0 -0.10450305363E-01 -0.21483978278E-01 -0.31970566242E-02  0.24103762692E-01  0.00000000000E+00 0. -1.
     999901    1    3    3    0    0  0.38159835985E-01  0.11461692630E+00 -0.78083846519E-01  0.89167836127E+00  0.88000000000E+00 0. -1.
        -11    1    4    4    0    0 -0.65007265821E-02 -0.49664864210E-01  0.34231766432E-01  0.60670694220E-01  0.51100000000E-03 0. -1.
         11    1    4    4    0    0 -0.21208804040E-01 -0.43468083814E-01  0.47049136711E-01  0.67477181814E-01  0.51100000000E-03 0.  1.
</event>
<event>
 8    1  0.1061722E+005  0.1043930E+01  0.7957747E-01            NaN
         13   -1    0    0    0    0  0.00000000000E+00  0.00000000000E+00  0.74505805969E-08  0.10566000000E+00  0.10566000000E+00 0.  1.
     999900   -1    0    0    0    0 -0.00000000000E+00 -0.00000000000E+00 -0.74505805969E-08  0.93827000000E+00  0.93827000000E+00 0.  1.
     999902    2    1    2    0    0 -0.41323995861E-02  0.22220208316E-01  0.20364274051E-01  0.10135076720E+01  0.10130509776E+01 0.  0.
     999903    2    3    3    0    0 -0.11063090040E+00  0.35585935637E-01  0.46187350744E-01  0.12661004282E+00  0.19780713682E-01 0.  0.
         14    1    1    2    0    0  0.41323995861E-02 -0.22220208316E-01 -0.20364274051E-01  0.30422328010E-01  0.00000000000E+00 0. -1.
     999901    1    3    3    0    0  0.10649850082E+00 -0.13365727321E-01 -0.25823076693E-01  0.88689762917E+00  0.88000000000E+00 0. -1.
        -11    1    4    4    0    0 -0.52803439101E-01  0.14354401123E-01  0.32006147835E-01  0.63394847052E-01  0.51100000000E-03 0. -1.
         11    1    4    4    0    0 -0.57827461303E-01  0.21231534514E-01  0.14181202909E-01  0.63215195764E-01  0.51100000000E-03 0.  1.
</event>
<event>
 7    1  0.1061722E+005  0.1043930E+01  0.7957747E-01            NaN
         13   -1    0    0    0    0  0.00000000000E+00  0.00000000000E+00  0.74505805969E-08  0.10566000000E+00  0.10566000000E+00 0. -1.
     999900   -1    0    0    0    0 -0.00000000000E+00 -0.00000000000E+00 -0.74505805969E-08  0.93827000000E+00  0.93827000000E+00 0.  1.
     999902    2    1    2    0    0  0.19483562349E-01  0.37060871605E-02  0.11265045616E-01  0.10211211084E+01  0.10208663343E+01 0.  0.
         14    1    1    2    0    0 -0.19483562349E-01 -0.37060871605E-02 -0.11265045616E-01  0.22808891612E-01  0.00000000000E+00 0. -1.
     999901    1    3    3    0    0  0.37565098723E-01  0.57705765910E-01 -0.97906643299E-01  0.88810292358E+00  0.88000000000E+00 0.  1.
        -11    1    3    3    0    0 -0.26137761561E-01 -0.15365729654E-01  0.74681913261E-01  0.80603582529E-01  0.51100000000E-03 0.  1.
         11    1    3    3    0    0  0.80562251867E-02 -0.38633949095E-01  0.34489775654E-01  0.52414602284E-01  0.51100000000E-03 0. -1.
</event>
<event>
 8    1  0.1061722E+005  0.1043930E+01  0.7957747E-01            NaN
         13   -1    0    0    0    0  0.00000000000E+00  0.00000000000E+00  0.74505805969E-08  0.10566000000E+00  0.10566000000E+00 0.  1.
     999900   -1    0    0    0    0 -0.00000000000E+00 -0.00000000000E+00 -0.74505805969E-08  0.93827000000E+00  0.93827000000E+00 0. -1.
     999902    2    1    2    0    0 -0.22959877617E-01 -0.11244116687E-01  0.53952222909E-03  0.10183589769E+01  0.10180378817E+01 0.  0.
     999903    2    3    3    0    0 -0.76563305736E-01  0.79420999030E-01  0.67140544198E-01  0.12957937153E+00  0.10645467579E-01 0.  0.
         14    1    1    2    0    0  0.22959877617E-01  0.11244116687E-01 -0.53952222909E-03  0.25571023141E-01  0.00000000000E+00 0. -1.
     999901    1    3    3    0    0  0.53603428119E-01 -0.90665115716E-01 -0.66601021969E-01  0.88877960532E+00  0.88000000000E+00 0.  1.
        -11    1    4    4    0    0 -0.39192388555E-01  0.40098355490E-01  0.40296979469E-01  0.69050916785E-01  0.51100000000E-03 0.  1.
         11    1    4    4    0    0 -0.37370917181E-01  0.39322643540E-01  0.26843564729E-01  0.60528454749E-01  0.51100000000E-03 0. -1.
</event>
<event>
 8    1  0.1061722E+005  0.1043930E+01  0.7957747E-01            NaN
         13   -1    0    0    0    0  0.00000000000E+00  0.00000000000E+00  0.74505805969E-08  0.10566000000E+00  0.10566000000E+00 0.  1.
     999900   -1    0    0    0    0 -0.00000000000E+00 -0.00000000000E+00 -0.74505805969E-08  0.93827000000E+00  0.93827000000E+00 0. -1.
     999902    2    1    2    0    0  0.62830404695E-02  0.18833807485E-01 -0.14424350974E-01  0.10193892013E+01  0.10190937606E+01 0.  0.
     999903    2    3    3    0    0 -0.32274357618E-01  0.12621919063E+00  0.59218820580E-02  0.13179004473E+00  0.18990233309E-01 0.  0.
         14    1    1    2    0    0 -0.62830404695E-02 -0.18833807485E-01  0.14424350974E-01  0.24540798743E-01  0.00000000000E+00 0.  1.
     999901    1    3    3    0    0  0.38557398087E-01 -0.10738538315E+00 -0.20346233032E-01  0.88759915652E+00  0.88000000000E+00 0.  1.
        -11    1    4    4    0    0 -0.21711303547E-01  0.10606493445E+00  0.97750045430E-02  0.10870585475E+00  0.51100000000E-03 0. -1.
         11    1    4    4    0    0 -0.10563054071E-01  0.20154256178E-01 -0.38531224850E-02  0.23084189986E-01  0.51100000000E-03 0.  1.
</event>
<event>
 8    1  0.1061722E+005  0.1043930E+01  0.7957747E-01            NaN
         13   -1    0    0    0    0  0.00000000000E+00  0.00000000000E+00  0.74505805969E-08  0.10566000000E+00  0.10566000000E+00 0. -1.
     999900   -1    0    0    0    0 -0.00000000000E+00 -0.00000000000E+00 -0.74505805969E-08  0.93827000000E+00  0.93827000000E+00 0. -1.
     999902    2    1    2    0    0  0.18507131623E-01  0.15041700451E-01  0.10419333317E-01  0.10179044514E+01  0.10175716894E+01 0.  0.
     999903    2    3    3    0    0  0.10352473568E+00 -0.64598365463E-01 -0.37452700143E-01  0.12893748649E+00  0.18216776825E-01 0.  0.
         14    1    1    2    0    0 -0.18507131623E-01 -0.15041700451E-01 -0.10419333317E-01  0.26025548604E-01  0.00000000000E+00 0.  1.
     999901    1    3    3    0    0 -0.85017604055E-01  0.79640065914E-01  0.47872033460E-01  0.88896696490E+00  0.88000000000E+00 0. -1.
        -11    1    4    4    0    0  0.98744023606E-02 -0.12927902339E-01 -0.28788409064E-02  0.16528258433E-01  0.51100000000E-03 0.  1.
         11    1    4    4    0    0  0.93650333318E-01 -0.51670463124E-01 -0.34573859237E-01  0.11240922806E+00  0.51100000000E-03 0. -1.
</event>
<event>
 8    1  0.1061722E+005  0.1043930E+01  0.7957747E-01            NaN
         13   -1    0    0    0    0  0.00000000000E+00  0.00000000000E+00  0.74505805969E-08  0.10566000000E+00  0.10566000000E+00 0. -1.
     999900   -1    0    0    0    0 -0.00000000000E+00 -0.00000000000E+00 -0.74505805969E-08  0.93827000000E+00  0.93827000000E+00 0.  1.
     999902    2    1    2    0    0 -0.24419275108E-01 -0.17467249612E-03  0.67280538872E-02  0.10186002109E+01  0.10182852210E+01 0.  0.
     999903    2    3    3    0    0  0.57392925892E-01  0.92732363557E-01 -0.62397620273E-01  0.12725105797E+00  0.20152656042E-01 0.  0.
         14    1    1    2    0    0  0.24419275108E-01  0.17467249612E-03 -0.67280538872E-02  0.25329789111E-01  0.00000000000E+00 0.  1.
     999901    1    3    3    0    0 -0.81812201001E-01 -0.92907036053E-01  0.69125674160E-01  0.89134915292E+00  0.88000000000E+00 0. -1.
        -11    1    4    4    0    0  0.31220449194E-01  0.36350044643E-01 -0.34879867527E-01  0.59269793936E-01  0.51100000000E-03 0. -1.
         11    1    4    4    0    0  0.26172476698E-01  0.56382318914E-01 -0.27517752745E-01  0.67981264035E-01  0.51100000000E-03 0.  1.
</event>
<event>
 8    1  0.1061722E+005  0.1043930E+01  0.7957747E-01            NaN
         13   -1    0    0    0    0  0.00000000000E+00  0.00000000000E+00  0.74505805969E-08  0.10566000000E+00  0.10566000000E+00 0.  1.
     999900   -1    0    0    0    0 -0.00000000000E+00 -0.00000000000E+00 -0.74505805969E-08  0.93827000000E+00  0.93827000000E+00 0.  1.
     999902    2    1    2    0    0  0.16902624003E-01  0.69272796220E-02  0.15059143863E-01  0.10202558851E+01  0.10199811799E+01 0.  0.
     999903    2    3    3    0    0  0.61057338168E-01 -0.10811578276E+00  0.38204358059E-01  0.13136880235E+00  0.19523530175E-01 0.  0.
         14    1    1    2    0    0 -0.16902624003E-01 -0.69272796220E-02 -0.15059143863E-01  0.23674114873E-01  0.00000000000E+00 0. -1.
     999901    1    3    3    0    0 -0.44154714166E-01  0.11504306238E+00 -0.23145214196E-01  0.88888708278E+00  0.88000000000E+00 0.  1.
        -11    1    4    4    0    0  0.33074031683E-01 -0.43480949092E-01  0.23196406651E-01  0.59353339486E-01  0.51100000000E-03 0.  1.
         11    1    4    4    0    0  0.27983306486E-01 -0.64634833668E-01  0.15007951408E-01  0.72015462865E-01  0.51100000000E-03 0. -1.
</event>
<event>
 8    1  0.1061722E+005  0.1043930E+01  0.7957747E-01            NaN
         13   -1    0    0    0    0  0.00000000000E+00  0.00000000000E+00  0.74505805969E-08  0.10566000000E+00  0.10566000000E+00 0.  1.
     999900   -1    0    0    0    0 -0.00000000000E+00 -0.00000000000E+00 -0.74505805969E-08  0.93827000000E+00  0.93827000000E+00 0.  1.
     999902    2    1    2    0    0 -0.95230938664E-03 -0.39210352680E-02  0.23445837041E-01  0.10201394833E+01  0.10198620381E+01 0.  0.
     999903    2    3    3    0    0  0.11137194035E+00 -0.59495448590E-01 -0.23461820850E-01  0.13002399592E+00  0.20306771687E-01 0.  0.
         14    1    1    2    0    0  0.95230938664E-03  0.39210352680E-02 -0.23445837041E-01  0.23790516709E-01  0.00000000000E+00 0. -1.
     999901    1    3    3    0    0 -0.11232424974E+00  0.55574413322E-01  0.46907657891E-01  0.89011548737E+00  0.88000000000E+00 0.  1.
        -11    1    4    4    0    0  0.52334613988E-01 -0.21736877114E-01 -0.19113741478E-01  0.59808025233E-01  0.51100000000E-03 0. -1.
         11    1    4    4    0    0  0.59037326361E-01 -0.37758571476E-01 -0.43480793718E-02  0.70215970684E-01  0.51100000000E-03 0.  1.
</event>
<event>
 8    1  0.1061722E+005  0.1043930E+01  0.7957747E-01            NaN
         13   -1    0    0    0    0  0.00000000000E+00  0.00000000000E+00  0.74505805969E-08  0.10566000000E+00  0.10566000000E+00 0. -1.
     999900   -1    0    0    0    0 -0.00000000000E+00 -0.00000000000E+00 -0.74505805969E-08  0.93827000000E+00  0.93827000000E+00 0. -1.
     999902    2    1    2    0    0 -0.17054995140E-01 -0.40317521221E-02 -0.13047997586E-01  0.10220810155E+01  0.10218474563E+01 0.  0.
     999903    2    3    3    0    0  0.53304035074E-01  0.11166987116E+00 -0.38804985350E-01  0.13135059542E+00  0.20872751362E-01 0.  0.
         14    1    1    2    0    0  0.17054995140E-01  0.40317521221E-02  0.13047997586E-01  0.21848984539E-01  0.00000000000E+00 0. -1.
     999901    1    3    3    0    0 -0.70359030214E-01 -0.11570162328E+00  0.25756987764E-01  0.89073042004E+00  0.88000000000E+00 0. -1.
        -11    1    4    4    0    0  0.38622761271E-01  0.98293997601E-01 -0.33239491287E-01  0.11071834787E+00  0.51100000000E-03 0. -1.
         11    1    4    4    0    0  0.14681273803E-01  0.13375873561E-01 -0.55654940624E-02  0.20632247554E-01  0.51100000000E-03 0.  1.
</event>
<event>
 8    1  0.1061722E+005  0.1043930E+01  0.7957747E-01            NaN
         13   -1    0    0    0    0  0.00000000000E+00  0.00000000000E+00  0.74505805969E-08  0.10566000000E+00  0.10566000000E+00 0.  1.
     999900   -1    0    0    0    0 -0.00000000000E+00 -0.00000000000E+00 -0.74505805969E-08  0.93827000000E+00  0.93827000000E+00 0. -1.
     999902    2    1    2    0    0 -0.13498392339E-01 -0.29893107049E-02  0.19756655631E-01  0.10198163521E+01  0.10195312276E+01 0.  0.
     999903    2    3    3    0    0 -0.48198606015E-01 -0.11781997741E+00  0.26845445351E-01  0.13164945460E+00  0.20155601228E-01 0.  0.
         14    1    1    2    0    0  0.13498392339E-01  0.29893107049E-02 -0.19756655631E-01  0.24113647919E-01  0.00000000000E+00 0. -1.
     999901    1    3    3    0    0  0.34700213676E-01  0.11483066671E+00 -0.70887897199E-02  0.88816689748E+00  0.88000000000E+00 0. -1.
        -11    1    4    4    0    0 -0.13820975662E-01 -0.49978591086E-01  0.18839696373E-01  0.55173129470E-01  0.51100000000E-03 0. -1.
         11    1    4    4    0    0 -0.34377630354E-01 -0.67841386326E-01  0.80057489780E-02  0.76476325128E-01  0.51100000000E-03 0.  1.
</event>
<event>
 8    1  0.1061722E+005  0.1043930E+01  0.7957747E-01            NaN
         13   -1    0    0    0    0  0.00000000000E+00  0.00000000000E+00  0.74505805969E-08  0.10566000000E+00  0.10566000000E+00 0. -1.
     999900   -1    0    0    0    0 -0.00000000000E+00 -0.00000000000E+00 -0.74505805969E-08  0.93827000000E+00  0.93827000000E+00 0. -1.
     999902    2    1    2    0    0  0.56642929471E-02 -0.20103913460E-01 -0.10806151137E-01  0.10204135280E+01  0.10201425115E+01 0.  0.
     999903    2    3    3    0    0 -0.20489764593E-01 -0.80079867778E-01  0.99543571687E-01  0.13111143586E+00  0.21181838299E-01 0.  0.
         14    1    1    2    0    0 -0.56642929471E-02  0.20103913460E-01  0.10806151137E-01  0.23516471959E-01  0.00000000000E+00 0. -1.
     999901    1    3    3    0    0  0.26154057540E-01  0.59975954318E-01 -0.11034972282E+00  0.88930209218E+00  0.88000000000E+00 0. -1.
        -11    1    4    4    0    0 -0.16575270504E-01 -0.42367176488E-01  0.67847636769E-01  0.81690147337E-01  0.51100000000E-03 0.  1.
         11    1    4    4    0    0 -0.39144940894E-02 -0.37712691291E-01  0.31695934918E-01  0.49421288527E-01  0.51100000000E-03 0. -1.
</event>
<event>
 8    1  0.1061722E+005  0.1043930E+01  0.7957747E-01            NaN
         13   -1    0    0    0    0  0.00000000000E+00  0.00000000000E+00  0.74505805969E-08  0.10566000000E+00  0.10566000000E+00 0.  1.
     999900   -1    0    0    0    0 -0.00000000000E+00 -0.00000000000E+00 -0.74505805969E-08  0.93827000000E+00  0.93827000000E+00 0.  1.
     999902    2    1    2    0    0  0.14967479398E-01  0.14033915026E-01  0.13249804166E-01  0.10195059643E+01  0.10192133622E+01 0.  0.
     999903    2    3    3    0    0  0.11328040577E+00  0.12647743245E-01 -0.61402316030E-01  0.13088889714E+00  0.19215702971E-01 0.  0.
         14    1    1    2    0    0 -0.14967479398E-01 -0.14033915026E-01 -0.13249804166E-01  0.24424035722E-01  0.00000000000E+00 0. -1.
     999901    1    3    3    0    0 -0.98312926367E-01  0.13861717810E-02  0.74652120196E-01  0.88861706714E+00  0.88000000000E+00 0. -1.
        -11    1    4    4    0    0  0.91876368116E-01  0.52205693367E-02 -0.42442271974E-01  0.10134164462E+00  0.51100000000E-03 0. -1.
         11    1    4    4    0    0  0.21404037649E-01  0.74271739080E-02 -0.18960044055E-01  0.29547252521E-01  0.51100000000E-03 0.  1.
</event>
<event>
 8    1  0.1061722E+005  0.1043930E+01  0.7957747E-01            NaN
         13   -1    0    0    0    0  0.00000000000E+00  0.00000000000E+00  0.74505805969E-08  0.10566000000E+00  0.10566000000E+00 0. -1.
     999900   -1    0    0    0    0 -0.00000000000E+00 -0.00000000000E+00 -0.74505805969E-08  0.93827000000E+00  0.93827000000E+00 0.  1.
     999902    2    1    2    0    0  0.54981876750E-02 -0.11802685255E-01 -0.19890275385E-01  0.10201569795E+01  0.10198799471E+01 0.  0.
     999903    2    3    3    0    0  0.10632817656E+00  0.26635304988E-01  0.65770254006E-01  0.12943710660E+00  0.20325295852E-01 0.  0.
         14    1    1    2    0    0 -0.54981876750E-02  0.11802685255E-01  0.19890275385E-01  0.23773020460E-01  0.00000000000E+00 0. -1.
     999901    1    3    3    0    0 -0.10082998888E+00 -0.38437990243E-01 -0.85660529390E-01  0.89071987294E+00  0.88000000000E+00 0.  1.
        -11    1    4    4    0    0  0.28648951479E-01  0.47203616846E-02  0.27940412158E-01  0.40298535802E-01  0.51100000000E-03 0. -1.
         11    1    4    4    0    0  0.77679225079E-01  0.21914943304E-01  0.37829841848E-01  0.89138570799E-01  0.51100000000E-03 0.  1.
</event>
<event>
 8    1  0.1061722E+005  0.1043930E+01  0.7957747E-01            NaN
         13   -1    0    0    0    0  0.00000000000E+00  0.00000000000E+00  0.74505805969E-08  0.10566000000E+00  0.10566000000E+00 0.  1.
     999900   -1    0    0    0    0 -0.00000000000E+00 -0.00000000000E+00 -0.74505805969E-08  0.93827000000E+00  0.93827000000E+00 0. -1.
     999902    2    1    2    0    0 -0.49769634052E-02  0.63451240533E-02 -0.22112287574E-01  0.10203931348E+01  0.10201216425E+01 0.  0.
     999903    2    3    3    0    0 -0.11545594992E+00  0.53635556262E-01 -0.29330428617E-01  0.13219603219E+00  0.20215529087E-01 0.  0.
         14    1    1    2    0    0  0.49769634052E-02 -0.63451240533E-02  0.22112287574E-01  0.23536865248E-01  0.00000000000E+00 0.  1.
     999901    1    3    3    0    0  0.11047898651E+00 -0.47290432209E-01  0.72181410436E-02  0.88819710256E+00  0.88000000000E+00 0.  1.
        -11    1    4    4    0    0 -0.13378526173E-01  0.19348820831E-02 -0.82530708700E-02  0.15846230814E-01  0.51100000000E-03 0. -1.
         11    1    4    4    0    0 -0.10207742375E+00  0.51700674179E-01 -0.21077357747E-01  0.11634980137E+00  0.51100000000E-03 0.  1.
</event>
<event>
 8    1  0.1061722E+005  0.1043930E+01  0.7957747E-01            NaN
         13   -1    0    0    0    0  0.00000000000E+00  0.00000000000E+00  0.74505805969E-08  0.10566000000E+00  0.10566000000E+00 0. -1.
     999900   -1    0    0    0    0 -0.00000000000E+00 -0.00000000000E+00 -0.74505805969E-08  0.93827000000E+00  0.93827000000E+00 0.  1.
     999902    2    1    2    0    0 -0.20762510758E-01  0.11695270743E-01 -0.41547158798E-02  0.10197406868E+01  0.10194537485E+01 0.  0.
     999903    2    3    3    0    0  0.12086702081E+00  0.36084661181E-01 -0.51378117481E-02  0.12808226951E+00  0.21627093224E-01 0.  0.
         14    1    1    2    0    0  0.20762510758E-01 -0.11695270743E-01  0.41547158798E-02  0.24189313234E-01  0.00000000000E+00 0. -1.
     999901    1    3    3    0    0 -0.14162953157E+00 -0.24389390438E-01  0.98309586829E-03  0.89165841725E+00  0.88000000000E+00 0. -1.
        -11    1    4    4    0    0  0.55236728173E-01  0.21194133898E-01 -0.12207580594E-01  0.60411700820E-01  0.51100000000E-03 0.  1.
         11    1    4    4    0    0  0.65630292640E-01  0.14890527283E-01  0.70697688461E-02  0.67670568694E-01  0.51100000000E-03 0. -1.
</event>
<event>
 8    1  0.1061722E+005  0.1043930E+01  0.7957747E-01            NaN
         13   -1    0    0    0    0  0.00000000000E+00  0.00000000000E+00  0.74505805969E-08  0.10566000000E+00  0.10566000000E+00 0. -1.
     999900   -1    0    0    0    0 -0.00000000000E+00 -0.00000000000E+00 -0.74505805969E-08  0.93827000000E+00  0.93827000000E+00 0. -1.
     999902    2    1    2    0    0  0.78181809942E-02  0.15157519982E-01  0.16570710409E-01  0.10201505381E+01  0.10198733537E+01 0.  0.
     999903    2    3    3    0    0 -0.67019315091E-01 -0.96352991815E-01  0.49467276662E-01  0.12935458549E+00  0.22585608271E-01 0.  0.
         14    1    1    2    0    0 -0.78181809942E-02 -0.15157519982E-01 -0.16570710409E-01  0.23779461926E-01  0.00000000000E+00 0.  1.
     999901    1    3    3    0    0  0.74837496085E-01  0.11151051180E+00 -0.32896566253E-01  0.89079595258E+00  0.88000000000E+00 0.  1.
        -11    1    4    4    0    0 -0.50442920691E-01 -0.76772335676E-01  0.48013260115E-01  0.10365333589E+00  0.51100000000E-03 0. -1.
         11    1    4    4    0    0 -0.16576394400E-01 -0.19580656139E-01  0.14540165465E-02  0.25701249605E-01  0.51100000000E-03 0.  1.
</event>
<event>
 7    1  0.1061722E+005  0.1043930E+01  0.7957747E-01            NaN
         13   -1    0    0    0    0  0.00000000000E+00  0.00000000000E+00  0.74505805969E-08  0.10566000000E+00  0.10566000000E+00 0.  1.
     999900   -1    0    0    0    0 -0.00000000000E+00 -0.00000000000E+00 -0.74505805969E-08  0.93827000000E+00  0.93827000000E+00 0.  1.
     999903    2    1    2    0    0  0.47588737996E-01 -0.65895120351E-01 -0.46745765415E-01  0.95858709980E-01  0.19921617020E-01 0.  0.
         14    1    1    2    0    0 -0.54782400499E-01 -0.11919256601E-01 -0.25637832425E-01  0.61648021329E-01  0.00000000000E+00 0.  1.
     999901    1    1    2    0    0  0.71936625021E-02  0.77814376952E-01  0.72383597840E-01  0.88642326869E+00  0.88000000000E+00 0. -1.
        -11    1    3    3    0    0  0.38354818518E-01 -0.45599622754E-01 -0.42407790588E-01  0.73137538394E-01  0.51100000000E-03 0.  1.
         11    1    3    3    0    0  0.92339194789E-02 -0.20295497597E-01 -0.43379748274E-02  0.22721171586E-01  0.51100000000E-03 0. -1.
</event>
<event>
 7    1  0.1061722E+005  0.1043930E+01  0.7957747E-01            NaN
         13   -1    0    0    0    0  0.00000000000E+00  0.00000000000E+00  0.74505805969E-08  0.10566000000E+00  0.10566000000E+00 0. -1.
     999900   -1    0    0    0    0 -0.00000000000E+00 -0.00000000000E+00 -0.74505805969E-08  0.93827000000E+00  0.93827000000E+00 0. -1.
     999902    2    1    2    0    0  0.92365759205E-02  0.80668956416E-02  0.20637006116E-01  0.10199242682E+01  0.10196417202E+01 0.  0.
         14    1    1    2    0    0 -0.92365759205E-02 -0.80668956416E-02 -0.20637006116E-01  0.24005731846E-01  0.00000000000E+00 0.  1.
     999901    1    3    3    0    0  0.45872570946E-01  0.86110104187E-01  0.11413275933E+00  0.89271805715E+00  0.88000000000E+00 0.  1.
        -11    1    3    3    0    0 -0.57432708863E-02 -0.13907165409E-01 -0.17058618468E-01  0.22751966843E-01  0.51100000000E-03 0. -1.
         11    1    3    3    0    0 -0.30892724139E-01 -0.64136043137E-01 -0.76437134748E-01  0.10445424416E+00  0.51100000000E-03 0.  1.
</event>
<event>
 8    1  0.1061722E+005  0.1043930E+01  0.7957747E-01            NaN
         13   -1    0    0    0    0  0.00000000000E+00  0.00000000000E+00  0.74505805969E-08  0.10566000000E+00  0.10566000000E+00 0. -1.
     999900   -1    0    0    0    0 -0.00000000000E+00 -0.00000000000E+00 -0.74505805969E-08  0.93827000000E+00  0.93827000000E+00 0. -1.
     999902    2    1    2    0    0  0.10971697629E-01 -0.20604900155E-01 -0.35754232926E-02  0.10203138252E+01  0.10200404787E+01 0.  0.
     999903    2    3    3    0    0  0.67106415875E-01  0.65732495269E-01  0.86776267775E-01  0.12971364528E+00  0.21713524291E-01 0.  0.
         14    1    1    2    0    0 -0.10971697629E-01  0.20604900155E-01  0.35754232926E-02  0.23616174774E-01  0.00000000000E+00 0. -1.
     999901    1    3    3    0    0 -0.56134718246E-01 -0.86337395423E-01 -0.90351691067E-01  0.89060017995E+00  0.88000000000E+00 0. -1.
        -11    1    4    4    0    0  0.36402614149E-02  0.11416247429E-01  0.17355535939E-01  0.21096396784E-01  0.51100000000E-03 0. -1.
         11    1    4    4    0    0  0.63466154460E-01  0.54316247840E-01  0.69420731836E-01  0.10861724850E+00  0.51100000000E-03 0.  1.
</event>
<event>
 8    1  0.1061722E+005  0.1043930E+01  0.7957747E-01            NaN
         13   -1    0    0    0    0  0.00000000000E+00  0.00000000000E+00  0.74505805969E-08  0.10566000000E+00  0.10566000000E+00 0. -1.
     999900   -1    0    0    0    0 -0.00000000000E+00 -0.00000000000E+00 -0.74505805969E-08  0.93827000000E+00  0.93827000000E+00 0.  1.
     999902    2    1    2    0    0 -0.15225350760E-02  0.21891795002E-01 -0.11598474537E-01  0.10191087709E+01  0.10188064554E+01 0.  0.
     999903    2    3    3    0    0  0.96655408552E-02 -0.11142402048E-01  0.12561920204E+00  0.12779226037E+00  0.18251084522E-01 0.  0.
         14    1    1    2    0    0  0.15225350760E-02 -0.21891795002E-01  0.11598474537E-01  0.24821229081E-01  0.00000000000E+00 0.  1.
     999901    1    3    3    0    0 -0.11188075931E-01  0.33034197050E-01 -0.13721767657E+00  0.89131651055E+00  0.88000000000E+00 0.  1.
        -11    1    4    4    0    0  0.18993610984E-04 -0.86727403010E-02  0.98771694776E-01  0.99153041280E-01  0.51100000000E-03 0. -1.
         11    1    4    4    0    0  0.96465472442E-02 -0.24696617469E-02  0.26847507260E-01  0.28639219088E-01  0.51100000000E-03 0.  1.
</event>
<event>
 8    1  0.1061722E+005  0.1043930E+01  0.7957747E-01            NaN
         13   -1    0    0    0    0  0.00000000000E+00  0.00000000000E+00  0.74505805969E-08  0.10566000000E+00  0.10566000000E+00 0.  1.
     999900   -1    0    0    0    0 -0.00000000000E+00 -0.00000000000E+00 -0.74505805969E-08  0.93827000000E+00  0.93827000000E+00 0. -1.
     999902    2    1    2    0    0 -0.11741018970E-01 -0.18170445067E-01  0.99164198665E-02  0.10201318492E+01  0.10198542237E+01 0.  0.
     999903    2    3    3    0    0  0.16128204994E-01  0.64157816022E-01 -0.10772614865E+00  0.12805875230E+00  0.20439583738E-01 0.  0.
         14    1    1    2    0    0  0.11741018970E-01  0.18170445067E-01 -0.99164198665E-02  0.23798150838E-01  0.00000000000E+00 0.  1.
     999901    1    3    3    0    0 -0.27869223963E-01 -0.82328261088E-01  0.11764256852E+00  0.89207309686E+00  0.88000000000E+00 0.  1.
        -11    1    4    4    0    0  0.18228120498E-01  0.30711650065E-01 -0.54712433061E-01  0.65338972130E-01  0.51100000000E-03 0.  1.
         11    1    4    4    0    0 -0.20999155042E-02  0.33446165957E-01 -0.53013715593E-01  0.62719780169E-01  0.51100000000E-03 0. -1.
</event>
<event>
 8    1  0.1061722E+005  0.1043930E+01  0.7957747E-01            NaN
         13   -1    0    0    0    0  0.00000000000E+00  0.00000000000E+00  0.74505805969E-08  0.10566000000E+00  0.10566000000E+00 0. -1.
     999900   -1    0    0    0    0 -0.00000000000E+00 -0.00000000000E+00 -0.74505805969E-08  0.93827000000E+00  0.93827000000E+00 0.  1.
     999902    2    1    2    0    0 -0.21724870388E-01  0.38643393922E-02  0.86515540099E-02  0.10202286815E+01  0.10199533372E+01 0.  0.
     999903    2    3    3    0    0  0.38778093307E-01 -0.12050279905E+00  0.18006780018E-01  0.12937778825E+00  0.19740893220E-01 0.  0.
         14    1    1    2    0    0  0.21724870388E-01 -0.38643393922E-02 -0.86515540099E-02  0.23701318510E-01  0.00000000000E+00 0.  1.
     999901    1    3    3    0    0 -0.60502963696E-01  0.12436713844E+00 -0.93552260076E-02  0.89085089324E+00  0.88000000000E+00 0.  1.
        -11    1    4    4    0    0  0.27774908361E-01 -0.88681827797E-01  0.43271357947E-02  0.93031700732E-01  0.51100000000E-03 0. -1.
         11    1    4    4    0    0  0.11003184946E-01 -0.31820971254E-01  0.13679644223E-01  0.36346087514E-01  0.51100000000E-03 0.  1.
</event>
<event>
 8    1  0.1061722E+005  0.1043930E+01  0.7957747E-01            NaN
         13   -1    0    0    0    0  0.00000000000E+00  0.00000000000E+00  0.74505805969E-08  0.10566000000E+00  0.10566000000E+00 0. -1.
     999900   -1    0    0    0    0 -0.00000000000E+00 -0.00000000000E+00 -0.74505805969E-08  0.93827000000E+00  0.93827000000E+00 0. -1.
     999902    2    1    2    0    0 -0.16955440027E-01  0.13208472002E-01  0.11807395685E-01  0.10194072499E+01  0.10191122489E+01 0.  0.
     999903    2    3    3    0    0 -0.59548086259E-01 -0.11294204611E+00 -0.91893632269E-02  0.12914383349E+00  0.17082300046E-01 0.  0.
         14    1    1    2    0    0  0.16955440027E-01 -0.13208472002E-01 -0.11807395685E-01  0.24522750090E-01  0.00000000000E+00 0.  1.
     999901    1    3    3    0    0  0.42592646232E-01  0.12615051811E+00  0.20996758911E-01  0.89026341642E+00  0.88000000000E+00 0. -1.
        -11    1    4    4    0    0 -0.35641182087E-01 -0.57260802030E-01  0.21970200591E-02  0.67484674762E-01  0.51100000000E-03 0. -1.
         11    1    4    4    0    0 -0.23906904172E-01 -0.55681244081E-01 -0.11386383286E-01  0.61659158726E-01  0.51100000000E-03 0.  1.
</event>
<event>
 8    1  0.1061722E+005  0.1043930E+01  0.7957747E-01            NaN
         13   -1    0    0    0    0  0.00000000000E+00  0.00000000000E+00  0.74505805969E-08  0.10566000000E+00  0.10566000000E+00 0.  1.
     999900   -1    0    0    0    0 -0.00000000000E+00 -0.00000000000E+00 -0.74505805969E-08  0.93827000000E+00  0.93827000000E+00 0. -1.
     999902    2    1    2    0    0 -0.58302068932E-02  0.12319672209E-01 -0.19026640920E-01  0.10205253274E+01  0.10202569113E+01 0.  0.
     999903    2    3    3    0    0 -0.11587295709E+00  0.58732514252E-01 -0.16440315709E-01  0.13245424472E+00  0.19944737394E-01 0.  0.
         14    1    1    2    0    0  0.58302068932E-02 -0.12319672209E-01  0.19026640920E-01  0.23404672620E-01  0.00000000000E+00 0.  1.
     999901    1    3    3    0    0  0.11004275019E+00 -0.46412842043E-01 -0.25863252110E-02  0.88807108266E+00  0.88000000000E+00 0.  1.
        -11    1    4    4    0    0 -0.75027030403E-01  0.33250457941E-01 -0.19012769770E-01  0.84240101969E-01  0.51100000000E-03 0. -1.
         11    1    4    4    0    0 -0.40845926683E-01  0.25482056311E-01  0.25724540601E-02  0.48214142752E-01  0.51100000000E-03 0.  1.
</event>
<event>
 8    1  0.1061722E+005  0.1043930E+01  0.7957747E-01            NaN
         13   -1    0    0    0    0  0.00000000000E+00  0.00000000000E+00  0.74505805969E-08  0.10566000000E+00  0.10566000000E+00 0.  1.
     999900   -1    0    0    0    0 -0.00000000000E+00 -0.00000000000E+00 -0.74505805969E-08  0.93827000000E+00  0.93827000000E+00 0.  1.
     999902    2    1    2    0    0 -0.11129855443E-01 -0.20701648330E-01  0.38062697760E-02  0.10201199262E+01  0.10198420192E+01 0.  0.
     999903    2    3    3    0    0  0.12471137747E+00  0.14940044072E-01 -0.20951086594E-01  0.12864020263E+00  0.18254345149E-01 0.  0.
         14    1    1    2    0    0  0.11129855443E-01  0.20701648330E-01 -0.38062697760E-02  0.23810073821E-01  0.00000000000E+00 0. -1.
     999901    1    3    3    0    0 -0.13584123291E+00 -0.35641692403E-01  0.24757356370E-01  0.89147972354E+00  0.88000000000E+00 0. -1.
        -11    1    4    4    0    0  0.10092889103E+00  0.17391036834E-01 -0.12052219714E-01  0.10312422765E+00  0.51100000000E-03 0. -1.
         11    1    4    4    0    0  0.23782486439E-01 -0.24509927617E-02 -0.88988668798E-02  0.25515974986E-01  0.51100000000E-03 0.  1.
</event>
<event>
 8    1  0.1061722E+005  0.1043930E+01  0.7957747E-01            NaN
         13   -1    0    0    0    0  0.00000000000E+00  0.00000000000E+00  0.74505805969E-08  0.10566000000E+00  0.10566000000E+00 0. -1.
     999900   -1    0    0    0    0 -0.00000000000E+00 -0.00000000000E+00 -0.74505805969E-08  0.93827000000E+00  0.93827000000E+00 0.  1.
     999902    2    1    2    0    0  0.60189206621E-02 -0.20235325684E-01 -0.88594698317E-02  0.10210348910E+01  0.10207781652E+01 0.  0.
     999903    2    3    3    0    0 -0.10540963825E+00  0.18891639041E-01 -0.72503368752E-01  0.13086760952E+00  0.20037636590E-01 0.  0.
         14    1    1    2    0    0 -0.60189206621E-02  0.20235325684E-01  0.88594698317E-02  0.22895109023E-01  0.00000000000E+00 0.  1.
     999901    1    3    3    0    0  0.11142855891E+00 -0.39126964725E-01  0.63643898920E-01  0.89016728146E+00  0.88000000000E+00 0.  1.
        -11    1    4    4    0    0 -0.55940928366E-01  0.75889754276E-02 -0.26469701048E-01  0.62352916604E-01  0.51100000000E-03 0. -1.
         11    1    4    4    0    0 -0.49468709880E-01  0.11302663613E-01 -0.46033667704E-01  0.68514692915E-01  0.51100000000E-03 0.  1.
</event>
<event>
 8    1  0.1061722E+005  0.1043930E+01  0.7957747E-01            NaN
         13   -1    0    0    0    0  0.00000000000E+00  0.00000000000E+00  0.74505805969E-08  0.10566000000E+00  0.10566000000E+00 0.  1.
     999900   -1    0    0    0    0 -0.00000000000E+00 -0.00000000000E+00 -0.74505805969E-08  0.93827000000E+00  0.93827000000E+00 0. -1.
     999902    2    1    2    0    0  0.51654961331E-02  0.17506095530E-01  0.14281405904E-01  0.10207544895E+01  0.10204913638E+01 0.  0.
     999903    2    3    3    0    0  0.77754797134E-01 -0.10021015596E+00 -0.16264763170E-01  0.12942997459E+00  0.19992297684E-01 0.  0.
         14    1    1    2    0    0 -0.51654961331E-02 -0.17506095530E-01 -0.14281405904E-01  0.23175510472E-01  0.00000000000E+00 0. -1.
     999901    1    3    3    0    0 -0.72589301001E-01  0.11771625149E+00  0.30546169074E-01  0.89132451494E+00  0.88000000000E+00 0. -1.
        -11    1    4    4    0    0  0.39834509659E-02 -0.15537577126E-01 -0.32685127143E-02  0.16377682404E-01  0.51100000000E-03 0.  1.
         11    1    4    4    0    0  0.73771346168E-01 -0.84672578834E-01 -0.12996250456E-01  0.11305229219E+00  0.51100000000E-03 0. -1.
</event>
<event>
 8    1  0.1061722E+005  0.1043930E+01  0.7957747E-01            NaN
         13   -1    0    0    0    0  0.00000000000E+00  0.00000000000E+00  0.74505805969E-08  0.10566000000E+00  0.10566000000E+00 0. -1.
     999900   -1    0    0    0    0 -0.00000000000E+00 -0.00000000000E+00 -0.74505805969E-08  0.93827000000E+00  0.93827000000E+00 0.  1.
     999902    2    1    2    0    0 -0.67977838119E-02  0.19904854855E-01  0.12294930594E-01  0.10195665349E+01  0.10192753998E+01 0.  0.
     999903    2    3    3    0    0 -0.99773880285E-01  0.81161700327E-01  0.24486046616E-01  0.13246700335E+00  0.20146754348E-01 0.  0.
         14    1    1    2    0    0  0.67977838119E-02 -0.19904854855E-01 -0.12294930594E-01  0.24363465063E-01  0.00000000000E+00 0. -1.
     999901    1    3    3    0    0  0.92976096473E-01 -0.61256845472E-01 -0.12191116022E-01  0.88709953159E+00  0.88000000000E+00 0.  1.
        -11    1    4    4    0    0 -0.46192245039E-01  0.34637698893E-01  0.10973972327E-02  0.57749104651E-01  0.51100000000E-03 0.  1.
         11    1    4    4    0    0 -0.53581635246E-01  0.46524001434E-01  0.23388649384E-01  0.74717898699E-01  0.51100000000E-03 0. -1.
</event>
<event>
 8    1  0.1061722E+005  0.1043930E+01  0.7957747E-01            NaN
         13   -1    0    0    0    0  0.00000000000E+00  0.00000000000E+00  0.74505805969E-08  0.10566000000E+00  0.10566000000E+00 0.  1.
     999900   -1    0    0    0    0 -0.00000000000E+00 -0.00000000000E+00 -0.74505805969E-08  0.93827000000E+00  0.93827000000E+00 0.  1.
     999902    2    1    2    0    0 -0.38815892352E-02  0.19030749485E-02 -0.22443742478E-01  0.10210737097E+01  0.10208178636E+01 0.  0.
     999903    2    3    3    0    0 -0.10297212664E+00 -0.63490134548E-01 -0.51027237400E-01  0.13264125723E+00  0.18859165173E-01 0.  0.
         14    1    1    2    0    0  0.38815892352E-02 -0.19030749485E-02  0.22443742478E-01  0.22856290286E-01  0.00000000000E+00 0.  1.
     999901    1    3    3    0    0  0.99090537409E-01  0.65393209497E-01  0.28583494923E-01  0.88843245249E+00  0.88000000000E+00 0.  1.
        -11    1    4    4    0    0 -0.30892682481E-01 -0.11099137759E-01 -0.19117001856E-01  0.37990387874E-01  0.51100000000E-03 0. -1.
         11    1    4    4    0    0 -0.72079444163E-01 -0.52390996789E-01 -0.31910235545E-01  0.94650869351E-01  0.51100000000E-03 0.  1.
</event>
<event>
 8    1  0.1061722E+005  0.1043930E+01  0.7957747E-01            NaN
         13   -1    0    0    0    0  0.00000000000E+00  0.00000000000E+00  0.74505805969E-08  0.10566000000E+00  0.10566000000E+00 0.  1.
     999900   -1    0    0    0    0 -0.00000000000E+00 -0.00000000000E+00 -0.74505805969E-08  0.93827000000E+00  0.93827000000E+00 0. -1.
     999902    2    1    2    0    0 -0.82514106049E-02  0.33658457223E-02 -0.24480016413E-01  0.10178783993E+01  0.10175449621E+01 0.  0.
     999903    2    3    3    0    0 -0.75534839231E-01  0.31502791318E-01  0.94638834526E-01  0.12686322093E+00  0.20972124964E-01 0.  0.
         14    1    1    2    0    0  0.82514106049E-02 -0.33658457223E-02  0.24480016413E-01  0.26051600680E-01  0.00000000000E+00 0.  1.
     999901    1    3    3    0    0  0.67283428626E-01 -0.28136945596E-01 -0.11911885094E+00  0.89101517839E+00  0.88000000000E+00 0.  1.
        -11    1    4    4    0    0 -0.16562786925E-01 -0.12482096954E-02  0.23964895864E-01  0.29162669510E-01  0.51100000000E-03 0.  1.
         11    1    4    4    0    0 -0.58972052306E-01  0.32751001014E-01  0.70673938661E-01  0.97700551419E-01  0.51100000000E-03 0. -1.
</event>
<event>
 8    1  0.1061722E+005  0.1043930E+01  0.7957747E-01            NaN
         13   -1    0    0    0    0  0.00000000000E+00  0.00000000000E+00  0.74505805969E-08  0.10566000000E+00  0.10566000000E+00 0. -1.
     999900   -1    0    0    0    0 -0.00000000000E+00 -0.00000000000E+00 -0.74505805969E-08  0.93827000000E+00  0.93827000000E+00 0. -1.
     999902    2    1    2    0    0  0.14691810930E-01 -0.66261487432E-03 -0.17712233085E-01  0.10209080199E+01  0.10206484084E+01 0.  0.
     999903    2    3    3    0    0  0.50688606040E-01  0.49324350976E-01 -0.11182026676E+00  0.13374919082E+00  0.19566491863E-01 0.  0.
         14    1    1    2    0    0 -0.14691810930E-01  0.66261487432E-03  0.17712233085E-01  0.23021980101E-01  0.00000000000E+00 0. -1.
     999901    1    3    3    0    0 -0.35996795109E-01 -0.49986965850E-01  0.94108033680E-01  0.88715882908E+00  0.88000000000E+00 0.  1.
        -11    1    4    4    0    0  0.33646204636E-01  0.29621589031E-01 -0.53007207347E-01  0.69422840441E-01  0.51100000000E-03 0.  1.
         11    1    4    4    0    0  0.17042401404E-01  0.19702761945E-01 -0.58813059418E-01  0.64326350378E-01  0.51100000000E-03 0. -1.
</event>
<event>
 8    1  0.1061722E+005  0.1043930E+01  0.7957747E-01            NaN
         13   -1    0    0    0    0  0.00000000000E+00  0.00000000000E+00  0.74505805969E-08  0.10566000000E+00  0.10566000000E+00 0.  1.
     999900   -1    0    0    0    0 -0.00000000000E+00 -0.00000000000E+00 -0.74505805969E-08  0.93827000000E+00  0.93827000000E+00 0.  1.
     999902    2    1    2    0    0  0.12937784953E-01  0.18276812282E-01 -0.13844961440E-02  0.10214946490E+01  0.10212482425E+01 0.  0.
     999903    2    3    3    0    0 -0.89833770689E-01  0.94327949365E-01 -0.96944987508E-02  0.13221695091E+00  0.20480976906E-01 0.  0.
         14    1    1    2    0    0 -0.12937784953E-01 -0.18276812282E-01  0.13844961440E-02  0.22435351040E-01  0.00000000000E+00 0. -1.
     999901    1    3    3    0    0  0.10277155564E+00 -0.76051137083E-01  0.83100026068E-02  0.88927769805E+00  0.88000000000E+00 0. -1.
        -11    1    4    4    0    0 -0.28198805138E-01  0.20589948906E-01 -0.91926067570E-02  0.36109330472E-01  0.51100000000E-03 0. -1.
         11    1    4    4    0    0 -0.61634965551E-01  0.73738000460E-01 -0.50189199383E-03  0.96107620441E-01  0.51100000000E-03 0.  1.
</event>
<event>
 8    1  0.1061722E+005  0.1043930E+01  0.7957747E-01            NaN
         13   -1    0    0    0    0  0.00000000000E+00  0.00000000000E+00  0.74505805969E-08  0.10566000000E+00  0.10566000000E+00 0.  1.
     999900   -1    0    0    0    0 -0.00000000000E+00 -0.00000000000E+00 -0.74505805969E-08  0.93827000000E+00  0.93827000000E+00 0. -1.
     999902    2    1    2    0    0 -0.98739458123E-02  0.19929507317E-01 -0.73532397622E-02  0.10205045821E+01  0.10202356845E+01 0.  0.
     999903    2    3    3    0    0  0.11643799229E+00  0.89512545184E-02 -0.54675440425E-01  0.13015935783E+00  0.17723533456E-01 0.  0.
         14    1    1    2    0    0  0.98739458123E-02 -0.19929507317E-01  0.73532397622E-02  0.23425417879E-01  0.00000000000E+00 0.  1.
     999901    1    3    3    0    0 -0.12631193811E+00  0.10978252798E-01  0.47322200662E-01  0.89034522429E+00  0.88000000000E+00 0.  1.
        -11    1    4    4    0    0  0.29555980469E-01  0.95037219845E-02 -0.11244294691E-01  0.33023809549E-01  0.51100000000E-03 0. -1.
         11    1    4    4    0    0  0.86882011825E-01 -0.55246746607E-03 -0.43431145734E-01  0.97135548281E-01  0.51100000000E-03 0.  1.
</event>
<event>
 8    1  0.1061722E+005  0.1043930E+01  0.7957747E-01            NaN
         13   -1    0    0    0    0  0.00000000000E+00  0.00000000000E+00  0.74505805969E-08  0.10566000000E+00  0.10566000000E+00 0.  1.
     999900   -1    0    0    0    0 -0.00000000000E+00 -0.00000000000E+00 -0.74505805969E-08  0.93827000000E+00  0.93827000000E+00 0.  1.
     999902    2    1    2    0    0 -0.18814880560E-01  0.82924997221E-02  0.11522184096E-01  0.10203604008E+01  0.10200881439E+01 0.  0.
     999903    2    3    3    0    0 -0.13740615703E-01 -0.83849086727E-01 -0.95215761190E-01  0.12912036066E+00  0.19660938223E-01 0.  0.
         14    1    1    2    0    0  0.18814880560E-01 -0.82924997221E-02 -0.11522184096E-01  0.23569599243E-01  0.00000000000E+00 0. -1.
     999901    1    3    3    0    0 -0.50742648566E-02  0.92141586449E-01  0.10673794529E+00  0.89124004010E+00  0.88000000000E+00 0. -1.
        -11    1    4    4    0    0 -0.78546723112E-02 -0.47113710765E-01 -0.67650091983E-01  0.82814211857E-01  0.51100000000E-03 0. -1.
         11    1    4    4    0    0 -0.58859433922E-02 -0.36735375962E-01 -0.27565669207E-01  0.46306148798E-01  0.51100000000E-03 0.  1.
</event>
<event>
 8    1  0.1061722E+005  0.1043930E+01  0.7957747E-01            NaN
         13   -1    0    0    0    0  0.00000000000E+00  0.00000000000E+00  0.74505805969E-08  0.10566000000E+00  0.10566000000E+00 0.  1.
     999900   -1    0    0    0    0 -0.00000000000E+00 -0.00000000000E+00 -0.74505805969E-08  0.93827000000E+00  0.93827000000E+00 0.  1.
     999902    2    1    2    0    0 -0.17937602182E-01 -0.10302341079E-01 -0.10512828410E-01  0.10207262209E+01  0.10204624455E+01 0.  0.
     999903    2    3    3    0    0  0.69919996391E-01  0.70682937753E-01 -0.81247718400E-01  0.12983846271E+00  0.19286033005E-01 0.  0.
         14    1    1    2    0    0  0.17937602182E-01  0.10302341079E-01  0.10512828410E-01  0.23203779109E-01  0.00000000000E+00 0.  1.
     999901    1    3    3    0    0 -0.87857598573E-01 -0.80985278832E-01  0.70734889989E-01  0.89088775818E+00  0.88000000000E+00 0. -1.
        -11    1    4    4    0    0  0.41696921272E-01  0.38784898299E-01 -0.34446278187E-01  0.66556057436E-01  0.51100000000E-03 0.  1.
         11    1    4    4    0    0  0.28223075119E-01  0.31898039454E-01 -0.46801440213E-01  0.63282405274E-01  0.51100000000E-03 0. -1.
</event>
<event>
 8    1  0.1061722E+005  0.1043930E+01  0.7957747E-01            NaN
         13   -1    0    0    0    0  0.00000000000E+00  0.00000000000E+00  0.74505805969E-08  0.10566000000E+00  0.10566000000E+00 0. -1.
     999900   -1    0    0    0    0 -0.00000000000E+00 -0.00000000000E+00 -0.74505805969E-08  0.93827000000E+00  0.93827000000E+00 0. -1.
     999902    2    1    2    0    0 -0.16252962257E-02 -0.73088490190E-02 -0.22695020380E-01  0.10200317822E+01  0.10197517894E+01 0.  0.
     999903    2    3    3    0    0  0.71687687402E-01  0.91186713108E-01  0.51135931143E-01  0.12844489431E+00  0.20713914384E-01 0.  0.
         14    1    1    2    0    0  0.16252962257E-02  0.73088490190E-02  0.22695020380E-01  0.23898217755E-01  0.00000000000E+00 0. -1.
     999901    1    3    3    0    0 -0.73312983628E-01 -0.98495562127E-01 -0.73830951523E-01  0.89158688793E+00  0.88000000000E+00 0. -1.
        -11    1    4    4    0    0  0.30648974561E-01  0.43521464766E-01  0.34315210945E-01  0.63334606340E-01  0.51100000000E-03 0. -1.
         11    1    4    4    0    0  0.41038712841E-01  0.47665248342E-01  0.16820720197E-01  0.65110287974E-01  0.51100000000E-03 0.  1.
</event>
<event>
 8    1  0.1061722E+005  0.1043930E+01  0.7957747E-01            NaN
         13   -1    0    0    0    0  0.00000000000E+00  0.00000000000E+00  0.74505805969E-08  0.10566000000E+00  0.10566000000E+00 0.  1.
     999900   -1    0    0    0    0 -0.00000000000E+00 -0.00000000000E+00 -0.74505805969E-08  0.93827000000E+00  0.93827000000E+00 0.  1.
     999902    2    1    2    0    0  0.23231218974E-01  0.42115729673E-02  0.16378644981E-02  0.10202633678E+01  0.10199888382E+01 0.  0.
     999903    2    3    3    0    0 -0.84634200840E-01  0.95343853884E-01 -0.65687694248E-03  0.12900285182E+00  0.19695325980E-01 0.  0.
         14    1    1    2    0    0 -0.23231218974E-01 -0.42115729673E-02 -0.16378644981E-02  0.23666632249E-01  0.00000000000E+00 0. -1.
     999901    1    3    3    0    0  0.10786541981E+00 -0.91132280917E-01  0.22947414406E-02  0.89126051593E+00  0.88000000000E+00 0. -1.
        -11    1    4    4    0    0 -0.40590631219E-01  0.35835052560E-01  0.68817149801E-02  0.54583600621E-01  0.51100000000E-03 0. -1.
         11    1    4    4    0    0 -0.44043569621E-01  0.59508801324E-01 -0.75385919226E-02  0.74419251200E-01  0.51100000000E-03 0.  1.
</event>
<event>
 8    1  0.1061722E+005  0.1043930E+01  0.7957747E-01            NaN
         13   -1    0    0    0    0  0.00000000000E+00  0.00000000000E+00  0.74505805969E-08  0.10566000000E+00  0.10566000000E+00 0. -1.
     999900   -1    0    0    0    0 -0.00000000000E+00 -0.00000000000E+00 -0.74505805969E-08  0.93827000000E+00  0.93827000000E+00 0. -1.
     999902    2    1    2    0    0  0.50288056807E-02 -0.12300354316E-01  0.18292295609E-01  0.10213203631E+01  0.10210700703E+01 0.  0.
     999903    2    3    3    0    0  0.61701263693E-01 -0.10182287507E+00  0.58417713458E-01  0.13405709980E+00  0.19589102351E-01 0.  0.
         14    1    1    2    0    0 -0.50288056807E-02  0.12300354316E-01 -0.18292295609E-01  0.22609636917E-01  0.00000000000E+00 0.  1.
     999901    1    3    3    0    0 -0.56672458012E-01  0.89522520757E-01 -0.40125417849E-01  0.88726326329E+00  0.88000000000E+00 0.  1.
        -11    1    4    4    0    0  0.49797491091E-01 -0.68398190467E-01  0.46974822394E-01  0.96772917896E-01  0.51100000000E-03 0. -1.
         11    1    4    4    0    0  0.11903772602E-01 -0.33424684605E-01  0.11442891065E-01  0.37284181901E-01  0.51100000000E-03 0.  1.
</event>
<event>
 8    1  0.1061722E+005  0.1043930E+01  0.7957747E-01            NaN
         13   -1    0    0    0    0  0.00000000000E+00  0.00000000000E+00  0.74505805969E-08  0.10566000000E+00  0.10566000000E+00 0.  1.
     999900   -1    0    0    0    0 -0.00000000000E+00 -0.00000000000E+00 -0.74505805969E-08  0.93827000000E+00  0.93827000000E+00 0. -1.
     999902    2    1    2    0    0  0.84306505935E-02  0.15664858249E-01  0.15590794988E-01  0.10202754752E+01  0.10200012298E+01 0.  0.
     999903    2    3    3    0    0  0.76590780762E-01 -0.83058111484E-01  0.62844247715E-01  0.13087965959E+00  0.20378622188E-01 0.  0.
         14    1    1    2    0    0 -0.84306505935E-02 -0.15664858249E-01 -0.15590794988E-01  0.23654524762E-01  0.00000000000E+00 0.  1.
     999901    1    3    3    0    0 -0.68160130169E-01  0.98722969733E-01 -0.47253452728E-01  0.88939581565E+00  0.88000000000E+00 0. -1.
        -11    1    4    4    0    0  0.64264387177E-01 -0.58514019434E-01  0.42846786304E-01  0.96901548735E-01  0.51100000000E-03 0. -1.
         11    1    4    4    0    0  0.12326393585E-01 -0.24544092050E-01  0.19997461411E-01  0.33978110855E-01  0.51100000000E-03 0.  1.
</event>
<event>
 8    1  0.1061722E+005  0.1043930E+01  0.7957747E-01            NaN
         13   -1    0    0    0    0  0.00000000000E+00  0.00000000000E+00  0.74505805969E-08  0.10566000000E+00  0.10566000000E+00 0.  1.
     999900   -1    0    0    0    0 -0.00000000000E+00 -0.00000000000E+00 -0.74505805969E-08  0.93827000000E+00  0.93827000000E+00 0. -1.
     999902    2    1    2    0    0  0.77850709507E-02 -0.25656413614E-02  0.23660448019E-01  0.10188898992E+01  0.10185821617E+01 0.  0.
     999903    2    3    3    0    0 -0.37891034021E-01  0.17555759192E-01 -0.11742012226E+00  0.12625620918E+00  0.20228942266E-01 0.  0.
         14    1    1    2    0    0 -0.77850709507E-02  0.25656413614E-02 -0.23660448019E-01  0.25040100754E-01  0.00000000000E+00 0. -1.
     999901    1    3    3    0    0  0.45676104972E-01 -0.20121400554E-01  0.14108057028E+00  0.89263369006E+00  0.88000000000E+00 0.  1.
        -11    1    4    4    0    0 -0.45753927726E-02 -0.41837169864E-02 -0.22295158907E-01  0.23146769506E-01  0.51100000000E-03 0. -1.
         11    1    4    4    0    0 -0.33315641248E-01  0.21739476179E-01 -0.95124963355E-01  0.10310943968E+00  0.51100000000E-03 0.  1.
</event>
<event>
 8    1  0.1061722E+005  0.1043930E+01  0.7957747E-01            NaN
         13   -1    0    0    0    0  0.00000000000E+00  0.00000000000E+00  0.74505805969E-08  0.10566000000E+00  0.10566000000E+00 0.  1.
     999900   -1    0    0    0    0 -0.00000000000E+00 -0.00000000000E+00 -0.74505805969E-08  0.93827000000E+00  0.93827000000E+00 0.  1.
     999902    2    1    2    0    0 -0.15676142598E-01 -0.18728272460E-01  0.93419632130E-03  0.10194890025E+01  0.10191959889E+01 0.  0.
     999903    2    3    3    0    0  0.58259513137E-02 -0.98312432544E-01  0.84897173928E-01  0.13165694620E+00  0.20657813071E-01 0.  0.
         14    1    1    2    0    0  0.15676142598E-01  0.18728272460E-01 -0.93419632130E-03  0.24440997501E-01  0.00000000000E+00 0. -1.
     999901    1    3    3    0    0 -0.21502093911E-01  0.79584160084E-01 -0.83962977607E-01  0.88783205630E+00  0.88000000000E+00 0.  1.
        -11    1    4    4    0    0 -0.49795154946E-02 -0.18920255903E-01  0.24276647686E-01  0.31183142912E-01  0.51100000000E-03 0.  1.
         11    1    4    4    0    0  0.10805466808E-01 -0.79392176641E-01  0.60620526242E-01  0.10047380329E+00  0.51100000000E-03 0. -1.
</event>
<event>
 8    1  0.1061722E+005  0.1043930E+01  0.7957747E-01            NaN
         13   -1    0    0    0    0  0.00000000000E+00  0.00000000000E+00  0.74505805969E-08  0.10566000000E+00  0.10566000000E+00 0. -1.
     999900   -1    0    0    0    0 -0.00000000000E+00 -0.00000000000E+00 -0.74505805969E-08  0.93827000000E+00  0.93827000000E+00 0. -1.
     999902    2    1    2    0    0  0.20926121840E-02 -0.23234605408E-01 -0.53604709468E-02  0.10199934054E+01  0.10197125018E+01 0.  0.
     999903    2    3    3    0    0 -0.14475323343E-01  0.49109727639E-01 -0.11757298137E+00  0.12976880083E+00  0.19880527824E-01 0.  0.
         14    1    1    2    0    0 -0.20926121840E-02  0.23234605408E-01  0.53604709468E-02  0.23936594641E-01  0.00000000000E+00 0. -1.
     999901    1    3    3    0    0  0.16567935527E-01 -0.72344333048E-01  0.11221251042E+00  0.89022460453E+00  0.88000000000E+00 0.  1.
        -11    1    4    4    0    0 -0.14595144026E-01  0.39496981595E-01 -0.10909736603E+00  0.11694240539E+00  0.51100000000E-03 0. -1.
         11    1    4    4    0    0  0.11982068276E-03  0.96127460438E-02 -0.84756153425E-02  0.12826395438E-01  0.51100000000E-03 0.  1.
</event>
<event>
 8    1  0.1061722E+005  0.1043930E+01  0.7957747E-01            NaN
         13   -1    0    0    0    0  0.00000000000E+00  0.00000000000E+00  0.74505805969E-08  0.10566000000E+00  0.10566000000E+00 0.  1.
     999900   -1    0    0    0    0 -0.00000000000E+00 -0.00000000000E+00 -0.74505805969E-08  0.93827000000E+00  0.93827000000E+00 0. -1.
     999902    2    1    2    0    0  0.85720220402E-02  0.11173537431E-01  0.19235492832E-01  0.10200902918E+01  0.10198116845E+01 0.  0.
     999903    2    3    3    0    0 -0.22421779805E-01  0.87593702981E-01 -0.90670695187E-01  0.12942760169E+00  0.18839747954E-01 0.  0.
         14    1    1    2    0    0 -0.85720220402E-02 -0.11173537431E-01 -0.19235492832E-01  0.23839708159E-01  0.00000000000E+00 0. -1.
     999901    1    3    3    0    0  0.30993801845E-01 -0.76420165550E-01  0.10990618802E+00  0.89066269015E+00  0.88000000000E+00 0.  1.
        -11    1    4    4    0    0 -0.24434190738E-01  0.65110362222E-01 -0.72301074692E-01  0.10031996545E+00  0.51100000000E-03 0. -1.
         11    1    4    4    0    0  0.20124109330E-02  0.22483340759E-01 -0.18369620495E-01  0.29107636242E-01  0.51100000000E-03 0.  1.
</event>
<event>
 8    1  0.1061722E+005  0.1043930E+01  0.7957747E-01            NaN
         13   -1    0    0    0    0  0.00000000000E+00  0.00000000000E+00  0.74505805969E-08  0.10566000000E+00  0.10566000000E+00 0.  1.
     999900   -1    0    0    0    0 -0.00000000000E+00 -0.00000000000E+00 -0.74505805969E-08  0.93827000000E+00  0.93827000000E+00 0. -1.
     999902    2    1    2    0    0 -0.16399370029E-01  0.11217473254E-01  0.11563585185E-01  0.10209411430E+01  0.10206822865E+01 0.  0.
     999903    2    3    3    0    0 -0.76564939652E-01 -0.41839406197E-01  0.98218309116E-01  0.13305377999E+00  0.21065284923E-01 0.  0.
         14    1    1    2    0    0  0.16399370029E-01 -0.11217473254E-01 -0.11563585185E-01  0.22988856994E-01  0.00000000000E+00 0.  1.
     999901    1    3    3    0    0  0.60165569624E-01  0.53056879451E-01 -0.86654723931E-01  0.88788736302E+00  0.88000000000E+00 0. -1.
        -11    1    4    4    0    0 -0.53266018512E-01 -0.30573091234E-01  0.82207539512E-01  0.10261736359E+00  0.51100000000E-03 0. -1.
         11    1    4    4    0    0 -0.23298921140E-01 -0.11266314963E-01  0.16010769604E-01  0.30436416403E-01  0.51100000000E-03 0.  1.
</event>
<event>
 8    1  0.1061722E+005  0.1043930E+01  0.7957747E-01            NaN
         13   -1    0    0    0    0  0.00000000000E+00  0.00000000000E+00  0.74505805969E-08  0.10566000000E+00  0.10566000000E+00 0. -1.
     999900   -1    0    0    0    0 -0.00000000000E+00 -0.00000000000E+00 -0.74505805969E-08  0.93827000000E+00  0.93827000000E+00 0. -1.
     999902    2    1    2    0    0  0.17314748706E-01  0.16791624027E-01 -0.47105605414E-03  0.10198057165E+01  0.10195203374E+01 0.  0.
     999903    2    3    3    0    0 -0.57933926530E-01 -0.88085999815E-02 -0.11313005279E+00  0.12907018666E+00  0.20658484036E-01 0.  0.
         14    1    1    2    0    0 -0.17314748706E-01 -0.16791624027E-01  0.47105605414E-03  0.24124283492E-01  0.00000000000E+00 0. -1.
     999901    1    3    3    0    0  0.75248675236E-01  0.25600224009E-01  0.11265899673E+00  0.89073552985E+00  0.88000000000E+00 0. -1.
        -11    1    4    4    0    0 -0.68099810883E-02  0.41335005296E-02 -0.72552735939E-02  0.10787111985E-01  0.51100000000E-03 0.  1.
         11    1    4    4    0    0 -0.51123945442E-01 -0.12942100511E-01 -0.10587477919E+00  0.11828307467E+00  0.51100000000E-03 0. -1.
</event>
<event>
 8    1  0.1061722E+005  0.1043930E+01  0.7957747E-01            NaN
         13   -1    0    0    0    0  0.00000000000E+00  0.00000000000E+00  0.74505805969E-08  0.10566000000E+00  0.10566000000E+00 0.  1.
     999900   -1    0    0    0    0 -0.00000000000E+00 -0.00000000000E+00 -0.74505805969E-08  0.93827000000E+00  0.93827000000E+00 0. -1.
     999902    2    1    2    0    0 -0.70881351526E-02 -0.14746439100E-01 -0.17693701588E-01  0.10198309087E+01  0.10195461324E+01 0.  0.
     999903    2    3    3    0    0 -0.12658832822E+00 -0.38522648689E-02 -0.29538420806E-01  0.13160837095E+00  0.20218808400E-01 0.  0.
         14    1    1    2    0    0  0.70881351526E-02  0.14746439100E-01  0.17693701588E-01  0.24099091310E-01  0.00000000000E+00 0.  1.
     999901    1    3    3    0    0  0.11950019307E+00 -0.10894174231E-01  0.11844719219E-01  0.88822253774E+00  0.88000000000E+00 0. -1.
        -11    1    4    4    0    0 -0.53502564765E-01  0.81338717661E-02 -0.14576207439E-01  0.56048293914E-01  0.51100000000E-03 0. -1.
         11    1    4    4    0    0 -0.73085763459E-01 -0.11986136635E-01 -0.14962213368E-01  0.75560077036E-01  0.51100000000E-03 0.  1.
</event>
<event>
 8    1  0.1061722E+005  0.1043930E+01  0.7957747E-01            NaN
         13   -1    0    0    0    0  0.00000000000E+00  0.00000000000E+00  0.74505805969E-08  0.10566000000E+00  0.10566000000E+00 0.  1.
     999900   -1    0    0    0    0 -0.00000000000E+00 -0.00000000000E+00 -0.74505805969E-08  0.93827000000E+00  0.93827000000E+00 0.  1.
     999902    2    1    2    0    0 -0.92576285567E-02  0.88423051128E-02 -0.24798394417E-01  0.10160221084E+01  0.10156387519E+01 0.  0.
     999903    2    3    3    0    0  0.33859242879E-01  0.92023011541E-01  0.75421460532E-01  0.12539193049E+00  0.20495280990E-01 0.  0.
         14    1    1    2    0    0  0.92576285567E-02 -0.88423051128E-02  0.24798394417E-01  0.27907891570E-01  0.00000000000E+00 0.  1.
     999901    1    3    3    0    0 -0.43116871436E-01 -0.83180706428E-01 -0.10021985495E+00  0.89063017794E+00  0.88000000000E+00 0.  1.
        -11    1    4    4    0    0  0.33595628794E-01  0.69760033265E-01  0.53296521313E-01  0.93999515000E-01  0.51100000000E-03 0.  1.
         11    1    4    4    0    0  0.26361408535E-03  0.22262978275E-01  0.22124939219E-01  0.31392415494E-01  0.51100000000E-03 0. -1.
</event>
<event>
 8    1  0.1061722E+005  0.1043930E+01  0.7957747E-01            NaN
         13   -1    0    0    0    0  0.00000000000E+00  0.00000000000E+00  0.74505805969E-08  0.10566000000E+00  0.10566000000E+00 0.  1.
     999900   -1    0    0    0    0 -0.00000000000E+00 -0.00000000000E+00 -0.74505805969E-08  0.93827000000E+00  0.93827000000E+00 0.  1.
     999902    2    1    2    0    0 -0.21555325323E-01  0.15304034779E-02  0.97751238637E-02  0.10202123435E+01  0.10199366150E+01 0.  0.
     999903    2    3    3    0    0  0.65629698282E-01  0.68347530152E-01 -0.84278333844E-01  0.12840978143E+00  0.20188913722E-01 0.  0.
         14    1    1    2    0    0  0.21555325323E-01 -0.15304034779E-02 -0.97751238637E-02  0.23717656527E-01  0.00000000000E+00 0. -1.
     999901    1    3    3    0    0 -0.87185023605E-01 -0.66817126674E-01  0.94053457708E-01  0.89180256204E+00  0.88000000000E+00 0.  1.
        -11    1    4    4    0    0  0.13940712188E-01  0.27583626182E-01 -0.23741103988E-01  0.38975646618E-01  0.51100000000E-03 0.  1.
         11    1    4    4    0    0  0.51688986094E-01  0.40763903969E-01 -0.60537229856E-01  0.89434134813E-01  0.51100000000E-03 0. -1.
</event>
<event>
 8    1  0.1061722E+005  0.1043930E+01  0.7957747E-01            NaN
         13   -1    0    0    0    0  0.00000000000E+00  0.00000000000E+00  0.74505805969E-08  0.10566000000E+00  0.10566000000E+00 0.  1.
     999900   -1    0    0    0    0 -0.00000000000E+00 -0.00000000000E+00 -0.74505805969E-08  0.93827000000E+00  0.93827000000E+00 0. -1.
     999902    2    1    2    0    0  0.12858011253E-01  0.15260488122E-01  0.11106219926E-01  0.10210923322E+01  0.10208369075E+01 0.  0.
     999903    2    3    3    0    0  0.51648444259E-01 -0.39034726620E-01 -0.11128975610E+00  0.13011902000E+00  0.18822270795E-01 0.  0.
         14    1    1    2    0    0 -0.12858011253E-01 -0.15260488122E-01 -0.11106219926E-01  0.22837667836E-01  0.00000000000E+00 0. -1.
     999901    1    3    3    0    0 -0.38790433005E-01  0.54295214743E-01  0.12239597602E+00  0.89097331216E+00  0.88000000000E+00 0.  1.
        -11    1    4    4    0    0  0.16594905992E-01 -0.17359549192E-01 -0.57790131072E-01  0.62583585894E-01  0.51100000000E-03 0.  1.
         11    1    4    4    0    0  0.35053538267E-01 -0.21675177428E-01 -0.53499625025E-01  0.67535434110E-01  0.51100000000E-03 0. -1.
</event>
<event>
 8    1  0.1061722E+005  0.1043930E+01  0.7957747E-01            NaN
         13   -1    0    0    0    0  0.00000000000E+00  0.00000000000E+00  0.74505805969E-08  0.10566000000E+00  0.10566000000E+00 0.  1.
     999900   -1    0    0    0    0 -0.00000000000E+00 -0.00000000000E+00 -0.74505805969E-08  0.93827000000E+00  0.93827000000E+00 0. -1.
     999902    2    1    2    0    0 -0.12366881291E-01  0.24523568376E-02  0.11765893667E-01  0.10266849990E+01  0.10265401585E+01 0.  0.
     999903    2    3    3    0    0 -0.27217512845E-01  0.82437997352E-01  0.10571261719E+00  0.13795318857E+00  0.17863605194E-01 0.  0.
         14    1    1    2    0    0  0.12366881291E-01 -0.24523568376E-02 -0.11765893667E-01  0.17245001035E-01  0.00000000000E+00 0. -1.
     999901    1    3    3    0    0  0.14850631554E-01 -0.79985640515E-01 -0.93946723524E-01  0.88873181039E+00  0.88000000000E+00 0. -1.
        -11    1    4    4    0    0 -0.46184937034E-02  0.27641134664E-01  0.23367865809E-01  0.36492205785E-01  0.51100000000E-03 0.  1.
         11    1    4    4    0    0 -0.22599019142E-01  0.54796862688E-01  0.82344751382E-01  0.10146098279E+00  0.51100000000E-03 0. -1.
</event>
<event>
 7    1  0.1061722E+005  0.1043930E+01  0.7957747E-01            NaN
         13   -1    0    0    0    0  0.00000000000E+00  0.00000000000E+00  0.74505805969E-08  0.10566000000E+00  0.10566000000E+00 0.  1.
     999900   -1    0    0    0    0 -0.00000000000E+00 -0.00000000000E+00 -0.74505805969E-08  0.93827000000E+00  0.93827000000E+00 0. -1.
     999903    2    1    2    0    0 -0.95831238926E-01  0.10598143313E+00  0.31804033456E-04  0.14352123674E+00  0.13514949532E-01 0.  0.
         14    1    1    2    0    0 -0.66331441327E-03  0.67881689017E-02 -0.41254809613E-02  0.79711238989E-02  0.00000000000E+00 0.  1.
     999901    1    1    2    0    0  0.96494553339E-01 -0.11276960203E+00  0.40936769279E-02  0.89243763937E+00  0.88000000000E+00 0.  1.
        -11    1    3    3    0    0 -0.80003219468E-01  0.88421895315E-01  0.50403412497E-02  0.11935079747E+00  0.51100000000E-03 0. -1.
         11    1    3    3    0    0 -0.15828019458E-01  0.17559537813E-01 -0.50085372162E-02  0.24170439264E-01  0.51100000000E-03 0.  1.
</event>
<event>
 8    1  0.1061722E+005  0.1043930E+01  0.7957747E-01            NaN
         13   -1    0    0    0    0  0.00000000000E+00  0.00000000000E+00  0.74505805969E-08  0.10566000000E+00  0.10566000000E+00 0.  1.
     999900   -1    0    0    0    0 -0.00000000000E+00 -0.00000000000E+00 -0.74505805969E-08  0.93827000000E+00  0.93827000000E+00 0. -1.
     999902    2    1    2    0    0  0.14453040859E-01  0.19575288305E-01  0.75427192692E-03  0.10195855709E+01  0.10192948961E+01 0.  0.
     999903    2    3    3    0    0 -0.35281293500E-01  0.55692251204E-01  0.11075617553E+00  0.13060955445E+00  0.21107552671E-01 0.  0.
         14    1    1    2    0    0 -0.14453040859E-01 -0.19575288305E-01 -0.75427192692E-03  0.24344429104E-01  0.00000000000E+00 0.  1.
     999901    1    3    3    0    0  0.49734334358E-01 -0.36116962899E-01 -0.11000190360E+00  0.88897601645E+00  0.88000000000E+00 0.  1.
        -11    1    4    4    0    0 -0.11147592499E-01  0.12346036845E-01  0.46762946006E-01  0.49635951532E-01  0.51100000000E-03 0. -1.
         11    1    4    4    0    0 -0.24133701001E-01  0.43346214359E-01  0.63993229525E-01  0.80973602916E-01  0.51100000000E-03 0.  1.
</event>
<event>
 8    1  0.1061722E+005  0.1043930E+01  0.7957747E-01            NaN
         13   -1    0    0    0    0  0.00000000000E+00  0.00000000000E+00  0.74505805969E-08  0.10566000000E+00  0.10566000000E+00 0.  1.
     999900   -1    0    0    0    0 -0.00000000000E+00 -0.00000000000E+00 -0.74505805969E-08  0.93827000000E+00  0.93827000000E+00 0.  1.
     999902    2    1    2    0    0  0.75913192745E-02 -0.55505626230E-02  0.18352861367E-01  0.10233080604E+01  0.10231002502E+01 0.  0.
     999903    2    3    3    0    0 -0.89201576887E-01 -0.79781248233E-01 -0.52417022423E-01  0.13208001106E+00  0.19380820210E-01 0.  0.
         14    1    1    2    0    0 -0.75913192745E-02  0.55505626230E-02 -0.18352861367E-01  0.20621939630E-01  0.00000000000E+00 0.  1.
     999901    1    3    3    0    0  0.96792896161E-01  0.74230685610E-01  0.70769883790E-01  0.89122804931E+00  0.88000000000E+00 0.  1.
        -11    1    4    4    0    0 -0.53000347728E-01 -0.34830592788E-01 -0.30021560933E-01  0.70169525402E-01  0.51100000000E-03 0. -1.
         11    1    4    4    0    0 -0.36201229159E-01 -0.44950655444E-01 -0.22395461490E-01  0.61910485654E-01  0.51100000000E-03 0.  1.
</event>
<event>
 8    1  0.1061722E+005  0.1043930E+01  0.7957747E-01            NaN
         13   -1    0    0    0    0  0.00000000000E+00  0.00000000000E+00  0.74505805969E-08  0.10566000000E+00  0.10566000000E+00 0.  1.
     999900   -1    0    0    0    0 -0.00000000000E+00 -0.00000000000E+00 -0.74505805969E-08  0.93827000000E+00  0.93827000000E+00 0. -1.
     999902    2    1    2    0    0 -0.13783112684E-01  0.15752550450E-01 -0.86628675318E-02  0.10212769138E+01  0.10210256472E+01 0.  0.
     999903    2    3    3    0    0  0.88628313071E-02 -0.12742666812E+00  0.11015890906E-02  0.12936409741E+00  0.20438949927E-01 0.  0.
         14    1    1    2    0    0  0.13783112684E-01 -0.15752550450E-01  0.86628675318E-02  0.22653086210E-01  0.00000000000E+00 0.  1.
     999901    1    3    3    0    0 -0.22645943992E-01  0.14317921857E+00 -0.97644566224E-02  0.89191281638E+00  0.88000000000E+00 0. -1.
        -11    1    4    4    0    0 -0.31230681969E-02 -0.65391337971E-01 -0.61910518636E-02  0.65759948911E-01  0.51100000000E-03 0. -1.
         11    1    4    4    0    0  0.11985899504E-01 -0.62035330146E-01  0.72926409542E-02  0.63604148500E-01  0.51100000000E-03 0.  1.
</event>
<event>
 8    1  0.1061722E+005  0.1043930E+01  0.7957747E-01            NaN
         13   -1    0    0    0    0  0.00000000000E+00  0.00000000000E+00  0.74505805969E-08  0.10566000000E+00  0.10566000000E+00 0.  1.
     999900   -1    0    0    0    0 -0.00000000000E+00 -0.00000000000E+00 -0.74505805969E-08  0.93827000000E+00  0.93827000000E+00 0. -1.
     999902    2    1    2    0    0  0.16075366178E-01  0.15300084671E-01 -0.86999673302E-02  0.10200930660E+01  0.10198145243E+01 0.  0.
     999903    2    3    3    0    0 -0.78542865313E-02 -0.31743910240E-01 -0.12504822669E+00  0.13086717619E+00  0.20488854298E-01 0.  0.
         14    1    1    2    0    0 -0.16075366178E-01 -0.15300084671E-01  0.86999673302E-02  0.23836933952E-01  0.00000000000E+00 0. -1.
     999901    1    3    3    0    0  0.23929652709E-01  0.47043994911E-01  0.11634825936E+00  0.88922588986E+00  0.88000000000E+00 0.  1.
        -11    1    4    4    0    0 -0.72610181858E-02 -0.69746374007E-02 -0.66945374344E-01  0.67700164099E-01  0.51100000000E-03 0. -1.
         11    1    4    4    0    0 -0.59326834551E-03 -0.24769272840E-01 -0.58102852350E-01  0.63167012091E-01  0.51100000000E-03 0.  1.
</event>
<event>
 8    1  0.1061722E+005  0.1043930E+01  0.7957747E-01            NaN
         13   -1    0    0    0    0  0.00000000000E+00  0.00000000000E+00  0.74505805969E-08  0.10566000000E+00  0.10566000000E+00 0. -1.
     999900   -1    0    0    0    0 -0.00000000000E+00 -0.00000000000E+00 -0.74505805969E-08  0.93827000000E+00  0.93827000000E+00 0.  1.
     999902    2    1    2    0    0 -0.18286931062E-01 -0.30718780762E-03 -0.72919973515E-02  0.10242404231E+01  0.10240511535E+01 0.  0.
     999903    2    3    3    0    0 -0.35330344684E-01 -0.11343438222E+00  0.59378740138E-01  0.13433412059E+00  0.20105443277E-01 0.  0.
         14    1    1    2    0    0  0.18286931062E-01  0.30718780762E-03  0.72919973515E-02  0.19689576872E-01  0.00000000000E+00 0. -1.
     999901    1    3    3    0    0  0.17043413622E-01  0.11312719441E+00 -0.66670737490E-01  0.88990630254E+00  0.88000000000E+00 0.  1.
        -11    1    4    4    0    0 -0.22640657839E-01 -0.66902186193E-01  0.45960934510E-01  0.84268443244E-01  0.51100000000E-03 0.  1.
         11    1    4    4    0    0 -0.12689686845E-01 -0.46532196024E-01  0.13417805628E-01  0.50065677344E-01  0.51100000000E-03 0. -1.
</event>
<event>
 8    1  0.1061722E+005  0.1043930E+01  0.7957747E-01            NaN
         13   -1    0    0    0    0  0.00000000000E+00  0.00000000000E+00  0.74505805969E-08  0.10566000000E+00  0.10566000000E+00 0.  1.
     999900   -1    0    0    0    0 -0.00000000000E+00 -0.00000000000E+00 -0.74505805969E-08  0.93827000000E+00  0.93827000000E+00 0. -1.
     999902    2    1    2    0    0  0.16673060209E-01  0.16669209800E-02 -0.18182666464E-01  0.10192039222E+01  0.10189039484E+01 0.  0.
     999903    2    3    3    0    0  0.33080128952E-01  0.15818465329E-01  0.12090058712E+00  0.12801729220E+00  0.20662922333E-01 0.  0.
         14    1    1    2    0    0 -0.16673060209E-01 -0.16669209800E-02  0.18182666464E-01  0.24726077773E-01  0.00000000000E+00 0.  1.
     999901    1    3    3    0    0 -0.16407068743E-01 -0.14151544349E-01 -0.13908325358E+00  0.89118663003E+00  0.88000000000E+00 0. -1.
        -11    1    4    4    0    0  0.15160603952E-02  0.79206509956E-02  0.40176516110E-01  0.40981077573E-01  0.51100000000E-03 0. -1.
         11    1    4    4    0    0  0.31564068557E-01  0.78978143334E-02  0.80724071010E-01  0.87036214627E-01  0.51100000000E-03 0.  1.
</event>
<event>
 8    1  0.1061722E+005  0.1043930E+01  0.7957747E-01            NaN
         13   -1    0    0    0    0  0.00000000000E+00  0.00000000000E+00  0.74505805969E-08  0.10566000000E+00  0.10566000000E+00 0. -1.
     999900   -1    0    0    0    0 -0.00000000000E+00 -0.00000000000E+00 -0.74505805969E-08  0.93827000000E+00  0.93827000000E+00 0. -1.
     999902    2    1    2    0    0 -0.16327434882E-01 -0.40309757129E-02 -0.16214388044E-01  0.10205689154E+01  0.10203015097E+01 0.  0.
     999903    2    3    3    0    0  0.20531504369E-01  0.56007620996E-01 -0.11600021585E+00  0.13213184618E+00  0.21080285012E-01 0.  0.
         14    1    1    2    0    0  0.16327434882E-01  0.40309757129E-02  0.16214388044E-01  0.23361084621E-01  0.00000000000E+00 0. -1.
     999901    1    3    3    0    0 -0.36858939251E-01 -0.60038596708E-01  0.99785827806E-01  0.88843706920E+00  0.88000000000E+00 0.  1.
        -11    1    4    4    0    0  0.21829793865E-01  0.37242259552E-01 -0.67678473438E-01  0.80275542257E-01  0.51100000000E-03 0. -1.
         11    1    4    4    0    0 -0.12982894963E-02  0.18765361443E-01 -0.48321742412E-01  0.51856303922E-01  0.51100000000E-03 0.  1.
</event>
<event>
 8    1  0.1061722E+005  0.1043930E+01  0.7957747E-01            NaN
         13   -1    0    0    0    0  0.00000000000E+00  0.00000000000E+00  0.74505805969E-08  0.10566000000E+00  0.10566000000E+00 0. -1.
     999900   -1    0    0    0    0 -0.00000000000E+00 -0.00000000000E+00 -0.74505805969E-08  0.93827000000E+00  0.93827000000E+00 0. -1.
     999902    2    1    2    0    0  0.12461612060E-02  0.10167905869E-01 -0.21147314042E-01  0.10204321678E+01  0.10201615857E+01 0.  0.
     999903    2    3    3    0    0  0.64326840760E-01  0.94782139738E-01 -0.64707818148E-01  0.13305611547E+00  0.19880434585E-01 0.  0.
         14    1    1    2    0    0 -0.12461612060E-02 -0.10167905869E-01  0.21147314042E-01  0.23497832213E-01  0.00000000000E+00 0. -1.
     999901    1    3    3    0    0 -0.63080679554E-01 -0.84614233868E-01  0.43560504107E-01  0.88737605232E+00  0.88000000000E+00 0. -1.
        -11    1    4    4    0    0  0.31715190747E-01  0.36240593101E-01 -0.18202009503E-01  0.51485999877E-01  0.51100000000E-03 0.  1.
         11    1    4    4    0    0  0.32611650013E-01  0.58541546637E-01 -0.46505808645E-01  0.81570115594E-01  0.51100000000E-03 0. -1.
</event>
<event>
 8    1  0.1061722E+005  0.1043930E+01  0.7957747E-01            NaN
         13   -1    0    0    0    0  0.00000000000E+00  0.00000000000E+00  0.74505805969E-08  0.10566000000E+00  0.10566000000E+00 0. -1.
     999900   -1    0    0    0    0 -0.00000000000E+00 -0.00000000000E+00 -0.74505805969E-08  0.93827000000E+00  0.93827000000E+00 0.  1.
     999902    2    1    2    0    0  0.13370322255E-01  0.19059193110E-01 -0.13056984320E-02  0.10206121269E+01  0.10203457210E+01 0.  0.
     999903    2    3    3    0    0 -0.99117941932E-02  0.12007111874E+00  0.52586782461E-01  0.13289039932E+00  0.19472321937E-01 0.  0.
         14    1    1    2    0    0 -0.13370322255E-01 -0.19059193110E-01  0.13056984320E-02  0.23317873136E-01  0.00000000000E+00 0. -1.
     999901    1    3    3    0    0  0.23282116449E-01 -0.10101192563E+00 -0.53892480893E-01  0.88772172755E+00  0.88000000000E+00 0. -1.
        -11    1    4    4    0    0  0.34432080821E-02  0.73270080021E-01  0.32738391625E-01  0.80326979997E-01  0.51100000000E-03 0.  1.
         11    1    4    4    0    0 -0.13355002275E-01  0.46801038715E-01  0.19848390836E-01  0.52563419318E-01  0.51100000000E-03 0. -1.
</event>
<event>
 8    1  0.1061722E+005  0.1043930E+01  0.7957747E-01            NaN
         13   -1    0    0    0    0  0.00000000000E+00  0.00000000000E+00  0.74505805969E-08  0.10566000000E+00  0.10566000000E+00 0.  1.
     999900   -1    0    0    0    0 -0.00000000000E+00 -0.00000000000E+00 -0.74505805969E-08  0.93827000000E+00  0.93827000000E+00 0. -1.
     999902    2    1    2    0    0  0.11895131952E-01 -0.96967719951E-02 -0.17628728178E-01  0.10205570753E+01  0.10202893954E+01 0.  0.
     999903    2    3    3    0    0  0.82141699080E-01  0.94209549246E-01 -0.34093440641E-01  0.13151141251E+00  0.22587408647E-01 0.  0.
         14    1    1    2    0    0 -0.11895131952E-01  0.96967719951E-02  0.17628728178E-01  0.23372924687E-01  0.00000000000E+00 0.  1.
     999901    1    3    3    0    0 -0.70246567127E-01 -0.10390632124E+00  0.16464712463E-01  0.88904566280E+00  0.88000000000E+00 0. -1.
        -11    1    4    4    0    0  0.63010624360E-01  0.84539562813E-01 -0.26048374345E-01  0.10860964685E+00  0.51100000000E-03 0.  1.
         11    1    4    4    0    0  0.19131074719E-01  0.96699864334E-02 -0.80450662959E-02  0.22901765658E-01  0.51100000000E-03 0. -1.
</event>
<event>
 8    1  0.1061722E+005  0.1043930E+01  0.7957747E-01            NaN
         13   -1    0    0    0    0  0.00000000000E+00  0.00000000000E+00  0.74505805969E-08  0.10566000000E+00  0.10566000000E+00 0. -1.
     999900   -1    0    0    0    0 -0.00000000000E+00 -0.00000000000E+00 -0.74505805969E-08  0.93827000000E+00  0.93827000000E+00 0. -1.
     999902    2    1    2    0    0 -0.12861135416E-01 -0.19973848907E-01  0.56536594501E-03  0.10201669387E+01  0.10198901410E+01 0.  0.
     999903    2    3    3    0    0 -0.13118894798E-01 -0.11366766834E+00 -0.64348408407E-01  0.13281560109E+00  0.20169829006E-01 0.  0.
         14    1    1    2    0    0  0.12861135416E-01  0.19973848907E-01 -0.56536594501E-03  0.23763061313E-01  0.00000000000E+00 0.  1.
     999901    1    3    3    0    0  0.25775938225E-03  0.93693819428E-01  0.64913774352E-01  0.88735133760E+00  0.88000000000E+00 0.  1.
        -11    1    4    4    0    0 -0.17645806875E-02 -0.48154410775E-01 -0.37692697817E-01  0.61179748380E-01  0.51100000000E-03 0.  1.
         11    1    4    4    0    0 -0.11354314110E-01 -0.65513257560E-01 -0.26655710591E-01  0.71635852707E-01  0.51100000000E-03 0. -1.
</event>
<event>
 8    1  0.1061722E+005  0.1043930E+01  0.7957747E-01            NaN
         13   -1    0    0    0    0  0.00000000000E+00  0.00000000000E+00  0.74505805969E-08  0.10566000000E+00  0.10566000000E+00 0. -1.
     999900   -1    0    0    0    0 -0.00000000000E+00 -0.00000000000E+00 -0.74505805969E-08  0.93827000000E+00  0.93827000000E+00 0.  1.
     999902    2    1    2    0    0 -0.56579927426E-02 -0.23839866372E-01  0.80204028546E-02  0.10181486313E+01  0.10178221635E+01 0.  0.
     999903    2    3    3    0    0 -0.14944545378E-01 -0.28563607823E-01  0.12473752485E+00  0.13038095878E+00  0.20013125143E-01 0.  0.
         14    1    1    2    0    0  0.56579927426E-02  0.23839866372E-01 -0.80204028546E-02  0.25781368708E-01  0.00000000000E+00 0.  1.
     999901    1    3    3    0    0  0.92865526352E-02  0.47237414503E-02 -0.11671712199E+00  0.88776767251E+00  0.88000000000E+00 0.  1.
        -11    1    4    4    0    0 -0.63958304397E-03 -0.21426157083E-01  0.81716421544E-01  0.84482684289E-01  0.51100000000E-03 0. -1.
         11    1    4    4    0    0 -0.14304962334E-01 -0.71374507397E-02  0.43021103306E-01  0.45898274489E-01  0.51100000000E-03 0.  1.
</event>
<event>
 8    1  0.1061722E+005  0.1043930E+01  0.7957747E-01            NaN
         13   -1    0    0    0    0  0.00000000000E+00  0.00000000000E+00  0.74505805969E-08  0.10566000000E+00  0.10566000000E+00 0. -1.
     999900   -1    0    0    0    0 -0.00000000000E+00 -0.00000000000E+00 -0.74505805969E-08  0.93827000000E+00  0.93827000000E+00 0. -1.
     999902    2    1    2    0    0  0.49218477618E-02 -0.14488137976E-01  0.19093369889E-01  0.10194619085E+01  0.10191682370E+01 0.  0.
     999903    2    3    3    0    0  0.99121675799E-01 -0.83320353842E-01 -0.81241430716E-02  0.13134464454E+00  0.20445683464E-01 0.  0.
         14    1    1    2    0    0 -0.49218477618E-02  0.14488137976E-01 -0.19093369889E-01  0.24468091489E-01  0.00000000000E+00 0.  1.
     999901    1    3    3    0    0 -0.94199828038E-01  0.68832215866E-01  0.27217512961E-01  0.88811726397E+00  0.88000000000E+00 0.  1.
        -11    1    4    4    0    0  0.32109205344E-01 -0.26324567148E-01  0.69102170061E-02  0.42095084314E-01  0.51100000000E-03 0.  1.
         11    1    4    4    0    0  0.67012470456E-01 -0.56995786694E-01 -0.15034360078E-01  0.89249560231E-01  0.51100000000E-03 0. -1.
</event>
<event>
 8    1  0.1061722E+005  0.1043930E+01  0.7957747E-01            NaN
         13   -1    0    0    0    0  0.00000000000E+00  0.00000000000E+00  0.74505805969E-08  0.10566000000E+00  0.10566000000E+00 0.  1.
     999900   -1    0    0    0    0 -0.00000000000E+00 -0.00000000000E+00 -0.74505805969E-08  0.93827000000E+00  0.93827000000E+00 0.  1.
     999902    2    1    2    0    0  0.95648227927E-02 -0.95224352971E-02 -0.24557985759E-01  0.10159075577E+01  0.10155210035E+01 0.  0.
     999903    2    3    3    0    0 -0.11300948608E+00  0.22159452561E-01 -0.48247094996E-01  0.12653172199E+00  0.20501444147E-01 0.  0.
         14    1    1    2    0    0 -0.95648227927E-02  0.95224352971E-02  0.24557985759E-01  0.28022442321E-01  0.00000000000E+00 0.  1.
     999901    1    3    3    0    0  0.12257430887E+00 -0.31681887858E-01  0.23689109237E-01  0.88937583569E+00  0.88000000000E+00 0. -1.
        -11    1    4    4    0    0 -0.55593471629E-01  0.51321896813E-02 -0.32515192462E-01  0.64610156481E-01  0.51100000000E-03 0.  1.
         11    1    4    4    0    0 -0.57416014451E-01  0.17027262880E-01 -0.15731902534E-01  0.61921565508E-01  0.51100000000E-03 0. -1.
</event>
<event>
 8    1  0.1061722E+005  0.1043930E+01  0.7957747E-01            NaN
         13   -1    0    0    0    0  0.00000000000E+00  0.00000000000E+00  0.74505805969E-08  0.10566000000E+00  0.10566000000E+00 0. -1.
     999900   -1    0    0    0    0 -0.00000000000E+00 -0.00000000000E+00 -0.74505805969E-08  0.93827000000E+00  0.93827000000E+00 0. -1.
     999902    2    1    2    0    0  0.10394611085E-01  0.15139993624E-01  0.15074099240E-01  0.10201708793E+01  0.10198941745E+01 0.  0.
     999903    2    3    3    0    0  0.79831176916E-01 -0.40122872831E-01  0.95641137989E-01  0.13204562420E+00  0.17491651245E-01 0.  0.
         14    1    1    2    0    0 -0.10394611085E-01 -0.15139993624E-01 -0.15074099240E-01  0.23759120658E-01  0.00000000000E+00 0.  1.
     999901    1    3    3    0    0 -0.69436565830E-01  0.55262866455E-01 -0.80567038749E-01  0.88812525514E+00  0.88000000000E+00 0. -1.
        -11    1    4    4    0    0  0.54261954768E-01 -0.17968208516E-01  0.62074876430E-01  0.84384641122E-01  0.51100000000E-03 0.  1.
         11    1    4    4    0    0  0.25569222147E-01 -0.22154664315E-01  0.33566261559E-01  0.47660983080E-01  0.51100000000E-03 0. -1.
</event>
<event>
 8    1  0.1061722E+005  0.1043930E+01  0.7957747E-01            NaN
         13   -1    0    0    0    0  0.00000000000E+00  0.00000000000E+00  0.74505805969E-08  0.10566000000E+00  0.10566000000E+00 0.  1.
     999900   -1    0    0    0    0 -0.00000000000E+00 -0.00000000000E+00 -0.74505805969E-08  0.93827000000E+00  0.93827000000E+00 0. -1.
     999902    2    1    2    0    0 -0.16706957496E-01  0.97968956850E-02 -0.13569484860E-01  0.10202819025E+01  0.10200078079E+01 0.  0.
     999903    2    3    3    0    0  0.91346335799E-01  0.28376702761E-01 -0.87343065598E-01  0.13041490988E+00  0.15160715260E-01 0.  0.
         14    1    1    2    0    0  0.16706957496E-01 -0.97968956850E-02  0.13569484860E-01  0.23648097455E-01  0.00000000000E+00 0.  1.
     999901    1    3    3    0    0 -0.10805329330E+00 -0.18579807076E-01  0.73773580737E-01  0.88986699267E+00  0.88000000000E+00 0.  1.
        -11    1    4    4    0    0  0.75910352730E-02  0.62031190880E-02 -0.12715814775E-01  0.16064108109E-01  0.51100000000E-03 0.  1.
         11    1    4    4    0    0  0.83755300526E-01  0.22173583673E-01 -0.74627250823E-01  0.11435080177E+00  0.51100000000E-03 0. -1.
</event>
<event>
 8    1  0.1061722E+005  0.1043930E+01  0.7957747E-01            NaN
         13   -1    0    0    0    0  0.00000000000E+00  0.00000000000E+00  0.74505805969E-08  0.10566000000E+00  0.10566000000E+00 0.  1.
     999900   -1    0    0    0    0 -0.00000000000E+00 -0.00000000000E+00 -0.74505805969E-08  0.93827000000E+00  0.93827000000E+00 0.  1.
     999902    2    1    2    0    0  0.12101921560E-01  0.18506808690E-01 -0.70010730724E-02  0.10207357443E+01  0.10204721879E+01 0.  0.
     999903    2    3    3    0    0 -0.73847726252E-01  0.60314681070E-01 -0.88766856449E-01  0.13179205459E+00  0.19956037249E-01 0.  0.
         14    1    1    2    0    0 -0.12101921560E-01 -0.18506808690E-01  0.70010730724E-02  0.23194255700E-01  0.00000000000E+00 0. -1.
     999901    1    3    3    0    0  0.85949647812E-01 -0.41807872380E-01  0.81765783377E-01  0.88894368971E+00  0.88000000000E+00 0. -1.
        -11    1    4    4    0    0 -0.51125135103E-01  0.34163336349E-01 -0.66670569739E-01  0.90698064920E-01  0.51100000000E-03 0.  1.
         11    1    4    4    0    0 -0.22722591149E-01  0.26151344722E-01 -0.22096286710E-01  0.41093989666E-01  0.51100000000E-03 0. -1.
</event>
<event>
 8    1  0.1061722E+005  0.1043930E+01  0.7957747E-01            NaN
         13   -1    0    0    0    0  0.00000000000E+00  0.00000000000E+00  0.74505805969E-08  0.10566000000E+00  0.10566000000E+00 0.  1.
     999900   -1    0    0    0    0 -0.00000000000E+00 -0.00000000000E+00 -0.74505805969E-08  0.93827000000E+00  0.93827000000E+00 0.  1.
     999902    2    1    2    0    0  0.32870973459E-02 -0.12651541838E-01  0.22427860672E-01  0.10179708888E+01  0.10176398454E+01 0.  0.
     999903    2    3    3    0    0  0.10108045736E+00 -0.65272557317E-01  0.45074876152E-01  0.13070238387E+00  0.23950012311E-01 0.  0.
         14    1    1    2    0    0 -0.32870973459E-02  0.12651541838E-01 -0.22427860672E-01  0.25959111198E-01  0.00000000000E+00 0. -1.
     999901    1    3    3    0    0 -0.97793360018E-01  0.52621015480E-01 -0.22647015480E-01  0.88726850493E+00  0.88000000000E+00 0.  1.
        -11    1    4    4    0    0  0.54882694956E-01 -0.46059946463E-01  0.34659070157E-01  0.79593599861E-01  0.51100000000E-03 0.  1.
         11    1    4    4    0    0  0.46197762408E-01 -0.19212610854E-01  0.10415805995E-01  0.51108784009E-01  0.51100000000E-03 0. -1.
</event>
<event>
 8    1  0.1061722E+005  0.1043930E+01  0.7957747E-01            NaN
         13   -1    0    0    0    0  0.00000000000E+00  0.00000000000E+00  0.74505805969E-08  0.10566000000E+00  0.10566000000E+00 0.  1.
     999900   -1    0    0    0    0 -0.00000000000E+00 -0.00000000000E+00 -0.74505805969E-08  0.93827000000E+00  0.93827000000E+00 0.  1.
     999902    2    1    2    0    0  0.21999064560E-01  0.63658919199E-02 -0.22521676796E-02  0.10209179232E+01  0.10206585375E+01 0.  0.
     999903    2    3    3    0    0  0.12112287344E+00 -0.37806743432E-01 -0.37870095905E-01  0.13353672659E+00  0.17257255486E-01 0.  0.
         14    1    1    2    0    0 -0.21999064560E-01 -0.63658919199E-02  0.22521676796E-02  0.23012076844E-01  0.00000000000E+00 0.  1.
     999901    1    3    3    0    0 -0.99123808878E-01  0.44172635352E-01  0.35617928226E-01  0.88738119656E+00  0.88000000000E+00 0.  1.
        -11    1    4    4    0    0  0.26972897971E-01 -0.68602654033E-02 -0.15779706205E-01  0.31997823602E-01  0.51100000000E-03 0. -1.
         11    1    4    4    0    0  0.94149975466E-01 -0.30946478028E-01 -0.22090389701E-01  0.10153890299E+00  0.51100000000E-03 0.  1.
</event>
<event>
 8    1  0.1061722E+005  0.1043930E+01  0.7957747E-01            NaN
         13   -1    0    0    0    0  0.00000000000E+00  0.00000000000E+00  0.74505805969E-08  0.10566000000E+00  0.10566000000E+00 0. -1.
     999900   -1    0    0    0    0 -0.00000000000E+00 -0.00000000000E+00 -0.74505805969E-08  0.93827000000E+00  0.93827000000E+00 0. -1.
     999902    2    1    2    0    0 -0.12454032435E-01  0.66007661238E-02  0.19123172344E-01  0.10201735533E+01  0.10198969115E+01 0.  0.
     999903    2    3    3    0    0 -0.10432959473E+00 -0.66425676175E-01 -0.36775408366E-01  0.13062387426E+00  0.20325626099E-01 0.  0.
         14    1    1    2    0    0  0.12454032435E-01 -0.66007661238E-02 -0.19123172344E-01  0.23756446658E-01  0.00000000000E+00 0.  1.
     999901    1    3    3    0    0  0.91875562292E-01  0.73026442299E-01  0.55898580710E-01  0.88954967908E+00  0.88000000000E+00 0.  1.
        -11    1    4    4    0    0 -0.73043816482E-01 -0.36988312613E-01 -0.18518415264E-01  0.83944786742E-01  0.51100000000E-03 0.  1.
         11    1    4    4    0    0 -0.31285778245E-01 -0.29437363562E-01 -0.18256993102E-01  0.46679087523E-01  0.51100000000E-03 0. -1.
</event>
<event>
 8    1  0.1061722E+005  0.1043930E+01  0.7957747E-01            NaN
         13   -1    0    0    0    0  0.00000000000E+00  0.00000000000E+00  0.74505805969E-08  0.10566000000E+00  0.10566000000E+00 0. -1.
     999900   -1    0    0    0    0 -0.00000000000E+00 -0.00000000000E+00 -0.74505805969E-08  0.93827000000E+00  0.93827000000E+00 0. -1.
     999902    2    1    2    0    0  0.42135262283E-02 -0.11478460394E-01  0.20538549179E-01  0.10200272625E+01  0.10197471625E+01 0.  0.
     999903    2    3    3    0    0  0.12861481494E+00 -0.19769436771E-02  0.22943478488E-01  0.13122371666E+00  0.12148320125E-01 0.  0.
         14    1    1    2    0    0 -0.42135262283E-02  0.11478460394E-01 -0.20538549179E-01  0.23902737473E-01  0.00000000000E+00 0.  1.
     999901    1    3    3    0    0 -0.12440128871E+00 -0.95015167170E-02 -0.24049293084E-02  0.88880354586E+00  0.88000000000E+00 0.  1.
        -11    1    4    4    0    0  0.62039351328E-01 -0.54149582774E-02  0.15232416503E-01  0.64113107239E-01  0.51100000000E-03 0.  1.
         11    1    4    4    0    0  0.66575463612E-01  0.34380146003E-02  0.77110619851E-02  0.67110609426E-01  0.51100000000E-03 0. -1.
</event>
<event>
 8    1  0.1061722E+005  0.1043930E+01  0.7957747E-01            NaN
         13   -1    0    0    0    0  0.00000000000E+00  0.00000000000E+00  0.74505805969E-08  0.10566000000E+00  0.10566000000E+00 0.  1.
     999900   -1    0    0    0    0 -0.00000000000E+00 -0.00000000000E+00 -0.74505805969E-08  0.93827000000E+00  0.93827000000E+00 0. -1.
     999902    2    1    2    0    0 -0.19941992351E-01  0.98624753235E-02 -0.89921903184E-02  0.10199339385E+01  0.10196516209E+01 0.  0.
     999903    2    3    3    0    0  0.12363753746E+00  0.25063364214E-01 -0.10542941427E-01  0.12816684270E+00  0.20029305045E-01 0.  0.
         14    1    1    2    0    0  0.19941992351E-01 -0.98624753235E-02  0.89921903184E-02  0.23996061451E-01  0.00000000000E+00 0. -1.
     999901    1    3    3    0    0 -0.14357952981E+00 -0.15200888890E-01  0.15507511084E-02  0.89176709585E+00  0.88000000000E+00 0. -1.
        -11    1    4    4    0    0  0.33501166439E-01  0.15925150354E-01 -0.16930001871E-02  0.37135777051E-01  0.51100000000E-03 0. -1.
         11    1    4    4    0    0  0.90136371018E-01  0.91382138592E-02 -0.88499412398E-02  0.91031065652E-01  0.51100000000E-03 0.  1.
</event>
<event>
 8    1  0.1061722E+005  0.1043930E+01  0.7957747E-01            NaN
         13   -1    0    0    0    0  0.00000000000E+00  0.00000000000E+00  0.74505805969E-08  0.10566000000E+00  0.10566000000E+00 0.  1.
     999900   -1    0    0    0    0 -0.00000000000E+00 -0.00000000000E+00 -0.74505805969E-08  0.93827000000E+00  0.93827000000E+00 0.  1.
     999902    2    1    2    0    0  0.11472215243E-01 -0.20389672181E-01 -0.10625972710E-02  0.10205103594E+01  0.10202415959E+01 0.  0.
     999903    2    3    3    0    0  0.84210173868E-01  0.73091711960E-01 -0.64279425099E-01  0.13032726184E+00  0.20484114526E-01 0.  0.
         14    1    1    2    0    0 -0.11472215243E-01  0.20389672181E-01  0.10625972710E-02  0.23419640629E-01  0.00000000000E+00 0. -1.
     999901    1    3    3    0    0 -0.72737958625E-01 -0.93481384141E-01  0.63216827828E-01  0.89018309753E+00  0.88000000000E+00 0. -1.
        -11    1    4    4    0    0  0.43629114365E-01  0.43278305539E-01 -0.24524020008E-01  0.66167968300E-01  0.51100000000E-03 0.  1.
         11    1    4    4    0    0  0.40581059503E-01  0.29813406422E-01 -0.39755405091E-01  0.64159293542E-01  0.51100000000E-03 0. -1.
</event>
<event>
 8    1  0.1061722E+005  0.1043930E+01  0.7957747E-01            NaN
         13   -1    0    0    0    0  0.00000000000E+00  0.00000000000E+00  0.74505805969E-08  0.10566000000E+00  0.10566000000E+00 0.  1.
     999900   -1    0    0    0    0 -0.00000000000E+00 -0.00000000000E+00 -0.74505805969E-08  0.93827000000E+00  0.93827000000E+00 0.  1.
     999902    2    1    2    0    0  0.23522905341E-01 -0.25545689562E-02 -0.26602456609E-02  0.10201197122E+01  0.10198418002E+01 0.  0.
     999903    2    3    3    0    0 -0.76176101516E-01  0.70810792575E-01 -0.73212504765E-01  0.12866024060E+00  0.19401542965E-01 0.  0.
         14    1    1    2    0    0 -0.23522905341E-01  0.25545689562E-02  0.26602456609E-02  0.23810287802E-01  0.00000000000E+00 0.  1.
     999901    1    3    3    0    0  0.99699006857E-01 -0.73365361532E-01  0.70552259104E-01  0.89145947160E+00  0.88000000000E+00 0. -1.
        -11    1    4    4    0    0 -0.51857377950E-01  0.56314975823E-01 -0.45589051853E-01  0.89102115124E-01  0.51100000000E-03 0. -1.
         11    1    4    4    0    0 -0.24318723566E-01  0.14495816753E-01 -0.27623452912E-01  0.39558125474E-01  0.51100000000E-03 0.  1.
</event>
<event>
 8    1  0.1061722E+005  0.1043930E+01  0.7957747E-01            NaN
         13   -1    0    0    0    0  0.00000000000E+00  0.00000000000E+00  0.74505805969E-08  0.10566000000E+00  0.10566000000E+00 0. -1.
     999900   -1    0    0    0    0 -0.00000000000E+00 -0.00000000000E+00 -0.74505805969E-08  0.93827000000E+00  0.93827000000E+00 0. -1.
     999902    2    1    2    0    0 -0.75280755184E-02  0.77208473191E-02 -0.20510719344E-01  0.10207573219E+01  0.10204942612E+01 0.  0.
     999903    2    3    3    0    0 -0.22713792043E-02  0.59681530452E-01 -0.11810671937E+00  0.13382298118E+00  0.19807798747E-01 0.  0.
         14    1    1    2    0    0  0.75280755184E-02 -0.77208473191E-02  0.20510719344E-01  0.23172678144E-01  0.00000000000E+00 0. -1.
     999901    1    3    3    0    0 -0.52566963141E-02 -0.51960683133E-01  0.97596000026E-01  0.88693434068E+00  0.88000000000E+00 0.  1.
        -11    1    4    4    0    0 -0.17050053078E-02  0.17184439787E-02 -0.17797026309E-01  0.17968176291E-01  0.51100000000E-03 0.  1.
         11    1    4    4    0    0 -0.56637389646E-03  0.57963086473E-01 -0.10030969306E+00  0.11585480489E+00  0.51100000000E-03 0. -1.
</event>
<event>
 8    1  0.1061722E+005  0.1043930E+01  0.7957747E-01            NaN
         13   -1    0    0    0    0  0.00000000000E+00  0.00000000000E+00  0.74505805969E-08  0.10566000000E+00  0.10566000000E+00 0. -1.
     999900   -1    0    0    0    0 -0.00000000000E+00 -0.00000000000E+00 -0.74505805969E-08  0.93827000000E+00  0.93827000000E+00 0.  1.
     999902    2    1    2    0    0  0.75149252027E-02 -0.20091462477E-01 -0.10467685307E-01  0.10200613301E+01  0.10197820374E+01 0.  0.
     999903    2    3    3    0    0  0.11362265986E+00 -0.64254265093E-01  0.11376182375E-01  0.13231904825E+00  0.18444337614E-01 0.  0.
         14    1    1    2    0    0 -0.75149252027E-02  0.20091462477E-01  0.10467685307E-01  0.23868669862E-01  0.00000000000E+00 0. -1.
     999901    1    3    3    0    0 -0.10610773465E+00  0.44162802616E-01 -0.21843867682E-01  0.88774228188E+00  0.88000000000E+00 0.  1.
        -11    1    4    4    0    0  0.29103166854E-01 -0.77410218873E-02  0.13041372799E-02  0.30147630684E-01  0.51100000000E-03 0. -1.
         11    1    4    4    0    0  0.84519493003E-01 -0.56513243206E-01  0.10072045095E-01  0.10217141757E+00  0.51100000000E-03 0.  1.
</event>
<event>
 8    1  0.1061722E+005  0.1043930E+01  0.7957747E-01            NaN
         13   -1    0    0    0    0  0.00000000000E+00  0.00000000000E+00  0.74505805969E-08  0.10566000000E+00  0.10566000000E+00 0. -1.
     999900   -1    0    0    0    0 -0.00000000000E+00 -0.00000000000E+00 -0.74505805969E-08  0.93827000000E+00  0.93827000000E+00 0.  1.
     999902    2    1    2    0    0 -0.58540295469E-02 -0.22763412336E-01  0.10489685913E-02  0.10204025068E+01  0.10201312332E+01 0.  0.
     999903    2    3    3    0    0 -0.25104224606E-01 -0.11812321145E+00 -0.52850406078E-01  0.13340239183E+00  0.20487009234E-01 0.  0.
         14    1    1    2    0    0  0.58540295469E-02  0.22763412336E-01 -0.10489685913E-02  0.23527493242E-01  0.00000000000E+00 0. -1.
     999901    1    3    3    0    0  0.19250195060E-01  0.95359799110E-01  0.53899374669E-01  0.88700011493E+00  0.88000000000E+00 0. -1.
        -11    1    4    4    0    0 -0.33068076119E-02 -0.13127180224E-01  0.64789547172E-03  0.13562401217E-01  0.51100000000E-03 0.  1.
         11    1    4    4    0    0 -0.21797416995E-01 -0.10499603122E+00 -0.53498301550E-01  0.11983999061E+00  0.51100000000E-03 0. -1.
</event>
<event>
 8    1  0.1061722E+005  0.1043930E+01  0.7957747E-01            NaN
         13   -1    0    0    0    0  0.00000000000E+00  0.00000000000E+00  0.74505805969E-08  0.10566000000E+00  0.10566000000E+00 0.  1.
     999900   -1    0    0    0    0 -0.00000000000E+00 -0.00000000000E+00 -0.74505805969E-08  0.93827000000E+00  0.93827000000E+00 0. -1.
     999902    2    1    2    0    0  0.75142413060E-02  0.55864839644E-02  0.23266303401E-01  0.10188502572E+01  0.10185415323E+01 0.  0.
     999903    2    3    3    0    0 -0.49311556682E-01 -0.25551864190E-01 -0.11180812655E+00  0.12618914026E+00  0.18387891983E-01 0.  0.
         14    1    1    2    0    0 -0.75142413060E-02 -0.55864839644E-02 -0.23266303401E-01  0.25079742810E-01  0.00000000000E+00 0. -1.
     999901    1    3    3    0    0  0.56825797988E-01  0.31138348155E-01  0.13507442995E+00  0.89266111693E+00  0.88000000000E+00 0. -1.
        -11    1    4    4    0    0 -0.34803899821E-01 -0.12702195399E-01 -0.56355143739E-01  0.67444944641E-01  0.51100000000E-03 0.  1.
         11    1    4    4    0    0 -0.14507656861E-01 -0.12849668791E-01 -0.55452982813E-01  0.58744195624E-01  0.51100000000E-03 0. -1.
</event>
<event>
 8    1  0.1061722E+005  0.1043930E+01  0.7957747E-01            NaN
         13   -1    0    0    0    0  0.00000000000E+00  0.00000000000E+00  0.74505805969E-08  0.10566000000E+00  0.10566000000E+00 0.  1.
     999900   -1    0    0    0    0 -0.00000000000E+00 -0.00000000000E+00 -0.74505805969E-08  0.93827000000E+00  0.93827000000E+00 0. -1.
     999902    2    1    2    0    0 -0.20331991770E-01  0.21801376081E-04  0.11790142377E-01  0.10204268551E+01  0.10201561492E+01 0.  0.
     999903    2    3    3    0    0  0.24699974727E-01  0.11963340502E+00  0.41756051734E-01  0.13068938285E+00  0.20344694279E-01 0.  0.
         14    1    1    2    0    0  0.20331991770E-01 -0.21801376081E-04 -0.11790142377E-01  0.23503144937E-01  0.00000000000E+00 0. -1.
     999901    1    3    3    0    0 -0.45031966497E-01 -0.11961160365E+00 -0.29965909356E-01  0.88973747221E+00  0.88000000000E+00 0. -1.
        -11    1    4    4    0    0  0.23593786979E-01  0.79476814354E-01  0.21264387540E-01  0.85590105166E-01  0.51100000000E-03 0. -1.
         11    1    4    4    0    0  0.11061877476E-02  0.40156590667E-01  0.20491664194E-01  0.45099277686E-01  0.51100000000E-03 0.  1.
</event>
<event>
 8    1  0.1061722E+005  0.1043930E+01  0.7957747E-01            NaN
         13   -1    0    0    0    0  0.00000000000E+00  0.00000000000E+00  0.74505805969E-08  0.10566000000E+00  0.10566000000E+00 0.  1.
     999900   -1    0    0    0    0 -0.00000000000E+00 -0.00000000000E+00 -0.74505805969E-08  0.93827000000E+00  0.93827000000E+00 0.  1.
     999902    2    1    2    0    0 -0.15280041119E-01  0.82617423758E-02 -0.16327028835E-01  0.10200907904E+01  0.10198121948E+01 0.  0.
     999903    2    3    3    0    0  0.54916456438E-01 -0.21496618276E-01  0.11129675289E+00  0.12762177808E+00  0.20553083706E-01 0.  0.
         14    1    1    2    0    0  0.15280041119E-01 -0.82617423758E-02  0.16327028835E-01  0.23839209598E-01  0.00000000000E+00 0.  1.
     999901    1    3    3    0    0 -0.70196497558E-01  0.29758360651E-01 -0.12762378173E+00  0.89246901233E+00  0.88000000000E+00 0.  1.
        -11    1    4    4    0    0  0.10713926076E-01  0.93821337959E-03  0.35136316169E-01  0.36749017555E-01  0.51100000000E-03 0. -1.
         11    1    4    4    0    0  0.44202530363E-01 -0.22434831655E-01  0.76160436724E-01  0.90872760522E-01  0.51100000000E-03 0.  1.
</event>
<event>
 8    1  0.1061722E+005  0.1043930E+01  0.7957747E-01            NaN
         13   -1    0    0    0    0  0.00000000000E+00  0.00000000000E+00  0.74505805969E-08  0.10566000000E+00  0.10566000000E+00 0.  1.
     999900   -1    0    0    0    0 -0.00000000000E+00 -0.00000000000E+00 -0.74505805969E-08  0.93827000000E+00  0.93827000000E+00 0. -1.
     999902    2    1    2    0    0  0.98846356063E-02  0.94507011878E-02  0.19103935756E-01  0.10204356999E+01  0.10201652001E+01 0.  0.
     999903    2    3    3    0    0 -0.93752601196E-01 -0.50403611116E-01 -0.68437038260E-01  0.12803072590E+00  0.19446447606E-01 0.  0.
         14    1    1    2    0    0 -0.98846356063E-02 -0.94507011878E-02 -0.19103935756E-01  0.23494300062E-01  0.00000000000E+00 0. -1.
     999901    1    3    3    0    0  0.10363723680E+00  0.59854312304E-01  0.87540974016E-01  0.89240497404E+00  0.88000000000E+00 0.  1.
        -11    1    4    4    0    0 -0.83377667025E-01 -0.42361839865E-01 -0.66491619754E-01  0.11475084947E+00  0.51100000000E-03 0. -1.
         11    1    4    4    0    0 -0.10374934171E-01 -0.80417712511E-02 -0.19454185062E-02  0.13279876433E-01  0.51100000000E-03 0.  1.
</event>
<event>
 8    1  0.1061722E+005  0.1043930E+01  0.7957747E-01            NaN
         13   -1    0    0    0    0  0.00000000000E+00  0.00000000000E+00  0.74505805969E-08  0.10566000000E+00  0.10566000000E+00 0. -1.
     999900   -1    0    0    0    0 -0.00000000000E+00 -0.00000000000E+00 -0.74505805969E-08  0.93827000000E+00  0.93827000000E+00 0. -1.
     999902    2    1    2    0    0  0.10832417030E-01 -0.25463346005E-02  0.20963239996E-01  0.10201964265E+01  0.10199203235E+01 0.  0.
     999903    2    3    3    0    0 -0.15655180391E-01  0.10673197284E+00  0.73406444599E-01  0.13149308401E+00  0.16282700434E-01 0.  0.
         14    1    1    2    0    0 -0.10832417030E-01  0.25463346005E-02 -0.20963239996E-01  0.23733573471E-01  0.00000000000E+00 0.  1.
     999901    1    3    3    0    0  0.26487597421E-01 -0.10927830744E+00 -0.52443204604E-01  0.88870334252E+00  0.88000000000E+00 0. -1.
        -11    1    4    4    0    0 -0.18156236853E-01  0.83531238205E-01  0.61371184204E-01  0.10523212468E+00  0.51100000000E-03 0.  1.
         11    1    4    4    0    0  0.25010564624E-02  0.23200734639E-01  0.12035260395E-01  0.26260959332E-01  0.51100000000E-03 0. -1.
</event>
<event>
 8    1  0.1061722E+005  0.1043930E+01  0.7957747E-01            NaN
         13   -1    0    0    0    0  0.00000000000E+00  0.00000000000E+00  0.74505805969E-08  0.10566000000E+00  0.10566000000E+00 0. -1.
     999900   -1    0    0    0    0 -0.00000000000E+00 -0.00000000000E+00 -0.74505805969E-08  0.93827000000E+00  0.93827000000E+00 0. -1.
     999902    2    1    2    0    0 -0.33948806739E-02  0.21656569940E-01 -0.53977682011E-02  0.10213541692E+01  0.10211046326E+01 0.  0.
     999903    2    3    3    0    0 -0.76577719577E-01 -0.33465015797E-01 -0.10011220953E+00  0.13154242361E+00  0.17230794941E-01 0.  0.
         14    1    1    2    0    0  0.33948806739E-02 -0.21656569940E-01  0.53977682011E-02  0.22575830836E-01  0.00000000000E+00 0.  1.
     999901    1    3    3    0    0  0.73182838903E-01  0.55121585737E-01  0.94714441333E-01  0.88981174555E+00  0.88000000000E+00 0.  1.
        -11    1    4    4    0    0 -0.50757031818E-01 -0.13136861094E-01 -0.59830303862E-01  0.79553628324E-01  0.51100000000E-03 0. -1.
         11    1    4    4    0    0 -0.25820687759E-01 -0.20328154703E-01 -0.40281905672E-01  0.51988795288E-01  0.51100000000E-03 0.  1.
</event>
<event>
 8    1  0.1061722E+005  0.1043930E+01  0.7957747E-01            NaN
         13   -1    0    0    0    0  0.00000000000E+00  0.00000000000E+00  0.74505805969E-08  0.10566000000E+00  0.10566000000E+00 0.  1.
     999900   -1    0    0    0    0 -0.00000000000E+00 -0.00000000000E+00 -0.74505805969E-08  0.93827000000E+00  0.93827000000E+00 0.  1.
     999902    2    1    2    0    0 -0.20002172388E-01  0.32725534405E-02 -0.11884381749E-01  0.10204345742E+01  0.10201640481E+01 0.  0.
     999903    2    3    3    0    0  0.94200455221E-01 -0.83510044695E-01 -0.22496168053E-01  0.12875858507E+00  0.15001410728E-01 0.  0.
         14    1    1    2    0    0  0.20002172388E-01 -0.32725534405E-02  0.11884381749E-01  0.23495425849E-01  0.00000000000E+00 0.  1.
     999901    1    3    3    0    0 -0.11420262761E+00  0.86782598136E-01  0.10611786304E-01  0.89167598908E+00  0.88000000000E+00 0.  1.
        -11    1    4    4    0    0  0.23028547674E-01 -0.20823771975E-01 -0.12183008491E-01  0.33356113445E-01  0.51100000000E-03 0.  1.
         11    1    4    4    0    0  0.71171907547E-01 -0.62686272720E-01 -0.10313159561E-01  0.95402471627E-01  0.51100000000E-03 0. -1.
</event>
<event>
 8    1  0.1061722E+005  0.1043930E+01  0.7957747E-01            NaN
         13   -1    0    0    0    0  0.00000000000E+00  0.00000000000E+00  0.74505805969E-08  0.10566000000E+00  0.10566000000E+00 0.  1.
     999900   -1    0    0    0    0 -0.00000000000E+00 -0.00000000000E+00 -0.74505805969E-08  0.93827000000E+00  0.93827000000E+00 0. -1.
     999902    2    1    2    0    0 -0.11749055085E-01  0.14755769773E-01  0.18114436146E-01  0.10177784067E+01  0.10174423715E+01 0.  0.
     999903    2    3    3    0    0  0.39632095538E-01 -0.11000771716E+00  0.45693036515E-01  0.12706715743E+00  0.19641997894E-01 0.  0.
         14    1    1    2    0    0  0.11749055085E-01 -0.14755769773E-01 -0.18114436146E-01  0.26151593333E-01  0.00000000000E+00 0. -1.
     999901    1    3    3    0    0 -0.51381150623E-01  0.12476348693E+00 -0.27578600369E-01  0.89071124923E+00  0.88000000000E+00 0.  1.
        -11    1    4    4    0    0  0.35524741373E-01 -0.71539796473E-01  0.30520857202E-01  0.85508675433E-01  0.51100000000E-03 0.  1.
         11    1    4    4    0    0  0.41073541648E-02 -0.38467920686E-01  0.15172179313E-01  0.41558482001E-01  0.51100000000E-03 0. -1.
</event>
<event>
 8    1  0.1061722E+005  0.1043930E+01  0.7957747E-01            NaN
         13   -1    0    0    0    0  0.00000000000E+00  0.00000000000E+00  0.74505805969E-08  0.10566000000E+00  0.10566000000E+00 0.  1.
     999900   -1    0    0    0    0 -0.00000000000E+00 -0.00000000000E+00 -0.74505805969E-08  0.93827000000E+00  0.93827000000E+00 0.  1.
     999902    2    1    2    0    0  0.87397296726E-02 -0.43018032831E-04 -0.24457184765E-01  0.10179581188E+01  0.10176267455E+01 0.  0.
     999903    2    3    3    0    0 -0.64062860240E-01  0.37621279730E-01  0.99192452995E-01  0.12554114826E+00  0.20050596628E-01 0.  0.
         14    1    1    2    0    0 -0.87397296726E-02  0.43018032831E-04  0.24457184765E-01  0.25971881179E-01  0.00000000000E+00 0.  1.
     999901    1    3    3    0    0  0.72802589913E-01 -0.37664297763E-01 -0.12364963776E+00  0.89241697056E+00  0.88000000000E+00 0.  1.
        -11    1    4    4    0    0 -0.28389319156E-01  0.12843995094E-01  0.57124703807E-01  0.65072379380E-01  0.51100000000E-03 0.  1.
         11    1    4    4    0    0 -0.35673541084E-01  0.24777284635E-01  0.42067749188E-01  0.60468768882E-01  0.51100000000E-03 0. -1.
</event>
<event>
 8    1  0.1061722E+005  0.1043930E+01  0.7957747E-01            NaN
         13   -1    0    0    0    0  0.00000000000E+00  0.00000000000E+00  0.74505805969E-08  0.10566000000E+00  0.10566000000E+00 0.  1.
     999900   -1    0    0    0    0 -0.00000000000E+00 -0.00000000000E+00 -0.74505805969E-08  0.93827000000E+00  0.93827000000E+00 0. -1.
     999902    2    1    2    0    0 -0.75998756285E-02 -0.38234352602E-02  0.23741185574E-01  0.10187105500E+01  0.10183983327E+01 0.  0.
     999903    2    3    3    0    0  0.73720125871E-01 -0.42044264834E-02  0.10669393265E+00  0.13107647783E+00  0.18577233797E-01 0.  0.
         14    1    1    2    0    0  0.75998756285E-02  0.38234352602E-02 -0.23741185574E-01  0.25219450018E-01  0.00000000000E+00 0.  1.
     999901    1    3    3    0    0 -0.81320001499E-01  0.38099122315E-03 -0.82952747076E-01  0.88763407215E+00  0.88000000000E+00 0. -1.
        -11    1    4    4    0    0  0.18641466289E-01  0.69302474529E-02  0.25818131170E-01  0.32594011923E-01  0.51100000000E-03 0.  1.
         11    1    4    4    0    0  0.55078659582E-01 -0.11134673936E-01  0.80875801480E-01  0.98482465906E-01  0.51100000000E-03 0. -1.
</event>
<event>
 8    1  0.1061722E+005  0.1043930E+01  0.7957747E-01            NaN
         13   -1    0    0    0    0  0.00000000000E+00  0.00000000000E+00  0.74505805969E-08  0.10566000000E+00  0.10566000000E+00 0.  1.
     999900   -1    0    0    0    0 -0.00000000000E+00 -0.00000000000E+00 -0.74505805969E-08  0.93827000000E+00  0.93827000000E+00 0. -1.
     999902    2    1    2    0    0  0.15394760890E-01 -0.16809960745E-01  0.80875943324E-02  0.10197435859E+01  0.10194567173E+01 0.  0.
     999903    2    3    3    0    0 -0.11354279828E+00  0.38601117070E-02 -0.54992375341E-01  0.12787407271E+00  0.20512182257E-01 0.  0.
         14    1    1    2    0    0 -0.15394760890E-01  0.16809960745E-01 -0.80875943324E-02  0.24186414062E-01  0.00000000000E+00 0. -1.
     999901    1    3    3    0    0  0.12893755917E+00 -0.20670072452E-01  0.63079969673E-01  0.89186951323E+00  0.88000000000E+00 0.  1.
        -11    1    4    4    0    0 -0.87448421919E-01 -0.39290366869E-02 -0.47641692747E-01  0.99662710349E-01  0.51100000000E-03 0. -1.
         11    1    4    4    0    0 -0.26094376361E-01  0.77891483938E-02 -0.73506825937E-02  0.28211362356E-01  0.51100000000E-03 0.  1.
</event>
<event>
 8    1  0.1061722E+005  0.1043930E+01  0.7957747E-01            NaN
         13   -1    0    0    0    0  0.00000000000E+00  0.00000000000E+00  0.74505805969E-08  0.10566000000E+00  0.10566000000E+00 0. -1.
     999900   -1    0    0    0    0 -0.00000000000E+00 -0.00000000000E+00 -0.74505805969E-08  0.93827000000E+00  0.93827000000E+00 0. -1.
     999902    2    1    2    0    0 -0.18245039687E-02 -0.88942267187E-02 -0.21791133726E-01  0.10203230181E+01  0.10200498869E+01 0.  0.
     999903    2    3    3    0    0 -0.64812388647E-01  0.95939374433E-02  0.10847365251E+00  0.12831505833E+00  0.20137813831E-01 0.  0.
         14    1    1    2    0    0  0.18245039687E-02  0.88942267187E-02  0.21791133726E-01  0.23606981864E-01  0.00000000000E+00 0. -1.
     999901    1    3    3    0    0  0.62987884678E-01 -0.18488164162E-01 -0.13026478624E+00  0.89200795981E+00  0.88000000000E+00 0. -1.
        -11    1    4    4    0    0 -0.44151843207E-01 -0.28934925870E-02  0.66087464994E-01  0.79533462820E-01  0.51100000000E-03 0. -1.
         11    1    4    4    0    0 -0.20660545440E-01  0.12487430030E-01  0.42386187520E-01  0.48781595506E-01  0.51100000000E-03 0.  1.
</event>
<event>
 8    1  0.1061722E+005  0.1043930E+01  0.7957747E-01            NaN
         13   -1    0    0    0    0  0.00000000000E+00  0.00000000000E+00  0.74505805969E-08  0.10566000000E+00  0.10566000000E+00 0. -1.
     999900   -1    0    0    0    0 -0.00000000000E+00 -0.00000000000E+00 -0.74505805969E-08  0.93827000000E+00  0.93827000000E+00 0. -1.
     999902    2    1    2    0    0  0.13625341169E-01 -0.31180615276E-01 -0.11747576132E-01  0.10079315801E+01  0.10072885306E+01 0.  0.
     999903    2    3    3    0    0 -0.98496135159E-01  0.47423196684E-01  0.35373016862E-01  0.11609631784E+00  0.16632993396E-01 0.  0.
         14    1    1    2    0    0 -0.13625341169E-01  0.31180615276E-01  0.11747576132E-01  0.35998419909E-01  0.00000000000E+00 0. -1.
     999901    1    3    3    0    0  0.11212147633E+00 -0.78603811959E-01 -0.47120592994E-01  0.89183526225E+00  0.88000000000E+00 0. -1.
        -11    1    4    4    0    0 -0.60404568022E-01  0.35462024086E-01  0.16662425904E-01  0.72001142687E-01  0.51100000000E-03 0.  1.
         11    1    4    4    0    0 -0.38091567137E-01  0.11961172598E-01  0.18710590958E-01  0.44095175154E-01  0.51100000000E-03 0. -1.
</event>
<event>
 8    1  0.1061722E+005  0.1043930E+01  0.7957747E-01            NaN
         13   -1    0    0    0    0  0.00000000000E+00  0.00000000000E+00  0.74505805969E-08  0.10566000000E+00  0.10566000000E+00 0.  1.
     999900   -1    0    0    0    0 -0.00000000000E+00 -0.00000000000E+00 -0.74505805969E-08  0.93827000000E+00  0.93827000000E+00 0.  1.
     999902    2    1    2    0    0  0.22906872857E-01 -0.35810037268E-02 -0.44926464373E-02  0.10203136437E+01  0.10200402930E+01 0.  0.
     999903    2    3    3    0    0 -0.62930821119E-01  0.42179947506E-01  0.10199015338E+00  0.12857334463E+00  0.19740246817E-01 0.  0.
         14    1    1    2    0    0 -0.22906872857E-01  0.35810037268E-02  0.44926464373E-02  0.23616356277E-01  0.00000000000E+00 0.  1.
     999901    1    3    3    0    0  0.85837693976E-01 -0.45760951233E-01 -0.10648279982E+00  0.89174029909E+00  0.88000000000E+00 0.  1.
        -11    1    4    4    0    0 -0.31058640029E-01  0.11242164873E-01  0.52909643662E-01  0.62375611460E-01  0.51100000000E-03 0. -1.
         11    1    4    4    0    0 -0.31872181090E-01  0.30937782634E-01  0.49080509721E-01  0.66197733173E-01  0.51100000000E-03 0.  1.
</event>
<event>
 8    1  0.1061722E+005  0.1043930E+01  0.7957747E-01            NaN
         13   -1    0    0    0    0  0.00000000000E+00  0.00000000000E+00  0.74505805969E-08  0.10566000000E+00  0.10566000000E+00 0. -1.
     999900   -1    0    0    0    0 -0.00000000000E+00 -0.00000000000E+00 -0.74505805969E-08  0.93827000000E+00  0.93827000000E+00 0. -1.
     999902    2    1    2    0    0 -0.12387957918E-01 -0.72057885757E-02 -0.18991407655E-01  0.10201380170E+01  0.10198605372E+01 0.  0.
     999903    2    3    3    0    0  0.12126053277E+00 -0.23507609897E-01 -0.34667151772E-01  0.12975978423E+00  0.19469608630E-01 0.  0.
         14    1    1    2    0    0  0.12387957918E-01  0.72057885757E-02  0.18991407655E-01  0.23791983000E-01  0.00000000000E+00 0. -1.
     999901    1    3    3    0    0 -0.13364849069E+00  0.16301821321E-01  0.15675744116E-01  0.89037823277E+00  0.88000000000E+00 0. -1.
        -11    1    4    4    0    0  0.77054027935E-01 -0.95111121461E-02 -0.29680515170E-01  0.83120265742E-01  0.51100000000E-03 0.  1.
         11    1    4    4    0    0  0.44206504834E-01 -0.13996497751E-01 -0.49866366015E-02  0.46639518485E-01  0.51100000000E-03 0. -1.
</event>
<event>
 8    1  0.1061722E+005  0.1043930E+01  0.7957747E-01            NaN
         13   -1    0    0    0    0  0.00000000000E+00  0.00000000000E+00  0.74505805969E-08  0.10566000000E+00  0.10566000000E+00 0. -1.
     999900   -1    0    0    0    0 -0.00000000000E+00 -0.00000000000E+00 -0.74505805969E-08  0.93827000000E+00  0.93827000000E+00 0. -1.
     999902    2    1    2    0    0 -0.30621985414E-02  0.14149766060E-01 -0.19489872750E-01  0.10196514482E+01  0.10193623633E+01 0.  0.
     999903    2    3    3    0    0  0.14529948370E-01  0.12837544751E+00 -0.19212762989E-01  0.13209465183E+00  0.19710196749E-01 0.  0.
         14    1    1    2    0    0  0.30621985414E-02 -0.14149766060E-01  0.19489872750E-01  0.24278551836E-01  0.00000000000E+00 0. -1.
     999901    1    3    3    0    0 -0.17592146911E-01 -0.11422568145E+00 -0.27710976054E-03  0.88755679634E+00  0.88000000000E+00 0. -1.
        -11    1    4    4    0    0  0.19351512320E-01  0.10859708191E+00 -0.16989788774E-01  0.11160968270E+00  0.51100000000E-03 0. -1.
         11    1    4    4    0    0 -0.48215639501E-02  0.19778365597E-01 -0.22229742156E-02  0.20484969123E-01  0.51100000000E-03 0.  1.
</event>
<event>
 8    1  0.1061722E+005  0.1043930E+01  0.7957747E-01            NaN
         13   -1    0    0    0    0  0.00000000000E+00  0.00000000000E+00  0.74505805969E-08  0.10566000000E+00  0.10566000000E+00 0.  1.
     999900   -1    0    0    0    0 -0.00000000000E+00 -0.00000000000E+00 -0.74505805969E-08  0.93827000000E+00  0.93827000000E+00 0. -1.
     999902    2    1    2    0    0  0.95118280044E-02 -0.20056616374E-01 -0.11621289653E-01  0.10188741203E+01  0.10185659900E+01 0.  0.
     999903    2    3    3    0    0  0.32713549849E-01  0.10760792878E+00  0.55773744085E-01  0.12680985889E+00  0.17899360375E-01 0.  0.
         14    1    1    2    0    0 -0.95118280044E-02  0.20056616374E-01  0.11621289653E-01  0.25055879660E-01  0.00000000000E+00 0.  1.
     999901    1    3    3    0    0 -0.23201721844E-01 -0.12766454515E+00 -0.67395033738E-01  0.89206426145E+00  0.88000000000E+00 0. -1.
        -11    1    4    4    0    0  0.10361221287E-01  0.58211928497E-01  0.22941248739E-01  0.63423540902E-01  0.51100000000E-03 0.  1.
         11    1    4    4    0    0  0.22352328561E-01  0.49396000284E-01  0.32832495347E-01  0.63386317986E-01  0.51100000000E-03 0. -1.
</event>
<event>
 8    1  0.1061722E+005  0.1043930E+01  0.7957747E-01            NaN
         13   -1    0    0    0    0  0.00000000000E+00  0.00000000000E+00  0.74505805969E-08  0.10566000000E+00  0.10566000000E+00 0. -1.
     999900   -1    0    0    0    0 -0.00000000000E+00 -0.00000000000E+00 -0.74505805969E-08  0.93827000000E+00  0.93827000000E+00 0.  1.
     999902    2    1    2    0    0 -0.81558549409E-02 -0.22188738931E-01 -0.36885384210E-03  0.10202869427E+01  0.10200129662E+01 0.  0.
     999903    2    3    3    0    0 -0.62669700272E-01 -0.52252864165E-01 -0.10222291967E+00  0.13222733790E+00  0.19408514559E-01 0.  0.
         14    1    1    2    0    0  0.81558549409E-02  0.22188738931E-01  0.36885384210E-03  0.23643057297E-01  0.00000000000E+00 0.  1.
     999901    1    3    3    0    0  0.54513845331E-01  0.30064125234E-01  0.10185406582E+00  0.88805960480E+00  0.88000000000E+00 0. -1.
        -11    1    4    4    0    0 -0.21766302966E-01 -0.20375150757E-01 -0.52519905026E-01  0.60394703892E-01  0.51100000000E-03 0. -1.
         11    1    4    4    0    0 -0.40903397305E-01 -0.31877713408E-01 -0.49703014640E-01  0.71832634008E-01  0.51100000000E-03 0.  1.
</event>
<event>
 8    1  0.1061722E+005  0.1043930E+01  0.7957747E-01            NaN
         13   -1    0    0    0    0  0.00000000000E+00  0.00000000000E+00  0.74505805969E-08  0.10566000000E+00  0.10566000000E+00 0.  1.
     999900   -1    0    0    0    0 -0.00000000000E+00 -0.00000000000E+00 -0.74505805969E-08  0.93827000000E+00  0.93827000000E+00 0. -1.
     999902    2    1    2    0    0  0.50028759765E-02  0.19253270446E-02 -0.23362699352E-01  0.10199601987E+01  0.10196785060E+01 0.  0.
     999903    2    3    3    0    0  0.27431120292E-01 -0.11706386531E+00 -0.49543370956E-01  0.13128315862E+00  0.18008531616E-01 0.  0.
         14    1    1    2    0    0 -0.50028759765E-02 -0.19253270446E-02  0.23362699352E-01  0.23969801277E-01  0.00000000000E+00 0.  1.
     999901    1    3    3    0    0 -0.22428244315E-01  0.11898919235E+00  0.26180671604E-01  0.88867704010E+00  0.88000000000E+00 0. -1.
        -11    1    4    4    0    0  0.71306662910E-02 -0.65437902128E-01 -0.31252864447E-01  0.72869527882E-01  0.51100000000E-03 0.  1.
         11    1    4    4    0    0  0.20300454001E-01 -0.51625963178E-01 -0.18290506509E-01  0.58413630738E-01  0.51100000000E-03 0. -1.
</event>
<event>
 8    1  0.1061722E+005  0.1043930E+01  0.7957747E-01            NaN
         13   -1    0    0    0    0  0.00000000000E+00  0.00000000000E+00  0.74505805969E-08  0.10566000000E+00  0.10566000000E+00 0.  1.
     999900   -1    0    0    0    0 -0.00000000000E+00 -0.00000000000E+00 -0.74505805969E-08  0.93827000000E+00  0.93827000000E+00 0.  1.
     999902    2    1    2    0    0 -0.23215508420E-02 -0.17382409824E-01  0.16624699181E-01  0.10197655966E+01  0.10194792561E+01 0.  0.
     999903    2    3    3    0    0  0.49053198079E-01 -0.11936614068E+00  0.21927021245E-01  0.13237156865E+00  0.19670946703E-01 0.  0.
         14    1    1    2    0    0  0.23215508420E-02  0.17382409824E-01 -0.16624699181E-01  0.24164403416E-01  0.00000000000E+00 0.  1.
     999901    1    3    3    0    0 -0.51374748921E-01  0.10198373086E+00 -0.53023220639E-02  0.88739402793E+00  0.88000000000E+00 0. -1.
        -11    1    4    4    0    0  0.28062658425E-01 -0.83033842567E-01  0.73834900721E-02  0.87959700181E-01  0.51100000000E-03 0. -1.
         11    1    4    4    0    0  0.20990539655E-01 -0.36332298115E-01  0.14543531173E-01  0.44411868473E-01  0.51100000000E-03 0.  1.
</event>
<event>
 8    1  0.1061722E+005  0.1043930E+01  0.7957747E-01            NaN
         13   -1    0    0    0    0  0.00000000000E+00  0.00000000000E+00  0.74505805969E-08  0.10566000000E+00  0.10566000000E+00 0.  1.
     999900   -1    0    0    0    0 -0.00000000000E+00 -0.00000000000E+00 -0.74505805969E-08  0.93827000000E+00  0.93827000000E+00 0. -1.
     999902    2    1    2    0    0 -0.17554527431E-01 -0.18389698520E-01  0.46047752438E-03  0.10185025643E+01  0.10181851104E+01 0.  0.
     999903    2    3    3    0    0 -0.93593228307E-01  0.20144570143E-01  0.86039624362E-01  0.13025115608E+00  0.19926128795E-01 0.  0.
         14    1    1    2    0    0  0.17554527431E-01  0.18389698520E-01 -0.46047752438E-03  0.25427435666E-01  0.00000000000E+00 0.  1.
     999901    1    3    3    0    0  0.76038700876E-01 -0.38534268663E-01 -0.85579146837E-01  0.88825140825E+00  0.88000000000E+00 0.  1.
        -11    1    4    4    0    0 -0.77413435225E-01  0.12888462851E-01  0.60210116214E-01  0.98916488229E-01  0.51100000000E-03 0.  1.
         11    1    4    4    0    0 -0.16179793082E-01  0.72561072923E-02  0.25829508148E-01  0.31334667851E-01  0.51100000000E-03 0. -1.
</event>
<event>
 8    1  0.1061722E+005  0.1043930E+01  0.7957747E-01            NaN
         13   -1    0    0    0    0  0.00000000000E+00  0.00000000000E+00  0.74505805969E-08  0.10566000000E+00  0.10566000000E+00 0.  1.
     999900   -1    0    0    0    0 -0.00000000000E+00 -0.00000000000E+00 -0.74505805969E-08  0.93827000000E+00  0.93827000000E+00 0. -1.
     999902    2    1    2    0    0  0.14746953348E-01 -0.18204269208E-01  0.46081071294E-02  0.10200531765E+01  0.10197736906E+01 0.  0.
     999903    2    3    3    0    0 -0.94340151658E-01  0.78718116700E-01  0.28639853915E-01  0.12771273123E+00  0.19841733128E-01 0.  0.
         14    1    1    2    0    0 -0.14746953348E-01  0.18204269208E-01 -0.46081071294E-02  0.23876823527E-01  0.00000000000E+00 0. -1.
     999901    1    3    3    0    0  0.10908710501E+00 -0.96922385908E-01 -0.24031746785E-01  0.89234044525E+00  0.88000000000E+00 0.  1.
        -11    1    4    4    0    0 -0.57238815388E-01  0.34940870474E-01  0.14596032714E-01  0.68632730592E-01  0.51100000000E-03 0.  1.
         11    1    4    4    0    0 -0.37101336270E-01  0.43777246225E-01  0.14043821200E-01  0.59080000635E-01  0.51100000000E-03 0. -1.
</event>
<event>
 8    1  0.1061722E+005  0.1043930E+01  0.7957747E-01            NaN
         13   -1    0    0    0    0  0.00000000000E+00  0.00000000000E+00  0.74505805969E-08  0.10566000000E+00  0.10566000000E+00 0.  1.
     999900   -1    0    0    0    0 -0.00000000000E+00 -0.00000000000E+00 -0.74505805969E-08  0.93827000000E+00  0.93827000000E+00 0. -1.
     999902    2    1    2    0    0 -0.86004948874E-02 -0.20913746059E-01  0.75620643294E-02  0.10200859629E+01  0.10198072532E+01 0.  0.
     999903    2    3    3    0    0 -0.47855212986E-01  0.11566879752E+00 -0.20225551779E-01  0.12825196734E+00  0.19238036582E-01 0.  0.
         14    1    1    2    0    0  0.86004948874E-02  0.20913746059E-01 -0.75620643294E-02  0.23844037063E-01  0.00000000000E+00 0. -1.
     999901    1    3    3    0    0  0.39254718099E-01 -0.13658254358E+00  0.27787616109E-01  0.89183399560E+00  0.88000000000E+00 0.  1.
        -11    1    4    4    0    0 -0.36142049497E-01  0.77746809165E-01 -0.22011368812E-01  0.88518786453E-01  0.51100000000E-03 0. -1.
         11    1    4    4    0    0 -0.11713163489E-01  0.37921988352E-01  0.17858170329E-02  0.39733180882E-01  0.51100000000E-03 0.  1.
</event>
<event>
 8    1  0.1061722E+005  0.1043930E+01  0.7957747E-01            NaN
         13   -1    0    0    0    0  0.00000000000E+00  0.00000000000E+00  0.74505805969E-08  0.10566000000E+00  0.10566000000E+00 0. -1.
     999900   -1    0    0    0    0 -0.00000000000E+00 -0.00000000000E+00 -0.74505805969E-08  0.93827000000E+00  0.93827000000E+00 0.  1.
     999902    2    1    2    0    0  0.22943404177E-01 -0.18674219290E-02  0.34725722843E-02  0.10206502702E+01  0.10203847452E+01 0.  0.
     999903    2    3    3    0    0  0.13180305016E+00 -0.12496878502E-01  0.13249249695E-02  0.13387633046E+00  0.19821716064E-01 0.  0.
         14    1    1    2    0    0 -0.22943404177E-01  0.18674219290E-02 -0.34725722843E-02  0.23279729770E-01  0.00000000000E+00 0.  1.
     999901    1    3    3    0    0 -0.10885964598E+00  0.10629456573E-01  0.21476473148E-02  0.88677393977E+00  0.88000000000E+00 0.  1.
        -11    1    4    4    0    0  0.58922894655E-01  0.42712601436E-02  0.11014174934E-02  0.59089977316E-01  0.51100000000E-03 0.  1.
         11    1    4    4    0    0  0.72880155503E-01 -0.16768138646E-01  0.22350747605E-03  0.74786353142E-01  0.51100000000E-03 0. -1.
</event>
<event>
 8    1  0.1061722E+005  0.1043930E+01  0.7957747E-01            NaN
         13   -1    0    0    0    0  0.00000000000E+00  0.00000000000E+00  0.74505805969E-08  0.10566000000E+00  0.10566000000E+00 0. -1.
     999900   -1    0    0    0    0 -0.00000000000E+00 -0.00000000000E+00 -0.74505805969E-08  0.93827000000E+00  0.93827000000E+00 0. -1.
     999902    2    1    2    0    0  0.16405722126E-01 -0.16810701515E-01  0.32506385446E-03  0.10204384468E+01  0.10201680110E+01 0.  0.
     999903    2    3    3    0    0 -0.12456845688E+00 -0.15486071067E-01 -0.21350619248E-01  0.12895355687E+00  0.20397353728E-01 0.  0.
         14    1    1    2    0    0 -0.16405722126E-01  0.16810701515E-01 -0.32506385446E-03  0.23491553171E-01  0.00000000000E+00 0.  1.
     999901    1    3    3    0    0  0.14097417901E+00 -0.13246304478E-02  0.21675683102E-01  0.89148488996E+00  0.88000000000E+00 0.  1.
        -11    1    4    4    0    0 -0.41624750844E-01 -0.12277650031E-01 -0.14084271444E-01  0.45628811032E-01  0.51100000000E-03 0. -1.
         11    1    4    4    0    0 -0.82943706039E-01 -0.32084210362E-02 -0.72663478032E-02  0.83324745835E-01  0.51100000000E-03 0.  1.
</event>
<event>
 8    1  0.1061722E+005  0.1043930E+01  0.7957747E-01            NaN
         13   -1    0    0    0    0  0.00000000000E+00  0.00000000000E+00  0.74505805969E-08  0.10566000000E+00  0.10566000000E+00 0.  1.
     999900   -1    0    0    0    0 -0.00000000000E+00 -0.00000000000E+00 -0.74505805969E-08  0.93827000000E+00  0.93827000000E+00 0. -1.
     999902    2    1    2    0    0 -0.84735910197E-02  0.18503117966E-01  0.91349241355E-02  0.10216227375E+01  0.10213791676E+01 0.  0.
     999903    2    3    3    0    0  0.11131784611E+00  0.43585236822E-01 -0.49987615702E-01  0.13118768892E+00  0.20496640449E-01 0.  0.
         14    1    1    2    0    0  0.84735910197E-02 -0.18503117966E-01 -0.91349241355E-02  0.22307262454E-01  0.00000000000E+00 0. -1.
     999901    1    3    3    0    0 -0.11979143713E+00 -0.25082118856E-01  0.59122539837E-01  0.89043504862E+00  0.88000000000E+00 0.  1.
        -11    1    4    4    0    0  0.72121916240E-01  0.38272491282E-01 -0.35947384308E-01  0.89212274664E-01  0.51100000000E-03 0. -1.
         11    1    4    4    0    0  0.39195929873E-01  0.53127455403E-02 -0.14040231394E-01  0.41975414261E-01  0.51100000000E-03 0.  1.
</event>
<event>
 8    1  0.1061722E+005  0.1043930E+01  0.7957747E-01            NaN
         13   -1    0    0    0    0  0.00000000000E+00  0.00000000000E+00  0.74505805969E-08  0.10566000000E+00  0.10566000000E+00 0. -1.
     999900   -1    0    0    0    0 -0.00000000000E+00 -0.00000000000E+00 -0.74505805969E-08  0.93827000000E+00  0.93827000000E+00 0.  1.
     999902    2    1    2    0    0 -0.14588500842E-01  0.17775880876E-01 -0.41179151958E-02  0.10205684178E+01  0.10203010006E+01 0.  0.
     999903    2    3    3    0    0  0.65714057008E-01  0.16326968074E-01  0.10854407860E+00  0.12975793009E+00  0.21688620252E-01 0.  0.
         14    1    1    2    0    0  0.14588500842E-01 -0.17775880876E-01  0.41179151958E-02  0.23361582208E-01  0.00000000000E+00 0. -1.
     999901    1    3    3    0    0 -0.80302557850E-01  0.14489128019E-02 -0.11266199380E+00  0.89081048770E+00  0.88000000000E+00 0.  1.
        -11    1    4    4    0    0  0.67237881552E-01  0.14880145916E-01  0.10412979004E+00  0.12484240367E+00  0.51100000000E-03 0.  1.
         11    1    4    4    0    0 -0.15238245439E-02  0.14468221573E-02  0.44142885545E-02  0.49155264253E-02  0.51100000000E-03 0. -1.
</event>
<event>
 8    1  0.1061722E+005  0.1043930E+01  0.7957747E-01            NaN
         13   -1    0    0    0    0  0.00000000000E+00  0.00000000000E+00  0.74505805969E-08  0.10566000000E+00  0.10566000000E+00 0. -1.
     999900   -1    0    0    0    0 -0.00000000000E+00 -0.00000000000E+00 -0.74505805969E-08  0.93827000000E+00  0.93827000000E+00 0. -1.
     999902    2    1    2    0    0 -0.12319306811E-02  0.68895107293E-02  0.22723602310E-01  0.10201530129E+01  0.10198758869E+01 0.  0.
     999903    2    3    3    0    0 -0.69252515760E-01  0.22228201401E-01 -0.10376956608E+00  0.12837804297E+00  0.20561984254E-01 0.  0.
         14    1    1    2    0    0  0.12319306811E-02 -0.68895107293E-02 -0.22723602310E-01  0.23776987052E-01  0.00000000000E+00 0.  1.
     999901    1    3    3    0    0  0.68020585079E-01 -0.15338690671E-01  0.12649316839E+00  0.89177496998E+00  0.88000000000E+00 0.  1.
        -11    1    4    4    0    0 -0.38357440660E-01  0.15653435908E-02 -0.54153988639E-01  0.66382672144E-01  0.51100000000E-03 0.  1.
         11    1    4    4    0    0 -0.30895075100E-01  0.20662857810E-01 -0.49615577441E-01  0.61995370828E-01  0.51100000000E-03 0. -1.
</event>
<event>
 8    1  0.1061722E+005  0.1043930E+01  0.7957747E-01            NaN
         13   -1    0    0    0    0  0.00000000000E+00  0.00000000000E+00  0.74505805969E-08  0.10566000000E+00  0.10566000000E+00 0. -1.
     999900   -1    0    0    0    0 -0.00000000000E+00 -0.00000000000E+00 -0.74505805969E-08  0.93827000000E+00  0.93827000000E+00 0. -1.
     999902    2    1    2    0    0  0.17201261838E-01  0.12403995251E-01  0.10553259757E-01  0.10202421593E+01  0.10199671317E+01 0.  0.
     999903    2    3    3    0    0  0.65737688731E-01  0.18599819303E-01  0.11235217458E+00  0.13302336324E+00  0.20119817007E-01 0.  0.
         14    1    1    2    0    0 -0.17201261838E-01 -0.12403995251E-01 -0.10553259757E-01  0.23687840731E-01  0.00000000000E+00 0. -1.
     999901    1    3    3    0    0 -0.48536426892E-01 -0.61958240517E-02 -0.10179891482E+00  0.88721879603E+00  0.88000000000E+00 0. -1.
        -11    1    4    4    0    0  0.17830345851E-01  0.62454251701E-02  0.49821434296E-01  0.53285673544E-01  0.51100000000E-03 0.  1.
         11    1    4    4    0    0  0.47907342880E-01  0.12354394132E-01  0.62530740285E-01  0.79737689694E-01  0.51100000000E-03 0. -1.
</event>
<event>
 8    1  0.1061722E+005  0.1043930E+01  0.7957747E-01            NaN
         13   -1    0    0    0    0  0.00000000000E+00  0.00000000000E+00  0.74505805969E-08  0.10566000000E+00  0.10566000000E+00 0.  1.
     999900   -1    0    0    0    0 -0.00000000000E+00 -0.00000000000E+00 -0.74505805969E-08  0.93827000000E+00  0.93827000000E+00 0. -1.
     999902    2    1    2    0    0 -0.22101195050E-01  0.75131316713E-02  0.37210752424E-02  0.10202919719E+01  0.10200181134E+01 0.  0.
     999903    2    3    3    0    0  0.56194102352E-01 -0.11368721434E+00  0.54617646199E-02  0.12853936752E+00  0.20247920552E-01 0.  0.
         14    1    1    2    0    0  0.22101195050E-01 -0.75131316713E-02 -0.37210752424E-02  0.23638028072E-01  0.00000000000E+00 0. -1.
     999901    1    3    3    0    0 -0.78295297402E-01  0.12120034601E+00 -0.17406893775E-02  0.89175260441E+00  0.88000000000E+00 0.  1.
        -11    1    4    4    0    0  0.27902871469E-01 -0.60096227289E-01 -0.71304962362E-02  0.66642567989E-01  0.51100000000E-03 0. -1.
         11    1    4    4    0    0  0.28291230883E-01 -0.53590987049E-01  0.12592260856E-01  0.61896799532E-01  0.51100000000E-03 0.  1.
</event>
<event>
 8    1  0.1061722E+005  0.1043930E+01  0.7957747E-01            NaN
         13   -1    0    0    0    0  0.00000000000E+00  0.00000000000E+00  0.74505805969E-08  0.10566000000E+00  0.10566000000E+00 0.  1.
     999900   -1    0    0    0    0 -0.00000000000E+00 -0.00000000000E+00 -0.74505805969E-08  0.93827000000E+00  0.93827000000E+00 0.  1.
     999902    2    1    2    0    0  0.41155094815E-02 -0.21734527585E-01 -0.53449609506E-02  0.10211726778E+01  0.10209190674E+01 0.  0.
     999903    2    3    3    0    0  0.56186093406E-01 -0.33166481283E-01  0.11236048767E+00  0.13173655982E+00  0.21742801812E-01 0.  0.
         14    1    1    2    0    0 -0.41155094815E-02  0.21734527585E-01  0.53449609506E-02  0.22757322233E-01  0.00000000000E+00 0.  1.
     999901    1    3    3    0    0 -0.52070583924E-01  0.11431953698E-01 -0.11770544862E+00  0.88943611795E+00  0.88000000000E+00 0.  1.
        -11    1    4    4    0    0  0.28032282540E-01 -0.44677313897E-02  0.51189596608E-01  0.58535505551E-01  0.51100000000E-03 0.  1.
         11    1    4    4    0    0  0.28153810866E-01 -0.28698749893E-01  0.61170891062E-01  0.73201054268E-01  0.51100000000E-03 0. -1.
</event>
<event>
 8    1  0.1061722E+005  0.1043930E+01  0.7957747E-01            NaN
         13   -1    0    0    0    0  0.00000000000E+00  0.00000000000E+00  0.74505805969E-08  0.10566000000E+00  0.10566000000E+00 0.  1.
     999900   -1    0    0    0    0 -0.00000000000E+00 -0.00000000000E+00 -0.74505805969E-08  0.93827000000E+00  0.93827000000E+00 0. -1.
     999902    2    1    2    0    0 -0.22575499734E-02 -0.22213618822E-01 -0.46202801667E-02  0.10211289390E+01  0.10208743418E+01 0.  0.
     999903    2    3    3    0    0 -0.81491839542E-01  0.56694825943E-01 -0.83252636360E-01  0.13057424517E+00  0.16229874915E-01 0.  0.
         14    1    1    2    0    0  0.22575499734E-02  0.22213618822E-01  0.46202801667E-02  0.22801060981E-01  0.00000000000E+00 0. -1.
     999901    1    3    3    0    0  0.79234289569E-01 -0.78908444765E-01  0.78632356193E-01  0.89055469385E+00  0.88000000000E+00 0.  1.
        -11    1    4    4    0    0 -0.58121628943E-01  0.31741312231E-01 -0.51230213634E-01  0.83728313987E-01  0.51100000000E-03 0.  1.
         11    1    4    4    0    0 -0.23370210599E-01  0.24953513712E-01 -0.32022422725E-01  0.46845931181E-01  0.51100000000E-03 0. -1.
</event>
<event>
 8    1  0.1061722E+005  0.1043930E+01  0.7957747E-01            NaN
         13   -1    0    0    0    0  0.00000000000E+00  0.00000000000E+00  0.74505805969E-08  0.10566000000E+00  0.10566000000E+00 0. -1.
     999900   -1    0    0    0    0 -0.00000000000E+00 -0.00000000000E+00 -0.74505805969E-08  0.93827000000E+00  0.93827000000E+00 0. -1.
     999902    2    1    2    0    0  0.16906912981E-02 -0.23583657096E-01  0.45064737812E-02  0.10198601927E+01  0.10195761163E+01 0.  0.
     999903    2    3    3    0    0  0.18644292425E-01 -0.95149512287E-01 -0.86333654950E-01  0.13213217959E+00  0.24584010593E-01 0.  0.
         14    1    1    2    0    0 -0.16906912981E-02  0.23583657096E-01 -0.45064737812E-02  0.24069807333E-01  0.00000000000E+00 0.  1.
     999901    1    3    3    0    0 -0.16953601126E-01  0.71565855191E-01  0.90840128731E-01  0.88772801308E+00  0.88000000000E+00 0.  1.
        -11    1    4    4    0    0  0.18127534538E-01 -0.34275217088E-01 -0.39211466355E-01  0.55147060027E-01  0.51100000000E-03 0.  1.
         11    1    4    4    0    0  0.51675788619E-03 -0.60874295199E-01 -0.47122188595E-01  0.76985119560E-01  0.51100000000E-03 0. -1.
</event>
<event>
 8    1  0.1061722E+005  0.1043930E+01  0.7957747E-01            NaN
         13   -1    0    0    0    0  0.00000000000E+00  0.00000000000E+00  0.74505805969E-08  0.10566000000E+00  0.10566000000E+00 0. -1.
     999900   -1    0    0    0    0 -0.00000000000E+00 -0.00000000000E+00 -0.74505805969E-08  0.93827000000E+00  0.93827000000E+00 0. -1.
     999902    2    1    2    0    0  0.52559180061E-02 -0.23158350279E-01 -0.16007997050E-02  0.10201288147E+01  0.10198511176E+01 0.  0.
     999903    2    3    3    0    0  0.10888130737E+00 -0.21302051752E-02 -0.70299107261E-01  0.13114070361E+00  0.19905848198E-01 0.  0.
         14    1    1    2    0    0 -0.52559180061E-02  0.23158350279E-01  0.16007997050E-02  0.23801185295E-01  0.00000000000E+00 0. -1.
     999901    1    3    3    0    0 -0.10362538937E+00 -0.21028145104E-01  0.68698307556E-01  0.88898811110E+00  0.88000000000E+00 0.  1.
        -11    1    4    4    0    0  0.39918481224E-01  0.45906923957E-02 -0.16605852044E-01  0.43480743358E-01  0.51100000000E-03 0.  1.
         11    1    4    4    0    0  0.68962826148E-01 -0.67208975709E-02 -0.53693255217E-01  0.87659960252E-01  0.51100000000E-03 0. -1.
</event>
<event>
 8    1  0.1061722E+005  0.1043930E+01  0.7957747E-01            NaN
         13   -1    0    0    0    0  0.00000000000E+00  0.00000000000E+00  0.74505805969E-08  0.10566000000E+00  0.10566000000E+00 0.  1.
     999900   -1    0    0    0    0 -0.00000000000E+00 -0.00000000000E+00 -0.74505805969E-08  0.93827000000E+00  0.93827000000E+00 0. -1.
     999902    2    1    2    0    0 -0.76032945968E-02 -0.14690402094E-01 -0.17403721701E-01  0.10199194288E+01  0.10196367655E+01 0.  0.
     999903    2    3    3    0    0  0.75548303641E-01  0.10022751783E+00 -0.19423847097E-01  0.12855844828E+00  0.19922029851E-01 0.  0.
         14    1    1    2    0    0  0.76032945968E-02  0.14690402094E-01  0.17403721701E-01  0.24010571244E-01  0.00000000000E+00 0. -1.
     999901    1    3    3    0    0 -0.83151598238E-01 -0.11491791993E+00  0.20201253960E-02  0.89136098048E+00  0.88000000000E+00 0. -1.
        -11    1    4    4    0    0  0.20276400324E-01  0.41943829919E-01 -0.10306353854E-01  0.47716866296E-01  0.51100000000E-03 0.  1.
         11    1    4    4    0    0  0.55271903317E-01  0.58283687916E-01 -0.91174932430E-02  0.80841581983E-01  0.51100000000E-03 0. -1.
</event>
<event>
 8    1  0.1061722E+005  0.1043930E+01  0.7957747E-01            NaN
         13   -1    0    0    0    0  0.00000000000E+00  0.00000000000E+00  0.74505805969E-08  0.10566000000E+00  0.10566000000E+00 0. -1.
     999900   -1    0    0    0    0 -0.00000000000E+00 -0.00000000000E+00 -0.74505805969E-08  0.93827000000E+00  0.93827000000E+00 0.  1.
     999902    2    1    2    0    0 -0.22797831734E-01  0.65258740467E-02 -0.24234535562E-04  0.10202165281E+01  0.10199408980E+01 0.  0.
     999903    2    3    3    0    0 -0.10917949804E+00 -0.45125201168E-01 -0.56668332713E-01  0.13267037169E+00  0.20825009476E-01 0.  0.
         14    1    1    2    0    0  0.22797831734E-01 -0.65258740467E-02  0.24234535562E-04  0.23713471934E-01  0.00000000000E+00 0.  1.
     999901    1    3    3    0    0  0.86381666302E-01  0.51651075215E-01  0.56644098177E-01  0.88754615638E+00  0.88000000000E+00 0.  1.
        -11    1    4    4    0    0 -0.26421076907E-01 -0.20213017101E-01 -0.11888373454E-01  0.35330353942E-01  0.51100000000E-03 0.  1.
         11    1    4    4    0    0 -0.82758421129E-01 -0.24912184067E-01 -0.44779959258E-01  0.97340017746E-01  0.51100000000E-03 0. -1.
</event>
<event>
 8    1  0.1061722E+005  0.1043930E+01  0.7957747E-01            NaN
         13   -1    0    0    0    0  0.00000000000E+00  0.00000000000E+00  0.74505805969E-08  0.10566000000E+00  0.10566000000E+00 0.  1.
     999900   -1    0    0    0    0 -0.00000000000E+00 -0.00000000000E+00 -0.74505805969E-08  0.93827000000E+00  0.93827000000E+00 0.  1.
     999902    2    1    2    0    0  0.13147300903E-01 -0.17762901935E-01 -0.48248640056E-02  0.10213102847E+01  0.10210597662E+01 0.  0.
     999903    2    3    3    0    0 -0.10332382462E-01  0.12138172727E+00 -0.42504283056E-01  0.12927202211E+00  0.80224546251E-02 0.  0.
         14    1    1    2    0    0 -0.13147300903E-01  0.17762901935E-01  0.48248640056E-02  0.22619715269E-01  0.00000000000E+00 0. -1.
     999901    1    3    3    0    0  0.23479683365E-01 -0.13914462921E+00  0.37679419051E-01  0.89203826263E+00  0.88000000000E+00 0.  1.
        -11    1    4    4    0    0 -0.11088828081E-01  0.10952599755E+00 -0.39935942216E-01  0.11710698890E+00  0.51100000000E-03 0. -1.
         11    1    4    4    0    0  0.75644561883E-03  0.11855729723E-01 -0.25683408398E-02  0.12165033206E-01  0.51100000000E-03 0.  1.
</event>
<event>
 8    1  0.1061722E+005  0.1043930E+01  0.7957747E-01            NaN
         13   -1    0    0    0    0  0.00000000000E+00  0.00000000000E+00  0.74505805969E-08  0.10566000000E+00  0.10566000000E+00 0. -1.
     999900   -1    0    0    0    0 -0.00000000000E+00 -0.00000000000E+00 -0.74505805969E-08  0.93827000000E+00  0.93827000000E+00 0.  1.
     999902    2    1    2    0    0  0.65466547302E-02  0.15781390797E-01 -0.17165901436E-01  0.10197106037E+01  0.10194229427E+01 0.  0.
     999903    2    3    3    0    0 -0.27028469343E-01  0.11176752275E+00 -0.63023341800E-01  0.13266859158E+00  0.20161752941E-01 0.  0.
         14    1    1    2    0    0 -0.65466547302E-02 -0.15781390797E-01  0.17165901436E-01  0.24219396272E-01  0.00000000000E+00 0.  1.
     999901    1    3    3    0    0  0.33575124074E-01 -0.95986131958E-01  0.45857440364E-01  0.88704201215E+00  0.88000000000E+00 0.  1.
        -11    1    4    4    0    0 -0.83211418539E-03  0.18651988543E-01 -0.32476206475E-02  0.18957775489E-01  0.51100000000E-03 0.  1.
         11    1    4    4    0    0 -0.26196355158E-01  0.93115534211E-01 -0.59775721153E-01  0.11371081609E+00  0.51100000000E-03 0. -1.
</event>
<event>
 8    1  0.1061722E+005  0.1043930E+01  0.7957747E-01            NaN
         13   -1    0    0    0    0  0.00000000000E+00  0.00000000000E+00  0.74505805969E-08  0.10566000000E+00  0.10566000000E+00 0. -1.
     999900   -1    0    0    0    0 -0.00000000000E+00 -0.00000000000E+00 -0.74505805969E-08  0.93827000000E+00  0.93827000000E+00 0.  1.
     999902    2    1    2    0    0  0.16623206921E-01  0.11931242194E-01  0.83762899306E-02  0.10218200977E+01  0.10215808652E+01 0.  0.
     999903    2    3    3    0    0  0.26753554601E-01 -0.34020602370E-01  0.12421596765E+00  0.13298207704E+00  0.19531311363E-01 0.  0.
         14    1    1    2    0    0 -0.16623206921E-01 -0.11931242194E-01 -0.83762899306E-02  0.22109902343E-01  0.00000000000E+00 0.  1.
     999901    1    3    3    0    0 -0.10130347680E-01  0.45951844565E-01 -0.11583967772E+00  0.88883802062E+00  0.88000000000E+00 0.  1.
        -11    1    4    4    0    0 -0.35290174112E-03 -0.28644549434E-02  0.29602193750E-01  0.29746943332E-01  0.51100000000E-03 0. -1.
         11    1    4    4    0    0  0.27106456342E-01 -0.31156147427E-01  0.94613773904E-01  0.10323513371E+00  0.51100000000E-03 0.  1.
</event>
<event>
 7    1  0.1061722E+005  0.1043930E+01  0.7957747E-01            NaN
         13   -1    0    0    0    0  0.00000000000E+00  0.00000000000E+00  0.74505805969E-08  0.10566000000E+00  0.10566000000E+00 0. -1.
     999900   -1    0    0    0    0 -0.00000000000E+00 -0.00000000000E+00 -0.74505805969E-08  0.93827000000E+00  0.93827000000E+00 0. -1.
     999903    2    1    2    0    0 -0.21277817377E-02  0.98384456885E-01 -0.56922088097E-01  0.11542690055E+00  0.19980401542E-01 0.  0.
         14    1    1    2    0    0  0.45850334411E-02 -0.19579118901E-01 -0.34839014864E-01  0.40225879547E-01  0.00000000000E+00 0.  1.
     999901    1    1    2    0    0 -0.24572517033E-02 -0.78805337984E-01  0.91761102961E-01  0.88827721990E+00  0.88000000000E+00 0.  1.
        -11    1    3    3    0    0 -0.10133339669E-01  0.70694551412E-01 -0.37490849671E-01  0.80661199484E-01  0.51100000000E-03 0.  1.
         11    1    3    3    0    0  0.80055579309E-02  0.27689905473E-01 -0.19431238426E-01  0.34765701066E-01  0.51100000000E-03 0. -1.
</event>
<event>
 7    1  0.1061722E+005  0.1043930E+01  0.7957747E-01            NaN
         13   -1    0    0    0    0  0.00000000000E+00  0.00000000000E+00  0.74505805969E-08  0.10566000000E+00  0.10566000000E+00 0. -1.
     999900   -1    0    0    0    0 -0.00000000000E+00 -0.00000000000E+00 -0.74505805969E-08  0.93827000000E+00  0.93827000000E+00 0. -1.
     999903    2    1    2    0    0  0.95811302943E-02  0.67954369345E-03  0.75676403034E-01  0.78786622023E-01  0.19701624204E-01 0.  0.
         14    1    1    2    0    0  0.32177953641E-01 -0.69288733013E-01 -0.23575737838E-01  0.79951013988E-01  0.00000000000E+00 0. -1.
     999901    1    1    2    0    0 -0.41759083936E-01  0.68609189320E-01 -0.52100665196E-01  0.88519236399E+00  0.88000000000E+00 0. -1.
        -11    1    3    3    0    0  0.53948281726E-03  0.49430959524E-02  0.59864394883E-01  0.60072723719E-01  0.51100000000E-03 0. -1.
         11    1    3    3    0    0  0.90416474771E-02 -0.42635522590E-02  0.15812008151E-01  0.18713898304E-01  0.51100000000E-03 0.  1.
</event>
<event>
 8    1  0.1061722E+005  0.1043930E+01  0.7957747E-01            NaN
         13   -1    0    0    0    0  0.00000000000E+00  0.00000000000E+00  0.74505805969E-08  0.10566000000E+00  0.10566000000E+00 0.  1.
     999900   -1    0    0    0    0 -0.00000000000E+00 -0.00000000000E+00 -0.74505805969E-08  0.93827000000E+00  0.93827000000E+00 0.  1.
     999902    2    1    2    0    0  0.22847914210E-01 -0.92207927050E-03 -0.75523651908E-02  0.10198485625E+01  0.10195642082E+01 0.  0.
     999903    2    3    3    0    0  0.53940984999E-01 -0.91982510904E-01 -0.75294693941E-01  0.13201535495E+00  0.19706618973E-01 0.  0.
         14    1    1    2    0    0 -0.22847914210E-01  0.92207927050E-03  0.75523651908E-02  0.24081437538E-01  0.00000000000E+00 0. -1.
     999901    1    3    3    0    0 -0.31093070789E-01  0.91060431634E-01  0.67742328751E-01  0.88783320751E+00  0.88000000000E+00 0. -1.
        -11    1    4    4    0    0  0.39492010401E-02 -0.22220832070E-01 -0.14297882873E-01  0.26721754104E-01  0.51100000000E-03 0. -1.
         11    1    4    4    0    0  0.49991783959E-01 -0.69761678834E-01 -0.60996811068E-01  0.10529360084E+00  0.51100000000E-03 0.  1.
</event>
<event>
 8    1  0.1061722E+005  0.1043930E+01  0.7957747E-01            NaN
         13   -1    0    0    0    0  0.00000000000E+00  0.00000000000E+00  0.74505805969E-08  0.10566000000E+00  0.10566000000E+00 0. -1.
     999900   -1    0    0    0    0 -0.00000000000E+00 -0.00000000000E+00 -0.74505805969E-08  0.93827000000E+00  0.93827000000E+00 0.  1.
     999902    2    1    2    0    0 -0.14970833518E-02  0.20240724556E-01 -0.13324882148E-01  0.10196507769E+01  0.10193616759E+01 0.  0.
     999903    2    3    3    0    0  0.92269550684E-01  0.26121276156E-01 -0.87759802706E-01  0.13152504261E+00  0.20026552648E-01 0.  0.
         14    1    1    2    0    0  0.14970833518E-02 -0.20240724556E-01  0.13324882148E-01  0.24279223080E-01  0.00000000000E+00 0.  1.
     999901    1    3    3    0    0 -0.93766634036E-01 -0.58805515998E-02  0.74434920558E-01  0.88812573431E+00  0.88000000000E+00 0.  1.
        -11    1    4    4    0    0  0.28219862213E-01  0.16060311752E-02 -0.35030930104E-01  0.45015187931E-01  0.51100000000E-03 0.  1.
         11    1    4    4    0    0  0.64049688471E-01  0.24515244981E-01 -0.52728872602E-01  0.86509854679E-01  0.51100000000E-03 0. -1.
</event>
<event>
 8    1  0.1061722E+005  0.1043930E+01  0.7957747E-01            NaN
         13   -1    0    0    0    0  0.00000000000E+00  0.00000000000E+00  0.74505805969E-08  0.10566000000E+00  0.10566000000E+00 0.  1.
     999900   -1    0    0    0    0 -0.00000000000E+00 -0.00000000000E+00 -0.74505805969E-08  0.93827000000E+00  0.93827000000E+00 0.  1.
     999902    2    1    2    0    0 -0.73679627138E-02 -0.18021606426E-01  0.13260627444E-01  0.10203734847E+01  0.10201015336E+01 0.  0.
     999903    2    3    3    0    0 -0.44539225710E-01  0.11146555286E+00  0.44551114510E-01  0.12957175491E+00  0.19892857151E-01 0.  0.
         14    1    1    2    0    0  0.73679627138E-02  0.18021606426E-01 -0.13260627444E-01  0.23556515297E-01  0.00000000000E+00 0. -1.
     999901    1    3    3    0    0  0.37171262996E-01 -0.12948715929E+00 -0.31290487066E-01  0.89080172979E+00  0.88000000000E+00 0. -1.
        -11    1    4    4    0    0 -0.25256662523E-01  0.56481381280E-01  0.12693025941E-01  0.63161851316E-01  0.51100000000E-03 0.  1.
         11    1    4    4    0    0 -0.19282563187E-01  0.54984171583E-01  0.31858088569E-01  0.66409903599E-01  0.51100000000E-03 0. -1.
</event>
<event>
 8    1  0.1061722E+005  0.1043930E+01  0.7957747E-01            NaN
         13   -1    0    0    0    0  0.00000000000E+00  0.00000000000E+00  0.74505805969E-08  0.10566000000E+00  0.10566000000E+00 0. -1.
     999900   -1    0    0    0    0 -0.00000000000E+00 -0.00000000000E+00 -0.74505805969E-08  0.93827000000E+00  0.93827000000E+00 0.  1.
     999902    2    1    2    0    0  0.15746945593E-01  0.44212220085E-03 -0.17555093722E-01  0.10203430739E+01  0.10200704120E+01 0.  0.
     999903    2    3    3    0    0  0.93025009818E-01  0.19889000302E-01  0.87271956863E-01  0.13054602354E+00  0.19407344577E-01 0.  0.
         14    1    1    2    0    0 -0.15746945593E-01 -0.44212220085E-03  0.17555093722E-01  0.23586926106E-01  0.00000000000E+00 0. -1.
     999901    1    3    3    0    0 -0.77278064226E-01 -0.19446878101E-01 -0.10482705059E+00  0.88979705035E+00  0.88000000000E+00 0.  1.
        -11    1    4    4    0    0  0.14380890224E-01 -0.15847071045E-02  0.20876830742E-01  0.25405205826E-01  0.51100000000E-03 0. -1.
         11    1    4    4    0    0  0.78644119595E-01  0.21473707406E-01  0.66395126121E-01  0.10514081772E+00  0.51100000000E-03 0.  1.
</event>
<event>
 8    1  0.1061722E+005  0.1043930E+01  0.7957747E-01            NaN
         13   -1    0    0    0    0  0.00000000000E+00  0.00000000000E+00  0.74505805969E-08  0.10566000000E+00  0.10566000000E+00 0. -1.
     999900   -1    0    0    0    0 -0.00000000000E+00 -0.00000000000E+00 -0.74505805969E-08  0.93827000000E+00  0.93827000000E+00 0.  1.
     999902    2    1    2    0    0  0.23087592139E-01  0.40233673604E-02  0.35256752029E-02  0.10202307430E+01  0.10199554472E+01 0.  0.
     999903    2    3    3    0    0  0.25239751990E-02  0.13724221356E-01 -0.12801721596E+00  0.13016304834E+00  0.18954863963E-01 0.  0.
         14    1    1    2    0    0 -0.23087592139E-01 -0.40233673604E-02 -0.35256752029E-02  0.23699256978E-01  0.00000000000E+00 0.  1.
     999901    1    3    3    0    0  0.20563616940E-01 -0.97008539956E-02  0.13154289116E+00  0.89006769469E+00  0.88000000000E+00 0. -1.
        -11    1    4    4    0    0 -0.78137384466E-02  0.61356848502E-02 -0.72643196054E-01  0.73321185145E-01  0.51100000000E-03 0.  1.
         11    1    4    4    0    0  0.10337713646E-01  0.75885365059E-02 -0.55374019903E-01  0.56841863190E-01  0.51100000000E-03 0. -1.
</event>
<event>
 8    1  0.1061722E+005  0.1043930E+01  0.7957747E-01            NaN
         13   -1    0    0    0    0  0.00000000000E+00  0.00000000000E+00  0.74505805969E-08  0.10566000000E+00  0.10566000000E+00 0. -1.
     999900   -1    0    0    0    0 -0.00000000000E+00 -0.00000000000E+00 -0.74505805969E-08  0.93827000000E+00  0.93827000000E+00 0.  1.
     999902    2    1    2    0    0 -0.52478837758E-02 -0.18888150530E-01  0.10490892957E-01  0.10216957618E+01  0.10214538013E+01 0.  0.
     999903    2    3    3    0    0 -0.12107727001E+00  0.32386929779E-01 -0.34025922365E-01  0.13151188896E+00  0.20712194749E-01 0.  0.
         14    1    1    2    0    0  0.52478837758E-02  0.18888150530E-01 -0.10490892957E-01  0.22234238229E-01  0.00000000000E+00 0.  1.
     999901    1    3    3    0    0  0.11582938623E+00 -0.51275080309E-01  0.44516815323E-01  0.89018387282E+00  0.88000000000E+00 0. -1.
        -11    1    4    4    0    0 -0.61032077304E-01  0.26883253810E-01 -0.16172663000E-01  0.68625359343E-01  0.51100000000E-03 0. -1.
         11    1    4    4    0    0 -0.60045192701E-01  0.55036759691E-02 -0.17853259365E-01  0.62886529612E-01  0.51100000000E-03 0.  1.
</event>
<event>
 8    1  0.1061722E+005  0.1043930E+01  0.7957747E-01            NaN
         13   -1    0    0    0    0  0.00000000000E+00  0.00000000000E+00  0.74505805969E-08  0.10566000000E+00  0.10566000000E+00 0.  1.
     999900   -1    0    0    0    0 -0.00000000000E+00 -0.00000000000E+00 -0.74505805969E-08  0.93827000000E+00  0.93827000000E+00 0. -1.
     999902    2    1    2    0    0 -0.17108532412E-01  0.60855692023E-02 -0.14097775534E-01  0.10209412352E+01  0.10206823807E+01 0.  0.
     999903    2    3    3    0    0  0.12016777610E+00  0.32453346704E-01 -0.30870454914E-01  0.12975025263E+00  0.19713674110E-01 0.  0.
         14    1    1    2    0    0  0.17108532412E-01 -0.60855692023E-02  0.14097775534E-01  0.22988764839E-01  0.00000000000E+00 0.  1.
     999901    1    3    3    0    0 -0.13727630851E+00 -0.26367777502E-01  0.16772679380E-01  0.89119098253E+00  0.88000000000E+00 0.  1.
        -11    1    4    4    0    0  0.61605701801E-01  0.18339456885E-01 -0.59368047335E-02  0.64553117234E-01  0.51100000000E-03 0.  1.
         11    1    4    4    0    0  0.58562074297E-01  0.14113889820E-01 -0.24933650180E-01  0.65197135398E-01  0.51100000000E-03 0. -1.
</event>
<event>
 8    1  0.1061722E+005  0.1043930E+01  0.7957747E-01            NaN
         13   -1    0    0    0    0  0.00000000000E+00  0.00000000000E+00  0.74505805969E-08  0.10566000000E+00  0.10566000000E+00 0.  1.
     999900   -1    0    0    0    0 -0.00000000000E+00 -0.00000000000E+00 -0.74505805969E-08  0.93827000000E+00  0.93827000000E+00 0. -1.
     999902    2    1    2    0    0 -0.13364479881E-01 -0.17700681945E-01 -0.10403796211E-01  0.10194317870E+01  0.10191373833E+01 0.  0.
     999903    2    3    3    0    0  0.13828673618E-01 -0.10973689669E+00  0.67216819931E-01  0.13081764552E+00  0.19019379268E-01 0.  0.
         14    1    1    2    0    0  0.13364479881E-01  0.17700681945E-01  0.10403796211E-01  0.24498212984E-01  0.00000000000E+00 0. -1.
     999901    1    3    3    0    0 -0.27193153500E-01  0.92036214745E-01 -0.77620616142E-01  0.88861414150E+00  0.88000000000E+00 0. -1.
        -11    1    4    4    0    0  0.77354252194E-02 -0.79726599707E-01  0.38664412070E-01  0.88945856486E-01  0.51100000000E-03 0.  1.
         11    1    4    4    0    0  0.60932483990E-02 -0.30010296983E-01  0.28552407860E-01  0.41871789031E-01  0.51100000000E-03 0. -1.
</event>
<event>
 8    1  0.1061722E+005  0.1043930E+01  0.7957747E-01            NaN
         13   -1    0    0    0    0  0.00000000000E+00  0.00000000000E+00  0.74505805969E-08  0.10566000000E+00  0.10566000000E+00 0.  1.
     999900   -1    0    0    0    0 -0.00000000000E+00 -0.00000000000E+00 -0.74505805969E-08  0.93827000000E+00  0.93827000000E+00 0.  1.
     999902    2    1    2    0    0 -0.19396443261E-01  0.98911963087E-02  0.97657618001E-02  0.10200673120E+01  0.10197881609E+01 0.  0.
     999903    2    3    3    0    0  0.18848719000E-01  0.10906860065E+00 -0.65996618788E-01  0.13043885680E+00  0.20186822857E-01 0.  0.
         14    1    1    2    0    0  0.19396443261E-01 -0.98911963087E-02 -0.97657618001E-02  0.23862688011E-01  0.00000000000E+00 0. -1.
     999901    1    3    3    0    0 -0.38245162261E-01 -0.99177404338E-01  0.75762380588E-01  0.88962845519E+00  0.88000000000E+00 0. -1.
        -11    1    4    4    0    0  0.24269676497E-02  0.28885545769E-01 -0.27609668600E-01  0.40035232577E-01  0.51100000000E-03 0.  1.
         11    1    4    4    0    0  0.16421751350E-01  0.80183054878E-01 -0.38386950189E-01  0.90403624224E-01  0.51100000000E-03 0. -1.
</event>
<event>
 8    1  0.1061722E+005  0.1043930E+01  0.7957747E-01            NaN
         13   -1    0    0    0    0  0.00000000000E+00  0.00000000000E+00  0.74505805969E-08  0.10566000000E+00  0.10566000000E+00 0.  1.
     999900   -1    0    0    0    0 -0.00000000000E+00 -0.00000000000E+00 -0.74505805969E-08  0.93827000000E+00  0.93827000000E+00 0.  1.
     999902    2    1    2    0    0 -0.28252331998E-03 -0.18299040076E-01 -0.14659236461E-01  0.10204815907E+01  0.10202121588E+01 0.  0.
     999903    2    3    3    0    0  0.33950544122E-01 -0.29052339621E-04  0.12274149662E+00  0.12897463229E+00  0.20404423365E-01 0.  0.
         14    1    1    2    0    0  0.28252331998E-03  0.18299040076E-01  0.14659236461E-01  0.23448409343E-01  0.00000000000E+00 0.  1.
     999901    1    3    3    0    0 -0.34233067442E-01 -0.18269987736E-01 -0.13740073308E+00  0.89150695836E+00  0.88000000000E+00 0.  1.
        -11    1    4    4    0    0  0.10097092634E-01  0.60033521372E-02  0.18917641798E-01  0.22273971553E-01  0.51100000000E-03 0.  1.
         11    1    4    4    0    0  0.23853451488E-01 -0.60324044768E-02  0.10382385482E+00  0.10670066074E+00  0.51100000000E-03 0. -1.
</event>
<event>
 8    1  0.1061722E+005  0.1043930E+01  0.7957747E-01            NaN
         13   -1    0    0    0    0  0.00000000000E+00  0.00000000000E+00  0.74505805969E-08  0.10566000000E+00  0.10566000000E+00 0.  1.
     999900   -1    0    0    0    0 -0.00000000000E+00 -0.00000000000E+00 -0.74505805969E-08  0.93827000000E+00  0.93827000000E+00 0.  1.
     999902    2    1    2    0    0  0.78567802497E-02 -0.20271945938E-01 -0.81229425807E-02  0.10207208858E+01  0.10204569876E+01 0.  0.
     999903    2    3    3    0    0 -0.53556875609E-01  0.90523921858E-02 -0.11792290301E+00  0.13128983995E+00  0.19517333072E-01 0.  0.
         14    1    1    2    0    0 -0.78567802497E-02  0.20271945938E-01  0.81229425807E-02  0.23209114248E-01  0.00000000000E+00 0.  1.
     999901    1    3    3    0    0  0.61413655859E-01 -0.29324338124E-01  0.10979996043E+00  0.88943104581E+00  0.88000000000E+00 0.  1.
        -11    1    4    4    0    0 -0.23994616776E-01 -0.28014194078E-02 -0.67006114929E-01  0.71229699872E-01  0.51100000000E-03 0. -1.
         11    1    4    4    0    0 -0.29562258833E-01  0.11853811594E-01 -0.50916788078E-01  0.60060140074E-01  0.51100000000E-03 0.  1.
</event>
<event>
 8    1  0.1061722E+005  0.1043930E+01  0.7957747E-01            NaN
         13   -1    0    0    0    0  0.00000000000E+00  0.00000000000E+00  0.74505805969E-08  0.10566000000E+00  0.10566000000E+00 0. -1.
     999900   -1    0    0    0    0 -0.00000000000E+00 -0.00000000000E+00 -0.74505805969E-08  0.93827000000E+00  0.93827000000E+00 0.  1.
     999902    2    1    2    0    0  0.18447451872E-01  0.30035915794E-02 -0.15583590291E-01  0.10195952855E+01  0.10193048454E+01 0.  0.
     999903    2    3    3    0    0 -0.46391096592E-01 -0.22574964261E-01 -0.11860470638E+00  0.13084804909E+00  0.19808400238E-01 0.  0.
         14    1    1    2    0    0 -0.18447451872E-01 -0.30035915794E-02  0.15583590291E-01  0.24334714490E-01  0.00000000000E+00 0.  1.
     999901    1    3    3    0    0  0.64838548465E-01  0.25578555840E-01  0.10302111609E+00  0.88874723642E+00  0.88000000000E+00 0. -1.
        -11    1    4    4    0    0 -0.16241675094E-01 -0.14070648685E-02 -0.54743384849E-01  0.57121547135E-01  0.51100000000E-03 0. -1.
         11    1    4    4    0    0 -0.30149421498E-01 -0.21167899392E-01 -0.63861321533E-01  0.73726501953E-01  0.51100000000E-03 0.  1.
</event>
<event>
 8    1  0.1061722E+005  0.1043930E+01  0.7957747E-01            NaN
         13   -1    0    0    0    0  0.00000000000E+00  0.00000000000E+00  0.74505805969E-08  0.10566000000E+00  0.10566000000E+00 0.  1.
     999900   -1    0    0    0    0 -0.00000000000E+00 -0.00000000000E+00 -0.74505805969E-08  0.93827000000E+00  0.93827000000E+00 0.  1.
     999902    2    1    2    0    0 -0.10715957921E-01  0.18311958663E-01 -0.76944659662E-02  0.10213608974E+01  0.10211115113E+01 0.  0.
     999903    2    3    3    0    0 -0.33139875599E-01 -0.10777707550E+00 -0.63830974885E-01  0.13032072760E+00  0.13962425614E-01 0.  0.
         14    1    1    2    0    0  0.10715957921E-01 -0.18311958663E-01  0.76944659662E-02  0.22569102568E-01  0.00000000000E+00 0.  1.
     999901    1    3    3    0    0  0.22423917677E-01  0.12608903416E+00  0.56136508919E-01  0.89104016983E+00  0.88000000000E+00 0.  1.
        -11    1    4    4    0    0 -0.29315281769E-02 -0.91139845634E-02 -0.13215779396E-02  0.96781331529E-02  0.51100000000E-03 0. -1.
         11    1    4    4    0    0 -0.30208347422E-01 -0.98663090938E-01 -0.62509396946E-01  0.12064259445E+00  0.51100000000E-03 0.  1.
</event>
<event>
 8    1  0.1061722E+005  0.1043930E+01  0.7957747E-01            NaN
         13   -1    0    0    0    0  0.00000000000E+00  0.00000000000E+00  0.74505805969E-08  0.10566000000E+00  0.10566000000E+00 0.  1.
     999900   -1    0    0    0    0 -0.00000000000E+00 -0.00000000000E+00 -0.74505805969E-08  0.93827000000E+00  0.93827000000E+00 0. -1.
     999902    2    1    2    0    0 -0.51367595228E-02 -0.80953919584E-03  0.23095384981E-01  0.10202564185E+01  0.10199817259E+01 0.  0.
     999903    2    3    3    0    0  0.43349938156E-01  0.88290300556E-01 -0.80810943842E-01  0.12835605052E+00  0.16446055735E-01 0.  0.
         14    1    1    2    0    0  0.51367595228E-02  0.80953919584E-03 -0.23095384981E-01  0.23673581468E-01  0.00000000000E+00 0. -1.
     999901    1    3    3    0    0 -0.48486697679E-01 -0.89099839752E-01  0.10390632882E+00  0.89190036801E+00  0.88000000000E+00 0.  1.
        -11    1    4    4    0    0  0.31674900816E-01  0.66339068543E-01 -0.50694157503E-01  0.89299104602E-01  0.51100000000E-03 0.  1.
         11    1    4    4    0    0  0.11675037341E-01  0.21951232014E-01 -0.30116786339E-01  0.39056945915E-01  0.51100000000E-03 0. -1.
</event>
<event>
 8    1  0.1061722E+005  0.1043930E+01  0.7957747E-01            NaN
         13   -1    0    0    0    0  0.00000000000E+00  0.00000000000E+00  0.74505805969E-08  0.10566000000E+00  0.10566000000E+00 0.  1.
     999900   -1    0    0    0    0 -0.00000000000E+00 -0.00000000000E+00 -0.74505805969E-08  0.93827000000E+00  0.93827000000E+00 0. -1.
     999902    2    1    2    0    0 -0.24643193792E-01 -0.45331343941E-02 -0.43714648671E-02  0.10184948666E+01  0.10181772180E+01 0.  0.
     999903    2    3    3    0    0 -0.34738076178E-01 -0.10641408351E+00 -0.63753566493E-01  0.13057152053E+00  0.21300554623E-01 0.  0.
         14    1    1    2    0    0  0.24643193792E-01  0.45331343941E-02  0.43714648671E-02  0.25435133434E-01  0.00000000000E+00 0.  1.
     999901    1    3    3    0    0  0.10094882386E-01  0.10188094912E+00  0.59382101625E-01  0.88792334604E+00  0.88000000000E+00 0.  1.
        -11    1    4    4    0    0 -0.88961743548E-02 -0.45693826105E-01 -0.36566102973E-01  0.59198046166E-01  0.51100000000E-03 0.  1.
         11    1    4    4    0    0 -0.25841901823E-01 -0.60720257405E-01 -0.27187463519E-01  0.71373474364E-01  0.51100000000E-03 0. -1.
</event>
<event>
 8    1  0.1061722E+005  0.1043930E+01  0.7957747E-01            NaN
         13   -1    0    0    0    0  0.00000000000E+00  0.00000000000E+00  0.74505805969E-08  0.10566000000E+00  0.10566000000E+00 0.  1.
     999900   -1    0    0    0    0 -0.00000000000E+00 -0.00000000000E+00 -0.74505805969E-08  0.93827000000E+00  0.93827000000E+00 0.  1.
     999902    2    1    2    0    0  0.82656258146E-02  0.12773472416E-01  0.18398386740E-01  0.10200556874E+01  0.10197762610E+01 0.  0.
     999903    2    3    3    0    0 -0.27054793564E-01 -0.60154663531E-01  0.11188765757E+00  0.13140148648E+00  0.19923788170E-01 0.  0.
         14    1    1    2    0    0 -0.82656258146E-02 -0.12773472416E-01 -0.18398386740E-01  0.23874312604E-01  0.00000000000E+00 0. -1.
     999901    1    3    3    0    0  0.35320419379E-01  0.72928135947E-01 -0.93489270827E-01  0.88865420091E+00  0.88000000000E+00 0. -1.
        -11    1    4    4    0    0 -0.14934450764E-01 -0.48022284436E-01  0.94043980139E-01  0.10664759230E+00  0.51100000000E-03 0.  1.
         11    1    4    4    0    0 -0.12120342801E-01 -0.12132379095E-01  0.17843677428E-01  0.24753894184E-01  0.51100000000E-03 0. -1.
</event>
<event>
 8    1  0.1061722E+005  0.1043930E+01  0.7957747E-01            NaN
         13   -1    0    0    0    0  0.00000000000E+00  0.00000000000E+00  0.74505805969E-08  0.10566000000E+00  0.10566000000E+00 0. -1.
     999900   -1    0    0    0    0 -0.00000000000E+00 -0.00000000000E+00 -0.74505805969E-08  0.93827000000E+00  0.93827000000E+00 0.  1.
     999902    2    1    2    0    0 -0.22211248983E-01  0.18837663319E-01  0.11623764019E-01  0.10125722413E+01  0.10120865748E+01 0.  0.
     999903    2    3    3    0    0 -0.11358241381E+00  0.47761086606E-01  0.24663548884E-01  0.12727269303E+00  0.20198059979E-01 0.  0.
         14    1    1    2    0    0  0.22211248983E-01 -0.18837663319E-01 -0.11623764019E-01  0.31357758700E-01  0.00000000000E+00 0.  1.
     999901    1    3    3    0    0  0.91371164827E-01 -0.28923423287E-01 -0.13039784864E-01  0.88529954827E+00  0.88000000000E+00 0.  1.
        -11    1    4    4    0    0 -0.10314601649E+00  0.49020109295E-01  0.20926878250E-01  0.11610455282E+00  0.51100000000E-03 0. -1.
         11    1    4    4    0    0 -0.10436397324E-01 -0.12590226889E-02  0.37366706340E-02  0.11168140206E-01  0.51100000000E-03 0.  1.
</event>
<event>
 8    1  0.1061722E+005  0.1043930E+01  0.7957747E-01            NaN
         13   -1    0    0    0    0  0.00000000000E+00  0.00000000000E+00  0.74505805969E-08  0.10566000000E+00  0.10566000000E+00 0.  1.
     999900   -1    0    0    0    0 -0.00000000000E+00 -0.00000000000E+00 -0.74505805969E-08  0.93827000000E+00  0.93827000000E+00 0. -1.
     999902    2    1    2    0    0  0.68908399274E-02  0.13752753704E-01  0.18774004323E-01  0.10196589236E+01  0.10193700189E+01 0.  0.
     999903    2    3    3    0    0  0.67641560105E-01 -0.44372916132E-01 -0.97313986877E-01  0.12806166860E+00  0.19632691688E-01 0.  0.
         14    1    1    2    0    0 -0.68908399274E-02 -0.13752753704E-01 -0.18774004323E-01  0.24271076360E-01  0.00000000000E+00 0. -1.
     999901    1    3    3    0    0 -0.60750720178E-01  0.58125669836E-01  0.11608799120E+00  0.89159725504E+00  0.88000000000E+00 0.  1.
        -11    1    4    4    0    0  0.45111277123E-01 -0.39781641038E-01 -0.73119107422E-01  0.94679835649E-01  0.51100000000E-03 0.  1.
         11    1    4    4    0    0  0.22530282983E-01 -0.45912750941E-02 -0.24194879455E-01  0.33381832950E-01  0.51100000000E-03 0. -1.
</event>
<event>
 8    1  0.1061722E+005  0.1043930E+01  0.7957747E-01            NaN
         13   -1    0    0    0    0  0.00000000000E+00  0.00000000000E+00  0.74505805969E-08  0.10566000000E+00  0.10566000000E+00 0.  1.
     999900   -1    0    0    0    0 -0.00000000000E+00 -0.00000000000E+00 -0.74505805969E-08  0.93827000000E+00  0.93827000000E+00 0.  1.
     999902    2    1    2    0    0 -0.12137783981E-01  0.86459069458E-02  0.20424526152E-01  0.10186468282E+01  0.10183330113E+01 0.  0.
     999903    2    3    3    0    0  0.42692009406E-01 -0.40556456527E-01  0.11482411304E+00  0.13053734126E+00  0.19697377891E-01 0.  0.
         14    1    1    2    0    0  0.12137783981E-01 -0.86459069458E-02 -0.20424526152E-01  0.25283171783E-01  0.00000000000E+00 0. -1.
     999901    1    3    3    0    0 -0.54829793387E-01  0.49202363473E-01 -0.94399586886E-01  0.88810948695E+00  0.88000000000E+00 0. -1.
        -11    1    4    4    0    0  0.15528999904E-01 -0.28300669581E-01  0.60289961016E-01  0.68390191234E-01  0.51100000000E-03 0. -1.
         11    1    4    4    0    0  0.27163009502E-01 -0.12255786946E-01  0.54534152022E-01  0.62147150028E-01  0.51100000000E-03 0.  1.
</event>
<event>
 8    1  0.1061722E+005  0.1043930E+01  0.7957747E-01            NaN
         13   -1    0    0    0    0  0.00000000000E+00  0.00000000000E+00  0.74505805969E-08  0.10566000000E+00  0.10566000000E+00 0.  1.
     999900   -1    0    0    0    0 -0.00000000000E+00 -0.00000000000E+00 -0.74505805969E-08  0.93827000000E+00  0.93827000000E+00 0.  1.
     999902    2    1    2    0    0  0.22386495942E-01 -0.87147808111E-02 -0.22639838166E-02  0.10198005941E+01  0.10195150924E+01 0.  0.
     999903    2    3    3    0    0 -0.91008871573E-01  0.85954702866E-01 -0.14780355212E-01  0.12740075097E+00  0.18484231045E-01 0.  0.
         14    1    1    2    0    0 -0.22386495942E-01  0.87147808111E-02  0.22639838166E-02  0.24129405874E-01  0.00000000000E+00 0. -1.
     999901    1    3    3    0    0  0.11339536751E+00 -0.94669483677E-01  0.12516371396E-01  0.89239984316E+00  0.88000000000E+00 0.  1.
        -11    1    4    4    0    0 -0.81539325152E-01  0.67898544693E-01 -0.13517733814E-01  0.10696664978E+00  0.51100000000E-03 0. -1.
         11    1    4    4    0    0 -0.94695464209E-02  0.18056158174E-01 -0.12626213983E-02  0.20434101184E-01  0.51100000000E-03 0.  1.
</event>
<event>
 8    1  0.1061722E+005  0.1043930E+01  0.7957747E-01            NaN
         13   -1    0    0    0    0  0.00000000000E+00  0.00000000000E+00  0.74505805969E-08  0.10566000000E+00  0.10566000000E+00 0. -1.
     999900   -1    0    0    0    0 -0.00000000000E+00 -0.00000000000E+00 -0.74505805969E-08  0.93827000000E+00  0.93827000000E+00 0.  1.
     999902    2    1    2    0    0  0.61946637686E-02  0.22208289575E-01  0.28677864831E-03  0.10208721548E+01  0.10206117245E+01 0.  0.
     999903    2    3    3    0    0  0.10334336150E+00  0.80773115156E-01 -0.14753458823E-01  0.13346361468E+00  0.19766775103E-01 0.  0.
         14    1    1    2    0    0 -0.61946637686E-02 -0.22208289575E-01 -0.28677864831E-03  0.23057845239E-01  0.00000000000E+00 0.  1.
     999901    1    3    3    0    0 -0.97148697732E-01 -0.58564825581E-01  0.15040237471E-01  0.88740854008E+00  0.88000000000E+00 0. -1.
        -11    1    4    4    0    0  0.45716289133E-01  0.48035049671E-01 -0.55086255699E-02  0.66542852101E-01  0.51100000000E-03 0. -1.
         11    1    4    4    0    0  0.57627072367E-01  0.32738065485E-01 -0.92448332531E-02  0.66920762579E-01  0.51100000000E-03 0.  1.
</event>
<event>
 8    1  0.1061722E+005  0.1043930E+01  0.7957747E-01            NaN
         13   -1    0    0    0    0  0.00000000000E+00  0.00000000000E+00  0.74505805969E-08  0.10566000000E+00  0.10566000000E+00 0.  1.
     999900   -1    0    0    0    0 -0.00000000000E+00 -0.00000000000E+00 -0.74505805969E-08  0.93827000000E+00  0.93827000000E+00 0. -1.
     999902    2    1    2    0    0 -0.69250480593E-02  0.21238203209E-01  0.85640465452E-02  0.10200059439E+01  0.10197253381E+01 0.  0.
     999903    2    3    3    0    0  0.61787738413E-01 -0.33028871935E-01  0.10782318336E+00  0.13010778193E+00  0.19838473933E-01 0.  0.
         14    1    1    2    0    0  0.69250480593E-02 -0.21238203209E-01 -0.85640465452E-02  0.23924056082E-01  0.00000000000E+00 0. -1.
     999901    1    3    3    0    0 -0.68712786473E-01  0.54267075144E-01 -0.99259136820E-01  0.88989816199E+00  0.88000000000E+00 0. -1.
        -11    1    4    4    0    0  0.29826082004E-01 -0.48895179112E-02  0.44443360213E-01  0.53749194795E-01  0.51100000000E-03 0. -1.
         11    1    4    4    0    0  0.31961656410E-01 -0.28139354024E-01  0.63379823152E-01  0.76358587134E-01  0.51100000000E-03 0.  1.
</event>
<event>
 8    1  0.1061722E+005  0.1043930E+01  0.7957747E-01            NaN
         13   -1    0    0    0    0  0.00000000000E+00  0.00000000000E+00  0.74505805969E-08  0.10566000000E+00  0.10566000000E+00 0.  1.
     999900   -1    0    0    0    0 -0.00000000000E+00 -0.00000000000E+00 -0.74505805969E-08  0.93827000000E+00  0.93827000000E+00 0. -1.
     999902    2    1    2    0    0  0.57592649642E-03  0.87994125985E-02  0.22243605926E-01  0.10200022053E+01  0.10197215108E+01 0.  0.
     999903    2    3    3    0    0  0.17386841304E-01 -0.36589238614E-01 -0.11888545352E+00  0.12744400110E+00  0.21613600437E-01 0.  0.
         14    1    1    2    0    0 -0.57592649642E-03 -0.87994125985E-02 -0.22243605926E-01  0.23927794675E-01  0.00000000000E+00 0. -1.
     999901    1    3    3    0    0 -0.16810914808E-01  0.45388651212E-01  0.14112905945E+00  0.89255820423E+00  0.88000000000E+00 0.  1.
        -11    1    4    4    0    0  0.10278740189E-01 -0.16356033678E-01 -0.27734815689E-01  0.33803157543E-01  0.51100000000E-03 0.  1.
         11    1    4    4    0    0  0.71081011156E-02 -0.20233204936E-01 -0.91150637831E-01  0.93640843554E-01  0.51100000000E-03 0. -1.
</event>
<event>
 8    1  0.1061722E+005  0.1043930E+01  0.7957747E-01            NaN
         13   -1    0    0    0    0  0.00000000000E+00  0.00000000000E+00  0.74505805969E-08  0.10566000000E+00  0.10566000000E+00 0.  1.
     999900   -1    0    0    0    0 -0.00000000000E+00 -0.00000000000E+00 -0.74505805969E-08  0.93827000000E+00  0.93827000000E+00 0. -1.
     999902    2    1    2    0    0  0.22359116266E-01 -0.48189240988E-02  0.61632295755E-02  0.10202416588E+01  0.10199666195E+01 0.  0.
     999903    2    3    3    0    0 -0.46995156010E-01 -0.79798189188E-01 -0.87973832081E-01  0.12934677631E+00  0.20369038401E-01 0.  0.
         14    1    1    2    0    0 -0.22359116266E-01  0.48189240988E-02 -0.61632295755E-02  0.23688341193E-01  0.00000000000E+00 0.  1.
     999901    1    3    3    0    0  0.69354272276E-01  0.74979265089E-01  0.94137061657E-01  0.89089488249E+00  0.88000000000E+00 0.  1.
        -11    1    4    4    0    0 -0.12688448555E-01 -0.15326389960E-01 -0.30459327609E-01  0.36385803761E-01  0.51100000000E-03 0. -1.
         11    1    4    4    0    0 -0.34306707455E-01 -0.64471799228E-01 -0.57514504472E-01  0.92960972552E-01  0.51100000000E-03 0.  1.
</event>
<event>
 8    1  0.1061722E+005  0.1043930E+01  0.7957747E-01            NaN
         13   -1    0    0    0    0  0.00000000000E+00  0.00000000000E+00  0.74505805969E-08  0.10566000000E+00  0.10566000000E+00 0. -1.
     999900   -1    0    0    0    0 -0.00000000000E+00 -0.00000000000E+00 -0.74505805969E-08  0.93827000000E+00  0.93827000000E+00 0.  1.
     999902    2    1    2    0    0  0.73051577759E-03  0.19412483827E-01 -0.14019949828E-01  0.10199730141E+01  0.10196916261E+01 0.  0.
     999903    2    3    3    0    0  0.16462892329E-01 -0.11007974248E-01 -0.12889619115E+00  0.13184607339E+00  0.19415371640E-01 0.  0.
         14    1    1    2    0    0 -0.73051577759E-03 -0.19412483827E-01  0.14019949828E-01  0.23956985929E-01  0.00000000000E+00 0. -1.
     999901    1    3    3    0    0 -0.15732376551E-01  0.30420458074E-01  0.11487624132E+00  0.88812694068E+00  0.88000000000E+00 0. -1.
        -11    1    4    4    0    0  0.10081281455E-01 -0.12247530240E-01 -0.45373640969E-01  0.48069352487E-01  0.51100000000E-03 0. -1.
         11    1    4    4    0    0  0.63816108734E-02  0.12395559921E-02 -0.83522550177E-01  0.83776720905E-01  0.51100000000E-03 0.  1.
</event>
<event>
 8    1  0.1061722E+005  0.1043930E+01  0.7957747E-01            NaN
         13   -1    0    0    0    0  0.00000000000E+00  0.00000000000E+00  0.74505805969E-08  0.10566000000E+00  0.10566000000E+00 0. -1.
     999900   -1    0    0    0    0 -0.00000000000E+00 -0.00000000000E+00 -0.74505805969E-08  0.93827000000E+00  0.93827000000E+00 0.  1.
     999902    2    1    2    0    0 -0.14233031329E-01  0.92124628684E-02 -0.14288135785E-01  0.10217579573E+01  0.10215173635E+01 0.  0.
     999903    2    3    3    0    0 -0.86065975003E-01 -0.36182945153E-01 -0.94277476529E-01  0.13405360928E+00  0.19119885157E-01 0.  0.
         14    1    1    2    0    0  0.14233031329E-01 -0.92124628684E-02  0.14288135785E-01  0.22172042692E-01  0.00000000000E+00 0. -1.
     999901    1    3    3    0    0  0.71832943674E-01  0.45395408021E-01  0.79989340744E-01  0.88770434802E+00  0.88000000000E+00 0. -1.
        -11    1    4    4    0    0 -0.11742533905E-01 -0.96139711405E-02 -0.23829385658E-01  0.28256260995E-01  0.51100000000E-03 0. -1.
         11    1    4    4    0    0 -0.74323441098E-01 -0.26568974012E-01 -0.70448090872E-01  0.10579734829E+00  0.51100000000E-03 0.  1.
</event>
<event>
 7    1  0.1061722E+005  0.1043930E+01  0.7957747E-01            NaN
         13   -1    0    0    0    0  0.00000000000E+00  0.00000000000E+00  0.74505805969E-08  0.10566000000E+00  0.10566000000E+00 0.  1.
     999900   -1    0    0    0    0 -0.00000000000E+00 -0.00000000000E+00 -0.74505805969E-08  0.93827000000E+00  0.93827000000E+00 0. -1.
     999903    2    1    2    0    0 -0.74046038267E-01  0.76735022355E-01  0.26256320110E-01  0.11322000404E+00  0.27537166343E-01 0.  0.
         14    1    1    2    0    0  0.95843063256E-02  0.14745097379E-01  0.37413566145E-01  0.41340679193E-01  0.00000000000E+00 0.  1.
     999901    1    1    2    0    0  0.64461731941E-01 -0.91480119734E-01 -0.63669886255E-01  0.88936931677E+00  0.88000000000E+00 0. -1.
        -11    1    3    3    0    0 -0.93459223786E-03 -0.12596146643E-03 -0.29939758717E-02  0.31803052468E-02  0.51100000000E-03 0. -1.
         11    1    3    3    0    0 -0.73111446029E-01  0.76860983821E-01  0.29250295982E-01  0.11003969879E+00  0.51100000000E-03 0.  1.
</event>
<event>
 8    1  0.1061722E+005  0.1043930E+01  0.7957747E-01            NaN
         13   -1    0    0    0    0  0.00000000000E+00  0.00000000000E+00  0.74505805969E-08  0.10566000000E+00  0.10566000000E+00 0.  1.
     999900   -1    0    0    0    0 -0.00000000000E+00 -0.00000000000E+00 -0.74505805969E-08  0.93827000000E+00  0.93827000000E+00 0. -1.
     999902    2    1    2    0    0 -0.13063048361E-01 -0.19844155801E-01 -0.68735681353E-02  0.10191978410E+01  0.10188977178E+01 0.  0.
     999903    2    3    3    0    0  0.11904907456E+00 -0.60263212250E-02 -0.44153182030E-01  0.12844854111E+00  0.18453333769E-01 0.  0.
         14    1    1    2    0    0  0.13063048361E-01  0.19844155801E-01  0.68735681353E-02  0.24732159041E-01  0.00000000000E+00 0. -1.
     999901    1    3    3    0    0 -0.13211212292E+00 -0.13817834576E-01  0.37279613895E-01  0.89074929985E+00  0.88000000000E+00 0.  1.
        -11    1    4    4    0    0  0.32983460219E-01 -0.99783552225E-02 -0.12652576852E-01  0.36712736795E-01  0.51100000000E-03 0. -1.
         11    1    4    4    0    0  0.86065614344E-01  0.39520339976E-02 -0.31500605178E-01  0.91735804311E-01  0.51100000000E-03 0.  1.
</event>
<event>
 8    1  0.1061722E+005  0.1043930E+01  0.7957747E-01            NaN
         13   -1    0    0    0    0  0.00000000000E+00  0.00000000000E+00  0.74505805969E-08  0.10566000000E+00  0.10566000000E+00 0. -1.
     999900   -1    0    0    0    0 -0.00000000000E+00 -0.00000000000E+00 -0.74505805969E-08  0.93827000000E+00  0.93827000000E+00 0. -1.
     999902    2    1    2    0    0 -0.14960465338E-01 -0.98749069066E-02  0.14894941460E-01  0.10206235934E+01  0.10203574524E+01 0.  0.
     999903    2    3    3    0    0  0.10570684039E+00  0.70098789762E-01  0.86523738719E-02  0.12877418876E+00  0.20497601933E-01 0.  0.
         14    1    1    2    0    0  0.14960465338E-01  0.98749069066E-02 -0.14894941460E-01  0.23306406644E-01  0.00000000000E+00 0.  1.
     999901    1    3    3    0    0 -0.12066730573E+00 -0.79973696668E-01  0.62425675884E-02  0.89184940460E+00  0.88000000000E+00 0. -1.
        -11    1    4    4    0    0  0.32118263821E-01  0.17503791223E-01 -0.62191375634E-02  0.37106662085E-01  0.51100000000E-03 0. -1.
         11    1    4    4    0    0  0.73588576571E-01  0.52594998538E-01  0.14871511435E-01  0.91667526673E-01  0.51100000000E-03 0.  1.
</event>
<event>
 8    1  0.1061722E+005  0.1043930E+01  0.7957747E-01            NaN
         13   -1    0    0    0    0  0.00000000000E+00  0.00000000000E+00  0.74505805969E-08  0.10566000000E+00  0.10566000000E+00 0.  1.
     999900   -1    0    0    0    0 -0.00000000000E+00 -0.00000000000E+00 -0.74505805969E-08  0.93827000000E+00  0.93827000000E+00 0. -1.
     999902    2    1    2    0    0 -0.13105326744E-01 -0.15924629110E-01  0.11312108051E-01  0.10204075174E+01  0.10201363606E+01 0.  0.
     999903    2    3    3    0    0  0.10248459268E+00 -0.19981577698E-01 -0.72186066271E-01  0.12892031418E+00  0.22522523416E-01 0.  0.
         14    1    1    2    0    0  0.13105326744E-01  0.15924629110E-01 -0.11312108051E-01  0.23522482648E-01  0.00000000000E+00 0. -1.
     999901    1    3    3    0    0 -0.11558991942E+00  0.40569485876E-02  0.83498174322E-01  0.89148720317E+00  0.88000000000E+00 0.  1.
        -11    1    4    4    0    0  0.79797317170E-01 -0.57738245406E-02 -0.55495247592E-01  0.97370080125E-01  0.51100000000E-03 0.  1.
         11    1    4    4    0    0  0.22687275509E-01 -0.14207753157E-01 -0.16690818679E-01  0.31550234056E-01  0.51100000000E-03 0. -1.
</event>
<event>
 8    1  0.1061722E+005  0.1043930E+01  0.7957747E-01            NaN
         13   -1    0    0    0    0  0.00000000000E+00  0.00000000000E+00  0.74505805969E-08  0.10566000000E+00  0.10566000000E+00 0.  1.
     999900   -1    0    0    0    0 -0.00000000000E+00 -0.00000000000E+00 -0.74505805969E-08  0.93827000000E+00  0.93827000000E+00 0.  1.
     999902    2    1    2    0    0 -0.20395287693E-01  0.12298357057E-01  0.40605653858E-02  0.10197700013E+01  0.10194837664E+01 0.  0.
     999903    2    3    3    0    0 -0.85017272793E-01  0.48611602242E-02 -0.98172055845E-01  0.13146666250E+00  0.19853545010E-01 0.  0.
         14    1    1    2    0    0  0.20395287693E-01 -0.12298357057E-01 -0.40605653858E-02  0.24159998709E-01  0.00000000000E+00 0. -1.
     999901    1    3    3    0    0  0.64621985099E-01  0.74371968328E-02  0.10223262123E+00  0.88830333879E+00  0.88000000000E+00 0. -1.
        -11    1    4    4    0    0 -0.52988677775E-01  0.12303974877E-01 -0.57374335143E-01  0.79064930432E-01  0.51100000000E-03 0. -1.
         11    1    4    4    0    0 -0.32028595018E-01 -0.74428146524E-02 -0.40797720702E-01  0.52401732073E-01  0.51100000000E-03 0.  1.
</event>
<event>
 8    1  0.1061722E+005  0.1043930E+01  0.7957747E-01            NaN
         13   -1    0    0    0    0  0.00000000000E+00  0.00000000000E+00  0.74505805969E-08  0.10566000000E+00  0.10566000000E+00 0.  1.
     999900   -1    0    0    0    0 -0.00000000000E+00 -0.00000000000E+00 -0.74505805969E-08  0.93827000000E+00  0.93827000000E+00 0. -1.
     999902    2    1    2    0    0  0.89065275359E-02 -0.90368291462E-02  0.15264183431E-01  0.10240809242E+01  0.10238885455E+01 0.  0.
     999903    2    3    3    0    0 -0.58691165825E-01  0.11696163956E+00  0.37809996645E-02  0.13246613868E+00  0.20206530251E-01 0.  0.
         14    1    1    2    0    0 -0.89065275359E-02  0.90368291462E-02 -0.15264183431E-01  0.19849075787E-01  0.00000000000E+00 0. -1.
     999901    1    3    3    0    0  0.67597693361E-01 -0.12599846871E+00  0.11483183766E-01  0.89161478553E+00  0.88000000000E+00 0. -1.
        -11    1    4    4    0    0 -0.22056138259E-01  0.34087602905E-01 -0.70419721947E-02  0.41210294831E-01  0.51100000000E-03 0. -1.
         11    1    4    4    0    0 -0.36635027566E-01  0.82874036656E-01  0.10822971859E-01  0.91255843853E-01  0.51100000000E-03 0.  1.
</event>
<event>
 8    1  0.1061722E+005  0.1043930E+01  0.7957747E-01            NaN
         13   -1    0    0    0    0  0.00000000000E+00  0.00000000000E+00  0.74505805969E-08  0.10566000000E+00  0.10566000000E+00 0.  1.
     999900   -1    0    0    0    0 -0.00000000000E+00 -0.00000000000E+00 -0.74505805969E-08  0.93827000000E+00  0.93827000000E+00 0.  1.
     999902    2    1    2    0    0  0.33851618130E-02 -0.10065554528E-01  0.21369376942E-01  0.10200673727E+01  0.10197882231E+01 0.  0.
     999903    2    3    3    0    0 -0.10354231901E+00 -0.61318231680E-01 -0.43921950352E-01  0.12971728402E+00  0.20408299531E-01 0.  0.
         14    1    1    2    0    0 -0.33851618130E-02  0.10065554528E-01 -0.21369376942E-01  0.23862627252E-01  0.00000000000E+00 0. -1.
     999901    1    3    3    0    0  0.10692748082E+00  0.51252677152E-01  0.65291327294E-01  0.89035008872E+00  0.88000000000E+00 0. -1.
        -11    1    4    4    0    0 -0.89833598105E-01 -0.57748633286E-01 -0.44096675091E-01  0.11554115228E+00  0.51100000000E-03 0. -1.
         11    1    4    4    0    0 -0.13708720905E-01 -0.35695983948E-02  0.17472473916E-03  0.14176131746E-01  0.51100000000E-03 0.  1.
</event>
<event>
 8    1  0.1061722E+005  0.1043930E+01  0.7957747E-01            NaN
         13   -1    0    0    0    0  0.00000000000E+00  0.00000000000E+00  0.74505805969E-08  0.10566000000E+00  0.10566000000E+00 0.  1.
     999900   -1    0    0    0    0 -0.00000000000E+00 -0.00000000000E+00 -0.74505805969E-08  0.93827000000E+00  0.93827000000E+00 0. -1.
     999902    2    1    2    0    0  0.16704909052E-01  0.15965820868E-01  0.57590405259E-02  0.10201155512E+01  0.10198375409E+01 0.  0.
     999903    2    3    3    0    0 -0.65744948682E-01 -0.99476060641E-01  0.41295691927E-01  0.12804623742E+00  0.21739821259E-01 0.  0.
         14    1    1    2    0    0 -0.16704909052E-01 -0.15965820868E-01 -0.57590405259E-02  0.23814448769E-01  0.00000000000E+00 0. -1.
     999901    1    3    3    0    0  0.82449857734E-01  0.11544188151E+00 -0.35536651401E-01  0.89206931381E+00  0.88000000000E+00 0. -1.
        -11    1    4    4    0    0 -0.62538166739E-01 -0.81763621269E-01  0.32112381518E-01  0.10783217623E+00  0.51100000000E-03 0. -1.
         11    1    4    4    0    0 -0.32067819431E-02 -0.17712439371E-01  0.91833104085E-02  0.20214061195E-01  0.51100000000E-03 0.  1.
</event>
<event>
 8    1  0.1061722E+005  0.1043930E+01  0.7957747E-01            NaN
         13   -1    0    0    0    0  0.00000000000E+00  0.00000000000E+00  0.74505805969E-08  0.10566000000E+00  0.10566000000E+00 0. -1.
     999900   -1    0    0    0    0 -0.00000000000E+00 -0.00000000000E+00 -0.74505805969E-08  0.93827000000E+00  0.93827000000E+00 0. -1.
     999902    2    1    2    0    0  0.20609791004E-01 -0.11359625545E-01  0.65334648217E-02  0.10195068401E+01  0.10192142592E+01 0.  0.
     999903    2    3    3    0    0  0.75107080757E-01  0.25798403801E-01  0.10323833661E+00  0.13175546387E+00  0.19867483394E-01 0.  0.
         14    1    1    2    0    0 -0.20609791004E-01  0.11359625545E-01 -0.65334648217E-02  0.24423159916E-01  0.00000000000E+00 0.  1.
     999901    1    3    3    0    0 -0.54497289754E-01 -0.37158029346E-01 -0.96704871786E-01  0.88775137621E+00  0.88000000000E+00 0. -1.
        -11    1    4    4    0    0  0.26681033401E-01  0.13604489319E-01  0.25396232099E-01  0.39270719357E-01  0.51100000000E-03 0.  1.
         11    1    4    4    0    0  0.48426047356E-01  0.12193914482E-01  0.77842104509E-01  0.92484744516E-01  0.51100000000E-03 0. -1.
</event>
<event>
 8    1  0.1061722E+005  0.1043930E+01  0.7957747E-01            NaN
         13   -1    0    0    0    0  0.00000000000E+00  0.00000000000E+00  0.74505805969E-08  0.10566000000E+00  0.10566000000E+00 0.  1.
     999900   -1    0    0    0    0 -0.00000000000E+00 -0.00000000000E+00 -0.74505805969E-08  0.93827000000E+00  0.93827000000E+00 0.  1.
     999902    2    1    2    0    0  0.13939866638E-01  0.11387784269E-01 -0.15454343698E-01  0.10202057877E+01  0.10199299049E+01 0.  0.
     999903    2    3    3    0    0 -0.68102546379E-01  0.10666364748E+00 -0.27241057583E-01  0.13119095410E+00  0.21304945501E-01 0.  0.
         14    1    1    2    0    0 -0.13939866638E-01 -0.11387784269E-01  0.15454343698E-01  0.23724212349E-01  0.00000000000E+00 0.  1.
     999901    1    3    3    0    0  0.82042413016E-01 -0.95275863212E-01  0.11786713885E-01  0.88901483355E+00  0.88000000000E+00 0. -1.
        -11    1    4    4    0    0 -0.11893242920E-01  0.35700111196E-01 -0.11085579504E-01  0.39231344107E-01  0.51100000000E-03 0.  1.
         11    1    4    4    0    0 -0.56209303459E-01  0.70963536286E-01 -0.16155478079E-01  0.91959609996E-01  0.51100000000E-03 0. -1.
</event>
<event>
 8    1  0.1061722E+005  0.1043930E+01  0.7957747E-01            NaN
         13   -1    0    0    0    0  0.00000000000E+00  0.00000000000E+00  0.74505805969E-08  0.10566000000E+00  0.10566000000E+00 0.  1.
     999900   -1    0    0    0    0 -0.00000000000E+00 -0.00000000000E+00 -0.74505805969E-08  0.93827000000E+00  0.93827000000E+00 0.  1.
     999902    2    1    2    0    0 -0.10384673480E-01  0.62111233102E-02  0.20192783159E-01  0.10203892271E+01  0.10201176436E+01 0.  0.
     999903    2    3    3    0    0 -0.37570671076E-01 -0.69973430223E-01 -0.99193937419E-01  0.12865139922E+00  0.20097488346E-01 0.  0.
         14    1    1    2    0    0  0.10384673480E-01 -0.62111233102E-02 -0.20192783159E-01  0.23540772879E-01  0.00000000000E+00 0. -1.
     999901    1    3    3    0    0  0.27185997597E-01  0.76184553533E-01  0.11938672058E+00  0.89173782790E+00  0.88000000000E+00 0.  1.
        -11    1    4    4    0    0 -0.30615187391E-02 -0.34621424379E-02 -0.16113048143E-01  0.16770532749E-01  0.51100000000E-03 0. -1.
         11    1    4    4    0    0 -0.34509152337E-01 -0.66511287785E-01 -0.83080889276E-01  0.11188086647E+00  0.51100000000E-03 0.  1.
</event>
<event>
 8    1  0.1061722E+005  0.1043930E+01  0.7957747E-01            NaN
         13   -1    0    0    0    0  0.00000000000E+00  0.00000000000E+00  0.74505805969E-08  0.10566000000E+00  0.10566000000E+00 0.  1.
     999900   -1    0    0    0    0 -0.00000000000E+00 -0.00000000000E+00 -0.74505805969E-08  0.93827000000E+00  0.93827000000E+00 0. -1.
     999902    2    1    2    0    0  0.23510442253E-01  0.66697619038E-02 -0.24199084379E-02  0.10193722604E+01  0.10190764067E+01 0.  0.
     999903    2    3    3    0    0  0.65862372782E-01 -0.11072465061E+00 -0.24994944397E-02  0.13056680334E+00  0.21062817033E-01 0.  0.
         14    1    1    2    0    0 -0.23510442253E-01 -0.66697619038E-02  0.24199084379E-02  0.24557739628E-01  0.00000000000E+00 0. -1.
     999901    1    3    3    0    0 -0.42351930529E-01  0.11739441252E+00  0.79586001746E-04  0.88880545703E+00  0.88000000000E+00 0. -1.
        -11    1    4    4    0    0  0.43331248523E-01 -0.72018687249E-01 -0.11644367240E-01  0.84853643534E-01  0.51100000000E-03 0. -1.
         11    1    4    4    0    0  0.22531124260E-01 -0.38705963363E-01  0.91448728007E-02  0.45713159810E-01  0.51100000000E-03 0.  1.
</event>
<event>
 8    1  0.1061722E+005  0.1043930E+01  0.7957747E-01            NaN
         13   -1    0    0    0    0  0.00000000000E+00  0.00000000000E+00  0.74505805969E-08  0.10566000000E+00  0.10566000000E+00 0. -1.
     999900   -1    0    0    0    0 -0.00000000000E+00 -0.00000000000E+00 -0.74505805969E-08  0.93827000000E+00  0.93827000000E+00 0.  1.
     999902    2    1    2    0    0  0.12613687615E-01 -0.18749224931E-01  0.90678656941E-02  0.10195811861E+01  0.10192904053E+01 0.  0.
     999903    2    3    3    0    0 -0.10435907950E-01 -0.12384828523E+00 -0.38990301818E-01  0.13172608316E+00  0.19601311667E-01 0.  0.
         14    1    1    2    0    0 -0.12613687615E-01  0.18749224931E-01 -0.90678656941E-02  0.24348813914E-01  0.00000000000E+00 0.  1.
     999901    1    3    3    0    0  0.23049595565E-01  0.10509906030E+00  0.48058167512E-01  0.88785510293E+00  0.88000000000E+00 0.  1.
        -11    1    4    4    0    0 -0.79548051307E-02 -0.47848860888E-01 -0.24392596909E-01  0.54295969629E-01  0.51100000000E-03 0. -1.
         11    1    4    4    0    0 -0.24811028194E-02 -0.75999424342E-01 -0.14597704909E-01  0.77430113529E-01  0.51100000000E-03 0.  1.
</event>
<event>
 8    1  0.1061722E+005  0.1043930E+01  0.7957747E-01            NaN
         13   -1    0    0    0    0  0.00000000000E+00  0.00000000000E+00  0.74505805969E-08  0.10566000000E+00  0.10566000000E+00 0. -1.
     999900   -1    0    0    0    0 -0.00000000000E+00 -0.00000000000E+00 -0.74505805969E-08  0.93827000000E+00  0.93827000000E+00 0. -1.
     999902    2    1    2    0    0 -0.87689980664E-02 -0.20664281782E-03 -0.20686666531E-01  0.10214605496E+01  0.10212133853E+01 0.  0.
     999903    2    3    3    0    0  0.98790306013E-01 -0.61395892204E-01  0.53170954649E-01  0.12973857706E+00  0.21816686682E-01 0.  0.
         14    1    1    2    0    0  0.87689980664E-02  0.20664281782E-03  0.20686666531E-01  0.22469450382E-01  0.00000000000E+00 0. -1.
     999901    1    3    3    0    0 -0.10755930408E+00  0.61189249387E-01 -0.73857621180E-01  0.89172197256E+00  0.88000000000E+00 0. -1.
        -11    1    4    4    0    0  0.21623007458E-01 -0.37401796501E-02  0.82304571728E-02  0.23442374914E-01  0.51100000000E-03 0.  1.
         11    1    4    4    0    0  0.77167298555E-01 -0.57655712554E-01  0.44940497476E-01  0.10629620215E+00  0.51100000000E-03 0. -1.
</event>
<event>
 8    1  0.1061722E+005  0.1043930E+01  0.7957747E-01            NaN
         13   -1    0    0    0    0  0.00000000000E+00  0.00000000000E+00  0.74505805969E-08  0.10566000000E+00  0.10566000000E+00 0.  1.
     999900   -1    0    0    0    0 -0.00000000000E+00 -0.00000000000E+00 -0.74505805969E-08  0.93827000000E+00  0.93827000000E+00 0. -1.
     999902    2    1    2    0    0 -0.14048992574E-02  0.12077971700E-01 -0.19522935932E-01  0.10209300833E+01  0.10206709748E+01 0.  0.
     999903    2    3    3    0    0 -0.53423799857E-01  0.11388913051E+00  0.33921239443E-01  0.13192628240E+00  0.20713692628E-01 0.  0.
         14    1    1    2    0    0  0.14048992574E-02 -0.12077971700E-01  0.19522935932E-01  0.22999916732E-01  0.00000000000E+00 0.  1.
     999901    1    3    3    0    0  0.52018900599E-01 -0.10181115881E+00 -0.53444175375E-01  0.88900380087E+00  0.88000000000E+00 0. -1.
        -11    1    4    4    0    0 -0.38177959549E-01  0.94268997010E-01  0.33457565646E-01  0.10706946443E+00  0.51100000000E-03 0. -1.
         11    1    4    4    0    0 -0.15245840308E-01  0.19620133502E-01  0.46367379710E-03  0.24856817973E-01  0.51100000000E-03 0.  1.
</event>
<event>
 8    1  0.1061722E+005  0.1043930E+01  0.7957747E-01            NaN
         13   -1    0    0    0    0  0.00000000000E+00  0.00000000000E+00  0.74505805969E-08  0.10566000000E+00  0.10566000000E+00 0. -1.
     999900   -1    0    0    0    0 -0.00000000000E+00 -0.00000000000E+00 -0.74505805969E-08  0.93827000000E+00  0.93827000000E+00 0.  1.
     999902    2    1    2    0    0  0.74473639593E-02 -0.21359702497E-01 -0.81177799601E-02  0.10198967216E+01  0.10196135171E+01 0.  0.
     999903    2    3    3    0    0 -0.29159882485E-01 -0.91480385812E-01 -0.88760651290E-01  0.13267618900E+00  0.22484620841E-01 0.  0.
         14    1    1    2    0    0 -0.74473639593E-02  0.21359702497E-01  0.81177799601E-02  0.24033278432E-01  0.00000000000E+00 0. -1.
     999901    1    3    3    0    0  0.36607246444E-01  0.70120683314E-01  0.80642871330E-01  0.88722053257E+00  0.88000000000E+00 0. -1.
        -11    1    4    4    0    0 -0.13929532840E-01 -0.22406582367E-01 -0.14463656229E-01  0.30092279591E-01  0.51100000000E-03 0. -1.
         11    1    4    4    0    0 -0.15230349645E-01 -0.69073803445E-01 -0.74296995061E-01  0.10258390940E+00  0.51100000000E-03 0.  1.
</event>
<event>
 8    1  0.1061722E+005  0.1043930E+01  0.7957747E-01            NaN
         13   -1    0    0    0    0  0.00000000000E+00  0.00000000000E+00  0.74505805969E-08  0.10566000000E+00  0.10566000000E+00 0.  1.
     999900   -1    0    0    0    0 -0.00000000000E+00 -0.00000000000E+00 -0.74505805969E-08  0.93827000000E+00  0.93827000000E+00 0.  1.
     999902    2    1    2    0    0 -0.16293040085E-01 -0.13806148629E-01  0.10781268588E-01  0.10200070268E+01  0.10197264467E+01 0.  0.
     999903    2    3    3    0    0 -0.78707901390E-01 -0.29653943066E-01  0.10096664983E+00  0.13305710120E+00  0.20871936225E-01 0.  0.
         14    1    1    2    0    0  0.16293040085E-01  0.13806148629E-01 -0.10781268588E-01  0.23922973217E-01  0.00000000000E+00 0.  1.
     999901    1    3    3    0    0  0.62414861305E-01  0.15847794437E-01 -0.90185381241E-01  0.88694992558E+00  0.88000000000E+00 0.  1.
        -11    1    4    4    0    0 -0.37265380464E-01 -0.35214408498E-02  0.48551007100E-01  0.61307181783E-01  0.51100000000E-03 0. -1.
         11    1    4    4    0    0 -0.41442520926E-01 -0.26132502216E-01  0.52415642729E-01  0.71749919418E-01  0.51100000000E-03 0.  1.
</event>
<event>
 8    1  0.1061722E+005  0.1043930E+01  0.7957747E-01            NaN
         13   -1    0    0    0    0  0.00000000000E+00  0.00000000000E+00  0.74505805969E-08  0.10566000000E+00  0.10566000000E+00 0. -1.
     999900   -1    0    0    0    0 -0.00000000000E+00 -0.00000000000E+00 -0.74505805969E-08  0.93827000000E+00  0.93827000000E+00 0. -1.
     999902    2    1    2    0    0 -0.36761536273E-02  0.22261169412E-01 -0.54866012508E-02  0.10207098242E+01  0.10204456716E+01 0.  0.
     999903    2    3    3    0    0  0.94818206465E-01  0.65230040364E-01  0.60714124361E-01  0.13170476300E+00  0.20359009214E-01 0.  0.
         14    1    1    2    0    0  0.36761536273E-02 -0.22261169412E-01  0.54866012508E-02  0.23220175761E-01  0.00000000000E+00 0.  1.
     999901    1    3    3    0    0 -0.98494360092E-01 -0.42968870952E-01 -0.66200725612E-01  0.88900506124E+00  0.88000000000E+00 0.  1.
        -11    1    4    4    0    0  0.35836697050E-01  0.17539200932E-01  0.12447078942E-01  0.41798125795E-01  0.51100000000E-03 0.  1.
         11    1    4    4    0    0  0.58981509415E-01  0.47690839432E-01  0.48267045418E-01  0.89906637202E-01  0.51100000000E-03 0. -1.
</event>
<event>
 8    1  0.1061722E+005  0.1043930E+01  0.7957747E-01            NaN
         13   -1    0    0    0    0  0.00000000000E+00  0.00000000000E+00  0.74505805969E-08  0.10566000000E+00  0.10566000000E+00 0.  1.
     999900   -1    0    0    0    0 -0.00000000000E+00 -0.00000000000E+00 -0.74505805969E-08  0.93827000000E+00  0.93827000000E+00 0.  1.
     999902    2    1    2    0    0 -0.80066895336E-03 -0.19868125483E-01  0.11832931379E-01  0.10207912501E+01  0.10205289680E+01 0.  0.
     999903    2    3    3    0    0 -0.45988262688E-01  0.99252789320E-01 -0.64390046320E-01  0.12835545226E+00  0.19052757469E-01 0.  0.
         14    1    1    2    0    0  0.80066895336E-03  0.19868125483E-01 -0.11832931379E-01  0.23138749880E-01  0.00000000000E+00 0. -1.
     999901    1    3    3    0    0  0.45187593735E-01 -0.11912091480E+00  0.76222977699E-01  0.89243579786E+00  0.88000000000E+00 0. -1.
        -11    1    4    4    0    0 -0.26656115917E-01  0.49937869388E-01 -0.22883323247E-01  0.61059372079E-01  0.51100000000E-03 0. -1.
         11    1    4    4    0    0 -0.19332146771E-01  0.49314919931E-01 -0.41506723073E-01  0.67296080182E-01  0.51100000000E-03 0.  1.
</event>
<event>
 8    1  0.1061722E+005  0.1043930E+01  0.7957747E-01            NaN
         13   -1    0    0    0    0  0.00000000000E+00  0.00000000000E+00  0.74505805969E-08  0.10566000000E+00  0.10566000000E+00 0. -1.
     999900   -1    0    0    0    0 -0.00000000000E+00 -0.00000000000E+00 -0.74505805969E-08  0.93827000000E+00  0.93827000000E+00 0. -1.
     999902    2    1    2    0    0 -0.41121263273E-02  0.21519210130E-01  0.91676890341E-02  0.10201806314E+01  0.10199041563E+01 0.  0.
     999903    2    3    3    0    0 -0.11305781219E+00  0.48022425441E-01  0.45185989120E-01  0.13233554307E+00  0.19562722324E-01 0.  0.
         14    1    1    2    0    0  0.41121263273E-02 -0.21519210130E-01 -0.91676890341E-02  0.23749368618E-01  0.00000000000E+00 0. -1.
     999901    1    3    3    0    0  0.10894568587E+00 -0.26503215311E-01 -0.36018300086E-01  0.88784508831E+00  0.88000000000E+00 0.  1.
        -11    1    4    4    0    0 -0.14285379007E-01  0.13047174782E-01  0.10125122823E-01  0.21842162355E-01  0.51100000000E-03 0. -1.
         11    1    4    4    0    0 -0.98772433186E-01  0.34975250659E-01  0.35060866297E-01  0.11049338072E+00  0.51100000000E-03 0.  1.
</event>
<event>
 8    1  0.1061722E+005  0.1043930E+01  0.7957747E-01            NaN
         13   -1    0    0    0    0  0.00000000000E+00  0.00000000000E+00  0.74505805969E-08  0.10566000000E+00  0.10566000000E+00 0. -1.
     999900   -1    0    0    0    0 -0.00000000000E+00 -0.00000000000E+00 -0.74505805969E-08  0.93827000000E+00  0.93827000000E+00 0. -1.
     999902    2    1    2    0    0 -0.11380028152E-01  0.43092934808E-02  0.24076975138E-01  0.10169526802E+01  0.10165947954E+01 0.  0.
     999903    2    3    3    0    0  0.16062570294E-01  0.49312367341E-01  0.11796688716E+00  0.13038982940E+00  0.19889831725E-01 0.  0.
         14    1    1    2    0    0  0.11380028152E-01 -0.43092934808E-02 -0.24076975138E-01  0.26977319786E-01  0.00000000000E+00 0.  1.
     999901    1    3    3    0    0 -0.27442598446E-01 -0.45003073860E-01 -0.93889912026E-01  0.88656285082E+00  0.88000000000E+00 0. -1.
        -11    1    4    4    0    0  0.55990538129E-02  0.32277461165E-01  0.52024234186E-01  0.61481427818E-01  0.51100000000E-03 0. -1.
         11    1    4    4    0    0  0.10463516481E-01  0.17034906176E-01  0.65942652978E-01  0.68908401580E-01  0.51100000000E-03 0.  1.
</event>
<event>
 8    1  0.1061722E+005  0.1043930E+01  0.7957747E-01            NaN
         13   -1    0    0    0    0  0.00000000000E+00  0.00000000000E+00  0.74505805969E-08  0.10566000000E+00  0.10566000000E+00 0. -1.
     999900   -1    0    0    0    0 -0.00000000000E+00 -0.00000000000E+00 -0.74505805969E-08  0.93827000000E+00  0.93827000000E+00 0.  1.
     999902    2    1    2    0    0  0.92761589804E-02 -0.16821547933E-01  0.11626467502E-01  0.10214759058E+01  0.10212290829E+01 0.  0.
     999903    2    3    3    0    0  0.34100761476E-01  0.71148659223E-01  0.10370925273E+00  0.13196241091E+00  0.20820066043E-01 0.  0.
         14    1    1    2    0    0 -0.92761589804E-02  0.16821547933E-01 -0.11626467502E-01  0.22454094211E-01  0.00000000000E+00 0.  1.
     999901    1    3    3    0    0 -0.24824602495E-01 -0.87970207156E-01 -0.92082785224E-01  0.88951349488E+00  0.88000000000E+00 0.  1.
        -11    1    4    4    0    0  0.24717495252E-02  0.22476771024E-01  0.38559666042E-01  0.44703733040E-01  0.51100000000E-03 0. -1.
         11    1    4    4    0    0  0.31629011951E-01  0.48671888198E-01  0.65149586683E-01  0.87258677871E-01  0.51100000000E-03 0.  1.
</event>
<event>
 8    1  0.1061722E+005  0.1043930E+01  0.7957747E-01            NaN
         13   -1    0    0    0    0  0.00000000000E+00  0.00000000000E+00  0.74505805969E-08  0.10566000000E+00  0.10566000000E+00 0. -1.
     999900   -1    0    0    0    0 -0.00000000000E+00 -0.00000000000E+00 -0.74505805969E-08  0.93827000000E+00  0.93827000000E+00 0.  1.
     999902    2    1    2    0    0 -0.44006339217E-02  0.10241728728E-01  0.21798621679E-01  0.10194465670E+01  0.10191525226E+01 0.  0.
     999903    2    3    3    0    0 -0.53204483551E-01  0.89336559797E-01  0.79810952646E-01  0.13265276986E+00  0.20377222625E-01 0.  0.
         14    1    1    2    0    0  0.44006339217E-02 -0.10241728728E-01 -0.21798621679E-01  0.24483433039E-01  0.00000000000E+00 0.  1.
     999901    1    3    3    0    0  0.48803849629E-01 -0.79094831068E-01 -0.58012330967E-01  0.88679379711E+00  0.88000000000E+00 0.  1.
        -11    1    4    4    0    0 -0.28217375506E-01  0.28287116674E-01  0.28524539711E-01  0.49094722088E-01  0.51100000000E-03 0.  1.
         11    1    4    4    0    0 -0.24987108045E-01  0.61049443123E-01  0.51286412936E-01  0.83558047768E-01  0.51100000000E-03 0. -1.
</event>
<event>
 8    1  0.1061722E+005  0.1043930E+01  0.7957747E-01            NaN
         13   -1    0    0    0    0  0.00000000000E+00  0.00000000000E+00  0.74505805969E-08  0.10566000000E+00  0.10566000000E+00 0. -1.
     999900   -1    0    0    0    0 -0.00000000000E+00 -0.00000000000E+00 -0.74505805969E-08  0.93827000000E+00  0.93827000000E+00 0. -1.
     999902    2    1    2    0    0  0.88471003189E-03 -0.19613003224E-01  0.12555284748E-01  0.10206257561E+01  0.10203596652E+01 0.  0.
     999903    2    3    3    0    0 -0.45358758956E-01 -0.55955653754E-01 -0.10465783050E+00  0.13090773279E+00  0.31545535634E-01 0.  0.
         14    1    1    2    0    0 -0.88471003189E-03  0.19613003224E-01 -0.12555284748E-01  0.23304243871E-01  0.00000000000E+00 0.  1.
     999901    1    3    3    0    0  0.46243468988E-01  0.36342650530E-01  0.11721311524E+00  0.88971802334E+00  0.88000000000E+00 0.  1.
        -11    1    4    4    0    0 -0.22611766223E-01 -0.46440989178E-01 -0.54946450533E-01  0.75415058143E-01  0.51100000000E-03 0. -1.
         11    1    4    4    0    0 -0.22746992733E-01 -0.95146645762E-02 -0.49711379963E-01  0.55492674645E-01  0.51100000000E-03 0.  1.
</event>
<event>
 8    1  0.1061722E+005  0.1043930E+01  0.7957747E-01            NaN
         13   -1    0    0    0    0  0.00000000000E+00  0.00000000000E+00  0.74505805969E-08  0.10566000000E+00  0.10566000000E+00 0. -1.
     999900   -1    0    0    0    0 -0.00000000000E+00 -0.00000000000E+00 -0.74505805969E-08  0.93827000000E+00  0.93827000000E+00 0.  1.
     999902    2    1    2    0    0  0.36887279903E-03 -0.23866413351E-01  0.25535362400E-02  0.10199245360E+01  0.10196419945E+01 0.  0.
     999903    2    3    3    0    0 -0.80410787156E-01  0.89432968299E-01 -0.38910325973E-01  0.12802692126E+00  0.20315722759E-01 0.  0.
         14    1    1    2    0    0 -0.36887279903E-03  0.23866413351E-01 -0.25535362400E-02  0.24005463976E-01  0.00000000000E+00 0.  1.
     999901    1    3    3    0    0  0.80779659955E-01 -0.11329938165E+00  0.41463862213E-01  0.89189761476E+00  0.88000000000E+00 0.  1.
        -11    1    4    4    0    0 -0.29792133386E-01  0.46668974150E-01 -0.13004791391E-01  0.56876621560E-01  0.51100000000E-03 0. -1.
         11    1    4    4    0    0 -0.50618653770E-01  0.42763994149E-01 -0.25905534581E-01  0.71150299704E-01  0.51100000000E-03 0.  1.
</event>
<event>
 8    1  0.1061722E+005  0.1043930E+01  0.7957747E-01            NaN
         13   -1    0    0    0    0  0.00000000000E+00  0.00000000000E+00  0.74505805969E-08  0.10566000000E+00  0.10566000000E+00 0. -1.
     999900   -1    0    0    0    0 -0.00000000000E+00 -0.00000000000E+00 -0.74505805969E-08  0.93827000000E+00  0.93827000000E+00 0.  1.
     999902    2    1    2    0    0 -0.19722432968E-01 -0.30560823916E-02 -0.11967403449E-01  0.10206591438E+01  0.10203938235E+01 0.  0.
     999903    2    3    3    0    0  0.12545085860E+00  0.85879212301E-02 -0.17720075847E-01  0.12867037672E+00  0.20745950049E-01 0.  0.
         14    1    1    2    0    0  0.19722432968E-01  0.30560823916E-02  0.11967403449E-01  0.23270856174E-01  0.00000000000E+00 0. -1.
     999901    1    3    3    0    0 -0.14517329156E+00 -0.11644003622E-01  0.57526723972E-02  0.89198876711E+00  0.88000000000E+00 0. -1.
        -11    1    4    4    0    0  0.13994965986E-01 -0.43400205145E-02 -0.60507556090E-02  0.15860883187E-01  0.51100000000E-03 0.  1.
         11    1    4    4    0    0  0.11145589261E+00  0.12927941745E-01 -0.11669320238E-01  0.11280949353E+00  0.51100000000E-03 0. -1.
</event>
<event>
 8    1  0.1061722E+005  0.1043930E+01  0.7957747E-01            NaN
         13   -1    0    0    0    0  0.00000000000E+00  0.00000000000E+00  0.74505805969E-08  0.10566000000E+00  0.10566000000E+00 0. -1.
     999900   -1    0    0    0    0 -0.00000000000E+00 -0.00000000000E+00 -0.74505805969E-08  0.93827000000E+00  0.93827000000E+00 0. -1.
     999902    2    1    2    0    0  0.10323005850E-01  0.14028101717E-02  0.23500172236E-01  0.10182241559E+01  0.10178996224E+01 0.  0.
     999903    2    3    3    0    0  0.42459843296E-01  0.55628094477E-01 -0.10393064548E+00  0.12681416544E+00  0.19568604891E-01 0.  0.
         14    1    1    2    0    0 -0.10323005850E-01 -0.14028101717E-02 -0.23500172236E-01  0.25705844107E-01  0.00000000000E+00 0.  1.
     999901    1    3    3    0    0 -0.32136837446E-01 -0.54225284306E-01  0.12743081772E+00  0.89140999046E+00  0.88000000000E+00 0.  1.
        -11    1    4    4    0    0  0.26533564788E-01  0.24248717254E-01 -0.39578727445E-01  0.53467439961E-01  0.51100000000E-03 0.  1.
         11    1    4    4    0    0  0.15926278507E-01  0.31379377223E-01 -0.64351918037E-01  0.73346725476E-01  0.51100000000E-03 0. -1.
</event>
<event>
 8    1  0.1061722E+005  0.1043930E+01  0.7957747E-01            NaN
         13   -1    0    0    0    0  0.00000000000E+00  0.00000000000E+00  0.74505805969E-08  0.10566000000E+00  0.10566000000E+00 0.  1.
     999900   -1    0    0    0    0 -0.00000000000E+00 -0.00000000000E+00 -0.74505805969E-08  0.93827000000E+00  0.93827000000E+00 0. -1.
     999902    2    1    2    0    0 -0.69680413187E-02  0.20937091821E-01 -0.61564719261E-02  0.10210211030E+01  0.10207640645E+01 0.  0.
     999903    2    3    3    0    0  0.20327900420E-01  0.82169267209E-01  0.99234443731E-01  0.13220070900E+00  0.21553204614E-01 0.  0.
         14    1    1    2    0    0  0.69680413187E-02 -0.20937091821E-01  0.61564719261E-02  0.22908896968E-01  0.00000000000E+00 0.  1.
     999901    1    3    3    0    0 -0.27295941739E-01 -0.61232175389E-01 -0.10539091566E+00  0.88882039403E+00  0.88000000000E+00 0. -1.
        -11    1    4    4    0    0  0.69760361028E-02  0.31067310862E-01  0.53848104152E-01  0.62559750045E-01  0.51100000000E-03 0.  1.
         11    1    4    4    0    0  0.13351864317E-01  0.51101956347E-01  0.45386339579E-01  0.69640958959E-01  0.51100000000E-03 0. -1.
</event>
<event>
 8    1  0.1061722E+005  0.1043930E+01  0.7957747E-01            NaN
         13   -1    0    0    0    0  0.00000000000E+00  0.00000000000E+00  0.74505805969E-08  0.10566000000E+00  0.10566000000E+00 0. -1.
     999900   -1    0    0    0    0 -0.00000000000E+00 -0.00000000000E+00 -0.74505805969E-08  0.93827000000E+00  0.93827000000E+00 0. -1.
     999902    2    1    2    0    0 -0.12923859916E-02  0.79241289478E-02  0.22522072934E-01  0.10200196288E+01  0.10197393477E+01 0.  0.
     999903    2    3    3    0    0 -0.79213836542E-01  0.62930827717E-01  0.83594075175E-01  0.13276133563E+00  0.20061950465E-01 0.  0.
         14    1    1    2    0    0  0.12923859916E-02 -0.79241289478E-02 -0.22522072934E-01  0.23910371189E-01  0.00000000000E+00 0.  1.
     999901    1    3    3    0    0  0.77921450551E-01 -0.55006698769E-01 -0.61072002241E-01  0.88725829318E+00  0.88000000000E+00 0. -1.
        -11    1    4    4    0    0 -0.33660416024E-01  0.21474824539E-01  0.21722095457E-01  0.45456597408E-01  0.51100000000E-03 0. -1.
         11    1    4    4    0    0 -0.45553420518E-01  0.41456003178E-01  0.61871979718E-01  0.87304738219E-01  0.51100000000E-03 0.  1.
</event>
<event>
 8    1  0.1061722E+005  0.1043930E+01  0.7957747E-01            NaN
         13   -1    0    0    0    0  0.00000000000E+00  0.00000000000E+00  0.74505805969E-08  0.10566000000E+00  0.10566000000E+00 0. -1.
     999900   -1    0    0    0    0 -0.00000000000E+00 -0.00000000000E+00 -0.74505805969E-08  0.93827000000E+00  0.93827000000E+00 0.  1.
     999902    2    1    2    0    0 -0.19887856558E-01 -0.12699860360E-01  0.47220734584E-02  0.10198652692E+01  0.10195813141E+01 0.  0.
     999903    2    3    3    0    0 -0.12432860530E+00 -0.36167147185E-02  0.42233181005E-01  0.13284922833E+00  0.19864369377E-01 0.  0.
         14    1    1    2    0    0  0.19887856558E-01  0.12699860360E-01 -0.47220734584E-02  0.24064730819E-01  0.00000000000E+00 0.  1.
     999901    1    3    3    0    0  0.10444074874E+00 -0.90831456418E-02 -0.37511107547E-01  0.88701604085E+00  0.88000000000E+00 0.  1.
        -11    1    4    4    0    0 -0.26104503539E-01  0.70758203870E-02  0.69170443816E-02  0.27921657600E-01  0.51100000000E-03 0. -1.
         11    1    4    4    0    0 -0.98224101757E-01 -0.10692535105E-01  0.35316136624E-01  0.10492757073E+00  0.51100000000E-03 0.  1.
</event>
<event>
 8    1  0.1061722E+005  0.1043930E+01  0.7957747E-01            NaN
         13   -1    0    0    0    0  0.00000000000E+00  0.00000000000E+00  0.74505805969E-08  0.10566000000E+00  0.10566000000E+00 0.  1.
     999900   -1    0    0    0    0 -0.00000000000E+00 -0.00000000000E+00 -0.74505805969E-08  0.93827000000E+00  0.93827000000E+00 0. -1.
     999902    2    1    2    0    0 -0.15732993413E-01 -0.13237083523E-01  0.11949606551E-01  0.10201489033E+01  0.10198716804E+01 0.  0.
     999903    2    3    3    0    0 -0.86978620271E-01 -0.87798188194E-01 -0.43289127443E-01  0.13240647706E+00  0.19588884036E-01 0.  0.
         14    1    1    2    0    0  0.15732993413E-01  0.13237083523E-01 -0.11949606551E-01  0.23781096667E-01  0.00000000000E+00 0. -1.
     999901    1    3    3    0    0  0.71245626858E-01  0.74561104671E-01  0.55238733994E-01  0.88774242628E+00  0.88000000000E+00 0. -1.
        -11    1    4    4    0    0 -0.56191520518E-01 -0.60086133011E-01 -0.38082262855E-01  0.90655116918E-01  0.51100000000E-03 0.  1.
         11    1    4    4    0    0 -0.30787099753E-01 -0.27712055183E-01 -0.52068645879E-02  0.41751360140E-01  0.51100000000E-03 0. -1.
</event>
<event>
 8    1  0.1061722E+005  0.1043930E+01  0.7957747E-01            NaN
         13   -1    0    0    0    0  0.00000000000E+00  0.00000000000E+00  0.74505805969E-08  0.10566000000E+00  0.10566000000E+00 0.  1.
     999900   -1    0    0    0    0 -0.00000000000E+00 -0.00000000000E+00 -0.74505805969E-08  0.93827000000E+00  0.93827000000E+00 0. -1.
     999902    2    1    2    0    0  0.37907086697E-02  0.15565909167E-01 -0.17632762318E-01  0.10201060350E+01  0.10198277999E+01 0.  0.
     999903    2    3    3    0    0  0.11305479792E+00  0.57081809832E-01 -0.32581159050E-01  0.13225150540E+00  0.19728365555E-01 0.  0.
         14    1    1    2    0    0 -0.37907086697E-02 -0.15565909167E-01  0.17632762318E-01  0.23823964980E-01  0.00000000000E+00 0.  1.
     999901    1    3    3    0    0 -0.10926408925E+00 -0.41515900665E-01  0.14948396732E-01  0.88785452962E+00  0.88000000000E+00 0. -1.
        -11    1    4    4    0    0  0.82902213841E-01  0.45538177955E-01 -0.32329324004E-01  0.99959737008E-01  0.51100000000E-03 0. -1.
         11    1    4    4    0    0  0.30152584082E-01  0.11543631876E-01 -0.25183504557E-03  0.32291768388E-01  0.51100000000E-03 0.  1.
</event>
<event>
 8    1  0.1061722E+005  0.1043930E+01  0.7957747E-01            NaN
         13   -1    0    0    0    0  0.00000000000E+00  0.00000000000E+00  0.74505805969E-08  0.10566000000E+00  0.10566000000E+00 0. -1.
     999900   -1    0    0    0    0 -0.00000000000E+00 -0.00000000000E+00 -0.74505805969E-08  0.93827000000E+00  0.93827000000E+00 0.  1.
     999902    2    1    2    0    0  0.18101256822E-01  0.13085174490E-01  0.91628483041E-02  0.10197880225E+01  0.10195022196E+01 0.  0.
     999903    2    3    3    0    0  0.80814780643E-01  0.28258538325E-01  0.99770684720E-01  0.13278576934E+00  0.18662723574E-01 0.  0.
         14    1    1    2    0    0 -0.18101256822E-01 -0.13085174490E-01 -0.91628483041E-02  0.24141977529E-01  0.00000000000E+00 0.  1.
     999901    1    3    3    0    0 -0.62713523821E-01 -0.15173363834E-01 -0.90607836416E-01  0.88700225313E+00  0.88000000000E+00 0. -1.
        -11    1    4    4    0    0  0.17549357070E-01  0.94757020083E-02  0.13176813656E-01  0.23909378939E-01  0.51100000000E-03 0. -1.
         11    1    4    4    0    0  0.63265423572E-01  0.18782836316E-01  0.86593871064E-01  0.10887639040E+00  0.51100000000E-03 0.  1.
</event>
<event>
 8    1  0.1061722E+005  0.1043930E+01  0.7957747E-01            NaN
         13   -1    0    0    0    0  0.00000000000E+00  0.00000000000E+00  0.74505805969E-08  0.10566000000E+00  0.10566000000E+00 0. -1.
     999900   -1    0    0    0    0 -0.00000000000E+00 -0.00000000000E+00 -0.74505805969E-08  0.93827000000E+00  0.93827000000E+00 0.  1.
     999902    2    1    2    0    0  0.14646416592E-02  0.20675566532E-01  0.95445927215E-02  0.10211106337E+01  0.10208556229E+01 0.  0.
     999903    2    3    3    0    0 -0.77063224729E-01  0.25182866264E-01  0.10301177355E+00  0.13267208468E+00  0.20433776077E-01 0.  0.
         14    1    1    2    0    0 -0.14646416592E-02 -0.20675566532E-01 -0.95445927215E-02  0.22819366267E-01  0.00000000000E+00 0.  1.
     999901    1    3    3    0    0  0.78527866388E-01 -0.45072997321E-02 -0.93467180828E-01  0.88843854905E+00  0.88000000000E+00 0.  1.
        -11    1    4    4    0    0 -0.29106557502E-01  0.19484754529E-01  0.48736884993E-01  0.60019933593E-01  0.51100000000E-03 0.  1.
         11    1    4    4    0    0 -0.47956667227E-01  0.56981117354E-02  0.54274888557E-01  0.72652151088E-01  0.51100000000E-03 0. -1.
</event>
<event>
 8    1  0.1061722E+005  0.1043930E+01  0.7957747E-01            NaN
         13   -1    0    0    0    0  0.00000000000E+00  0.00000000000E+00  0.74505805969E-08  0.10566000000E+00  0.10566000000E+00 0. -1.
     999900   -1    0    0    0    0 -0.00000000000E+00 -0.00000000000E+00 -0.74505805969E-08  0.93827000000E+00  0.93827000000E+00 0. -1.
     999902    2    1    2    0    0  0.17869627482E-01  0.14641744952E-01  0.13884678200E-02  0.10207862725E+01  0.10205238762E+01 0.  0.
     999903    2    3    3    0    0 -0.63269347673E-01  0.59705265664E-01 -0.95468857936E-01  0.13062022293E+00  0.19483600770E-01 0.  0.
         14    1    1    2    0    0 -0.17869627482E-01 -0.14641744952E-01 -0.13884678200E-02  0.23143727540E-01  0.00000000000E+00 0.  1.
     999901    1    3    3    0    0  0.81138975155E-01 -0.45063520712E-01  0.96857325756E-01  0.89016604953E+00  0.88000000000E+00 0.  1.
        -11    1    4    4    0    0 -0.31952715196E-01  0.35818444214E-01 -0.39417165152E-01  0.62112084041E-01  0.51100000000E-03 0. -1.
         11    1    4    4    0    0 -0.31316632477E-01  0.23886821450E-01 -0.56051692784E-01  0.68508138886E-01  0.51100000000E-03 0.  1.
</event>
<event>
 8    1  0.1061722E+005  0.1043930E+01  0.7957747E-01            NaN
         13   -1    0    0    0    0  0.00000000000E+00  0.00000000000E+00  0.74505805969E-08  0.10566000000E+00  0.10566000000E+00 0. -1.
     999900   -1    0    0    0    0 -0.00000000000E+00 -0.00000000000E+00 -0.74505805969E-08  0.93827000000E+00  0.93827000000E+00 0. -1.
     999902    2    1    2    0    0 -0.70354268725E-02  0.20403367206E-01  0.86504344372E-02  0.10206786637E+01  0.10204137934E+01 0.  0.
     999903    2    3    3    0    0  0.54035705485E-01  0.10106890878E+00  0.64792344835E-01  0.13310414461E+00  0.19592947035E-01 0.  0.
         14    1    1    2    0    0  0.70354268725E-02 -0.20403367206E-01 -0.86504344372E-02  0.23251336318E-01  0.00000000000E+00 0.  1.
     999901    1    3    3    0    0 -0.61071132357E-01 -0.80665541574E-01 -0.56141910398E-01  0.88757451907E+00  0.88000000000E+00 0. -1.
        -11    1    4    4    0    0  0.74290657910E-02  0.14001576894E-01  0.17854839388E-02  0.15958829780E-01  0.51100000000E-03 0. -1.
         11    1    4    4    0    0  0.46606639694E-01  0.87067331886E-01  0.63006860897E-01  0.11714531483E+00  0.51100000000E-03 0.  1.
</event>
<event>
 8    1  0.1061722E+005  0.1043930E+01  0.7957747E-01            NaN
         13   -1    0    0    0    0  0.00000000000E+00  0.00000000000E+00  0.74505805969E-08  0.10566000000E+00  0.10566000000E+00 0.  1.
     999900   -1    0    0    0    0 -0.00000000000E+00 -0.00000000000E+00 -0.74505805969E-08  0.93827000000E+00  0.93827000000E+00 0. -1.
     999902    2    1    2    0    0  0.20257257438E-02  0.26715932921E-01 -0.10640373594E-02  0.10171162570E+01  0.10167627567E+01 0.  0.
     999903    2    3    3    0    0 -0.85667255496E-01 -0.87310096097E-01 -0.17891570981E-01  0.12527817748E+00  0.20312112021E-01 0.  0.
         14    1    1    2    0    0 -0.20257257438E-02 -0.26715932921E-01  0.10640373594E-02  0.26813742971E-01  0.00000000000E+00 0.  1.
     999901    1    3    3    0    0  0.87692981240E-01  0.11402602902E+00  0.16827533621E-01  0.89183807955E+00  0.88000000000E+00 0. -1.
        -11    1    4    4    0    0 -0.40077896725E-01 -0.33141371857E-01  0.93305715181E-03  0.52016536324E-01  0.51100000000E-03 0.  1.
         11    1    4    4    0    0 -0.45589358771E-01 -0.54168724240E-01 -0.18824628133E-01  0.73261641152E-01  0.51100000000E-03 0. -1.
</event>
<event>
 8    1  0.1061722E+005  0.1043930E+01  0.7957747E-01            NaN
         13   -1    0    0    0    0  0.00000000000E+00  0.00000000000E+00  0.74505805969E-08  0.10566000000E+00  0.10566000000E+00 0.  1.
     999900   -1    0    0    0    0 -0.00000000000E+00 -0.00000000000E+00 -0.74505805969E-08  0.93827000000E+00  0.93827000000E+00 0.  1.
     999902    2    1    2    0    0  0.23050676532E-01  0.20486000581E-02  0.64949033311E-02  0.10198943136E+01  0.10196110517E+01 0.  0.
     999903    2    3    3    0    0 -0.10423919553E-01 -0.36027541139E-01  0.12371381466E+00  0.13067520997E+00  0.19085616109E-01 0.  0.
         14    1    1    2    0    0 -0.23050676532E-01 -0.20486000581E-02 -0.64949033311E-02  0.24035686386E-01  0.00000000000E+00 0. -1.
     999901    1    3    3    0    0  0.33474596085E-01  0.38076141197E-01 -0.11721891133E+00  0.88921910364E+00  0.88000000000E+00 0.  1.
        -11    1    4    4    0    0 -0.71121450118E-02 -0.80446736748E-02  0.60722317414E-01  0.61666525233E-01  0.51100000000E-03 0.  1.
         11    1    4    4    0    0 -0.33117745411E-02 -0.27982867464E-01  0.62991497251E-01  0.69008684736E-01  0.51100000000E-03 0. -1.
</event>
<event>
 8    1  0.1061722E+005  0.1043930E+01  0.7957747E-01            NaN
         13   -1    0    0    0    0  0.00000000000E+00  0.00000000000E+00  0.74505805969E-08  0.10566000000E+00  0.10566000000E+00 0.  1.
     999900   -1    0    0    0    0 -0.00000000000E+00 -0.00000000000E+00 -0.74505805969E-08  0.93827000000E+00  0.93827000000E+00 0. -1.
     999902    2    1    2    0    0  0.99499917263E-02 -0.20255023447E-01  0.40958172026E-02  0.10209943503E+01  0.10207367042E+01 0.  0.
     999903    2    3    3    0    0  0.14545924677E-01  0.80616813763E-01  0.99089770853E-01  0.13014077006E+00  0.20178769961E-01 0.  0.
         14    1    1    2    0    0 -0.99499917263E-02  0.20255023447E-01 -0.40958172026E-02  0.22935649734E-01  0.00000000000E+00 0.  1.
     999901    1    3    3    0    0 -0.45959329511E-02 -0.10087183721E+00 -0.94993953651E-01  0.89085358021E+00  0.88000000000E+00 0. -1.
        -11    1    4    4    0    0 -0.46294659407E-02  0.18578336860E-01  0.18316533462E-01  0.26501756064E-01  0.51100000000E-03 0. -1.
         11    1    4    4    0    0  0.19175390618E-01  0.62038476902E-01  0.80773237391E-01  0.10363901399E+00  0.51100000000E-03 0.  1.
</event>
<event>
 8    1  0.1061722E+005  0.1043930E+01  0.7957747E-01            NaN
         13   -1    0    0    0    0  0.00000000000E+00  0.00000000000E+00  0.74505805969E-08  0.10566000000E+00  0.10566000000E+00 0.  1.
     999900   -1    0    0    0    0 -0.00000000000E+00 -0.00000000000E+00 -0.74505805969E-08  0.93827000000E+00  0.93827000000E+00 0. -1.
     999902    2    1    2    0    0 -0.42322968549E-02 -0.16079964044E-01  0.18243481163E-01  0.10192459528E+01  0.10189470105E+01 0.  0.
     999903    2    3    3    0    0  0.61868012119E-01 -0.11071235649E-01 -0.10956332179E+00  0.12754593763E+00  0.17709363087E-01 0.  0.
         14    1    1    2    0    0  0.42322968549E-02  0.16079964044E-01 -0.18243481163E-01  0.24684047182E-01  0.00000000000E+00 0.  1.
     999901    1    3    3    0    0 -0.66100308974E-01 -0.50087283944E-02  0.12780680296E+00  0.89170001519E+00  0.88000000000E+00 0.  1.
        -11    1    4    4    0    0  0.38906760133E-01  0.17419503780E-02 -0.67825179209E-01  0.78213083502E-01  0.51100000000E-03 0. -1.
         11    1    4    4    0    0  0.22961251986E-01 -0.12813186027E-01 -0.41738142584E-01  0.49332854127E-01  0.51100000000E-03 0.  1.
</event>
<event>
 8    1  0.1061722E+005  0.1043930E+01  0.7957747E-01            NaN
         13   -1    0    0    0    0  0.00000000000E+00  0.00000000000E+00  0.74505805969E-08  0.10566000000E+00  0.10566000000E+00 0. -1.
     999900   -1    0    0    0    0 -0.00000000000E+00 -0.00000000000E+00 -0.74505805969E-08  0.93827000000E+00  0.93827000000E+00 0.  1.
     999902    2    1    2    0    0 -0.21482987555E-01 -0.48805261059E-02 -0.24243934204E-02  0.10217666074E+01  0.10215262033E+01 0.  0.
     999903    2    3    3    0    0 -0.10114643148E+00 -0.85892152122E-01 -0.87020979562E-02  0.13443997223E+00  0.19756447745E-01 0.  0.
         14    1    1    2    0    0  0.21482987555E-01  0.48805261059E-02  0.24243934204E-02  0.22163392629E-01  0.00000000000E+00 0. -1.
     999901    1    3    3    0    0  0.79663443928E-01  0.81011626016E-01  0.62777045359E-02  0.88732663514E+00  0.88000000000E+00 0. -1.
        -11    1    4    4    0    0 -0.66445900799E-01 -0.45554696344E-01 -0.27127212847E-03  0.80564401578E-01  0.51100000000E-03 0.  1.
         11    1    4    4    0    0 -0.34700530684E-01 -0.40337455778E-01 -0.84308258278E-02  0.53875570657E-01  0.51100000000E-03 0. -1.
</event>
<event>
 8    1  0.1061722E+005  0.1043930E+01  0.7957747E-01            NaN
         13   -1    0    0    0    0  0.00000000000E+00  0.00000000000E+00  0.74505805969E-08  0.10566000000E+00  0.10566000000E+00 0. -1.
     999900   -1    0    0    0    0 -0.00000000000E+00 -0.00000000000E+00 -0.74505805969E-08  0.93827000000E+00  0.93827000000E+00 0. -1.
     999902    2    1    2    0    0 -0.91101431935E-02  0.12487126111E-01 -0.15949832764E-01  0.10217191875E+01  0.10214777422E+01 0.  0.
     999903    2    3    3    0    0 -0.62764592562E-01  0.10740658740E+00  0.42545198889E-01  0.13306280125E+00  0.20495024544E-01 0.  0.
         14    1    1    2    0    0  0.91101431935E-02 -0.12487126111E-01  0.15949832764E-01  0.22210812518E-01  0.00000000000E+00 0. -1.
     999901    1    3    3    0    0  0.53654449369E-01 -0.94919461287E-01 -0.58495031654E-01  0.88865638623E+00  0.88000000000E+00 0.  1.
        -11    1    4    4    0    0 -0.18253477522E-02  0.16646308356E-01  0.59096882275E-02  0.17765613197E-01  0.51100000000E-03 0.  1.
         11    1    4    4    0    0 -0.60939244810E-01  0.90760279041E-01  0.36635510662E-01  0.11529718805E+00  0.51100000000E-03 0. -1.
</event>
<event>
 8    1  0.1061722E+005  0.1043930E+01  0.7957747E-01            NaN
         13   -1    0    0    0    0  0.00000000000E+00  0.00000000000E+00  0.74505805969E-08  0.10566000000E+00  0.10566000000E+00 0.  1.
     999900   -1    0    0    0    0 -0.00000000000E+00 -0.00000000000E+00 -0.74505805969E-08  0.93827000000E+00  0.93827000000E+00 0.  1.
     999902    2    1    2    0    0  0.15108031237E-01 -0.12850984819E-01  0.12863010798E-01  0.10202898336E+01  0.10200159250E+01 0.  0.
     999903    2    3    3    0    0  0.10012271583E-01  0.10829582011E+00 -0.65544966992E-01  0.12852174378E+00  0.19835969614E-01 0.  0.
         14    1    1    2    0    0 -0.15108031237E-01  0.12850984819E-01 -0.12863010798E-01  0.23640166359E-01  0.00000000000E+00 0. -1.
     999901    1    3    3    0    0  0.50957596540E-02 -0.12114680493E+00  0.78407977790E-01  0.89176808986E+00  0.88000000000E+00 0.  1.
        -11    1    4    4    0    0  0.37664249053E-03  0.39573559500E-01 -0.34472997303E-01  0.52486732944E-01  0.51100000000E-03 0.  1.
         11    1    4    4    0    0  0.96356290929E-02  0.68722260612E-01 -0.31071969689E-01  0.76035010837E-01  0.51100000000E-03 0. -1.
</event>
<event>
 8    1  0.1061722E+005  0.1043930E+01  0.7957747E-01            NaN
         13   -1    0    0    0    0  0.00000000000E+00  0.00000000000E+00  0.74505805969E-08  0.10566000000E+00  0.10566000000E+00 0. -1.
     999900   -1    0    0    0    0 -0.00000000000E+00 -0.00000000000E+00 -0.74505805969E-08  0.93827000000E+00  0.93827000000E+00 0.  1.
     999902    2    1    2    0    0 -0.94727860068E-03 -0.21775696235E-01 -0.91053494356E-02  0.10203082797E+01  0.10200348033E+01 0.  0.
     999903    2    3    3    0    0 -0.52060671882E-01 -0.12039188999E+00 -0.12338338311E-01  0.13332001319E+00  0.20432097099E-01 0.  0.
         14    1    1    2    0    0  0.94727860068E-03  0.21775696235E-01  0.91053494356E-02  0.23621720335E-01  0.00000000000E+00 0.  1.
     999901    1    3    3    0    0  0.51113393281E-01  0.98616193760E-01  0.32329888751E-02  0.88698826647E+00  0.88000000000E+00 0.  1.
        -11    1    4    4    0    0 -0.29240248745E-01 -0.66153194865E-01 -0.16965684027E-01  0.74292212869E-01  0.51100000000E-03 0.  1.
         11    1    4    4    0    0 -0.22820423137E-01 -0.54238695130E-01  0.46273457164E-02  0.59027800322E-01  0.51100000000E-03 0. -1.
</event>
<event>
 8    1  0.1061722E+005  0.1043930E+01  0.7957747E-01            NaN
         13   -1    0    0    0    0  0.00000000000E+00  0.00000000000E+00  0.74505805969E-08  0.10566000000E+00  0.10566000000E+00 0. -1.
     999900   -1    0    0    0    0 -0.00000000000E+00 -0.00000000000E+00 -0.74505805969E-08  0.93827000000E+00  0.93827000000E+00 0.  1.
     999902    2    1    2    0    0 -0.74522930480E-02  0.24518428490E-02 -0.18228985652E-01  0.10240844936E+01  0.10238921847E+01 0.  0.
     999903    2    3    3    0    0  0.69058036914E-01 -0.11067531631E+00  0.15242181121E-01  0.13292126294E+00  0.20437709114E-01 0.  0.
         14    1    1    2    0    0  0.74522930480E-02 -0.24518428490E-02  0.18228985652E-01  0.19845506366E-01  0.00000000000E+00 0. -1.
     999901    1    3    3    0    0 -0.76510329962E-01  0.11312715916E+00 -0.33471166773E-01  0.89116323069E+00  0.88000000000E+00 0. -1.
        -11    1    4    4    0    0  0.23036191988E-01 -0.49987986016E-01  0.13779197380E-01  0.56741451238E-01  0.51100000000E-03 0.  1.
         11    1    4    4    0    0  0.46021844927E-01 -0.60687330296E-01  0.14629837414E-02  0.76179811704E-01  0.51100000000E-03 0. -1.
</event>
<event>
 8    1  0.1061722E+005  0.1043930E+01  0.7957747E-01            NaN
         13   -1    0    0    0    0  0.00000000000E+00  0.00000000000E+00  0.74505805969E-08  0.10566000000E+00  0.10566000000E+00 0. -1.
     999900   -1    0    0    0    0 -0.00000000000E+00 -0.00000000000E+00 -0.74505805969E-08  0.93827000000E+00  0.93827000000E+00 0.  1.
     999902    2    1    2    0    0  0.26721613482E-01 -0.12670424982E-02 -0.88449043420E-02  0.10157540820E+01  0.10153632220E+01 0.  0.
     999903    2    3    3    0    0  0.96816533400E-01 -0.82719913946E-01  0.18195208025E-02  0.12915293262E+00  0.21474264748E-01 0.  0.
         14    1    1    2    0    0 -0.26721613482E-01  0.12670424982E-02  0.88449043420E-02  0.28175918026E-01  0.00000000000E+00 0.  1.
     999901    1    3    3    0    0 -0.70094919918E-01  0.81452871448E-01 -0.10664425145E-01  0.88660114935E+00  0.88000000000E+00 0. -1.
        -11    1    4    4    0    0  0.28736416057E-01 -0.33646525141E-01  0.81294494462E-02  0.44991325066E-01  0.51100000000E-03 0.  1.
         11    1    4    4    0    0  0.68080117343E-01 -0.49073388805E-01 -0.63099286437E-02  0.84161607558E-01  0.51100000000E-03 0. -1.
</event>
<event>
 8    1  0.1061722E+005  0.1043930E+01  0.7957747E-01            NaN
         13   -1    0    0    0    0  0.00000000000E+00  0.00000000000E+00  0.74505805969E-08  0.10566000000E+00  0.10566000000E+00 0.  1.
     999900   -1    0    0    0    0 -0.00000000000E+00 -0.00000000000E+00 -0.74505805969E-08  0.93827000000E+00  0.93827000000E+00 0.  1.
     999902    2    1    2    0    0  0.12551228646E-01  0.87502573071E-02  0.18809663333E-01  0.10196832728E+01  0.10193949544E+01 0.  0.
     999903    2    3    3    0    0 -0.86820627574E-01 -0.82841867039E-01 -0.38667463142E-01  0.12751316399E+00  0.19074537424E-01 0.  0.
         14    1    1    2    0    0 -0.12551228646E-01 -0.87502573071E-02 -0.18809663333E-01  0.24246727164E-01  0.00000000000E+00 0.  1.
     999901    1    3    3    0    0  0.99371856220E-01  0.91592124347E-01  0.57477126475E-01  0.89217010885E+00  0.88000000000E+00 0. -1.
        -11    1    4    4    0    0 -0.46084260767E-01 -0.55844297056E-01 -0.26918023793E-01  0.77247561322E-01  0.51100000000E-03 0. -1.
         11    1    4    4    0    0 -0.40736366807E-01 -0.26997569983E-01 -0.11749439349E-01  0.50265602669E-01  0.51100000000E-03 0.  1.
</event>
<event>
 7    1  0.1061722E+005  0.1043930E+01  0.7957747E-01            NaN
         13   -1    0    0    0    0  0.00000000000E+00  0.00000000000E+00  0.74505805969E-08  0.10566000000E+00  0.10566000000E+00 0.  1.
     999900   -1    0    0    0    0 -0.00000000000E+00 -0.00000000000E+00 -0.74505805969E-08  0.93827000000E+00  0.93827000000E+00 0. -1.
     999902    2    1    2    0    0  0.21400725992E-01 -0.32984383972E-02  0.94294509686E-02  0.10203125210E+01  0.10200391440E+01 0.  0.
         14    1    1    2    0    0 -0.21400725992E-01  0.32984383972E-02 -0.94294509686E-02  0.23617479002E-01  0.00000000000E+00 0.  1.
     999901    1    3    3    0    0  0.81190526508E-01  0.10540749793E+00  0.19152114530E-02  0.89000354508E+00  0.88000000000E+00 0. -1.
        -11    1    3    3    0    0 -0.58110954057E-01 -0.10053653445E+00 -0.38689222675E-02  0.11618824132E+00  0.51100000000E-03 0. -1.
         11    1    3    3    0    0 -0.16788464586E-02 -0.81694018725E-02  0.11383161783E-01  0.14120734597E-01  0.51100000000E-03 0.  1.
</event>
<event>
 8    1  0.1061722E+005  0.1043930E+01  0.7957747E-01            NaN
         13   -1    0    0    0    0  0.00000000000E+00  0.00000000000E+00  0.74505805969E-08  0.10566000000E+00  0.10566000000E+00 0.  1.
     999900   -1    0    0    0    0 -0.00000000000E+00 -0.00000000000E+00 -0.74505805969E-08  0.93827000000E+00  0.93827000000E+00 0.  1.
     999902    2    1    2    0    0  0.12810500444E-01  0.19631281486E-01 -0.31844590612E-02  0.10202733537E+01  0.10199990585E+01 0.  0.
     999903    2    3    3    0    0 -0.96412744603E-01 -0.31867806401E-01 -0.76853877165E-01  0.12897707498E+00  0.20435093044E-01 0.  0.
         14    1    1    2    0    0 -0.12810500444E-01 -0.19631281486E-01  0.31844590612E-02  0.23656646294E-01  0.00000000000E+00 0. -1.
     999901    1    3    3    0    0  0.10922324505E+00  0.51499087887E-01  0.73669418104E-01  0.89129627873E+00  0.88000000000E+00 0. -1.
        -11    1    4    4    0    0 -0.17038203640E-01 -0.13467846624E-01 -0.11867750004E-01  0.24754552857E-01  0.51100000000E-03 0.  1.
         11    1    4    4    0    0 -0.79374540963E-01 -0.18399959777E-01 -0.64986127161E-01  0.10422252212E+00  0.51100000000E-03 0. -1.
</event>
<event>
 8    1  0.1061722E+005  0.1043930E+01  0.7957747E-01            NaN
         13   -1    0    0    0    0  0.00000000000E+00  0.00000000000E+00  0.74505805969E-08  0.10566000000E+00  0.10566000000E+00 0.  1.
     999900   -1    0    0    0    0 -0.00000000000E+00 -0.00000000000E+00 -0.74505805969E-08  0.93827000000E+00  0.93827000000E+00 0.  1.
     999902    2    1    2    0    0 -0.67575918191E-02 -0.16584602097E-01 -0.14292064698E-01  0.10210176193E+01  0.10207605017E+01 0.  0.
     999903    2    3    3    0    0 -0.17422821431E-01 -0.12251229205E+00  0.44855992998E-01  0.13262980125E+00  0.16302995482E-01 0.  0.
         14    1    1    2    0    0  0.67575918191E-02  0.16584602097E-01  0.14292064698E-01  0.22912380654E-01  0.00000000000E+00 0. -1.
     999901    1    3    3    0    0  0.10665229612E-01  0.10592768995E+00 -0.59148057696E-01  0.88838781810E+00  0.88000000000E+00 0.  1.
        -11    1    4    4    0    0 -0.76203933608E-02 -0.55094972981E-01  0.11601653894E-01  0.56818887149E-01  0.51100000000E-03 0.  1.
         11    1    4    4    0    0 -0.98024280705E-02 -0.67417319065E-01  0.33254339104E-01  0.75810914097E-01  0.51100000000E-03 0. -1.
</event>
<event>
 8    1  0.1061722E+005  0.1043930E+01  0.7957747E-01            NaN
         13   -1    0    0    0    0  0.00000000000E+00  0.00000000000E+00  0.74505805969E-08  0.10566000000E+00  0.10566000000E+00 0. -1.
     999900   -1    0    0    0    0 -0.00000000000E+00 -0.00000000000E+00 -0.74505805969E-08  0.93827000000E+00  0.93827000000E+00 0.  1.
     999902    2    1    2    0    0  0.17809988671E-01  0.16151730673E-01  0.78694471908E-03  0.10198739533E+01  0.10195902056E+01 0.  0.
     999903    2    3    3    0    0  0.55943942229E-01 -0.45621200859E-01 -0.10667328887E+00  0.13036971202E+00  0.20150747185E-01 0.  0.
         14    1    1    2    0    0 -0.17809988671E-01 -0.16151730673E-01 -0.78694471908E-03  0.24056046686E-01  0.00000000000E+00 0.  1.
     999901    1    3    3    0    0 -0.38133953558E-01  0.61772931532E-01  0.10746023359E+00  0.88950424130E+00  0.88000000000E+00 0. -1.
        -11    1    4    4    0    0  0.38894226653E-01 -0.27655867269E-01 -0.53411914761E-01  0.71628916094E-01  0.51100000000E-03 0.  1.
         11    1    4    4    0    0  0.17049715576E-01 -0.17965333590E-01 -0.53261374112E-01  0.58740795922E-01  0.51100000000E-03 0. -1.
</event>
<event>
 8    1  0.1061722E+005  0.1043930E+01  0.7957747E-01            NaN
         13   -1    0    0    0    0  0.00000000000E+00  0.00000000000E+00  0.74505805969E-08  0.10566000000E+00  0.10566000000E+00 0.  1.
     999900   -1    0    0    0    0 -0.00000000000E+00 -0.00000000000E+00 -0.74505805969E-08  0.93827000000E+00  0.93827000000E+00 0. -1.
     999902    2    1    2    0    0 -0.35502759260E-02  0.12756712244E-01  0.19178547196E-01  0.10206243175E+01  0.10203581933E+01 0.  0.
     999903    2    3    3    0    0 -0.78995153926E-01  0.10204539322E+00  0.24836230752E-01  0.13287637600E+00  0.19641698536E-01 0.  0.
         14    1    1    2    0    0  0.35502759260E-02 -0.12756712244E-01 -0.19178547196E-01  0.23305682547E-01  0.00000000000E+00 0. -1.
     999901    1    3    3    0    0  0.75444878000E-01 -0.89288680972E-01 -0.56576835561E-02  0.88774794145E+00  0.88000000000E+00 0. -1.
        -11    1    4    4    0    0 -0.30442473627E-01  0.44613178347E-01  0.11392611243E-02  0.54024428915E-01  0.51100000000E-03 0.  1.
         11    1    4    4    0    0 -0.48552680299E-01  0.57432214869E-01  0.23696969628E-01  0.78851947088E-01  0.51100000000E-03 0. -1.
</event>
<event>
 8    1  0.1061722E+005  0.1043930E+01  0.7957747E-01            NaN
         13   -1    0    0    0    0  0.00000000000E+00  0.00000000000E+00  0.74505805969E-08  0.10566000000E+00  0.10566000000E+00 0.  1.
     999900   -1    0    0    0    0 -0.00000000000E+00 -0.00000000000E+00 -0.74505805969E-08  0.93827000000E+00  0.93827000000E+00 0.  1.
     999902    2    1    2    0    0  0.16625369437E-01 -0.14467935161E-01  0.72362109109E-02  0.10207333018E+01  0.10204696893E+01 0.  0.
     999903    2    3    3    0    0  0.60220212987E-01 -0.11166663045E+00  0.37531457646E-01  0.13379142172E+00  0.19890294219E-01 0.  0.
         14    1    1    2    0    0 -0.16625369437E-01  0.14467935161E-01 -0.72362109109E-02  0.23196698151E-01  0.00000000000E+00 0.  1.
     999901    1    3    3    0    0 -0.43594843551E-01  0.97198695292E-01 -0.30295246735E-01  0.88694188013E+00  0.88000000000E+00 0.  1.
        -11    1    4    4    0    0  0.36635380124E-01 -0.55032647311E-01  0.27594284976E-01  0.71641112716E-01  0.51100000000E-03 0. -1.
         11    1    4    4    0    0  0.23584832864E-01 -0.56633983142E-01  0.99371726701E-02  0.62150309005E-01  0.51100000000E-03 0.  1.
</event>
<event>
 8    1  0.1061722E+005  0.1043930E+01  0.7957747E-01            NaN
         13   -1    0    0    0    0  0.00000000000E+00  0.00000000000E+00  0.74505805969E-08  0.10566000000E+00  0.10566000000E+00 0. -1.
     999900   -1    0    0    0    0 -0.00000000000E+00 -0.00000000000E+00 -0.74505805969E-08  0.93827000000E+00  0.93827000000E+00 0. -1.
     999902    2    1    2    0    0 -0.16811113069E-01 -0.71431046394E-02  0.22758676580E-01  0.10147479023E+01  0.10143282064E+01 0.  0.
     999903    2    3    3    0    0 -0.65105078819E-01 -0.13554928147E-01  0.10891376506E+00  0.12919941809E+00  0.20195891966E-01 0.  0.
         14    1    1    2    0    0  0.16811113069E-01  0.71431046394E-02 -0.22758676580E-01  0.29182097700E-01  0.00000000000E+00 0.  1.
     999901    1    3    3    0    0  0.48293965750E-01  0.64118235079E-02 -0.86155088476E-01  0.88554848421E+00  0.88000000000E+00 0. -1.
        -11    1    4    4    0    0 -0.24481993813E-01 -0.23822418643E-02  0.23816522212E-01  0.34242239246E-01  0.51100000000E-03 0.  1.
         11    1    4    4    0    0 -0.40623085006E-01 -0.11172686283E-01  0.85097242844E-01  0.94957178848E-01  0.51100000000E-03 0. -1.
</event>
<event>
 8    1  0.1061722E+005  0.1043930E+01  0.7957747E-01            NaN
         13   -1    0    0    0    0  0.00000000000E+00  0.00000000000E+00  0.74505805969E-08  0.10566000000E+00  0.10566000000E+00 0.  1.
     999900   -1    0    0    0    0 -0.00000000000E+00 -0.00000000000E+00 -0.74505805969E-08  0.93827000000E+00  0.93827000000E+00 0. -1.
     999902    2    1    2    0    0 -0.95021405777E-02  0.60928642895E-02 -0.19302082183E-01  0.10215696769E+01  0.10213249340E+01 0.  0.
     999903    2    3    3    0    0 -0.42048915761E-01  0.10238906790E+00 -0.73050226649E-01  0.13408947184E+00  0.19799452081E-01 0.  0.
         14    1    1    2    0    0  0.95021405777E-02 -0.60928642895E-02  0.19302082183E-01  0.22360323062E-01  0.00000000000E+00 0.  1.
     999901    1    3    3    0    0  0.32546775183E-01 -0.96296203613E-01  0.53748144465E-01  0.88748020510E+00  0.88000000000E+00 0.  1.
        -11    1    4    4    0    0 -0.13823724426E-01  0.59574608752E-01 -0.40001840640E-01  0.73079667080E-01  0.51100000000E-03 0. -1.
         11    1    4    4    0    0 -0.28225191335E-01  0.42814459151E-01 -0.33048386009E-01  0.61009804762E-01  0.51100000000E-03 0.  1.
</event>
<event>
 8    1  0.1061722E+005  0.1043930E+01  0.7957747E-01            NaN
         13   -1    0    0    0    0  0.00000000000E+00  0.00000000000E+00  0.74505805969E-08  0.10566000000E+00  0.10566000000E+00 0. -1.
     999900   -1    0    0    0    0 -0.00000000000E+00 -0.00000000000E+00 -0.74505805969E-08  0.93827000000E+00  0.93827000000E+00 0.  1.
     999902    2    1    2    0    0 -0.24362703870E-03 -0.23913820349E-01  0.62022384383E-02  0.10192237676E+01  0.10189242811E+01 0.  0.
     999903    2    3    3    0    0  0.78826350262E-01 -0.10248629293E+00 -0.16826038131E-01  0.13189294075E+00  0.19889658780E-01 0.  0.
         14    1    1    2    0    0  0.24362703870E-03  0.23913820349E-01 -0.62022384383E-02  0.24706232401E-01  0.00000000000E+00 0. -1.
     999901    1    3    3    0    0 -0.79069977301E-01  0.78572472578E-01  0.23028276570E-01  0.88733082685E+00  0.88000000000E+00 0. -1.
        -11    1    4    4    0    0  0.59813634230E-01 -0.79119719601E-01 -0.21262199668E-01  0.10143935689E+00  0.51100000000E-03 0.  1.
         11    1    4    4    0    0  0.19012716032E-01 -0.23366573326E-01  0.44361615366E-02  0.30453583863E-01  0.51100000000E-03 0. -1.
</event>
<event>
 8    1  0.1061722E+005  0.1043930E+01  0.7957747E-01            NaN
         13   -1    0    0    0    0  0.00000000000E+00  0.00000000000E+00  0.74505805969E-08  0.10566000000E+00  0.10566000000E+00 0. -1.
     999900   -1    0    0    0    0 -0.00000000000E+00 -0.00000000000E+00 -0.74505805969E-08  0.93827000000E+00  0.93827000000E+00 0.  1.
     999902    2    1    2    0    0  0.23668814153E-01 -0.16698126437E-02 -0.84550522974E-02  0.10187409360E+01  0.10184294800E+01 0.  0.
     999903    2    3    3    0    0  0.59157442322E-01 -0.11336490631E+00  0.17660027207E-01  0.13058710128E+00  0.19746126108E-01 0.  0.
         14    1    1    2    0    0 -0.23668814153E-01  0.16698126437E-02  0.84550522974E-02  0.25189064036E-01  0.00000000000E+00 0.  1.
     999901    1    3    3    0    0 -0.35488628169E-01  0.11169509367E+00 -0.26115079504E-01  0.88815383468E+00  0.88000000000E+00 0.  1.
        -11    1    4    4    0    0  0.51043470487E-01 -0.94050925003E-01  0.21845907323E-01  0.10921775113E+00  0.51100000000E-03 0. -1.
         11    1    4    4    0    0  0.81139718355E-02 -0.19313981306E-01 -0.41858801157E-02  0.21369350158E-01  0.51100000000E-03 0.  1.
</event>
<event>
 8    1  0.1061722E+005  0.1043930E+01  0.7957747E-01            NaN
         13   -1    0    0    0    0  0.00000000000E+00  0.00000000000E+00  0.74505805969E-08  0.10566000000E+00  0.10566000000E+00 0.  1.
     999900   -1    0    0    0    0 -0.00000000000E+00 -0.00000000000E+00 -0.74505805969E-08  0.93827000000E+00  0.93827000000E+00 0.  1.
     999902    2    1    2    0    0 -0.17368341486E-01 -0.54975917713E-02 -0.14885328391E-01  0.10204043586E+01  0.10201331282E+01 0.  0.
     999903    2    3    3    0    0 -0.44908729458E-01  0.93523330369E-01 -0.79530997890E-01  0.13206732878E+00  0.18793413764E-01 0.  0.
         14    1    1    2    0    0  0.17368341486E-01  0.54975917713E-02  0.14885328391E-01  0.23525641385E-01  0.00000000000E+00 0.  1.
     999901    1    3    3    0    0  0.27540387973E-01 -0.99020922141E-01  0.64645669499E-01  0.88833702984E+00  0.88000000000E+00 0. -1.
        -11    1    4    4    0    0 -0.21672853499E-01  0.51062826159E-01 -0.53669279246E-01  0.77186640360E-01  0.51100000000E-03 0.  1.
         11    1    4    4    0    0 -0.23235875959E-01  0.42460504210E-01 -0.25861718643E-01  0.54880688421E-01  0.51100000000E-03 0. -1.
</event>
<event>
 8    1  0.1061722E+005  0.1043930E+01  0.7957747E-01            NaN
         13   -1    0    0    0    0  0.00000000000E+00  0.00000000000E+00  0.74505805969E-08  0.10566000000E+00  0.10566000000E+00 0.  1.
     999900   -1    0    0    0    0 -0.00000000000E+00 -0.00000000000E+00 -0.74505805969E-08  0.93827000000E+00  0.93827000000E+00 0. -1.
     999902    2    1    2    0    0 -0.17863531559E-02  0.17547080597E-01  0.11819889208E-01  0.10226979281E+01  0.10224775065E+01 0.  0.
     999903    2    3    3    0    0 -0.10863430713E+00 -0.43490618099E-01 -0.56522901803E-01  0.13151173938E+00  0.20190409105E-01 0.  0.
         14    1    1    2    0    0  0.17863531559E-02 -0.17547080597E-01 -0.11819889208E-01  0.21232071871E-01  0.00000000000E+00 0. -1.
     999901    1    3    3    0    0  0.10684795397E+00  0.61037698696E-01  0.68342791011E-01  0.89118618875E+00  0.88000000000E+00 0.  1.
        -11    1    4    4    0    0 -0.93193234328E-01 -0.37163103323E-01 -0.55793108167E-01  0.11480072828E+00  0.51100000000E-03 0.  1.
         11    1    4    4    0    0 -0.15441072798E-01 -0.63275147759E-02 -0.72979363527E-03  0.16711011104E-01  0.51100000000E-03 0. -1.
</event>
<event>
 8    1  0.1061722E+005  0.1043930E+01  0.7957747E-01            NaN
         13   -1    0    0    0    0  0.00000000000E+00  0.00000000000E+00  0.74505805969E-08  0.10566000000E+00  0.10566000000E+00 0. -1.
     999900   -1    0    0    0    0 -0.00000000000E+00 -0.00000000000E+00 -0.74505805969E-08  0.93827000000E+00  0.93827000000E+00 0. -1.
     999902    2    1    2    0    0 -0.20683021202E-01  0.42305047197E-02  0.59990810272E-02  0.10219829385E+01  0.10217472550E+01 0.  0.
     999903    2    3    3    0    0 -0.89127793288E-01 -0.94414356187E-01 -0.24620985475E-01  0.13330240877E+00  0.17478703270E-01 0.  0.
         14    1    1    2    0    0  0.20683021202E-01 -0.42305047197E-02 -0.59990810272E-02  0.21947061521E-01  0.00000000000E+00 0. -1.
     999901    1    3    3    0    0  0.68444772086E-01  0.98644860907E-01  0.30620066502E-01  0.88868052971E+00  0.88000000000E+00 0.  1.
        -11    1    4    4    0    0 -0.44221549081E-01 -0.53120922750E-01 -0.53682940798E-02  0.69328619915E-01  0.51100000000E-03 0. -1.
         11    1    4    4    0    0 -0.44906244206E-01 -0.41293433437E-01 -0.19252691395E-01  0.63973788857E-01  0.51100000000E-03 0.  1.
</event>
<event>
 8    1  0.1061722E+005  0.1043930E+01  0.7957747E-01            NaN
         13   -1    0    0    0    0  0.00000000000E+00  0.00000000000E+00  0.74505805969E-08  0.10566000000E+00  0.10566000000E+00 0.  1.
     999900   -1    0    0    0    0 -0.00000000000E+00 -0.00000000000E+00 -0.74505805969E-08  0.93827000000E+00  0.93827000000E+00 0. -1.
     999902    2    1    2    0    0  0.15992735870E-01  0.42570164807E-02  0.16705763488E-01  0.10204146364E+01  0.10201436457E+01 0.  0.
     999903    2    3    3    0    0  0.12480747848E+00 -0.39246403202E-01 -0.42430516962E-02  0.13239884345E+00  0.19856067343E-01 0.  0.
         14    1    1    2    0    0 -0.15992735870E-01 -0.42570164807E-02 -0.16705763488E-01  0.23515363566E-01  0.00000000000E+00 0. -1.
     999901    1    3    3    0    0 -0.10881474261E+00  0.43503419682E-01  0.20948815184E-01  0.88801579299E+00  0.88000000000E+00 0. -1.
        -11    1    4    4    0    0  0.20128207316E-01 -0.88641403324E-02 -0.77973891639E-02  0.23340482265E-01  0.51100000000E-03 0. -1.
         11    1    4    4    0    0  0.10467927116E+00 -0.30382262869E-01  0.35543374677E-02  0.10905836118E+00  0.51100000000E-03 0.  1.
</event>
<event>
 8    1  0.1061722E+005  0.1043930E+01  0.7957747E-01            NaN
         13   -1    0    0    0    0  0.00000000000E+00  0.00000000000E+00  0.74505805969E-08  0.10566000000E+00  0.10566000000E+00 0.  1.
     999900   -1    0    0    0    0 -0.00000000000E+00 -0.00000000000E+00 -0.74505805969E-08  0.93827000000E+00  0.93827000000E+00 0.  1.
     999902    2    1    2    0    0 -0.16812308242E-01  0.44900155366E-02 -0.17225497488E-01  0.10194446633E+01  0.10191505727E+01 0.  0.
     999903    2    3    3    0    0  0.82412771814E-01  0.95960390512E-01  0.11934325894E-01  0.12867940733E+00  0.20388728018E-01 0.  0.
         14    1    1    2    0    0  0.16812308242E-01 -0.44900155366E-02  0.17225497488E-01  0.24485336666E-01  0.00000000000E+00 0.  1.
     999901    1    3    3    0    0 -0.99225080056E-01 -0.91470374975E-01 -0.29159823381E-01  0.89076525601E+00  0.88000000000E+00 0.  1.
        -11    1    4    4    0    0  0.51603566301E-01  0.45054186035E-01  0.90840831642E-02  0.69105639583E-01  0.51100000000E-03 0. -1.
         11    1    4    4    0    0  0.30809205514E-01  0.50906204477E-01  0.28502427296E-02  0.59573767744E-01  0.51100000000E-03 0.  1.
</event>
<event>
 8    1  0.1061722E+005  0.1043930E+01  0.7957747E-01            NaN
         13   -1    0    0    0    0  0.00000000000E+00  0.00000000000E+00  0.74505805969E-08  0.10566000000E+00  0.10566000000E+00 0. -1.
     999900   -1    0    0    0    0 -0.00000000000E+00 -0.00000000000E+00 -0.74505805969E-08  0.93827000000E+00  0.93827000000E+00 0.  1.
     999902    2    1    2    0    0 -0.42098449945E-02 -0.19326106947E-01 -0.11862955312E-01  0.10208659389E+01  0.10206053666E+01 0.  0.
     999903    2    3    3    0    0 -0.10017337912E+00  0.73777278217E-01  0.30736126959E-01  0.12974758426E+00  0.20296143872E-01 0.  0.
         14    1    1    2    0    0  0.42098449945E-02  0.19326106947E-01  0.11862955312E-01  0.23064061077E-01  0.00000000000E+00 0. -1.
     999901    1    3    3    0    0  0.95963534121E-01 -0.93103385164E-01 -0.42599082271E-01  0.89111835466E+00  0.88000000000E+00 0.  1.
        -11    1    4    4    0    0 -0.34921540613E-01  0.19449743239E-01  0.17031833602E-02  0.40012103986E-01  0.51100000000E-03 0.  1.
         11    1    4    4    0    0 -0.65251838502E-01  0.54327534978E-01  0.29032943599E-01  0.89735480272E-01  0.51100000000E-03 0. -1.
</event>
<event>
 8    1  0.1061722E+005  0.1043930E+01  0.7957747E-01            NaN
         13   -1    0    0    0    0  0.00000000000E+00  0.00000000000E+00  0.74505805969E-08  0.10566000000E+00  0.10566000000E+00 0. -1.
     999900   -1    0    0    0    0 -0.00000000000E+00 -0.00000000000E+00 -0.74505805969E-08  0.93827000000E+00  0.93827000000E+00 0.  1.
     999902    2    1    2    0    0  0.14175376703E-01  0.15642945925E-01  0.63116539331E-02  0.10218963885E+01  0.10216588221E+01 0.  0.
     999903    2    3    3    0    0  0.11333294870E-01  0.13104681810E+00 -0.15625205336E-01  0.13408595997E+00  0.20813109150E-01 0.  0.
         14    1    1    2    0    0 -0.14175376703E-01 -0.15642945925E-01 -0.63116539331E-02  0.22033611534E-01  0.00000000000E+00 0.  1.
     999901    1    3    3    0    0  0.28420818330E-02 -0.11540387218E+00  0.21936859269E-01  0.88781042849E+00  0.88000000000E+00 0.  1.
        -11    1    4    4    0    0  0.68126404657E-02  0.10421944084E-01 -0.15384663138E-02  0.12556153400E-01  0.51100000000E-03 0.  1.
         11    1    4    4    0    0  0.45206544045E-02  0.12062487402E+00 -0.14086739022E-01  0.12152980657E+00  0.51100000000E-03 0. -1.
</event>
<event>
 8    1  0.1061722E+005  0.1043930E+01  0.7957747E-01            NaN
         13   -1    0    0    0    0  0.00000000000E+00  0.00000000000E+00  0.74505805969E-08  0.10566000000E+00  0.10566000000E+00 0.  1.
     999900   -1    0    0    0    0 -0.00000000000E+00 -0.00000000000E+00 -0.74505805969E-08  0.93827000000E+00  0.93827000000E+00 0. -1.
     999902    2    1    2    0    0 -0.14379301170E-01 -0.11498488288E-01 -0.15890942039E-01  0.10196091946E+01  0.10193190905E+01 0.  0.
     999903    2    3    3    0    0  0.20536688655E-01 -0.11976568067E+00 -0.46841821581E-01  0.13174723000E+00  0.19939972811E-01 0.  0.
         14    1    1    2    0    0  0.14379301170E-01  0.11498488288E-01  0.15890942039E-01  0.24320805372E-01  0.00000000000E+00 0.  1.
     999901    1    3    3    0    0 -0.34915989826E-01  0.10826719238E+00  0.30950879542E-01  0.88786196463E+00  0.88000000000E+00 0. -1.
        -11    1    4    4    0    0  0.70722385398E-02 -0.34433975324E-01 -0.23407960054E-01  0.42236346071E-01  0.51100000000E-03 0. -1.
         11    1    4    4    0    0  0.13464450116E-01 -0.85331705346E-01 -0.23433861528E-01  0.89510883927E-01  0.51100000000E-03 0.  1.
</event>
<event>
 8    1  0.1061722E+005  0.1043930E+01  0.7957747E-01            NaN
         13   -1    0    0    0    0  0.00000000000E+00  0.00000000000E+00  0.74505805969E-08  0.10566000000E+00  0.10566000000E+00 0.  1.
     999900   -1    0    0    0    0 -0.00000000000E+00 -0.00000000000E+00 -0.74505805969E-08  0.93827000000E+00  0.93827000000E+00 0. -1.
     999902    2    1    2    0    0 -0.25219807352E-02  0.88428310381E-02 -0.22379550886E-01  0.10197349520E+01  0.10194478761E+01 0.  0.
     999903    2    3    3    0    0 -0.35423578489E-01 -0.35715400712E-01  0.11529199744E+00  0.12731049789E+00  0.19629020332E-01 0.  0.
         14    1    1    2    0    0  0.25219807352E-02 -0.88428310381E-02  0.22379550886E-01  0.24195047953E-01  0.00000000000E+00 0.  1.
     999901    1    3    3    0    0  0.32901597753E-01  0.44558231750E-01 -0.13767154833E+00  0.89242445415E+00  0.88000000000E+00 0. -1.
        -11    1    4    4    0    0 -0.18723803719E-01 -0.26347985311E-01  0.89676540040E-01  0.95325443143E-01  0.51100000000E-03 0.  1.
         11    1    4    4    0    0 -0.16699774769E-01 -0.93674154010E-02  0.25615457400E-01  0.31985054752E-01  0.51100000000E-03 0. -1.
</event>
<event>
 8    1  0.1061722E+005  0.1043930E+01  0.7957747E-01            NaN
         13   -1    0    0    0    0  0.00000000000E+00  0.00000000000E+00  0.74505805969E-08  0.10566000000E+00  0.10566000000E+00 0. -1.
     999900   -1    0    0    0    0 -0.00000000000E+00 -0.00000000000E+00 -0.74505805969E-08  0.93827000000E+00  0.93827000000E+00 0. -1.
     999902    2    1    2    0    0  0.56499843532E-03 -0.23781144286E-01  0.41042765893E-02  0.10197906725E+01  0.10195049331E+01 0.  0.
     999903    2    3    3    0    0 -0.61438769605E-01 -0.11500186107E+00  0.15199587152E-01  0.13283588652E+00  0.20351777264E-01 0.  0.
         14    1    1    2    0    0 -0.56499843532E-03  0.23781144286E-01 -0.41042765893E-02  0.24139327520E-01  0.00000000000E+00 0.  1.
     999901    1    3    3    0    0  0.62003768040E-01  0.91220716784E-01 -0.11095310563E-01  0.88695478596E+00  0.88000000000E+00 0. -1.
        -11    1    4    4    0    0 -0.17052011069E-01 -0.48216922747E-01  0.12238388447E-01  0.52589751792E-01  0.51100000000E-03 0. -1.
         11    1    4    4    0    0 -0.44386758535E-01 -0.66784938323E-01  0.29611987050E-02  0.80246134728E-01  0.51100000000E-03 0.  1.
</event>
<event>
 8    1  0.1061722E+005  0.1043930E+01  0.7957747E-01            NaN
         13   -1    0    0    0    0  0.00000000000E+00  0.00000000000E+00  0.74505805969E-08  0.10566000000E+00  0.10566000000E+00 0. -1.
     999900   -1    0    0    0    0 -0.00000000000E+00 -0.00000000000E+00 -0.74505805969E-08  0.93827000000E+00  0.93827000000E+00 0. -1.
     999902    2    1    2    0    0 -0.35978845114E-02  0.22990247062E-01  0.20971062887E-02  0.10205656235E+01  0.10202981416E+01 0.  0.
     999903    2    3    3    0    0 -0.11306643857E+00 -0.23027675239E-01 -0.57973622587E-01  0.13056028312E+00  0.19254953988E-01 0.  0.
         14    1    1    2    0    0  0.35978845114E-02 -0.22990247062E-01 -0.20971062887E-02  0.23364376467E-01  0.00000000000E+00 0. -1.
     999901    1    3    3    0    0  0.10946855406E+00  0.46017922301E-01  0.60070728876E-01  0.89000534042E+00  0.88000000000E+00 0.  1.
        -11    1    4    4    0    0 -0.61515536903E-01 -0.76654878103E-02 -0.21709611733E-01  0.65684772561E-01  0.51100000000E-03 0.  1.
         11    1    4    4    0    0 -0.51550901670E-01 -0.15362187429E-01 -0.36264010854E-01  0.64875510556E-01  0.51100000000E-03 0. -1.
</event>
<event>
 8    1  0.1061722E+005  0.1043930E+01  0.7957747E-01            NaN
         13   -1    0    0    0    0  0.00000000000E+00  0.00000000000E+00  0.74505805969E-08  0.10566000000E+00  0.10566000000E+00 0. -1.
     999900   -1    0    0    0    0 -0.00000000000E+00 -0.00000000000E+00 -0.74505805969E-08  0.93827000000E+00  0.93827000000E+00 0.  1.
     999902    2    1    2    0    0  0.15481953530E-01  0.13222870041E-01 -0.11055778582E-01  0.10207618016E+01  0.10204988438E+01 0.  0.
     999903    2    3    3    0    0  0.16767647413E-01  0.11461821046E+00 -0.62897530787E-01  0.13342295125E+00  0.20666310074E-01 0.  0.
         14    1    1    2    0    0 -0.15481953530E-01 -0.13222870041E-01  0.11055778582E-01  0.23168198404E-01  0.00000000000E+00 0. -1.
     999901    1    3    3    0    0 -0.12856938828E-02 -0.10139534042E+00  0.51841752205E-01  0.88733885035E+00  0.88000000000E+00 0. -1.
        -11    1    4    4    0    0  0.10915644140E-01  0.41682045336E-01 -0.33439064473E-01  0.54543343720E-01  0.51100000000E-03 0. -1.
         11    1    4    4    0    0  0.58520032729E-02  0.72936165122E-01 -0.29458466314E-01  0.78879607527E-01  0.51100000000E-03 0.  1.
</event>
<event>
 8    1  0.1061722E+005  0.1043930E+01  0.7957747E-01            NaN
         13   -1    0    0    0    0  0.00000000000E+00  0.00000000000E+00  0.74505805969E-08  0.10566000000E+00  0.10566000000E+00 0. -1.
     999900   -1    0    0    0    0 -0.00000000000E+00 -0.00000000000E+00 -0.74505805969E-08  0.93827000000E+00  0.93827000000E+00 0.  1.
     999902    2    1    2    0    0 -0.68153857124E-02 -0.22397348840E-01 -0.40350324245E-02  0.10201734808E+01  0.10198968373E+01 0.  0.
     999903    2    3    3    0    0 -0.11378816737E+00 -0.20751113410E-01 -0.60210999262E-01  0.13191584625E+00  0.19951699585E-01 0.  0.
         14    1    1    2    0    0  0.68153857124E-02  0.22397348840E-01  0.40350324245E-02  0.23756519192E-01  0.00000000000E+00 0.  1.
     999901    1    3    3    0    0  0.10697278166E+00 -0.16462354299E-02  0.56175966838E-01  0.88825763456E+00  0.88000000000E+00 0.  1.
        -11    1    4    4    0    0 -0.43546496471E-01 -0.11588941180E-01 -0.33727660850E-01  0.56288694602E-01  0.51100000000E-03 0.  1.
         11    1    4    4    0    0 -0.70241670903E-01 -0.91621722300E-02 -0.26483338413E-01  0.75627151643E-01  0.51100000000E-03 0. -1.
</event>
<event>
 8    1  0.1061722E+005  0.1043930E+01  0.7957747E-01            NaN
         13   -1    0    0    0    0  0.00000000000E+00  0.00000000000E+00  0.74505805969E-08  0.10566000000E+00  0.10566000000E+00 0.  1.
     999900   -1    0    0    0    0 -0.00000000000E+00 -0.00000000000E+00 -0.74505805969E-08  0.93827000000E+00  0.93827000000E+00 0.  1.
     999902    2    1    2    0    0 -0.12262270105E-01 -0.51492781685E-02 -0.20581678946E-01  0.10194252282E+01  0.10191306648E+01 0.  0.
     999903    2    3    3    0    0 -0.73543520178E-01  0.65285439929E-01  0.80677036714E-01  0.12871216068E+00  0.19677348043E-01 0.  0.
         14    1    1    2    0    0  0.12262270105E-01  0.51492781685E-02  0.20581678946E-01  0.24504771821E-01  0.00000000000E+00 0.  1.
     999901    1    3    3    0    0  0.61281250073E-01 -0.70434718098E-01 -0.10125871566E+00  0.89071306750E+00  0.88000000000E+00 0.  1.
        -11    1    4    4    0    0 -0.48738434511E-01  0.51259132079E-01  0.48698918202E-01  0.85876535649E-01  0.51100000000E-03 0.  1.
         11    1    4    4    0    0 -0.24805085667E-01  0.14026307850E-01  0.31978118512E-01  0.42835625027E-01  0.51100000000E-03 0. -1.
</event>
<event>
 8    1  0.1170180E+005  0.1043930E+01  0.7957747E-01            NaN
         13   -1    0    0    0    0  0.00000000000E+00  0.00000000000E+00  0.74505805969E-08  0.10566000000E+00  0.10566000000E+00 0. -1.
     999900   -1    0    0    0    0 -0.00000000000E+00 -0.00000000000E+00 -0.74505805969E-08  0.93827000000E+00  0.93827000000E+00 0.  1.
     999902    2    1    2    0    0 -0.28144502669E-02 -0.22548559096E-01  0.54560078143E-02  0.10205606468E+01  0.10202930496E+01 0.  0.
     999903    2    3    3    0    0  0.11382176563E+00 -0.58451903247E-01 -0.22367122697E-01  0.13170341216E+00  0.21759624825E-01 0.  0.
         14    1    1    2    0    0  0.28144502669E-02  0.22548559096E-01 -0.54560078143E-02  0.23369353197E-01  0.00000000000E+00 0.  1.
     999901    1    3    3    0    0 -0.11663621590E+00  0.35903344152E-01  0.27823130511E-01  0.88885723464E+00  0.88000000000E+00 0. -1.
        -11    1    4    4    0    0  0.42518489909E-01 -0.33509223997E-01 -0.66648160282E-02  0.54546961150E-01  0.51100000000E-03 0. -1.
         11    1    4    4    0    0  0.71303275724E-01 -0.24942679250E-01 -0.15702306669E-01  0.77156451012E-01  0.51100000000E-03 0.  1.
</event>
<event>
 8    1  0.1061722E+005  0.1043930E+01  0.7957747E-01            NaN
         13   -1    0    0    0    0  0.00000000000E+00  0.00000000000E+00  0.74505805969E-08  0.10566000000E+00  0.10566000000E+00 0. -1.
     999900   -1    0    0    0    0 -0.00000000000E+00 -0.00000000000E+00 -0.74505805969E-08  0.93827000000E+00  0.93827000000E+00 0. -1.
     999902    2    1    2    0    0  0.21604285884E-01  0.83165263266E-02 -0.35325512629E-02  0.10205122995E+01  0.10202435811E+01 0.  0.
     999903    2    3    3    0    0 -0.11009803447E+00  0.51539524157E-01  0.37256830632E-01  0.12872897244E+00  0.20129013214E-01 0.  0.
         14    1    1    2    0    0 -0.21604285884E-01 -0.83165263266E-02  0.35325512629E-02  0.23417700509E-01  0.00000000000E+00 0.  1.
     999901    1    3    3    0    0  0.13170232035E+00 -0.43222997831E-01 -0.40789381895E-01  0.89178332705E+00  0.88000000000E+00 0. -1.
        -11    1    4    4    0    0 -0.41974713200E-01  0.19304140675E-01  0.40819634725E-02  0.46383724972E-01  0.51100000000E-03 0.  1.
         11    1    4    4    0    0 -0.68123321268E-01  0.32235383483E-01  0.33174867160E-01  0.82345247470E-01  0.51100000000E-03 0. -1.
</event>
<event>
 8    1  0.1061722E+005  0.1043930E+01  0.7957747E-01            NaN
         13   -1    0    0    0    0  0.00000000000E+00  0.00000000000E+00  0.74505805969E-08  0.10566000000E+00  0.10566000000E+00 0.  1.
     999900   -1    0    0    0    0 -0.00000000000E+00 -0.00000000000E+00 -0.74505805969E-08  0.93827000000E+00  0.93827000000E+00 0.  1.
     999902    2    1    2    0    0 -0.28360174561E-01 -0.29496210169E-03 -0.36742599855E-03  0.10155659117E+01  0.10151697392E+01 0.  0.
     999903    2    3    3    0    0  0.40438292585E-02  0.82537862943E-01  0.93264318775E-01  0.12614014188E+00  0.19602317808E-01 0.  0.
         14    1    1    2    0    0  0.28360174561E-01  0.29496210169E-03  0.36742599855E-03  0.28364088309E-01  0.00000000000E+00 0. -1.
     999901    1    3    3    0    0 -0.32404003819E-01 -0.82832825045E-01 -0.93631744774E-01  0.88942576981E+00  0.88000000000E+00 0.  1.
        -11    1    4    4    0    0 -0.53682875776E-02  0.36084577756E-01  0.30932671711E-01  0.47833111581E-01  0.51100000000E-03 0. -1.
         11    1    4    4    0    0  0.94121168361E-02  0.46453285187E-01  0.62331647064E-01  0.78307030302E-01  0.51100000000E-03 0.  1.
</event>
<event>
 8    1  0.1061722E+005  0.1043930E+01  0.7957747E-01            NaN
         13   -1    0    0    0    0  0.00000000000E+00  0.00000000000E+00  0.74505805969E-08  0.10566000000E+00  0.10566000000E+00 0. -1.
     999900   -1    0    0    0    0 -0.00000000000E+00 -0.00000000000E+00 -0.74505805969E-08  0.93827000000E+00  0.93827000000E+00 0.  1.
     999902    2    1    2    0    0  0.51347276344E-03 -0.17106173137E-01 -0.24996369624E-02  0.10266345382E+01  0.10264888417E+01 0.  0.
     999903    2    3    3    0    0 -0.48631829791E-01 -0.12347231858E+00  0.32082380082E-01  0.13819493218E+00  0.21403080251E-01 0.  0.
         14    1    1    2    0    0 -0.51347276344E-03  0.17106173137E-01  0.24996369624E-02  0.17295461792E-01  0.00000000000E+00 0. -1.
     999901    1    3    3    0    0  0.49145302555E-01  0.10636614544E+00 -0.34582017044E-01  0.88843960603E+00  0.88000000000E+00 0. -1.
        -11    1    4    4    0    0 -0.27173235266E-01 -0.56057986203E-01  0.52171515385E-02  0.62516896302E-01  0.51100000000E-03 0. -1.
         11    1    4    4    0    0 -0.21458594525E-01 -0.67414332374E-01  0.26865228543E-01  0.75678035876E-01  0.51100000000E-03 0.  1.
</event>
<event>
 8    1  0.1061722E+005  0.1043930E+01  0.7957747E-01            NaN
         13   -1    0    0    0    0  0.00000000000E+00  0.00000000000E+00  0.74505805969E-08  0.10566000000E+00  0.10566000000E+00 0.  1.
     999900   -1    0    0    0    0 -0.00000000000E+00 -0.00000000000E+00 -0.74505805969E-08  0.93827000000E+00  0.93827000000E+00 0. -1.
     999902    2    1    2    0    0  0.11625959424E-01 -0.62481115954E-02  0.19601225148E-01  0.10202993026E+01  0.10200256159E+01 0.  0.
     999903    2    3    3    0    0  0.10462199356E-01  0.17082175193E-01 -0.12500346667E+00  0.12819158855E+00  0.20148408615E-01 0.  0.
         14    1    1    2    0    0 -0.11625959424E-01  0.62481115954E-02 -0.19601225148E-01  0.23630697373E-01  0.00000000000E+00 0.  1.
     999901    1    3    3    0    0  0.11637600680E-02 -0.23330286789E-01  0.14460469182E+00  0.89210771408E+00  0.88000000000E+00 0.  1.
        -11    1    4    4    0    0  0.14622389836E-01  0.72464070265E-02 -0.54865994576E-01  0.57243892086E-01  0.51100000000E-03 0.  1.
         11    1    4    4    0    0 -0.41601904801E-02  0.98357681666E-02 -0.70137472098E-01  0.70947696464E-01  0.51100000000E-03 0. -1.
</event>
<event>
 8    1  0.1061722E+005  0.1043930E+01  0.7957747E-01            NaN
         13   -1    0    0    0    0  0.00000000000E+00  0.00000000000E+00  0.74505805969E-08  0.10566000000E+00  0.10566000000E+00 0.  1.
     999900   -1    0    0    0    0 -0.00000000000E+00 -0.00000000000E+00 -0.74505805969E-08  0.93827000000E+00  0.93827000000E+00 0. -1.
     999902    2    1    2    0    0 -0.65021906361E-02  0.19498678434E-01  0.12147551857E-01  0.10200544904E+01  0.10197750357E+01 0.  0.
     999903    2    3    3    0    0 -0.30179410335E-01  0.23492720831E-02 -0.12379452694E+00  0.12913644608E+00  0.20852359987E-01 0.  0.
         14    1    1    2    0    0  0.65021906361E-02 -0.19498678434E-01 -0.12147551857E-01  0.23875509625E-01  0.00000000000E+00 0. -1.
     999901    1    3    3    0    0  0.23677219699E-01  0.17149406351E-01  0.13594207880E+00  0.89091804430E+00  0.88000000000E+00 0.  1.
        -11    1    4    4    0    0  0.25650974112E-02 -0.24884280727E-02 -0.10410947542E-01  0.11019117421E-01  0.51100000000E-03 0. -1.
         11    1    4    4    0    0 -0.32744507746E-01  0.48377001558E-02 -0.11338357940E+00  0.11811732865E+00  0.51100000000E-03 0.  1.
</event>
<event>
 8    1  0.1061722E+005  0.1043930E+01  0.7957747E-01            NaN
         13   -1    0    0    0    0  0.00000000000E+00  0.00000000000E+00  0.74505805969E-08  0.10566000000E+00  0.10566000000E+00 0.  1.
     999900   -1    0    0    0    0 -0.00000000000E+00 -0.00000000000E+00 -0.74505805969E-08  0.93827000000E+00  0.93827000000E+00 0. -1.
     999902    2    1    2    0    0 -0.16012692693E-01 -0.16646278752E-02  0.17691568003E-01  0.10200099479E+01  0.10197294371E+01 0.  0.
     999903    2    3    3    0    0  0.33109902860E-01  0.11887737385E+00  0.36308341381E-01  0.13024032165E+00  0.20399756076E-01 0.  0.
         14    1    1    2    0    0  0.16012692693E-01  0.16646278752E-02 -0.17691568003E-01  0.23920052083E-01  0.00000000000E+00 0. -1.
     999901    1    3    3    0    0 -0.49122595553E-01 -0.12054200173E+00 -0.18616773378E-01  0.88976962627E+00  0.88000000000E+00 0. -1.
        -11    1    4    4    0    0  0.95968791467E-02  0.38874792376E-01  0.20744915591E-02  0.40098805566E-01  0.51100000000E-03 0.  1.
         11    1    4    4    0    0  0.23513023713E-01  0.80002581479E-01  0.34233849822E-01  0.90141516085E-01  0.51100000000E-03 0. -1.
</event>
<event>
 8    1  0.1061722E+005  0.1043930E+01  0.7957747E-01            NaN
         13   -1    0    0    0    0  0.00000000000E+00  0.00000000000E+00  0.74505805969E-08  0.10566000000E+00  0.10566000000E+00 0. -1.
     999900   -1    0    0    0    0 -0.00000000000E+00 -0.00000000000E+00 -0.74505805969E-08  0.93827000000E+00  0.93827000000E+00 0.  1.
     999902    2    1    2    0    0 -0.31788163658E-02 -0.17112174350E-01  0.16320704500E-01  0.10200700591E+01  0.10197909730E+01 0.  0.
     999903    2    3    3    0    0  0.12593687266E-01  0.45947536026E-01  0.12094304662E+00  0.13149190642E+00  0.19827352370E-01 0.  0.
         14    1    1    2    0    0  0.31788163658E-02  0.17112174350E-01 -0.16320704500E-01  0.23859940902E-01  0.00000000000E+00 0.  1.
     999901    1    3    3    0    0 -0.15772503631E-01 -0.63059710376E-01 -0.10462234212E+00  0.88857815268E+00  0.88000000000E+00 0.  1.
        -11    1    4    4    0    0  0.13670504678E-01  0.28800827245E-01  0.96342911343E-01  0.10148195916E+00  0.51100000000E-03 0. -1.
         11    1    4    4    0    0 -0.10768174122E-02  0.17146708781E-01  0.24600135280E-01  0.30009947260E-01  0.51100000000E-03 0.  1.
</event>
<event>
 8    1  0.1061722E+005  0.1043930E+01  0.7957747E-01            NaN
         13   -1    0    0    0    0  0.00000000000E+00  0.00000000000E+00  0.74505805969E-08  0.10566000000E+00  0.10566000000E+00 0. -1.
     999900   -1    0    0    0    0 -0.00000000000E+00 -0.00000000000E+00 -0.74505805969E-08  0.93827000000E+00  0.93827000000E+00 0.  1.
     999902    2    1    2    0    0  0.14441986992E-01 -0.10768019887E-01 -0.15758345293E-01  0.10199957842E+01  0.10197149372E+01 0.  0.
     999903    2    3    3    0    0 -0.11643567020E+00  0.18527628997E-01 -0.49061267379E-01  0.12921170214E+00  0.19700702548E-01 0.  0.
         14    1    1    2    0    0 -0.14441986992E-01  0.10768019887E-01  0.15758345293E-01  0.23934215821E-01  0.00000000000E+00 0. -1.
     999901    1    3    3    0    0  0.13087765720E+00 -0.29295648884E-01  0.33302922086E-01  0.89078408204E+00  0.88000000000E+00 0.  1.
        -11    1    4    4    0    0 -0.56045865710E-01  0.10718490877E-01 -0.34207564014E-01  0.66531523856E-01  0.51100000000E-03 0. -1.
         11    1    4    4    0    0 -0.60389804494E-01  0.78091381203E-02 -0.14853703366E-01  0.62680178283E-01  0.51100000000E-03 0.  1.
</event>
<event>
 8    1  0.1061722E+005  0.1043930E+01  0.7957747E-01            NaN
         13   -1    0    0    0    0  0.00000000000E+00  0.00000000000E+00  0.74505805969E-08  0.10566000000E+00  0.10566000000E+00 0. -1.
     999900   -1    0    0    0    0 -0.00000000000E+00 -0.00000000000E+00 -0.74505805969E-08  0.93827000000E+00  0.93827000000E+00 0. -1.
     999902    2    1    2    0    0 -0.64721719491E-02  0.13121310340E-01 -0.18910907711E-01  0.10200201647E+01  0.10197398963E+01 0.  0.
     999903    2    3    3    0    0  0.42364805591E-01  0.12286374021E+00 -0.98134253141E-02  0.13181342327E+00  0.19702787307E-01 0.  0.
         14    1    1    2    0    0  0.64721719491E-02 -0.13121310340E-01  0.18910907711E-01  0.23909835324E-01  0.00000000000E+00 0. -1.
     999901    1    3    3    0    0 -0.48836977540E-01 -0.10974242987E+00 -0.90974823972E-02  0.88820674140E+00  0.88000000000E+00 0.  1.
        -11    1    4    4    0    0  0.27782724069E-01  0.60486440077E-01  0.23609827956E-02  0.66605739623E-01  0.51100000000E-03 0.  1.
         11    1    4    4    0    0  0.14582081521E-01  0.62377300131E-01 -0.12174408110E-01  0.65207683649E-01  0.51100000000E-03 0. -1.
</event>
<event>
 8    1  0.1061722E+005  0.1043930E+01  0.7957747E-01            NaN
         13   -1    0    0    0    0  0.00000000000E+00  0.00000000000E+00  0.74505805969E-08  0.10566000000E+00  0.10566000000E+00 0. -1.
     999900   -1    0    0    0    0 -0.00000000000E+00 -0.00000000000E+00 -0.74505805969E-08  0.93827000000E+00  0.93827000000E+00 0. -1.
     999902    2    1    2    0    0 -0.93287377088E-02  0.17208396729E-01  0.14888663863E-01  0.10193367778E+01  0.10190400581E+01 0.  0.
     999903    2    3    3    0    0 -0.39102523988E-01  0.12280286536E+00 -0.19523543894E-01  0.13185671033E+00  0.19886482112E-01 0.  0.
         14    1    1    2    0    0  0.93287377088E-02 -0.17208396729E-01 -0.14888663863E-01  0.24593222173E-01  0.00000000000E+00 0.  1.
     999901    1    3    3    0    0  0.29773786279E-01 -0.10559446863E+00  0.34412207756E-01  0.88748006749E+00  0.88000000000E+00 0.  1.
        -11    1    4    4    0    0 -0.18095722119E-01  0.32509181374E-01 -0.10774595929E-01  0.38738289470E-01  0.51100000000E-03 0. -1.
         11    1    4    4    0    0 -0.21006801869E-01  0.90293683987E-01 -0.87489479647E-02  0.93118420864E-01  0.51100000000E-03 0.  1.
</event>
<event>
 8    1  0.1061722E+005  0.1043930E+01  0.7957747E-01            NaN
         13   -1    0    0    0    0  0.00000000000E+00  0.00000000000E+00  0.74505805969E-08  0.10566000000E+00  0.10566000000E+00 0.  1.
     999900   -1    0    0    0    0 -0.00000000000E+00 -0.00000000000E+00 -0.74505805969E-08  0.93827000000E+00  0.93827000000E+00 0. -1.
     999902    2    1    2    0    0 -0.29416267385E-03  0.16467053403E-01  0.16948920124E-01  0.10202970511E+01  0.10200233116E+01 0.  0.
     999903    2    3    3    0    0 -0.12277741853E+00 -0.19881180915E-01 -0.31916230497E-01  0.12972917327E+00  0.18478549007E-01 0.  0.
         14    1    1    2    0    0  0.29416267385E-03 -0.16467053403E-01 -0.16948920124E-01  0.23632948881E-01  0.00000000000E+00 0. -1.
     999901    1    3    3    0    0  0.12248325586E+00  0.36348234318E-01  0.48865150620E-01  0.89056787784E+00  0.88000000000E+00 0. -1.
        -11    1    4    4    0    0 -0.73881665126E-01 -0.20705166439E-01 -0.16881450635E-01  0.78564934007E-01  0.51100000000E-03 0. -1.
         11    1    4    4    0    0 -0.48895753406E-01  0.82398552400E-03 -0.15034779862E-01  0.51164239267E-01  0.51100000000E-03 0.  1.
</event>
<event>
 8    1  0.1061722E+005  0.1043930E+01  0.7957747E-01            NaN
         13   -1    0    0    0    0  0.00000000000E+00  0.00000000000E+00  0.74505805969E-08  0.10566000000E+00  0.10566000000E+00 0.  1.
     999900   -1    0    0    0    0 -0.00000000000E+00 -0.00000000000E+00 -0.74505805969E-08  0.93827000000E+00  0.93827000000E+00 0. -1.
     999902    2    1    2    0    0 -0.20890224271E-01  0.48970102179E-02  0.99900088536E-02  0.10202618261E+01  0.10199872604E+01 0.  0.
     999903    2    3    3    0    0 -0.61890038349E-01  0.11470213707E+00 -0.12076434787E-01  0.13221617492E+00  0.18663320637E-01 0.  0.
         14    1    1    2    0    0  0.20890224271E-01 -0.48970102179E-02 -0.99900088536E-02  0.23668173906E-01  0.00000000000E+00 0. -1.
     999901    1    3    3    0    0  0.40999814078E-01 -0.10980512685E+00  0.22066443641E-01  0.88804565118E+00  0.88000000000E+00 0.  1.
        -11    1    4    4    0    0 -0.25494373185E-01  0.56239547733E-01  0.25869845144E-02  0.61804558111E-01  0.51100000000E-03 0. -1.
         11    1    4    4    0    0 -0.36395665164E-01  0.58462589338E-01 -0.14663419302E-01  0.70411616807E-01  0.51100000000E-03 0.  1.
</event>
<event>
 8    1  0.1061722E+005  0.1043930E+01  0.7957747E-01            NaN
         13   -1    0    0    0    0  0.00000000000E+00  0.00000000000E+00  0.74505805969E-08  0.10566000000E+00  0.10566000000E+00 0. -1.
     999900   -1    0    0    0    0 -0.00000000000E+00 -0.00000000000E+00 -0.74505805969E-08  0.93827000000E+00  0.93827000000E+00 0.  1.
     999902    2    1    2    0    0  0.17186468330E-01 -0.14906577901E-01 -0.64954630890E-02  0.10202705030E+01  0.10199961409E+01 0.  0.
     999903    2    3    3    0    0 -0.54191493230E-01 -0.28897017074E-01  0.11209967421E+00  0.12934101510E+00  0.19773863967E-01 0.  0.
         14    1    1    2    0    0 -0.17186468330E-01  0.14906577901E-01  0.64954630890E-02  0.23659497018E-01  0.00000000000E+00 0.  1.
     999901    1    3    3    0    0  0.71377961560E-01  0.13990439173E-01 -0.11859513730E+00  0.89092948788E+00  0.88000000000E+00 0.  1.
        -11    1    4    4    0    0 -0.73565079302E-02  0.26749747120E-02  0.17176559372E-01  0.18883035018E-01  0.51100000000E-03 0.  1.
         11    1    4    4    0    0 -0.46834985299E-01 -0.31571991786E-01  0.94923114835E-01  0.11045798008E+00  0.51100000000E-03 0. -1.
</event>
<event>
 8    1  0.1061722E+005  0.1043930E+01  0.7957747E-01            NaN
         13   -1    0    0    0    0  0.00000000000E+00  0.00000000000E+00  0.74505805969E-08  0.10566000000E+00  0.10566000000E+00 0. -1.
     999900   -1    0    0    0    0 -0.00000000000E+00 -0.00000000000E+00 -0.74505805969E-08  0.93827000000E+00  0.93827000000E+00 0. -1.
     999902    2    1    2    0    0 -0.86879864820E-02 -0.10940361310E-01  0.20293601744E-01  0.10192925714E+01  0.10189947710E+01 0.  0.
     999903    2    3    3    0    0  0.77715174011E-01  0.70933065619E-01  0.72989262850E-01  0.12971649437E+00  0.20683045004E-01 0.  0.
         14    1    1    2    0    0  0.86879864820E-02  0.10940361310E-01 -0.20293601744E-01  0.24637428568E-01  0.00000000000E+00 0.  1.
     999901    1    3    3    0    0 -0.86403160493E-01 -0.81873426929E-01 -0.52695661106E-01  0.88957607706E+00  0.88000000000E+00 0. -1.
        -11    1    4    4    0    0  0.57672866933E-01  0.45767264564E-01  0.40679319791E-01  0.84118192239E-01  0.51100000000E-03 0.  1.
         11    1    4    4    0    0  0.20042307078E-01  0.25165801055E-01  0.32309943060E-01  0.45598302132E-01  0.51100000000E-03 0. -1.
</event>
<event>
 8    1  0.1061722E+005  0.1043930E+01  0.7957747E-01            NaN
         13   -1    0    0    0    0  0.00000000000E+00  0.00000000000E+00  0.74505805969E-08  0.10566000000E+00  0.10566000000E+00 0. -1.
     999900   -1    0    0    0    0 -0.00000000000E+00 -0.00000000000E+00 -0.74505805969E-08  0.93827000000E+00  0.93827000000E+00 0. -1.
     999902    2    1    2    0    0  0.97194872802E-02 -0.18332924235E-01 -0.11233952908E-01  0.10203341054E+01  0.10200612337E+01 0.  0.
     999903    2    3    3    0    0  0.47058587628E-01 -0.66353825704E-01 -0.10391664614E+00  0.13337847121E+00  0.19334073136E-01 0.  0.
         14    1    1    2    0    0 -0.97194872802E-02  0.18332924235E-01  0.11233952908E-01  0.23595894599E-01  0.00000000000E+00 0.  1.
     999901    1    3    3    0    0 -0.37339100348E-01  0.48020901470E-01  0.92682693228E-01  0.88695563419E+00  0.88000000000E+00 0.  1.
        -11    1    4    4    0    0  0.14941899706E-01 -0.33473337415E-01 -0.36092307494E-01  0.51445509676E-01  0.51100000000E-03 0.  1.
         11    1    4    4    0    0  0.32116687923E-01 -0.32880488289E-01 -0.67824338642E-01  0.81932961538E-01  0.51100000000E-03 0. -1.
</event>
<event>
 8    1  0.1061722E+005  0.1043930E+01  0.7957747E-01            NaN
         13   -1    0    0    0    0  0.00000000000E+00  0.00000000000E+00  0.74505805969E-08  0.10566000000E+00  0.10566000000E+00 0. -1.
     999900   -1    0    0    0    0 -0.00000000000E+00 -0.00000000000E+00 -0.74505805969E-08  0.93827000000E+00  0.93827000000E+00 0. -1.
     999902    2    1    2    0    0  0.13439393390E-01  0.19495663715E-01 -0.29277569827E-02  0.10200706211E+01  0.10197915484E+01 0.  0.
     999903    2    3    3    0    0  0.42803006284E-01  0.11670945568E-01 -0.12209115775E+00  0.13151934853E+00  0.20561612781E-01 0.  0.
         14    1    1    2    0    0 -0.13439393390E-01 -0.19495663715E-01  0.29277569827E-02  0.23859378855E-01  0.00000000000E+00 0. -1.
     999901    1    3    3    0    0 -0.29363612893E-01  0.78247181474E-02  0.11916340077E+00  0.88855127261E+00  0.88000000000E+00 0.  1.
        -11    1    4    4    0    0  0.28293066201E-01  0.15280772939E-01 -0.65288145914E-01  0.72779136671E-01  0.51100000000E-03 0. -1.
         11    1    4    4    0    0  0.14509940083E-01 -0.36098273708E-02 -0.56803011838E-01  0.58740211863E-01  0.51100000000E-03 0.  1.
</event>
<event>
 8    1  0.1061722E+005  0.1043930E+01  0.7957747E-01            NaN
         13   -1    0    0    0    0  0.00000000000E+00  0.00000000000E+00  0.74505805969E-08  0.10566000000E+00  0.10566000000E+00 0.  1.
     999900   -1    0    0    0    0 -0.00000000000E+00 -0.00000000000E+00 -0.74505805969E-08  0.93827000000E+00  0.93827000000E+00 0.  1.
     999902    2    1    2    0    0 -0.11819299108E-01 -0.14776764628E-01  0.17111898645E-01  0.10184179307E+01  0.10180983331E+01 0.  0.
     999903    2    3    3    0    0 -0.12867490655E+00 -0.97859673699E-02  0.66773533759E-02  0.13061782889E+00  0.19063930414E-01 0.  0.
         14    1    1    2    0    0  0.11819299108E-01  0.14776764628E-01 -0.17111898645E-01  0.25512069291E-01  0.00000000000E+00 0. -1.
     999901    1    3    3    0    0  0.11685560745E+00 -0.49907972580E-02  0.10434545269E-01  0.88780010182E+00  0.88000000000E+00 0. -1.
        -11    1    4    4    0    0 -0.89227101804E-02 -0.27660594941E-02 -0.40205007199E-02  0.10182896893E-01  0.51100000000E-03 0.  1.
         11    1    4    4    0    0 -0.11975219637E+00 -0.70199078758E-02  0.10697854096E-01  0.12043493200E+00  0.51100000000E-03 0. -1.
</event>
<event>
 8    1  0.1061722E+005  0.1043930E+01  0.7957747E-01            NaN
         13   -1    0    0    0    0  0.00000000000E+00  0.00000000000E+00  0.74505805969E-08  0.10566000000E+00  0.10566000000E+00 0.  1.
     999900   -1    0    0    0    0 -0.00000000000E+00 -0.00000000000E+00 -0.74505805969E-08  0.93827000000E+00  0.93827000000E+00 0.  1.
     999902    2    1    2    0    0  0.19586089831E-01  0.45220317830E-02  0.85941322412E-02  0.10220685546E+01  0.10218347261E+01 0.  0.
     999903    2    3    3    0    0 -0.76610941346E-01 -0.10322511729E+00 -0.55187326341E-02  0.13018151584E+00  0.19801754552E-01 0.  0.
         14    1    1    2    0    0 -0.19586089831E-01 -0.45220317830E-02 -0.85941322412E-02  0.21861445407E-01  0.00000000000E+00 0.  1.
     999901    1    3    3    0    0  0.96197031177E-01  0.10774714907E+00  0.14112864875E-01  0.89188703875E+00  0.88000000000E+00 0.  1.
        -11    1    4    4    0    0 -0.97737666731E-02 -0.58482737840E-02  0.29269052486E-02  0.11771011705E-01  0.51100000000E-03 0. -1.
         11    1    4    4    0    0 -0.66837174673E-01 -0.97376843505E-01 -0.84456378827E-02  0.11841050413E+00  0.51100000000E-03 0.  1.
</event>
<event>
 8    1  0.1061722E+005  0.1043930E+01  0.7957747E-01            NaN
         13   -1    0    0    0    0  0.00000000000E+00  0.00000000000E+00  0.74505805969E-08  0.10566000000E+00  0.10566000000E+00 0. -1.
     999900   -1    0    0    0    0 -0.00000000000E+00 -0.00000000000E+00 -0.74505805969E-08  0.93827000000E+00  0.93827000000E+00 0. -1.
     999902    2    1    2    0    0 -0.95585717115E-02 -0.87725206111E-02  0.14317048408E-01  0.10246089937E+01  0.10244268098E+01 0.  0.
     999903    2    3    3    0    0  0.11212610636E-01  0.33244821962E-01 -0.12607351239E+00  0.13224897177E+00  0.19087147118E-01 0.  0.
         14    1    1    2    0    0  0.95585717115E-02  0.87725206111E-02 -0.14317048408E-01  0.19321006344E-01  0.00000000000E+00 0.  1.
     999901    1    3    3    0    0 -0.20771182347E-01 -0.42017342573E-01  0.14039056079E+00  0.89236002188E+00  0.88000000000E+00 0.  1.
        -11    1    4    4    0    0 -0.33473774633E-02  0.92284365085E-02 -0.54145397548E-01  0.55030484033E-01  0.51100000000E-03 0. -1.
         11    1    4    4    0    0  0.14559988099E-01  0.24016385454E-01 -0.71928114839E-01  0.77218487741E-01  0.51100000000E-03 0.  1.
</event>
<event>
 8    1  0.1061722E+005  0.1043930E+01  0.7957747E-01            NaN
         13   -1    0    0    0    0  0.00000000000E+00  0.00000000000E+00  0.74505805969E-08  0.10566000000E+00  0.10566000000E+00 0.  1.
     999900   -1    0    0    0    0 -0.00000000000E+00 -0.00000000000E+00 -0.74505805969E-08  0.93827000000E+00  0.93827000000E+00 0.  1.
     999902    2    1    2    0    0  0.12047358768E-01 -0.72409259587E-02  0.18592553455E-01  0.10206222136E+01  0.10203560408E+01 0.  0.
     999903    2    3    3    0    0  0.42274220306E-01  0.49897564988E-01  0.11351969035E+00  0.13315974589E+00  0.23831095931E-01 0.  0.
         14    1    1    2    0    0 -0.12047358768E-01  0.72409259587E-02 -0.18592553455E-01  0.23307786381E-01  0.00000000000E+00 0. -1.
     999901    1    3    3    0    0 -0.30226861538E-01 -0.57138490947E-01 -0.94927136900E-01  0.88746246773E+00  0.88000000000E+00 0.  1.
        -11    1    4    4    0    0  0.16760011265E-01  0.35123667781E-01  0.52142237710E-01  0.65066459027E-01  0.51100000000E-03 0.  1.
         11    1    4    4    0    0  0.25514209041E-01  0.14773897207E-01  0.61377452645E-01  0.68093286863E-01  0.51100000000E-03 0. -1.
</event>
<event>
 8    1  0.1061722E+005  0.1043930E+01  0.7957747E-01            NaN
         13   -1    0    0    0    0  0.00000000000E+00  0.00000000000E+00  0.74505805969E-08  0.10566000000E+00  0.10566000000E+00 0.  1.
     999900   -1    0    0    0    0 -0.00000000000E+00 -0.00000000000E+00 -0.74505805969E-08  0.93827000000E+00  0.93827000000E+00 0. -1.
     999902    2    1    2    0    0 -0.19100753959E-01  0.90206628595E-02 -0.10718750265E-01  0.10202423921E+01  0.10199673700E+01 0.  0.
     999903    2    3    3    0    0 -0.38333436000E-01  0.93599968352E-01 -0.83311947244E-01  0.13300323201E+00  0.22772193124E-01 0.  0.
         14    1    1    2    0    0  0.19100753959E-01 -0.90206628595E-02  0.10718750265E-01  0.23687607888E-01  0.00000000000E+00 0. -1.
     999901    1    3    3    0    0  0.19232682042E-01 -0.84579305492E-01  0.72593196979E-01  0.88723916010E+00  0.88000000000E+00 0.  1.
        -11    1    4    4    0    0 -0.28584545806E-01  0.66471687773E-01 -0.45584638957E-01  0.85520652267E-01  0.51100000000E-03 0. -1.
         11    1    4    4    0    0 -0.97488901940E-02  0.27128280579E-01 -0.37727308287E-01  0.47482579740E-01  0.51100000000E-03 0.  1.
</event>
<event>
 8    1  0.1061722E+005  0.1043930E+01  0.7957747E-01            NaN
         13   -1    0    0    0    0  0.00000000000E+00  0.00000000000E+00  0.74505805969E-08  0.10566000000E+00  0.10566000000E+00 0. -1.
     999900   -1    0    0    0    0 -0.00000000000E+00 -0.00000000000E+00 -0.74505805969E-08  0.93827000000E+00  0.93827000000E+00 0.  1.
     999902    2    1    2    0    0  0.12582528987E-02  0.13521760938E-01 -0.13038930485E-01  0.10251035578E+01  0.10249306656E+01 0.  0.
     999903    2    3    3    0    0  0.79407988613E-01  0.42919392592E-01 -0.99698191573E-01  0.13691358401E+00  0.25649506180E-01 0.  0.
         14    1    1    2    0    0 -0.12582528987E-02 -0.13521760938E-01  0.13038930485E-01  0.18826442240E-01  0.00000000000E+00 0.  1.
     999901    1    3    3    0    0 -0.78149735714E-01 -0.29397631655E-01  0.86659261088E-01  0.88818997375E+00  0.88000000000E+00 0. -1.
        -11    1    4    4    0    0  0.41668468505E-01  0.17266381441E-01 -0.32140063441E-01  0.55386225676E-01  0.51100000000E-03 0.  1.
         11    1    4    4    0    0  0.37739520107E-01  0.25653011152E-01 -0.67558128132E-01  0.81527358333E-01  0.51100000000E-03 0. -1.
</event>
<event>
 8    1  0.1061722E+005  0.1043930E+01  0.7957747E-01            NaN
         13   -1    0    0    0    0  0.00000000000E+00  0.00000000000E+00  0.74505805969E-08  0.10566000000E+00  0.10566000000E+00 0.  1.
     999900   -1    0    0    0    0 -0.00000000000E+00 -0.00000000000E+00 -0.74505805969E-08  0.93827000000E+00  0.93827000000E+00 0. -1.
     999902    2    1    2    0    0 -0.71086315350E-02 -0.19461518135E-01  0.38905369689E-02  0.10228487380E+01  0.10226314689E+01 0.  0.
     999903    2    3    3    0    0  0.72335322857E-01 -0.62191479684E-01 -0.90784499118E-01  0.13318556916E+00  0.19909582448E-01 0.  0.
         14    1    1    2    0    0  0.71086315350E-02  0.19461518135E-01 -0.38905369689E-02  0.21081262020E-01  0.00000000000E+00 0. -1.
     999901    1    3    3    0    0 -0.79443954392E-01  0.42729961549E-01  0.94675036087E-01  0.88966316882E+00  0.88000000000E+00 0.  1.
        -11    1    4    4    0    0  0.42765459707E-01 -0.29021972633E-01 -0.37807063695E-01  0.64037447058E-01  0.51100000000E-03 0.  1.
         11    1    4    4    0    0  0.29569863150E-01 -0.33169507051E-01 -0.52977435423E-01  0.69148122099E-01  0.51100000000E-03 0. -1.
</event>
<event>
 8    1  0.1061722E+005  0.1043930E+01  0.7957747E-01            NaN
         13   -1    0    0    0    0  0.00000000000E+00  0.00000000000E+00  0.74505805969E-08  0.10566000000E+00  0.10566000000E+00 0. -1.
     999900   -1    0    0    0    0 -0.00000000000E+00 -0.00000000000E+00 -0.74505805969E-08  0.93827000000E+00  0.93827000000E+00 0. -1.
     999902    2    1    2    0    0  0.20234035878E-01  0.10627332952E-01 -0.35944497568E-02  0.10207939571E+01  0.10205317370E+01 0.  0.
     999903    2    3    3    0    0  0.14785029825E-01 -0.12390491598E+00  0.29903352462E-01  0.12992319179E+00  0.20366638565E-01 0.  0.
         14    1    1    2    0    0 -0.20234035878E-01 -0.10627332952E-01  0.35944497568E-02  0.23136042934E-01  0.00000000000E+00 0. -1.
     999901    1    3    3    0    0  0.54490060523E-02  0.13453224893E+00 -0.33497802219E-01  0.89087076528E+00  0.88000000000E+00 0.  1.
        -11    1    4    4    0    0 -0.20119381721E-03 -0.61282806138E-01  0.21684299484E-01  0.65008405396E-01  0.51100000000E-03 0. -1.
         11    1    4    4    0    0  0.14986223643E-01 -0.62622109839E-01  0.82190529780E-02  0.64914786394E-01  0.51100000000E-03 0.  1.
</event>
<event>
 8    1  0.1061722E+005  0.1043930E+01  0.7957747E-01            NaN
         13   -1    0    0    0    0  0.00000000000E+00  0.00000000000E+00  0.74505805969E-08  0.10566000000E+00  0.10566000000E+00 0. -1.
     999900   -1    0    0    0    0 -0.00000000000E+00 -0.00000000000E+00 -0.74505805969E-08  0.93827000000E+00  0.93827000000E+00 0.  1.
     999902    2    1    2    0    0  0.97809063802E-02 -0.20132400728E-01  0.87198449093E-02  0.10199088555E+01  0.10196259403E+01 0.  0.
     999903    2    3    3    0    0  0.42654793825E-01 -0.84643538293E-01 -0.89042455152E-01  0.13153964921E+00  0.19752480425E-01 0.  0.
         14    1    1    2    0    0 -0.97809063802E-02  0.20132400728E-01 -0.87198449093E-02  0.24021144518E-01  0.00000000000E+00 0.  1.
     999901    1    3    3    0    0 -0.32873887445E-01  0.64511137564E-01  0.97762300061E-01  0.88836920628E+00  0.88000000000E+00 0. -1.
        -11    1    4    4    0    0  0.22949880039E-01 -0.58201692105E-01 -0.47818990912E-01  0.78746752127E-01  0.51100000000E-03 0.  1.
         11    1    4    4    0    0  0.19704913787E-01 -0.26441846188E-01 -0.41223464240E-01  0.52792897080E-01  0.51100000000E-03 0. -1.
</event>
<event>
 8    1  0.1061722E+005  0.1043930E+01  0.7957747E-01            NaN
         13   -1    0    0    0    0  0.00000000000E+00  0.00000000000E+00  0.74505805969E-08  0.10566000000E+00  0.10566000000E+00 0.  1.
     999900   -1    0    0    0    0 -0.00000000000E+00 -0.00000000000E+00 -0.74505805969E-08  0.93827000000E+00  0.93827000000E+00 0.  1.
     999902    2    1    2    0    0 -0.95125842005E-04 -0.22128385040E-01 -0.84623738233E-02  0.10202385196E+01  0.10199634065E+01 0.  0.
     999903    2    3    3    0    0  0.31798902432E-01  0.51581497081E-01 -0.11371115916E+00  0.13033533239E+00  0.19627789375E-01 0.  0.
         14    1    1    2    0    0  0.95125842005E-04  0.22128385040E-01  0.84623738233E-02  0.23691480412E-01  0.00000000000E+00 0.  1.
     999901    1    3    3    0    0 -0.31894028274E-01 -0.73709882121E-01  0.10524878534E+00  0.88990318719E+00  0.88000000000E+00 0. -1.
        -11    1    4    4    0    0  0.23159766066E-01  0.29118915467E-01 -0.85525294358E-01  0.93269089726E-01  0.51100000000E-03 0.  1.
         11    1    4    4    0    0  0.86391363656E-02  0.22462581615E-01 -0.28185864802E-01  0.37066242669E-01  0.51100000000E-03 0. -1.
</event>
<event>
 8    1  0.1061722E+005  0.1043930E+01  0.7957747E-01            NaN
         13   -1    0    0    0    0  0.00000000000E+00  0.00000000000E+00  0.74505805969E-08  0.10566000000E+00  0.10566000000E+00 0. -1.
     999900   -1    0    0    0    0 -0.00000000000E+00 -0.00000000000E+00 -0.74505805969E-08  0.93827000000E+00  0.93827000000E+00 0.  1.
     999902    2    1    2    0    0 -0.12043194583E-01  0.95738198398E-02  0.17714508787E-01  0.10204672554E+01  0.10201974902E+01 0.  0.
     999903    2    3    3    0    0 -0.13997605806E-01 -0.12774860981E+00 -0.80405815133E-03  0.12962259627E+00  0.16903569958E-01 0.  0.
         14    1    1    2    0    0  0.12043194583E-01 -0.95738198398E-02 -0.17714508787E-01  0.23462744589E-01  0.00000000000E+00 0.  1.
     999901    1    3    3    0    0  0.19544112229E-02  0.13732242965E+00  0.18518566938E-01  0.89084465915E+00  0.88000000000E+00 0. -1.
        -11    1    4    4    0    0 -0.35542712774E-02 -0.97161195474E-01  0.12062953993E-02  0.97235009229E-01  0.51100000000E-03 0.  1.
         11    1    4    4    0    0 -0.10443334529E-01 -0.30587414332E-01 -0.20103535506E-02  0.32387587036E-01  0.51100000000E-03 0. -1.
</event>
<event>
 8    1  0.1061722E+005  0.1043930E+01  0.7957747E-01            NaN
         13   -1    0    0    0    0  0.00000000000E+00  0.00000000000E+00  0.74505805969E-08  0.10566000000E+00  0.10566000000E+00 0.  1.
     999900   -1    0    0    0    0 -0.00000000000E+00 -0.00000000000E+00 -0.74505805969E-08  0.93827000000E+00  0.93827000000E+00 0.  1.
     999902    2    1    2    0    0  0.75144171584E-02  0.16590123103E-01  0.14516384366E-01  0.10206400008E+01  0.10203742387E+01 0.  0.
     999903    2    3    3    0    0 -0.70944034090E-01  0.99719153590E-02 -0.10561270434E+00  0.12899515711E+00  0.18793939732E-01 0.  0.
         14    1    1    2    0    0 -0.75144171584E-02 -0.16590123103E-01 -0.14516384366E-01  0.23289999246E-01  0.00000000000E+00 0.  1.
     999901    1    3    3    0    0  0.78458451248E-01  0.66182077442E-02  0.12012908871E+00  0.89164484365E+00  0.88000000000E+00 0.  1.
        -11    1    4    4    0    0 -0.17561400660E-01  0.64923742940E-02 -0.16027047158E-01  0.24651188181E-01  0.51100000000E-03 0. -1.
         11    1    4    4    0    0 -0.53382633429E-01  0.34795410650E-02 -0.89585657182E-01  0.10434396893E+00  0.51100000000E-03 0.  1.
</event>
<event>
 8    1  0.1061722E+005  0.1043930E+01  0.7957747E-01            NaN
         13   -1    0    0    0    0  0.00000000000E+00  0.00000000000E+00  0.74505805969E-08  0.10566000000E+00  0.10566000000E+00 0. -1.
     999900   -1    0    0    0    0 -0.00000000000E+00 -0.00000000000E+00 -0.74505805969E-08  0.93827000000E+00  0.93827000000E+00 0.  1.
     999902    2    1    2    0    0 -0.81729416143E-02  0.22289594251E-01 -0.91618556863E-02  0.10184827489E+01  0.10181647938E+01 0.  0.
     999903    2    3    3    0    0  0.84581669784E-01  0.96936874529E-01 -0.10070821371E-01  0.13046447177E+00  0.19202615534E-01 0.  0.
         14    1    1    2    0    0  0.81729416143E-02 -0.22289594251E-01  0.91618556863E-02  0.25447251053E-01  0.00000000000E+00 0.  1.
     999901    1    3    3    0    0 -0.92754611398E-01 -0.74647280278E-01  0.90896568447E-03  0.88801827718E+00  0.88000000000E+00 0. -1.
        -11    1    4    4    0    0  0.64983614986E-01  0.61568137209E-01 -0.43741864709E-02  0.89626449022E-01  0.51100000000E-03 0.  1.
         11    1    4    4    0    0  0.19598054797E-01  0.35368737321E-01 -0.56966348999E-02  0.40838022745E-01  0.51100000000E-03 0. -1.
</event>
<event>
 8    1  0.1061722E+005  0.1043930E+01  0.7957747E-01            NaN
         13   -1    0    0    0    0  0.00000000000E+00  0.00000000000E+00  0.74505805969E-08  0.10566000000E+00  0.10566000000E+00 0.  1.
     999900   -1    0    0    0    0 -0.00000000000E+00 -0.00000000000E+00 -0.74505805969E-08  0.93827000000E+00  0.93827000000E+00 0.  1.
     999902    2    1    2    0    0 -0.16219737020E-01 -0.14022832258E-01  0.11456852985E-01  0.10196199368E+01  0.10193300919E+01 0.  0.
     999903    2    3    3    0    0 -0.59527753198E-01 -0.11654111198E+00  0.91765751805E-02  0.13260765862E+00  0.19370013152E-01 0.  0.
         14    1    1    2    0    0  0.16219737020E-01  0.14022832258E-01 -0.11456852985E-01  0.24310063221E-01  0.00000000000E+00 0. -1.
     999901    1    3    3    0    0  0.43308016178E-01  0.10251827972E+00  0.22802778042E-02  0.88701227816E+00  0.88000000000E+00 0.  1.
        -11    1    4    4    0    0 -0.23515347734E-01 -0.27201317985E-01  0.20867559310E-02  0.36020812740E-01  0.51100000000E-03 0. -1.
         11    1    4    4    0    0 -0.36012405464E-01 -0.89339793995E-01  0.70898192496E-02  0.96586845877E-01  0.51100000000E-03 0.  1.
</event>
<event>
 8    1  0.1061722E+005  0.1043930E+01  0.7957747E-01            NaN
         13   -1    0    0    0    0  0.00000000000E+00  0.00000000000E+00  0.74505805969E-08  0.10566000000E+00  0.10566000000E+00 0.  1.
     999900   -1    0    0    0    0 -0.00000000000E+00 -0.00000000000E+00 -0.74505805969E-08  0.93827000000E+00  0.93827000000E+00 0. -1.
     999902    2    1    2    0    0 -0.56851222363E-02 -0.35074236395E-02  0.22848352452E-01  0.10201251718E+01  0.10198473887E+01 0.  0.
     999903    2    3    3    0    0  0.49049079499E-01 -0.11221325494E-01 -0.11604389785E+00  0.12751865474E+00  0.16220071871E-01 0.  0.
         14    1    1    2    0    0  0.56851222363E-02  0.35074236395E-02 -0.22848352452E-01  0.23804828191E-01  0.00000000000E+00 0. -1.
     999901    1    3    3    0    0 -0.54734201736E-01  0.77139018542E-02  0.13889225031E+00  0.89260651707E+00  0.88000000000E+00 0.  1.
        -11    1    4    4    0    0  0.14214085422E-01 -0.73850400788E-03 -0.51436290410E-01  0.53371703221E-01  0.51100000000E-03 0. -1.
         11    1    4    4    0    0  0.34834994077E-01 -0.10482821486E-01 -0.64607607445E-01  0.74146951518E-01  0.51100000000E-03 0.  1.
</event>
<event>
 8    1  0.1061722E+005  0.1043930E+01  0.7957747E-01            NaN
         13   -1    0    0    0    0  0.00000000000E+00  0.00000000000E+00  0.74505805969E-08  0.10566000000E+00  0.10566000000E+00 0. -1.
     999900   -1    0    0    0    0 -0.00000000000E+00 -0.00000000000E+00 -0.74505805969E-08  0.93827000000E+00  0.93827000000E+00 0.  1.
     999902    2    1    2    0    0  0.21573615081E-01 -0.10771438951E-02  0.42696546675E-02  0.10219115746E+01  0.10216743391E+01 0.  0.
     999903    2    3    3    0    0  0.12653661115E+00 -0.20941513568E-01  0.35331141956E-01  0.13490726810E+00  0.22396884666E-01 0.  0.
         14    1    1    2    0    0 -0.21573615081E-01  0.10771438951E-02 -0.42696546675E-02  0.22018425412E-01  0.00000000000E+00 0.  1.
     999901    1    3    3    0    0 -0.10496299607E+00  0.19864369673E-01 -0.31061487289E-01  0.88700430648E+00  0.88000000000E+00 0.  1.
        -11    1    4    4    0    0  0.11248724699E+00 -0.17922915151E-01  0.23545503419E-01  0.11631536216E+00  0.51100000000E-03 0.  1.
         11    1    4    4    0    0  0.14049364164E-01 -0.30185984170E-02  0.11785638537E-01  0.18591905942E-01  0.51100000000E-03 0. -1.
</event>
<event>
 8    1  0.1061722E+005  0.1043930E+01  0.7957747E-01            NaN
         13   -1    0    0    0    0  0.00000000000E+00  0.00000000000E+00  0.74505805969E-08  0.10566000000E+00  0.10566000000E+00 0. -1.
     999900   -1    0    0    0    0 -0.00000000000E+00 -0.00000000000E+00 -0.74505805969E-08  0.93827000000E+00  0.93827000000E+00 0.  1.
     999902    2    1    2    0    0  0.14526519754E-01 -0.18093611623E-01  0.73846512122E-02  0.10195798125E+01  0.10192889985E+01 0.  0.
     999903    2    3    3    0    0  0.96940569861E-01 -0.77943262098E-01 -0.42035206995E-01  0.13232766192E+00  0.16462845801E-01 0.  0.
         14    1    1    2    0    0 -0.14526519754E-01  0.18093611623E-01 -0.73846512122E-02  0.24350187500E-01  0.00000000000E+00 0.  1.
     999901    1    3    3    0    0 -0.82414050107E-01  0.59849650474E-01  0.49419858207E-01  0.88725215058E+00  0.88000000000E+00 0.  1.
        -11    1    4    4    0    0  0.41284131335E-01 -0.43437824625E-01 -0.18079735143E-01  0.62596821422E-01  0.51100000000E-03 0. -1.
         11    1    4    4    0    0  0.55656438526E-01 -0.34505437472E-01 -0.23955471852E-01  0.69730840503E-01  0.51100000000E-03 0.  1.
</event>
<event>
 8    1  0.1061722E+005  0.1043930E+01  0.7957747E-01            NaN
         13   -1    0    0    0    0  0.00000000000E+00  0.00000000000E+00  0.74505805969E-08  0.10566000000E+00  0.10566000000E+00 0.  1.
     999900   -1    0    0    0    0 -0.00000000000E+00 -0.00000000000E+00 -0.74505805969E-08  0.93827000000E+00  0.93827000000E+00 0. -1.
     999902    2    1    2    0    0  0.95591295407E-02 -0.96389873041E-02 -0.19866105399E-01  0.10198686372E+01  0.10195847626E+01 0.  0.
     999903    2    3    3    0    0 -0.32516818124E-02  0.12432801079E+00 -0.30354240277E-01  0.12957583460E+00  0.20012229002E-01 0.  0.
         14    1    1    2    0    0 -0.95591295407E-02  0.96389873041E-02  0.19866105399E-01  0.24061362753E-01  0.00000000000E+00 0.  1.
     999901    1    3    3    0    0  0.12810811353E-01 -0.13396699809E+00  0.10488134878E-01  0.89029280264E+00  0.88000000000E+00 0. -1.
        -11    1    4    4    0    0 -0.57683861477E-02  0.64916410570E-01 -0.64808197707E-02  0.65495624174E-01  0.51100000000E-03 0. -1.
         11    1    4    4    0    0  0.25167043352E-02  0.59411600216E-01 -0.23873420506E-01  0.64080210429E-01  0.51100000000E-03 0.  1.
</event>
<event>
 8    1  0.1061722E+005  0.1043930E+01  0.7957747E-01            NaN
         13   -1    0    0    0    0  0.00000000000E+00  0.00000000000E+00  0.74505805969E-08  0.10566000000E+00  0.10566000000E+00 0. -1.
     999900   -1    0    0    0    0 -0.00000000000E+00 -0.00000000000E+00 -0.74505805969E-08  0.93827000000E+00  0.93827000000E+00 0.  1.
     999902    2    1    2    0    0 -0.20245456740E-01  0.11126093603E-01  0.70499490288E-02  0.10197769410E+01  0.10194908725E+01 0.  0.
     999903    2    3    3    0    0 -0.92158411368E-01 -0.71025708852E-01  0.58046520211E-01  0.13156466798E+00  0.20050916368E-01 0.  0.
         14    1    1    2    0    0  0.20245456740E-01 -0.11126093603E-01 -0.70499490288E-02  0.24153058994E-01  0.00000000000E+00 0.  1.
     999901    1    3    3    0    0  0.71912954628E-01  0.82151802454E-01 -0.50996571182E-01  0.88821227303E+00  0.88000000000E+00 0. -1.
        -11    1    4    4    0    0 -0.73667831086E-01 -0.51898365871E-01  0.36113107552E-01  0.97081447121E-01  0.51100000000E-03 0. -1.
         11    1    4    4    0    0 -0.18490580281E-01 -0.19127342981E-01  0.21933412658E-01  0.34483220854E-01  0.51100000000E-03 0.  1.
</event>
<event>
 8    1  0.1061722E+005  0.1043930E+01  0.7957747E-01            NaN
         13   -1    0    0    0    0  0.00000000000E+00  0.00000000000E+00  0.74505805969E-08  0.10566000000E+00  0.10566000000E+00 0. -1.
     999900   -1    0    0    0    0 -0.00000000000E+00 -0.00000000000E+00 -0.74505805969E-08  0.93827000000E+00  0.93827000000E+00 0. -1.
     999902    2    1    2    0    0  0.13598909425E-01  0.17779932881E-01  0.36033902081E-02  0.10212575327E+01  0.10210058312E+01 0.  0.
     999903    2    3    3    0    0 -0.10915456066E+00  0.46280047302E-01  0.51771696363E-01  0.13097619706E+00  0.20442474410E-01 0.  0.
         14    1    1    2    0    0 -0.13598909425E-01 -0.17779932881E-01 -0.36033902081E-02  0.22672467263E-01  0.00000000000E+00 0.  1.
     999901    1    3    3    0    0  0.12275347009E+00 -0.28500114421E-01 -0.48168306155E-01  0.89028133568E+00  0.88000000000E+00 0. -1.
        -11    1    4    4    0    0 -0.78151980340E-01  0.29597176553E-01  0.45690456773E-01  0.95244967594E-01  0.51100000000E-03 0. -1.
         11    1    4    4    0    0 -0.31002580322E-01  0.16682870748E-01  0.60812395897E-02  0.35731229463E-01  0.51100000000E-03 0.  1.
</event>
<event>
 8    1  0.1061722E+005  0.1043930E+01  0.7957747E-01            NaN
         13   -1    0    0    0    0  0.00000000000E+00  0.00000000000E+00  0.74505805969E-08  0.10566000000E+00  0.10566000000E+00 0. -1.
     999900   -1    0    0    0    0 -0.00000000000E+00 -0.00000000000E+00 -0.74505805969E-08  0.93827000000E+00  0.93827000000E+00 0. -1.
     999902    2    1    2    0    0 -0.13725634578E-01 -0.47055994362E-02  0.20295837004E-01  0.10189809176E+01  0.10186754409E+01 0.  0.
     999903    2    3    3    0    0  0.19795090869E-01  0.80988647558E-01  0.98678992076E-01  0.13071797122E+00  0.19965917601E-01 0.  0.
         14    1    1    2    0    0  0.13725634578E-01  0.47055994362E-02 -0.20295837004E-01  0.24949082354E-01  0.00000000000E+00 0.  1.
     999901    1    3    3    0    0 -0.33520725447E-01 -0.85694246994E-01 -0.78383155072E-01  0.88826294643E+00  0.88000000000E+00 0.  1.
        -11    1    4    4    0    0  0.10789506784E-01  0.35146877375E-01  0.58504702690E-01  0.69099767030E-01  0.51100000000E-03 0.  1.
         11    1    4    4    0    0  0.90055840858E-02  0.45841770183E-01  0.40174289386E-01  0.61618204185E-01  0.51100000000E-03 0. -1.
</event>
<event>
 8    1  0.1061722E+005  0.1043930E+01  0.7957747E-01            NaN
         13   -1    0    0    0    0  0.00000000000E+00  0.00000000000E+00  0.74505805969E-08  0.10566000000E+00  0.10566000000E+00 0. -1.
     999900   -1    0    0    0    0 -0.00000000000E+00 -0.00000000000E+00 -0.74505805969E-08  0.93827000000E+00  0.93827000000E+00 0. -1.
     999902    2    1    2    0    0  0.19161331837E-01  0.13012793630E-01  0.35689543547E-02  0.10204944102E+01  0.10202252763E+01 0.  0.
     999903    2    3    3    0    0  0.10911705249E+00 -0.59762471485E-01 -0.37717158835E-01  0.13196032864E+00  0.22646415217E-01 0.  0.
         14    1    1    2    0    0 -0.19161331837E-01 -0.13012793630E-01 -0.35689543547E-02  0.23435589837E-01  0.00000000000E+00 0. -1.
     999901    1    3    3    0    0 -0.89955720650E-01  0.72775265115E-01  0.41286113190E-01  0.88853408153E+00  0.88000000000E+00 0.  1.
        -11    1    4    4    0    0  0.29974536503E-01 -0.28415753811E-01 -0.11134651418E-01  0.42780480203E-01  0.51100000000E-03 0. -1.
         11    1    4    4    0    0  0.79142515984E-01 -0.31346717673E-01 -0.26582507417E-01  0.89179848434E-01  0.51100000000E-03 0.  1.
</event>
<event>
 8    1  0.1061722E+005  0.1043930E+01  0.7957747E-01            NaN
         13   -1    0    0    0    0  0.00000000000E+00  0.00000000000E+00  0.74505805969E-08  0.10566000000E+00  0.10566000000E+00 0. -1.
     999900   -1    0    0    0    0 -0.00000000000E+00 -0.00000000000E+00 -0.74505805969E-08  0.93827000000E+00  0.93827000000E+00 0.  1.
     999902    2    1    2    0    0  0.23214697875E-01 -0.75378512574E-02 -0.71331112925E-03  0.10195117648E+01  0.10192193033E+01 0.  0.
     999903    2    3    3    0    0 -0.76002165578E-02  0.12099526599E+00 -0.38771312823E-01  0.12882734665E+00  0.19891024731E-01 0.  0.
         14    1    1    2    0    0 -0.23214697875E-01  0.75378512574E-02  0.71331112925E-03  0.24418235231E-01  0.00000000000E+00 0. -1.
     999901    1    3    3    0    0  0.30814914433E-01 -0.12853311724E+00  0.38058001693E-01  0.89068441812E+00  0.88000000000E+00 0. -1.
        -11    1    4    4    0    0  0.59126124798E-02  0.63187452034E-01 -0.18847845977E-01  0.66205101766E-01  0.51100000000E-03 0.  1.
         11    1    4    4    0    0 -0.13512829038E-01  0.57807813954E-01 -0.19923466846E-01  0.62622244888E-01  0.51100000000E-03 0. -1.
</event>
<event>
 8    1  0.1061722E+005  0.1043930E+01  0.7957747E-01            NaN
         13   -1    0    0    0    0  0.00000000000E+00  0.00000000000E+00  0.74505805969E-08  0.10566000000E+00  0.10566000000E+00 0.  1.
     999900   -1    0    0    0    0 -0.00000000000E+00 -0.00000000000E+00 -0.74505805969E-08  0.93827000000E+00  0.93827000000E+00 0.  1.
     999902    2    1    2    0    0 -0.60818344809E-02  0.13740457732E-01 -0.19098885620E-01  0.10196286354E+01  0.10193390004E+01 0.  0.
     999903    2    3    3    0    0  0.42968825616E-02  0.13381744841E-02  0.12595414283E+00  0.12760738260E+00  0.19973584688E-01 0.  0.
         14    1    1    2    0    0  0.60818344809E-02 -0.13740457732E-01  0.19098885620E-01  0.24301364597E-01  0.00000000000E+00 0.  1.
     999901    1    3    3    0    0 -0.10378717042E-01  0.12402283248E-01 -0.14505302845E+00  0.89202125281E+00  0.88000000000E+00 0.  1.
        -11    1    4    4    0    0  0.31497713160E-02  0.99422522549E-02  0.90596738045E-01  0.91196488445E-01  0.51100000000E-03 0. -1.
         11    1    4    4    0    0  0.11471112456E-02 -0.86040777708E-02  0.35357404788E-01  0.36410894150E-01  0.51100000000E-03 0.  1.
</event>
<event>
 8    1  0.1061722E+005  0.1043930E+01  0.7957747E-01            NaN
         13   -1    0    0    0    0  0.00000000000E+00  0.00000000000E+00  0.74505805969E-08  0.10566000000E+00  0.10566000000E+00 0. -1.
     999900   -1    0    0    0    0 -0.00000000000E+00 -0.00000000000E+00 -0.74505805969E-08  0.93827000000E+00  0.93827000000E+00 0.  1.
     999902    2    1    2    0    0 -0.65868221702E-02  0.69331072603E-02  0.22303842343E-01  0.10196624170E+01  0.10193735964E+01 0.  0.
     999903    2    3    3    0    0  0.88273965659E-01 -0.81200857583E-01  0.45726818467E-01  0.12987884743E+00  0.19791432410E-01 0.  0.
         14    1    1    2    0    0  0.65868221702E-02 -0.69331072603E-02 -0.22303842343E-01  0.24267583024E-01  0.00000000000E+00 0.  1.
     999901    1    3    3    0    0 -0.94860787829E-01  0.88133964843E-01 -0.23422976124E-01  0.88978356955E+00  0.88000000000E+00 0. -1.
        -11    1    4    4    0    0  0.24605312883E-01 -0.34690637095E-01  0.19417487777E-01  0.46756407868E-01  0.51100000000E-03 0.  1.
         11    1    4    4    0    0  0.63668652776E-01 -0.46510220488E-01  0.26309330689E-01  0.83122439560E-01  0.51100000000E-03 0. -1.
</event>
<event>
 8    1  0.1061722E+005  0.1043930E+01  0.7957747E-01            NaN
         13   -1    0    0    0    0  0.00000000000E+00  0.00000000000E+00  0.74505805969E-08  0.10566000000E+00  0.10566000000E+00 0. -1.
     999900   -1    0    0    0    0 -0.00000000000E+00 -0.00000000000E+00 -0.74505805969E-08  0.93827000000E+00  0.93827000000E+00 0.  1.
     999902    2    1    2    0    0 -0.31755779209E-03  0.16700365315E-01 -0.16761675250E-01  0.10202665936E+01  0.10199921398E+01 0.  0.
     999903    2    3    3    0    0  0.19013729973E-02 -0.99206278626E-01 -0.80770527389E-01  0.13035850459E+00  0.24979205058E-01 0.  0.
         14    1    1    2    0    0  0.31755779209E-03 -0.16700365315E-01  0.16761675250E-01  0.23663406386E-01  0.00000000000E+00 0. -1.
     999901    1    3    3    0    0 -0.22189307894E-02  0.11590664394E+00  0.64008852138E-01  0.88990808903E+00  0.88000000000E+00 0. -1.
        -11    1    4    4    0    0 -0.82999200647E-02 -0.33525987661E-01 -0.18072046552E-01  0.38983849339E-01  0.51100000000E-03 0. -1.
         11    1    4    4    0    0  0.10201293062E-01 -0.65680290965E-01 -0.62698480836E-01  0.91374655248E-01  0.51100000000E-03 0.  1.
</event>
<event>
 8    1  0.1061722E+005  0.1043930E+01  0.7957747E-01            NaN
         13   -1    0    0    0    0  0.00000000000E+00  0.00000000000E+00  0.74505805969E-08  0.10566000000E+00  0.10566000000E+00 0. -1.
     999900   -1    0    0    0    0 -0.00000000000E+00 -0.00000000000E+00 -0.74505805969E-08  0.93827000000E+00  0.93827000000E+00 0. -1.
     999902    2    1    2    0    0  0.73142465945E-02 -0.22901691389E-01  0.19006285585E-02  0.10198136557E+01  0.10195284667E+01 0.  0.
     999903    2    3    3    0    0 -0.11094440151E+00  0.55527143421E-01 -0.17499845405E-01  0.12823496130E+00  0.27313674758E-01 0.  0.
         14    1    1    2    0    0 -0.73142465945E-02  0.22901691389E-01 -0.19006285585E-02  0.24116344263E-01  0.00000000000E+00 0. -1.
     999901    1    3    3    0    0  0.11825864810E+00 -0.78428834810E-01  0.19400473964E-01  0.89157869443E+00  0.88000000000E+00 0.  1.
        -11    1    4    4    0    0 -0.22887269189E-01  0.98438183127E-02  0.73227772022E-02  0.25973294686E-01  0.51100000000E-03 0. -1.
         11    1    4    4    0    0 -0.88057132318E-01  0.45683325108E-01 -0.24822622607E-01  0.10226166662E+00  0.51100000000E-03 0.  1.
</event>
<event>
 8    1  0.1061722E+005  0.1043930E+01  0.7957747E-01            NaN
         13   -1    0    0    0    0  0.00000000000E+00  0.00000000000E+00  0.74505805969E-08  0.10566000000E+00  0.10566000000E+00 0. -1.
     999900   -1    0    0    0    0 -0.00000000000E+00 -0.00000000000E+00 -0.74505805969E-08  0.93827000000E+00  0.93827000000E+00 0. -1.
     999902    2    1    2    0    0  0.16691259381E-01  0.12646602385E-01 -0.86552738153E-02  0.10212705989E+01  0.10210191907E+01 0.  0.
     999903    2    3    3    0    0  0.15109113097E-01  0.10362562757E+00  0.78397481860E-01  0.13230610669E+00  0.19803654174E-01 0.  0.
         14    1    1    2    0    0 -0.16691259381E-01 -0.12646602385E-01  0.86552738153E-02  0.22659401060E-01  0.00000000000E+00 0. -1.
     999901    1    3    3    0    0  0.15821462845E-02 -0.90979025181E-01 -0.87052755675E-01  0.88896449225E+00  0.88000000000E+00 0. -1.
        -11    1    4    4    0    0  0.19444153342E-01  0.91741179331E-01  0.71164500063E-01  0.11772496029E+00  0.51100000000E-03 0. -1.
         11    1    4    4    0    0 -0.43350402458E-02  0.11884448235E-01  0.72329817969E-02  0.14581146404E-01  0.51100000000E-03 0.  1.
</event>
<event>
 8    1  0.1061722E+005  0.1043930E+01  0.7957747E-01            NaN
         13   -1    0    0    0    0  0.00000000000E+00  0.00000000000E+00  0.74505805969E-08  0.10566000000E+00  0.10566000000E+00 0. -1.
     999900   -1    0    0    0    0 -0.00000000000E+00 -0.00000000000E+00 -0.74505805969E-08  0.93827000000E+00  0.93827000000E+00 0.  1.
     999902    2    1    2    0    0  0.94669570818E-02  0.18412314172E-02  0.21356993256E-01  0.10204963795E+01  0.10202272913E+01 0.  0.
     999903    2    3    3    0    0 -0.37441194322E-01 -0.90623716515E-01  0.86243397303E-01  0.13203682121E+00  0.19526841753E-01 0.  0.
         14    1    1    2    0    0 -0.94669570818E-02 -0.18412314172E-02 -0.21356993256E-01  0.23433620515E-01  0.00000000000E+00 0.  1.
     999901    1    3    3    0    0  0.46908151404E-01  0.92464947932E-01 -0.64886404047E-01  0.88845955828E+00  0.88000000000E+00 0.  1.
        -11    1    4    4    0    0 -0.32498312435E-01 -0.64594759672E-01  0.53702939436E-01  0.90071583273E-01  0.51100000000E-03 0. -1.
         11    1    4    4    0    0 -0.49428818871E-02 -0.26028956843E-01  0.32540457867E-01  0.41965237934E-01  0.51100000000E-03 0.  1.
</event>
<event>
 8    1  0.1061722E+005  0.1043930E+01  0.7957747E-01            NaN
         13   -1    0    0    0    0  0.00000000000E+00  0.00000000000E+00  0.74505805969E-08  0.10566000000E+00  0.10566000000E+00 0.  1.
     999900   -1    0    0    0    0 -0.00000000000E+00 -0.00000000000E+00 -0.74505805969E-08  0.93827000000E+00  0.93827000000E+00 0.  1.
     999902    2    1    2    0    0 -0.69099405632E-02  0.16020032890E-01 -0.16003761749E-01  0.10202549261E+01  0.10199801984E+01 0.  0.
     999903    2    3    3    0    0 -0.89415317672E-01  0.27949083786E-01 -0.92204891351E-01  0.13303677277E+00  0.20513181162E-01 0.  0.
         14    1    1    2    0    0  0.69099405632E-02 -0.16020032890E-01  0.16003761749E-01  0.23675073865E-01  0.00000000000E+00 0.  1.
     999901    1    3    3    0    0  0.82505377109E-01 -0.11929050896E-01  0.76201129602E-01  0.88721815336E+00  0.88000000000E+00 0. -1.
        -11    1    4    4    0    0 -0.27448533423E-01  0.93780743721E-02 -0.16198031719E-01  0.33226610098E-01  0.51100000000E-03 0.  1.
         11    1    4    4    0    0 -0.61966784249E-01  0.18571009414E-01 -0.76006859631E-01  0.99810162673E-01  0.51100000000E-03 0. -1.
</event>
<event>
 8    1  0.1061722E+005  0.1043930E+01  0.7957747E-01            NaN
         13   -1    0    0    0    0  0.00000000000E+00  0.00000000000E+00  0.74505805969E-08  0.10566000000E+00  0.10566000000E+00 0.  1.
     999900   -1    0    0    0    0 -0.00000000000E+00 -0.00000000000E+00 -0.74505805969E-08  0.93827000000E+00  0.93827000000E+00 0.  1.
     999902    2    1    2    0    0  0.17951159826E-01  0.99674050724E-02 -0.11567442398E-01  0.10203630947E+01  0.10200909008E+01 0.  0.
     999903    2    3    3    0    0  0.10060376219E+00 -0.26812694420E-01  0.77427947372E-01  0.13125994667E+00  0.19850667902E-01 0.  0.
         14    1    1    2    0    0 -0.17951159826E-01 -0.99674050724E-02  0.11567442398E-01  0.23566905326E-01  0.00000000000E+00 0.  1.
     999901    1    3    3    0    0 -0.82652602362E-01  0.36780099493E-01 -0.88995389771E-01  0.88910314801E+00  0.88000000000E+00 0.  1.
        -11    1    4    4    0    0  0.42452480058E-01 -0.13495722542E-01  0.21422199043E-01  0.49431966609E-01  0.51100000000E-03 0.  1.
         11    1    4    4    0    0  0.58151282131E-01 -0.13316971879E-01  0.56005748329E-01  0.81827980058E-01  0.51100000000E-03 0. -1.
</event>
<event>
 8    1  0.1061722E+005  0.1043930E+01  0.7957747E-01            NaN
         13   -1    0    0    0    0  0.00000000000E+00  0.00000000000E+00  0.74505805969E-08  0.10566000000E+00  0.10566000000E+00 0. -1.
     999900   -1    0    0    0    0 -0.00000000000E+00 -0.00000000000E+00 -0.74505805969E-08  0.93827000000E+00  0.93827000000E+00 0.  1.
     999902    2    1    2    0    0 -0.88369170148E-02 -0.16908196426E-01 -0.14092179576E-01  0.10202114896E+01  0.10199357410E+01 0.  0.
     999903    2    3    3    0    0  0.65187407361E-01 -0.58233697421E-02 -0.11233736378E+00  0.13158637734E+00  0.20297331982E-01 0.  0.
         14    1    1    2    0    0  0.88369170148E-02  0.16908196426E-01  0.14092179576E-01  0.23718510365E-01  0.00000000000E+00 0. -1.
     999901    1    3    3    0    0 -0.74024324376E-01 -0.11084826684E-01  0.98245184209E-01  0.88862511230E+00  0.88000000000E+00 0. -1.
        -11    1    4    4    0    0  0.52696868995E-02  0.40899414141E-02 -0.19787991849E-01  0.20888345152E-01  0.51100000000E-03 0. -1.
         11    1    4    4    0    0  0.59917720462E-01 -0.99133111563E-02 -0.92549371936E-01  0.11069803219E+00  0.51100000000E-03 0.  1.
</event>
<event>
 8    1  0.1061722E+005  0.1043930E+01  0.7957747E-01            NaN
         13   -1    0    0    0    0  0.00000000000E+00  0.00000000000E+00  0.74505805969E-08  0.10566000000E+00  0.10566000000E+00 0. -1.
     999900   -1    0    0    0    0 -0.00000000000E+00 -0.00000000000E+00 -0.74505805969E-08  0.93827000000E+00  0.93827000000E+00 0.  1.
     999902    2    1    2    0    0 -0.24103369434E-01  0.81271601565E-03  0.87025139840E-03  0.10197972367E+01  0.10195116546E+01 0.  0.
     999903    2    3    3    0    0 -0.54736279437E-01 -0.63591503691E-01 -0.98922412040E-01  0.13129014370E+00  0.20285921255E-01 0.  0.
         14    1    1    2    0    0  0.24103369434E-01 -0.81271601565E-03 -0.87025139840E-03  0.24132763267E-01  0.00000000000E+00 0. -1.
     999901    1    3    3    0    0  0.30632910004E-01  0.64404219706E-01  0.99792663438E-01  0.88850709303E+00  0.88000000000E+00 0. -1.
        -11    1    4    4    0    0 -0.18529658021E-01 -0.86158140202E-02 -0.21545497752E-01  0.29699327804E-01  0.51100000000E-03 0. -1.
         11    1    4    4    0    0 -0.36206621416E-01 -0.54975689670E-01 -0.77376914288E-01  0.10159081590E+00  0.51100000000E-03 0.  1.
</event>
<event>
 8    1  0.1061722E+005  0.1043930E+01  0.7957747E-01            NaN
         13   -1    0    0    0    0  0.00000000000E+00  0.00000000000E+00  0.74505805969E-08  0.10566000000E+00  0.10566000000E+00 0.  1.
     999900   -1    0    0    0    0 -0.00000000000E+00 -0.00000000000E+00 -0.74505805969E-08  0.93827000000E+00  0.93827000000E+00 0.  1.
     999902    2    1    2    0    0 -0.13221511484E-01 -0.18800078185E-01 -0.17850046791E-02  0.10208770707E+01  0.10206167528E+01 0.  0.
     999903    2    3    3    0    0  0.55943425589E-01  0.87780008262E-01  0.73032079203E-01  0.12860990258E+00  0.19282783267E-01 0.  0.
         14    1    1    2    0    0  0.13221511484E-01  0.18800078185E-01  0.17850046791E-02  0.23052929258E-01  0.00000000000E+00 0.  1.
     999901    1    3    3    0    0 -0.69164937073E-01 -0.10658008645E+00 -0.74817083882E-01  0.89226716817E+00  0.88000000000E+00 0.  1.
        -11    1    4    4    0    0  0.51377252448E-02  0.11573327169E-02  0.52334287903E-02  0.74421460354E-02  0.51100000000E-03 0. -1.
         11    1    4    4    0    0  0.50805700344E-01  0.86622675545E-01  0.67798650413E-01  0.12116775654E+00  0.51100000000E-03 0.  1.
</event>
<event>
 8    1  0.1061722E+005  0.1043930E+01  0.7957747E-01            NaN
         13   -1    0    0    0    0  0.00000000000E+00  0.00000000000E+00  0.74505805969E-08  0.10566000000E+00  0.10566000000E+00 0. -1.
     999900   -1    0    0    0    0 -0.00000000000E+00 -0.00000000000E+00 -0.74505805969E-08  0.93827000000E+00  0.93827000000E+00 0. -1.
     999902    2    1    2    0    0  0.21607393597E-01 -0.49960064221E-02 -0.82913097569E-02  0.10202533162E+01  0.10199785507E+01 0.  0.
     999903    2    3    3    0    0 -0.11399108712E+00 -0.13899066090E-01 -0.54378386004E-01  0.12863106937E+00  0.20044729065E-01 0.  0.
         14    1    1    2    0    0 -0.21607393597E-01  0.49960064221E-02  0.82913097569E-02  0.23676683799E-01  0.00000000000E+00 0. -1.
     999901    1    3    3    0    0  0.13559848071E+00  0.89030596682E-02  0.46087076247E-01  0.89162224683E+00  0.88000000000E+00 0.  1.
        -11    1    4    4    0    0 -0.59234424802E-01 -0.43809488461E-02 -0.17476637761E-01  0.61916102775E-01  0.51100000000E-03 0.  1.
         11    1    4    4    0    0 -0.54756662314E-01 -0.95181172441E-02 -0.36901748243E-01  0.66714966597E-01  0.51100000000E-03 0. -1.
</event>
<event>
 8    1  0.1061722E+005  0.1043930E+01  0.7957747E-01            NaN
         13   -1    0    0    0    0  0.00000000000E+00  0.00000000000E+00  0.74505805969E-08  0.10566000000E+00  0.10566000000E+00 0. -1.
     999900   -1    0    0    0    0 -0.00000000000E+00 -0.00000000000E+00 -0.74505805969E-08  0.93827000000E+00  0.93827000000E+00 0. -1.
     999902    2    1    2    0    0 -0.90863278313E-02 -0.20880955540E-01  0.81057562453E-02  0.10197581374E+01  0.10194716180E+01 0.  0.
     999903    2    3    3    0    0 -0.88513489511E-02  0.26994619750E-01  0.12608568781E+00  0.13059482833E+00  0.18717709317E-01 0.  0.
         14    1    1    2    0    0  0.90863278313E-02  0.20880955540E-01 -0.81057562453E-02  0.24171862609E-01  0.00000000000E+00 0.  1.
     999901    1    3    3    0    0 -0.23497888022E-03 -0.47875575290E-01 -0.11797993157E+00  0.88916330906E+00  0.88000000000E+00 0. -1.
        -11    1    4    4    0    0 -0.60715555077E-02  0.22146958405E-01  0.59605394652E-01  0.63878131982E-01  0.51100000000E-03 0. -1.
         11    1    4    4    0    0 -0.27797934434E-02  0.48476613451E-02  0.66480293160E-01  0.66716696349E-01  0.51100000000E-03 0.  1.
</event>
<event>
 8    1  0.1061722E+005  0.1043930E+01  0.7957747E-01            NaN
         13   -1    0    0    0    0  0.00000000000E+00  0.00000000000E+00  0.74505805969E-08  0.10566000000E+00  0.10566000000E+00 0.  1.
     999900   -1    0    0    0    0 -0.00000000000E+00 -0.00000000000E+00 -0.74505805969E-08  0.93827000000E+00  0.93827000000E+00 0. -1.
     999902    2    1    2    0    0 -0.30752567189E-02 -0.12104674772E-01 -0.20649187215E-01  0.10197976713E+01  0.10195120995E+01 0.  0.
     999903    2    3    3    0    0 -0.32332449946E-01  0.11947940933E+00 -0.30605227250E-01  0.12947779774E+00  0.22518960901E-01 0.  0.
         14    1    1    2    0    0  0.30752567189E-02  0.12104674772E-01  0.20649187215E-01  0.24132328687E-01  0.00000000000E+00 0.  1.
     999901    1    3    3    0    0  0.29257193227E-01 -0.13158408410E+00  0.99560400353E-02  0.89031987357E+00  0.88000000000E+00 0.  1.
        -11    1    4    4    0    0 -0.83151934428E-02  0.17763573321E-01 -0.12883228756E-01  0.23471806136E-01  0.51100000000E-03 0.  1.
         11    1    4    4    0    0 -0.24017256503E-01  0.10171583601E+00 -0.17721998494E-01  0.10600599160E+00  0.51100000000E-03 0. -1.
</event>
<event>
 8    1  0.1061722E+005  0.1043930E+01  0.7957747E-01            NaN
         13   -1    0    0    0    0  0.00000000000E+00  0.00000000000E+00  0.74505805969E-08  0.10566000000E+00  0.10566000000E+00 0.  1.
     999900   -1    0    0    0    0 -0.00000000000E+00 -0.00000000000E+00 -0.74505805969E-08  0.93827000000E+00  0.93827000000E+00 0. -1.
     999902    2    1    2    0    0  0.38440484631E-02 -0.20474899089E-01  0.12043209692E-01  0.10198668102E+01  0.10195828919E+01 0.  0.
     999903    2    3    3    0    0  0.12840849065E+00 -0.12424640313E-01 -0.13691653134E-01  0.13068550698E+00  0.15752085940E-01 0.  0.
         14    1    1    2    0    0 -0.38440484631E-02  0.20474899089E-01 -0.12043209692E-01  0.24063189751E-01  0.00000000000E+00 0.  1.
     999901    1    3    3    0    0 -0.12456444218E+00 -0.80502587764E-02  0.25734862826E-01  0.88918130327E+00  0.88000000000E+00 0.  1.
        -11    1    4    4    0    0  0.68614576415E-01 -0.12861642289E-02 -0.13045430118E-01  0.69857416807E-01  0.51100000000E-03 0.  1.
         11    1    4    4    0    0  0.59793914232E-01 -0.11138476084E-01 -0.64622301638E-03  0.60828090171E-01  0.51100000000E-03 0. -1.
</event>
<event>
 8    1  0.1061722E+005  0.1043930E+01  0.7957747E-01            NaN
         13   -1    0    0    0    0  0.00000000000E+00  0.00000000000E+00  0.74505805969E-08  0.10566000000E+00  0.10566000000E+00 0.  1.
     999900   -1    0    0    0    0 -0.00000000000E+00 -0.00000000000E+00 -0.74505805969E-08  0.93827000000E+00  0.93827000000E+00 0.  1.
     999902    2    1    2    0    0 -0.10595973150E-02 -0.91446005835E-02 -0.21596382193E-01  0.10204534119E+01  0.10201833245E+01 0.  0.
     999903    2    3    3    0    0 -0.11623690130E+00 -0.43170434798E-01 -0.40841477351E-01  0.13208752867E+00  0.20109333469E-01 0.  0.
         14    1    1    2    0    0  0.10595973150E-02  0.91446005835E-02  0.21596382193E-01  0.23476588128E-01  0.00000000000E+00 0.  1.
     999901    1    3    3    0    0  0.11517730399E+00  0.34025834215E-01  0.19245095158E-01  0.88836588320E+00  0.88000000000E+00 0.  1.
        -11    1    4    4    0    0 -0.47618645659E-01 -0.97820436300E-02 -0.22672042887E-01  0.53642394071E-01  0.51100000000E-03 0. -1.
         11    1    4    4    0    0 -0.68618255646E-01 -0.33388391168E-01 -0.18169434464E-01  0.78445134600E-01  0.51100000000E-03 0.  1.
</event>
<event>
 8    1  0.1061722E+005  0.1043930E+01  0.7957747E-01            NaN
         13   -1    0    0    0    0  0.00000000000E+00  0.00000000000E+00  0.74505805969E-08  0.10566000000E+00  0.10566000000E+00 0.  1.
     999900   -1    0    0    0    0 -0.00000000000E+00 -0.00000000000E+00 -0.74505805969E-08  0.93827000000E+00  0.93827000000E+00 0. -1.
     999902    2    1    2    0    0 -0.13187927278E-01 -0.63760904621E-03 -0.19490974084E-01  0.10203879941E+01  0.10201163818E+01 0.  0.
     999903    2    3    3    0    0  0.51227955360E-01 -0.11420213338E+00 -0.31429338867E-01  0.13067521366E+00  0.20537220952E-01 0.  0.
         14    1    1    2    0    0  0.13187927278E-01  0.63760904621E-03  0.19490974084E-01  0.23542005902E-01  0.00000000000E+00 0.  1.
     999901    1    3    3    0    0 -0.64415882638E-01  0.11356452433E+00  0.11938364784E-01  0.88971278044E+00  0.88000000000E+00 0.  1.
        -11    1    4    4    0    0  0.19071832224E-01 -0.55275682226E-01 -0.23717627778E-01  0.63102478702E-01  0.51100000000E-03 0.  1.
         11    1    4    4    0    0  0.32156123135E-01 -0.58926451153E-01 -0.77117110896E-02  0.67572734957E-01  0.51100000000E-03 0. -1.
</event>
<event>
 8    1  0.1061722E+005  0.1043930E+01  0.7957747E-01            NaN
         13   -1    0    0    0    0  0.00000000000E+00  0.00000000000E+00  0.74505805969E-08  0.10566000000E+00  0.10566000000E+00 0.  1.
     999900   -1    0    0    0    0 -0.00000000000E+00 -0.00000000000E+00 -0.74505805969E-08  0.93827000000E+00  0.93827000000E+00 0.  1.
     999902    2    1    2    0    0  0.16345813220E-01  0.16344883089E-01 -0.40653276665E-02  0.10204594290E+01  0.10201894817E+01 0.  0.
     999903    2    3    3    0    0  0.73542824293E-01  0.46802819865E-01 -0.97783891554E-01  0.13311375049E+00  0.23633242902E-01 0.  0.
         14    1    1    2    0    0 -0.16345813220E-01 -0.16344883089E-01  0.40653276665E-02  0.23470570978E-01  0.00000000000E+00 0.  1.
     999901    1    3    3    0    0 -0.57197011073E-01 -0.30457936776E-01  0.93718563888E-01  0.88734567853E+00  0.88000000000E+00 0. -1.
        -11    1    4    4    0    0  0.53340337810E-01  0.26762837403E-01 -0.51748932222E-01  0.78991481887E-01  0.51100000000E-03 0. -1.
         11    1    4    4    0    0  0.20202486483E-01  0.20039982462E-01 -0.46034959333E-01  0.54122268605E-01  0.51100000000E-03 0.  1.
</event>
<event>
 8    1  0.1061722E+005  0.1043930E+01  0.7957747E-01            NaN
         13   -1    0    0    0    0  0.00000000000E+00  0.00000000000E+00  0.74505805969E-08  0.10566000000E+00  0.10566000000E+00 0.  1.
     999900   -1    0    0    0    0 -0.00000000000E+00 -0.00000000000E+00 -0.74505805969E-08  0.93827000000E+00  0.93827000000E+00 0.  1.
     999902    2    1    2    0    0  0.58253588971E-02 -0.22797557946E-01 -0.32760600343E-02  0.10201729795E+01  0.10198963242E+01 0.  0.
     999903    2    3    3    0    0  0.68154069922E-01  0.91774665277E-01  0.55539966339E-01  0.12861760402E+00  0.19754335469E-01 0.  0.
         14    1    1    2    0    0 -0.58253588971E-02  0.22797557946E-01  0.32760600343E-02  0.23757020519E-01  0.00000000000E+00 0. -1.
     999901    1    3    3    0    0 -0.62328711025E-01 -0.11457222322E+00 -0.58816026373E-01  0.89155537546E+00  0.88000000000E+00 0.  1.
        -11    1    4    4    0    0  0.52927598309E-01  0.61870273141E-01  0.31358149161E-01  0.87251681938E-01  0.51100000000E-03 0. -1.
         11    1    4    4    0    0  0.15226471613E-01  0.29904392136E-01  0.24181817178E-01  0.41365922083E-01  0.51100000000E-03 0.  1.
</event>
<event>
 8    1  0.1061722E+005  0.1043930E+01  0.7957747E-01            NaN
         13   -1    0    0    0    0  0.00000000000E+00  0.00000000000E+00  0.74505805969E-08  0.10566000000E+00  0.10566000000E+00 0.  1.
     999900   -1    0    0    0    0 -0.00000000000E+00 -0.00000000000E+00 -0.74505805969E-08  0.93827000000E+00  0.93827000000E+00 0. -1.
     999902    2    1    2    0    0 -0.14922434530E-01 -0.28942672226E-02 -0.18417577528E-01  0.10200498200E+01  0.10197702547E+01 0.  0.
     999903    2    3    3    0    0 -0.27431559292E-01 -0.36694830784E-01  0.11871068848E+00  0.12870077633E+00  0.19304435194E-01 0.  0.
         14    1    1    2    0    0  0.14922434530E-01  0.28942672226E-02  0.18417577528E-01  0.23880180005E-01  0.00000000000E+00 0.  1.
     999901    1    3    3    0    0  0.12509124763E-01  0.33800563561E-01 -0.13712826601E+00  0.89134904366E+00  0.88000000000E+00 0. -1.
        -11    1    4    4    0    0 -0.68275930504E-02 -0.89766001220E-02  0.11722259602E-01  0.16274761682E-01  0.51100000000E-03 0. -1.
         11    1    4    4    0    0 -0.20603966242E-01 -0.27718230662E-01  0.10698842888E+00  0.11242601465E+00  0.51100000000E-03 0.  1.
</event>
<event>
 8    1  0.1061722E+005  0.1043930E+01  0.7957747E-01            NaN
         13   -1    0    0    0    0  0.00000000000E+00  0.00000000000E+00  0.74505805969E-08  0.10566000000E+00  0.10566000000E+00 0.  1.
     999900   -1    0    0    0    0 -0.00000000000E+00 -0.00000000000E+00 -0.74505805969E-08  0.93827000000E+00  0.93827000000E+00 0.  1.
     999902    2    1    2    0    0  0.15950510773E-01 -0.73048959533E-03  0.54738147581E-02  0.10270505730E+01  0.10269118581E+01 0.  0.
     999903    2    3    3    0    0 -0.34650496582E-01  0.12516146073E+00  0.35466989920E-01  0.13614719119E+00  0.20300298783E-01 0.  0.
         14    1    1    2    0    0 -0.15950510773E-01  0.73048959533E-03 -0.54738147581E-02  0.16879427034E-01  0.00000000000E+00 0.  1.
     999901    1    3    3    0    0  0.50601007355E-01 -0.12589195032E+00 -0.29993175162E-01  0.89090338177E+00  0.88000000000E+00 0.  1.
        -11    1    4    4    0    0 -0.31310893030E-01  0.91909106616E-01  0.19209196575E-01  0.98979342569E-01  0.51100000000E-03 0.  1.
         11    1    4    4    0    0 -0.33396035521E-02  0.33252354111E-01  0.16257793344E-01  0.37167848622E-01  0.51100000000E-03 0. -1.
</event>
<event>
 8    1  0.1061722E+005  0.1043930E+01  0.7957747E-01            NaN
         13   -1    0    0    0    0  0.00000000000E+00  0.00000000000E+00  0.74505805969E-08  0.10566000000E+00  0.10566000000E+00 0. -1.
     999900   -1    0    0    0    0 -0.00000000000E+00 -0.00000000000E+00 -0.74505805969E-08  0.93827000000E+00  0.93827000000E+00 0. -1.
     999902    2    1    2    0    0 -0.15456615483E-01 -0.15374429709E-01  0.77733811765E-02  0.10207846872E+01  0.10205222546E+01 0.  0.
     999903    2    3    3    0    0 -0.35894985047E-01  0.11966453468E+00 -0.28135002535E-01  0.12952565587E+00  0.19423345453E-01 0.  0.
         14    1    1    2    0    0  0.15456615483E-01  0.15374429709E-01 -0.77733811765E-02  0.23145312830E-01  0.00000000000E+00 0.  1.
     999901    1    3    3    0    0  0.20438369564E-01 -0.13503896439E+00  0.35908383711E-01  0.89125903130E+00  0.88000000000E+00 0. -1.
        -11    1    4    4    0    0 -0.71050801574E-02  0.48944377023E-01 -0.48525589422E-02  0.49697511562E-01  0.51100000000E-03 0.  1.
         11    1    4    4    0    0 -0.28789904890E-01  0.70720157660E-01 -0.23282443592E-01  0.79828144308E-01  0.51100000000E-03 0. -1.
</event>
<event>
 8    1  0.1061722E+005  0.1043930E+01  0.7957747E-01            NaN
         13   -1    0    0    0    0  0.00000000000E+00  0.00000000000E+00  0.74505805969E-08  0.10566000000E+00  0.10566000000E+00 0.  1.
     999900   -1    0    0    0    0 -0.00000000000E+00 -0.00000000000E+00 -0.74505805969E-08  0.93827000000E+00  0.93827000000E+00 0.  1.
     999902    2    1    2    0    0 -0.21249069892E-01 -0.31183568151E-02 -0.99204916471E-02  0.10202727966E+01  0.10199984883E+01 0.  0.
     999903    2    3    3    0    0 -0.27810886666E-01 -0.29938779309E-01  0.12194367427E+00  0.13001971413E+00  0.19107340080E-01 0.  0.
         14    1    1    2    0    0  0.21249069892E-01  0.31183568151E-02  0.99204916471E-02  0.23657203449E-01  0.00000000000E+00 0. -1.
     999901    1    3    3    0    0  0.65618167737E-02  0.26820422494E-01 -0.13186416592E+00  0.89025308242E+00  0.88000000000E+00 0.  1.
        -11    1    4    4    0    0 -0.80095358769E-02 -0.17888703775E-01  0.76887935518E-01  0.79348435000E-01  0.51100000000E-03 0.  1.
         11    1    4    4    0    0 -0.19801350789E-01 -0.12050075535E-01  0.45055738753E-01  0.50671279133E-01  0.51100000000E-03 0. -1.
</event>
<event>
 8    1  0.1061722E+005  0.1043930E+01  0.7957747E-01            NaN
         13   -1    0    0    0    0  0.00000000000E+00  0.00000000000E+00  0.74505805969E-08  0.10566000000E+00  0.10566000000E+00 0. -1.
     999900   -1    0    0    0    0 -0.00000000000E+00 -0.00000000000E+00 -0.74505805969E-08  0.93827000000E+00  0.93827000000E+00 0. -1.
     999902    2    1    2    0    0  0.47434491243E-02 -0.22832175404E-01  0.16665665561E-02  0.10205508215E+01  0.10202829967E+01 0.  0.
     999903    2    3    3    0    0  0.12869979094E+00 -0.10087180806E-01  0.16064524194E-01  0.13165548978E+00  0.20241335147E-01 0.  0.
         14    1    1    2    0    0 -0.47434491243E-02  0.22832175404E-01 -0.16665665561E-02  0.23379178500E-01  0.00000000000E+00 0.  1.
     999901    1    3    3    0    0 -0.12395634181E+00 -0.12744994597E-01 -0.14397957638E-01  0.88889533172E+00  0.88000000000E+00 0. -1.
        -11    1    4    4    0    0  0.59578000423E-01 -0.52885791479E-02  0.17594717159E-01  0.62348555691E-01  0.51100000000E-03 0. -1.
         11    1    4    4    0    0  0.69121790515E-01 -0.47986016585E-02 -0.15301929650E-02  0.69306934093E-01  0.51100000000E-03 0.  1.
</event>
<event>
 7    1  0.1061722E+005  0.1043930E+01  0.7957747E-01            NaN
         13   -1    0    0    0    0  0.00000000000E+00  0.00000000000E+00  0.74505805969E-08  0.10566000000E+00  0.10566000000E+00 0.  1.
     999900   -1    0    0    0    0 -0.00000000000E+00 -0.00000000000E+00 -0.74505805969E-08  0.93827000000E+00  0.93827000000E+00 0.  1.
     999903    2    1    2    0    0 -0.72235030223E-01  0.81208595712E-02  0.91189905692E-01  0.11844735998E+00  0.20744402506E-01 0.  0.
         14    1    1    2    0    0  0.37486693601E-01  0.13746830900E-01 -0.66580179290E-02  0.40479090401E-01  0.00000000000E+00 0.  1.
     999901    1    1    2    0    0  0.34748336622E-01 -0.21867690472E-01 -0.84531887763E-01  0.88500354962E+00  0.88000000000E+00 0.  1.
        -11    1    3    3    0    0 -0.22957375108E-01  0.97777075591E-02  0.41620596900E-01  0.48530195181E-01  0.51100000000E-03 0.  1.
         11    1    3    3    0    0 -0.49277655115E-01 -0.16568479880E-02  0.49569308792E-01  0.69917164802E-01  0.51100000000E-03 0. -1.
</event>
<event>
 8    1  0.1061722E+005  0.1043930E+01  0.7957747E-01            NaN
         13   -1    0    0    0    0  0.00000000000E+00  0.00000000000E+00  0.74505805969E-08  0.10566000000E+00  0.10566000000E+00 0.  1.
     999900   -1    0    0    0    0 -0.00000000000E+00 -0.00000000000E+00 -0.74505805969E-08  0.93827000000E+00  0.93827000000E+00 0.  1.
     999902    2    1    2    0    0 -0.59112924447E-02 -0.27520492166E-01  0.69362208944E-02  0.10149397943E+01  0.10145256793E+01 0.  0.
     999903    2    3    3    0    0  0.68144146196E-02 -0.74564260309E-01  0.10237928242E+00  0.12843856036E+00  0.20215864012E-01 0.  0.
         14    1    1    2    0    0  0.59112924447E-02  0.27520492166E-01 -0.69362208944E-02  0.28990205721E-01  0.00000000000E+00 0.  1.
     999901    1    3    3    0    0 -0.12725707064E-01  0.47043768143E-01 -0.95443061524E-01  0.88650123392E+00  0.88000000000E+00 0.  1.
        -11    1    4    4    0    0  0.95426007579E-02 -0.22586984194E-01  0.42762201514E-01  0.49296045314E-01  0.51100000000E-03 0.  1.
         11    1    4    4    0    0 -0.27281861383E-02 -0.51977276114E-01  0.59617080904E-01  0.79142515050E-01  0.51100000000E-03 0. -1.
</event>
<event>
 8    1  0.1061722E+005  0.1043930E+01  0.7957747E-01            NaN
         13   -1    0    0    0    0  0.00000000000E+00  0.00000000000E+00  0.74505805969E-08  0.10566000000E+00  0.10566000000E+00 0.  1.
     999900   -1    0    0    0    0 -0.00000000000E+00 -0.00000000000E+00 -0.74505805969E-08  0.93827000000E+00  0.93827000000E+00 0. -1.
     999902    2    1    2    0    0  0.98587841304E-02 -0.17847698720E-01 -0.10935848393E-01  0.10207928274E+01  0.10205305815E+01 0.  0.
     999903    2    3    3    0    0  0.60559409059E-01 -0.92891543830E-01  0.69644666460E-01  0.13248243606E+00  0.20123005662E-01 0.  0.
         14    1    1    2    0    0 -0.98587841304E-02  0.17847698720E-01  0.10935848393E-01  0.23137172563E-01  0.00000000000E+00 0.  1.
     999901    1    3    3    0    0 -0.50700624929E-01  0.75043845110E-01 -0.80580514853E-01  0.88831039138E+00  0.88000000000E+00 0. -1.
        -11    1    4    4    0    0  0.10381921115E-01 -0.53262367565E-02  0.89370758268E-02  0.14706649155E-01  0.51100000000E-03 0.  1.
         11    1    4    4    0    0  0.50177487944E-01 -0.87565307074E-01  0.60707590634E-01  0.11777578690E+00  0.51100000000E-03 0. -1.
</event>
<event>
 8    1  0.1061722E+005  0.1043930E+01  0.7957747E-01            NaN
         13   -1    0    0    0    0  0.00000000000E+00  0.00000000000E+00  0.74505805969E-08  0.10566000000E+00  0.10566000000E+00 0.  1.
     999900   -1    0    0    0    0 -0.00000000000E+00 -0.00000000000E+00 -0.74505805969E-08  0.93827000000E+00  0.93827000000E+00 0.  1.
     999902    2    1    2    0    0 -0.25800828225E-02 -0.25281923626E-01  0.45650317700E-04  0.10185167245E+01  0.10181996285E+01 0.  0.
     999903    2    3    3    0    0  0.23877324292E-01  0.10293404425E+00  0.65911103680E-01  0.12639700898E+00  0.21595976719E-01 0.  0.
         14    1    1    2    0    0  0.25800828225E-02  0.25281923626E-01 -0.45650317700E-04  0.25413275537E-01  0.00000000000E+00 0. -1.
     999901    1    3    3    0    0 -0.26457407115E-01 -0.12821596787E+00 -0.65865453362E-01  0.89211971548E+00  0.88000000000E+00 0.  1.
        -11    1    4    4    0    0  0.16664936041E-01  0.28248673563E-01  0.19085639234E-01  0.37950367551E-01  0.51100000000E-03 0. -1.
         11    1    4    4    0    0  0.72123882518E-02  0.74685370682E-01  0.46825464446E-01  0.88446641427E-01  0.51100000000E-03 0.  1.
</event>
<event>
 8    1  0.1061722E+005  0.1043930E+01  0.7957747E-01            NaN
         13   -1    0    0    0    0  0.00000000000E+00  0.00000000000E+00  0.74505805969E-08  0.10566000000E+00  0.10566000000E+00 0.  1.
     999900   -1    0    0    0    0 -0.00000000000E+00 -0.00000000000E+00 -0.74505805969E-08  0.93827000000E+00  0.93827000000E+00 0. -1.
     999902    2    1    2    0    0 -0.12304236862E-01  0.19399862998E-01 -0.49653596081E-02  0.10204267295E+01  0.10201560207E+01 0.  0.
     999903    2    3    3    0    0  0.38511052480E-01 -0.11595912295E+00  0.31867362386E-01  0.12786810501E+00  0.20127198879E-01 0.  0.
         14    1    1    2    0    0  0.12304236862E-01 -0.19399862998E-01  0.49653596081E-02  0.23503270520E-01  0.00000000000E+00 0. -1.
     999901    1    3    3    0    0 -0.50815289342E-01  0.13535898595E+00 -0.36832721994E-01  0.89255862447E+00  0.88000000000E+00 0. -1.
        -11    1    4    4    0    0  0.17296338631E-01 -0.66683424226E-01  0.87380041870E-02  0.69443907110E-01  0.51100000000E-03 0. -1.
         11    1    4    4    0    0  0.21214713849E-01 -0.49275698724E-01  0.23129358199E-01  0.58424197899E-01  0.51100000000E-03 0.  1.
</event>
<event>
 8    1  0.1061722E+005  0.1043930E+01  0.7957747E-01            NaN
         13   -1    0    0    0    0  0.00000000000E+00  0.00000000000E+00  0.74505805969E-08  0.10566000000E+00  0.10566000000E+00 0.  1.
     999900   -1    0    0    0    0 -0.00000000000E+00 -0.00000000000E+00 -0.74505805969E-08  0.93827000000E+00  0.93827000000E+00 0.  1.
     999902    2    1    2    0    0  0.15809122147E-01  0.48322598195E-02  0.15751762042E-01  0.10210958789E+01  0.10208405345E+01 0.  0.
     999903    2    3    3    0    0  0.54419566108E-01 -0.61349872906E-01  0.10327884448E+00  0.13344063546E+00  0.20361419270E-01 0.  0.
         14    1    1    2    0    0 -0.15809122147E-01 -0.48322598195E-02 -0.15751762042E-01  0.22834121079E-01  0.00000000000E+00 0.  1.
     999901    1    3    3    0    0 -0.38610443961E-01  0.66182132725E-01 -0.87527082441E-01  0.88765524346E+00  0.88000000000E+00 0. -1.
        -11    1    4    4    0    0  0.16688189752E-01 -0.14378630441E-01  0.42423044824E-01  0.47803938579E-01  0.51100000000E-03 0. -1.
         11    1    4    4    0    0  0.37731376356E-01 -0.46971242465E-01  0.60855799659E-01  0.85636696886E-01  0.51100000000E-03 0.  1.
</event>
<event>
 8    1  0.1061722E+005  0.1043930E+01  0.7957747E-01            NaN
         13   -1    0    0    0    0  0.00000000000E+00  0.00000000000E+00  0.74505805969E-08  0.10566000000E+00  0.10566000000E+00 0. -1.
     999900   -1    0    0    0    0 -0.00000000000E+00 -0.00000000000E+00 -0.74505805969E-08  0.93827000000E+00  0.93827000000E+00 0.  1.
     999902    2    1    2    0    0  0.83958650343E-02  0.21791831778E-01 -0.37787152657E-03  0.10205736889E+01  0.10203063938E+01 0.  0.
     999903    2    3    3    0    0 -0.54351261287E-01 -0.10142805358E+00 -0.52791136818E-01  0.12823547252E+00  0.20389277311E-01 0.  0.
         14    1    1    2    0    0 -0.83958650343E-02 -0.21791831778E-01  0.37787152657E-03  0.23356311113E-01  0.00000000000E+00 0. -1.
     999901    1    3    3    0    0  0.62747126322E-01  0.12321988536E+00  0.52413265291E-01  0.89233821637E+00  0.88000000000E+00 0. -1.
        -11    1    4    4    0    0 -0.22402045744E-01 -0.26841365545E-01 -0.22725152812E-01  0.41701369871E-01  0.51100000000E-03 0.  1.
         11    1    4    4    0    0 -0.31949215544E-01 -0.74586688036E-01 -0.30065984006E-01  0.86534102649E-01  0.51100000000E-03 0. -1.
</event>
<event>
 8    1  0.1061722E+005  0.1043930E+01  0.7957747E-01            NaN
         13   -1    0    0    0    0  0.00000000000E+00  0.00000000000E+00  0.74505805969E-08  0.10566000000E+00  0.10566000000E+00 0.  1.
     999900   -1    0    0    0    0 -0.00000000000E+00 -0.00000000000E+00 -0.74505805969E-08  0.93827000000E+00  0.93827000000E+00 0. -1.
     999902    2    1    2    0    0  0.77403868587E-02 -0.35487094396E-03 -0.22461797196E-01  0.10201692791E+01  0.10198925366E+01 0.  0.
     999903    2    3    3    0    0 -0.10070960534E+00 -0.62296654825E-01 -0.51420337490E-01  0.13087923509E+00  0.21494772879E-01 0.  0.
         14    1    1    2    0    0 -0.77403868587E-02  0.35487094396E-03  0.22461797196E-01  0.23760720852E-01  0.00000000000E+00 0.  1.
     999901    1    3    3    0    0  0.10844999220E+00  0.61941783881E-01  0.28958540294E-01  0.88929004405E+00  0.88000000000E+00 0. -1.
        -11    1    4    4    0    0 -0.60341716222E-01 -0.31445198434E-01 -0.19153962689E-01  0.70689876424E-01  0.51100000000E-03 0. -1.
         11    1    4    4    0    0 -0.40367889117E-01 -0.30851456392E-01 -0.32266374802E-01  0.60189358670E-01  0.51100000000E-03 0.  1.
</event>
<event>
 8    1  0.1061722E+005  0.1043930E+01  0.7957747E-01            NaN
         13   -1    0    0    0    0  0.00000000000E+00  0.00000000000E+00  0.74505805969E-08  0.10566000000E+00  0.10566000000E+00 0.  1.
     999900   -1    0    0    0    0 -0.00000000000E+00 -0.00000000000E+00 -0.74505805969E-08  0.93827000000E+00  0.93827000000E+00 0. -1.
     999902    2    1    2    0    0 -0.21353030276E-01 -0.97163028239E-02  0.38774005870E-02  0.10201520127E+01  0.10198748631E+01 0.  0.
     999903    2    3    3    0    0 -0.59649539857E-01  0.11406551172E-01 -0.11450668199E+00  0.13114830712E+00  0.19998030536E-01 0.  0.
         14    1    1    2    0    0  0.21353030276E-01  0.97163028239E-02 -0.38774005870E-02  0.23777987254E-01  0.00000000000E+00 0. -1.
     999901    1    3    3    0    0  0.38296509581E-01 -0.21122853996E-01  0.11838408258E+00  0.88900370562E+00  0.88000000000E+00 0.  1.
        -11    1    4    4    0    0 -0.12457357887E-01  0.11100309382E-01 -0.27703262358E-01  0.32344002538E-01  0.51100000000E-03 0. -1.
         11    1    4    4    0    0 -0.47192181970E-01  0.30624179003E-03 -0.86803419633E-01  0.98804304583E-01  0.51100000000E-03 0.  1.
</event>
<event>
 8    1  0.1061722E+005  0.1043930E+01  0.7957747E-01            NaN
         13   -1    0    0    0    0  0.00000000000E+00  0.00000000000E+00  0.74505805969E-08  0.10566000000E+00  0.10566000000E+00 0.  1.
     999900   -1    0    0    0    0 -0.00000000000E+00 -0.00000000000E+00 -0.74505805969E-08  0.93827000000E+00  0.93827000000E+00 0.  1.
     999902    2    1    2    0    0  0.17460893337E-01  0.14218192816E-01 -0.10623639167E-02  0.10213874088E+01  0.10211386147E+01 0.  0.
     999903    2    3    3    0    0  0.55257656978E-02  0.75924542624E-01 -0.10676306454E+00  0.13283647662E+00  0.21262815250E-01 0.  0.
         14    1    1    2    0    0 -0.17460893337E-01 -0.14218192816E-01  0.10623639167E-02  0.22542591248E-01  0.00000000000E+00 0. -1.
     999901    1    3    3    0    0  0.11935127639E-01 -0.61706349808E-01  0.10570070062E+00  0.88855093213E+00  0.88000000000E+00 0. -1.
        -11    1    4    4    0    0  0.69953384758E-03  0.40392862313E-01 -0.73757554799E-01  0.84098220459E-01  0.51100000000E-03 0. -1.
         11    1    4    4    0    0  0.48262318502E-02  0.35531680311E-01 -0.33005509739E-01  0.48738256162E-01  0.51100000000E-03 0.  1.
</event>
<event>
 8    1  0.1061722E+005  0.1043930E+01  0.7957747E-01            NaN
         13   -1    0    0    0    0  0.00000000000E+00  0.00000000000E+00  0.74505805969E-08  0.10566000000E+00  0.10566000000E+00 0. -1.
     999900   -1    0    0    0    0 -0.00000000000E+00 -0.00000000000E+00 -0.74505805969E-08  0.93827000000E+00  0.93827000000E+00 0. -1.
     999902    2    1    2    0    0 -0.13766828898E-01  0.18554393114E-01  0.66540402863E-02  0.10198869691E+01  0.10196035320E+01 0.  0.
     999903    2    3    3    0    0  0.71929119165E-01 -0.29986759372E-01 -0.99600973372E-01  0.12804047620E+00  0.20025127428E-01 0.  0.
         14    1    1    2    0    0  0.13766828898E-01 -0.18554393114E-01 -0.66540402863E-02  0.24043030880E-01  0.00000000000E+00 0. -1.
     999901    1    3    3    0    0 -0.85695948063E-01  0.48541152486E-01  0.10625501366E+00  0.89184649292E+00  0.88000000000E+00 0.  1.
        -11    1    4    4    0    0  0.45154736619E-01 -0.13516112422E-01 -0.45776433880E-01  0.65706761858E-01  0.51100000000E-03 0. -1.
         11    1    4    4    0    0  0.26774382546E-01 -0.16470646949E-01 -0.53824539492E-01  0.62333714346E-01  0.51100000000E-03 0.  1.
</event>
<event>
 8    1  0.1061722E+005  0.1043930E+01  0.7957747E-01            NaN
         13   -1    0    0    0    0  0.00000000000E+00  0.00000000000E+00  0.74505805969E-08  0.10566000000E+00  0.10566000000E+00 0. -1.
     999900   -1    0    0    0    0 -0.00000000000E+00 -0.00000000000E+00 -0.74505805969E-08  0.93827000000E+00  0.93827000000E+00 0. -1.
     999902    2    1    2    0    0  0.13733582662E-01  0.15788255395E-01 -0.92803673720E-02  0.10210388332E+01  0.10207821968E+01 0.  0.
     999903    2    3    3    0    0 -0.26261920691E-01 -0.11865675402E+00  0.37381677931E-01  0.12870904696E+00  0.19987875633E-01 0.  0.
         14    1    1    2    0    0 -0.13733582662E-01 -0.15788255395E-01  0.92803673720E-02  0.22891166849E-01  0.00000000000E+00 0. -1.
     999901    1    3    3    0    0  0.39995503353E-01  0.13444500942E+00 -0.46662045303E-01  0.89232978619E+00  0.88000000000E+00 0. -1.
        -11    1    4    4    0    0 -0.20654194305E-01 -0.11256681695E+00  0.37436973984E-01  0.12041458451E+00  0.51100000000E-03 0.  1.
         11    1    4    4    0    0 -0.56077263867E-02 -0.60899370727E-02 -0.55296053323E-04  0.82944624559E-02  0.51100000000E-03 0. -1.
</event>
<event>
 8    1  0.1061722E+005  0.1043930E+01  0.7957747E-01            NaN
         13   -1    0    0    0    0  0.00000000000E+00  0.00000000000E+00  0.74505805969E-08  0.10566000000E+00  0.10566000000E+00 0. -1.
     999900   -1    0    0    0    0 -0.00000000000E+00 -0.00000000000E+00 -0.74505805969E-08  0.93827000000E+00  0.93827000000E+00 0. -1.
     999902    2    1    2    0    0  0.35954609626E-02  0.23093410280E-01  0.69407879407E-03  0.10205480693E+01  0.10202801807E+01 0.  0.
     999903    2    3    3    0    0 -0.74760633419E-01  0.14956312346E-01  0.10457732977E+00  0.13094275248E+00  0.19918406970E-01 0.  0.
         14    1    1    2    0    0 -0.35954609626E-02 -0.23093410280E-01 -0.69407879407E-03  0.23381930700E-01  0.00000000000E+00 0. -1.
     999901    1    3    3    0    0  0.78356094382E-01  0.81370979344E-02 -0.10388325097E+00  0.88960531682E+00  0.88000000000E+00 0. -1.
        -11    1    4    4    0    0 -0.24037404745E-01  0.24391889736E-02  0.19276341066E-01  0.30912536545E-01  0.51100000000E-03 0. -1.
         11    1    4    4    0    0 -0.50723228674E-01  0.12517123372E-01  0.85300988701E-01  0.10003021593E+00  0.51100000000E-03 0.  1.
</event>
<event>
 8    1  0.1061722E+005  0.1043930E+01  0.7957747E-01            NaN
         13   -1    0    0    0    0  0.00000000000E+00  0.00000000000E+00  0.74505805969E-08  0.10566000000E+00  0.10566000000E+00 0.  1.
     999900   -1    0    0    0    0 -0.00000000000E+00 -0.00000000000E+00 -0.74505805969E-08  0.93827000000E+00  0.93827000000E+00 0.  1.
     999902    2    1    2    0    0  0.67625849434E-02 -0.12930860182E-01 -0.19389380073E-01  0.10196629903E+01  0.10193741835E+01 0.  0.
     999903    2    3    3    0    0  0.31369981337E-02 -0.13005894808E+00 -0.16364748296E-02  0.13171744045E+00  0.20533760849E-01 0.  0.
         14    1    1    2    0    0 -0.67625849434E-02  0.12930860182E-01  0.19389380073E-01  0.24267009700E-01  0.00000000000E+00 0.  1.
     999901    1    3    3    0    0  0.36255868097E-02  0.11712808790E+00 -0.17752905244E-01  0.88794554985E+00  0.88000000000E+00 0. -1.
        -11    1    4    4    0    0  0.10508646532E-01 -0.71293631357E-01 -0.60870855835E-02  0.72322384197E-01  0.51100000000E-03 0. -1.
         11    1    4    4    0    0 -0.73716483985E-02 -0.58765316727E-01  0.44506107539E-02  0.59395056252E-01  0.51100000000E-03 0.  1.
</event>
<event>
 8    1  0.1061722E+005  0.1043930E+01  0.7957747E-01            NaN
         13   -1    0    0    0    0  0.00000000000E+00  0.00000000000E+00  0.74505805969E-08  0.10566000000E+00  0.10566000000E+00 0. -1.
     999900   -1    0    0    0    0 -0.00000000000E+00 -0.00000000000E+00 -0.74505805969E-08  0.93827000000E+00  0.93827000000E+00 0. -1.
     999902    2    1    2    0    0 -0.24838071334E-01  0.25625021751E-02  0.11861378106E-03  0.10189598123E+01  0.10186538120E+01 0.  0.
     999903    2    3    3    0    0  0.10846066110E+00 -0.43405414575E-01  0.45183082945E-01  0.12659642901E+00  0.18368446675E-01 0.  0.
         14    1    1    2    0    0  0.24838071334E-01 -0.25625021751E-02 -0.11861378106E-03  0.24970187709E-01  0.00000000000E+00 0.  1.
     999901    1    3    3    0    0 -0.13329873243E+00  0.45967916750E-01 -0.45064469164E-01  0.89236338328E+00  0.88000000000E+00 0. -1.
        -11    1    4    4    0    0  0.19765115840E-01 -0.72985576447E-02  0.91648671439E-03  0.21095729823E-01  0.51100000000E-03 0. -1.
         11    1    4    4    0    0  0.88695545259E-01 -0.36106856930E-01  0.44266596231E-01  0.10550069919E+00  0.51100000000E-03 0.  1.
</event>
<event>
 8    1  0.1061722E+005  0.1043930E+01  0.7957747E-01            NaN
         13   -1    0    0    0    0  0.00000000000E+00  0.00000000000E+00  0.74505805969E-08  0.10566000000E+00  0.10566000000E+00 0.  1.
     999900   -1    0    0    0    0 -0.00000000000E+00 -0.00000000000E+00 -0.74505805969E-08  0.93827000000E+00  0.93827000000E+00 0.  1.
     999902    2    1    2    0    0 -0.18211255916E-02 -0.18786399258E-02  0.21084498650E-01  0.10226837799E+01  0.10224630613E+01 0.  0.
     999903    2    3    3    0    0 -0.70966646744E-01 -0.47990341634E-01 -0.96953608741E-01  0.13092126276E+00  0.20025907085E-01 0.  0.
         14    1    1    2    0    0  0.18211255916E-02  0.18786399258E-02 -0.21084498650E-01  0.21246220127E-01  0.00000000000E+00 0. -1.
     999901    1    3    3    0    0  0.69145521152E-01  0.46111701708E-01  0.11803810739E+00  0.89176251711E+00  0.88000000000E+00 0. -1.
        -11    1    4    4    0    0 -0.30792955677E-01 -0.27106178283E-01 -0.33491804142E-01  0.52961430174E-01  0.51100000000E-03 0. -1.
         11    1    4    4    0    0 -0.40173691067E-01 -0.20884163351E-01 -0.63461804600E-01  0.77959832586E-01  0.51100000000E-03 0.  1.
</event>
<event>
 8    1  0.1061722E+005  0.1043930E+01  0.7957747E-01            NaN
         13   -1    0    0    0    0  0.00000000000E+00  0.00000000000E+00  0.74505805969E-08  0.10566000000E+00  0.10566000000E+00 0. -1.
     999900   -1    0    0    0    0 -0.00000000000E+00 -0.00000000000E+00 -0.74505805969E-08  0.93827000000E+00  0.93827000000E+00 0.  1.
     999902    2    1    2    0    0  0.38497373668E-02 -0.21624878441E-01  0.88632373422E-02  0.10202442908E+01  0.10199693133E+01 0.  0.
     999903    2    3    3    0    0 -0.68809204976E-01 -0.60801344739E-01  0.93221396919E-01  0.13236455990E+00  0.19965912491E-01 0.  0.
         14    1    1    2    0    0 -0.38497373668E-02  0.21624878441E-01 -0.88632373422E-02  0.23685709226E-01  0.00000000000E+00 0.  1.
     999901    1    3    3    0    0  0.72658942343E-01  0.39176466299E-01 -0.84358159577E-01  0.88787973088E+00  0.88000000000E+00 0.  1.
        -11    1    4    4    0    0 -0.15876493771E-01 -0.11846852362E-01  0.32668541262E-01  0.38208712024E-01  0.51100000000E-03 0.  1.
         11    1    4    4    0    0 -0.52932711205E-01 -0.48954492378E-01  0.60552855658E-01  0.94155847873E-01  0.51100000000E-03 0. -1.
</event>
<event>
 8    1  0.1061722E+005  0.1043930E+01  0.7957747E-01            NaN
         13   -1    0    0    0    0  0.00000000000E+00  0.00000000000E+00  0.74505805969E-08  0.10566000000E+00  0.10566000000E+00 0.  1.
     999900   -1    0    0    0    0 -0.00000000000E+00 -0.00000000000E+00 -0.74505805969E-08  0.93827000000E+00  0.93827000000E+00 0. -1.
     999902    2    1    2    0    0  0.22989517933E-01 -0.32132160663E-02  0.58042211089E-02  0.10200023659E+01  0.10197216751E+01 0.  0.
     999903    2    3    3    0    0 -0.12041722804E+00  0.35949036398E-01 -0.63698837960E-02  0.12745131095E+00  0.20263741417E-01 0.  0.
         14    1    1    2    0    0 -0.22989517933E-01  0.32132160663E-02 -0.58042211089E-02  0.23927634128E-01  0.00000000000E+00 0. -1.
     999901    1    3    3    0    0  0.14340674598E+00 -0.39162252464E-01  0.12174104905E-01  0.89255105492E+00  0.88000000000E+00 0.  1.
        -11    1    4    4    0    0 -0.86122363609E-01  0.27559326538E-01 -0.13502023332E-01  0.91428353085E-01  0.51100000000E-03 0. -1.
         11    1    4    4    0    0 -0.34294864434E-01  0.83897098597E-02  0.71321395361E-02  0.36022957866E-01  0.51100000000E-03 0.  1.
</event>
<event>
 8    1  0.1061722E+005  0.1043930E+01  0.7957747E-01            NaN
         13   -1    0    0    0    0  0.00000000000E+00  0.00000000000E+00  0.74505805969E-08  0.10566000000E+00  0.10566000000E+00 0. -1.
     999900   -1    0    0    0    0 -0.00000000000E+00 -0.00000000000E+00 -0.74505805969E-08  0.93827000000E+00  0.93827000000E+00 0.  1.
     999902    2    1    2    0    0 -0.14968824585E-01 -0.16795536895E-01 -0.59321265667E-02  0.10206631589E+01  0.10203979312E+01 0.  0.
     999903    2    3    3    0    0  0.91171511123E-01  0.34769323925E-01  0.81415481383E-01  0.12850044373E+00  0.19045553355E-01 0.  0.
         14    1    1    2    0    0  0.14968824585E-01  0.16795536895E-01  0.59321265667E-02  0.23266841097E-01  0.00000000000E+00 0. -1.
     999901    1    3    3    0    0 -0.10614033571E+00 -0.51564860819E-01 -0.87347607949E-01  0.89216271518E+00  0.88000000000E+00 0.  1.
        -11    1    4    4    0    0  0.66275417329E-01  0.28304829703E-01  0.49145396813E-01  0.87230301362E-01  0.51100000000E-03 0.  1.
         11    1    4    4    0    0  0.24896093794E-01  0.64644942213E-02  0.32270084570E-01  0.41270142365E-01  0.51100000000E-03 0. -1.
</event>
<event>
 8    1  0.1061722E+005  0.1043930E+01  0.7957747E-01            NaN
         13   -1    0    0    0    0  0.00000000000E+00  0.00000000000E+00  0.74505805969E-08  0.10566000000E+00  0.10566000000E+00 0. -1.
     999900   -1    0    0    0    0 -0.00000000000E+00 -0.00000000000E+00 -0.74505805969E-08  0.93827000000E+00  0.93827000000E+00 0. -1.
     999902    2    1    2    0    0  0.50474747866E-02  0.77112269387E-02  0.21513172172E-01  0.10205257995E+01  0.10202573944E+01 0.  0.
     999903    2    3    3    0    0  0.57786711896E-01  0.11387092608E+00  0.27440946850E-01  0.13255820589E+00  0.22644657357E-01 0.  0.
         14    1    1    2    0    0 -0.50474747866E-02 -0.77112269387E-02 -0.21513172172E-01  0.23404200468E-01  0.00000000000E+00 0. -1.
     999901    1    3    3    0    0 -0.52739237109E-01 -0.10615969914E+00 -0.59277746780E-02  0.88796759365E+00  0.88000000000E+00 0.  1.
        -11    1    4    4    0    0  0.57094471532E-01  0.10678971790E+00  0.20911279764E-01  0.12288761236E+00  0.51100000000E-03 0.  1.
         11    1    4    4    0    0  0.69224036380E-03  0.70812081784E-02  0.65296670864E-02  0.96705935312E-02  0.51100000000E-03 0. -1.
</event>
<event>
 8    1  0.1061722E+005  0.1043930E+01  0.7957747E-01            NaN
         13   -1    0    0    0    0  0.00000000000E+00  0.00000000000E+00  0.74505805969E-08  0.10566000000E+00  0.10566000000E+00 0. -1.
     999900   -1    0    0    0    0 -0.00000000000E+00 -0.00000000000E+00 -0.74505805969E-08  0.93827000000E+00  0.93827000000E+00 0.  1.
     999902    2    1    2    0    0 -0.76685524392E-02  0.24267237250E-01  0.59186046811E-02  0.10178007945E+01  0.10174653418E+01 0.  0.
     999903    2    3    3    0    0 -0.89338073615E-01 -0.69773771105E-01  0.54996331394E-01  0.12767594637E+00  0.20661081380E-01 0.  0.
         14    1    1    2    0    0  0.76685524392E-02 -0.24267237250E-01 -0.59186046811E-02  0.26129205530E-01  0.00000000000E+00 0.  1.
     999901    1    3    3    0    0  0.81669521176E-01  0.94041008355E-01 -0.49077726713E-01  0.89012484810E+00  0.88000000000E+00 0.  1.
        -11    1    4    4    0    0 -0.24982325327E-01 -0.26296057985E-01  0.88684443848E-02  0.37343134190E-01  0.51100000000E-03 0.  1.
         11    1    4    4    0    0 -0.64355748289E-01 -0.43477713119E-01  0.46127887009E-01  0.90332812183E-01  0.51100000000E-03 0. -1.
</event>
<event>
 8    1  0.1061722E+005  0.1043930E+01  0.7957747E-01            NaN
         13   -1    0    0    0    0  0.00000000000E+00  0.00000000000E+00  0.74505805969E-08  0.10566000000E+00  0.10566000000E+00 0. -1.
     999900   -1    0    0    0    0 -0.00000000000E+00 -0.00000000000E+00 -0.74505805969E-08  0.93827000000E+00  0.93827000000E+00 0. -1.
     999902    2    1    2    0    0  0.88358567354E-02  0.19842105623E-01 -0.10507065519E-01  0.10198015946E+01  0.10195161168E+01 0.  0.
     999903    2    3    3    0    0 -0.41738631169E-01 -0.98834738623E-01  0.65613849536E-01  0.12714468075E+00  0.18712928746E-01 0.  0.
         14    1    1    2    0    0 -0.88358567354E-02 -0.19842105623E-01  0.10507065519E-01  0.24128405369E-01  0.00000000000E+00 0. -1.
     999901    1    3    3    0    0  0.50574487904E-01  0.11867684425E+00 -0.76120915054E-01  0.89265691388E+00  0.88000000000E+00 0. -1.
        -11    1    4    4    0    0 -0.26418907183E-01 -0.75199690445E-01  0.40505040339E-01  0.89408453256E-01  0.51100000000E-03 0.  1.
         11    1    4    4    0    0 -0.15319723986E-01 -0.23635048177E-01  0.25108809197E-01  0.37736227496E-01  0.51100000000E-03 0. -1.
</event>
<event>
 8    1  0.1061722E+005  0.1043930E+01  0.7957747E-01            NaN
         13   -1    0    0    0    0  0.00000000000E+00  0.00000000000E+00  0.74505805969E-08  0.10566000000E+00  0.10566000000E+00 0. -1.
     999900   -1    0    0    0    0 -0.00000000000E+00 -0.00000000000E+00 -0.74505805969E-08  0.93827000000E+00  0.93827000000E+00 0. -1.
     999902    2    1    2    0    0 -0.19117298884E-01 -0.14450913706E-01  0.33258001484E-02  0.10197357658E+01  0.10194487094E+01 0.  0.
     999903    2    3    3    0    0  0.11473024304E+00  0.20453490117E-01  0.48549178771E-01  0.12778361690E+00  0.19754899746E-01 0.  0.
         14    1    1    2    0    0  0.19117298884E-01  0.14450913706E-01 -0.33258001484E-02  0.24194234235E-01  0.00000000000E+00 0.  1.
     999901    1    3    3    0    0 -0.13384754192E+00 -0.34904403823E-01 -0.45223378622E-01  0.89195214886E+00  0.88000000000E+00 0. -1.
        -11    1    4    4    0    0  0.93915669680E-01  0.12885011963E-01  0.31721406425E-01  0.99963419766E-01  0.51100000000E-03 0.  1.
         11    1    4    4    0    0  0.20814573359E-01  0.75684781534E-02  0.16827772345E-01  0.27820197138E-01  0.51100000000E-03 0. -1.
</event>
<event>
 8    1  0.1061722E+005  0.1043930E+01  0.7957747E-01            NaN
         13   -1    0    0    0    0  0.00000000000E+00  0.00000000000E+00  0.74505805969E-08  0.10566000000E+00  0.10566000000E+00 0.  1.
     999900   -1    0    0    0    0 -0.00000000000E+00 -0.00000000000E+00 -0.74505805969E-08  0.93827000000E+00  0.93827000000E+00 0. -1.
     999902    2    1    2    0    0  0.86889078297E-02 -0.13006170343E-01  0.18135281623E-01  0.10199811790E+01  0.10196999851E+01 0.  0.
     999903    2    3    3    0    0  0.11295714818E+00  0.18963015609E-01 -0.57954219037E-01  0.12999044486E+00  0.20491729181E-01 0.  0.
         14    1    1    2    0    0 -0.86889078297E-02  0.13006170343E-01 -0.18135281623E-01  0.23948820969E-01  0.00000000000E+00 0.  1.
     999901    1    3    3    0    0 -0.10426824035E+00 -0.31969185952E-01  0.76089500660E-01  0.88999073417E+00  0.88000000000E+00 0.  1.
        -11    1    4    4    0    0  0.97929258132E-01  0.23068818953E-01 -0.52436949623E-01  0.11345573945E+00  0.51100000000E-03 0. -1.
         11    1    4    4    0    0  0.15027890049E-01 -0.41058033436E-02 -0.55172694137E-02  0.16534705416E-01  0.51100000000E-03 0.  1.
</event>
<event>
 8    1  0.1061722E+005  0.1043930E+01  0.7957747E-01            NaN
         13   -1    0    0    0    0  0.00000000000E+00  0.00000000000E+00  0.74505805969E-08  0.10566000000E+00  0.10566000000E+00 0. -1.
     999900   -1    0    0    0    0 -0.00000000000E+00 -0.00000000000E+00 -0.74505805969E-08  0.93827000000E+00  0.93827000000E+00 0.  1.
     999902    2    1    2    0    0  0.13854117588E-01 -0.21164920481E-02 -0.18162673689E-01  0.10209887963E+01  0.10207310240E+01 0.  0.
     999903    2    3    3    0    0  0.96437485231E-02  0.11400855870E+00 -0.62852045663E-01  0.13222567002E+00  0.21030806617E-01 0.  0.
         14    1    1    2    0    0 -0.13854117588E-01  0.21164920481E-02  0.18162673689E-01  0.22941203723E-01  0.00000000000E+00 0. -1.
     999901    1    3    3    0    0  0.42103690645E-02 -0.11612505075E+00  0.44689371974E-01  0.88876312625E+00  0.88000000000E+00 0. -1.
        -11    1    4    4    0    0  0.29417531134E-02  0.27072575705E-01 -0.52948701394E-02  0.27746622091E-01  0.51100000000E-03 0. -1.
         11    1    4    4    0    0  0.67019954097E-02  0.86935982995E-01 -0.57557175524E-01  0.10447904793E+00  0.51100000000E-03 0.  1.
</event>
<event>
 8    1  0.1061722E+005  0.1043930E+01  0.7957747E-01            NaN
         13   -1    0    0    0    0  0.00000000000E+00  0.00000000000E+00  0.74505805969E-08  0.10566000000E+00  0.10566000000E+00 0.  1.
     999900   -1    0    0    0    0 -0.00000000000E+00 -0.00000000000E+00 -0.74505805969E-08  0.93827000000E+00  0.93827000000E+00 0.  1.
     999902    2    1    2    0    0  0.15795123336E-01  0.57568451479E-02  0.18228139476E-01  0.10191329789E+01  0.10188312600E+01 0.  0.
     999903    2    3    3    0    0  0.52911811070E-01 -0.78114577843E-01  0.89310301754E-01  0.13151552869E+00  0.20456228022E-01 0.  0.
         14    1    1    2    0    0 -0.15795123336E-01 -0.57568451479E-02 -0.18228139476E-01  0.24797021112E-01  0.00000000000E+00 0. -1.
     999901    1    3    3    0    0 -0.37116687735E-01  0.83871422991E-01 -0.71082162277E-01  0.88761745020E+00  0.88000000000E+00 0.  1.
        -11    1    4    4    0    0  0.26404831406E-01 -0.23071638518E-01  0.38253552324E-01  0.51895192570E-01  0.51100000000E-03 0. -1.
         11    1    4    4    0    0  0.26506979664E-01 -0.55042939326E-01  0.51056749430E-01  0.79620336120E-01  0.51100000000E-03 0.  1.
</event>
<event>
 8    1  0.1061722E+005  0.1043930E+01  0.7957747E-01            NaN
         13   -1    0    0    0    0  0.00000000000E+00  0.00000000000E+00  0.74505805969E-08  0.10566000000E+00  0.10566000000E+00 0.  1.
     999900   -1    0    0    0    0 -0.00000000000E+00 -0.00000000000E+00 -0.74505805969E-08  0.93827000000E+00  0.93827000000E+00 0.  1.
     999902    2    1    2    0    0 -0.15969760811E-01 -0.79943581824E-02  0.10950008456E-01  0.10229813555E+01  0.10227668395E+01 0.  0.
     999903    2    3    3    0    0  0.10849821057E+00 -0.60084068237E-01 -0.37591220459E-01  0.13137501592E+00  0.21548503415E-01 0.  0.
         14    1    1    2    0    0  0.15969760811E-01  0.79943581824E-02 -0.10950008456E-01  0.20948644546E-01  0.00000000000E+00 0. -1.
     999901    1    3    3    0    0 -0.12446797138E+00  0.52089710055E-01  0.48541228914E-01  0.89160633953E+00  0.88000000000E+00 0. -1.
        -11    1    4    4    0    0  0.80695870412E-01 -0.39845743359E-01 -0.36043835201E-01  0.96948057961E-01  0.51100000000E-03 0. -1.
         11    1    4    4    0    0  0.27802340159E-01 -0.20238324878E-01 -0.15473852575E-02  0.34426957959E-01  0.51100000000E-03 0.  1.
</event>
<event>
 8    1  0.1061722E+005  0.1043930E+01  0.7957747E-01            NaN
         13   -1    0    0    0    0  0.00000000000E+00  0.00000000000E+00  0.74505805969E-08  0.10566000000E+00  0.10566000000E+00 0.  1.
     999900   -1    0    0    0    0 -0.00000000000E+00 -0.00000000000E+00 -0.74505805969E-08  0.93827000000E+00  0.93827000000E+00 0.  1.
     999902    2    1    2    0    0  0.17163152173E-01 -0.77797631934E-02  0.69128754426E-02  0.10238579708E+01  0.10236612028E+01 0.  0.
     999903    2    3    3    0    0  0.46206860053E-01  0.51712324246E-01  0.11408844172E+00  0.13488696600E+00  0.19211524309E-01 0.  0.
         14    1    1    2    0    0 -0.17163152173E-01  0.77797631934E-02 -0.69128754426E-02  0.20072029164E-01  0.00000000000E+00 0.  1.
     999901    1    3    3    0    0 -0.29043707880E-01 -0.59492087439E-01 -0.10717556628E+00  0.88897100484E+00  0.88000000000E+00 0.  1.
        -11    1    4    4    0    0  0.23736542738E-01  0.30366741713E-01  0.80065700228E-01  0.88861352327E-01  0.51100000000E-03 0.  1.
         11    1    4    4    0    0  0.22470317314E-01  0.21345582532E-01  0.34022741497E-01  0.46025613671E-01  0.51100000000E-03 0. -1.
</event>
<event>
 8    1  0.1061722E+005  0.1043930E+01  0.7957747E-01            NaN
         13   -1    0    0    0    0  0.00000000000E+00  0.00000000000E+00  0.74505805969E-08  0.10566000000E+00  0.10566000000E+00 0. -1.
     999900   -1    0    0    0    0 -0.00000000000E+00 -0.00000000000E+00 -0.74505805969E-08  0.93827000000E+00  0.93827000000E+00 0. -1.
     999902    2    1    2    0    0  0.31713844515E-02 -0.75038192393E-03 -0.22352545305E-01  0.10213411303E+01  0.10210913022E+01 0.  0.
     999903    2    3    3    0    0 -0.79202656089E-01  0.47747805378E-01 -0.93338350402E-01  0.13332280772E+00  0.22583395504E-01 0.  0.
         14    1    1    2    0    0 -0.31713844515E-02  0.75038192393E-03  0.22352545305E-01  0.22588869692E-01  0.00000000000E+00 0. -1.
     999901    1    3    3    0    0  0.82374040541E-01 -0.48498187302E-01  0.70985805097E-01  0.88801832259E+00  0.88000000000E+00 0.  1.
        -11    1    4    4    0    0 -0.76542009682E-01  0.40122474991E-01 -0.89329083837E-01  0.12429174786E+00  0.51100000000E-03 0. -1.
         11    1    4    4    0    0 -0.26606464069E-02  0.76253303879E-02 -0.40092665645E-02  0.90310598610E-02  0.51100000000E-03 0.  1.
</event>
<event>
 8    1  0.1061722E+005  0.1043930E+01  0.7957747E-01            NaN
         13   -1    0    0    0    0  0.00000000000E+00  0.00000000000E+00  0.74505805969E-08  0.10566000000E+00  0.10566000000E+00 0. -1.
     999900   -1    0    0    0    0 -0.00000000000E+00 -0.00000000000E+00 -0.74505805969E-08  0.93827000000E+00  0.93827000000E+00 0.  1.
     999902    2    1    2    0    0  0.78547399144E-02  0.22336408665E-01  0.13017800725E-02  0.10202169925E+01  0.10199413734E+01 0.  0.
     999903    2    3    3    0    0 -0.38979062347E-01 -0.41635293241E-01 -0.11420432793E+00  0.12913481639E+00  0.19501470253E-01 0.  0.
         14    1    1    2    0    0 -0.78547399144E-02 -0.22336408665E-01 -0.13017800725E-02  0.23713007454E-01  0.00000000000E+00 0.  1.
     999901    1    3    3    0    0  0.46833802261E-01  0.63971701906E-01  0.11550610800E+00  0.89108217616E+00  0.88000000000E+00 0. -1.
        -11    1    4    4    0    0 -0.32086847236E-01 -0.20805045896E-01 -0.69239566387E-01  0.79099901231E-01  0.51100000000E-03 0. -1.
         11    1    4    4    0    0 -0.68922151111E-02 -0.20830247345E-01 -0.44964761539E-01  0.50034915158E-01  0.51100000000E-03 0.  1.
</event>
<event>
 8    1  0.1061722E+005  0.1043930E+01  0.7957747E-01            NaN
         13   -1    0    0    0    0  0.00000000000E+00  0.00000000000E+00  0.74505805969E-08  0.10566000000E+00  0.10566000000E+00 0. -1.
     999900   -1    0    0    0    0 -0.00000000000E+00 -0.00000000000E+00 -0.74505805969E-08  0.93827000000E+00  0.93827000000E+00 0. -1.
     999902    2    1    2    0    0 -0.34582219493E-02 -0.13314384369E-01  0.20100543850E-01  0.10195729888E+01  0.10192820098E+01 0.  0.
     999903    2    3    3    0    0  0.11222185859E-01  0.10314557938E+00  0.75715154624E-01  0.13003860362E+00  0.20305314343E-01 0.  0.
         14    1    1    2    0    0  0.34582219493E-02  0.13314384369E-01 -0.20100543850E-01  0.24357011173E-01  0.00000000000E+00 0.  1.
     999901    1    3    3    0    0 -0.14680407808E-01 -0.11645996375E+00 -0.55614610774E-01  0.88953438521E+00  0.88000000000E+00 0.  1.
        -11    1    4    4    0    0  0.15901269631E-01  0.76784825822E-01  0.61925203786E-01  0.99918726160E-01  0.51100000000E-03 0. -1.
         11    1    4    4    0    0 -0.46790837723E-02  0.26360753561E-01  0.13789950838E-01  0.30119877463E-01  0.51100000000E-03 0.  1.
</event>
<event>
 8    1  0.1061722E+005  0.1043930E+01  0.7957747E-01            NaN
         13   -1    0    0    0    0  0.00000000000E+00  0.00000000000E+00  0.74505805969E-08  0.10566000000E+00  0.10566000000E+00 0.  1.
     999900   -1    0    0    0    0 -0.00000000000E+00 -0.00000000000E+00 -0.74505805969E-08  0.93827000000E+00  0.93827000000E+00 0. -1.
     999902    2    1    2    0    0  0.17256250268E-01  0.46861517072E-02 -0.16935417513E-01  0.10193018341E+01  0.10190042602E+01 0.  0.
     999903    2    3    3    0    0  0.89814881437E-01  0.73414498331E-01  0.56654495510E-01  0.13059276137E+00  0.19706241854E-01 0.  0.
         14    1    1    2    0    0 -0.17256250268E-01 -0.46861517072E-02  0.16935417513E-01  0.24628165938E-01  0.00000000000E+00 0.  1.
     999901    1    3    3    0    0 -0.72558631169E-01 -0.68728346624E-01 -0.73589913023E-01  0.88870907269E+00  0.88000000000E+00 0. -1.
        -11    1    4    4    0    0  0.61355435075E-01  0.52814089058E-01  0.29419904542E-01  0.86137154124E-01  0.51100000000E-03 0. -1.
         11    1    4    4    0    0  0.28459446361E-01  0.20600409273E-01  0.27234590967E-01  0.44455607246E-01  0.51100000000E-03 0.  1.
</event>
<event>
 8    1  0.1061722E+005  0.1043930E+01  0.7957747E-01            NaN
         13   -1    0    0    0    0  0.00000000000E+00  0.00000000000E+00  0.74505805969E-08  0.10566000000E+00  0.10566000000E+00 0. -1.
     999900   -1    0    0    0    0 -0.00000000000E+00 -0.00000000000E+00 -0.74505805969E-08  0.93827000000E+00  0.93827000000E+00 0.  1.
     999902    2    1    2    0    0  0.13940863810E-01  0.20758506100E-01 -0.39713089427E-02  0.10186113398E+01  0.10182966302E+01 0.  0.
     999903    2    3    3    0    0 -0.35911886440E-01 -0.11149373636E+00  0.42122374998E-01  0.12614252800E+00  0.20423664201E-01 0.  0.
         14    1    1    2    0    0 -0.13940863810E-01 -0.20758506100E-01  0.39713089427E-02  0.25318660193E-01  0.00000000000E+00 0.  1.
     999901    1    3    3    0    0  0.49852750250E-01  0.13225224246E+00 -0.46093683941E-01  0.89246881180E+00  0.88000000000E+00 0.  1.
        -11    1    4    4    0    0 -0.24771236078E-01 -0.72747495776E-01  0.17231984691E-01  0.78759219752E-01  0.51100000000E-03 0.  1.
         11    1    4    4    0    0 -0.11140650362E-01 -0.38746240587E-01  0.24890390307E-01  0.47383308250E-01  0.51100000000E-03 0. -1.
</event>
<event>
 8    1  0.1061722E+005  0.1043930E+01  0.7957747E-01            NaN
         13   -1    0    0    0    0  0.00000000000E+00  0.00000000000E+00  0.74505805969E-08  0.10566000000E+00  0.10566000000E+00 0. -1.
     999900   -1    0    0    0    0 -0.00000000000E+00 -0.00000000000E+00 -0.74505805969E-08  0.93827000000E+00  0.93827000000E+00 0. -1.
     999902    2    1    2    0    0  0.17668880160E-01 -0.99656952302E-02  0.11130603697E-01  0.10207914014E+01  0.10205291228E+01 0.  0.
     999903    2    3    3    0    0 -0.12133038567E+00 -0.39236956622E-01  0.73839239445E-03  0.12934000018E+00  0.21626122451E-01 0.  0.
         14    1    1    2    0    0 -0.17668880160E-01  0.99656952302E-02 -0.11130603697E-01  0.23138598622E-01  0.00000000000E+00 0.  1.
     999901    1    3    3    0    0  0.13899926583E+00  0.29271261392E-01  0.10392211302E-01  0.89145140120E+00  0.88000000000E+00 0. -1.
        -11    1    4    4    0    0 -0.68422366642E-01 -0.22756760089E-01 -0.10277667232E-01  0.72838052908E-01  0.51100000000E-03 0.  1.
         11    1    4    4    0    0 -0.52908019024E-01 -0.16480196533E-01  0.11016059627E-01  0.56501947271E-01  0.51100000000E-03 0. -1.
</event>
<event>
 8    1  0.1061722E+005  0.1043930E+01  0.7957747E-01            NaN
         13   -1    0    0    0    0  0.00000000000E+00  0.00000000000E+00  0.74505805969E-08  0.10566000000E+00  0.10566000000E+00 0.  1.
     999900   -1    0    0    0    0 -0.00000000000E+00 -0.00000000000E+00 -0.74505805969E-08  0.93827000000E+00  0.93827000000E+00 0.  1.
     999902    2    1    2    0    0 -0.20511534943E-01  0.12007698680E-01 -0.22255971148E-02  0.10200582348E+01  0.10197788687E+01 0.  0.
     999903    2    3    3    0    0 -0.99613144480E-01 -0.69857198875E-01 -0.45358355432E-01  0.13167804535E+00  0.21884250796E-01 0.  0.
         14    1    1    2    0    0  0.20511534943E-01 -0.12007698680E-01  0.22255971148E-02  0.23871765244E-01  0.00000000000E+00 0.  1.
     999901    1    3    3    0    0  0.79101609537E-01  0.81864897555E-01  0.43132758317E-01  0.88838018940E+00  0.88000000000E+00 0. -1.
        -11    1    4    4    0    0 -0.58014784630E-01 -0.49383420481E-01 -0.19737659127E-01  0.78703708699E-01  0.51100000000E-03 0.  1.
         11    1    4    4    0    0 -0.41598359850E-01 -0.20473778393E-01 -0.25620696305E-01  0.52974336655E-01  0.51100000000E-03 0. -1.
</event>
<event>
 8    1  0.1061722E+005  0.1043930E+01  0.7957747E-01            NaN
         13   -1    0    0    0    0  0.00000000000E+00  0.00000000000E+00  0.74505805969E-08  0.10566000000E+00  0.10566000000E+00 0. -1.
     999900   -1    0    0    0    0 -0.00000000000E+00 -0.00000000000E+00 -0.74505805969E-08  0.93827000000E+00  0.93827000000E+00 0.  1.
     999902    2    1    2    0    0  0.23864791749E-01  0.40971584917E-02  0.89914519632E-02  0.10181005362E+01  0.10177728335E+01 0.  0.
     999903    2    3    3    0    0 -0.69232634663E-01  0.10061540516E+00 -0.29398225785E-01  0.12711418942E+00  0.19420196099E-01 0.  0.
         14    1    1    2    0    0 -0.23864791749E-01 -0.40971584917E-02 -0.89914519632E-02  0.25829463822E-01  0.00000000000E+00 0.  1.
     999901    1    3    3    0    0  0.93097426412E-01 -0.96518246665E-01  0.38389677748E-01  0.89098634675E+00  0.88000000000E+00 0. -1.
        -11    1    4    4    0    0 -0.17688928750E-01  0.41976467602E-01 -0.12391309456E-01  0.47209402705E-01  0.51100000000E-03 0. -1.
         11    1    4    4    0    0 -0.51543705913E-01  0.58638937554E-01 -0.17006916329E-01  0.79904786720E-01  0.51100000000E-03 0.  1.
</event>
<event>
 8    1  0.1061722E+005  0.1043930E+01  0.7957747E-01            NaN
         13   -1    0    0    0    0  0.00000000000E+00  0.00000000000E+00  0.74505805969E-08  0.10566000000E+00  0.10566000000E+00 0.  1.
     999900   -1    0    0    0    0 -0.00000000000E+00 -0.00000000000E+00 -0.74505805969E-08  0.93827000000E+00  0.93827000000E+00 0.  1.
     999902    2    1    2    0    0 -0.21838300263E-01 -0.60967316455E-02  0.39437713039E-02  0.10209162035E+01  0.10206567787E+01 0.  0.
     999903    2    3    3    0    0  0.14946891874E-01 -0.10652280138E+00  0.72898462030E-01  0.13176306982E+00  0.21835842381E-01 0.  0.
         14    1    1    2    0    0  0.21838300263E-01  0.60967316455E-02 -0.39437713039E-02  0.23013796454E-01  0.00000000000E+00 0.  1.
     999901    1    3    3    0    0 -0.36785192137E-01  0.10042606973E+00 -0.68954690726E-01  0.88915313373E+00  0.88000000000E+00 0.  1.
        -11    1    4    4    0    0 -0.45323600726E-02 -0.34546407632E-01  0.28177477754E-01  0.44813256316E-01  0.51100000000E-03 0. -1.
         11    1    4    4    0    0  0.19479251947E-01 -0.71976393744E-01  0.44720984277E-01  0.86949813504E-01  0.51100000000E-03 0.  1.
</event>
<event>
 8    1  0.1061722E+005  0.1043930E+01  0.7957747E-01            NaN
         13   -1    0    0    0    0  0.00000000000E+00  0.00000000000E+00  0.74505805969E-08  0.10566000000E+00  0.10566000000E+00 0.  1.
     999900   -1    0    0    0    0 -0.00000000000E+00 -0.00000000000E+00 -0.74505805969E-08  0.93827000000E+00  0.93827000000E+00 0. -1.
     999902    2    1    2    0    0 -0.17367544184E-01 -0.17883130983E-01  0.11500156954E-02  0.10189748302E+01  0.10186692025E+01 0.  0.
     999903    2    3    3    0    0 -0.23055069501E-01 -0.12334274861E+00 -0.34719108193E-01  0.13193442921E+00  0.21361350006E-01 0.  0.
         14    1    1    2    0    0  0.17367544184E-01  0.17883130983E-01 -0.11500156954E-02  0.24955169822E-01  0.00000000000E+00 0. -1.
     999901    1    3    3    0    0  0.56875253174E-02  0.10545961763E+00  0.35869123888E-01  0.88704040096E+00  0.88000000000E+00 0. -1.
        -11    1    4    4    0    0 -0.98557325661E-02 -0.94591962520E-01 -0.20722673866E-01  0.97336864399E-01  0.51100000000E-03 0. -1.
         11    1    4    4    0    0 -0.13199336935E-01 -0.28750786089E-01 -0.13996434327E-01  0.34597564815E-01  0.51100000000E-03 0.  1.
</event>
<event>
 8    1  0.1061722E+005  0.1043930E+01  0.7957747E-01            NaN
         13   -1    0    0    0    0  0.00000000000E+00  0.00000000000E+00  0.74505805969E-08  0.10566000000E+00  0.10566000000E+00 0. -1.
     999900   -1    0    0    0    0 -0.00000000000E+00 -0.00000000000E+00 -0.74505805969E-08  0.93827000000E+00  0.93827000000E+00 0.  1.
     999902    2    1    2    0    0  0.11227540919E-01  0.13809726565E-01  0.16549617910E-01  0.10196265830E+01  0.10193368986E+01 0.  0.
     999903    2    3    3    0    0 -0.80681877922E-01  0.42488157772E-01 -0.87742419473E-01  0.12825313563E+00  0.20864458977E-01 0.  0.
         14    1    1    2    0    0 -0.11227540919E-01 -0.13809726565E-01 -0.16549617910E-01  0.24303416958E-01  0.00000000000E+00 0.  1.
     999901    1    3    3    0    0  0.91909418840E-01 -0.28678431208E-01  0.10429203738E+00  0.89137344741E+00  0.88000000000E+00 0.  1.
        -11    1    4    4    0    0 -0.67903802707E-01  0.42349362875E-01 -0.69626760986E-01  0.10607799925E+00  0.51100000000E-03 0.  1.
         11    1    4    4    0    0 -0.12778075214E-01  0.13879489748E-03 -0.18115658486E-01  0.22175136383E-01  0.51100000000E-03 0. -1.
</event>
<event>
 8    1  0.1061722E+005  0.1043930E+01  0.7957747E-01            NaN
         13   -1    0    0    0    0  0.00000000000E+00  0.00000000000E+00  0.74505805969E-08  0.10566000000E+00  0.10566000000E+00 0. -1.
     999900   -1    0    0    0    0 -0.00000000000E+00 -0.00000000000E+00 -0.74505805969E-08  0.93827000000E+00  0.93827000000E+00 0.  1.
     999902    2    1    2    0    0 -0.10004254744E-01  0.66953723752E-02 -0.20051842533E-01  0.10205421931E+01  0.10202741682E+01 0.  0.
     999903    2    3    3    0    0  0.11820153421E+00  0.24796140131E-01  0.40977467714E-01  0.12897675025E+00  0.19219729145E-01 0.  0.
         14    1    1    2    0    0  0.10004254744E-01 -0.66953723752E-02  0.20051842533E-01  0.23387806934E-01  0.00000000000E+00 0. -1.
     999901    1    3    3    0    0 -0.12820578896E+00 -0.18100767756E-01 -0.61029310248E-01  0.89156544282E+00  0.88000000000E+00 0.  1.
        -11    1    4    4    0    0  0.67951847829E-01  0.98806810750E-02  0.32140794614E-01  0.75818027416E-01  0.51100000000E-03 0.  1.
         11    1    4    4    0    0  0.50249686386E-01  0.14915459056E-01  0.88366731002E-02  0.53158722832E-01  0.51100000000E-03 0. -1.
</event>
<event>
 8    1  0.1061722E+005  0.1043930E+01  0.7957747E-01            NaN
         13   -1    0    0    0    0  0.00000000000E+00  0.00000000000E+00  0.74505805969E-08  0.10566000000E+00  0.10566000000E+00 0. -1.
     999900   -1    0    0    0    0 -0.00000000000E+00 -0.00000000000E+00 -0.74505805969E-08  0.93827000000E+00  0.93827000000E+00 0.  1.
     999902    2    1    2    0    0 -0.13858418180E-02  0.72855578873E-02 -0.21784446845E-01  0.10209177851E+01  0.10206583963E+01 0.  0.
     999903    2    3    3    0    0 -0.31981903115E-01  0.52441483841E-01  0.11190626312E+00  0.12915078493E+00  0.19594952667E-01 0.  0.
         14    1    1    2    0    0  0.13858418180E-02 -0.72855578873E-02  0.21784446845E-01  0.23012214922E-01  0.00000000000E+00 0. -1.
     999901    1    3    3    0    0  0.30596061297E-01 -0.45155925954E-01 -0.13369070996E+00  0.89176700014E+00  0.88000000000E+00 0.  1.
        -11    1    4    4    0    0 -0.86239977133E-02  0.18435259569E-01  0.56600735245E-01  0.60150947484E-01  0.51100000000E-03 0.  1.
         11    1    4    4    0    0 -0.23357905402E-01  0.34006224272E-01  0.55305527873E-01  0.68999837451E-01  0.51100000000E-03 0. -1.
</event>
<event>
 8    1  0.1061722E+005  0.1043930E+01  0.7957747E-01            NaN
         13   -1    0    0    0    0  0.00000000000E+00  0.00000000000E+00  0.74505805969E-08  0.10566000000E+00  0.10566000000E+00 0. -1.
     999900   -1    0    0    0    0 -0.00000000000E+00 -0.00000000000E+00 -0.74505805969E-08  0.93827000000E+00  0.93827000000E+00 0.  1.
     999902    2    1    2    0    0  0.15400064749E-01 -0.13386662807E-01  0.10142865998E-01  0.10211431076E+01  0.10208888302E+01 0.  0.
     999903    2    3    3    0    0 -0.78902337905E-02 -0.10953476306E+00 -0.70367541304E-01  0.13194750431E+00  0.19960784481E-01 0.  0.
         14    1    1    2    0    0 -0.15400064749E-01  0.13386662807E-01 -0.10142865998E-01  0.22786892417E-01  0.00000000000E+00 0.  1.
     999901    1    3    3    0    0  0.23290298539E-01  0.96148100256E-01  0.80510407303E-01  0.88919560327E+00  0.88000000000E+00 0.  1.
        -11    1    4    4    0    0 -0.58271781367E-02 -0.33140890061E-01 -0.11796123656E-01  0.35660682178E-01  0.51100000000E-03 0. -1.
         11    1    4    4    0    0 -0.20630556538E-02 -0.76393873001E-01 -0.58571417648E-01  0.96286822136E-01  0.51100000000E-03 0.  1.
</event>
<event>
 8    1  0.1061722E+005  0.1043930E+01  0.7957747E-01            NaN
         13   -1    0    0    0    0  0.00000000000E+00  0.00000000000E+00  0.74505805969E-08  0.10566000000E+00  0.10566000000E+00 0.  1.
     999900   -1    0    0    0    0 -0.00000000000E+00 -0.00000000000E+00 -0.74505805969E-08  0.93827000000E+00  0.93827000000E+00 0.  1.
     999902    2    1    2    0    0  0.15704253005E-01 -0.20174495651E-02 -0.17654574768E-01  0.10202154965E+01  0.10199398422E+01 0.  0.
     999903    2    3    3    0    0 -0.53007194156E-01 -0.11249012652E+00  0.31047789249E-01  0.12931853526E+00  0.17190902986E-01 0.  0.
         14    1    1    2    0    0 -0.15704253005E-01  0.20174495651E-02  0.17654574768E-01  0.23714503482E-01  0.00000000000E+00 0.  1.
     999901    1    3    3    0    0  0.68711447160E-01  0.11047267696E+00 -0.48702364017E-01  0.89089696126E+00  0.88000000000E+00 0. -1.
        -11    1    4    4    0    0 -0.21570785284E-01 -0.28563704654E-01  0.11390741662E-01  0.37565863732E-01  0.51100000000E-03 0.  1.
         11    1    4    4    0    0 -0.31436408872E-01 -0.83926421871E-01  0.19657047587E-01  0.91752671524E-01  0.51100000000E-03 0. -1.
</event>
<event>
 8    1  0.1061722E+005  0.1043930E+01  0.7957747E-01            NaN
         13   -1    0    0    0    0  0.00000000000E+00  0.00000000000E+00  0.74505805969E-08  0.10566000000E+00  0.10566000000E+00 0.  1.
     999900   -1    0    0    0    0 -0.00000000000E+00 -0.00000000000E+00 -0.74505805969E-08  0.93827000000E+00  0.93827000000E+00 0. -1.
     999902    2    1    2    0    0  0.14350597236E-01 -0.88050946443E-02  0.16939891019E-01  0.10200463395E+01  0.10197666917E+01 0.  0.
     999903    2    3    3    0    0  0.51066034001E-01 -0.10989343456E+00  0.51258696401E-01  0.13283460816E+00  0.18255749234E-01 0.  0.
         14    1    1    2    0    0 -0.14350597236E-01  0.88050946443E-02 -0.16939891019E-01  0.23883660533E-01  0.00000000000E+00 0.  1.
     999901    1    3    3    0    0 -0.36715436765E-01  0.10108833992E+00 -0.34318805382E-01  0.88721173131E+00  0.88000000000E+00 0. -1.
        -11    1    4    4    0    0  0.34673889945E-01 -0.89649239239E-01  0.36007291798E-01  0.10264526742E+00  0.51100000000E-03 0. -1.
         11    1    4    4    0    0  0.16392144055E-01 -0.20244195323E-01  0.15251404603E-01  0.30189340741E-01  0.51100000000E-03 0.  1.
</event>
<event>
 8    1  0.1061722E+005  0.1043930E+01  0.7957747E-01            NaN
         13   -1    0    0    0    0  0.00000000000E+00  0.00000000000E+00  0.74505805969E-08  0.10566000000E+00  0.10566000000E+00 0.  1.
     999900   -1    0    0    0    0 -0.00000000000E+00 -0.00000000000E+00 -0.74505805969E-08  0.93827000000E+00  0.93827000000E+00 0.  1.
     999902    2    1    2    0    0  0.10798222240E-01 -0.39621106616E-02 -0.21109572479E-01  0.10198901586E+01  0.10196067976E+01 0.  0.
     999903    2    3    3    0    0  0.11389900096E+00 -0.34664861521E-01 -0.54983510640E-01  0.13269239419E+00  0.20234870653E-01 0.  0.
         14    1    1    2    0    0 -0.10798222240E-01  0.39621106616E-02  0.21109572479E-01  0.24039841403E-01  0.00000000000E+00 0.  1.
     999901    1    3    3    0    0 -0.10310077872E+00  0.30702750860E-01  0.33873938161E-01  0.88719776441E+00  0.88000000000E+00 0.  1.
        -11    1    4    4    0    0  0.41760539999E-01 -0.10906227330E-01 -0.96151454338E-02  0.44222173604E-01  0.51100000000E-03 0.  1.
         11    1    4    4    0    0  0.72138460957E-01 -0.23758634192E-01 -0.45368365206E-01  0.88470220585E-01  0.51100000000E-03 0. -1.
</event>
<event>
 8    1  0.1061722E+005  0.1043930E+01  0.7957747E-01            NaN
         13   -1    0    0    0    0  0.00000000000E+00  0.00000000000E+00  0.74505805969E-08  0.10566000000E+00  0.10566000000E+00 0. -1.
     999900   -1    0    0    0    0 -0.00000000000E+00 -0.00000000000E+00 -0.74505805969E-08  0.93827000000E+00  0.93827000000E+00 0.  1.
     999902    2    1    2    0    0 -0.15410688565E-01 -0.17704837422E-01 -0.46573717299E-02  0.10200000668E+01  0.10197193215E+01 0.  0.
     999903    2    3    3    0    0  0.96733747402E-01 -0.15322633897E-01 -0.82112575761E-01  0.12950505952E+00  0.20901778557E-01 0.  0.
         14    1    1    2    0    0  0.15410688565E-01  0.17704837422E-01  0.46573717299E-02  0.23929933172E-01  0.00000000000E+00 0.  1.
     999901    1    3    3    0    0 -0.11214443597E+00 -0.23822035259E-02  0.77455204031E-01  0.89049500731E+00  0.88000000000E+00 0. -1.
        -11    1    4    4    0    0  0.79694572322E-01 -0.18899179371E-01 -0.60947650325E-01  0.10209447115E+00  0.51100000000E-03 0.  1.
         11    1    4    4    0    0  0.17039175079E-01  0.35765454742E-02 -0.21164925436E-01  0.27410588367E-01  0.51100000000E-03 0. -1.
</event>
<event>
 8    1  0.1061722E+005  0.1043930E+01  0.7957747E-01            NaN
         13   -1    0    0    0    0  0.00000000000E+00  0.00000000000E+00  0.74505805969E-08  0.10566000000E+00  0.10566000000E+00 0.  1.
     999900   -1    0    0    0    0 -0.00000000000E+00 -0.00000000000E+00 -0.74505805969E-08  0.93827000000E+00  0.93827000000E+00 0. -1.
     999902    2    1    2    0    0 -0.11738787413E-01  0.16250439834E-01 -0.14155313884E-01  0.10193892413E+01  0.10190938016E+01 0.  0.
     999903    2    3    3    0    0 -0.25801029347E-01  0.97677387876E-01 -0.83812856608E-01  0.13277756322E+00  0.19968002985E-01 0.  0.
         14    1    1    2    0    0  0.11738787413E-01 -0.16250439834E-01  0.14155313884E-01  0.24540758666E-01  0.00000000000E+00 0.  1.
     999901    1    3    3    0    0  0.14062241934E-01 -0.81426948042E-01  0.69657542724E-01  0.88661167812E+00  0.88000000000E+00 0.  1.
        -11    1    4    4    0    0 -0.52427072071E-02  0.34864366709E-01 -0.40776899388E-01  0.53907575438E-01  0.51100000000E-03 0. -1.
         11    1    4    4    0    0 -0.20558322140E-01  0.62813021167E-01 -0.43035957220E-01  0.78869987779E-01  0.51100000000E-03 0.  1.
</event>
<event>
 8    1  0.1061722E+005  0.1043930E+01  0.7957747E-01            NaN
         13   -1    0    0    0    0  0.00000000000E+00  0.00000000000E+00  0.74505805969E-08  0.10566000000E+00  0.10566000000E+00 0.  1.
     999900   -1    0    0    0    0 -0.00000000000E+00 -0.00000000000E+00 -0.74505805969E-08  0.93827000000E+00  0.93827000000E+00 0. -1.
     999902    2    1    2    0    0 -0.37091190425E-02 -0.17839024577E-01  0.17784645632E-01  0.10184686178E+01  0.10181503050E+01 0.  0.
     999903    2    3    3    0    0 -0.70293442250E-01  0.10416910032E+00 -0.23245374927E-02  0.12733235783E+00  0.20390105242E-01 0.  0.
         14    1    1    2    0    0  0.37091190425E-02  0.17839024577E-01 -0.17784645632E-01  0.25461382173E-01  0.00000000000E+00 0. -1.
     999901    1    3    3    0    0  0.66584323208E-01 -0.12200812489E+00  0.20109183124E-01  0.89113626000E+00  0.88000000000E+00 0.  1.
        -11    1    4    4    0    0 -0.10202181940E-01  0.30924299073E-01 -0.32260680402E-03  0.32569341191E-01  0.51100000000E-03 0.  1.
         11    1    4    4    0    0 -0.60091260311E-01  0.73244801242E-01 -0.20019306887E-02  0.94763016637E-01  0.51100000000E-03 0. -1.
</event>
<event>
 8    1  0.1061722E+005  0.1043930E+01  0.7957747E-01            NaN
         13   -1    0    0    0    0  0.00000000000E+00  0.00000000000E+00  0.74505805969E-08  0.10566000000E+00  0.10566000000E+00 0. -1.
     999900   -1    0    0    0    0 -0.00000000000E+00 -0.00000000000E+00 -0.74505805969E-08  0.93827000000E+00  0.93827000000E+00 0.  1.
     999902    2    1    2    0    0  0.12732613773E-01 -0.83064037566E-02  0.17868190957E-01  0.10204696495E+01  0.10201999400E+01 0.  0.
     999903    2    3    3    0    0  0.48993718206E-01 -0.30903391163E-01 -0.11405589826E+00  0.12961081847E+00  0.20852154043E-01 0.  0.
         14    1    1    2    0    0 -0.12732613773E-01  0.83064037566E-02 -0.17868190957E-01  0.23460350486E-01  0.00000000000E+00 0.  1.
     999901    1    3    3    0    0 -0.36261104434E-01  0.22596987406E-01  0.13192408921E+00  0.89085883104E+00  0.88000000000E+00 0. -1.
        -11    1    4    4    0    0  0.40676736688E-01 -0.27709453103E-01 -0.76178434794E-01  0.90696338115E-01  0.51100000000E-03 0. -1.
         11    1    4    4    0    0  0.83169815183E-02 -0.31939380602E-02 -0.37877463463E-01  0.38914480355E-01  0.51100000000E-03 0.  1.
</event>
<event>
 8    1  0.1061722E+005  0.1043930E+01  0.7957747E-01            NaN
         13   -1    0    0    0    0  0.00000000000E+00  0.00000000000E+00  0.74505805969E-08  0.10566000000E+00  0.10566000000E+00 0.  1.
     999900   -1    0    0    0    0 -0.00000000000E+00 -0.00000000000E+00 -0.74505805969E-08  0.93827000000E+00  0.93827000000E+00 0.  1.
     999902    2    1    2    0    0 -0.17638453426E-01  0.15221312246E-01 -0.54805035866E-02  0.10199959384E+01  0.10197150950E+01 0.  0.
     999903    2    3    3    0    0 -0.78906145023E-02 -0.70440456037E-01 -0.10650007855E+00  0.13003081916E+00  0.23272893192E-01 0.  0.
         14    1    1    2    0    0  0.17638453426E-01 -0.15221312246E-01  0.54805035866E-02  0.23934061613E-01  0.00000000000E+00 0. -1.
     999901    1    3    3    0    0 -0.97478389235E-02  0.85661768283E-01  0.10101957496E+00  0.88996511922E+00  0.88000000000E+00 0. -1.
        -11    1    4    4    0    0 -0.10799250524E-01 -0.15034545272E-01 -0.34232187287E-01  0.38919983695E-01  0.51100000000E-03 0.  1.
         11    1    4    4    0    0  0.29086360218E-02 -0.55405910766E-01 -0.72267891261E-01  0.91110835468E-01  0.51100000000E-03 0. -1.
</event>
<event>
 8    1  0.1061722E+005  0.1043930E+01  0.7957747E-01            NaN
         13   -1    0    0    0    0  0.00000000000E+00  0.00000000000E+00  0.74505805969E-08  0.10566000000E+00  0.10566000000E+00 0. -1.
     999900   -1    0    0    0    0 -0.00000000000E+00 -0.00000000000E+00 -0.74505805969E-08  0.93827000000E+00  0.93827000000E+00 0.  1.
     999902    2    1    2    0    0 -0.22934952279E-02 -0.23457021422E-01 -0.33024882416E-02  0.10201308739E+01  0.10198532255E+01 0.  0.
     999903    2    3    3    0    0  0.91706269863E-02  0.10883449167E+00  0.62836624591E-01  0.12771457375E+00  0.20821238694E-01 0.  0.
         14    1    1    2    0    0  0.22934952279E-02  0.23457021422E-01  0.33024882416E-02  0.23799126096E-01  0.00000000000E+00 0.  1.
     999901    1    3    3    0    0 -0.11464122214E-01 -0.13229151310E+00 -0.66139112832E-01  0.89241630015E+00  0.88000000000E+00 0.  1.
        -11    1    4    4    0    0  0.13964116030E-01  0.58511609073E-01  0.40006023124E-01  0.72245054779E-01  0.51100000000E-03 0.  1.
         11    1    4    4    0    0 -0.47934890436E-02  0.50322882601E-01  0.22830601467E-01  0.55469518971E-01  0.51100000000E-03 0. -1.
</event>
<event>
 8    1  0.1061722E+005  0.1043930E+01  0.7957747E-01            NaN
         13   -1    0    0    0    0  0.00000000000E+00  0.00000000000E+00  0.74505805969E-08  0.10566000000E+00  0.10566000000E+00 0.  1.
     999900   -1    0    0    0    0 -0.00000000000E+00 -0.00000000000E+00 -0.74505805969E-08  0.93827000000E+00  0.93827000000E+00 0.  1.
     999902    2    1    2    0    0  0.10723396503E-01 -0.12706246948E-01 -0.97768699295E-02  0.10246419952E+01  0.10244604390E+01 0.  0.
     999903    2    3    3    0    0  0.88303651807E-02  0.51081988368E-01 -0.12258066176E+00  0.13514932069E+00  0.23494155881E-01 0.  0.
         14    1    1    2    0    0 -0.10723396503E-01  0.12706246948E-01  0.97768699295E-02  0.19288004814E-01  0.00000000000E+00 0.  1.
     999901    1    3    3    0    0  0.18930313225E-02 -0.63788235316E-01  0.11280379183E+00  0.88949267450E+00  0.88000000000E+00 0. -1.
        -11    1    4    4    0    0  0.91775635666E-02  0.33319081332E-01 -0.52546688180E-01  0.62895185933E-01  0.51100000000E-03 0. -1.
         11    1    4    4    0    0 -0.34719838597E-03  0.17762907036E-01 -0.70033973580E-01  0.72254134757E-01  0.51100000000E-03 0.  1.
</event>
<event>
 8    1  0.1061722E+005  0.1043930E+01  0.7957747E-01            NaN
         13   -1    0    0    0    0  0.00000000000E+00  0.00000000000E+00  0.74505805969E-08  0.10566000000E+00  0.10566000000E+00 0.  1.
     999900   -1    0    0    0    0 -0.00000000000E+00 -0.00000000000E+00 -0.74505805969E-08  0.93827000000E+00  0.93827000000E+00 0.  1.
     999902    2    1    2    0    0  0.59082694339E-02  0.22866824193E-01 -0.82417289622E-03  0.10202978491E+01  0.10200241283E+01 0.  0.
     999903    2    3    3    0    0  0.70305996638E-01 -0.10382959686E+00 -0.20932852792E-01  0.12866821218E+00  0.19844549731E-01 0.  0.
         14    1    1    2    0    0 -0.59082694339E-02 -0.22866824193E-01  0.82417289622E-03  0.23632150925E-01  0.00000000000E+00 0.  1.
     999901    1    3    3    0    0 -0.64397727205E-01  0.12669642105E+00  0.20108679896E-01  0.89162963689E+00  0.88000000000E+00 0.  1.
        -11    1    4    4    0    0  0.45720842088E-01 -0.65479826623E-01 -0.36624681114E-02  0.79947969890E-01  0.51100000000E-03 0.  1.
         11    1    4    4    0    0  0.24585154550E-01 -0.38349770232E-01 -0.17270384681E-01  0.48720242293E-01  0.51100000000E-03 0. -1.
</event>
<event>
 8    1  0.1061722E+005  0.1043930E+01  0.7957747E-01            NaN
         13   -1    0    0    0    0  0.00000000000E+00  0.00000000000E+00  0.74505805969E-08  0.10566000000E+00  0.10566000000E+00 0.  1.
     999900   -1    0    0    0    0 -0.00000000000E+00 -0.00000000000E+00 -0.74505805969E-08  0.93827000000E+00  0.93827000000E+00 0.  1.
     999902    2    1    2    0    0 -0.85944046944E-02 -0.22858342712E-01 -0.20623602164E-02  0.10194224307E+01  0.10191277993E+01 0.  0.
     999903    2    3    3    0    0 -0.39081451482E-01  0.82390715316E-01  0.87934233683E-01  0.12807165174E+00  0.18823620926E-01 0.  0.
         14    1    1    2    0    0  0.85944046944E-02  0.22858342712E-01  0.20623602164E-02  0.24507569305E-01  0.00000000000E+00 0.  1.
     999901    1    3    3    0    0  0.30487046788E-01 -0.10524905803E+00 -0.89996593899E-01  0.89135077896E+00  0.88000000000E+00 0. -1.
        -11    1    4    4    0    0 -0.33829437920E-01  0.53189338552E-01  0.65189206296E-01  0.90683131530E-01  0.51100000000E-03 0. -1.
         11    1    4    4    0    0 -0.52520135626E-02  0.29201376764E-01  0.22745027386E-01  0.37388520206E-01  0.51100000000E-03 0.  1.
</event>
<event>
 8    1  0.1061722E+005  0.1043930E+01  0.7957747E-01            NaN
         13   -1    0    0    0    0  0.00000000000E+00  0.00000000000E+00  0.74505805969E-08  0.10566000000E+00  0.10566000000E+00 0.  1.
     999900   -1    0    0    0    0 -0.00000000000E+00 -0.00000000000E+00 -0.74505805969E-08  0.93827000000E+00  0.93827000000E+00 0. -1.
     999902    2    1    2    0    0  0.12426455761E-01 -0.14576852387E-01  0.11729541162E-01  0.10214692884E+01  0.10212223184E+01 0.  0.
     999903    2    3    3    0    0  0.95558820913E-01  0.84545983315E-01  0.26220724491E-01  0.13189280432E+00  0.20704441284E-01 0.  0.
         14    1    1    2    0    0 -0.12426455761E-01  0.14576852387E-01 -0.11729541162E-01  0.22460711569E-01  0.00000000000E+00 0. -1.
     999901    1    3    3    0    0 -0.83132365152E-01 -0.99122835702E-01 -0.14491183329E-01  0.88957648411E+00  0.88000000000E+00 0. -1.
        -11    1    4    4    0    0  0.25648204785E-01  0.14523483289E-01  0.12409109787E-01  0.31984513475E-01  0.51100000000E-03 0.  1.
         11    1    4    4    0    0  0.69910616129E-01  0.70022500027E-01  0.13811614704E-01  0.99908290843E-01  0.51100000000E-03 0. -1.
</event>
<event>
 8    1  0.1061722E+005  0.1043930E+01  0.7957747E-01            NaN
         13   -1    0    0    0    0  0.00000000000E+00  0.00000000000E+00  0.74505805969E-08  0.10566000000E+00  0.10566000000E+00 0.  1.
     999900   -1    0    0    0    0 -0.00000000000E+00 -0.00000000000E+00 -0.74505805969E-08  0.93827000000E+00  0.93827000000E+00 0. -1.
     999902    2    1    2    0    0 -0.18003524910E-01 -0.49225031169E-02 -0.11998822397E-01  0.10217414966E+01  0.10215005414E+01 0.  0.
     999903    2    3    3    0    0  0.93752992226E-02  0.85253766626E-01  0.94522684227E-01  0.13032229606E+00  0.26329870075E-01 0.  0.
         14    1    1    2    0    0  0.18003524910E-01  0.49225031169E-02  0.11998822397E-01  0.22188503443E-01  0.00000000000E+00 0.  1.
     999901    1    3    3    0    0 -0.27378824133E-01 -0.90176269743E-01 -0.10652150662E+00  0.89141920049E+00  0.88000000000E+00 0. -1.
        -11    1    4    4    0    0  0.87062573884E-02  0.19713554979E-01  0.11150417849E-01  0.24269654032E-01  0.51100000000E-03 0. -1.
         11    1    4    4    0    0  0.66904183423E-03  0.65540211647E-01  0.83372266378E-01  0.10605264203E+00  0.51100000000E-03 0.  1.
</event>
<event>
 8    1  0.1061722E+005  0.1043930E+01  0.7957747E-01            NaN
         13   -1    0    0    0    0  0.00000000000E+00  0.00000000000E+00  0.74505805969E-08  0.10566000000E+00  0.10566000000E+00 0. -1.
     999900   -1    0    0    0    0 -0.00000000000E+00 -0.00000000000E+00 -0.74505805969E-08  0.93827000000E+00  0.93827000000E+00 0. -1.
     999902    2    1    2    0    0 -0.11332267469E-01  0.57307042304E-02  0.19992908896E-01  0.10202450330E+01  0.10199700729E+01 0.  0.
     999903    2    3    3    0    0  0.28309613703E-01  0.11072788890E-01  0.12758634419E+00  0.13279004035E+00  0.20757618128E-01 0.  0.
         14    1    1    2    0    0  0.11332267469E-01 -0.57307042304E-02 -0.19992908896E-01  0.23684967028E-01  0.00000000000E+00 0.  1.
     999901    1    3    3    0    0 -0.39641881171E-01 -0.53420846593E-02 -0.10759343529E+00  0.88745499262E+00  0.88000000000E+00 0. -1.
        -11    1    4    4    0    0  0.20002773607E-01  0.70526513989E-03  0.10209929275E+00  0.10404390925E+00  0.51100000000E-03 0. -1.
         11    1    4    4    0    0  0.83068400958E-02  0.10367523750E-01  0.25487051439E-01  0.28746131099E-01  0.51100000000E-03 0.  1.
</event>
<event>
 8    1  0.1061722E+005  0.1043930E+01  0.7957747E-01            NaN
         13   -1    0    0    0    0  0.00000000000E+00  0.00000000000E+00  0.74505805969E-08  0.10566000000E+00  0.10566000000E+00 0.  1.
     999900   -1    0    0    0    0 -0.00000000000E+00 -0.00000000000E+00 -0.74505805969E-08  0.93827000000E+00  0.93827000000E+00 0. -1.
     999902    2    1    2    0    0  0.14326817312E-01 -0.15945017780E-01 -0.16819463622E-01  0.10166830618E+01  0.10163178895E+01 0.  0.
     999903    2    3    3    0    0 -0.11836936398E+00 -0.17465466446E-01 -0.36124275750E-01  0.12652393888E+00  0.19672187584E-01 0.  0.
         14    1    1    2    0    0 -0.14326817312E-01  0.15945017780E-01  0.16819463622E-01  0.27246938228E-01  0.00000000000E+00 0.  1.
     999901    1    3    3    0    0  0.13269618129E+00  0.15204486665E-02  0.19304812128E-01  0.89015912289E+00  0.88000000000E+00 0. -1.
        -11    1    4    4    0    0 -0.53091324125E-01 -0.31139803114E-02 -0.24991659380E-01  0.58764187481E-01  0.51100000000E-03 0. -1.
         11    1    4    4    0    0 -0.65278039855E-01 -0.14351486135E-01 -0.11132616370E-01  0.67759751401E-01  0.51100000000E-03 0.  1.
</event>
<event>
 8    1  0.1061722E+005  0.1043930E+01  0.7957747E-01            NaN
         13   -1    0    0    0    0  0.00000000000E+00  0.00000000000E+00  0.74505805969E-08  0.10566000000E+00  0.10566000000E+00 0. -1.
     999900   -1    0    0    0    0 -0.00000000000E+00 -0.00000000000E+00 -0.74505805969E-08  0.93827000000E+00  0.93827000000E+00 0. -1.
     999902    2    1    2    0    0  0.18469778962E-01  0.15281734793E-01 -0.69716117226E-04  0.10199577449E+01  0.10196759938E+01 0.  0.
     999903    2    3    3    0    0 -0.75966838189E-02  0.68281243792E-01 -0.11069084127E+00  0.13106773948E+00  0.14361480875E-01 0.  0.
         14    1    1    2    0    0 -0.18469778962E-01 -0.15281734793E-01  0.69716117226E-04  0.23972255078E-01  0.00000000000E+00 0. -1.
     999901    1    3    3    0    0  0.26066462781E-01 -0.52999508999E-01  0.11062112516E+00  0.88889000544E+00  0.88000000000E+00 0.  1.
        -11    1    4    4    0    0 -0.84187383732E-02  0.26408437877E-01 -0.52512385848E-01  0.59380910530E-01  0.51100000000E-03 0. -1.
         11    1    4    4    0    0  0.82205455427E-03  0.41872805915E-01 -0.58178455425E-01  0.71686828954E-01  0.51100000000E-03 0.  1.
</event>
<event>
 8    1  0.1061722E+005  0.1043930E+01  0.7957747E-01            NaN
         13   -1    0    0    0    0  0.00000000000E+00  0.00000000000E+00  0.74505805969E-08  0.10566000000E+00  0.10566000000E+00 0.  1.
     999900   -1    0    0    0    0 -0.00000000000E+00 -0.00000000000E+00 -0.74505805969E-08  0.93827000000E+00  0.93827000000E+00 0.  1.
     999902    2    1    2    0    0  0.32626102998E-02  0.55770138410E-03 -0.25979606227E-01  0.10177403914E+01  0.10174033658E+01 0.  0.
     999903    2    3    3    0    0 -0.45188775820E-04 -0.26062023248E-01 -0.12738447783E+00  0.13151101974E+00  0.19725922643E-01 0.  0.
         14    1    1    2    0    0 -0.32626102998E-02 -0.55770138410E-03  0.25979606227E-01  0.26189608560E-01  0.00000000000E+00 0.  1.
     999901    1    3    3    0    0  0.33077990756E-02  0.26619724632E-01  0.10140487160E+00  0.88622937170E+00  0.88000000000E+00 0. -1.
        -11    1    4    4    0    0  0.12833596688E-03  0.23182072855E-02 -0.29452133932E-01  0.29547924957E-01  0.51100000000E-03 0.  1.
         11    1    4    4    0    0 -0.17352474270E-03 -0.28380230534E-01 -0.97932343898E-01  0.10196309479E+00  0.51100000000E-03 0. -1.
</event>
<event>
 8    1  0.1061722E+005  0.1043930E+01  0.7957747E-01            NaN
         13   -1    0    0    0    0  0.00000000000E+00  0.00000000000E+00  0.74505805969E-08  0.10566000000E+00  0.10566000000E+00 0. -1.
     999900   -1    0    0    0    0 -0.00000000000E+00 -0.00000000000E+00 -0.74505805969E-08  0.93827000000E+00  0.93827000000E+00 0. -1.
     999902    2    1    2    0    0  0.30363075963E-02 -0.35676611401E-02 -0.29838856144E-01  0.10137256178E+01  0.10132755417E+01 0.  0.
     999903    2    3    3    0    0 -0.80024768987E-01  0.92632774989E-01 -0.41482108040E-04  0.12409561049E+00  0.20369687496E-01 0.  0.
         14    1    1    2    0    0 -0.30363075963E-02  0.35676611401E-02  0.29838856144E-01  0.30204382228E-01  0.00000000000E+00 0. -1.
     999901    1    3    3    0    0  0.83061076584E-01 -0.96200436129E-01 -0.29797374036E-01  0.88963000728E+00  0.88000000000E+00 0.  1.
        -11    1    4    4    0    0 -0.57899085692E-01  0.52205637970E-01 -0.16497698063E-02  0.77978943448E-01  0.51100000000E-03 0.  1.
         11    1    4    4    0    0 -0.22125683295E-01  0.40427137019E-01  0.16082876983E-02  0.46116667043E-01  0.51100000000E-03 0. -1.
</event>
<event>
 8    1  0.1061722E+005  0.1043930E+01  0.7957747E-01            NaN
         13   -1    0    0    0    0  0.00000000000E+00  0.00000000000E+00  0.74505805969E-08  0.10566000000E+00  0.10566000000E+00 0.  1.
     999900   -1    0    0    0    0 -0.00000000000E+00 -0.00000000000E+00 -0.74505805969E-08  0.93827000000E+00  0.93827000000E+00 0. -1.
     999902    2    1    2    0    0 -0.26789099819E-02  0.39945376138E-02 -0.20677077149E-01  0.10227009065E+01  0.10224805474E+01 0.  0.
     999903    2    3    3    0    0  0.10757150141E+00  0.20191841328E-01  0.69377247749E-01  0.13111395773E+00  0.19958182157E-01 0.  0.
         14    1    1    2    0    0  0.26789099819E-02 -0.39945376138E-02  0.20677077149E-01  0.21229093454E-01  0.00000000000E+00 0.  1.
     999901    1    3    3    0    0 -0.11025041139E+00 -0.16197303714E-01 -0.90054324898E-01  0.89158694881E+00  0.88000000000E+00 0. -1.
        -11    1    4    4    0    0  0.75688777792E-01  0.15354628562E-01  0.59146290868E-01  0.97278469079E-01  0.51100000000E-03 0. -1.
         11    1    4    4    0    0  0.31882723621E-01  0.48372127657E-02  0.10230956882E-01  0.33835488655E-01  0.51100000000E-03 0.  1.
</event>
<event>
 8    1  0.1061722E+005  0.1043930E+01  0.7957747E-01            NaN
         13   -1    0    0    0    0  0.00000000000E+00  0.00000000000E+00  0.74505805969E-08  0.10566000000E+00  0.10566000000E+00 0.  1.
     999900   -1    0    0    0    0 -0.00000000000E+00 -0.00000000000E+00 -0.74505805969E-08  0.93827000000E+00  0.93827000000E+00 0.  1.
     999902    2    1    2    0    0 -0.11990160744E-01 -0.14271530076E-01  0.14843943069E-01  0.10201017988E+01  0.10198234635E+01 0.  0.
     999903    2    3    3    0    0  0.44225461466E-01 -0.34264405257E-01 -0.11417245105E+00  0.12869552715E+00  0.19931111856E-01 0.  0.
         14    1    1    2    0    0  0.11990160744E-01  0.14271530076E-01 -0.14843943069E-01  0.23828201175E-01  0.00000000000E+00 0.  1.
     999901    1    3    3    0    0 -0.56215622211E-01  0.19992875181E-01  0.12901639412E+00  0.89140627168E+00  0.88000000000E+00 0. -1.
        -11    1    4    4    0    0  0.36266566998E-01 -0.34681889834E-01 -0.87679198310E-01  0.10102475094E+00  0.51100000000E-03 0. -1.
         11    1    4    4    0    0  0.79588944681E-02  0.41748457653E-03 -0.26493252737E-01  0.27670776211E-01  0.51100000000E-03 0.  1.
</event>
<event>
 8    1  0.1061722E+005  0.1043930E+01  0.7957747E-01            NaN
         13   -1    0    0    0    0  0.00000000000E+00  0.00000000000E+00  0.74505805969E-08  0.10566000000E+00  0.10566000000E+00 0.  1.
     999900   -1    0    0    0    0 -0.00000000000E+00 -0.00000000000E+00 -0.74505805969E-08  0.93827000000E+00  0.93827000000E+00 0.  1.
     999902    2    1    2    0    0  0.52917427245E-02 -0.84341508257E-02  0.20316763386E-01  0.10213046090E+01  0.10210539634E+01 0.  0.
     999903    2    3    3    0    0 -0.12863974879E+00  0.81053364553E-02 -0.63428169612E-02  0.13061839478E+00  0.20175536662E-01 0.  0.
         14    1    1    2    0    0 -0.52917427245E-02  0.84341508257E-02 -0.20316763386E-01  0.22625390951E-01  0.00000000000E+00 0. -1.
     999901    1    3    3    0    0  0.13393149152E+00 -0.16539487281E-01  0.26659580347E-01  0.89068621427E+00  0.88000000000E+00 0. -1.
        -11    1    4    4    0    0 -0.99236606111E-01  0.13648817173E-01 -0.75107420108E-03  0.10017494415E+00  0.51100000000E-03 0.  1.
         11    1    4    4    0    0 -0.29403142683E-01 -0.55434807172E-02 -0.55917427601E-02  0.30443450629E-01  0.51100000000E-03 0. -1.
</event>
<event>
 8    1  0.1061722E+005  0.1043930E+01  0.7957747E-01            NaN
         13   -1    0    0    0    0  0.00000000000E+00  0.00000000000E+00  0.74505805969E-08  0.10566000000E+00  0.10566000000E+00 0. -1.
     999900   -1    0    0    0    0 -0.00000000000E+00 -0.00000000000E+00 -0.74505805969E-08  0.93827000000E+00  0.93827000000E+00 0. -1.
     999902    2    1    2    0    0  0.26863583506E-01 -0.68000439951E-02  0.17688724778E-02  0.10161627238E+01  0.10157832739E+01 0.  0.
     999903    2    3    3    0    0  0.95562221062E-02 -0.74073887519E-01 -0.10141022707E+00  0.12741571742E+00  0.19299448121E-01 0.  0.
         14    1    1    2    0    0 -0.26863583506E-01  0.68000439951E-02 -0.17688724778E-02  0.27767276190E-01  0.00000000000E+00 0. -1.
     999901    1    3    3    0    0  0.17307361400E-01  0.67273843524E-01  0.10317909955E+00  0.88874700639E+00  0.88000000000E+00 0.  1.
        -11    1    4    4    0    0  0.66514473527E-02 -0.29614674559E-01 -0.56579419304E-01  0.64208741701E-01  0.51100000000E-03 0.  1.
         11    1    4    4    0    0  0.29047747535E-02 -0.44459212960E-01 -0.44830807770E-01  0.63206975720E-01  0.51100000000E-03 0. -1.
</event>
<event>
 8    1  0.1061722E+005  0.1043930E+01  0.7957747E-01            NaN
         13   -1    0    0    0    0  0.00000000000E+00  0.00000000000E+00  0.74505805969E-08  0.10566000000E+00  0.10566000000E+00 0.  1.
     999900   -1    0    0    0    0 -0.00000000000E+00 -0.00000000000E+00 -0.74505805969E-08  0.93827000000E+00  0.93827000000E+00 0. -1.
     999902    2    1    2    0    0  0.19421016343E-01 -0.72818499858E-02 -0.11559808941E-01  0.10201848869E+01  0.10199085121E+01 0.  0.
     999903    2    3    3    0    0  0.97719617144E-01 -0.39849317290E-01  0.76650629316E-01  0.13171857224E+00  0.18367679058E-01 0.  0.
         14    1    1    2    0    0 -0.19421016343E-01  0.72818499858E-02  0.11559808941E-01  0.23745113135E-01  0.00000000000E+00 0.  1.
     999901    1    3    3    0    0 -0.78298600801E-01  0.32567467304E-01 -0.88210438258E-01  0.88846631463E+00  0.88000000000E+00 0. -1.
        -11    1    4    4    0    0  0.29097386308E-01 -0.31568044817E-02  0.22315904795E-01  0.36808749399E-01  0.51100000000E-03 0.  1.
         11    1    4    4    0    0  0.68622230836E-01 -0.36692512808E-01  0.54334724521E-01  0.94909822837E-01  0.51100000000E-03 0. -1.
</event>
<event>
 8    1  0.1061722E+005  0.1043930E+01  0.7957747E-01            NaN
         13   -1    0    0    0    0  0.00000000000E+00  0.00000000000E+00  0.74505805969E-08  0.10566000000E+00  0.10566000000E+00 0.  1.
     999900   -1    0    0    0    0 -0.00000000000E+00 -0.00000000000E+00 -0.74505805969E-08  0.93827000000E+00  0.93827000000E+00 0.  1.
     999902    2    1    2    0    0  0.87755913158E-02 -0.20258400788E-01  0.73573657377E-02  0.10206588884E+01  0.10203935622E+01 0.  0.
     999903    2    3    3    0    0  0.10737722114E+00  0.65763600518E-01 -0.26875144965E-01  0.13032528186E+00  0.20191258079E-01 0.  0.
         14    1    1    2    0    0 -0.87755913158E-02  0.20258400788E-01 -0.73573657377E-02  0.23271111620E-01  0.00000000000E+00 0. -1.
     999901    1    3    3    0    0 -0.98601629820E-01 -0.86022001306E-01  0.34232510703E-01  0.89033360652E+00  0.88000000000E+00 0. -1.
        -11    1    4    4    0    0  0.84092567902E-01  0.42327429820E-01 -0.15700351743E-01  0.95445971405E-01  0.51100000000E-03 0.  1.
         11    1    4    4    0    0  0.23284653233E-01  0.23436170698E-01 -0.11174793222E-01  0.34879310454E-01  0.51100000000E-03 0. -1.
</event>
<event>
 8    1  0.1061722E+005  0.1043930E+01  0.7957747E-01            NaN
         13   -1    0    0    0    0  0.00000000000E+00  0.00000000000E+00  0.74505805969E-08  0.10566000000E+00  0.10566000000E+00 0. -1.
     999900   -1    0    0    0    0 -0.00000000000E+00 -0.00000000000E+00 -0.74505805969E-08  0.93827000000E+00  0.93827000000E+00 0.  1.
     999902    2    1    2    0    0 -0.16026231653E-01 -0.94976697625E-02  0.14829264560E-01  0.10201192268E+01  0.10198413033E+01 0.  0.
     999903    2    3    3    0    0 -0.81399104674E-01 -0.10269031763E+00 -0.16813925089E-02  0.13263340500E+00  0.20437158873E-01 0.  0.
         14    1    1    2    0    0  0.16026231653E-01  0.94976697625E-02 -0.14829264560E-01  0.23810773177E-01  0.00000000000E+00 0.  1.
     999901    1    3    3    0    0  0.65372873021E-01  0.93192647872E-01  0.16510657069E-01  0.88748582183E+00  0.88000000000E+00 0.  1.
        -11    1    4    4    0    0 -0.12150207909E-01 -0.16108500002E-01 -0.76954460688E-02  0.21600748500E-01  0.51100000000E-03 0.  1.
         11    1    4    4    0    0 -0.69248896765E-01 -0.86581817633E-01  0.60140535600E-02  0.11103265650E+00  0.51100000000E-03 0. -1.
</event>
<event>
 8    1  0.1061722E+005  0.1043930E+01  0.7957747E-01            NaN
         13   -1    0    0    0    0  0.00000000000E+00  0.00000000000E+00  0.74505805969E-08  0.10566000000E+00  0.10566000000E+00 0.  1.
     999900   -1    0    0    0    0 -0.00000000000E+00 -0.00000000000E+00 -0.74505805969E-08  0.93827000000E+00  0.93827000000E+00 0.  1.
     999902    2    1    2    0    0 -0.16112060637E-01  0.20151051424E-01  0.26037456114E-03  0.10181282333E+01  0.10178012420E+01 0.  0.
     999903    2    3    3    0    0 -0.12850943669E+00 -0.44868424152E-02 -0.10430247398E-01  0.13057289113E+00  0.20141568094E-01 0.  0.
         14    1    1    2    0    0  0.16112060637E-01 -0.20151051424E-01 -0.26037456114E-03  0.25801766729E-01  0.00000000000E+00 0. -1.
     999901    1    3    3    0    0  0.11239737605E+00  0.24637893839E-01  0.10690621959E-01  0.88755534214E+00  0.88000000000E+00 0. -1.
        -11    1    4    4    0    0 -0.57019735142E-01 -0.11988590457E-01 -0.51054340034E-02  0.58491906057E-01  0.51100000000E-03 0.  1.
         11    1    4    4    0    0 -0.71489701548E-01  0.75017480421E-02 -0.53248133947E-02  0.72080985078E-01  0.51100000000E-03 0. -1.
</event>
<event>
 8    1  0.1061722E+005  0.1043930E+01  0.7957747E-01            NaN
         13   -1    0    0    0    0  0.00000000000E+00  0.00000000000E+00  0.74505805969E-08  0.10566000000E+00  0.10566000000E+00 0. -1.
     999900   -1    0    0    0    0 -0.00000000000E+00 -0.00000000000E+00 -0.74505805969E-08  0.93827000000E+00  0.93827000000E+00 0. -1.
     999902    2    1    2    0    0 -0.20751373519E-01  0.69231809810E-02  0.94253175753E-02  0.10201101228E+01  0.10198319843E+01 0.  0.
     999903    2    3    3    0    0 -0.37089547151E-02  0.82391526100E-01 -0.98457159177E-01  0.13015251487E+00  0.21065256097E-01 0.  0.
         14    1    1    2    0    0  0.20751373519E-01 -0.69231809810E-02 -0.94253175753E-02  0.23819877187E-01  0.00000000000E+00 0.  1.
     999901    1    3    3    0    0 -0.17042418804E-01 -0.75468345119E-01  0.10788247675E+00  0.88995760795E+00  0.88000000000E+00 0.  1.
        -11    1    4    4    0    0 -0.48678546256E-02  0.62934127795E-01 -0.60274370424E-01  0.87279214598E-01  0.51100000000E-03 0. -1.
         11    1    4    4    0    0  0.11588999105E-02  0.19457398305E-01 -0.38182788753E-01  0.42873300267E-01  0.51100000000E-03 0.  1.
</event>
<event>
 8    1  0.1061722E+005  0.1043930E+01  0.7957747E-01            NaN
         13   -1    0    0    0    0  0.00000000000E+00  0.00000000000E+00  0.74505805969E-08  0.10566000000E+00  0.10566000000E+00 0.  1.
     999900   -1    0    0    0    0 -0.00000000000E+00 -0.00000000000E+00 -0.74505805969E-08  0.93827000000E+00  0.93827000000E+00 0. -1.
     999902    2    1    2    0    0  0.17748168867E-01 -0.67029364696E-02 -0.14707371925E-01  0.10199251329E+01  0.10196426056E+01 0.  0.
     999903    2    3    3    0    0 -0.48789918875E-01 -0.11875266246E+00 -0.66055290949E-02  0.13029144533E+00  0.21203223486E-01 0.  0.
         14    1    1    2    0    0 -0.17748168867E-01  0.67029364696E-02  0.14707371925E-01  0.24004867098E-01  0.00000000000E+00 0.  1.
     999901    1    3    3    0    0  0.66538087742E-01  0.11204972599E+00 -0.81018428303E-02  0.88963368758E+00  0.88000000000E+00 0. -1.
        -11    1    4    4    0    0 -0.28034033580E-01 -0.50945463820E-01 -0.11230690191E-01  0.59226150016E-01  0.51100000000E-03 0.  1.
         11    1    4    4    0    0 -0.20755885295E-01 -0.67807198636E-01  0.46251610957E-02  0.71065295309E-01  0.51100000000E-03 0. -1.
</event>
<event>
 8    1  0.1061722E+005  0.1043930E+01  0.7957747E-01            NaN
         13   -1    0    0    0    0  0.00000000000E+00  0.00000000000E+00  0.74505805969E-08  0.10566000000E+00  0.10566000000E+00 0. -1.
     999900   -1    0    0    0    0 -0.00000000000E+00 -0.00000000000E+00 -0.74505805969E-08  0.93827000000E+00  0.93827000000E+00 0.  1.
     999902    2    1    2    0    0  0.68040662636E-02 -0.15592983708E-01  0.14908132070E-01  0.10213094593E+01  0.10210589223E+01 0.  0.
     999903    2    3    3    0    0 -0.89040392224E-02 -0.12654742824E+00 -0.33526834459E-01  0.13288187121E+00  0.20976404806E-01 0.  0.
         14    1    1    2    0    0 -0.68040662636E-02  0.15592983708E-01 -0.14908132070E-01  0.22620540676E-01  0.00000000000E+00 0.  1.
     999901    1    3    3    0    0  0.15708105486E-01  0.11095444453E+00  0.48434966528E-01  0.88842758811E+00  0.88000000000E+00 0. -1.
        -11    1    4    4    0    0  0.33929276952E-02 -0.95951805997E-02  0.12072333696E-02  0.10261480522E-01  0.51100000000E-03 0.  1.
         11    1    4    4    0    0 -0.12296966918E-01 -0.11695224764E+00 -0.34734067828E-01  0.12262039069E+00  0.51100000000E-03 0. -1.
</event>
<event>
 8    1  0.1061722E+005  0.1043930E+01  0.7957747E-01            NaN
         13   -1    0    0    0    0  0.00000000000E+00  0.00000000000E+00  0.74505805969E-08  0.10566000000E+00  0.10566000000E+00 0.  1.
     999900   -1    0    0    0    0 -0.00000000000E+00 -0.00000000000E+00 -0.74505805969E-08  0.93827000000E+00  0.93827000000E+00 0. -1.
     999902    2    1    2    0    0 -0.85824937014E-02  0.11327840771E-01 -0.19108895594E-01  0.10201155282E+01  0.10198375174E+01 0.  0.
     999903    2    3    3    0    0  0.89551845407E-01 -0.51393913363E-01  0.72568030647E-01  0.12772042193E+00  0.19634657084E-01 0.  0.
         14    1    1    2    0    0  0.85824937014E-02 -0.11327840771E-01  0.19108895594E-01  0.23814471766E-01  0.00000000000E+00 0.  1.
     999901    1    3    3    0    0 -0.98134339109E-01  0.62721754134E-01 -0.91676926241E-01  0.89239510631E+00  0.88000000000E+00 0. -1.
        -11    1    4    4    0    0  0.20360796359E-01 -0.13998087459E-01  0.27891928558E-01  0.37265658193E-01  0.51100000000E-03 0. -1.
         11    1    4    4    0    0  0.69191049048E-01 -0.37395825904E-01  0.44676102089E-01  0.90454763735E-01  0.51100000000E-03 0.  1.
</event>
<event>
 8    1  0.1061722E+005  0.1043930E+01  0.7957747E-01            NaN
         13   -1    0    0    0    0  0.00000000000E+00  0.00000000000E+00  0.74505805969E-08  0.10566000000E+00  0.10566000000E+00 0. -1.
     999900   -1    0    0    0    0 -0.00000000000E+00 -0.00000000000E+00 -0.74505805969E-08  0.93827000000E+00  0.93827000000E+00 0.  1.
     999902    2    1    2    0    0  0.11789768357E-01 -0.56189149516E-02 -0.19930424221E-01  0.10201015999E+01  0.10198232599E+01 0.  0.
     999903    2    3    3    0    0  0.12589982482E+00 -0.91655162074E-02 -0.35284535772E-01  0.13259417336E+00  0.20036061670E-01 0.  0.
         14    1    1    2    0    0 -0.11789768357E-01  0.56189149516E-02  0.19930424221E-01  0.23828400131E-01  0.00000000000E+00 0.  1.
     999901    1    3    3    0    0 -0.11411005646E+00  0.35466012558E-02  0.15354111551E-01  0.88750742651E+00  0.88000000000E+00 0. -1.
        -11    1    4    4    0    0  0.50269770298E-01  0.58840045199E-02 -0.16325581725E-01  0.53183240355E-01  0.51100000000E-03 0. -1.
         11    1    4    4    0    0  0.75630054523E-01 -0.15049520727E-01 -0.18958954047E-01  0.79410933005E-01  0.51100000000E-03 0.  1.
</event>
<event>
 8    1  0.1061722E+005  0.1043930E+01  0.7957747E-01            NaN
         13   -1    0    0    0    0  0.00000000000E+00  0.00000000000E+00  0.74505805969E-08  0.10566000000E+00  0.10566000000E+00 0.  1.
     999900   -1    0    0    0    0 -0.00000000000E+00 -0.00000000000E+00 -0.74505805969E-08  0.93827000000E+00  0.93827000000E+00 0.  1.
     999902    2    1    2    0    0 -0.16174970822E-02  0.18530742058E-01  0.14361685783E-01  0.10204297294E+01  0.10201590905E+01 0.  0.
     999903    2    3    3    0    0 -0.86275991109E-01  0.85116389892E-01  0.52412835070E-01  0.13304672359E+00  0.16308859776E-01 0.  0.
         14    1    1    2    0    0  0.16174970822E-02 -0.18530742058E-01 -0.14361685783E-01  0.23500270564E-01  0.00000000000E+00 0. -1.
     999901    1    3    3    0    0  0.84658494026E-01 -0.66585647834E-01 -0.38051149286E-01  0.88738300585E+00  0.88000000000E+00 0.  1.
        -11    1    4    4    0    0 -0.27723028812E-01  0.21328133128E-01  0.86894922038E-02  0.36044749756E-01  0.51100000000E-03 0. -1.
         11    1    4    4    0    0 -0.58552962297E-01  0.63788256764E-01  0.43723342866E-01  0.97001973831E-01  0.51100000000E-03 0.  1.
</event>
<event>
 8    1  0.1061722E+005  0.1043930E+01  0.7957747E-01            NaN
         13   -1    0    0    0    0  0.00000000000E+00  0.00000000000E+00  0.74505805969E-08  0.10566000000E+00  0.10566000000E+00 0.  1.
     999900   -1    0    0    0    0 -0.00000000000E+00 -0.00000000000E+00 -0.74505805969E-08  0.93827000000E+00  0.93827000000E+00 0. -1.
     999902    2    1    2    0    0  0.58175858405E-02  0.16600277956E-01  0.18486900596E-01  0.10184117903E+01  0.10180920369E+01 0.  0.
     999903    2    3    3    0    0 -0.21694785710E-01  0.29971014945E-01 -0.12019298332E+00  0.12702645420E+00  0.17900876035E-01 0.  0.
         14    1    1    2    0    0 -0.58175858405E-02 -0.16600277956E-01 -0.18486900596E-01  0.25518209711E-01  0.00000000000E+00 0. -1.
     999901    1    3    3    0    0  0.27512371550E-01 -0.13370736989E-01  0.13867988392E+00  0.89138533609E+00  0.88000000000E+00 0.  1.
        -11    1    4    4    0    0 -0.82446699389E-02  0.27860012199E-04 -0.25421104185E-01  0.26729553262E-01  0.51100000000E-03 0. -1.
         11    1    4    4    0    0 -0.13450115771E-01  0.29943154932E-01 -0.94771879134E-01  0.10029690094E+00  0.51100000000E-03 0.  1.
</event>
<event>
 8    1  0.1061722E+005  0.1043930E+01  0.7957747E-01            NaN
         13   -1    0    0    0    0  0.00000000000E+00  0.00000000000E+00  0.74505805969E-08  0.10566000000E+00  0.10566000000E+00 0. -1.
     999900   -1    0    0    0    0 -0.00000000000E+00 -0.00000000000E+00 -0.74505805969E-08  0.93827000000E+00  0.93827000000E+00 0. -1.
     999902    2    1    2    0    0 -0.15353326942E-01  0.96623829605E-02 -0.14680902101E-01  0.10205930084E+01  0.10203261604E+01 0.  0.
     999903    2    3    3    0    0  0.51621009051E-01  0.65556531368E-02  0.11584948941E+00  0.12844201409E+00  0.19197437919E-01 0.  0.
         14    1    1    2    0    0  0.15353326942E-01 -0.96623829605E-02  0.14680902101E-01  0.23336991648E-01  0.00000000000E+00 0. -1.
     999901    1    3    3    0    0 -0.66974335993E-01  0.31067298237E-02 -0.13053039152E+00  0.89215099426E+00  0.88000000000E+00 0. -1.
        -11    1    4    4    0    0  0.35650687505E-01 -0.44880672579E-02  0.71373125910E-01  0.79909314166E-01  0.51100000000E-03 0. -1.
         11    1    4    4    0    0  0.15970321545E-01  0.11043720395E-01  0.44476363505E-01  0.48532699925E-01  0.51100000000E-03 0.  1.
</event>
<event>
 8    1  0.1061722E+005  0.1043930E+01  0.7957747E-01            NaN
         13   -1    0    0    0    0  0.00000000000E+00  0.00000000000E+00  0.74505805969E-08  0.10566000000E+00  0.10566000000E+00 0.  1.
     999900   -1    0    0    0    0 -0.00000000000E+00 -0.00000000000E+00 -0.74505805969E-08  0.93827000000E+00  0.93827000000E+00 0.  1.
     999902    2    1    2    0    0  0.11031887905E-01  0.19951379837E-01 -0.47779114093E-02  0.10206364699E+01  0.10203706263E+01 0.  0.
     999903    2    3    3    0    0  0.60333853666E-01 -0.30149672460E-01 -0.11100983449E+00  0.13146493370E+00  0.20264964620E-01 0.  0.
         14    1    1    2    0    0 -0.11031887905E-01 -0.19951379837E-01  0.47779114093E-02  0.23293530123E-01  0.00000000000E+00 0. -1.
     999901    1    3    3    0    0 -0.49301965761E-01  0.50101052298E-01  0.10623192308E+00  0.88917153618E+00  0.88000000000E+00 0. -1.
        -11    1    4    4    0    0  0.16923496240E-01 -0.66859729457E-02 -0.15289705342E-01  0.23772740054E-01  0.51100000000E-03 0.  1.
         11    1    4    4    0    0  0.43410357426E-01 -0.23463699514E-01 -0.95720129148E-01  0.10769219364E+00  0.51100000000E-03 0. -1.
</event>
<event>
 8    1  0.1061722E+005  0.1043930E+01  0.7957747E-01            NaN
         13   -1    0    0    0    0  0.00000000000E+00  0.00000000000E+00  0.74505805969E-08  0.10566000000E+00  0.10566000000E+00 0.  1.
     999900   -1    0    0    0    0 -0.00000000000E+00 -0.00000000000E+00 -0.74505805969E-08  0.93827000000E+00  0.93827000000E+00 0.  1.
     999902    2    1    2    0    0 -0.17628206129E-03  0.21792151695E-01  0.89724396784E-02  0.10203623606E+01  0.10200901496E+01 0.  0.
     999903    2    3    3    0    0  0.12443157861E+00  0.37133188209E-01 -0.18040343338E-02  0.13138620870E+00  0.19924604741E-01 0.  0.
         14    1    1    2    0    0  0.17628206129E-03 -0.21792151695E-01 -0.89724396784E-02  0.23567639352E-01  0.00000000000E+00 0. -1.
     999901    1    3    3    0    0 -0.12460786067E+00 -0.15341036514E-01  0.10776474012E-01  0.88897615195E+00  0.88000000000E+00 0.  1.
        -11    1    4    4    0    0  0.10851846421E-01  0.42722089310E-03 -0.50264719024E-02  0.11977964319E-01  0.51100000000E-03 0.  1.
         11    1    4    4    0    0  0.11357973219E+00  0.36705967316E-01  0.32224375686E-02  0.11940824438E+00  0.51100000000E-03 0. -1.
</event>
<event>
 8    1  0.1061722E+005  0.1043930E+01  0.7957747E-01            NaN
         13   -1    0    0    0    0  0.00000000000E+00  0.00000000000E+00  0.74505805969E-08  0.10566000000E+00  0.10566000000E+00 0.  1.
     999900   -1    0    0    0    0 -0.00000000000E+00 -0.00000000000E+00 -0.74505805969E-08  0.93827000000E+00  0.93827000000E+00 0. -1.
     999902    2    1    2    0    0  0.17593816590E-01  0.14151616633E-01  0.92615813474E-02  0.10195253381E+01  0.10192332056E+01 0.  0.
     999903    2    3    3    0    0 -0.37207633740E-01  0.75960341001E-02 -0.12090365874E+00  0.12824021850E+00  0.19640549907E-01 0.  0.
         14    1    1    2    0    0 -0.17593816590E-01 -0.14151616633E-01 -0.92615813474E-02  0.24404661944E-01  0.00000000000E+00 0. -1.
     999901    1    3    3    0    0  0.54801450330E-01  0.65555825331E-02  0.13016524009E+00  0.89128511956E+00  0.88000000000E+00 0.  1.
        -11    1    4    4    0    0 -0.24325830828E-01  0.79979859784E-02 -0.50054663783E-01  0.56226722407E-01  0.51100000000E-03 0.  1.
         11    1    4    4    0    0 -0.12881802912E-01 -0.40195187835E-03 -0.70848994958E-01  0.72013496090E-01  0.51100000000E-03 0. -1.
</event>
<event>
 8    1  0.1061722E+005  0.1043930E+01  0.7957747E-01            NaN
         13   -1    0    0    0    0  0.00000000000E+00  0.00000000000E+00  0.74505805969E-08  0.10566000000E+00  0.10566000000E+00 0.  1.
     999900   -1    0    0    0    0 -0.00000000000E+00 -0.00000000000E+00 -0.74505805969E-08  0.93827000000E+00  0.93827000000E+00 0.  1.
     999902    2    1    2    0    0 -0.98805674516E-02  0.15583761519E-01  0.15450826777E-01  0.10198632743E+01  0.10195792716E+01 0.  0.
     999903    2    3    3    0    0  0.73344646252E-01  0.75419617300E-01  0.75847521353E-01  0.13185734724E+00  0.23789865879E-01 0.  0.
         14    1    1    2    0    0  0.98805674516E-02 -0.15583761519E-01 -0.15450826777E-01  0.24066725668E-01  0.00000000000E+00 0. -1.
     999901    1    3    3    0    0 -0.83225213704E-01 -0.59835855781E-01 -0.60396694576E-01  0.88800592709E+00  0.88000000000E+00 0.  1.
        -11    1    4    4    0    0  0.15780753548E-01  0.72423814660E-02  0.54653452128E-02  0.18210310023E-01  0.51100000000E-03 0. -1.
         11    1    4    4    0    0  0.57563892704E-01  0.68177235834E-01  0.70382176140E-01  0.11364703722E+00  0.51100000000E-03 0.  1.
</event>
<event>
 8    1  0.1061722E+005  0.1043930E+01  0.7957747E-01            NaN
         13   -1    0    0    0    0  0.00000000000E+00  0.00000000000E+00  0.74505805969E-08  0.10566000000E+00  0.10566000000E+00 0. -1.
     999900   -1    0    0    0    0 -0.00000000000E+00 -0.00000000000E+00 -0.74505805969E-08  0.93827000000E+00  0.93827000000E+00 0.  1.
     999902    2    1    2    0    0 -0.19538369366E-01 -0.12725419506E-01 -0.64903493260E-02  0.10197265124E+01  0.10194392337E+01 0.  0.
     999903    2    3    3    0    0 -0.11026160954E+00 -0.71580922457E-01 -0.76678396809E-02  0.13310592665E+00  0.19414967072E-01 0.  0.
         14    1    1    2    0    0  0.19538369366E-01  0.12725419506E-01  0.64903493260E-02  0.24203487630E-01  0.00000000000E+00 0. -1.
     999901    1    3    3    0    0  0.90723240174E-01  0.58855502952E-01  0.11774903549E-02  0.88662058572E+00  0.88000000000E+00 0.  1.
        -11    1    4    4    0    0 -0.78113180221E-02 -0.26477615424E-04  0.70857799405E-03  0.78600632364E-02  0.51100000000E-03 0. -1.
         11    1    4    4    0    0 -0.10245029152E+00 -0.71554444842E-01 -0.83764176750E-02  0.12524586342E+00  0.51100000000E-03 0.  1.
</event>
<event>
 8    1  0.1061722E+005  0.1043930E+01  0.7957747E-01            NaN
         13   -1    0    0    0    0  0.00000000000E+00  0.00000000000E+00  0.74505805969E-08  0.10566000000E+00  0.10566000000E+00 0.  1.
     999900   -1    0    0    0    0 -0.00000000000E+00 -0.00000000000E+00 -0.74505805969E-08  0.93827000000E+00  0.93827000000E+00 0. -1.
     999902    2    1    2    0    0 -0.20310693661E-01  0.27891984863E-02  0.11485617388E-01  0.10204305678E+01  0.10201599485E+01 0.  0.
     999903    2    3    3    0    0  0.11444852919E+00  0.47854379579E-01  0.30061402830E-01  0.12883874503E+00  0.17527886442E-01 0.  0.
         14    1    1    2    0    0  0.20310693661E-01 -0.27891984863E-02 -0.11485617388E-01  0.23499432163E-01  0.00000000000E+00 0. -1.
     999901    1    3    3    0    0 -0.13475922285E+00 -0.45065181092E-01 -0.18575785442E-01  0.89159182281E+00  0.88000000000E+00 0. -1.
        -11    1    4    4    0    0  0.91361610993E-01  0.38475967091E-01  0.31084436783E-01  0.10389344223E+00  0.51100000000E-03 0. -1.
         11    1    4    4    0    0  0.23086918194E-01  0.93784124881E-02 -0.10230339525E-02  0.24945302804E-01  0.51100000000E-03 0.  1.
</event>
<event>
 8    1  0.1061722E+005  0.1043930E+01  0.7957747E-01            NaN
         13   -1    0    0    0    0  0.00000000000E+00  0.00000000000E+00  0.74505805969E-08  0.10566000000E+00  0.10566000000E+00 0.  1.
     999900   -1    0    0    0    0 -0.00000000000E+00 -0.00000000000E+00 -0.74505805969E-08  0.93827000000E+00  0.93827000000E+00 0.  1.
     999902    2    1    2    0    0 -0.18066048620E-01 -0.12305792674E-01 -0.91947049174E-02  0.10202159273E+01  0.10199402831E+01 0.  0.
     999903    2    3    3    0    0  0.45806956509E-01  0.75658859738E-01  0.90386484206E-01  0.12795253900E+00  0.19483207820E-01 0.  0.
         14    1    1    2    0    0  0.18066048620E-01  0.12305792674E-01  0.91947049174E-02  0.23714072713E-01  0.00000000000E+00 0.  1.
     999901    1    3    3    0    0 -0.63873005129E-01 -0.87964652413E-01 -0.99581189123E-01  0.89226338829E+00  0.88000000000E+00 0.  1.
        -11    1    4    4    0    0  0.28424529261E-01  0.47273338735E-01  0.69187959526E-01  0.88487045850E-01  0.51100000000E-03 0.  1.
         11    1    4    4    0    0  0.17382427248E-01  0.28385521004E-01  0.21198524679E-01  0.39465493146E-01  0.51100000000E-03 0. -1.
</event>
<event>
 8    1  0.1061722E+005  0.1043930E+01  0.7957747E-01            NaN
         13   -1    0    0    0    0  0.00000000000E+00  0.00000000000E+00  0.74505805969E-08  0.10566000000E+00  0.10566000000E+00 0. -1.
     999900   -1    0    0    0    0 -0.00000000000E+00 -0.00000000000E+00 -0.74505805969E-08  0.93827000000E+00  0.93827000000E+00 0. -1.
     999902    2    1    2    0    0 -0.67587257261E-02  0.15885591579E-01 -0.16159622435E-01  0.10202833133E+01  0.10200092518E+01 0.  0.
     999903    2    3    3    0    0  0.99681193353E-01  0.82066008320E-01 -0.19936697669E-01  0.13139436063E+00  0.13994143840E-01 0.  0.
         14    1    1    2    0    0  0.67587257261E-02 -0.15885591579E-01  0.16159622435E-01  0.23646686670E-01  0.00000000000E+00 0. -1.
     999901    1    3    3    0    0 -0.10643991908E+00 -0.66180416741E-01  0.37770752341E-02  0.88888895270E+00  0.88000000000E+00 0. -1.
        -11    1    4    4    0    0  0.65428761807E-01  0.57134849830E-01 -0.19485337074E-01  0.89023892404E-01  0.51100000000E-03 0.  1.
         11    1    4    4    0    0  0.34252431545E-01  0.24931158489E-01 -0.45136059452E-03  0.42370468227E-01  0.51100000000E-03 0. -1.
</event>
<event>
 8    1  0.1061722E+005  0.1043930E+01  0.7957747E-01            NaN
         13   -1    0    0    0    0  0.00000000000E+00  0.00000000000E+00  0.74505805969E-08  0.10566000000E+00  0.10566000000E+00 0.  1.
     999900   -1    0    0    0    0 -0.00000000000E+00 -0.00000000000E+00 -0.74505805969E-08  0.93827000000E+00  0.93827000000E+00 0. -1.
     999902    2    1    2    0    0  0.68823726227E-02 -0.18146590757E-02 -0.22688654765E-01  0.10201511208E+01  0.10198739502E+01 0.  0.
     999903    2    3    3    0    0 -0.10012338998E-01  0.67936284938E-01  0.10604291047E+00  0.12789418396E+00  0.19905719952E-01 0.  0.
         14    1    1    2    0    0 -0.68823726227E-02  0.18146590757E-02  0.22688654765E-01  0.23778879190E-01  0.00000000000E+00 0.  1.
     999901    1    3    3    0    0  0.16894711620E-01 -0.69750944014E-01 -0.12873156523E+00  0.89225693685E+00  0.88000000000E+00 0. -1.
        -11    1    4    4    0    0 -0.11071791106E-01  0.37376438358E-01  0.44431563501E-01  0.59110131608E-01  0.51100000000E-03 0. -1.
         11    1    4    4    0    0  0.10594521086E-02  0.30559846580E-01  0.61611346967E-01  0.68784052351E-01  0.51100000000E-03 0.  1.
</event>
<event>
 8    1  0.1061722E+005  0.1043930E+01  0.7957747E-01            NaN
         13   -1    0    0    0    0  0.00000000000E+00  0.00000000000E+00  0.74505805969E-08  0.10566000000E+00  0.10566000000E+00 0.  1.
     999900   -1    0    0    0    0 -0.00000000000E+00 -0.00000000000E+00 -0.74505805969E-08  0.93827000000E+00  0.93827000000E+00 0. -1.
     999902    2    1    2    0    0  0.18296032759E-01  0.36817387287E-02  0.15258420585E-01  0.10198235815E+01  0.10195386299E+01 0.  0.
     999903    2    3    3    0    0 -0.97203264316E-01 -0.72894296041E-01 -0.33749813039E-01  0.12763201927E+00  0.19718759444E-01 0.  0.
         14    1    1    2    0    0 -0.18296032759E-01 -0.36817387287E-02 -0.15258420585E-01  0.24106418513E-01  0.00000000000E+00 0. -1.
     999901    1    3    3    0    0  0.11549929708E+00  0.76576034770E-01  0.49008233624E-01  0.89219156222E+00  0.88000000000E+00 0.  1.
        -11    1    4    4    0    0 -0.39900588930E-01 -0.29883573263E-01 -0.23972790192E-01  0.55317634969E-01  0.51100000000E-03 0.  1.
         11    1    4    4    0    0 -0.57302675386E-01 -0.43010722778E-01 -0.97770228469E-02  0.72314384302E-01  0.51100000000E-03 0. -1.
</event>
<event>
 8    1  0.1061722E+005  0.1043930E+01  0.7957747E-01            NaN
         13   -1    0    0    0    0  0.00000000000E+00  0.00000000000E+00  0.74505805969E-08  0.10566000000E+00  0.10566000000E+00 0. -1.
     999900   -1    0    0    0    0 -0.00000000000E+00 -0.00000000000E+00 -0.74505805969E-08  0.93827000000E+00  0.93827000000E+00 0. -1.
     999902    2    1    2    0    0  0.10359471344E-01 -0.16469970329E-01 -0.11182559519E-01  0.10214883377E+01  0.10212417911E+01 0.  0.
     999903    2    3    3    0    0  0.55781240585E-01 -0.21338681375E-01 -0.11805401795E+00  0.13384632084E+00  0.20278074992E-01 0.  0.
         14    1    1    2    0    0 -0.10359471344E-01  0.16469970329E-01  0.11182559519E-01  0.22441662295E-01  0.00000000000E+00 0. -1.
     999901    1    3    3    0    0 -0.45421769241E-01  0.48687110452E-02  0.10687145843E+00  0.88764201686E+00  0.88000000000E+00 0.  1.
        -11    1    4    4    0    0  0.18523603339E-01 -0.13797310774E-01 -0.61555629594E-01  0.65748356033E-01  0.51100000000E-03 0. -1.
         11    1    4    4    0    0  0.37257637246E-01 -0.75413706011E-02 -0.56498388356E-01  0.68097964812E-01  0.51100000000E-03 0.  1.
</event>
<event>
 8    1  0.1061722E+005  0.1043930E+01  0.7957747E-01            NaN
         13   -1    0    0    0    0  0.00000000000E+00  0.00000000000E+00  0.74505805969E-08  0.10566000000E+00  0.10566000000E+00 0. -1.
     999900   -1    0    0    0    0 -0.00000000000E+00 -0.00000000000E+00 -0.74505805969E-08  0.93827000000E+00  0.93827000000E+00 0. -1.
     999902    2    1    2    0    0  0.12852966457E-01  0.20089797533E-01 -0.11290787015E-01  0.10175428709E+01  0.10172006751E+01 0.  0.
     999903    2    3    3    0    0 -0.62407289427E-02 -0.12006467360E+00  0.29080089215E-01  0.12533344892E+00  0.20207654130E-01 0.  0.
         14    1    1    2    0    0 -0.12852966457E-01 -0.20089797533E-01  0.11290787015E-01  0.26387129118E-01  0.00000000000E+00 0. -1.
     999901    1    3    3    0    0  0.19093695400E-01  0.14015447114E+00 -0.40370876230E-01  0.89220942196E+00  0.88000000000E+00 0.  1.
        -11    1    4    4    0    0 -0.52465672494E-02 -0.78701227760E-01  0.91537097219E-02  0.79406934468E-01  0.51100000000E-03 0. -1.
         11    1    4    4    0    0 -0.99416169324E-03 -0.41363445842E-01  0.19926379493E-01  0.45926514456E-01  0.51100000000E-03 0.  1.
</event>
<event>
 8    1  0.1061722E+005  0.1043930E+01  0.7957747E-01            NaN
         13   -1    0    0    0    0  0.00000000000E+00  0.00000000000E+00  0.74505805969E-08  0.10566000000E+00  0.10566000000E+00 0. -1.
     999900   -1    0    0    0    0 -0.00000000000E+00 -0.00000000000E+00 -0.74505805969E-08  0.93827000000E+00  0.93827000000E+00 0. -1.
     999902    2    1    2    0    0 -0.29046441524E-02 -0.14795215864E-01  0.14833836622E-01  0.10227786861E+01  0.10225599555E+01 0.  0.
     999903    2    3    3    0    0 -0.11597079021E+00  0.34184806413E-01 -0.49713500382E-01  0.13185256422E+00  0.17200040661E-01 0.  0.
         14    1    1    2    0    0  0.29046441524E-02  0.14795215864E-01 -0.14833836622E-01  0.21151313885E-01  0.00000000000E+00 0.  1.
     999901    1    3    3    0    0  0.11306614606E+00 -0.48980022277E-01  0.64547337005E-01  0.89092612190E+00  0.88000000000E+00 0. -1.
        -11    1    4    4    0    0 -0.29977004081E-01  0.40436668165E-02 -0.18842179515E-01  0.35640719197E-01  0.51100000000E-03 0. -1.
         11    1    4    4    0    0 -0.85993786129E-01  0.30141139596E-01 -0.30871320868E-01  0.96211845020E-01  0.51100000000E-03 0.  1.
</event>
<event>
 8    1  0.1202675E+005  0.1043930E+01  0.7957747E-01            NaN
         13   -1    0    0    0    0  0.00000000000E+00  0.00000000000E+00  0.74505805969E-08  0.10566000000E+00  0.10566000000E+00 0.  1.
     999900   -1    0    0    0    0 -0.00000000000E+00 -0.00000000000E+00 -0.74505805969E-08  0.93827000000E+00  0.93827000000E+00 0. -1.
     999902    2    1    2    0    0 -0.17169890330E-01 -0.12791078851E-02  0.15161286356E-01  0.10209886431E+01  0.10207308673E+01 0.  0.
     999903    2    3    3    0    0  0.21176708792E-01  0.12726061627E+00  0.85073077091E-02  0.13079922633E+00  0.19807722671E-01 0.  0.
         14    1    1    2    0    0  0.17169890330E-01  0.12791078851E-02 -0.15161286356E-01  0.22941356867E-01  0.00000000000E+00 0. -1.
     999901    1    3    3    0    0 -0.38346599123E-01 -0.12853972415E+00  0.66539786464E-02  0.89018941680E+00  0.88000000000E+00 0.  1.
        -11    1    4    4    0    0  0.31766750847E-02  0.74734390232E-01  0.83833140385E-02  0.75271916564E-01  0.51100000000E-03 0. -1.
         11    1    4    4    0    0  0.18000033708E-01  0.52526226034E-01  0.12399367060E-03  0.55527309770E-01  0.51100000000E-03 0.  1.
</event>
<event>
 8    1  0.1061722E+005  0.1043930E+01  0.7957747E-01            NaN
         13   -1    0    0    0    0  0.00000000000E+00  0.00000000000E+00  0.74505805969E-08  0.10566000000E+00  0.10566000000E+00 0. -1.
     999900   -1    0    0    0    0 -0.00000000000E+00 -0.00000000000E+00 -0.74505805969E-08  0.93827000000E+00  0.93827000000E+00 0. -1.
     999902    2    1    2    0    0 -0.73254475840E-02  0.18542286338E-01  0.10101205393E-01  0.10215802144E+01  0.10213357046E+01 0.  0.
     999903    2    3    3    0    0 -0.86462248630E-01  0.30190551890E-01 -0.92873940175E-01  0.13197232553E+00  0.20098161142E-01 0.  0.
         14    1    1    2    0    0  0.73254475840E-02 -0.18542286338E-01 -0.10101205393E-01  0.22349785577E-01  0.00000000000E+00 0. -1.
     999901    1    3    3    0    0  0.79136801046E-01 -0.11648265551E-01  0.10297514557E+00  0.88960788889E+00  0.88000000000E+00 0.  1.
        -11    1    4    4    0    0 -0.32695272920E-01  0.11726953097E-01 -0.22018491198E-01  0.41128790110E-01  0.51100000000E-03 0.  1.
         11    1    4    4    0    0 -0.53766975710E-01  0.18463598792E-01 -0.70855448977E-01  0.90843535423E-01  0.51100000000E-03 0. -1.
</event>
<event>
 8    1  0.1061722E+005  0.1043930E+01  0.7957747E-01            NaN
         13   -1    0    0    0    0  0.00000000000E+00  0.00000000000E+00  0.74505805969E-08  0.10566000000E+00  0.10566000000E+00 0.  1.
     999900   -1    0    0    0    0 -0.00000000000E+00 -0.00000000000E+00 -0.74505805969E-08  0.93827000000E+00  0.93827000000E+00 0.  1.
     999902    2    1    2    0    0  0.20832056275E-01 -0.10199075910E-01 -0.34910996881E-02  0.10204740094E+01  0.10202044013E+01 0.  0.
     999903    2    3    3    0    0  0.33173124114E-01 -0.12127739113E+00  0.38125062191E-01  0.13242975431E+00  0.16596918269E-01 0.  0.
         14    1    1    2    0    0 -0.20832056275E-01  0.10199075910E-01  0.34910996881E-02  0.23455990601E-01  0.00000000000E+00 0.  1.
     999901    1    3    3    0    0 -0.12341067839E-01  0.11107831522E+00 -0.41616161879E-01  0.88804425509E+00  0.88000000000E+00 0. -1.
        -11    1    4    4    0    0  0.12485192221E-01 -0.52489859354E-01  0.24749316405E-01  0.59362068220E-01  0.51100000000E-03 0.  1.
         11    1    4    4    0    0  0.20687931894E-01 -0.68787531778E-01  0.13375745785E-01  0.73067686089E-01  0.51100000000E-03 0. -1.
</event>
<event>
 8    1  0.1061722E+005  0.1043930E+01  0.7957747E-01            NaN
         13   -1    0    0    0    0  0.00000000000E+00  0.00000000000E+00  0.74505805969E-08  0.10566000000E+00  0.10566000000E+00 0. -1.
     999900   -1    0    0    0    0 -0.00000000000E+00 -0.00000000000E+00 -0.74505805969E-08  0.93827000000E+00  0.93827000000E+00 0. -1.
     999902    2    1    2    0    0 -0.20107254692E-01 -0.14227665723E-01  0.25833468229E-02  0.10191630494E+01  0.10188620708E+01 0.  0.
     999903    2    3    3    0    0  0.95025654604E-01 -0.84207482570E-01 -0.11919040845E-01  0.12879060998E+00  0.18005069545E-01 0.  0.
         14    1    1    2    0    0  0.20107254692E-01  0.14227665723E-01 -0.25833468229E-02  0.24766950639E-01  0.00000000000E+00 0. -1.
     999901    1    3    3    0    0 -0.11513290930E+00  0.69979816847E-01  0.14502387668E-01  0.89037243939E+00  0.88000000000E+00 0. -1.
        -11    1    4    4    0    0  0.37983033282E-01 -0.28616646346E-01 -0.12352699304E-01  0.49137293032E-01  0.51100000000E-03 0. -1.
         11    1    4    4    0    0  0.57042621322E-01 -0.55590836224E-01  0.43365845904E-03  0.79653316943E-01  0.51100000000E-03 0.  1.
</event>
<event>
 8    1  0.1061722E+005  0.1043930E+01  0.7957747E-01            NaN
         13   -1    0    0    0    0  0.00000000000E+00  0.00000000000E+00  0.74505805969E-08  0.10566000000E+00  0.10566000000E+00 0.  1.
     999900   -1    0    0    0    0 -0.00000000000E+00 -0.00000000000E+00 -0.74505805969E-08  0.93827000000E+00  0.93827000000E+00 0. -1.
     999902    2    1    2    0    0  0.66736286979E-02 -0.16707836097E-01  0.72217513179E-02  0.10245433345E+01  0.10243598984E+01 0.  0.
     999903    2    3    3    0    0  0.88520628722E-02 -0.13407200641E+00 -0.14477588219E-01  0.13648367694E+00  0.19092710412E-01 0.  0.
         14    1    1    2    0    0 -0.66736286979E-02  0.16707836097E-01 -0.72217513179E-02  0.19386665498E-01  0.00000000000E+00 0. -1.
     999901    1    3    3    0    0 -0.21784341742E-02  0.11736417031E+00  0.21699339537E-01  0.88805965756E+00  0.88000000000E+00 0.  1.
        -11    1    4    4    0    0  0.10617591164E-01 -0.36735793797E-01 -0.15355337940E-02  0.38273630257E-01  0.51100000000E-03 0.  1.
         11    1    4    4    0    0 -0.17655282916E-02 -0.97336212613E-01 -0.12942054425E-01  0.98210046685E-01  0.51100000000E-03 0. -1.
</event>
<event>
 8    1  0.1061722E+005  0.1043930E+01  0.7957747E-01            NaN
         13   -1    0    0    0    0  0.00000000000E+00  0.00000000000E+00  0.74505805969E-08  0.10566000000E+00  0.10566000000E+00 0. -1.
     999900   -1    0    0    0    0 -0.00000000000E+00 -0.00000000000E+00 -0.74505805969E-08  0.93827000000E+00  0.93827000000E+00 0.  1.
     999902    2    1    2    0    0 -0.15720733076E-02  0.23059354437E-01  0.52120323972E-02  0.10202367410E+01  0.10199615861E+01 0.  0.
     999903    2    3    3    0    0 -0.29638894866E-01  0.61577226764E-01  0.11172557006E+00  0.13253380267E+00  0.20307311504E-01 0.  0.
         14    1    1    2    0    0  0.15720733076E-02 -0.23059354437E-01 -0.52120323972E-02  0.23693259026E-01  0.00000000000E+00 0.  1.
     999901    1    3    3    0    0  0.28066821558E-01 -0.38517872326E-01 -0.10651353767E+00  0.88770293830E+00  0.88000000000E+00 0.  1.
        -11    1    4    4    0    0 -0.96896988358E-02  0.31684183269E-01  0.70105577055E-01  0.77542445074E-01  0.51100000000E-03 0. -1.
         11    1    4    4    0    0 -0.19949196030E-01  0.29893043495E-01  0.41619993009E-01  0.54991357600E-01  0.51100000000E-03 0.  1.
</event>
<event>
 8    1  0.1061722E+005  0.1043930E+01  0.7957747E-01            NaN
         13   -1    0    0    0    0  0.00000000000E+00  0.00000000000E+00  0.74505805969E-08  0.10566000000E+00  0.10566000000E+00 0. -1.
     999900   -1    0    0    0    0 -0.00000000000E+00 -0.00000000000E+00 -0.74505805969E-08  0.93827000000E+00  0.93827000000E+00 0.  1.
     999902    2    1    2    0    0  0.64658232249E-02 -0.51126287051E-02  0.72737563366E-02  0.10329366669E+01  0.10328781653E+01 0.  0.
     999903    2    3    3    0    0 -0.49629856815E-01  0.25343575667E-01 -0.12744006832E+00  0.14039976552E+00  0.19123379155E-01 0.  0.
         14    1    1    2    0    0 -0.64658232249E-02  0.51126287051E-02 -0.72737563366E-02  0.10993333139E-01  0.00000000000E+00 0.  1.
     999901    1    3    3    0    0  0.56095680039E-01 -0.30456204372E-01  0.13471382465E+00  0.89253690134E+00  0.88000000000E+00 0. -1.
        -11    1    4    4    0    0 -0.31768065083E-01  0.58064889497E-02 -0.74838307184E-01  0.81510481634E-01  0.51100000000E-03 0.  1.
         11    1    4    4    0    0 -0.17861791731E-01  0.19537086718E-01 -0.52601761133E-01  0.58889283886E-01  0.51100000000E-03 0. -1.
</event>
<event>
 8    1  0.1061722E+005  0.1043930E+01  0.7957747E-01            NaN
         13   -1    0    0    0    0  0.00000000000E+00  0.00000000000E+00  0.74505805969E-08  0.10566000000E+00  0.10566000000E+00 0.  1.
     999900   -1    0    0    0    0 -0.00000000000E+00 -0.00000000000E+00 -0.74505805969E-08  0.93827000000E+00  0.93827000000E+00 0.  1.
     999902    2    1    2    0    0 -0.44403239562E-03  0.79795949901E-02 -0.22289693263E-01  0.10202508630E+01  0.10199760399E+01 0.  0.
     999903    2    3    3    0    0  0.84966900552E-01 -0.52968809752E-01  0.77871805440E-01  0.12837527681E+00  0.19776870771E-01 0.  0.
         14    1    1    2    0    0  0.44403239562E-03 -0.79795949901E-02  0.22289693263E-01  0.23679136951E-01  0.00000000000E+00 0.  1.
     999901    1    3    3    0    0 -0.85410932948E-01  0.60948404742E-01 -0.10016149870E+00  0.89187558624E+00  0.88000000000E+00 0.  1.
        -11    1    4    4    0    0  0.80408490231E-01 -0.44951614715E-01  0.65956514689E-01  0.11329914350E+00  0.51100000000E-03 0.  1.
         11    1    4    4    0    0  0.45584103207E-02 -0.80171950369E-02  0.11915290750E-01  0.15076133310E-01  0.51100000000E-03 0. -1.
</event>
<event>
 8    1  0.1061722E+005  0.1043930E+01  0.7957747E-01            NaN
         13   -1    0    0    0    0  0.00000000000E+00  0.00000000000E+00  0.74505805969E-08  0.10566000000E+00  0.10566000000E+00 0.  1.
     999900   -1    0    0    0    0 -0.00000000000E+00 -0.00000000000E+00 -0.74505805969E-08  0.93827000000E+00  0.93827000000E+00 0. -1.
     999902    2    1    2    0    0  0.17459325652E-02  0.22190098226E-01 -0.67435025697E-02  0.10206722364E+01  0.10204072180E+01 0.  0.
     999903    2    3    3    0    0  0.12332819710E+00 -0.25755549404E-01 -0.29310808098E-01  0.13073385908E+00  0.18947979172E-01 0.  0.
         14    1    1    2    0    0 -0.17459325652E-02 -0.22190098226E-01  0.67435025697E-02  0.23257763580E-01  0.00000000000E+00 0.  1.
     999901    1    3    3    0    0 -0.12158226454E+00  0.47945647630E-01  0.22567305528E-01  0.88993837734E+00  0.88000000000E+00 0. -1.
        -11    1    4    4    0    0  0.89239942466E-01 -0.26743533779E-01 -0.18757336135E-01  0.95032008872E-01  0.51100000000E-03 0. -1.
         11    1    4    4    0    0  0.34088254635E-01  0.98798437574E-03 -0.10553471963E-01  0.35701850213E-01  0.51100000000E-03 0.  1.
</event>
<event>
 8    1  0.1061722E+005  0.1043930E+01  0.7957747E-01            NaN
         13   -1    0    0    0    0  0.00000000000E+00  0.00000000000E+00  0.74505805969E-08  0.10566000000E+00  0.10566000000E+00 0.  1.
     999900   -1    0    0    0    0 -0.00000000000E+00 -0.00000000000E+00 -0.74505805969E-08  0.93827000000E+00  0.93827000000E+00 0.  1.
     999902    2    1    2    0    0  0.22218890910E-01  0.74614232548E-02  0.51962016577E-02  0.10199226582E+01  0.10196400719E+01 0.  0.
     999903    2    3    3    0    0  0.23903690116E-01  0.22342109852E-01 -0.12442076914E+00  0.13030204661E+00  0.20677023093E-01 0.  0.
         14    1    1    2    0    0 -0.22218890910E-01 -0.74614232548E-02 -0.51962016577E-02  0.24007341833E-01  0.00000000000E+00 0. -1.
     999901    1    3    3    0    0 -0.16847992066E-02 -0.14880686597E-01  0.12961697080E+00  0.88962061155E+00  0.88000000000E+00 0. -1.
        -11    1    4    4    0    0  0.23029605181E-01  0.25678309430E-01 -0.11861940162E+00  0.12353364664E+00  0.51100000000E-03 0. -1.
         11    1    4    4    0    0  0.87408493522E-03 -0.33361995787E-02 -0.58013675218E-02  0.67683999753E-02  0.51100000000E-03 0.  1.
</event>
<event>
 8    1  0.1061722E+005  0.1043930E+01  0.7957747E-01            NaN
         13   -1    0    0    0    0  0.00000000000E+00  0.00000000000E+00  0.74505805969E-08  0.10566000000E+00  0.10566000000E+00 0. -1.
     999900   -1    0    0    0    0 -0.00000000000E+00 -0.00000000000E+00 -0.74505805969E-08  0.93827000000E+00  0.93827000000E+00 0.  1.
     999902    2    1    2    0    0 -0.16728468468E-01 -0.58832717282E-02  0.15012847538E-01  0.10206955399E+01  0.10204310585E+01 0.  0.
     999903    2    3    3    0    0 -0.73474163488E-01  0.86453222856E-01 -0.61717500362E-01  0.13073281688E+00  0.20233811189E-01 0.  0.
         14    1    1    2    0    0  0.16728468468E-01  0.58832717282E-02 -0.15012847538E-01  0.23234460069E-01  0.00000000000E+00 0.  1.
     999901    1    3    3    0    0  0.56745695019E-01 -0.92336494584E-01  0.76730347900E-01  0.88996272305E+00  0.88000000000E+00 0. -1.
        -11    1    4    4    0    0 -0.56244984697E-01  0.54986933314E-01 -0.48970668827E-01  0.92657696201E-01  0.51100000000E-03 0.  1.
         11    1    4    4    0    0 -0.17229178790E-01  0.31466289542E-01 -0.12746831535E-01  0.38075120676E-01  0.51100000000E-03 0. -1.
</event>
<event>
 8    1  0.1061722E+005  0.1043930E+01  0.7957747E-01            NaN
         13   -1    0    0    0    0  0.00000000000E+00  0.00000000000E+00  0.74505805969E-08  0.10566000000E+00  0.10566000000E+00 0.  1.
     999900   -1    0    0    0    0 -0.00000000000E+00 -0.00000000000E+00 -0.74505805969E-08  0.93827000000E+00  0.93827000000E+00 0.  1.
     999902    2    1    2    0    0 -0.17738379935E-01  0.13253626871E-01 -0.84874868285E-02  0.10202161606E+01  0.10199405218E+01 0.  0.
     999903    2    3    3    0    0  0.66791776147E-01 -0.80447402659E-01  0.70379953920E-01  0.12772229312E+00  0.20657209163E-01 0.  0.
         14    1    1    2    0    0  0.17738379935E-01 -0.13253626871E-01  0.84874868285E-02  0.23713839432E-01  0.00000000000E+00 0.  1.
     999901    1    3    3    0    0 -0.84530156082E-01  0.93701029530E-01 -0.78867440749E-01  0.89249386745E+00  0.88000000000E+00 0.  1.
        -11    1    4    4    0    0  0.39151429462E-01 -0.31489272099E-01  0.30303095800E-01  0.58676634382E-01  0.51100000000E-03 0. -1.
         11    1    4    4    0    0  0.27640346685E-01 -0.48958130560E-01  0.40076858120E-01  0.69045658738E-01  0.51100000000E-03 0.  1.
</event>
<event>
 8    1  0.1061722E+005  0.1043930E+01  0.7957747E-01            NaN
         13   -1    0    0    0    0  0.00000000000E+00  0.00000000000E+00  0.74505805969E-08  0.10566000000E+00  0.10566000000E+00 0.  1.
     999900   -1    0    0    0    0 -0.00000000000E+00 -0.00000000000E+00 -0.74505805969E-08  0.93827000000E+00  0.93827000000E+00 0. -1.
     999902    2    1    2    0    0 -0.86107339187E-02 -0.54318837442E-02  0.22559019376E-01  0.10191800615E+01  0.10188795014E+01 0.  0.
     999903    2    3    3    0    0 -0.10113720085E+00  0.65358719417E-01  0.47881827255E-01  0.13114081623E+00  0.20118367247E-01 0.  0.
         14    1    1    2    0    0  0.86107339187E-02  0.54318837442E-02 -0.22559019376E-01  0.24749938481E-01  0.00000000000E+00 0. -1.
     999901    1    3    3    0    0  0.92526466928E-01 -0.70790603161E-01 -0.25322807879E-01  0.88803924529E+00  0.88000000000E+00 0. -1.
        -11    1    4    4    0    0 -0.54679934395E-01  0.46097647369E-01  0.23783264104E-01  0.75371036153E-01  0.51100000000E-03 0.  1.
         11    1    4    4    0    0 -0.46457266452E-01  0.19261072048E-01  0.24098563151E-01  0.55769780075E-01  0.51100000000E-03 0. -1.
</event>
<event>
 8    1  0.1061722E+005  0.1043930E+01  0.7957747E-01            NaN
         13   -1    0    0    0    0  0.00000000000E+00  0.00000000000E+00  0.74505805969E-08  0.10566000000E+00  0.10566000000E+00 0. -1.
     999900   -1    0    0    0    0 -0.00000000000E+00 -0.00000000000E+00 -0.74505805969E-08  0.93827000000E+00  0.93827000000E+00 0.  1.
     999902    2    1    2    0    0  0.10738644419E-02 -0.16968592274E-01  0.92709347997E-02  0.10245641398E+01  0.10243811010E+01 0.  0.
     999903    2    3    3    0    0  0.66990189476E-01  0.10208218063E+00 -0.46567491964E-01  0.13235565614E+00  0.21000745639E-01 0.  0.
         14    1    1    2    0    0 -0.10738644419E-02  0.16968592274E-01 -0.92709347997E-02  0.19365860184E-01  0.00000000000E+00 0. -1.
     999901    1    3    3    0    0 -0.65916325034E-01 -0.11905077290E+00  0.55838426763E-01  0.89220848367E+00  0.88000000000E+00 0.  1.
        -11    1    4    4    0    0  0.21980414022E-01  0.52546061683E-01 -0.21483868082E-01  0.60877293860E-01  0.51100000000E-03 0. -1.
         11    1    4    4    0    0  0.45009775454E-01  0.49536118945E-01 -0.25083623882E-01  0.71478362282E-01  0.51100000000E-03 0.  1.
</event>
<event>
 8    1  0.1061722E+005  0.1043930E+01  0.7957747E-01            NaN
         13   -1    0    0    0    0  0.00000000000E+00  0.00000000000E+00  0.74505805969E-08  0.10566000000E+00  0.10566000000E+00 0. -1.
     999900   -1    0    0    0    0 -0.00000000000E+00 -0.00000000000E+00 -0.74505805969E-08  0.93827000000E+00  0.93827000000E+00 0.  1.
     999902    2    1    2    0    0  0.23287993865E-01 -0.51260799660E-02  0.63146130416E-02  0.10192625783E+01  0.10189640435E+01 0.  0.
     999903    2    3    3    0    0  0.23532543006E-01 -0.12354328535E+00 -0.29088212924E-01  0.13062538891E+00  0.20003603661E-01 0.  0.
         14    1    1    2    0    0 -0.23287993865E-01  0.51260799660E-02 -0.63146130416E-02  0.24667421672E-01  0.00000000000E+00 0.  1.
     999901    1    3    3    0    0 -0.24454914162E-03  0.11841720539E+00  0.35402825966E-01  0.88863718942E+00  0.88000000000E+00 0.  1.
        -11    1    4    4    0    0  0.26586060724E-01 -0.10477425251E+00 -0.21913832487E-01  0.11029478586E+00  0.51100000000E-03 0. -1.
         11    1    4    4    0    0 -0.30535177175E-02 -0.18769032846E-01 -0.71743804372E-02  0.20330603042E-01  0.51100000000E-03 0.  1.
</event>
<event>
 8    1  0.1061722E+005  0.1043930E+01  0.7957747E-01            NaN
         13   -1    0    0    0    0  0.00000000000E+00  0.00000000000E+00  0.74505805969E-08  0.10566000000E+00  0.10566000000E+00 0. -1.
     999900   -1    0    0    0    0 -0.00000000000E+00 -0.00000000000E+00 -0.74505805969E-08  0.93827000000E+00  0.93827000000E+00 0. -1.
     999902    2    1    2    0    0  0.14880806019E-01 -0.14776834382E-01 -0.11233983857E-01  0.10201393376E+01  0.10198618890E+01 0.  0.
     999903    2    3    3    0    0  0.17412860372E-01  0.10066423621E+00 -0.79485456164E-01  0.12997569226E+00  0.11800283060E-01 0.  0.
         14    1    1    2    0    0 -0.14880806019E-01  0.14776834382E-01  0.11233983857E-01  0.23790662358E-01  0.00000000000E+00 0. -1.
     999901    1    3    3    0    0 -0.25320543526E-02 -0.11544107059E+00  0.68251472306E-01  0.89016364538E+00  0.88000000000E+00 0. -1.
        -11    1    4    4    0    0  0.63318097252E-02  0.52955489699E-01 -0.34883491244E-01  0.63729857885E-01  0.51100000000E-03 0.  1.
         11    1    4    4    0    0  0.11081050647E-01  0.47708746510E-01 -0.44601964920E-01  0.66245834380E-01  0.51100000000E-03 0. -1.
</event>
<event>
 8    1  0.1061722E+005  0.1043930E+01  0.7957747E-01            NaN
         13   -1    0    0    0    0  0.00000000000E+00  0.00000000000E+00  0.74505805969E-08  0.10566000000E+00  0.10566000000E+00 0.  1.
     999900   -1    0    0    0    0 -0.00000000000E+00 -0.00000000000E+00 -0.74505805969E-08  0.93827000000E+00  0.93827000000E+00 0. -1.
     999902    2    1    2    0    0 -0.20188883246E-01 -0.36935702531E-02  0.44239735504E-02  0.10229346431E+01  0.10227191595E+01 0.  0.
     999903    2    3    3    0    0 -0.17629452533E-01  0.11322886852E+00  0.64719129068E-01  0.13315213423E+00  0.20232422475E-01 0.  0.
         14    1    1    2    0    0  0.20188883246E-01  0.36935702531E-02 -0.44239735504E-02  0.20995356866E-01  0.00000000000E+00 0. -1.
     999901    1    3    3    0    0 -0.25594307136E-02 -0.11692243877E+00 -0.60295155518E-01  0.88978250891E+00  0.88000000000E+00 0. -1.
        -11    1    4    4    0    0 -0.25909834792E-04  0.64382289270E-01  0.33754024087E-01  0.72695770895E-01  0.51100000000E-03 0. -1.
         11    1    4    4    0    0 -0.17603542698E-01  0.48846579251E-01  0.30965104981E-01  0.60456363334E-01  0.51100000000E-03 0.  1.
</event>
<event>
 8    1  0.1061722E+005  0.1043930E+01  0.7957747E-01            NaN
         13   -1    0    0    0    0  0.00000000000E+00  0.00000000000E+00  0.74505805969E-08  0.10566000000E+00  0.10566000000E+00 0. -1.
     999900   -1    0    0    0    0 -0.00000000000E+00 -0.00000000000E+00 -0.74505805969E-08  0.93827000000E+00  0.93827000000E+00 0. -1.
     999902    2    1    2    0    0 -0.20616418961E-01 -0.10057508936E-01 -0.55184219324E-02  0.10203367129E+01  0.10200639021E+01 0.  0.
     999903    2    3    3    0    0  0.55748217735E-01  0.74341754283E-01  0.86068553547E-01  0.12829244971E+00  0.20410696511E-01 0.  0.
         14    1    1    2    0    0  0.20616418961E-01  0.10057508936E-01  0.55184219324E-02  0.23593287126E-01  0.00000000000E+00 0. -1.
     999901    1    3    3    0    0 -0.76364636696E-01 -0.84399263219E-01 -0.91586975480E-01  0.89204426317E+00  0.88000000000E+00 0. -1.
        -11    1    4    4    0    0  0.64315898413E-02  0.23224506774E-01  0.21379030586E-01  0.32219049219E-01  0.51100000000E-03 0.  1.
         11    1    4    4    0    0  0.49316627893E-01  0.51117247509E-01  0.64689522961E-01  0.96073400489E-01  0.51100000000E-03 0. -1.
</event>
<event>
 8    1  0.1061722E+005  0.1043930E+01  0.7957747E-01            NaN
         13   -1    0    0    0    0  0.00000000000E+00  0.00000000000E+00  0.74505805969E-08  0.10566000000E+00  0.10566000000E+00 0. -1.
     999900   -1    0    0    0    0 -0.00000000000E+00 -0.00000000000E+00 -0.74505805969E-08  0.93827000000E+00  0.93827000000E+00 0. -1.
     999902    2    1    2    0    0  0.76731311145E-02  0.37259966288E-02 -0.22781841869E-01  0.10196036293E+01  0.10193133908E+01 0.  0.
     999903    2    3    3    0    0  0.10368780958E+00 -0.19678500967E-01 -0.77401266610E-01  0.13238895938E+00  0.19936780971E-01 0.  0.
         14    1    1    2    0    0 -0.76731311145E-02 -0.37259966288E-02  0.22781841869E-01  0.24326370689E-01  0.00000000000E+00 0. -1.
     999901    1    3    3    0    0 -0.96014678468E-01  0.23404497596E-01  0.54619424741E-01  0.88721466994E+00  0.88000000000E+00 0.  1.
        -11    1    4    4    0    0  0.35172690558E-01 -0.13588600310E-01 -0.19374485801E-01  0.42395754983E-01  0.51100000000E-03 0.  1.
         11    1    4    4    0    0  0.68515119024E-01 -0.60899006568E-02 -0.58026780809E-01  0.89993204393E-01  0.51100000000E-03 0. -1.
</event>
<event>
 8    1  0.1061722E+005  0.1043930E+01  0.7957747E-01            NaN
         13   -1    0    0    0    0  0.00000000000E+00  0.00000000000E+00  0.74505805969E-08  0.10566000000E+00  0.10566000000E+00 0.  1.
     999900   -1    0    0    0    0 -0.00000000000E+00 -0.00000000000E+00 -0.74505805969E-08  0.93827000000E+00  0.93827000000E+00 0.  1.
     999902    2    1    2    0    0 -0.12314694474E-01 -0.71568090125E-02  0.18482285263E-01  0.10205961944E+01  0.10203294201E+01 0.  0.
     999903    2    3    3    0    0  0.83853897661E-01 -0.48902001830E-01 -0.82087978231E-01  0.12868507936E+00  0.19963254834E-01 0.  0.
         14    1    1    2    0    0  0.12314694474E-01  0.71568090125E-02 -0.18482285263E-01  0.23333805600E-01  0.00000000000E+00 0. -1.
     999901    1    3    3    0    0 -0.96168592134E-01  0.41745192818E-01  0.10057026349E+00  0.89191111504E+00  0.88000000000E+00 0. -1.
        -11    1    4    4    0    0  0.37094439238E-01 -0.32988645123E-01 -0.38844752615E-01  0.63035101778E-01  0.51100000000E-03 0.  1.
         11    1    4    4    0    0  0.46759458422E-01 -0.15913356708E-01 -0.43243225616E-01  0.65649977580E-01  0.51100000000E-03 0. -1.
</event>
<event>
 8    1  0.1061722E+005  0.1043930E+01  0.7957747E-01            NaN
         13   -1    0    0    0    0  0.00000000000E+00  0.00000000000E+00  0.74505805969E-08  0.10566000000E+00  0.10566000000E+00 0.  1.
     999900   -1    0    0    0    0 -0.00000000000E+00 -0.00000000000E+00 -0.74505805969E-08  0.93827000000E+00  0.93827000000E+00 0.  1.
     999902    2    1    2    0    0  0.68164775226E-02 -0.13522518589E-01  0.18076496647E-01  0.10203485962E+01  0.10200760634E+01 0.  0.
     999903    2    3    3    0    0  0.34179301602E-01  0.16067995339E-01 -0.12111581000E+00  0.12849725157E+00  0.20398507257E-01 0.  0.
         14    1    1    2    0    0 -0.68164775226E-02  0.13522518589E-01 -0.18076496647E-01  0.23581403814E-01  0.00000000000E+00 0. -1.
     999901    1    3    3    0    0 -0.27362824080E-01 -0.29590513928E-01  0.13919230665E+00  0.89185134461E+00  0.88000000000E+00 0. -1.
        -11    1    4    4    0    0  0.25676169289E-01  0.15042049300E-01 -0.11237344390E+00  0.11624792872E+00  0.51100000000E-03 0.  1.
         11    1    4    4    0    0  0.85031323133E-02  0.10259460390E-02 -0.87423660983E-02  0.12249322855E-01  0.51100000000E-03 0. -1.
</event>
<event>
 8    1  0.1061722E+005  0.1043930E+01  0.7957747E-01            NaN
         13   -1    0    0    0    0  0.00000000000E+00  0.00000000000E+00  0.74505805969E-08  0.10566000000E+00  0.10566000000E+00 0.  1.
     999900   -1    0    0    0    0 -0.00000000000E+00 -0.00000000000E+00 -0.74505805969E-08  0.93827000000E+00  0.93827000000E+00 0. -1.
     999902    2    1    2    0    0 -0.22145727599E-01  0.74139038494E-02  0.50437850144E-02  0.10200377630E+01  0.10197579119E+01 0.  0.
     999903    2    3    3    0    0 -0.58231138217E-01  0.63209456419E-01 -0.97597445128E-01  0.13158375594E+00  0.20067951908E-01 0.  0.
         14    1    1    2    0    0  0.22145727599E-01 -0.74139038494E-02 -0.50437850144E-02  0.23892236991E-01  0.00000000000E+00 0. -1.
     999901    1    3    3    0    0  0.36085410618E-01 -0.55795552570E-01  0.10264123014E+00  0.88845400707E+00  0.88000000000E+00 0.  1.
        -11    1    4    4    0    0 -0.39009473230E-01  0.27616744207E-01 -0.52368744047E-01  0.70902538997E-01  0.51100000000E-03 0.  1.
         11    1    4    4    0    0 -0.19221664987E-01  0.35592712212E-01 -0.45228701082E-01  0.60681216946E-01  0.51100000000E-03 0. -1.
</event>
<event>
 8    1  0.1193175E+005  0.1043930E+01  0.7957747E-01            NaN
         13   -1    0    0    0    0  0.00000000000E+00  0.00000000000E+00  0.74505805969E-08  0.10566000000E+00  0.10566000000E+00 0.  1.
     999900   -1    0    0    0    0 -0.00000000000E+00 -0.00000000000E+00 -0.74505805969E-08  0.93827000000E+00  0.93827000000E+00 0.  1.
     999902    2    1    2    0    0 -0.13971930076E-01  0.11691446274E-01  0.15682258207E-01  0.10198917395E+01  0.10196084162E+01 0.  0.
     999903    2    3    3    0    0  0.12381109747E+00  0.30769072340E-01  0.17004447662E-02  0.12885660572E+00  0.18033570242E-01 0.  0.
         14    1    1    2    0    0  0.13971930076E-01 -0.11691446274E-01 -0.15682258207E-01  0.24038260513E-01  0.00000000000E+00 0. -1.
     999901    1    3    3    0    0 -0.13778302755E+00 -0.19077626066E-01  0.13981813441E-01  0.89103513377E+00  0.88000000000E+00 0.  1.
        -11    1    4    4    0    0  0.85008287771E-01  0.16824697551E-01  0.84601389944E-02  0.87070744285E-01  0.51100000000E-03 0.  1.
         11    1    4    4    0    0  0.38802809701E-01  0.13944374789E-01 -0.67596942282E-02  0.41785861437E-01  0.51100000000E-03 0. -1.
</event>
<event>
 8    1  0.1061722E+005  0.1043930E+01  0.7957747E-01            NaN
         13   -1    0    0    0    0  0.00000000000E+00  0.00000000000E+00  0.74505805969E-08  0.10566000000E+00  0.10566000000E+00 0. -1.
     999900   -1    0    0    0    0 -0.00000000000E+00 -0.00000000000E+00 -0.74505805969E-08  0.93827000000E+00  0.93827000000E+00 0.  1.
     999902    2    1    2    0    0  0.12224364340E-01 -0.21975402563E-01 -0.13898243962E-01  0.10151982304E+01  0.10147915709E+01 0.  0.
     999903    2    3    3    0    0 -0.83939229606E-01  0.20561470519E-01 -0.89109414219E-01  0.12575259262E+00  0.20116125634E-01 0.  0.
         14    1    1    2    0    0 -0.12224364340E-01  0.21975402563E-01  0.13898243962E-01  0.28731769639E-01  0.00000000000E+00 0.  1.
     999901    1    3    3    0    0  0.96163593946E-01 -0.42536873082E-01  0.75211170257E-01  0.88944563775E+00  0.88000000000E+00 0. -1.
        -11    1    4    4    0    0 -0.18454661553E-01  0.10217668939E-01 -0.12859622746E-01  0.24710449404E-01  0.51100000000E-03 0.  1.
         11    1    4    4    0    0 -0.65484568052E-01  0.10343801580E-01 -0.76249791473E-01  0.10104214321E+00  0.51100000000E-03 0. -1.
</event>
<event>
 8    1  0.1061722E+005  0.1043930E+01  0.7957747E-01            NaN
         13   -1    0    0    0    0  0.00000000000E+00  0.00000000000E+00  0.74505805969E-08  0.10566000000E+00  0.10566000000E+00 0.  1.
     999900   -1    0    0    0    0 -0.00000000000E+00 -0.00000000000E+00 -0.74505805969E-08  0.93827000000E+00  0.93827000000E+00 0.  1.
     999902    2    1    2    0    0  0.20159256839E-01  0.11929756632E-01 -0.21945563562E-02  0.10204027646E+01  0.10201314970E+01 0.  0.
     999903    2    3    3    0    0 -0.29675666785E-01 -0.10039844954E+00  0.72032698730E-01  0.12876896591E+00  0.20790455124E-01 0.  0.
         14    1    1    2    0    0 -0.20159256839E-01 -0.11929756632E-01  0.21945563562E-02  0.23527235435E-01  0.00000000000E+00 0. -1.
     999901    1    3    3    0    0  0.49834923624E-01  0.11232820617E+00 -0.74227255086E-01  0.89163379866E+00  0.88000000000E+00 0. -1.
        -11    1    4    4    0    0 -0.17105808525E-01 -0.66536370119E-01  0.35261397651E-01  0.77222564832E-01  0.51100000000E-03 0.  1.
         11    1    4    4    0    0 -0.12569858260E-01 -0.33862079424E-01  0.36771301079E-01  0.51546401074E-01  0.51100000000E-03 0. -1.
</event>
<event>
 8    1  0.1061722E+005  0.1043930E+01  0.7957747E-01            NaN
         13   -1    0    0    0    0  0.00000000000E+00  0.00000000000E+00  0.74505805969E-08  0.10566000000E+00  0.10566000000E+00 0.  1.
     999900   -1    0    0    0    0 -0.00000000000E+00 -0.00000000000E+00 -0.74505805969E-08  0.93827000000E+00  0.93827000000E+00 0.  1.
     999902    2    1    2    0    0 -0.20328252199E-01 -0.10575060316E-01 -0.69799917104E-02  0.10199760854E+01  0.10196947704E+01 0.  0.
     999903    2    3    3    0    0  0.12639917899E-01  0.12370593911E+00 -0.27267002069E-01  0.12894867294E+00  0.20526664505E-01 0.  0.
         14    1    1    2    0    0  0.20328252199E-01  0.10575060316E-01  0.69799917104E-02  0.23953914553E-01  0.00000000000E+00 0.  1.
     999901    1    3    3    0    0 -0.32968170098E-01 -0.13428099943E+00  0.20287010359E-01  0.89102741251E+00  0.88000000000E+00 0.  1.
        -11    1    4    4    0    0  0.15241487742E-01  0.84428570550E-01 -0.25656926788E-01  0.89549011647E-01  0.51100000000E-03 0. -1.
         11    1    4    4    0    0 -0.26015698434E-02  0.39277368561E-01 -0.16100752813E-02  0.39399661295E-01  0.51100000000E-03 0.  1.
</event>
<event>
 8    1  0.1061722E+005  0.1043930E+01  0.7957747E-01            NaN
         13   -1    0    0    0    0  0.00000000000E+00  0.00000000000E+00  0.74505805969E-08  0.10566000000E+00  0.10566000000E+00 0.  1.
     999900   -1    0    0    0    0 -0.00000000000E+00 -0.00000000000E+00 -0.74505805969E-08  0.93827000000E+00  0.93827000000E+00 0.  1.
     999902    2    1    2    0    0 -0.21391617523E-01 -0.18605608777E-02  0.13618015983E-01  0.10185033733E+01  0.10181859398E+01 0.  0.
     999903    2    3    3    0    0  0.17791545845E-01 -0.80015758213E-02 -0.12373527266E+00  0.12696596057E+00  0.20721320510E-01 0.  0.
         14    1    1    2    0    0  0.21391617523E-01  0.18605608777E-02 -0.13618015983E-01  0.25426626720E-01  0.00000000000E+00 0. -1.
     999901    1    3    3    0    0 -0.39183163368E-01  0.61410149436E-02  0.13735328865E+00  0.89153741271E+00  0.88000000000E+00 0. -1.
        -11    1    4    4    0    0  0.20300288619E-01 -0.40503086880E-02 -0.69299483116E-01  0.72326939653E-01  0.51100000000E-03 0. -1.
         11    1    4    4    0    0 -0.25087427743E-02 -0.39512671333E-02 -0.54435789548E-01  0.54639020919E-01  0.51100000000E-03 0.  1.
</event>
<event>
 8    1  0.1061722E+005  0.1043930E+01  0.7957747E-01            NaN
         13   -1    0    0    0    0  0.00000000000E+00  0.00000000000E+00  0.74505805969E-08  0.10566000000E+00  0.10566000000E+00 0.  1.
     999900   -1    0    0    0    0 -0.00000000000E+00 -0.00000000000E+00 -0.74505805969E-08  0.93827000000E+00  0.93827000000E+00 0.  1.
     999902    2    1    2    0    0 -0.17881393560E-01 -0.10983957642E-01  0.11011952759E-01  0.10202307455E+01  0.10199554497E+01 0.  0.
     999903    2    3    3    0    0  0.12460420978E-01 -0.12749134098E+00  0.25001971834E-01  0.13192318798E+00  0.19217825499E-01 0.  0.
         14    1    1    2    0    0  0.17881393560E-01  0.10983957642E-01 -0.11011952759E-01  0.23699254518E-01  0.00000000000E+00 0. -1.
     999901    1    3    3    0    0 -0.30341814538E-01  0.11650738333E+00 -0.13990019075E-01  0.88830755750E+00  0.88000000000E+00 0.  1.
        -11    1    4    4    0    0  0.68509244389E-02 -0.11591100377E+00  0.18787433797E-01  0.11762450744E+00  0.51100000000E-03 0. -1.
         11    1    4    4    0    0  0.56094965391E-02 -0.11580337202E-01  0.62145380368E-02  0.14298680538E-01  0.51100000000E-03 0.  1.
</event>
<event>
 8    1  0.1061722E+005  0.1043930E+01  0.7957747E-01            NaN
         13   -1    0    0    0    0  0.00000000000E+00  0.00000000000E+00  0.74505805969E-08  0.10566000000E+00  0.10566000000E+00 0.  1.
     999900   -1    0    0    0    0 -0.00000000000E+00 -0.00000000000E+00 -0.74505805969E-08  0.93827000000E+00  0.93827000000E+00 0. -1.
     999902    2    1    2    0    0  0.21372301790E-01 -0.95544750251E-02  0.15295078677E-02  0.10204693378E+01  0.10201996210E+01 0.  0.
     999903    2    3    3    0    0 -0.98843222974E-01  0.66997905941E-01 -0.41755709050E-01  0.12795286768E+00  0.19227453816E-01 0.  0.
         14    1    1    2    0    0 -0.21372301790E-01  0.95544750251E-02 -0.15295078677E-02  0.23460662206E-01  0.00000000000E+00 0.  1.
     999901    1    3    3    0    0  0.12021552476E+00 -0.76552380966E-01  0.43285216917E-01  0.89251647012E+00  0.88000000000E+00 0. -1.
        -11    1    4    4    0    0 -0.92560417257E-01  0.56613383145E-01 -0.34758673934E-01  0.11393389543E+00  0.51100000000E-03 0. -1.
         11    1    4    4    0    0 -0.62828057170E-02  0.10384522796E-01 -0.69970351156E-02  0.14018972244E-01  0.51100000000E-03 0.  1.
</event>
<event>
 8    1  0.1061722E+005  0.1043930E+01  0.7957747E-01            NaN
         13   -1    0    0    0    0  0.00000000000E+00  0.00000000000E+00  0.74505805969E-08  0.10566000000E+00  0.10566000000E+00 0. -1.
     999900   -1    0    0    0    0 -0.00000000000E+00 -0.00000000000E+00 -0.74505805969E-08  0.93827000000E+00  0.93827000000E+00 0.  1.
     999902    2    1    2    0    0  0.16792966969E-02 -0.10875375017E-01 -0.17264937207E-01  0.10234563126E+01  0.10232515096E+01 0.  0.
     999903    2    3    3    0    0 -0.19558246914E-01  0.10568475719E+00  0.72260428411E-01  0.13101466814E+00  0.19785874460E-01 0.  0.
         14    1    1    2    0    0 -0.16792966969E-02  0.10875375017E-01  0.17264937207E-01  0.20473687404E-01  0.00000000000E+00 0. -1.
     999901    1    3    3    0    0  0.21237543611E-01 -0.11656013221E+00 -0.89525365618E-01  0.89244164446E+00  0.88000000000E+00 0.  1.
        -11    1    4    4    0    0  0.24719955614E-03  0.38796634102E-01  0.33181682933E-01  0.51054139191E-01  0.51100000000E-03 0. -1.
         11    1    4    4    0    0 -0.19805446471E-01  0.66888123087E-01  0.39078745477E-01  0.79960528945E-01  0.51100000000E-03 0.  1.
</event>
<event>
 7    1  0.1061722E+005  0.1043930E+01  0.7957747E-01            NaN
         13   -1    0    0    0    0  0.00000000000E+00  0.00000000000E+00  0.74505805969E-08  0.10566000000E+00  0.10566000000E+00 0.  1.
     999900   -1    0    0    0    0 -0.00000000000E+00 -0.00000000000E+00 -0.74505805969E-08  0.93827000000E+00  0.93827000000E+00 0.  1.
     999903    2    1    2    0    0  0.18774100640E-01  0.25787151779E-01 -0.10631396435E+00  0.11286473017E+00  0.20453465396E-01 0.  0.
         14    1    1    2    0    0 -0.30550704179E-01  0.20721520372E-02  0.36701926031E-01  0.47798229196E-01  0.00000000000E+00 0.  1.
     999901    1    1    2    0    0  0.11776603538E-01 -0.27859303817E-01  0.69612038323E-01  0.88326704064E+00  0.88000000000E+00 0. -1.
        -11    1    3    3    0    0  0.44578371089E-02  0.22597285158E-01 -0.70148595162E-01  0.73834924882E-01  0.51100000000E-03 0. -1.
         11    1    3    3    0    0  0.14316263532E-01  0.31898666215E-02 -0.36165369193E-01  0.39029805283E-01  0.51100000000E-03 0.  1.
</event>
<event>
 8    1  0.1061722E+005  0.1043930E+01  0.7957747E-01            NaN
         13   -1    0    0    0    0  0.00000000000E+00  0.00000000000E+00  0.74505805969E-08  0.10566000000E+00  0.10566000000E+00 0. -1.
     999900   -1    0    0    0    0 -0.00000000000E+00 -0.00000000000E+00 -0.74505805969E-08  0.93827000000E+00  0.93827000000E+00 0. -1.
     999902    2    1    2    0    0  0.20225263324E-01  0.14667733409E-01  0.26310576490E-02  0.10188077759E+01  0.10184979912E+01 0.  0.
     999903    2    3    3    0    0 -0.11524799291E+00 -0.24906440881E-01 -0.39749587677E-01  0.12655487591E+00  0.23101433469E-01 0.  0.
         14    1    1    2    0    0 -0.20225263324E-01 -0.14667733409E-01 -0.26310576490E-02  0.25122224110E-01  0.00000000000E+00 0. -1.
     999901    1    3    3    0    0  0.13547325624E+00  0.39574174290E-01  0.42380645326E-01  0.89225289998E+00  0.88000000000E+00 0. -1.
        -11    1    4    4    0    0 -0.45762640140E-01 -0.10732859289E-01 -0.41136293515E-02  0.47186826218E-01  0.51100000000E-03 0.  1.
         11    1    4    4    0    0 -0.69485352772E-01 -0.14173581592E-01 -0.35635958326E-01  0.79368049691E-01  0.51100000000E-03 0. -1.
</event>
<event>
 8    1  0.1061722E+005  0.1043930E+01  0.7957747E-01            NaN
         13   -1    0    0    0    0  0.00000000000E+00  0.00000000000E+00  0.74505805969E-08  0.10566000000E+00  0.10566000000E+00 0. -1.
     999900   -1    0    0    0    0 -0.00000000000E+00 -0.00000000000E+00 -0.74505805969E-08  0.93827000000E+00  0.93827000000E+00 0. -1.
     999902    2    1    2    0    0 -0.10129910133E-01  0.21398939957E-01 -0.42531600638E-02  0.10198754977E+01  0.10195917868E+01 0.  0.
     999903    2    3    3    0    0 -0.67852487687E-01  0.10637768795E+00 -0.37557580974E-01  0.13327385771E+00  0.20764794299E-01 0.  0.
         14    1    1    2    0    0  0.10129910133E-01 -0.21398939957E-01  0.42531600638E-02  0.24054502304E-01  0.00000000000E+00 0. -1.
     999901    1    3    3    0    0  0.57722577553E-01 -0.84978747992E-01  0.33304420910E-01  0.88660163998E+00  0.88000000000E+00 0.  1.
        -11    1    4    4    0    0 -0.26368942135E-01  0.25381225377E-01 -0.69177871692E-02  0.37251102148E-01  0.51100000000E-03 0. -1.
         11    1    4    4    0    0 -0.41483545552E-01  0.80996462571E-01 -0.30639793805E-01  0.96022755564E-01  0.51100000000E-03 0.  1.
</event>
<event>
 8    1  0.1061722E+005  0.1043930E+01  0.7957747E-01            NaN
         13   -1    0    0    0    0  0.00000000000E+00  0.00000000000E+00  0.74505805969E-08  0.10566000000E+00  0.10566000000E+00 0. -1.
     999900   -1    0    0    0    0 -0.00000000000E+00 -0.00000000000E+00 -0.74505805969E-08  0.93827000000E+00  0.93827000000E+00 0.  1.
     999902    2    1    2    0    0 -0.14979288812E-01 -0.11181091770E-01 -0.13911039135E-01  0.10206295082E+01  0.10203635039E+01 0.  0.
     999903    2    3    3    0    0  0.92410450387E-01 -0.67269545079E-01 -0.59452300786E-01  0.13116198371E+00  0.24576551143E-01 0.  0.
         14    1    1    2    0    0  0.14979288812E-01  0.11181091770E-01  0.13911039135E-01  0.23300491761E-01  0.00000000000E+00 0.  1.
     999901    1    3    3    0    0 -0.10738973920E+00  0.56088453308E-01  0.45541261651E-01  0.88946752453E+00  0.88000000000E+00 0. -1.
        -11    1    4    4    0    0  0.23937337335E-01 -0.70400081520E-02 -0.68297717715E-02  0.25874016637E-01  0.51100000000E-03 0. -1.
         11    1    4    4    0    0  0.68473113052E-01 -0.60229536927E-01 -0.52622529014E-01  0.10528796707E+00  0.51100000000E-03 0.  1.
</event>
<event>
 8    1  0.1061722E+005  0.1043930E+01  0.7957747E-01            NaN
         13   -1    0    0    0    0  0.00000000000E+00  0.00000000000E+00  0.74505805969E-08  0.10566000000E+00  0.10566000000E+00 0.  1.
     999900   -1    0    0    0    0 -0.00000000000E+00 -0.00000000000E+00 -0.74505805969E-08  0.93827000000E+00  0.93827000000E+00 0. -1.
     999902    2    1    2    0    0  0.13795242060E-01  0.17577616753E-01  0.64030032223E-02  0.10206860811E+01  0.10204213818E+01 0.  0.
     999903    2    3    3    0    0  0.11493705246E+00  0.61443315648E-01  0.16771340441E-01  0.13374675526E+00  0.24922070882E-01 0.  0.
         14    1    1    2    0    0 -0.13795242060E-01 -0.17577616753E-01 -0.64030032223E-02  0.23243918871E-01  0.00000000000E+00 0.  1.
     999901    1    3    3    0    0 -0.10114181040E+00 -0.43865698895E-01 -0.10368337219E-01  0.88693932587E+00  0.88000000000E+00 0. -1.
        -11    1    4    4    0    0  0.46391798251E-01  0.35569233049E-01  0.15447263556E-01  0.60466919526E-01  0.51100000000E-03 0. -1.
         11    1    4    4    0    0  0.68545254210E-01  0.25874082599E-01  0.13240768857E-02  0.73279835737E-01  0.51100000000E-03 0.  1.
</event>
<event>
 8    1  0.1061722E+005  0.1043930E+01  0.7957747E-01            NaN
         13   -1    0    0    0    0  0.00000000000E+00  0.00000000000E+00  0.74505805969E-08  0.10566000000E+00  0.10566000000E+00 0.  1.
     999900   -1    0    0    0    0 -0.00000000000E+00 -0.00000000000E+00 -0.74505805969E-08  0.93827000000E+00  0.93827000000E+00 0. -1.
     999902    2    1    2    0    0  0.23070257224E-01 -0.34706079584E-02 -0.65320654952E-03  0.10205910076E+01  0.10203241133E+01 0.  0.
     999903    2    3    3    0    0  0.10319975480E+00 -0.25733853594E-01 -0.77767677528E-01  0.13331256757E+00  0.20297989835E-01 0.  0.
         14    1    1    2    0    0 -0.23070257224E-01  0.34706079584E-02  0.65320654952E-03  0.23338992412E-01  0.00000000000E+00 0. -1.
     999901    1    3    3    0    0 -0.80129497579E-01  0.22263245636E-01  0.77114470979E-01  0.88727844002E+00  0.88000000000E+00 0.  1.
        -11    1    4    4    0    0  0.62911569154E-01 -0.13970653866E-01 -0.34782110771E-01  0.73233196390E-01  0.51100000000E-03 0. -1.
         11    1    4    4    0    0  0.40288185650E-01 -0.11763199729E-01 -0.42985566757E-01  0.60079371179E-01  0.51100000000E-03 0.  1.
</event>
<event>
 8    1  0.1061722E+005  0.1043930E+01  0.7957747E-01            NaN
         13   -1    0    0    0    0  0.00000000000E+00  0.00000000000E+00  0.74505805969E-08  0.10566000000E+00  0.10566000000E+00 0. -1.
     999900   -1    0    0    0    0 -0.00000000000E+00 -0.00000000000E+00 -0.74505805969E-08  0.93827000000E+00  0.93827000000E+00 0. -1.
     999902    2    1    2    0    0 -0.18960134558E-01 -0.44577042407E-03 -0.11160308433E-01  0.10219245939E+01  0.10216876419E+01 0.  0.
     999903    2    3    3    0    0  0.94645115157E-01  0.67674413829E-01 -0.56705789461E-01  0.13084608831E+00  0.19173631831E-01 0.  0.
         14    1    1    2    0    0  0.18960134558E-01  0.44577042407E-03  0.11160308433E-01  0.22005406109E-01  0.00000000000E+00 0. -1.
     999901    1    3    3    0    0 -0.11360524971E+00 -0.68120184253E-01  0.45545481029E-01  0.89107850558E+00  0.88000000000E+00 0.  1.
        -11    1    4    4    0    0  0.20026333638E-01  0.24669955708E-01 -0.14351899818E-01  0.34869741941E-01  0.51100000000E-03 0.  1.
         11    1    4    4    0    0  0.74618781519E-01  0.43004458121E-01 -0.42353889644E-01  0.95976346370E-01  0.51100000000E-03 0. -1.
</event>
<event>
 8    1  0.1061722E+005  0.1043930E+01  0.7957747E-01            NaN
         13   -1    0    0    0    0  0.00000000000E+00  0.00000000000E+00  0.74505805969E-08  0.10566000000E+00  0.10566000000E+00 0. -1.
     999900   -1    0    0    0    0 -0.00000000000E+00 -0.00000000000E+00 -0.74505805969E-08  0.93827000000E+00  0.93827000000E+00 0. -1.
     999902    2    1    2    0    0 -0.61823902208E-02  0.16192793980E-01 -0.16105284486E-01  0.10202697229E+01  0.10199953425E+01 0.  0.
     999903    2    3    3    0    0  0.79865486091E-01 -0.98513077676E-01 -0.37913394926E-02  0.12857846057E+00  0.20850034195E-01 0.  0.
         14    1    1    2    0    0  0.61823902208E-02 -0.16192793980E-01  0.16105284486E-01  0.23660277135E-01  0.00000000000E+00 0. -1.
     999901    1    3    3    0    0 -0.86047876312E-01  0.11470587166E+00 -0.12313944994E-01  0.89169126229E+00  0.88000000000E+00 0.  1.
        -11    1    4    4    0    0  0.37705009998E-01 -0.30965872179E-01 -0.39319918249E-02  0.48951758901E-01  0.51100000000E-03 0.  1.
         11    1    4    4    0    0  0.42160476093E-01 -0.67547205497E-01  0.14065233235E-03  0.79626701670E-01  0.51100000000E-03 0. -1.
</event>
<event>
 8    1  0.1061722E+005  0.1043930E+01  0.7957747E-01            NaN
         13   -1    0    0    0    0  0.00000000000E+00  0.00000000000E+00  0.74505805969E-08  0.10566000000E+00  0.10566000000E+00 0. -1.
     999900   -1    0    0    0    0 -0.00000000000E+00 -0.00000000000E+00 -0.74505805969E-08  0.93827000000E+00  0.93827000000E+00 0.  1.
     999902    2    1    2    0    0  0.82221026092E-02  0.39710644350E-02  0.22104622178E-01  0.10200137577E+01  0.10197333373E+01 0.  0.
     999903    2    3    3    0    0 -0.88065566850E-01 -0.55700847746E-01 -0.71314023957E-01  0.12784836057E+00  0.20034589664E-01 0.  0.
         14    1    1    2    0    0 -0.82221026092E-02 -0.39710644350E-02 -0.22104622178E-01  0.23916242299E-01  0.00000000000E+00 0.  1.
     999901    1    3    3    0    0  0.96287669459E-01  0.59671912181E-01  0.93418646135E-01  0.89216539713E+00  0.88000000000E+00 0. -1.
        -11    1    4    4    0    0 -0.20303569478E-01 -0.10022057335E-01 -0.25710456853E-01  0.34263176726E-01  0.51100000000E-03 0.  1.
         11    1    4    4    0    0 -0.67761997372E-01 -0.45678790412E-01 -0.45603567104E-01  0.93585183843E-01  0.51100000000E-03 0. -1.
</event>
<event>
 8    1  0.1061722E+005  0.1043930E+01  0.7957747E-01            NaN
         13   -1    0    0    0    0  0.00000000000E+00  0.00000000000E+00  0.74505805969E-08  0.10566000000E+00  0.10566000000E+00 0.  1.
     999900   -1    0    0    0    0 -0.00000000000E+00 -0.00000000000E+00 -0.74505805969E-08  0.93827000000E+00  0.93827000000E+00 0. -1.
     999902    2    1    2    0    0 -0.17931360646E-01 -0.16831650574E-01 -0.11591139516E-02  0.10193092425E+01  0.10190118498E+01 0.  0.
     999903    2    3    3    0    0 -0.60474162181E-02  0.12325895826E+00 -0.26303485464E-01  0.12779432604E+00  0.20252762419E-01 0.  0.
         14    1    1    2    0    0  0.17931360646E-01  0.16831650574E-01  0.11591139516E-02  0.24620757519E-01  0.00000000000E+00 0. -1.
     999901    1    3    3    0    0 -0.11883944428E-01 -0.14009060884E+00  0.25144371512E-01  0.89151491644E+00  0.88000000000E+00 0. -1.
        -11    1    4    4    0    0 -0.16365293915E-03  0.11283787975E+00 -0.21395978486E-01  0.11484974055E+00  0.51100000000E-03 0. -1.
         11    1    4    4    0    0 -0.58837632789E-02  0.10421078512E-01 -0.49075069776E-02  0.12944585486E-01  0.51100000000E-03 0.  1.
</event>
<event>
 8    1  0.1061722E+005  0.1043930E+01  0.7957747E-01            NaN
         13   -1    0    0    0    0  0.00000000000E+00  0.00000000000E+00  0.74505805969E-08  0.10566000000E+00  0.10566000000E+00 0. -1.
     999900   -1    0    0    0    0 -0.00000000000E+00 -0.00000000000E+00 -0.74505805969E-08  0.93827000000E+00  0.93827000000E+00 0. -1.
     999902    2    1    2    0    0 -0.56860814922E-02 -0.10742952454E-01  0.20786033005E-01  0.10198509278E+01  0.10195666301E+01 0.  0.
     999903    2    3    3    0    0 -0.43346802793E-01  0.11769884654E+00  0.26207726455E-01  0.12971328652E+00  0.20167498203E-01 0.  0.
         14    1    1    2    0    0  0.56860814922E-02  0.10742952454E-01 -0.20786033005E-01  0.24079072205E-01  0.00000000000E+00 0.  1.
     999901    1    3    3    0    0  0.37660721301E-01 -0.12844179900E+00 -0.54216934497E-02  0.89013764128E+00  0.88000000000E+00 0.  1.
        -11    1    4    4    0    0 -0.17983683289E-01  0.76298185828E-01  0.13769992302E-01  0.79590827576E-01  0.51100000000E-03 0.  1.
         11    1    4    4    0    0 -0.25363119505E-01  0.41400660713E-01  0.12437734153E-01  0.50122458942E-01  0.51100000000E-03 0. -1.
</event>
<event>
 8    1  0.1061722E+005  0.1043930E+01  0.7957747E-01            NaN
         13   -1    0    0    0    0  0.00000000000E+00  0.00000000000E+00  0.74505805969E-08  0.10566000000E+00  0.10566000000E+00 0. -1.
     999900   -1    0    0    0    0 -0.00000000000E+00 -0.00000000000E+00 -0.74505805969E-08  0.93827000000E+00  0.93827000000E+00 0.  1.
     999902    2    1    2    0    0  0.56524881725E-02  0.11044855359E-02 -0.23512821078E-01  0.10197220826E+01  0.10194346975E+01 0.  0.
     999903    2    3    3    0    0 -0.14507162635E-01  0.14477352914E-01  0.12389071023E+00  0.12713424592E+00  0.19853384873E-01 0.  0.
         14    1    1    2    0    0 -0.56524881725E-02 -0.11044855359E-02  0.23512821078E-01  0.24207917421E-01  0.00000000000E+00 0. -1.
     999901    1    3    3    0    0  0.20159650807E-01 -0.13372867378E-01 -0.14740353131E+00  0.89258783665E+00  0.88000000000E+00 0.  1.
        -11    1    4    4    0    0 -0.95843497630E-02  0.15051029160E-01  0.50274083107E-01  0.53349206109E-01  0.51100000000E-03 0. -1.
         11    1    4    4    0    0 -0.49228128718E-02 -0.57367624610E-03  0.73616627120E-01  0.73785039816E-01  0.51100000000E-03 0.  1.
</event>
<event>
 8    1  0.1061722E+005  0.1043930E+01  0.7957747E-01            NaN
         13   -1    0    0    0    0  0.00000000000E+00  0.00000000000E+00  0.74505805969E-08  0.10566000000E+00  0.10566000000E+00 0.  1.
     999900   -1    0    0    0    0 -0.00000000000E+00 -0.00000000000E+00 -0.74505805969E-08  0.93827000000E+00  0.93827000000E+00 0. -1.
     999902    2    1    2    0    0 -0.15626840671E-01  0.62795688051E-02  0.14090519033E-01  0.10219715424E+01  0.10217356114E+01 0.  0.
     999903    2    3    3    0    0 -0.10604086718E-01 -0.39725060643E-01  0.12550527183E+00  0.13374020928E+00  0.21079450250E-01 0.  0.
         14    1    1    2    0    0  0.15626840671E-01 -0.62795688051E-02 -0.14090519033E-01  0.21958457604E-01  0.00000000000E+00 0. -1.
     999901    1    3    3    0    0 -0.50227539534E-02  0.46004629448E-01 -0.11141475280E+00  0.88823133312E+00  0.88000000000E+00 0. -1.
        -11    1    4    4    0    0  0.17920664486E-03 -0.29832595684E-01  0.65526545526E-01  0.72000035901E-01  0.51100000000E-03 0.  1.
         11    1    4    4    0    0 -0.10783293363E-01 -0.98924649592E-02  0.59978726305E-01  0.61740173379E-01  0.51100000000E-03 0. -1.
</event>
<event>
 8    1  0.1061722E+005  0.1043930E+01  0.7957747E-01            NaN
         13   -1    0    0    0    0  0.00000000000E+00  0.00000000000E+00  0.74505805969E-08  0.10566000000E+00  0.10566000000E+00 0. -1.
     999900   -1    0    0    0    0 -0.00000000000E+00 -0.00000000000E+00 -0.74505805969E-08  0.93827000000E+00  0.93827000000E+00 0.  1.
     999902    2    1    2    0    0  0.12561407854E-02  0.19182532377E-01  0.12907942504E-01  0.10207748188E+01  0.10205121598E+01 0.  0.
     999903    2    3    3    0    0  0.47279710789E-01 -0.72723992080E-02  0.12188752498E+00  0.13246486059E+00  0.20052723080E-01 0.  0.
         14    1    1    2    0    0 -0.12561407854E-02 -0.19182532377E-01 -0.12907942504E-01  0.23155181229E-01  0.00000000000E+00 0.  1.
     999901    1    3    3    0    0 -0.46023570003E-01  0.26454931585E-01 -0.10897958248E+00  0.88830995818E+00  0.88000000000E+00 0.  1.
        -11    1    4    4    0    0  0.31671827268E-01 -0.13903540905E-01  0.74731343196E-01  0.82349546867E-01  0.51100000000E-03 0.  1.
         11    1    4    4    0    0  0.15607883520E-01  0.66311416972E-02  0.47156181786E-01  0.50115313726E-01  0.51100000000E-03 0. -1.
</event>
<event>
 8    1  0.1061722E+005  0.1043930E+01  0.7957747E-01            NaN
         13   -1    0    0    0    0  0.00000000000E+00  0.00000000000E+00  0.74505805969E-08  0.10566000000E+00  0.10566000000E+00 0. -1.
     999900   -1    0    0    0    0 -0.00000000000E+00 -0.00000000000E+00 -0.74505805969E-08  0.93827000000E+00  0.93827000000E+00 0.  1.
     999902    2    1    2    0    0 -0.15561105201E-01  0.16453579580E-01 -0.75625734292E-02  0.10200540541E+01  0.10197745891E+01 0.  0.
     999903    2    3    3    0    0  0.93559735378E-01 -0.74117827316E-01 -0.41776359441E-01  0.12804445731E+00  0.20080897147E-01 0.  0.
         14    1    1    2    0    0  0.15561105201E-01 -0.16453579580E-01  0.75625734292E-02  0.23875945907E-01  0.00000000000E+00 0.  1.
     999901    1    3    3    0    0 -0.10912084058E+00  0.90571406896E-01  0.34213786012E-01  0.89200959678E+00  0.88000000000E+00 0.  1.
        -11    1    4    4    0    0  0.49739410672E-01 -0.51958444006E-01 -0.24694376673E-01  0.76051050208E-01  0.51100000000E-03 0. -1.
         11    1    4    4    0    0  0.43820324705E-01 -0.22159383310E-01 -0.17081982769E-01  0.51993407104E-01  0.51100000000E-03 0.  1.
</event>
<event>
 8    1  0.1061722E+005  0.1043930E+01  0.7957747E-01            NaN
         13   -1    0    0    0    0  0.00000000000E+00  0.00000000000E+00  0.74505805969E-08  0.10566000000E+00  0.10566000000E+00 0. -1.
     999900   -1    0    0    0    0 -0.00000000000E+00 -0.00000000000E+00 -0.74505805969E-08  0.93827000000E+00  0.93827000000E+00 0. -1.
     999902    2    1    2    0    0 -0.66699573188E-02  0.13189159280E-01 -0.18274738708E-01  0.10204266316E+01  0.10201559205E+01 0.  0.
     999903    2    3    3    0    0  0.14350717876E-01  0.34216340057E-01 -0.12650964553E+00  0.13329709977E+00  0.19665334087E-01 0.  0.
         14    1    1    2    0    0  0.66699573188E-02 -0.13189159280E-01  0.18274738708E-01  0.23503368440E-01  0.00000000000E+00 0. -1.
     999901    1    3    3    0    0 -0.21020675195E-01 -0.21027180776E-01  0.10823490682E+00  0.88712953179E+00  0.88000000000E+00 0.  1.
        -11    1    4    4    0    0 -0.39146154877E-02  0.53186379179E-02 -0.34729617814E-01  0.35355616219E-01  0.51100000000E-03 0. -1.
         11    1    4    4    0    0  0.18265333364E-01  0.28897702139E-01 -0.91780027717E-01  0.97941483552E-01  0.51100000000E-03 0.  1.
</event>
<event>
 8    1  0.1061722E+005  0.1043930E+01  0.7957747E-01            NaN
         13   -1    0    0    0    0  0.00000000000E+00  0.00000000000E+00  0.74505805969E-08  0.10566000000E+00  0.10566000000E+00 0.  1.
     999900   -1    0    0    0    0 -0.00000000000E+00 -0.00000000000E+00 -0.74505805969E-08  0.93827000000E+00  0.93827000000E+00 0.  1.
     999902    2    1    2    0    0  0.15619250429E-01  0.15359627659E-01 -0.10483346573E-01  0.10196446196E+01  0.10193553701E+01 0.  0.
     999903    2    3    3    0    0 -0.23938430123E-01  0.12711068699E+00 -0.14252626894E-01  0.13168779811E+00  0.20208008662E-01 0.  0.
         14    1    1    2    0    0 -0.15619250429E-01 -0.15359627659E-01  0.10483346573E-01  0.24285380400E-01  0.00000000000E+00 0.  1.
     999901    1    3    3    0    0  0.39557680552E-01 -0.11175105933E+00  0.37692803210E-02  0.88795682149E+00  0.88000000000E+00 0.  1.
        -11    1    4    4    0    0  0.13386492362E-02  0.64421809612E-02  0.29056684737E-02  0.72109435994E-02  0.51100000000E-03 0. -1.
         11    1    4    4    0    0 -0.25277079360E-01  0.12066850603E+00 -0.17158295368E-01  0.12447685451E+00  0.51100000000E-03 0.  1.
</event>
<event>
 8    1  0.1061722E+005  0.1043930E+01  0.7957747E-01            NaN
         13   -1    0    0    0    0  0.00000000000E+00  0.00000000000E+00  0.74505805969E-08  0.10566000000E+00  0.10566000000E+00 0. -1.
     999900   -1    0    0    0    0 -0.00000000000E+00 -0.00000000000E+00 -0.74505805969E-08  0.93827000000E+00  0.93827000000E+00 0. -1.
     999902    2    1    2    0    0 -0.20989327886E-01 -0.60269051217E-03 -0.11614856895E-01  0.10199337498E+01  0.10196514277E+01 0.  0.
     999903    2    3    3    0    0 -0.62763912941E-01  0.11377637095E+00  0.51048526367E-02  0.13139155369E+00  0.18796529081E-01 0.  0.
         14    1    1    2    0    0  0.20989327886E-01  0.60269051217E-03  0.11614856895E-01  0.23996250158E-01  0.00000000000E+00 0. -1.
     999901    1    3    3    0    0  0.41774585054E-01 -0.11437906146E+00 -0.16719709531E-01  0.88854219615E+00  0.88000000000E+00 0.  1.
        -11    1    4    4    0    0 -0.45291093236E-01  0.95771151705E-01  0.89150174595E-03  0.10594551676E+00  0.51100000000E-03 0. -1.
         11    1    4    4    0    0 -0.17472819705E-01  0.18005219247E-01  0.42133508908E-02  0.25446036927E-01  0.51100000000E-03 0.  1.
</event>
<event>
 8    1  0.1061722E+005  0.1043930E+01  0.7957747E-01            NaN
         13   -1    0    0    0    0  0.00000000000E+00  0.00000000000E+00  0.74505805969E-08  0.10566000000E+00  0.10566000000E+00 0. -1.
     999900   -1    0    0    0    0 -0.00000000000E+00 -0.00000000000E+00 -0.74505805969E-08  0.93827000000E+00  0.93827000000E+00 0.  1.
     999902    2    1    2    0    0 -0.33508188095E-02  0.16840440242E-01  0.17177366694E-01  0.10196423418E+01  0.10193530374E+01 0.  0.
     999903    2    3    3    0    0 -0.78369516521E-01 -0.23742364092E-01  0.10103084317E+00  0.13155103201E+00  0.19823263572E-01 0.  0.
         14    1    1    2    0    0  0.33508188095E-02 -0.16840440242E-01 -0.17177366694E-01  0.24287658198E-01  0.00000000000E+00 0.  1.
     999901    1    3    3    0    0  0.75018697712E-01  0.40582804334E-01 -0.83853476474E-01  0.88809130979E+00  0.88000000000E+00 0.  1.
        -11    1    4    4    0    0 -0.30808755291E-01 -0.17005018227E-01  0.52992418421E-01  0.63614523330E-01  0.51100000000E-03 0. -1.
         11    1    4    4    0    0 -0.47560761230E-01 -0.67373458657E-02  0.48038424747E-01  0.67936508678E-01  0.51100000000E-03 0.  1.
</event>
<event>
 8    1  0.1061722E+005  0.1043930E+01  0.7957747E-01            NaN
         13   -1    0    0    0    0  0.00000000000E+00  0.00000000000E+00  0.74505805969E-08  0.10566000000E+00  0.10566000000E+00 0. -1.
     999900   -1    0    0    0    0 -0.00000000000E+00 -0.00000000000E+00 -0.74505805969E-08  0.93827000000E+00  0.93827000000E+00 0.  1.
     999902    2    1    2    0    0 -0.12869463538E-01  0.19959641009E-01 -0.48106124167E-02  0.10196987732E+01  0.10194108277E+01 0.  0.
     999903    2    3    3    0    0  0.84709731661E-01  0.86569353998E-01 -0.45345556493E-01  0.13087841176E+00  0.20073551785E-01 0.  0.
         14    1    1    2    0    0  0.12869463538E-01 -0.19959641009E-01  0.48106124167E-02  0.24231226811E-01  0.00000000000E+00 0.  1.
     999901    1    3    3    0    0 -0.97579195199E-01 -0.66609712989E-01  0.40534944076E-01  0.88882036143E+00  0.88000000000E+00 0.  1.
        -11    1    4    4    0    0  0.60720664571E-01  0.67283523747E-01 -0.42067377012E-01  0.99919952979E-01  0.51100000000E-03 0. -1.
         11    1    4    4    0    0  0.23989067090E-01  0.19285830251E-01 -0.32781794814E-02  0.30958458780E-01  0.51100000000E-03 0.  1.
</event>
<event>
 8    1  0.1061722E+005  0.1043930E+01  0.7957747E-01            NaN
         13   -1    0    0    0    0  0.00000000000E+00  0.00000000000E+00  0.74505805969E-08  0.10566000000E+00  0.10566000000E+00 0.  1.
     999900   -1    0    0    0    0 -0.00000000000E+00 -0.00000000000E+00 -0.74505805969E-08  0.93827000000E+00  0.93827000000E+00 0.  1.
     999902    2    1    2    0    0  0.70997234013E-02  0.20900409368E-01 -0.86943647966E-02  0.10202060635E+01  0.10199301872E+01 0.  0.
     999903    2    3    3    0    0  0.10390071980E+00  0.62250264294E-01  0.49281043603E-01  0.13203862917E+00  0.18306374752E-01 0.  0.
         14    1    1    2    0    0 -0.70997234013E-02 -0.20900409368E-01  0.86943647966E-02  0.23723936506E-01  0.00000000000E+00 0.  1.
     999901    1    3    3    0    0 -0.96800996396E-01 -0.41349854926E-01 -0.57975408400E-01  0.88816743432E+00  0.88000000000E+00 0. -1.
        -11    1    4    4    0    0  0.65242811065E-01  0.49091505569E-01  0.32178535926E-01  0.87762860083E-01  0.51100000000E-03 0. -1.
         11    1    4    4    0    0  0.38657908733E-01  0.13158758725E-01  0.17102507677E-01  0.44275769092E-01  0.51100000000E-03 0.  1.
</event>
<event>
 8    1  0.1061722E+005  0.1043930E+01  0.7957747E-01            NaN
         13   -1    0    0    0    0  0.00000000000E+00  0.00000000000E+00  0.74505805969E-08  0.10566000000E+00  0.10566000000E+00 0.  1.
     999900   -1    0    0    0    0 -0.00000000000E+00 -0.00000000000E+00 -0.74505805969E-08  0.93827000000E+00  0.93827000000E+00 0. -1.
     999902    2    1    2    0    0  0.12046622427E-01  0.16167015153E-01  0.10057046068E-01  0.10213991841E+01  0.10211506527E+01 0.  0.
     999903    2    3    3    0    0 -0.24194880646E-01  0.75087404490E-01 -0.10335903859E+00  0.13142824798E+00  0.19151578192E-01 0.  0.
         14    1    1    2    0    0 -0.12046622427E-01 -0.16167015153E-01 -0.10057046068E-01  0.22530815929E-01  0.00000000000E+00 0. -1.
     999901    1    3    3    0    0  0.36241503073E-01 -0.58920389338E-01  0.11341608466E+00  0.88997093609E+00  0.88000000000E+00 0.  1.
        -11    1    4    4    0    0 -0.62724953738E-02  0.29035048473E-01 -0.25207387441E-01  0.38962183469E-01  0.51100000000E-03 0.  1.
         11    1    4    4    0    0 -0.17922385272E-01  0.46052356017E-01 -0.78151651147E-01  0.92466064513E-01  0.51100000000E-03 0. -1.
</event>
<event>
 8    1  0.1061722E+005  0.1043930E+01  0.7957747E-01            NaN
         13   -1    0    0    0    0  0.00000000000E+00  0.00000000000E+00  0.74505805969E-08  0.10566000000E+00  0.10566000000E+00 0. -1.
     999900   -1    0    0    0    0 -0.00000000000E+00 -0.00000000000E+00 -0.74505805969E-08  0.93827000000E+00  0.93827000000E+00 0. -1.
     999902    2    1    2    0    0  0.26823436820E-02  0.97141998676E-02  0.22326294281E-01  0.10194346114E+01  0.10191402763E+01 0.  0.
     999903    2    3    3    0    0 -0.54753753144E-01 -0.43807175045E-01  0.10940366481E+00  0.13165878876E+00  0.21162058401E-01 0.  0.
         14    1    1    2    0    0 -0.26823436820E-02 -0.97141998676E-02 -0.22326294281E-01  0.24495388607E-01  0.00000000000E+00 0.  1.
     999901    1    3    3    0    0  0.57436096826E-01  0.53521374913E-01 -0.87077370527E-01  0.88777582263E+00  0.88000000000E+00 0. -1.
        -11    1    4    4    0    0 -0.30835476168E-01 -0.22262502024E-01  0.40251913150E-01  0.55379808777E-01  0.51100000000E-03 0.  1.
         11    1    4    4    0    0 -0.23918276976E-01 -0.21544673021E-01  0.69151751658E-01  0.76278979985E-01  0.51100000000E-03 0. -1.
</event>
<event>
 8    1  0.1061722E+005  0.1043930E+01  0.7957747E-01            NaN
         13   -1    0    0    0    0  0.00000000000E+00  0.00000000000E+00  0.74505805969E-08  0.10566000000E+00  0.10566000000E+00 0.  1.
     999900   -1    0    0    0    0 -0.00000000000E+00 -0.00000000000E+00 -0.74505805969E-08  0.93827000000E+00  0.93827000000E+00 0. -1.
     999902    2    1    2    0    0  0.15714575212E-01 -0.73253603615E-02  0.15222399653E-01  0.10208577173E+01  0.10205969570E+01 0.  0.
     999903    2    3    3    0    0  0.96775669826E-01  0.75722493641E-01 -0.41112611906E-01  0.13145258989E+00  0.22138433018E-01 0.  0.
         14    1    1    2    0    0 -0.15714575212E-01  0.73253603615E-02 -0.15222399653E-01  0.23072282716E-01  0.00000000000E+00 0. -1.
     999901    1    3    3    0    0 -0.81061094614E-01 -0.83047854002E-01  0.56335011560E-01  0.88940512740E+00  0.88000000000E+00 0. -1.
        -11    1    4    4    0    0  0.39698359097E-01  0.44882499931E-01 -0.17744094691E-01  0.62494099981E-01  0.51100000000E-03 0.  1.
         11    1    4    4    0    0  0.57077310730E-01  0.30839993710E-01 -0.23368517216E-01  0.68958489905E-01  0.51100000000E-03 0. -1.
</event>
<event>
 8    1  0.1061722E+005  0.1043930E+01  0.7957747E-01            NaN
         13   -1    0    0    0    0  0.00000000000E+00  0.00000000000E+00  0.74505805969E-08  0.10566000000E+00  0.10566000000E+00 0. -1.
     999900   -1    0    0    0    0 -0.00000000000E+00 -0.00000000000E+00 -0.74505805969E-08  0.93827000000E+00  0.93827000000E+00 0.  1.
     999902    2    1    2    0    0 -0.16223674341E-01  0.16246796372E-01  0.77122510768E-02  0.10197092482E+01  0.10194215546E+01 0.  0.
     999903    2    3    3    0    0  0.75960506920E-01  0.50123394735E-01  0.91162824228E-01  0.13032207415E+00  0.19769400041E-01 0.  0.
         14    1    1    2    0    0  0.16223674341E-01 -0.16246796372E-01 -0.77122510768E-02  0.24220751808E-01  0.00000000000E+00 0. -1.
     999901    1    3    3    0    0 -0.92184181261E-01 -0.33876598363E-01 -0.83450573152E-01  0.88938717404E+00  0.88000000000E+00 0.  1.
        -11    1    4    4    0    0  0.59513359019E-01  0.35656343390E-01  0.57265633825E-01  0.89960150423E-01  0.51100000000E-03 0. -1.
         11    1    4    4    0    0  0.16447147901E-01  0.14467051346E-01  0.33897190403E-01  0.40361923727E-01  0.51100000000E-03 0.  1.
</event>
<event>
 8    1  0.1061722E+005  0.1043930E+01  0.7957747E-01            NaN
         13   -1    0    0    0    0  0.00000000000E+00  0.00000000000E+00  0.74505805969E-08  0.10566000000E+00  0.10566000000E+00 0. -1.
     999900   -1    0    0    0    0 -0.00000000000E+00 -0.00000000000E+00 -0.74505805969E-08  0.93827000000E+00  0.93827000000E+00 0.  1.
     999902    2    1    2    0    0  0.21872033137E-01 -0.74358675849E-02 -0.48449722188E-02  0.10203259386E+01  0.10200528757E+01 0.  0.
     999903    2    3    3    0    0  0.18095896893E-01 -0.11877867969E+00  0.51309882076E-01  0.13152627122E+00  0.15186170973E-01 0.  0.
         14    1    1    2    0    0 -0.21872033137E-01  0.74358675849E-02  0.48449722188E-02  0.23604061432E-01  0.00000000000E+00 0.  1.
     999901    1    3    3    0    0  0.37761362444E-02  0.11134281211E+00 -0.56154854295E-01  0.88879966735E+00  0.88000000000E+00 0. -1.
        -11    1    4    4    0    0  0.97386338971E-02 -0.99881046346E-01  0.44321143524E-01  0.10970728915E+00  0.51100000000E-03 0.  1.
         11    1    4    4    0    0  0.83572629955E-02 -0.18897633348E-01  0.69887385520E-02  0.21818982068E-01  0.51100000000E-03 0. -1.
</event>
<event>
 8    1  0.1061722E+005  0.1043930E+01  0.7957747E-01            NaN
         13   -1    0    0    0    0  0.00000000000E+00  0.00000000000E+00  0.74505805969E-08  0.10566000000E+00  0.10566000000E+00 0.  1.
     999900   -1    0    0    0    0 -0.00000000000E+00 -0.00000000000E+00 -0.74505805969E-08  0.93827000000E+00  0.93827000000E+00 0.  1.
     999902    2    1    2    0    0 -0.11167802863E-01  0.15261671750E-01  0.13641552250E-01  0.10206119728E+01  0.10203455633E+01 0.  0.
     999903    2    3    3    0    0  0.41192017603E-01 -0.12051196310E+00 -0.12680903883E-02  0.12853667991E+00  0.17324966498E-01 0.  0.
         14    1    1    2    0    0  0.11167802863E-01 -0.15261671750E-01 -0.13641552250E-01  0.23318027214E-01  0.00000000000E+00 0. -1.
     999901    1    3    3    0    0 -0.52359820465E-01  0.13577363485E+00  0.14909642639E-01  0.89207529288E+00  0.88000000000E+00 0. -1.
        -11    1    4    4    0    0  0.17816663962E-01 -0.38534718043E-01 -0.72872678750E-02  0.43078108170E-01  0.51100000000E-03 0. -1.
         11    1    4    4    0    0  0.23375353640E-01 -0.81977245057E-01  0.60191774867E-02  0.85458571738E-01  0.51100000000E-03 0.  1.
</event>
<event>
 8    1  0.1061722E+005  0.1043930E+01  0.7957747E-01            NaN
         13   -1    0    0    0    0  0.00000000000E+00  0.00000000000E+00  0.74505805969E-08  0.10566000000E+00  0.10566000000E+00 0. -1.
     999900   -1    0    0    0    0 -0.00000000000E+00 -0.00000000000E+00 -0.74505805969E-08  0.93827000000E+00  0.93827000000E+00 0. -1.
     999902    2    1    2    0    0  0.19793840040E-01  0.11639724201E-01 -0.53605882215E-02  0.10203500257E+01  0.10200775263E+01 0.  0.
     999903    2    3    3    0    0  0.99029555526E-01  0.46361987592E-01 -0.73961351039E-01  0.13345093399E+00  0.19559743684E-01 0.  0.
         14    1    1    2    0    0 -0.19793840040E-01 -0.11639724201E-01  0.53605882215E-02  0.23579974323E-01  0.00000000000E+00 0. -1.
     999901    1    3    3    0    0 -0.79235715486E-01 -0.34722263390E-01  0.68600762818E-01  0.88689909169E+00  0.88000000000E+00 0.  1.
        -11    1    4    4    0    0  0.63815290944E-01  0.39844215685E-01 -0.48649023084E-01  0.89593199797E-01  0.51100000000E-03 0.  1.
         11    1    4    4    0    0  0.35214264582E-01  0.65177719070E-02 -0.25312327955E-01  0.43857734189E-01  0.51100000000E-03 0. -1.
</event>
<event>
 8    1  0.1061722E+005  0.1043930E+01  0.7957747E-01            NaN
         13   -1    0    0    0    0  0.00000000000E+00  0.00000000000E+00  0.74505805969E-08  0.10566000000E+00  0.10566000000E+00 0. -1.
     999900   -1    0    0    0    0 -0.00000000000E+00 -0.00000000000E+00 -0.74505805969E-08  0.93827000000E+00  0.93827000000E+00 0. -1.
     999902    2    1    2    0    0  0.22357622068E-01 -0.63435663304E-02 -0.40974359052E-02  0.10203314179E+01  0.10200584832E+01 0.  0.
     999903    2    3    3    0    0  0.17473842894E-01 -0.12917267997E+00  0.42316812054E-02  0.13174815409E+00  0.18674917526E-01 0.  0.
         14    1    1    2    0    0 -0.22357622068E-01  0.63435663304E-02  0.40974359052E-02  0.23598582146E-01  0.00000000000E+00 0.  1.
     999901    1    3    3    0    0  0.48837791738E-02  0.12282911363E+00 -0.83291171106E-02  0.88858326377E+00  0.88000000000E+00 0.  1.
        -11    1    4    4    0    0  0.70126974505E-03 -0.67976717204E-01  0.61862580332E-02  0.68263143573E-01  0.51100000000E-03 0. -1.
         11    1    4    4    0    0  0.16772573149E-01 -0.61195962761E-01 -0.19545768277E-02  0.63485010514E-01  0.51100000000E-03 0.  1.
</event>
<event>
 8    1  0.1061722E+005  0.1043930E+01  0.7957747E-01            NaN
         13   -1    0    0    0    0  0.00000000000E+00  0.00000000000E+00  0.74505805969E-08  0.10566000000E+00  0.10566000000E+00 0.  1.
     999900   -1    0    0    0    0 -0.00000000000E+00 -0.00000000000E+00 -0.74505805969E-08  0.93827000000E+00  0.93827000000E+00 0.  1.
     999902    2    1    2    0    0  0.20983048134E-01 -0.46704974189E-02  0.11679760178E-01  0.10194653591E+01  0.10191717715E+01 0.  0.
     999903    2    3    3    0    0 -0.79177805974E-01  0.77289341033E-01  0.62222686443E-01  0.12856457946E+00  0.20357337451E-01 0.  0.
         14    1    1    2    0    0 -0.20983048134E-01  0.46704974189E-02 -0.11679760178E-01  0.24464640871E-01  0.00000000000E+00 0. -1.
     999901    1    3    3    0    0  0.10016085411E+00 -0.81959838452E-01 -0.50542926265E-01  0.89090077967E+00  0.88000000000E+00 0.  1.
        -11    1    4    4    0    0 -0.43284829806E-01  0.51486810662E-01  0.45924336486E-01  0.81447983193E-01  0.51100000000E-03 0.  1.
         11    1    4    4    0    0 -0.35892976168E-01  0.25802530370E-01  0.16298349957E-01  0.47116596270E-01  0.51100000000E-03 0. -1.
</event>
<event>
 8    1  0.1061722E+005  0.1043930E+01  0.7957747E-01            NaN
         13   -1    0    0    0    0  0.00000000000E+00  0.00000000000E+00  0.74505805969E-08  0.10566000000E+00  0.10566000000E+00 0. -1.
     999900   -1    0    0    0    0 -0.00000000000E+00 -0.00000000000E+00 -0.74505805969E-08  0.93827000000E+00  0.93827000000E+00 0. -1.
     999902    2    1    2    0    0  0.35528232238E-02  0.21140274549E-01  0.10141527067E-01  0.10202153562E+01  0.10199396985E+01 0.  0.
     999903    2    3    3    0    0 -0.53836771730E-01  0.29932896628E-01 -0.11251271415E+00  0.12981379580E+00  0.19953306586E-01 0.  0.
         14    1    1    2    0    0 -0.35528232238E-02 -0.21140274549E-01 -0.10141527067E-01  0.23714643833E-01  0.00000000000E+00 0.  1.
     999901    1    3    3    0    0  0.57389594954E-01 -0.87926220791E-02  0.12265424122E+00  0.89040156037E+00  0.88000000000E+00 0.  1.
        -11    1    4    4    0    0 -0.19914019879E-01  0.20482792273E-01 -0.61639675188E-01  0.67939853144E-01  0.51100000000E-03 0. -1.
         11    1    4    4    0    0 -0.33922751851E-01  0.94501043552E-02 -0.50873038964E-01  0.61873942657E-01  0.51100000000E-03 0.  1.
</event>
<event>
 8    1  0.1061722E+005  0.1043930E+01  0.7957747E-01            NaN
         13   -1    0    0    0    0  0.00000000000E+00  0.00000000000E+00  0.74505805969E-08  0.10566000000E+00  0.10566000000E+00 0. -1.
     999900   -1    0    0    0    0 -0.00000000000E+00 -0.00000000000E+00 -0.74505805969E-08  0.93827000000E+00  0.93827000000E+00 0. -1.
     999902    2    1    2    0    0  0.13082003504E-01 -0.17951453371E-01 -0.84280198224E-02  0.10201723694E+01  0.10198956997E+01 0.  0.
     999903    2    3    3    0    0  0.13325279156E-01  0.39647514572E-01  0.12032715608E+00  0.12893974229E+00  0.19933493809E-01 0.  0.
         14    1    1    2    0    0 -0.13082003504E-01  0.17951453371E-01  0.84280198224E-02  0.23757630605E-01  0.00000000000E+00 0. -1.
     999901    1    3    3    0    0 -0.24327565166E-03 -0.57598967943E-01 -0.12875517590E+00  0.89123262710E+00  0.88000000000E+00 0.  1.
        -11    1    4    4    0    0  0.55042537479E-02  0.19788047837E-01  0.31689503737E-01  0.37767041380E-01  0.51100000000E-03 0. -1.
         11    1    4    4    0    0  0.78210254077E-02  0.19859466735E-01  0.88637652345E-01  0.91172700912E-01  0.51100000000E-03 0.  1.
</event>
<event>
 8    1  0.1061722E+005  0.1043930E+01  0.7957747E-01            NaN
         13   -1    0    0    0    0  0.00000000000E+00  0.00000000000E+00  0.74505805969E-08  0.10566000000E+00  0.10566000000E+00 0.  1.
     999900   -1    0    0    0    0 -0.00000000000E+00 -0.00000000000E+00 -0.74505805969E-08  0.93827000000E+00  0.93827000000E+00 0. -1.
     999902    2    1    2    0    0  0.35731545310E-02  0.14447928580E-01 -0.21548494286E-01  0.10177413063E+01  0.10174043045E+01 0.  0.
     999903    2    3    3    0    0 -0.73701702287E-01  0.24409128184E-01 -0.10303956578E+00  0.13054830374E+00  0.19948960773E-01 0.  0.
         14    1    1    2    0    0 -0.35731545310E-02 -0.14447928580E-01  0.21548494286E-01  0.26188693735E-01  0.00000000000E+00 0.  1.
     999901    1    3    3    0    0  0.77274856818E-01 -0.99611996039E-02  0.81491071490E-01  0.88719300252E+00  0.88000000000E+00 0.  1.
        -11    1    4    4    0    0 -0.45530897576E-01  0.25004330615E-01 -0.68530427813E-01  0.85993952350E-01  0.51100000000E-03 0. -1.
         11    1    4    4    0    0 -0.28170804711E-01 -0.59520243092E-03 -0.34509137962E-01  0.44554351392E-01  0.51100000000E-03 0.  1.
</event>
<event>
 8    1  0.1061722E+005  0.1043930E+01  0.7957747E-01            NaN
         13   -1    0    0    0    0  0.00000000000E+00  0.00000000000E+00  0.74505805969E-08  0.10566000000E+00  0.10566000000E+00 0. -1.
     999900   -1    0    0    0    0 -0.00000000000E+00 -0.00000000000E+00 -0.74505805969E-08  0.93827000000E+00  0.93827000000E+00 0. -1.
     999902    2    1    2    0    0 -0.89427705046E-02  0.68728186383E-02  0.20334497673E-01  0.10206770308E+01  0.10204121229E+01 0.  0.
     999903    2    3    3    0    0 -0.64218208993E-01 -0.11188779480E+00  0.86971522688E-02  0.13090465250E+00  0.20433565453E-01 0.  0.
         14    1    1    2    0    0  0.89427705046E-02 -0.68728186383E-02 -0.20334497673E-01  0.23252969186E-01  0.00000000000E+00 0.  1.
     999901    1    3    3    0    0  0.55275438488E-01  0.11876061344E+00  0.11637345404E-01  0.88977237831E+00  0.88000000000E+00 0. -1.
        -11    1    4    4    0    0 -0.33839414434E-01 -0.77959507831E-01  0.78826700171E-02  0.85353315332E-01  0.51100000000E-03 0.  1.
         11    1    4    4    0    0 -0.30378794558E-01 -0.33928286968E-01  0.81448225163E-03  0.45551337168E-01  0.51100000000E-03 0. -1.
</event>
<event>
 8    1  0.1061722E+005  0.1043930E+01  0.7957747E-01            NaN
         13   -1    0    0    0    0  0.00000000000E+00  0.00000000000E+00  0.74505805969E-08  0.10566000000E+00  0.10566000000E+00 0.  1.
     999900   -1    0    0    0    0 -0.00000000000E+00 -0.00000000000E+00 -0.74505805969E-08  0.93827000000E+00  0.93827000000E+00 0. -1.
     999902    2    1    2    0    0  0.58749887250E-02 -0.21099291775E-01  0.83860950996E-02  0.10204774480E+01  0.10202079198E+01 0.  0.
     999903    2    3    3    0    0 -0.40711911399E-01 -0.71139491899E-01 -0.10043687622E+00  0.13114241549E+00  0.19811107965E-01 0.  0.
         14    1    1    2    0    0 -0.58749887250E-02  0.21099291775E-01 -0.83860950996E-02  0.23452552035E-01  0.00000000000E+00 0. -1.
     999901    1    3    3    0    0  0.46586900124E-01  0.50040200125E-01  0.10882297132E+00  0.88933503247E+00  0.88000000000E+00 0.  1.
        -11    1    4    4    0    0 -0.32454533417E-01 -0.37657958069E-01 -0.55822349168E-01  0.74751684482E-01  0.51100000000E-03 0. -1.
         11    1    4    4    0    0 -0.82573779818E-02 -0.33481533831E-01 -0.44614527056E-01  0.56390731013E-01  0.51100000000E-03 0.  1.
</event>
<event>
 8    1  0.1061722E+005  0.1043930E+01  0.7957747E-01            NaN
         13   -1    0    0    0    0  0.00000000000E+00  0.00000000000E+00  0.74505805969E-08  0.10566000000E+00  0.10566000000E+00 0. -1.
     999900   -1    0    0    0    0 -0.00000000000E+00 -0.00000000000E+00 -0.74505805969E-08  0.93827000000E+00  0.93827000000E+00 0. -1.
     999902    2    1    2    0    0  0.12778044567E-01  0.44200096371E-02  0.19163797086E-01  0.10204765135E+01  0.10202069636E+01 0.  0.
     999903    2    3    3    0    0  0.58863057914E-01 -0.14389040410E-01  0.11748565982E+00  0.13360290501E+00  0.19363674623E-01 0.  0.
         14    1    1    2    0    0 -0.12778044567E-01 -0.44200096371E-02 -0.19163797086E-01  0.23453486455E-01  0.00000000000E+00 0.  1.
     999901    1    3    3    0    0 -0.46085013347E-01  0.18809050047E-01 -0.98321862730E-01  0.88687360853E+00  0.88000000000E+00 0. -1.
        -11    1    4    4    0    0  0.15936612378E-02  0.17622248854E-02  0.69661587518E-03  0.25281588884E-02  0.51100000000E-03 0.  1.
         11    1    4    4    0    0  0.57269396676E-01 -0.16151265295E-01  0.11678904394E+00  0.13107474613E+00  0.51100000000E-03 0. -1.
</event>
<event>
 8    1  0.1061722E+005  0.1043930E+01  0.7957747E-01            NaN
         13   -1    0    0    0    0  0.00000000000E+00  0.00000000000E+00  0.74505805969E-08  0.10566000000E+00  0.10566000000E+00 0.  1.
     999900   -1    0    0    0    0 -0.00000000000E+00 -0.00000000000E+00 -0.74505805969E-08  0.93827000000E+00  0.93827000000E+00 0. -1.
     999902    2    1    2    0    0  0.23050044424E-01  0.10093548287E-01  0.27554599743E-02  0.10186164300E+01  0.10183018485E+01 0.  0.
     999903    2    3    3    0    0 -0.51763145624E-02  0.51512828154E-01 -0.11680177562E+00  0.12911869722E+00  0.18671301184E-01 0.  0.
         14    1    1    2    0    0 -0.23050044424E-01 -0.10093548287E-01 -0.27554599743E-02  0.25313569971E-01  0.00000000000E+00 0. -1.
     999901    1    3    3    0    0  0.28226358987E-01 -0.41419279867E-01  0.11955723559E+00  0.88949773281E+00  0.88000000000E+00 0.  1.
        -11    1    4    4    0    0  0.54754442418E-02  0.54971047390E-02 -0.17914481626E-01  0.19529168520E-01  0.51100000000E-03 0. -1.
         11    1    4    4    0    0 -0.10651758804E-01  0.46015723415E-01 -0.98887293992E-01  0.10958952870E+00  0.51100000000E-03 0.  1.
</event>
<event>
 8    1  0.1061722E+005  0.1043930E+01  0.7957747E-01            NaN
         13   -1    0    0    0    0  0.00000000000E+00  0.00000000000E+00  0.74505805969E-08  0.10566000000E+00  0.10566000000E+00 0. -1.
     999900   -1    0    0    0    0 -0.00000000000E+00 -0.00000000000E+00 -0.74505805969E-08  0.93827000000E+00  0.93827000000E+00 0. -1.
     999902    2    1    2    0    0 -0.11369094266E-01 -0.41938886068E-02  0.20189130628E-01  0.10203833229E+01  0.10201116016E+01 0.  0.
     999903    2    3    3    0    0  0.63940678834E-01 -0.11170140334E+00  0.75602883028E-02  0.13055810676E+00  0.20558389158E-01 0.  0.
         14    1    1    2    0    0  0.11369094266E-01  0.41938886068E-02 -0.20189130628E-01  0.23546677082E-01  0.00000000000E+00 0.  1.
     999901    1    3    3    0    0 -0.75309773100E-01  0.10750751473E+00  0.12628842325E-01  0.88982521616E+00  0.88000000000E+00 0. -1.
        -11    1    4    4    0    0  0.57817134611E-01 -0.97363724619E-01  0.32451261760E-04  0.11323770618E+00  0.51100000000E-03 0.  1.
         11    1    4    4    0    0  0.61235442227E-02 -0.14337678718E-01  0.75278370410E-02  0.17320400584E-01  0.51100000000E-03 0. -1.
</event>
<event>
 8    1  0.1061722E+005  0.1043930E+01  0.7957747E-01            NaN
         13   -1    0    0    0    0  0.00000000000E+00  0.00000000000E+00  0.74505805969E-08  0.10566000000E+00  0.10566000000E+00 0. -1.
     999900   -1    0    0    0    0 -0.00000000000E+00 -0.00000000000E+00 -0.74505805969E-08  0.93827000000E+00  0.93827000000E+00 0.  1.
     999902    2    1    2    0    0  0.14103288211E-02 -0.19829611149E-01  0.18771179283E-01  0.10165884624E+01  0.10162207153E+01 0.  0.
     999903    2    3    3    0    0  0.25227888336E-01  0.11916064879E+00  0.16330193761E-01  0.12535811795E+00  0.24744210181E-01 0.  0.
         14    1    1    2    0    0 -0.14103288211E-02  0.19829611149E-01 -0.18771179283E-01  0.27341537582E-01  0.00000000000E+00 0.  1.
     999901    1    3    3    0    0 -0.23817559515E-01 -0.13899025993E+00  0.24409855216E-02  0.89123034447E+00  0.88000000000E+00 0. -1.
        -11    1    4    4    0    0  0.28250149394E-01  0.82717473060E-01  0.74722326484E-02  0.87728824636E-01  0.51100000000E-03 0. -1.
         11    1    4    4    0    0 -0.30222610577E-02  0.36443175726E-01  0.88579611130E-02  0.37629293309E-01  0.51100000000E-03 0.  1.
</event>
<event>
 8    1  0.1061722E+005  0.1043930E+01  0.7957747E-01            NaN
         13   -1    0    0    0    0  0.00000000000E+00  0.00000000000E+00  0.74505805969E-08  0.10566000000E+00  0.10566000000E+00 0.  1.
     999900   -1    0    0    0    0 -0.00000000000E+00 -0.00000000000E+00 -0.74505805969E-08  0.93827000000E+00  0.93827000000E+00 0. -1.
     999902    2    1    2    0    0  0.16330414001E-01 -0.61368256445E-03 -0.31648868811E-02  0.10272844139E+01  0.10271495468E+01 0.  0.
     999903    2    3    3    0    0 -0.81041391187E-01  0.59387292922E-01  0.88267882548E-01  0.13518501538E+00  0.19728447696E-01 0.  0.
         14    1    1    2    0    0 -0.16330414001E-01  0.61368256445E-03  0.31648868811E-02  0.16645586103E-01  0.00000000000E+00 0. -1.
     999901    1    3    3    0    0  0.97371805187E-01 -0.60000975486E-01 -0.91432769429E-01  0.89209939851E+00  0.88000000000E+00 0. -1.
        -11    1    4    4    0    0 -0.37397978262E-01  0.26852889580E-01  0.53531711175E-01  0.70608722401E-01  0.51100000000E-03 0. -1.
         11    1    4    4    0    0 -0.43643412925E-01  0.32534403342E-01  0.34736171373E-01  0.64576292981E-01  0.51100000000E-03 0.  1.
</event>
<event>
 8    1  0.1061722E+005  0.1043930E+01  0.7957747E-01            NaN
         13   -1    0    0    0    0  0.00000000000E+00  0.00000000000E+00  0.74505805969E-08  0.10566000000E+00  0.10566000000E+00 0.  1.
     999900   -1    0    0    0    0 -0.00000000000E+00 -0.00000000000E+00 -0.74505805969E-08  0.93827000000E+00  0.93827000000E+00 0. -1.
     999902    2    1    2    0    0 -0.20974261941E-01  0.51605712072E-02 -0.62886114787E-02  0.10214333826E+01  0.10211856136E+01 0.  0.
     999903    2    3    3    0    0  0.84468132844E-01 -0.25967872227E-01  0.92040056294E-01  0.12915786154E+00  0.20029612621E-01 0.  0.
         14    1    1    2    0    0  0.20974261941E-01 -0.51605712072E-02  0.62886114787E-02  0.22496617379E-01  0.00000000000E+00 0. -1.
     999901    1    3    3    0    0 -0.10544239479E+00  0.31128443434E-01 -0.98328667772E-01  0.89227552108E+00  0.88000000000E+00 0. -1.
        -11    1    4    4    0    0  0.42802052026E-01 -0.23353195187E-01  0.52583037525E-01  0.71712093397E-01  0.51100000000E-03 0.  1.
         11    1    4    4    0    0  0.41666080818E-01 -0.26146770397E-02  0.39457018769E-01  0.57445768146E-01  0.51100000000E-03 0. -1.
</event>
<event>
 8    1  0.1061722E+005  0.1043930E+01  0.7957747E-01            NaN
         13   -1    0    0    0    0  0.00000000000E+00  0.00000000000E+00  0.74505805969E-08  0.10566000000E+00  0.10566000000E+00 0.  1.
     999900   -1    0    0    0    0 -0.00000000000E+00 -0.00000000000E+00 -0.74505805969E-08  0.93827000000E+00  0.93827000000E+00 0. -1.
     999902    2    1    2    0    0  0.18237877469E-02  0.23167067189E-01 -0.30118093339E-02  0.10204968995E+01  0.10202278234E+01 0.  0.
     999903    2    3    3    0    0 -0.10134920901E-01  0.77430832443E-01  0.10467487164E+00  0.13219290412E+00  0.20491088629E-01 0.  0.
         14    1    1    2    0    0 -0.18237877469E-02 -0.23167067189E-01  0.30118093339E-02  0.23433100506E-01  0.00000000000E+00 0.  1.
     999901    1    3    3    0    0  0.11958708648E-01 -0.54263765254E-01 -0.10768668097E+00  0.88830399537E+00  0.88000000000E+00 0. -1.
        -11    1    4    4    0    0 -0.10627608635E-01  0.15991358687E-01  0.27552107890E-01  0.33586446494E-01  0.51100000000E-03 0. -1.
         11    1    4    4    0    0  0.49268773424E-03  0.61439473756E-01  0.77122763750E-01  0.98606457629E-01  0.51100000000E-03 0.  1.
</event>
<event>
 8    1  0.1061722E+005  0.1043930E+01  0.7957747E-01            NaN
         13   -1    0    0    0    0  0.00000000000E+00  0.00000000000E+00  0.74505805969E-08  0.10566000000E+00  0.10566000000E+00 0. -1.
     999900   -1    0    0    0    0 -0.00000000000E+00 -0.00000000000E+00 -0.74505805969E-08  0.93827000000E+00  0.93827000000E+00 0.  1.
     999902    2    1    2    0    0  0.10046244787E-02 -0.24015191446E-01 -0.23383684770E-02  0.10197803280E+01  0.10194943407E+01 0.  0.
     999903    2    3    3    0    0  0.86338192313E-01  0.34612447269E-01  0.87323354493E-01  0.12918600824E+00  0.20281802876E-01 0.  0.
         14    1    1    2    0    0 -0.10046244787E-02  0.24015191446E-01  0.23383684770E-02  0.24149671999E-01  0.00000000000E+00 0. -1.
     999901    1    3    3    0    0 -0.85333567834E-01 -0.58627638714E-01 -0.89661722970E-01  0.89059431976E+00  0.88000000000E+00 0.  1.
        -11    1    4    4    0    0  0.61173785802E-01  0.33690071988E-01  0.67584317394E-01  0.97186182653E-01  0.51100000000E-03 0.  1.
         11    1    4    4    0    0  0.25164406511E-01  0.92237528091E-03  0.19739037099E-01  0.31999825590E-01  0.51100000000E-03 0. -1.
</event>
<event>
 8    1  0.1061722E+005  0.1043930E+01  0.7957747E-01            NaN
         13   -1    0    0    0    0  0.00000000000E+00  0.00000000000E+00  0.74505805969E-08  0.10566000000E+00  0.10566000000E+00 0. -1.
     999900   -1    0    0    0    0 -0.00000000000E+00 -0.00000000000E+00 -0.74505805969E-08  0.93827000000E+00  0.93827000000E+00 0. -1.
     999902    2    1    2    0    0  0.16687890427E-01  0.14787456059E-01  0.72246102429E-02  0.10204917932E+01  0.10202225985E+01 0.  0.
     999903    2    3    3    0    0 -0.31782329192E-01  0.30434075834E-01  0.12226074814E+00  0.13154438650E+00  0.20491111841E-01 0.  0.
         14    1    1    2    0    0 -0.16687890427E-01 -0.14787456059E-01 -0.72246102429E-02  0.23438206773E-01  0.00000000000E+00 0.  1.
     999901    1    3    3    0    0  0.48470219619E-01 -0.15646619775E-01 -0.11503613789E+00  0.88894740672E+00  0.88000000000E+00 0. -1.
        -11    1    4    4    0    0 -0.11970911074E-01  0.29800170065E-02  0.17276253890E-01  0.21234718806E-01  0.51100000000E-03 0. -1.
         11    1    4    4    0    0 -0.19811418118E-01  0.27454058828E-01  0.10498449425E+00  0.11030966770E+00  0.51100000000E-03 0.  1.
</event>
<event>
 8    1  0.1061722E+005  0.1043930E+01  0.7957747E-01            NaN
         13   -1    0    0    0    0  0.00000000000E+00  0.00000000000E+00  0.74505805969E-08  0.10566000000E+00  0.10566000000E+00 0.  1.
     999900   -1    0    0    0    0 -0.00000000000E+00 -0.00000000000E+00 -0.74505805969E-08  0.93827000000E+00  0.93827000000E+00 0.  1.
     999902    2    1    2    0    0  0.12048902675E-01 -0.20093249038E-01  0.60079354062E-02  0.10197430200E+01  0.10194561378E+01 0.  0.
     999903    2    3    3    0    0  0.64789058451E-01  0.83563947257E-01  0.72361663427E-01  0.12961429023E+00  0.19572902760E-01 0.  0.
         14    1    1    2    0    0 -0.12048902675E-01  0.20093249038E-01 -0.60079354062E-02  0.24186979977E-01  0.00000000000E+00 0.  1.
     999901    1    3    3    0    0 -0.52740155777E-01 -0.10365719630E+00 -0.66353728021E-01  0.89012872979E+00  0.88000000000E+00 0.  1.
        -11    1    4    4    0    0  0.25349708255E-01  0.47171455641E-01  0.41089256078E-01  0.67500681641E-01  0.51100000000E-03 0. -1.
         11    1    4    4    0    0  0.39439350197E-01  0.36392491616E-01  0.31272407349E-01  0.62113608592E-01  0.51100000000E-03 0.  1.
</event>
<event>
 8    1  0.1061722E+005  0.1043930E+01  0.7957747E-01            NaN
         13   -1    0    0    0    0  0.00000000000E+00  0.00000000000E+00  0.74505805969E-08  0.10566000000E+00  0.10566000000E+00 0.  1.
     999900   -1    0    0    0    0 -0.00000000000E+00 -0.00000000000E+00 -0.74505805969E-08  0.93827000000E+00  0.93827000000E+00 0. -1.
     999902    2    1    2    0    0 -0.18984509185E-01 -0.14345476064E-01  0.34796274987E-03  0.10201324087E+01  0.10198547965E+01 0.  0.
     999903    2    3    3    0    0 -0.75942505446E-01 -0.29293569598E-01  0.10221664301E+00  0.13230084426E+00  0.20733883646E-01 0.  0.
         14    1    1    2    0    0  0.18984509185E-01  0.14345476064E-01 -0.34796274987E-03  0.23797591277E-01  0.00000000000E+00 0. -1.
     999901    1    3    3    0    0  0.56957996261E-01  0.14948093534E-01 -0.10186868026E+00  0.88783156446E+00  0.88000000000E+00 0.  1.
        -11    1    4    4    0    0 -0.22490694336E-01 -0.10591641609E-01  0.17528260919E-01  0.30422282221E-01  0.51100000000E-03 0. -1.
         11    1    4    4    0    0 -0.53451811111E-01 -0.18701927989E-01  0.84688382088E-01  0.10187856204E+00  0.51100000000E-03 0.  1.
</event>
<event>
 8    1  0.1061722E+005  0.1043930E+01  0.7957747E-01            NaN
         13   -1    0    0    0    0  0.00000000000E+00  0.00000000000E+00  0.74505805969E-08  0.10566000000E+00  0.10566000000E+00 0.  1.
     999900   -1    0    0    0    0 -0.00000000000E+00 -0.00000000000E+00 -0.74505805969E-08  0.93827000000E+00  0.93827000000E+00 0.  1.
     999902    2    1    2    0    0  0.11441517202E-01  0.94110126648E-02  0.17549147021E-01  0.10209637631E+01  0.10207054215E+01 0.  0.
     999903    2    3    3    0    0 -0.62038398876E-01  0.10899018835E+00 -0.32173514721E-01  0.13091452101E+00  0.19386920055E-01 0.  0.
         14    1    1    2    0    0 -0.11441517202E-01 -0.94110126648E-02 -0.17549147021E-01  0.22966236880E-01  0.00000000000E+00 0.  1.
     999901    1    3    3    0    0  0.73479916078E-01 -0.99579175685E-01  0.49722661742E-01  0.89004924211E+00  0.88000000000E+00 0. -1.
        -11    1    4    4    0    0 -0.29944094662E-01  0.71131873229E-01 -0.21926587669E-01  0.80233587493E-01  0.51100000000E-03 0.  1.
         11    1    4    4    0    0 -0.32094304214E-01  0.37858315120E-01 -0.10246927052E-01  0.50680933513E-01  0.51100000000E-03 0. -1.
</event>
<event>
 8    1  0.1061722E+005  0.1043930E+01  0.7957747E-01            NaN
         13   -1    0    0    0    0  0.00000000000E+00  0.00000000000E+00  0.74505805969E-08  0.10566000000E+00  0.10566000000E+00 0.  1.
     999900   -1    0    0    0    0 -0.00000000000E+00 -0.00000000000E+00 -0.74505805969E-08  0.93827000000E+00  0.93827000000E+00 0. -1.
     999902    2    1    2    0    0 -0.15679327873E-01 -0.10944939122E-01  0.15702384745E-01  0.10191873667E+01  0.10188869862E+01 0.  0.
     999903    2    3    3    0    0 -0.11091940246E+00 -0.67530730916E-01  0.14135467049E-01  0.13224031144E+00  0.20595511197E-01 0.  0.
         14    1    1    2    0    0  0.15679327873E-01  0.10944939122E-01 -0.15702384745E-01  0.24742633280E-01  0.00000000000E+00 0. -1.
     999901    1    3    3    0    0  0.95240074584E-01  0.56585791794E-01  0.15669176955E-02  0.88694705528E+00  0.88000000000E+00 0. -1.
        -11    1    4    4    0    0 -0.48312530244E-01 -0.17669147643E-01  0.54678101143E-02  0.51734489709E-01  0.51100000000E-03 0. -1.
         11    1    4    4    0    0 -0.62606872213E-01 -0.49861583273E-01  0.86676569350E-02  0.80505821731E-01  0.51100000000E-03 0.  1.
</event>
<event>
 8    1  0.1061722E+005  0.1043930E+01  0.7957747E-01            NaN
         13   -1    0    0    0    0  0.00000000000E+00  0.00000000000E+00  0.74505805969E-08  0.10566000000E+00  0.10566000000E+00 0.  1.
     999900   -1    0    0    0    0 -0.00000000000E+00 -0.00000000000E+00 -0.74505805969E-08  0.93827000000E+00  0.93827000000E+00 0. -1.
     999902    2    1    2    0    0 -0.21571016280E-01  0.30821701455E-02 -0.85484928534E-02  0.10205230513E+01  0.10202545825E+01 0.  0.
     999903    2    3    3    0    0 -0.77467887521E-02 -0.94623444542E-01  0.86315668171E-01  0.12994082297E+00  0.20508873946E-01 0.  0.
         14    1    1    2    0    0  0.21571016280E-01 -0.30821701455E-02  0.85484928534E-02  0.23406948674E-01  0.00000000000E+00 0. -1.
     999901    1    3    3    0    0 -0.13824227528E-01  0.97705614687E-01 -0.94864161025E-01  0.89058222835E+00  0.88000000000E+00 0. -1.
        -11    1    4    4    0    0  0.56378900977E-02 -0.26575692472E-01  0.18012766856E-01  0.32600216655E-01  0.51100000000E-03 0. -1.
         11    1    4    4    0    0 -0.13384678850E-01 -0.68047752070E-01  0.68302901315E-01  0.97340606320E-01  0.51100000000E-03 0.  1.
</event>
<event>
 8    1  0.1061722E+005  0.1043930E+01  0.7957747E-01            NaN
         13   -1    0    0    0    0  0.00000000000E+00  0.00000000000E+00  0.74505805969E-08  0.10566000000E+00  0.10566000000E+00 0.  1.
     999900   -1    0    0    0    0 -0.00000000000E+00 -0.00000000000E+00 -0.74505805969E-08  0.93827000000E+00  0.93827000000E+00 0. -1.
     999902    2    1    2    0    0 -0.23038434561E-02  0.15776548671E-01  0.18162991805E-01  0.10197618090E+01  0.10194753777E+01 0.  0.
     999903    2    3    3    0    0  0.89039058465E-01 -0.40993311873E-01 -0.81440251131E-01  0.12763673441E+00  0.70863188675E-02 0.  0.
         14    1    1    2    0    0  0.23038434561E-02 -0.15776548671E-01 -0.18162991805E-01  0.24168190953E-01  0.00000000000E+00 0. -1.
     999901    1    3    3    0    0 -0.91342901921E-01  0.56769860545E-01  0.99603242935E-01  0.89212507464E+00  0.88000000000E+00 0. -1.
        -11    1    4    4    0    0  0.46734080390E-01 -0.21086684131E-01 -0.38066415053E-01  0.63859498851E-01  0.51100000000E-03 0.  1.
         11    1    4    4    0    0  0.42304978075E-01 -0.19906627743E-01 -0.43373836078E-01  0.63777235556E-01  0.51100000000E-03 0. -1.
</event>
<event>
 8    1  0.1061722E+005  0.1043930E+01  0.7957747E-01            NaN
         13   -1    0    0    0    0  0.00000000000E+00  0.00000000000E+00  0.74505805969E-08  0.10566000000E+00  0.10566000000E+00 0.  1.
     999900   -1    0    0    0    0 -0.00000000000E+00 -0.00000000000E+00 -0.74505805969E-08  0.93827000000E+00  0.93827000000E+00 0. -1.
     999902    2    1    2    0    0 -0.42392174104E-02  0.12956928426E-01  0.19948803826E-01  0.10197678864E+01  0.10194816008E+01 0.  0.
     999903    2    3    3    0    0 -0.41324197305E-02 -0.10646186844E+00 -0.67489029174E-01  0.12740796179E+00  0.18077979542E-01 0.  0.
         14    1    1    2    0    0  0.42392174104E-02 -0.12956928426E-01 -0.19948803826E-01  0.24162113578E-01  0.00000000000E+00 0. -1.
     999901    1    3    3    0    0 -0.10679767983E-03  0.11941879686E+00  0.87437833000E-01  0.89235992463E+00  0.88000000000E+00 0.  1.
        -11    1    4    4    0    0 -0.92239576237E-03 -0.93584849920E-01 -0.64861950063E-01  0.11386970025E+00  0.51100000000E-03 0.  1.
         11    1    4    4    0    0 -0.32100239682E-02 -0.12877018518E-01 -0.26270791103E-02  0.13538261537E-01  0.51100000000E-03 0. -1.
</event>
<event>
 7    1  0.1061722E+005  0.1043930E+01  0.7957747E-01            NaN
         13   -1    0    0    0    0  0.00000000000E+00  0.00000000000E+00  0.74505805969E-08  0.10566000000E+00  0.10566000000E+00 0.  1.
     999900   -1    0    0    0    0 -0.00000000000E+00 -0.00000000000E+00 -0.74505805969E-08  0.93827000000E+00  0.93827000000E+00 0. -1.
     999903    2    1    2    0    0  0.70802176855E-01  0.41794892192E-01  0.84114531916E-01  0.11938627632E+00  0.20446692501E-01 0.  0.
         14    1    1    2    0    0 -0.26151529242E-01 -0.59399184892E-03 -0.31409815943E-01  0.40875810030E-01  0.00000000000E+00 0. -1.
     999901    1    1    2    0    0 -0.44650647612E-01 -0.41200900343E-01 -0.52704715973E-01  0.88366791365E+00  0.88000000000E+00 0. -1.
        -11    1    3    3    0    0  0.50868230635E-01  0.39126706198E-01  0.58709457316E-01  0.86980098443E-01  0.51100000000E-03 0.  1.
         11    1    3    3    0    0  0.19933946220E-01  0.26681859944E-02  0.25405074600E-01  0.32406177881E-01  0.51100000000E-03 0. -1.
</event>
<event>
 8    1  0.1061722E+005  0.1043930E+01  0.7957747E-01            NaN
         13   -1    0    0    0    0  0.00000000000E+00  0.00000000000E+00  0.74505805969E-08  0.10566000000E+00  0.10566000000E+00 0.  1.
     999900   -1    0    0    0    0 -0.00000000000E+00 -0.00000000000E+00 -0.74505805969E-08  0.93827000000E+00  0.93827000000E+00 0.  1.
     999902    2    1    2    0    0 -0.13703951267E-01  0.10587132474E-01  0.17376695233E-01  0.10193976705E+01  0.10191024362E+01 0.  0.
     999903    2    3    3    0    0 -0.92193981357E-02 -0.44990039033E-01 -0.11751922048E+00  0.12737421716E+00  0.17444858833E-01 0.  0.
         14    1    1    2    0    0  0.13703951267E-01 -0.10587132474E-01 -0.17376695233E-01  0.24532329518E-01  0.00000000000E+00 0.  1.
     999901    1    3    3    0    0 -0.44845531310E-02  0.55577171507E-01  0.13489591571E+00  0.89202345333E+00  0.88000000000E+00 0. -1.
        -11    1    4    4    0    0 -0.39462478890E-03 -0.25219767229E-01 -0.43866179604E-01  0.50603312361E-01  0.51100000000E-03 0.  1.
         11    1    4    4    0    0 -0.88247733468E-02 -0.19770271804E-01 -0.73653040875E-01  0.76770904795E-01  0.51100000000E-03 0. -1.
</event>
<event>
 8    1  0.1289990E+005  0.1043930E+01  0.7957747E-01            NaN
         13   -1    0    0    0    0  0.00000000000E+00  0.00000000000E+00  0.74505805969E-08  0.10566000000E+00  0.10566000000E+00 0. -1.
     999900   -1    0    0    0    0 -0.00000000000E+00 -0.00000000000E+00 -0.74505805969E-08  0.93827000000E+00  0.93827000000E+00 0.  1.
     999902    2    1    2    0    0 -0.21136760401E-02 -0.10010866431E-01 -0.20902548404E-01  0.10206576644E+01  0.10203923100E+01 0.  0.
     999903    2    3    3    0    0  0.11229225522E+00  0.62327027353E-01  0.23516749202E-02  0.13000495608E+00  0.20038695314E-01 0.  0.
         14    1    1    2    0    0  0.21136760401E-02  0.10010866431E-01  0.20902548404E-01  0.23272335570E-01  0.00000000000E+00 0. -1.
     999901    1    3    3    0    0 -0.11440593126E+00 -0.72337893784E-01 -0.23254223324E-01  0.89065270835E+00  0.88000000000E+00 0.  1.
        -11    1    4    4    0    0  0.59286202576E-01  0.23496468703E-01  0.68524154381E-02  0.64141675810E-01  0.51100000000E-03 0.  1.
         11    1    4    4    0    0  0.53006052644E-01  0.38830558650E-01 -0.45007405179E-02  0.65863280272E-01  0.51100000000E-03 0. -1.
</event>
<event>
 8    1  0.1061722E+005  0.1043930E+01  0.7957747E-01            NaN
         13   -1    0    0    0    0  0.00000000000E+00  0.00000000000E+00  0.74505805969E-08  0.10566000000E+00  0.10566000000E+00 0.  1.
     999900   -1    0    0    0    0 -0.00000000000E+00 -0.00000000000E+00 -0.74505805969E-08  0.93827000000E+00  0.93827000000E+00 0. -1.
     999902    2    1    2    0    0 -0.17724984973E-01  0.15122598825E-01  0.25807968354E-02  0.10204879736E+01  0.10202186902E+01 0.  0.
     999903    2    3    3    0    0 -0.13129721223E+00  0.56999020555E-02 -0.65515937650E-02  0.13309243693E+00  0.19980654764E-01 0.  0.
         14    1    1    2    0    0  0.17724984973E-01 -0.15122598825E-01 -0.25807968354E-02  0.23442026359E-01  0.00000000000E+00 0. -1.
     999901    1    3    3    0    0  0.11357222725E+00  0.94226967692E-02  0.91323906004E-02  0.88739553671E+00  0.88000000000E+00 0. -1.
        -11    1    4    4    0    0 -0.55823785096E-01  0.23163141149E-02 -0.12674837163E-01  0.57293742343E-01  0.51100000000E-03 0. -1.
         11    1    4    4    0    0 -0.75473427132E-01  0.33835879406E-02  0.61232433981E-02  0.75798694587E-01  0.51100000000E-03 0.  1.
</event>
<event>
 8    1  0.1061722E+005  0.1043930E+01  0.7957747E-01            NaN
         13   -1    0    0    0    0  0.00000000000E+00  0.00000000000E+00  0.74505805969E-08  0.10566000000E+00  0.10566000000E+00 0. -1.
     999900   -1    0    0    0    0 -0.00000000000E+00 -0.00000000000E+00 -0.74505805969E-08  0.93827000000E+00  0.93827000000E+00 0. -1.
     999902    2    1    2    0    0 -0.21653834523E-01 -0.17087799649E-02 -0.27525815212E-02  0.10220351334E+01  0.10218005817E+01 0.  0.
     999903    2    3    3    0    0 -0.96450784330E-01  0.23110073442E-01  0.87803267139E-01  0.13388485281E+00  0.19465631218E-01 0.  0.
         14    1    1    2    0    0  0.21653834523E-01  0.17087799649E-02  0.27525815212E-02  0.21894866602E-01  0.00000000000E+00 0. -1.
     999901    1    3    3    0    0  0.74796949808E-01 -0.24818853407E-01 -0.90555848660E-01  0.88815028059E+00  0.88000000000E+00 0. -1.
        -11    1    4    4    0    0 -0.46038934884E-01  0.16350583587E-01  0.32145035556E-01  0.58484951404E-01  0.51100000000E-03 0.  1.
         11    1    4    4    0    0 -0.50411849446E-01  0.67594898548E-02  0.55658231583E-01  0.75399901404E-01  0.51100000000E-03 0. -1.
</event>
<event>
 8    1  0.1061722E+005  0.1043930E+01  0.7957747E-01            NaN
         13   -1    0    0    0    0  0.00000000000E+00  0.00000000000E+00  0.74505805969E-08  0.10566000000E+00  0.10566000000E+00 0. -1.
     999900   -1    0    0    0    0 -0.00000000000E+00 -0.00000000000E+00 -0.74505805969E-08  0.93827000000E+00  0.93827000000E+00 0. -1.
     999902    2    1    2    0    0  0.12655473087E-03 -0.16966782487E-01 -0.18114914603E-01  0.10191098901E+01  0.10188076022E+01 0.  0.
     999903    2    3    3    0    0  0.51491666170E-01  0.20995569174E-01 -0.11653904036E+00  0.13132228975E+00  0.23916317594E-01 0.  0.
         14    1    1    2    0    0 -0.12655473087E-03  0.16966782487E-01  0.18114914603E-01  0.24820109893E-01  0.00000000000E+00 0. -1.
     999901    1    3    3    0    0 -0.51365111439E-01 -0.37962351661E-01  0.98424125757E-01  0.88778760036E+00  0.88000000000E+00 0.  1.
        -11    1    4    4    0    0  0.43630601971E-01  0.25496244030E-01 -0.89251004430E-01  0.10256554393E+00  0.51100000000E-03 0.  1.
         11    1    4    4    0    0  0.78610641986E-02 -0.45006748557E-02 -0.27288035929E-01  0.28756745824E-01  0.51100000000E-03 0. -1.
</event>
<event>
 8    1  0.1061722E+005  0.1043930E+01  0.7957747E-01            NaN
         13   -1    0    0    0    0  0.00000000000E+00  0.00000000000E+00  0.74505805969E-08  0.10566000000E+00  0.10566000000E+00 0. -1.
     999900   -1    0    0    0    0 -0.00000000000E+00 -0.00000000000E+00 -0.74505805969E-08  0.93827000000E+00  0.93827000000E+00 0. -1.
     999902    2    1    2    0    0 -0.15278456746E-01  0.12777513498E-01  0.12072611325E-01  0.10206395720E+01  0.10203738001E+01 0.  0.
     999903    2    3    3    0    0  0.61442151975E-01  0.58483877842E-01  0.98958429943E-01  0.13186273330E+00  0.19987685480E-01 0.  0.
         14    1    1    2    0    0  0.15278456746E-01 -0.12777513498E-01 -0.12072611325E-01  0.23290427990E-01  0.00000000000E+00 0.  1.
     999901    1    3    3    0    0 -0.76720608721E-01 -0.45706364344E-01 -0.86885818618E-01  0.88877683871E+00  0.88000000000E+00 0. -1.
        -11    1    4    4    0    0  0.28321710122E-01  0.40569001881E-01  0.57239387817E-01  0.75660900183E-01  0.51100000000E-03 0.  1.
         11    1    4    4    0    0  0.33120441853E-01  0.17914875961E-01  0.41719042127E-01  0.56201833121E-01  0.51100000000E-03 0. -1.
</event>
<event>
 8    1  0.1061722E+005  0.1043930E+01  0.7957747E-01            NaN
         13   -1    0    0    0    0  0.00000000000E+00  0.00000000000E+00  0.74505805969E-08  0.10566000000E+00  0.10566000000E+00 0. -1.
     999900   -1    0    0    0    0 -0.00000000000E+00 -0.00000000000E+00 -0.74505805969E-08  0.93827000000E+00  0.93827000000E+00 0. -1.
     999902    2    1    2    0    0  0.22324651700E-01  0.40906285467E-03  0.58893771770E-02  0.10208379631E+01  0.10205767510E+01 0.  0.
     999903    2    3    3    0    0  0.10665766079E+00  0.52993723743E-01  0.57399293626E-01  0.13374694493E+00  0.20233017762E-01 0.  0.
         14    1    1    2    0    0 -0.22324651700E-01 -0.40906285467E-03 -0.58893771770E-02  0.23092036928E-01  0.00000000000E+00 0.  1.
     999901    1    3    3    0    0 -0.84333009086E-01 -0.52584660888E-01 -0.51509916449E-01  0.88709101815E+00  0.88000000000E+00 0. -1.
        -11    1    4    4    0    0  0.19060092112E-01  0.14984766204E-01  0.19075094720E-01  0.30853698142E-01  0.51100000000E-03 0. -1.
         11    1    4    4    0    0  0.87597568674E-01  0.38008957539E-01  0.38324198906E-01  0.10289324678E+00  0.51100000000E-03 0.  1.
</event>
<event>
 8    1  0.1061722E+005  0.1043930E+01  0.7957747E-01            NaN
         13   -1    0    0    0    0  0.00000000000E+00  0.00000000000E+00  0.74505805969E-08  0.10566000000E+00  0.10566000000E+00 0. -1.
     999900   -1    0    0    0    0 -0.00000000000E+00 -0.00000000000E+00 -0.74505805969E-08  0.93827000000E+00  0.93827000000E+00 0.  1.
     999902    2    1    2    0    0  0.15869091834E-01  0.10236107120E-01  0.60760955954E-02  0.10240925379E+01  0.10239003864E+01 0.  0.
     999903    2    3    3    0    0 -0.30849197584E-01  0.37588612883E-01  0.12488851228E+00  0.13445938402E+00  0.10844751849E-01 0.  0.
         14    1    1    2    0    0 -0.15869091834E-01 -0.10236107120E-01 -0.60760955954E-02  0.19837462092E-01  0.00000000000E+00 0. -1.
     999901    1    3    3    0    0  0.46718289418E-01 -0.27352505764E-01 -0.11881241668E+00  0.88963315389E+00  0.88000000000E+00 0.  1.
        -11    1    4    4    0    0 -0.40721816582E-02  0.34833077412E-02  0.24854225367E-01  0.25430488314E-01  0.51100000000E-03 0.  1.
         11    1    4    4    0    0 -0.26777015926E-01  0.34105305142E-01  0.10003428691E+00  0.10902889571E+00  0.51100000000E-03 0. -1.
</event>
<event>
 8    1  0.1061722E+005  0.1043930E+01  0.7957747E-01            NaN
         13   -1    0    0    0    0  0.00000000000E+00  0.00000000000E+00  0.74505805969E-08  0.10566000000E+00  0.10566000000E+00 0. -1.
     999900   -1    0    0    0    0 -0.00000000000E+00 -0.00000000000E+00 -0.74505805969E-08  0.93827000000E+00  0.93827000000E+00 0.  1.
     999902    2    1    2    0    0  0.19700918056E-01  0.10937067292E-01 -0.52499515364E-02  0.10207932845E+01  0.10205310490E+01 0.  0.
     999903    2    3    3    0    0  0.46842465612E-01  0.21288488290E-01  0.11932764447E+00  0.13154450437E+00  0.20431680735E-01 0.  0.
         14    1    1    2    0    0 -0.19700918056E-01 -0.10937067292E-01  0.52499515364E-02  0.23136715505E-01  0.00000000000E+00 0.  1.
     999901    1    3    3    0    0 -0.27141547556E-01 -0.10351420998E-01 -0.12457759601E+00  0.88924878012E+00  0.88000000000E+00 0.  1.
        -11    1    4    4    0    0  0.90943663355E-02  0.12789410711E-01  0.24200351169E-01  0.28847784024E-01  0.51100000000E-03 0. -1.
         11    1    4    4    0    0  0.37748099276E-01  0.84990775794E-02  0.95127293302E-01  0.10269672035E+00  0.51100000000E-03 0.  1.
</event>
<event>
 8    1  0.1223349E+005  0.1043930E+01  0.7957747E-01            NaN
         13   -1    0    0    0    0  0.00000000000E+00  0.00000000000E+00  0.74505805969E-08  0.10566000000E+00  0.10566000000E+00 0.  1.
     999900   -1    0    0    0    0 -0.00000000000E+00 -0.00000000000E+00 -0.74505805969E-08  0.93827000000E+00  0.93827000000E+00 0.  1.
     999902    2    1    2    0    0 -0.12897250776E-01 -0.25054314463E-02 -0.18850676243E-01  0.10209525271E+01  0.10206939298E+01 0.  0.
     999903    2    3    3    0    0  0.10980330320E+00  0.43891577908E-01  0.46056748446E-01  0.12886448092E+00  0.22396302383E-01 0.  0.
         14    1    1    2    0    0  0.12897250776E-01  0.25054314463E-02  0.18850676243E-01  0.22977472862E-01  0.00000000000E+00 0. -1.
     999901    1    3    3    0    0 -0.12270055398E+00 -0.46397009355E-01 -0.64907424689E-01  0.89208804622E+00  0.88000000000E+00 0. -1.
        -11    1    4    4    0    0  0.32748345772E-01  0.23614185344E-01  0.19791092963E-01  0.44967014377E-01  0.51100000000E-03 0. -1.
         11    1    4    4    0    0  0.77054957429E-01  0.20277392564E-01  0.26265655482E-01  0.83897466544E-01  0.51100000000E-03 0.  1.
</event>
<event>
 8    1  0.1061722E+005  0.1043930E+01  0.7957747E-01            NaN
         13   -1    0    0    0    0  0.00000000000E+00  0.00000000000E+00  0.74505805969E-08  0.10566000000E+00  0.10566000000E+00 0. -1.
     999900   -1    0    0    0    0 -0.00000000000E+00 -0.00000000000E+00 -0.74505805969E-08  0.93827000000E+00  0.93827000000E+00 0.  1.
     999902    2    1    2    0    0  0.76697819480E-02 -0.36112911966E-02 -0.23063404309E-01  0.10193579102E+01  0.10190617064E+01 0.  0.
     999903    2    3    3    0    0  0.92127752768E-01  0.87080055709E-01 -0.24635109084E-01  0.13067318573E+00  0.19953293868E-01 0.  0.
         14    1    1    2    0    0 -0.76697819480E-02  0.36112911966E-02  0.23063404309E-01  0.24572089809E-01  0.00000000000E+00 0. -1.
     999901    1    3    3    0    0 -0.84457970820E-01 -0.90691346906E-01  0.15717047743E-02  0.88868472446E+00  0.88000000000E+00 0. -1.
        -11    1    4    4    0    0  0.42404411459E-01  0.29644626228E-01 -0.37141489588E-02  0.51874791555E-01  0.51100000000E-03 0.  1.
         11    1    4    4    0    0  0.49723341309E-01  0.57435429481E-01 -0.20920960125E-01  0.78798394172E-01  0.51100000000E-03 0. -1.
</event>
<event>
 8    1  0.1061722E+005  0.1043930E+01  0.7957747E-01            NaN
         13   -1    0    0    0    0  0.00000000000E+00  0.00000000000E+00  0.74505805969E-08  0.10566000000E+00  0.10566000000E+00 0.  1.
     999900   -1    0    0    0    0 -0.00000000000E+00 -0.00000000000E+00 -0.74505805969E-08  0.93827000000E+00  0.93827000000E+00 0. -1.
     999902    2    1    2    0    0 -0.10329904611E-01  0.14639640600E-01 -0.15065712553E-01  0.10205205638E+01  0.10202520373E+01 0.  0.
     999903    2    3    3    0    0  0.10387430692E+00  0.75761851704E-01  0.10827106061E-01  0.13066160611E+00  0.20627633734E-01 0.  0.
         14    1    1    2    0    0  0.10329904611E-01 -0.14639640600E-01  0.15065712553E-01  0.23409436151E-01  0.00000000000E+00 0.  1.
     999901    1    3    3    0    0 -0.11420421153E+00 -0.61122211104E-01 -0.25892818614E-01  0.88985895774E+00  0.88000000000E+00 0. -1.
        -11    1    4    4    0    0  0.20015620457E-01  0.17726975150E-01  0.10356293350E-01  0.28677249575E-01  0.51100000000E-03 0.  1.
         11    1    4    4    0    0  0.83858686459E-01  0.58034876554E-01  0.47081271126E-03  0.10198435653E+00  0.51100000000E-03 0. -1.
</event>
<event>
 8    1  0.1061722E+005  0.1043930E+01  0.7957747E-01            NaN
         13   -1    0    0    0    0  0.00000000000E+00  0.00000000000E+00  0.74505805969E-08  0.10566000000E+00  0.10566000000E+00 0. -1.
     999900   -1    0    0    0    0 -0.00000000000E+00 -0.00000000000E+00 -0.74505805969E-08  0.93827000000E+00  0.93827000000E+00 0. -1.
     999902    2    1    2    0    0  0.25985898189E-01  0.70130529628E-02  0.18093366148E-02  0.10169536490E+01  0.10165957902E+01 0.  0.
     999903    2    3    3    0    0  0.23227697335E-01  0.11389006810E+00  0.53420623293E-01  0.12898178626E+00  0.16494382613E-01 0.  0.
         14    1    1    2    0    0 -0.25985898189E-01 -0.70130529628E-02 -0.18093366148E-02  0.26976351042E-01  0.00000000000E+00 0. -1.
     999901    1    3    3    0    0  0.27582008537E-02 -0.10687701514E+00 -0.51611286678E-01  0.88797186270E+00  0.88000000000E+00 0.  1.
        -11    1    4    4    0    0  0.74859013032E-02  0.31333231305E-01  0.70087292582E-02  0.32972617565E-01  0.51100000000E-03 0. -1.
         11    1    4    4    0    0  0.15741796032E-01  0.82556836795E-01  0.46411894035E-01  0.96009168692E-01  0.51100000000E-03 0.  1.
</event>
<event>
 7    1  0.1061722E+005  0.1043930E+01  0.7957747E-01            NaN
         13   -1    0    0    0    0  0.00000000000E+00  0.00000000000E+00  0.74505805969E-08  0.10566000000E+00  0.10566000000E+00 0. -1.
     999900   -1    0    0    0    0 -0.00000000000E+00 -0.00000000000E+00 -0.74505805969E-08  0.93827000000E+00  0.93827000000E+00 0. -1.
     999902    2    1    2    0    0 -0.19924935850E-01  0.60220165598E-03 -0.16319684001E-01  0.10181676670E+01  0.10178416873E+01 0.  0.
         14    1    1    2    0    0  0.19924935850E-01 -0.60220165598E-03  0.16319684001E-01  0.25762332996E-01  0.00000000000E+00 0.  1.
     999901    1    3    3    0    0 -0.21049146499E-01 -0.52413057691E-01  0.97421253776E-01  0.88717591033E+00  0.88000000000E+00 0.  1.
        -11    1    3    3    0    0 -0.11494579122E-01  0.47329964843E-01 -0.10118206725E+00  0.11229569348E+00  0.51100000000E-03 0. -1.
         11    1    3    3    0    0  0.12618789770E-01  0.56852945031E-02 -0.12558870529E-01  0.18696063190E-01  0.51100000000E-03 0.  1.
</event>
<event>
 8    1  0.1061722E+005  0.1043930E+01  0.7957747E-01            NaN
         13   -1    0    0    0    0  0.00000000000E+00  0.00000000000E+00  0.74505805969E-08  0.10566000000E+00  0.10566000000E+00 0. -1.
     999900   -1    0    0    0    0 -0.00000000000E+00 -0.00000000000E+00 -0.74505805969E-08  0.93827000000E+00  0.93827000000E+00 0.  1.
     999902    2    1    2    0    0 -0.23165270807E-01  0.25993199202E-02  0.24712968123E-02  0.10204887214E+01  0.10202194553E+01 0.  0.
     999903    2    3    3    0    0  0.44762631113E-01  0.10562898992E+00  0.55563245288E-01  0.13029319917E+00  0.26979007906E-01 0.  0.
         14    1    1    2    0    0  0.23165270807E-01 -0.25993199202E-02 -0.24712968123E-02  0.23441278625E-01  0.00000000000E+00 0.  1.
     999901    1    3    3    0    0 -0.67927901920E-01 -0.10302967000E+00 -0.53091948475E-01  0.89019552220E+00  0.88000000000E+00 0.  1.
        -11    1    4    4    0    0  0.32088450709E-01  0.59690216848E-01  0.45375931044E-01  0.81558732796E-01  0.51100000000E-03 0. -1.
         11    1    4    4    0    0  0.12674180404E-01  0.45938773073E-01  0.10187314244E-01  0.48734466375E-01  0.51100000000E-03 0.  1.
</event>
<event>
 8    1  0.1061722E+005  0.1043930E+01  0.7957747E-01            NaN
         13   -1    0    0    0    0  0.00000000000E+00  0.00000000000E+00  0.74505805969E-08  0.10566000000E+00  0.10566000000E+00 0.  1.
     999900   -1    0    0    0    0 -0.00000000000E+00 -0.00000000000E+00 -0.74505805969E-08  0.93827000000E+00  0.93827000000E+00 0.  1.
     999902    2    1    2    0    0  0.72537778297E-02 -0.22707941466E-01 -0.67905824595E-02  0.10191433119E+01  0.10188418475E+01 0.  0.
     999903    2    3    3    0    0 -0.11795639424E+00 -0.40281767722E-01 -0.28568679452E-01  0.12983981358E+00  0.22491687190E-01 0.  0.
         14    1    1    2    0    0 -0.72537778297E-02  0.22707941466E-01  0.67905824595E-02  0.24786688132E-01  0.00000000000E+00 0. -1.
     999901    1    3    3    0    0  0.12521017207E+00  0.17573826256E-01  0.21778096993E-01  0.88930349829E+00  0.88000000000E+00 0.  1.
        -11    1    4    4    0    0 -0.32580193931E-01 -0.14041033597E-01  0.17263403664E-02  0.35522683361E-01  0.51100000000E-03 0. -1.
         11    1    4    4    0    0 -0.85376200306E-01 -0.26240734126E-01 -0.30295019818E-01  0.94317130220E-01  0.51100000000E-03 0.  1.
</event>
<event>
 8    1  0.1061722E+005  0.1043930E+01  0.7957747E-01            NaN
         13   -1    0    0    0    0  0.00000000000E+00  0.00000000000E+00  0.74505805969E-08  0.10566000000E+00  0.10566000000E+00 0. -1.
     999900   -1    0    0    0    0 -0.00000000000E+00 -0.00000000000E+00 -0.74505805969E-08  0.93827000000E+00  0.93827000000E+00 0. -1.
     999902    2    1    2    0    0  0.12851753353E-01  0.49077024212E-02 -0.15090056796E-01  0.10235103300E+01  0.10233066172E+01 0.  0.
     999903    2    3    3    0    0 -0.12428330968E+00  0.11824380037E-02  0.37508458508E-01  0.13132957093E+00  0.19820002908E-01 0.  0.
         14    1    1    2    0    0 -0.12851753353E-01 -0.49077024212E-02  0.15090056796E-01  0.20419669963E-01  0.00000000000E+00 0. -1.
     999901    1    3    3    0    0  0.13713506304E+00  0.37252644175E-02 -0.52598515304E-01  0.89218075911E+00  0.88000000000E+00 0.  1.
        -11    1    4    4    0    0 -0.43668390008E-01 -0.17219906142E-02  0.22925694727E-01  0.49353238367E-01  0.51100000000E-03 0. -1.
         11    1    4    4    0    0 -0.80614919675E-01  0.29044286179E-02  0.14582763781E-01  0.81976332562E-01  0.51100000000E-03 0.  1.
</event>
<event>
 8    1  0.1061722E+005  0.1043930E+01  0.7957747E-01            NaN
         13   -1    0    0    0    0  0.00000000000E+00  0.00000000000E+00  0.74505805969E-08  0.10566000000E+00  0.10566000000E+00 0.  1.
     999900   -1    0    0    0    0 -0.00000000000E+00 -0.00000000000E+00 -0.74505805969E-08  0.93827000000E+00  0.93827000000E+00 0. -1.
     999902    2    1    2    0    0  0.10468062972E-01 -0.13168564767E-01 -0.16165847337E-01  0.10205992036E+01  0.10203324989E+01 0.  0.
     999903    2    3    3    0    0 -0.14312097880E-01  0.53544705366E-01  0.11378870193E+00  0.12821313151E+00  0.20466235321E-01 0.  0.
         14    1    1    2    0    0 -0.10468062972E-01  0.13168564767E-01  0.16165847337E-01  0.23330796397E-01  0.00000000000E+00 0.  1.
     999901    1    3    3    0    0  0.24780160852E-01 -0.66713270133E-01 -0.12995454926E+00  0.89238607209E+00  0.88000000000E+00 0. -1.
        -11    1    4    4    0    0 -0.31592529326E-02  0.22968635459E-01  0.27406104670E-01  0.35901180873E-01  0.51100000000E-03 0. -1.
         11    1    4    4    0    0 -0.11152844947E-01  0.30576069907E-01  0.86382597256E-01  0.92311950641E-01  0.51100000000E-03 0.  1.
</event>
<event>
 8    1  0.1061722E+005  0.1043930E+01  0.7957747E-01            NaN
         13   -1    0    0    0    0  0.00000000000E+00  0.00000000000E+00  0.74505805969E-08  0.10566000000E+00  0.10566000000E+00 0. -1.
     999900   -1    0    0    0    0 -0.00000000000E+00 -0.00000000000E+00 -0.74505805969E-08  0.93827000000E+00  0.93827000000E+00 0. -1.
     999902    2    1    2    0    0  0.71252663096E-02  0.13540827332E-01 -0.18101408254E-01  0.10202280084E+01  0.10199526483E+01 0.  0.
     999903    2    3    3    0    0 -0.11485422204E+00  0.28596059260E-01 -0.52575834571E-01  0.13101816722E+00  0.19806939073E-01 0.  0.
         14    1    1    2    0    0 -0.71252663096E-02 -0.13540827332E-01  0.18101408254E-01  0.23701991595E-01  0.00000000000E+00 0. -1.
     999901    1    3    3    0    0  0.12197948835E+00 -0.15055231928E-01  0.34474426318E-01  0.88920984118E+00  0.88000000000E+00 0.  1.
        -11    1    4    4    0    0 -0.14051628995E-01 -0.27907643463E-02 -0.46329311859E-02  0.15065251920E-01  0.51100000000E-03 0. -1.
         11    1    4    4    0    0 -0.10080259305E+00  0.31386823606E-01 -0.47942903386E-01  0.11595291530E+00  0.51100000000E-03 0.  1.
</event>
<event>
 8    1  0.1061722E+005  0.1043930E+01  0.7957747E-01            NaN
         13   -1    0    0    0    0  0.00000000000E+00  0.00000000000E+00  0.74505805969E-08  0.10566000000E+00  0.10566000000E+00 0.  1.
     999900   -1    0    0    0    0 -0.00000000000E+00 -0.00000000000E+00 -0.74505805969E-08  0.93827000000E+00  0.93827000000E+00 0.  1.
     999902    2    1    2    0    0 -0.17705583150E-01 -0.24869812568E-02  0.13842571540E-01  0.10213182876E+01  0.10210679483E+01 0.  0.
     999903    2    3    3    0    0 -0.71679471937E-01 -0.10094215712E+00 -0.42113203688E-01  0.13242141445E+00  0.20848100610E-01 0.  0.
         14    1    1    2    0    0  0.17705583150E-01  0.24869812568E-02 -0.13842571540E-01  0.22611712392E-01  0.00000000000E+00 0. -1.
     999901    1    3    3    0    0  0.53973888787E-01  0.98455175865E-01  0.55955775229E-01  0.88889687316E+00  0.88000000000E+00 0. -1.
        -11    1    4    4    0    0 -0.22119115391E-01 -0.46378318846E-01 -0.11829767135E-01  0.52729576483E-01  0.51100000000E-03 0. -1.
         11    1    4    4    0    0 -0.49560356545E-01 -0.54563838276E-01 -0.30283436553E-01  0.79691837968E-01  0.51100000000E-03 0.  1.
</event>
<event>
 8    1  0.1061722E+005  0.1043930E+01  0.7957747E-01            NaN
         13   -1    0    0    0    0  0.00000000000E+00  0.00000000000E+00  0.74505805969E-08  0.10566000000E+00  0.10566000000E+00 0.  1.
     999900   -1    0    0    0    0 -0.00000000000E+00 -0.00000000000E+00 -0.74505805969E-08  0.93827000000E+00  0.93827000000E+00 0. -1.
     999902    2    1    2    0    0  0.16499234995E-01  0.13093642045E-01 -0.76395059672E-02  0.10215239680E+01  0.10212782123E+01 0.  0.
     999903    2    3    3    0    0 -0.18914926325E-02 -0.13371977884E-01 -0.13011559635E+00  0.13245758096E+00  0.20797951894E-01 0.  0.
         14    1    1    2    0    0 -0.16499234995E-01 -0.13093642045E-01  0.76395059672E-02  0.22406031974E-01  0.00000000000E+00 0.  1.
     999901    1    3    3    0    0  0.18390727627E-01  0.26465619929E-01  0.12247609038E+00  0.88906638707E+00  0.88000000000E+00 0.  1.
        -11    1    4    4    0    0  0.89907296769E-02 -0.23914551119E-02 -0.46871761277E-01  0.47788862760E-01  0.51100000000E-03 0. -1.
         11    1    4    4    0    0 -0.10882222309E-01 -0.10980522772E-01 -0.83243835071E-01  0.84668718197E-01  0.51100000000E-03 0.  1.
</event>
<event>
 8    1  0.1061722E+005  0.1043930E+01  0.7957747E-01            NaN
         13   -1    0    0    0    0  0.00000000000E+00  0.00000000000E+00  0.74505805969E-08  0.10566000000E+00  0.10566000000E+00 0.  1.
     999900   -1    0    0    0    0 -0.00000000000E+00 -0.00000000000E+00 -0.74505805969E-08  0.93827000000E+00  0.93827000000E+00 0.  1.
     999902    2    1    2    0    0 -0.98821893261E-03  0.46494757347E-02  0.22489882254E-01  0.10209432863E+01  0.10206844786E+01 0.  0.
     999903    2    3    3    0    0  0.89764068216E-01  0.92290562661E-02  0.95909107561E-01  0.13322298533E+00  0.20175318683E-01 0.  0.
         14    1    1    2    0    0  0.98821893261E-03 -0.46494757347E-02 -0.22489882254E-01  0.22986713664E-01  0.00000000000E+00 0. -1.
     999901    1    3    3    0    0 -0.90752287148E-01 -0.45795805314E-02 -0.73419225307E-01  0.88772030101E+00  0.88000000000E+00 0. -1.
        -11    1    4    4    0    0  0.34382917700E-01  0.93055729073E-02  0.49378496634E-01  0.60887402371E-01  0.51100000000E-03 0. -1.
         11    1    4    4    0    0  0.55381150515E-01 -0.76516641136E-04  0.46530610927E-01  0.72335582955E-01  0.51100000000E-03 0.  1.
</event>
<event>
 8    1  0.1061722E+005  0.1043930E+01  0.7957747E-01            NaN
         13   -1    0    0    0    0  0.00000000000E+00  0.00000000000E+00  0.74505805969E-08  0.10566000000E+00  0.10566000000E+00 0. -1.
     999900   -1    0    0    0    0 -0.00000000000E+00 -0.00000000000E+00 -0.74505805969E-08  0.93827000000E+00  0.93827000000E+00 0.  1.
     999902    2    1    2    0    0 -0.21376339046E-01  0.54238409000E-02 -0.13578612551E-01  0.10180312618E+01  0.10177017762E+01 0.  0.
     999903    2    3    3    0    0 -0.27971575218E-01  0.10776550606E+00  0.61785330512E-01  0.12887602368E+00  0.19894448903E-01 0.  0.
         14    1    1    2    0    0  0.21376339046E-01 -0.54238409000E-02  0.13578612551E-01  0.25898738192E-01  0.00000000000E+00 0. -1.
     999901    1    3    3    0    0  0.65952361728E-02 -0.10234166516E+00 -0.75363943063E-01  0.88915523812E+00  0.88000000000E+00 0.  1.
        -11    1    4    4    0    0 -0.36200010044E-02  0.13164943892E-02  0.25025951522E-02  0.46218684797E-02  0.51100000000E-03 0. -1.
         11    1    4    4    0    0 -0.24351574214E-01  0.10644901167E+00  0.59282735360E-01  0.12425415521E+00  0.51100000000E-03 0.  1.
</event>
<event>
 8    1  0.1061722E+005  0.1043930E+01  0.7957747E-01            NaN
         13   -1    0    0    0    0  0.00000000000E+00  0.00000000000E+00  0.74505805969E-08  0.10566000000E+00  0.10566000000E+00 0.  1.
     999900   -1    0    0    0    0 -0.00000000000E+00 -0.00000000000E+00 -0.74505805969E-08  0.93827000000E+00  0.93827000000E+00 0. -1.
     999902    2    1    2    0    0 -0.13957139848E-01 -0.12309966147E-01 -0.14656404871E-01  0.10202414538E+01  0.10199664096E+01 0.  0.
     999903    2    3    3    0    0 -0.35432487009E-02  0.61786230104E-01  0.11039638985E+00  0.12825664621E+00  0.20792103417E-01 0.  0.
         14    1    1    2    0    0  0.13957139848E-01  0.12309966147E-01  0.14656404871E-01  0.23688546241E-01  0.00000000000E+00 0.  1.
     999901    1    3    3    0    0 -0.10413891147E-01 -0.74096196251E-01 -0.12505279472E+00  0.89198480755E+00  0.88000000000E+00 0. -1.
        -11    1    4    4    0    0 -0.10379954296E-01  0.17601969995E-01  0.30919019753E-01  0.37065073889E-01  0.51100000000E-03 0. -1.
         11    1    4    4    0    0  0.68367055947E-02  0.44184260108E-01  0.79477370094E-01  0.91191572323E-01  0.51100000000E-03 0.  1.
</event>
<event>
 8    1  0.1061722E+005  0.1043930E+01  0.7957747E-01            NaN
         13   -1    0    0    0    0  0.00000000000E+00  0.00000000000E+00  0.74505805969E-08  0.10566000000E+00  0.10566000000E+00 0. -1.
     999900   -1    0    0    0    0 -0.00000000000E+00 -0.00000000000E+00 -0.74505805969E-08  0.93827000000E+00  0.93827000000E+00 0. -1.
     999902    2    1    2    0    0  0.95061680502E-02  0.12490152627E-01  0.19794965285E-01  0.10186671460E+01  0.10183538395E+01 0.  0.
     999903    2    3    3    0    0 -0.66001014915E-01  0.29203038401E-01 -0.10249127814E+00  0.12685181723E+00  0.19441451021E-01 0.  0.
         14    1    1    2    0    0 -0.95061680502E-02 -0.12490152627E-01 -0.19794965285E-01  0.25262854040E-01  0.00000000000E+00 0.  1.
     999901    1    3    3    0    0  0.75507182965E-01 -0.16712885775E-01  0.12228624342E+00  0.89181532873E+00  0.88000000000E+00 0.  1.
        -11    1    4    4    0    0 -0.38728818281E-01  0.66309362636E-02 -0.56102468327E-01  0.68495538209E-01  0.51100000000E-03 0.  1.
         11    1    4    4    0    0 -0.27272196634E-01  0.22572102138E-01 -0.46388809812E-01  0.58356279019E-01  0.51100000000E-03 0. -1.
</event>
<event>
 8    1  0.1061722E+005  0.1043930E+01  0.7957747E-01            NaN
         13   -1    0    0    0    0  0.00000000000E+00  0.00000000000E+00  0.74505805969E-08  0.10566000000E+00  0.10566000000E+00 0.  1.
     999900   -1    0    0    0    0 -0.00000000000E+00 -0.00000000000E+00 -0.74505805969E-08  0.93827000000E+00  0.93827000000E+00 0.  1.
     999902    2    1    2    0    0 -0.17832912088E-01  0.98963224632E-02 -0.30511944734E-03  0.10235328666E+01  0.10233296077E+01 0.  0.
     999903    2    3    3    0    0  0.12240419771E+00  0.21583818183E-03 -0.43228686839E-01  0.13134309344E+00  0.19986361021E-01 0.  0.
         14    1    1    2    0    0  0.17832912088E-01 -0.98963224632E-02  0.30511944734E-03  0.20397133370E-01  0.00000000000E+00 0.  1.
     999901    1    3    3    0    0 -0.14023710980E+00  0.96804842813E-02  0.42923567392E-01  0.89218977319E+00  0.88000000000E+00 0.  1.
        -11    1    4    4    0    0  0.67650948578E-01 -0.41291724309E-02 -0.14330000656E-01  0.69277059322E-01  0.51100000000E-03 0.  1.
         11    1    4    4    0    0  0.54753249131E-01  0.43450106127E-02 -0.28898686183E-01  0.62066034123E-01  0.51100000000E-03 0. -1.
</event>
<event>
 8    1  0.1061722E+005  0.1043930E+01  0.7957747E-01            NaN
         13   -1    0    0    0    0  0.00000000000E+00  0.00000000000E+00  0.74505805969E-08  0.10566000000E+00  0.10566000000E+00 0.  1.
     999900   -1    0    0    0    0 -0.00000000000E+00 -0.00000000000E+00 -0.74505805969E-08  0.93827000000E+00  0.93827000000E+00 0.  1.
     999902    2    1    2    0    0 -0.52236977020E-02 -0.93517305337E-02 -0.19427073820E-01  0.10217454766E+01  0.10215046088E+01 0.  0.
     999903    2    3    3    0    0 -0.10708751964E+00 -0.37410292014E-01 -0.68661306026E-01  0.13405885919E+00  0.19751859964E-01 0.  0.
         14    1    1    2    0    0  0.52236977020E-02  0.93517305337E-02  0.19427073820E-01  0.22184523409E-01  0.00000000000E+00 0.  1.
     999901    1    3    3    0    0  0.10186382193E+00  0.28058561480E-01  0.49234232206E-01  0.88768661740E+00  0.88000000000E+00 0. -1.
        -11    1    4    4    0    0 -0.70952291823E-01 -0.31072808167E-01 -0.54587815342E-01  0.94762006243E-01  0.51100000000E-03 0.  1.
         11    1    4    4    0    0 -0.36135227813E-01 -0.63374838470E-02 -0.14073490684E-01  0.39296852948E-01  0.51100000000E-03 0. -1.
</event>
<event>
 8    1  0.1061722E+005  0.1043930E+01  0.7957747E-01            NaN
         13   -1    0    0    0    0  0.00000000000E+00  0.00000000000E+00  0.74505805969E-08  0.10566000000E+00  0.10566000000E+00 0. -1.
     999900   -1    0    0    0    0 -0.00000000000E+00 -0.00000000000E+00 -0.74505805969E-08  0.93827000000E+00  0.93827000000E+00 0.  1.
     999902    2    1    2    0    0 -0.11456191949E-01 -0.11767733633E-01 -0.17294417834E-01  0.10200800361E+01  0.10198011862E+01 0.  0.
     999903    2    3    3    0    0 -0.10835549844E+00 -0.64422593626E-01 -0.37922982141E-01  0.13295684989E+00  0.18659762758E-01 0.  0.
         14    1    1    2    0    0  0.11456191949E-01  0.11767733633E-01  0.17294417834E-01  0.23849963879E-01  0.00000000000E+00 0. -1.
     999901    1    3    3    0    0  0.96899306494E-01  0.52654859993E-01  0.20628564306E-01  0.88712318623E+00  0.88000000000E+00 0.  1.
        -11    1    4    4    0    0 -0.54408299150E-01 -0.42904973410E-01 -0.22652029366E-01  0.72900447976E-01  0.51100000000E-03 0.  1.
         11    1    4    4    0    0 -0.53947199294E-01 -0.21517620216E-01 -0.15270952774E-01  0.60056401915E-01  0.51100000000E-03 0. -1.
</event>
<event>
 8    1  0.1061722E+005  0.1043930E+01  0.7957747E-01            NaN
         13   -1    0    0    0    0  0.00000000000E+00  0.00000000000E+00  0.74505805969E-08  0.10566000000E+00  0.10566000000E+00 0. -1.
     999900   -1    0    0    0    0 -0.00000000000E+00 -0.00000000000E+00 -0.74505805969E-08  0.93827000000E+00  0.93827000000E+00 0.  1.
     999902    2    1    2    0    0  0.59785742539E-02  0.19864540519E-01  0.10096900788E-01  0.10208585734E+01  0.10205978327E+01 0.  0.
     999903    2    3    3    0    0  0.25988445221E-01 -0.19109894796E-02  0.12713938148E+00  0.13261676458E+00  0.27271464172E-01 0.  0.
         14    1    1    2    0    0 -0.59785742539E-02 -0.19864540519E-01 -0.10096900788E-01  0.23071426606E-01  0.00000000000E+00 0.  1.
     999901    1    3    3    0    0 -0.20009870967E-01  0.21775529998E-01 -0.11704248069E+00  0.88824180882E+00  0.88000000000E+00 0.  1.
        -11    1    4    4    0    0 -0.17575723589E-02  0.42125768989E-02  0.53299794122E-01  0.53497327402E-01  0.51100000000E-03 0.  1.
         11    1    4    4    0    0  0.27746017580E-01 -0.61235663785E-02  0.73839587358E-01  0.79119437175E-01  0.51100000000E-03 0. -1.
</event>
<event>
 8    1  0.1061722E+005  0.1043930E+01  0.7957747E-01            NaN
         13   -1    0    0    0    0  0.00000000000E+00  0.00000000000E+00  0.74505805969E-08  0.10566000000E+00  0.10566000000E+00 0.  1.
     999900   -1    0    0    0    0 -0.00000000000E+00 -0.00000000000E+00 -0.74505805969E-08  0.93827000000E+00  0.93827000000E+00 0.  1.
     999902    2    1    2    0    0  0.85341423957E-02  0.16248670337E-01 -0.15896915127E-01  0.10196490860E+01  0.10193599442E+01 0.  0.
     999903    2    3    3    0    0 -0.84660601888E-01  0.15382379256E-01  0.92908305730E-01  0.12806365156E+00  0.19086918901E-01 0.  0.
         14    1    1    2    0    0 -0.85341423957E-02 -0.16248670337E-01  0.15896915127E-01  0.24280914001E-01  0.00000000000E+00 0.  1.
     999901    1    3    3    0    0  0.93194744284E-01  0.86629108119E-03 -0.10880522086E+00  0.89158543444E+00  0.88000000000E+00 0.  1.
        -11    1    4    4    0    0 -0.67969177100E-01  0.19444068418E-01  0.70712104237E-01  0.99991717852E-01  0.51100000000E-03 0. -1.
         11    1    4    4    0    0 -0.16691424788E-01 -0.40616891616E-02  0.22196201493E-01  0.28071933707E-01  0.51100000000E-03 0.  1.
</event>
<event>
 8    1  0.1061722E+005  0.1043930E+01  0.7957747E-01            NaN
         13   -1    0    0    0    0  0.00000000000E+00  0.00000000000E+00  0.74505805969E-08  0.10566000000E+00  0.10566000000E+00 0.  1.
     999900   -1    0    0    0    0 -0.00000000000E+00 -0.00000000000E+00 -0.74505805969E-08  0.93827000000E+00  0.93827000000E+00 0. -1.
     999902    2    1    2    0    0  0.93020877340E-02 -0.18452337949E-02 -0.21784811842E-01  0.10201705440E+01  0.10198938313E+01 0.  0.
     999903    2    3    3    0    0 -0.67296322791E-01 -0.85758817636E-01 -0.70839356804E-01  0.13151135483E+00  0.19840668203E-01 0.  0.
         14    1    1    2    0    0 -0.93020877340E-02  0.18452337949E-02  0.21784811842E-01  0.23759456033E-01  0.00000000000E+00 0.  1.
     999901    1    3    3    0    0  0.76598410525E-01  0.83913583841E-01  0.49054544962E-01  0.88865918913E+00  0.88000000000E+00 0.  1.
        -11    1    4    4    0    0 -0.28020775231E-01 -0.48209315234E-01 -0.28500036305E-01  0.62624397085E-01  0.51100000000E-03 0.  1.
         11    1    4    4    0    0 -0.39275547560E-01 -0.37549502401E-01 -0.42339320499E-01  0.68886957750E-01  0.51100000000E-03 0. -1.
</event>
<event>
 8    1  0.1061722E+005  0.1043930E+01  0.7957747E-01            NaN
         13   -1    0    0    0    0  0.00000000000E+00  0.00000000000E+00  0.74505805969E-08  0.10566000000E+00  0.10566000000E+00 0.  1.
     999900   -1    0    0    0    0 -0.00000000000E+00 -0.00000000000E+00 -0.74505805969E-08  0.93827000000E+00  0.93827000000E+00 0.  1.
     999902    2    1    2    0    0 -0.22033565081E-01 -0.31238167618E-02 -0.60061599630E-02  0.10208798334E+01  0.10206195786E+01 0.  0.
     999903    2    3    3    0    0  0.11321484338E+00 -0.31359642160E-01  0.48190725163E-01  0.12845241555E+00  0.19407450898E-01 0.  0.
         14    1    1    2    0    0  0.22033565081E-01  0.31238167618E-02  0.60061599630E-02  0.23050166569E-01  0.00000000000E+00 0.  1.
     999901    1    3    3    0    0 -0.13524840846E+00  0.28235825398E-01 -0.54196885126E-01  0.89242741788E+00  0.88000000000E+00 0. -1.
        -11    1    4    4    0    0  0.78326143012E-01 -0.21496102943E-01  0.23397964912E-01  0.84526877405E-01  0.51100000000E-03 0.  1.
         11    1    4    4    0    0  0.34888700371E-01 -0.98635392168E-02  0.24792760251E-01  0.43925538145E-01  0.51100000000E-03 0. -1.
</event>
<event>
 8    1  0.1061722E+005  0.1043930E+01  0.7957747E-01            NaN
         13   -1    0    0    0    0  0.00000000000E+00  0.00000000000E+00  0.74505805969E-08  0.10566000000E+00  0.10566000000E+00 0. -1.
     999900   -1    0    0    0    0 -0.00000000000E+00 -0.00000000000E+00 -0.74505805969E-08  0.93827000000E+00  0.93827000000E+00 0. -1.
     999902    2    1    2    0    0  0.19006422196E-01 -0.85508032451E-02  0.12051240488E-01  0.10198552681E+01  0.10195710741E+01 0.  0.
     999903    2    3    3    0    0 -0.60207253698E-01 -0.11320570898E+00  0.91422966188E-02  0.13011602665E+00  0.20153234495E-01 0.  0.
         14    1    1    2    0    0 -0.19006422196E-01  0.85508032451E-02 -0.12051240488E-01  0.24074731943E-01  0.00000000000E+00 0. -1.
     999901    1    3    3    0    0  0.79213675893E-01  0.10465490574E+00  0.29089438694E-02  0.88973924141E+00  0.88000000000E+00 0. -1.
        -11    1    4    4    0    0 -0.17120000295E-01 -0.47876254809E-01 -0.29194015968E-02  0.50931465828E-01  0.51100000000E-03 0. -1.
         11    1    4    4    0    0 -0.43087253402E-01 -0.65329454171E-01  0.12061698216E-01  0.79184560824E-01  0.51100000000E-03 0.  1.
</event>
<event>
 8    1  0.1061722E+005  0.1043930E+01  0.7957747E-01            NaN
         13   -1    0    0    0    0  0.00000000000E+00  0.00000000000E+00  0.74505805969E-08  0.10566000000E+00  0.10566000000E+00 0.  1.
     999900   -1    0    0    0    0 -0.00000000000E+00 -0.00000000000E+00 -0.74505805969E-08  0.93827000000E+00  0.93827000000E+00 0. -1.
     999902    2    1    2    0    0 -0.14314576448E-01 -0.67688882206E-03  0.19134179756E-01  0.10200243080E+01  0.10197441379E+01 0.  0.
     999903    2    3    3    0    0 -0.11464873812E+00 -0.61537462985E-01 -0.70465932406E-02  0.13184843215E+00  0.20078896414E-01 0.  0.
         14    1    1    2    0    0  0.14314576448E-01  0.67688882206E-03 -0.19134179756E-01  0.23905692048E-01  0.00000000000E+00 0. -1.
     999901    1    3    3    0    0  0.10033416167E+00  0.60860574163E-01  0.26180772996E-01  0.88817587580E+00  0.88000000000E+00 0. -1.
        -11    1    4    4    0    0 -0.88207814222E-01 -0.56314872820E-01 -0.41290747533E-02  0.10473439631E+00  0.51100000000E-03 0.  1.
         11    1    4    4    0    0 -0.26440923895E-01 -0.52225901651E-02 -0.29175184873E-02  0.27114035841E-01  0.51100000000E-03 0. -1.
</event>
<event>
 8    1  0.1061722E+005  0.1043930E+01  0.7957747E-01            NaN
         13   -1    0    0    0    0  0.00000000000E+00  0.00000000000E+00  0.74505805969E-08  0.10566000000E+00  0.10566000000E+00 0. -1.
     999900   -1    0    0    0    0 -0.00000000000E+00 -0.00000000000E+00 -0.74505805969E-08  0.93827000000E+00  0.93827000000E+00 0. -1.
     999902    2    1    2    0    0  0.19797459574E-01 -0.22421039432E-01  0.21704534541E-01  0.10069742260E+01  0.10062958623E+01 0.  0.
     999903    2    3    3    0    0  0.54014859192E-01  0.19057052510E-02 -0.10207146346E+00  0.11732085604E+00  0.20600069991E-01 0.  0.
         14    1    1    2    0    0 -0.19797459574E-01  0.22421039432E-01 -0.21704534541E-01  0.36955774033E-01  0.00000000000E+00 0.  1.
     999901    1    3    3    0    0 -0.34217399618E-01 -0.24326744683E-01  0.12377599800E+00  0.88965336993E+00  0.88000000000E+00 0.  1.
        -11    1    4    4    0    0  0.32538387012E-01 -0.53662982656E-02 -0.44087800963E-01  0.55059414283E-01  0.51100000000E-03 0.  1.
         11    1    4    4    0    0  0.21476472180E-01  0.72720035166E-02 -0.57983662493E-01  0.62261441756E-01  0.51100000000E-03 0. -1.
</event>
<event>
 8    1  0.1061722E+005  0.1043930E+01  0.7957747E-01            NaN
         13   -1    0    0    0    0  0.00000000000E+00  0.00000000000E+00  0.74505805969E-08  0.10566000000E+00  0.10566000000E+00 0. -1.
     999900   -1    0    0    0    0 -0.00000000000E+00 -0.00000000000E+00 -0.74505805969E-08  0.93827000000E+00  0.93827000000E+00 0.  1.
     999902    2    1    2    0    0  0.17069276105E-01 -0.46450922734E-02 -0.13038171294E-01  0.10219543093E+01  0.10217180039E+01 0.  0.
     999903    2    3    3    0    0 -0.11492661646E+00  0.52564845722E-02 -0.59026967865E-01  0.13086737403E+00  0.20157600287E-01 0.  0.
         14    1    1    2    0    0 -0.17069276105E-01  0.46450922734E-02  0.13038171294E-01  0.21975690653E-01  0.00000000000E+00 0. -1.
     999901    1    3    3    0    0  0.13199589257E+00 -0.99015768456E-02  0.45988796571E-01  0.89108693531E+00  0.88000000000E+00 0. -1.
        -11    1    4    4    0    0 -0.60215412032E-01  0.12712048603E-01 -0.32719817036E-01  0.69701790319E-01  0.51100000000E-03 0. -1.
         11    1    4    4    0    0 -0.54711204430E-01 -0.74555640308E-02 -0.26307150829E-01  0.61165583713E-01  0.51100000000E-03 0.  1.
</event>
<event>
 8    1  0.1061722E+005  0.1043930E+01  0.7957747E-01            NaN
         13   -1    0    0    0    0  0.00000000000E+00  0.00000000000E+00  0.74505805969E-08  0.10566000000E+00  0.10566000000E+00 0.  1.
     999900   -1    0    0    0    0 -0.00000000000E+00 -0.00000000000E+00 -0.74505805969E-08  0.93827000000E+00  0.93827000000E+00 0. -1.
     999902    2    1    2    0    0  0.57513136951E-02 -0.17692291733E-01  0.10081126027E-01  0.10227705128E+01  0.10225516114E+01 0.  0.
     999903    2    3    3    0    0  0.80715814350E-01  0.89234841383E-01 -0.48451984843E-01  0.13121052424E+00  0.19766315634E-01 0.  0.
         14    1    1    2    0    0 -0.57513136951E-02  0.17692291733E-01 -0.10081126027E-01  0.21159487186E-01  0.00000000000E+00 0.  1.
     999901    1    3    3    0    0 -0.74964500655E-01 -0.10692713312E+00  0.58533110871E-01  0.89155998857E+00  0.88000000000E+00 0.  1.
        -11    1    4    4    0    0  0.26058881767E-01  0.32388645029E-01 -0.71352934690E-02  0.42181313157E-01  0.51100000000E-03 0. -1.
         11    1    4    4    0    0  0.54656932583E-01  0.56846196354E-01 -0.41316691374E-01  0.89029211085E-01  0.51100000000E-03 0.  1.
</event>
<event>
 8    1  0.1061722E+005  0.1043930E+01  0.7957747E-01            NaN
         13   -1    0    0    0    0  0.00000000000E+00  0.00000000000E+00  0.74505805969E-08  0.10566000000E+00  0.10566000000E+00 0. -1.
     999900   -1    0    0    0    0 -0.00000000000E+00 -0.00000000000E+00 -0.74505805969E-08  0.93827000000E+00  0.93827000000E+00 0.  1.
     999902    2    1    2    0    0 -0.64192468591E-02  0.13731668825E-01 -0.14726860136E-01  0.10227960021E+01  0.10225776332E+01 0.  0.
     999903    2    3    3    0    0  0.56767303675E-01 -0.10381741243E+00  0.51044767003E-01  0.13030721581E+00  0.19334434641E-01 0.  0.
         14    1    1    2    0    0  0.64192468591E-02 -0.13731668825E-01  0.14726860136E-01  0.21133997928E-01  0.00000000000E+00 0. -1.
     999901    1    3    3    0    0 -0.63186550534E-01  0.11754908125E+00 -0.65771627139E-01  0.89248878626E+00  0.88000000000E+00 0.  1.
        -11    1    4    4    0    0  0.42227026768E-01 -0.59504332105E-01  0.26724652540E-01  0.77706856218E-01  0.51100000000E-03 0.  1.
         11    1    4    4    0    0  0.14540276907E-01 -0.44313080325E-01  0.24320114463E-01  0.52600359589E-01  0.51100000000E-03 0. -1.
</event>
<event>
 8    1  0.1061722E+005  0.1043930E+01  0.7957747E-01            NaN
         13   -1    0    0    0    0  0.00000000000E+00  0.00000000000E+00  0.74505805969E-08  0.10566000000E+00  0.10566000000E+00 0. -1.
     999900   -1    0    0    0    0 -0.00000000000E+00 -0.00000000000E+00 -0.74505805969E-08  0.93827000000E+00  0.93827000000E+00 0.  1.
     999902    2    1    2    0    0 -0.87632881435E-02 -0.20802978087E-01  0.19044980453E-02  0.10212763860E+01  0.10210251076E+01 0.  0.
     999903    2    3    3    0    0 -0.16506460074E-01  0.12450671199E+00  0.21814363301E-01  0.12910416857E+00  0.20436128335E-01 0.  0.
         14    1    1    2    0    0  0.87632881435E-02  0.20802978087E-01 -0.19044980453E-02  0.22653614043E-01  0.00000000000E+00 0.  1.
     999901    1    3    3    0    0  0.77431719305E-02 -0.14530969008E+00 -0.19909865256E-01  0.89217221739E+00  0.88000000000E+00 0.  1.
        -11    1    4    4    0    0 -0.16600969581E-01  0.94345636485E-01  0.24318300883E-01  0.98834873368E-01  0.51100000000E-03 0. -1.
         11    1    4    4    0    0  0.94509507436E-04  0.30161075505E-01 -0.25039375813E-02  0.30269295203E-01  0.51100000000E-03 0.  1.
</event>
<event>
 8    1  0.1061722E+005  0.1043930E+01  0.7957747E-01            NaN
         13   -1    0    0    0    0  0.00000000000E+00  0.00000000000E+00  0.74505805969E-08  0.10566000000E+00  0.10566000000E+00 0.  1.
     999900   -1    0    0    0    0 -0.00000000000E+00 -0.00000000000E+00 -0.74505805969E-08  0.93827000000E+00  0.93827000000E+00 0. -1.
     999902    2    1    2    0    0 -0.13006825355E-01  0.71002443910E-02  0.18645266199E-01  0.10201132637E+01  0.10198351994E+01 0.  0.
     999903    2    3    3    0    0 -0.66926188454E-01  0.10083912573E+00 -0.46484956206E-01  0.13110470274E+00  0.19492253572E-01 0.  0.
         14    1    1    2    0    0  0.13006825355E-01 -0.71002443910E-02 -0.18645266199E-01  0.23816736297E-01  0.00000000000E+00 0. -1.
     999901    1    3    3    0    0  0.53919363100E-01 -0.93738881335E-01  0.65130222405E-01  0.88900856096E+00  0.88000000000E+00 0.  1.
        -11    1    4    4    0    0 -0.10147821889E-01  0.75188032774E-02 -0.69633451407E-03  0.12659253318E-01  0.51100000000E-03 0. -1.
         11    1    4    4    0    0 -0.56778366566E-01  0.93320322449E-01 -0.45788621692E-01  0.11844544942E+00  0.51100000000E-03 0.  1.
</event>
<event>
 8    1  0.1061722E+005  0.1043930E+01  0.7957747E-01            NaN
         13   -1    0    0    0    0  0.00000000000E+00  0.00000000000E+00  0.74505805969E-08  0.10566000000E+00  0.10566000000E+00 0. -1.
     999900   -1    0    0    0    0 -0.00000000000E+00 -0.00000000000E+00 -0.74505805969E-08  0.93827000000E+00  0.93827000000E+00 0. -1.
     999902    2    1    2    0    0 -0.13369670265E-04  0.10015523030E-02 -0.23253463769E-01  0.10206549734E+01  0.10203895569E+01 0.  0.
     999903    2    3    3    0    0  0.27819157871E-01 -0.12083897877E+00  0.29019250273E-01  0.13028864361E+00  0.27514531289E-01 0.  0.
         14    1    1    2    0    0  0.13369670265E-04 -0.10015523030E-02  0.23253463769E-01  0.23275026595E-01  0.00000000000E+00 0. -1.
     999901    1    3    3    0    0 -0.27832527541E-01  0.12184053107E+00 -0.52272714041E-01  0.89036632980E+00  0.88000000000E+00 0. -1.
        -11    1    4    4    0    0  0.32326203755E-01 -0.11414207223E+00  0.24923305246E-01  0.12122222720E+00  0.51100000000E-03 0. -1.
         11    1    4    4    0    0 -0.45070458841E-02 -0.66969065389E-02  0.40959450264E-02  0.90664164062E-02  0.51100000000E-03 0.  1.
</event>
<event>
 8    1  0.1061722E+005  0.1043930E+01  0.7957747E-01            NaN
         13   -1    0    0    0    0  0.00000000000E+00  0.00000000000E+00  0.74505805969E-08  0.10566000000E+00  0.10566000000E+00 0. -1.
     999900   -1    0    0    0    0 -0.00000000000E+00 -0.00000000000E+00 -0.74505805969E-08  0.93827000000E+00  0.93827000000E+00 0.  1.
     999902    2    1    2    0    0 -0.22978446259E-02  0.20685214696E-01  0.10900190058E-01  0.10204359084E+01  0.10201654135E+01 0.  0.
     999903    2    3    3    0    0  0.87177049422E-01  0.28162467342E-01  0.92340567471E-01  0.13212616453E+00  0.23185780997E-01 0.  0.
         14    1    1    2    0    0  0.22978446259E-02 -0.20685214696E-01 -0.10900190058E-01  0.23494091603E-01  0.00000000000E+00 0.  1.
     999901    1    3    3    0    0 -0.89474894048E-01 -0.74772526457E-02 -0.81440377413E-01  0.88830974386E+00  0.88000000000E+00 0.  1.
        -11    1    4    4    0    0  0.65348481546E-01  0.12668845622E-01  0.74738256672E-01  0.10008492305E+00  0.51100000000E-03 0.  1.
         11    1    4    4    0    0  0.21828567876E-01  0.15493621720E-01  0.17602310799E-01  0.32041241486E-01  0.51100000000E-03 0. -1.
</event>
<event>
 8    1  0.1061722E+005  0.1043930E+01  0.7957747E-01            NaN
         13   -1    0    0    0    0  0.00000000000E+00  0.00000000000E+00  0.74505805969E-08  0.10566000000E+00  0.10566000000E+00 0. -1.
     999900   -1    0    0    0    0 -0.00000000000E+00 -0.00000000000E+00 -0.74505805969E-08  0.93827000000E+00  0.93827000000E+00 0.  1.
     999902    2    1    2    0    0 -0.17428836913E-01  0.14960980256E-01  0.70114635980E-02  0.10199142571E+01  0.10196314706E+01 0.  0.
     999903    2    3    3    0    0  0.50100891145E-01  0.18750504788E-01 -0.11549965072E+00  0.12885668441E+00  0.20054801905E-01 0.  0.
         14    1    1    2    0    0  0.17428836913E-01 -0.14960980256E-01 -0.70114635980E-02  0.24015742923E-01  0.00000000000E+00 0.  1.
     999901    1    3    3    0    0 -0.67529728057E-01 -0.37895245320E-02  0.12251111431E+00  0.89105757266E+00  0.88000000000E+00 0. -1.
        -11    1    4    4    0    0  0.43630813291E-01  0.17398831741E-01 -0.80237847318E-01  0.92977096522E-01  0.51100000000E-03 0.  1.
         11    1    4    4    0    0  0.64700778535E-02  0.13516730472E-02 -0.35261803399E-01  0.35879587893E-01  0.51100000000E-03 0. -1.
</event>
<event>
 8    1  0.1061722E+005  0.1043930E+01  0.7957747E-01            NaN
         13   -1    0    0    0    0  0.00000000000E+00  0.00000000000E+00  0.74505805969E-08  0.10566000000E+00  0.10566000000E+00 0.  1.
     999900   -1    0    0    0    0 -0.00000000000E+00 -0.00000000000E+00 -0.74505805969E-08  0.93827000000E+00  0.93827000000E+00 0. -1.
     999902    2    1    2    0    0  0.44576193078E-03 -0.15550046647E-01  0.18214143246E-01  0.10199767608E+01  0.10196954618E+01 0.  0.
     999903    2    3    3    0    0 -0.26542967770E-01  0.55794940204E-02 -0.12337795721E+00  0.12799964677E+00  0.20642900921E-01 0.  0.
         14    1    1    2    0    0 -0.44576193078E-03  0.15550046647E-01 -0.18214143246E-01  0.23953239209E-01  0.00000000000E+00 0. -1.
     999901    1    3    3    0    0  0.26988729701E-01 -0.21129540667E-01  0.14159210045E+00  0.89197711402E+00  0.88000000000E+00 0.  1.
        -11    1    4    4    0    0  0.15610017176E-02  0.56898237640E-02 -0.24332787989E-01  0.25043093122E-01  0.51100000000E-03 0. -1.
         11    1    4    4    0    0 -0.28103969488E-01 -0.11032974364E-03 -0.99045169217E-01  0.10295655365E+00  0.51100000000E-03 0.  1.
</event>
<event>
 8    1  0.1061722E+005  0.1043930E+01  0.7957747E-01            NaN
         13   -1    0    0    0    0  0.00000000000E+00  0.00000000000E+00  0.74505805969E-08  0.10566000000E+00  0.10566000000E+00 0.  1.
     999900   -1    0    0    0    0 -0.00000000000E+00 -0.00000000000E+00 -0.74505805969E-08  0.93827000000E+00  0.93827000000E+00 0. -1.
     999902    2    1    2    0    0 -0.30276850028E-02 -0.10233315877E-01  0.22581238372E-01  0.10189540124E+01  0.10186478682E+01 0.  0.
     999903    2    3    3    0    0 -0.73210235924E-01  0.10021410506E+00  0.30823904757E-01  0.12923935882E+00  0.18710779391E-01 0.  0.
         14    1    1    2    0    0  0.30276850028E-02  0.10233315877E-01 -0.22581238372E-01  0.24975987603E-01  0.00000000000E+00 0. -1.
     999901    1    3    3    0    0  0.70182550921E-01 -0.11044742094E+00 -0.82426663852E-02  0.88971465358E+00  0.88000000000E+00 0.  1.
        -11    1    4    4    0    0 -0.61473530511E-01  0.73369166847E-01  0.18710653929E-01  0.97531427185E-01  0.51100000000E-03 0.  1.
         11    1    4    4    0    0 -0.11736705413E-01  0.26844938216E-01  0.12113250828E-01  0.31707931632E-01  0.51100000000E-03 0. -1.
</event>
<event>
 8    1  0.1061722E+005  0.1043930E+01  0.7957747E-01            NaN
         13   -1    0    0    0    0  0.00000000000E+00  0.00000000000E+00  0.74505805969E-08  0.10566000000E+00  0.10566000000E+00 0. -1.
     999900   -1    0    0    0    0 -0.00000000000E+00 -0.00000000000E+00 -0.74505805969E-08  0.93827000000E+00  0.93827000000E+00 0.  1.
     999902    2    1    2    0    0 -0.15598211488E-01 -0.16986404149E-02 -0.18608891471E-01  0.10195890793E+01  0.10192984892E+01 0.  0.
     999903    2    3    3    0    0 -0.10633377254E+00 -0.71314048688E-01  0.20960592164E-01  0.13130703444E+00  0.20239222944E-01 0.  0.
         14    1    1    2    0    0  0.15598211488E-01  0.16986404149E-02  0.18608891471E-01  0.24340920744E-01  0.00000000000E+00 0. -1.
     999901    1    3    3    0    0  0.90735561056E-01  0.69615408273E-01 -0.39569483635E-01  0.88828204482E+00  0.88000000000E+00 0.  1.
        -11    1    4    4    0    0 -0.45767998293E-01 -0.42666004081E-01  0.11927481054E-01  0.63699477998E-01  0.51100000000E-03 0.  1.
         11    1    4    4    0    0 -0.60565774252E-01 -0.28648044607E-01  0.90331111099E-02  0.67607556441E-01  0.51100000000E-03 0. -1.
</event>
<event>
 8    1  0.1061722E+005  0.1043930E+01  0.7957747E-01            NaN
         13   -1    0    0    0    0  0.00000000000E+00  0.00000000000E+00  0.74505805969E-08  0.10566000000E+00  0.10566000000E+00 0. -1.
     999900   -1    0    0    0    0 -0.00000000000E+00 -0.00000000000E+00 -0.74505805969E-08  0.93827000000E+00  0.93827000000E+00 0. -1.
     999902    2    1    2    0    0 -0.59452864935E-02 -0.17532072480E-01  0.13678942073E-01  0.10209118886E+01  0.10206523653E+01 0.  0.
     999903    2    3    3    0    0  0.74817169140E-01  0.94236849561E-01 -0.38781413766E-01  0.12863000761E+00  0.23737906217E-01 0.  0.
         14    1    1    2    0    0  0.59452864935E-02  0.17532072480E-01 -0.13678942073E-01  0.23018111416E-01  0.00000000000E+00 0.  1.
     999901    1    3    3    0    0 -0.80762455633E-01 -0.11176892204E+00  0.52460355839E-01  0.89228188097E+00  0.88000000000E+00 0.  1.
        -11    1    4    4    0    0  0.37643112496E-01  0.63153291131E-01 -0.29863705851E-01  0.79356437340E-01  0.51100000000E-03 0.  1.
         11    1    4    4    0    0  0.37174056644E-01  0.31083558430E-01 -0.89177079144E-02  0.49273570273E-01  0.51100000000E-03 0. -1.
</event>
<event>
 8    1  0.1061722E+005  0.1043930E+01  0.7957747E-01            NaN
         13   -1    0    0    0    0  0.00000000000E+00  0.00000000000E+00  0.74505805969E-08  0.10566000000E+00  0.10566000000E+00 0. -1.
     999900   -1    0    0    0    0 -0.00000000000E+00 -0.00000000000E+00 -0.74505805969E-08  0.93827000000E+00  0.93827000000E+00 0. -1.
     999902    2    1    2    0    0 -0.61650613550E-03  0.19225681777E-01 -0.14059860585E-01  0.10201038253E+01  0.10198255380E+01 0.  0.
     999903    2    3    3    0    0 -0.71006953838E-01  0.10691767930E+00 -0.28295038946E-01  0.13283422602E+00  0.19259925603E-01 0.  0.
         14    1    1    2    0    0  0.61650613550E-03 -0.19225681777E-01  0.14059860585E-01  0.23826174667E-01  0.00000000000E+00 0. -1.
     999901    1    3    3    0    0  0.70390447702E-01 -0.87691997522E-01  0.14235178361E-01  0.88726959931E+00  0.88000000000E+00 0. -1.
        -11    1    4    4    0    0 -0.43462594206E-01  0.75425811359E-01 -0.11759925432E-01  0.87844220535E-01  0.51100000000E-03 0.  1.
         11    1    4    4    0    0 -0.27544359632E-01  0.31491867940E-01 -0.16535113514E-01  0.44990005488E-01  0.51100000000E-03 0. -1.
</event>
<event>
 8    1  0.1061722E+005  0.1043930E+01  0.7957747E-01            NaN
         13   -1    0    0    0    0  0.00000000000E+00  0.00000000000E+00  0.74505805969E-08  0.10566000000E+00  0.10566000000E+00 0.  1.
     999900   -1    0    0    0    0 -0.00000000000E+00 -0.00000000000E+00 -0.74505805969E-08  0.93827000000E+00  0.93827000000E+00 0.  1.
     999902    2    1    2    0    0  0.21943760116E-02  0.17965484367E-01  0.14801972616E-01  0.10205489755E+01  0.10202811078E+01 0.  0.
     999903    2    3    3    0    0 -0.97316147562E-01  0.50336397244E-01  0.72231634169E-01  0.13249020133E+00  0.18222486394E-01 0.  0.
         14    1    1    2    0    0 -0.21943760116E-02 -0.17965484367E-01 -0.14801972616E-01  0.23381024527E-01  0.00000000000E+00 0. -1.
     999901    1    3    3    0    0  0.99510523573E-01 -0.32370912877E-01 -0.57429661553E-01  0.88805877414E+00  0.88000000000E+00 0. -1.
        -11    1    4    4    0    0 -0.73197235113E-01  0.28845192021E-01  0.53501205085E-01  0.95144733945E-01  0.51100000000E-03 0.  1.
         11    1    4    4    0    0 -0.24118912449E-01  0.21491205223E-01  0.18730429084E-01  0.37345467387E-01  0.51100000000E-03 0. -1.
</event>
<event>
 8    1  0.1061722E+005  0.1043930E+01  0.7957747E-01            NaN
         13   -1    0    0    0    0  0.00000000000E+00  0.00000000000E+00  0.74505805969E-08  0.10566000000E+00  0.10566000000E+00 0. -1.
     999900   -1    0    0    0    0 -0.00000000000E+00 -0.00000000000E+00 -0.74505805969E-08  0.93827000000E+00  0.93827000000E+00 0. -1.
     999902    2    1    2    0    0  0.10146620974E-02 -0.21644944090E-01  0.10970558878E-01  0.10196424249E+01  0.10193531225E+01 0.  0.
     999903    2    3    3    0    0  0.93210850485E-01  0.70027468071E-01 -0.48700734119E-01  0.12809061397E+00  0.21055520666E-01 0.  0.
         14    1    1    2    0    0 -0.10146620974E-02  0.21644944090E-01 -0.10970558878E-01  0.24287575135E-01  0.00000000000E+00 0.  1.
     999901    1    3    3    0    0 -0.92196188388E-01 -0.91672412161E-01  0.59671292997E-01  0.89155181090E+00  0.88000000000E+00 0. -1.
        -11    1    4    4    0    0  0.80644404055E-01  0.51452465770E-01 -0.43369239801E-01  0.10503346239E+00  0.51100000000E-03 0. -1.
         11    1    4    4    0    0  0.12566446431E-01  0.18575002301E-01 -0.53314943174E-02  0.23057151581E-01  0.51100000000E-03 0.  1.
</event>
<event>
 8    1  0.1061722E+005  0.1043930E+01  0.7957747E-01            NaN
         13   -1    0    0    0    0  0.00000000000E+00  0.00000000000E+00  0.74505805969E-08  0.10566000000E+00  0.10566000000E+00 0. -1.
     999900   -1    0    0    0    0 -0.00000000000E+00 -0.00000000000E+00 -0.74505805969E-08  0.93827000000E+00  0.93827000000E+00 0. -1.
     999902    2    1    2    0    0  0.23132781342E-01 -0.91296033419E-02  0.92284652432E-03  0.10190437211E+01  0.10187397993E+01 0.  0.
     999903    2    3    3    0    0  0.29508603070E-01  0.61265137925E-01  0.10867700154E+00  0.12965796197E+00  0.19399011781E-01 0.  0.
         14    1    1    2    0    0 -0.23132781342E-01  0.91296033419E-02 -0.92284652432E-03  0.24886278860E-01  0.00000000000E+00 0. -1.
     999901    1    3    3    0    0 -0.63758217279E-02 -0.70394741267E-01 -0.10775415501E+00  0.88938575917E+00  0.88000000000E+00 0. -1.
        -11    1    4    4    0    0  0.19545053852E-01  0.28300434964E-01  0.69136999060E-01  0.77221172674E-01  0.51100000000E-03 0.  1.
         11    1    4    4    0    0  0.99635492179E-02  0.32964702961E-01  0.39540002476E-01  0.52436789291E-01  0.51100000000E-03 0. -1.
</event>
<event>
 7    1  0.1061722E+005  0.1043930E+01  0.7957747E-01            NaN
         13   -1    0    0    0    0  0.00000000000E+00  0.00000000000E+00  0.74505805969E-08  0.10566000000E+00  0.10566000000E+00 0. -1.
     999900   -1    0    0    0    0 -0.00000000000E+00 -0.00000000000E+00 -0.74505805969E-08  0.93827000000E+00  0.93827000000E+00 0. -1.
     999903    2    1    2    0    0  0.37055312333E-01 -0.25965014069E-01 -0.10824179132E+00  0.11900241465E+00  0.19950217484E-01 0.  0.
         14    1    1    2    0    0 -0.11834418868E-01  0.36234293119E-01  0.29326867031E-02  0.38230591404E-01  0.00000000000E+00 0. -1.
     999901    1    1    2    0    0 -0.25220893466E-01 -0.10269279050E-01  0.10530910461E+00  0.88669699395E+00  0.88000000000E+00 0.  1.
        -11    1    3    3    0    0  0.23432932206E-01 -0.16564951497E-01 -0.43048672684E-01  0.51739243044E-01  0.51100000000E-03 0.  1.
         11    1    3    3    0    0  0.13622380128E-01 -0.94000625720E-02 -0.65193118631E-01  0.67263171606E-01  0.51100000000E-03 0. -1.
</event>
<event>
 8    1  0.1061722E+005  0.1043930E+01  0.7957747E-01            NaN
         13   -1    0    0    0    0  0.00000000000E+00  0.00000000000E+00  0.74505805969E-08  0.10566000000E+00  0.10566000000E+00 0. -1.
     999900   -1    0    0    0    0 -0.00000000000E+00 -0.00000000000E+00 -0.74505805969E-08  0.93827000000E+00  0.93827000000E+00 0. -1.
     999902    2    1    2    0    0  0.12012700192E-01 -0.98404300102E-02 -0.14938195810E-01  0.10223826400E+01  0.10221555527E+01 0.  0.
     999903    2    3    3    0    0  0.29257288624E-01  0.11857466320E+00  0.43795933707E-01  0.13095821249E+00  0.17777230366E-01 0.  0.
         14    1    1    2    0    0 -0.12012700192E-01  0.98404300102E-02  0.14938195810E-01  0.21547359994E-01  0.00000000000E+00 0. -1.
     999901    1    3    3    0    0 -0.17244588433E-01 -0.12841509321E+00 -0.58734129517E-01  0.89142442751E+00  0.88000000000E+00 0. -1.
        -11    1    4    4    0    0  0.15977178993E-01  0.39319351741E-01  0.90087446830E-02  0.43390094165E-01  0.51100000000E-03 0.  1.
         11    1    4    4    0    0  0.13280109631E-01  0.79255311460E-01  0.34787189024E-01  0.87568118328E-01  0.51100000000E-03 0. -1.
</event>
<event>
 8    1  0.1061722E+005  0.1043930E+01  0.7957747E-01            NaN
         13   -1    0    0    0    0  0.00000000000E+00  0.00000000000E+00  0.74505805969E-08  0.10566000000E+00  0.10566000000E+00 0. -1.
     999900   -1    0    0    0    0 -0.00000000000E+00 -0.00000000000E+00 -0.74505805969E-08  0.93827000000E+00  0.93827000000E+00 0.  1.
     999902    2    1    2    0    0 -0.13775302385E-02 -0.17297648908E-02 -0.23942340860E-01  0.10198857624E+01  0.10196022965E+01 0.  0.
     999903    2    3    3    0    0  0.90333244271E-01  0.81246634172E-01  0.38718227584E-01  0.12903095054E+00  0.19717364583E-01 0.  0.
         14    1    1    2    0    0  0.13775302385E-02  0.17297648908E-02  0.23942340860E-01  0.24044237604E-01  0.00000000000E+00 0. -1.
     999901    1    3    3    0    0 -0.91710774510E-01 -0.82976399063E-01 -0.62660568444E-01  0.89085481185E+00  0.88000000000E+00 0.  1.
        -11    1    4    4    0    0  0.19453715077E-01  0.76661749160E-02  0.63732300637E-02  0.21865416771E-01  0.51100000000E-03 0.  1.
         11    1    4    4    0    0  0.70879529194E-01  0.73580459256E-01  0.32344997521E-01  0.10716553377E+00  0.51100000000E-03 0. -1.
</event>
<event>
 8    1  0.1061722E+005  0.1043930E+01  0.7957747E-01            NaN
         13   -1    0    0    0    0  0.00000000000E+00  0.00000000000E+00  0.74505805969E-08  0.10566000000E+00  0.10566000000E+00 0.  1.
     999900   -1    0    0    0    0 -0.00000000000E+00 -0.00000000000E+00 -0.74505805969E-08  0.93827000000E+00  0.93827000000E+00 0.  1.
     999902    2    1    2    0    0  0.46950481508E-02 -0.16617905597E-02 -0.23031941816E-01  0.10203657184E+01  0.10200935858E+01 0.  0.
     999903    2    3    3    0    0 -0.41190712182E-01  0.12162855188E+00  0.46762943641E-02  0.13015576679E+00  0.20699673819E-01 0.  0.
         14    1    1    2    0    0 -0.46950481508E-02  0.16617905597E-02  0.23031941816E-01  0.23564281632E-01  0.00000000000E+00 0.  1.
     999901    1    3    3    0    0  0.45885760333E-01 -0.12329034244E+00 -0.27708236180E-01  0.89020995158E+00  0.88000000000E+00 0. -1.
        -11    1    4    4    0    0 -0.57903655596E-02  0.36695592983E-01 -0.55781310868E-02  0.37569556094E-01  0.51100000000E-03 0.  1.
         11    1    4    4    0    0 -0.35400346623E-01  0.84932958899E-01  0.10254425451E-01  0.92586210694E-01  0.51100000000E-03 0. -1.
</event>
<event>
 8    1  0.1061722E+005  0.1043930E+01  0.7957747E-01            NaN
         13   -1    0    0    0    0  0.00000000000E+00  0.00000000000E+00  0.74505805969E-08  0.10566000000E+00  0.10566000000E+00 0. -1.
     999900   -1    0    0    0    0 -0.00000000000E+00 -0.00000000000E+00 -0.74505805969E-08  0.93827000000E+00  0.93827000000E+00 0.  1.
     999902    2    1    2    0    0 -0.24013093356E-01  0.38093755739E-02  0.83835217432E-03  0.10196021799E+01  0.10193119064E+01 0.  0.
     999903    2    3    3    0    0  0.24304646052E-01 -0.24938843372E-01 -0.12290031808E+00  0.12916839657E+00  0.19165718366E-01 0.  0.
         14    1    1    2    0    0  0.24013093356E-01 -0.38093755739E-02 -0.83835217432E-03  0.24327820066E-01  0.00000000000E+00 0. -1.
     999901    1    3    3    0    0 -0.48317739409E-01  0.28748218946E-01  0.12373867025E+00  0.89043378336E+00  0.88000000000E+00 0. -1.
        -11    1    4    4    0    0  0.21328089074E-02 -0.13950157925E-01 -0.58378626092E-01  0.60062308358E-01  0.51100000000E-03 0. -1.
         11    1    4    4    0    0  0.22171837145E-01 -0.10988685447E-01 -0.64521691989E-01  0.69106088215E-01  0.51100000000E-03 0.  1.
</event>
<event>
 8    1  0.1061722E+005  0.1043930E+01  0.7957747E-01            NaN
         13   -1    0    0    0    0  0.00000000000E+00  0.00000000000E+00  0.74505805969E-08  0.10566000000E+00  0.10566000000E+00 0. -1.
     999900   -1    0    0    0    0 -0.00000000000E+00 -0.00000000000E+00 -0.74505805969E-08  0.93827000000E+00  0.93827000000E+00 0.  1.
     999902    2    1    2    0    0  0.10697748662E-01 -0.20739077229E-01 -0.65897488349E-02  0.10196817848E+01  0.10193934306E+01 0.  0.
     999903    2    3    3    0    0 -0.26491486468E-01  0.91960896486E-01  0.81693808408E-01  0.12733750720E+00  0.19553952791E-01 0.  0.
         14    1    1    2    0    0 -0.10697748662E-01  0.20739077229E-01  0.65897488349E-02  0.24248215201E-01  0.00000000000E+00 0. -1.
     999901    1    3    3    0    0  0.37189235131E-01 -0.11269997371E+00 -0.88283557243E-01  0.89234427760E+00  0.88000000000E+00 0.  1.
        -11    1    4    4    0    0 -0.50334386586E-02  0.29336291908E-01  0.36876282082E-01  0.47392771905E-01  0.51100000000E-03 0. -1.
         11    1    4    4    0    0 -0.21458047810E-01  0.62624604577E-01  0.44817526326E-01  0.79944735294E-01  0.51100000000E-03 0.  1.
</event>
<event>
 8    1  0.1061722E+005  0.1043930E+01  0.7957747E-01            NaN
         13   -1    0    0    0    0  0.00000000000E+00  0.00000000000E+00  0.74505805969E-08  0.10566000000E+00  0.10566000000E+00 0.  1.
     999900   -1    0    0    0    0 -0.00000000000E+00 -0.00000000000E+00 -0.74505805969E-08  0.93827000000E+00  0.93827000000E+00 0.  1.
     999902    2    1    2    0    0  0.38873702226E-02 -0.65240049660E-02  0.25508351984E-01  0.10173151487E+01  0.10169669422E+01 0.  0.
     999903    2    3    3    0    0 -0.12198251370E+00  0.24694389203E-01  0.20756195858E-01  0.12779820183E+00  0.20298133326E-01 0.  0.
         14    1    1    2    0    0 -0.38873702226E-02  0.65240049660E-02 -0.25508351984E-01  0.26614851286E-01  0.00000000000E+00 0. -1.
     999901    1    3    3    0    0  0.12586988392E+00 -0.31218394169E-01  0.47521561252E-02  0.88951694689E+00  0.88000000000E+00 0. -1.
        -11    1    4    4    0    0 -0.10148837432E+00  0.24688215488E-01  0.23653122021E-01  0.10709402135E+00  0.51100000000E-03 0.  1.
         11    1    4    4    0    0 -0.20494139379E-01  0.61737144812E-05 -0.28969261626E-02  0.20704180476E-01  0.51100000000E-03 0. -1.
</event>
<event>
 8    1  0.1061722E+005  0.1043930E+01  0.7957747E-01            NaN
         13   -1    0    0    0    0  0.00000000000E+00  0.00000000000E+00  0.74505805969E-08  0.10566000000E+00  0.10566000000E+00 0. -1.
     999900   -1    0    0    0    0 -0.00000000000E+00 -0.00000000000E+00 -0.74505805969E-08  0.93827000000E+00  0.93827000000E+00 0.  1.
     999902    2    1    2    0    0  0.16094260764E-01  0.15212927274E-02 -0.17407860154E-01  0.10201734608E+01  0.10198968168E+01 0.  0.
     999903    2    3    3    0    0  0.38970130691E-01  0.11718332102E+00 -0.42355838581E-01  0.13195985367E+00  0.19203752384E-01 0.  0.
         14    1    1    2    0    0 -0.16094260764E-01 -0.15212927274E-02  0.17407860154E-01  0.23756539231E-01  0.00000000000E+00 0. -1.
     999901    1    3    3    0    0 -0.22875869926E-01 -0.11566202830E+00  0.24947978428E-01  0.88821360710E+00  0.88000000000E+00 0. -1.
        -11    1    4    4    0    0  0.23953236404E-01  0.88305767754E-01 -0.24021021475E-01  0.94598820006E-01  0.51100000000E-03 0. -1.
         11    1    4    4    0    0  0.15016894287E-01  0.28877553269E-01 -0.18334817106E-01  0.37361033660E-01  0.51100000000E-03 0.  1.
</event>
<event>
 8    1  0.1061722E+005  0.1043930E+01  0.7957747E-01            NaN
         13   -1    0    0    0    0  0.00000000000E+00  0.00000000000E+00  0.74505805969E-08  0.10566000000E+00  0.10566000000E+00 0.  1.
     999900   -1    0    0    0    0 -0.00000000000E+00 -0.00000000000E+00 -0.74505805969E-08  0.93827000000E+00  0.93827000000E+00 0.  1.
     999902    2    1    2    0    0  0.22559291161E-01 -0.45233867086E-02 -0.65431000179E-02  0.10200094063E+01  0.10197288827E+01 0.  0.
     999903    2    3    3    0    0 -0.38507642937E-01  0.67526132742E-02  0.12100975491E+00  0.12864749921E+00  0.19452041516E-01 0.  0.
         14    1    1    2    0    0 -0.22559291161E-01  0.45233867086E-02  0.65431000179E-02  0.23920593698E-01  0.00000000000E+00 0.  1.
     999901    1    3    3    0    0  0.61066934099E-01 -0.11275999983E-01 -0.12755285493E+00  0.89136190709E+00  0.88000000000E+00 0.  1.
        -11    1    4    4    0    0 -0.15234133826E-01 -0.41593085968E-02  0.28004821759E-01  0.32154468495E-01  0.51100000000E-03 0.  1.
         11    1    4    4    0    0 -0.23273509111E-01  0.10911921871E-01  0.93004933150E-01  0.96493030715E-01  0.51100000000E-03 0. -1.
</event>
<event>
 8    1  0.1061722E+005  0.1043930E+01  0.7957747E-01            NaN
         13   -1    0    0    0    0  0.00000000000E+00  0.00000000000E+00  0.74505805969E-08  0.10566000000E+00  0.10566000000E+00 0. -1.
     999900   -1    0    0    0    0 -0.00000000000E+00 -0.00000000000E+00 -0.74505805969E-08  0.93827000000E+00  0.93827000000E+00 0.  1.
     999902    2    1    2    0    0  0.21501176934E-01  0.98268696794E-02 -0.49138367482E-03  0.10202845050E+01  0.10200104713E+01 0.  0.
     999903    2    3    3    0    0 -0.12548945590E+00  0.20628663549E-01 -0.15648384989E-02  0.12802665144E+00  0.14670700636E-01 0.  0.
         14    1    1    2    0    0 -0.21501176934E-01 -0.98268696794E-02  0.49138367482E-03  0.23645495029E-01  0.00000000000E+00 0. -1.
     999901    1    3    3    0    0  0.14699063283E+00 -0.10801793870E-01  0.10734548241E-02  0.89225785354E+00  0.88000000000E+00 0. -1.
        -11    1    4    4    0    0 -0.41065855990E-01 -0.99633199233E-04  0.42439312094E-03  0.41071348717E-01  0.51100000000E-03 0. -1.
         11    1    4    4    0    0 -0.84423599907E-01  0.20728296749E-01 -0.19892316198E-02  0.86955302718E-01  0.51100000000E-03 0.  1.
</event>
<event>
 8    1  0.1061722E+005  0.1043930E+01  0.7957747E-01            NaN
         13   -1    0    0    0    0  0.00000000000E+00  0.00000000000E+00  0.74505805969E-08  0.10566000000E+00  0.10566000000E+00 0.  1.
     999900   -1    0    0    0    0 -0.00000000000E+00 -0.00000000000E+00 -0.74505805969E-08  0.93827000000E+00  0.93827000000E+00 0. -1.
     999902    2    1    2    0    0  0.99710722846E-02 -0.21260719309E-01  0.21108554930E-02  0.10203525494E+01  0.10200801090E+01 0.  0.
     999903    2    3    3    0    0  0.12669203568E+00 -0.33824490021E-01  0.43490704229E-02  0.13255378768E+00  0.18884495854E-01 0.  0.
         14    1    1    2    0    0 -0.99710722846E-02  0.21260719309E-01 -0.21108554930E-02  0.23577450646E-01  0.00000000000E+00 0.  1.
     999901    1    3    3    0    0 -0.11672096340E+00  0.12563770712E-01 -0.22382149299E-02  0.88779876168E+00  0.88000000000E+00 0. -1.
        -11    1    4    4    0    0  0.98718320460E-01 -0.28934653686E-01 -0.39975791658E-02  0.10295029256E+00  0.51100000000E-03 0.  1.
         11    1    4    4    0    0  0.27973715221E-01 -0.48898363353E-02  0.83466495887E-02  0.29603495115E-01  0.51100000000E-03 0. -1.
</event>
<event>
 8    1  0.1061722E+005  0.1043930E+01  0.7957747E-01            NaN
         13   -1    0    0    0    0  0.00000000000E+00  0.00000000000E+00  0.74505805969E-08  0.10566000000E+00  0.10566000000E+00 0. -1.
     999900   -1    0    0    0    0 -0.00000000000E+00 -0.00000000000E+00 -0.74505805969E-08  0.93827000000E+00  0.93827000000E+00 0. -1.
     999902    2    1    2    0    0  0.30964862416E-02  0.23206666615E-01 -0.20298483352E-02  0.10204298322E+01  0.10201591957E+01 0.  0.
     999903    2    3    3    0    0 -0.51765499933E-01  0.56715684297E-01 -0.10577541962E+00  0.13200660234E+00  0.18465314398E-01 0.  0.
         14    1    1    2    0    0 -0.30964862416E-02 -0.23206666615E-01  0.20298483352E-02  0.23500167802E-01  0.00000000000E+00 0.  1.
     999901    1    3    3    0    0  0.54861986175E-01 -0.33509017682E-01  0.10374557129E+00  0.88842322986E+00  0.88000000000E+00 0.  1.
        -11    1    4    4    0    0 -0.24108606420E-01  0.13521354539E-01 -0.39012199679E-01  0.47814901201E-01  0.51100000000E-03 0.  1.
         11    1    4    4    0    0 -0.27656893513E-01  0.43194329758E-01 -0.66763219944E-01  0.84191701137E-01  0.51100000000E-03 0. -1.
</event>
<event>
 8    1  0.1061722E+005  0.1043930E+01  0.7957747E-01            NaN
         13   -1    0    0    0    0  0.00000000000E+00  0.00000000000E+00  0.74505805969E-08  0.10566000000E+00  0.10566000000E+00 0. -1.
     999900   -1    0    0    0    0 -0.00000000000E+00 -0.00000000000E+00 -0.74505805969E-08  0.93827000000E+00  0.93827000000E+00 0. -1.
     999902    2    1    2    0    0 -0.18865941778E-01  0.14159325880E-01 -0.42350715368E-02  0.10199644810E+01  0.10196828902E+01 0.  0.
     999903    2    3    3    0    0  0.10353787329E+00  0.36000166472E-01 -0.65084994647E-01  0.12914327035E+00  0.20635516865E-01 0.  0.
         14    1    1    2    0    0  0.18865941778E-01 -0.14159325880E-01  0.42350715368E-02  0.23965518969E-01  0.00000000000E+00 0. -1.
     999901    1    3    3    0    0 -0.12240381507E+00 -0.21840840592E-01  0.60849923111E-01  0.89082121068E+00  0.88000000000E+00 0.  1.
        -11    1    4    4    0    0  0.65299079526E-01  0.31942121019E-01 -0.37350532706E-01  0.81728772758E-01  0.51100000000E-03 0. -1.
         11    1    4    4    0    0  0.38238793765E-01  0.40580454529E-02 -0.27734461942E-01  0.47414497590E-01  0.51100000000E-03 0.  1.
</event>
<event>
 8    1  0.1061722E+005  0.1043930E+01  0.7957747E-01            NaN
         13   -1    0    0    0    0  0.00000000000E+00  0.00000000000E+00  0.74505805969E-08  0.10566000000E+00  0.10566000000E+00 0.  1.
     999900   -1    0    0    0    0 -0.00000000000E+00 -0.00000000000E+00 -0.74505805969E-08  0.93827000000E+00  0.93827000000E+00 0.  1.
     999902    2    1    2    0    0  0.15182678813E-01  0.78390416999E-02 -0.16466348934E-01  0.10202001673E+01  0.10199241523E+01 0.  0.
     999903    2    3    3    0    0 -0.35270479084E-01 -0.11833035870E+00 -0.34068754533E-01  0.12959695411E+00  0.19713193418E-01 0.  0.
         14    1    1    2    0    0 -0.15182678813E-01 -0.78390416999E-02  0.16466348934E-01  0.23729832657E-01  0.00000000000E+00 0.  1.
     999901    1    3    3    0    0  0.50453157897E-01  0.12616940040E+00  0.17602405599E-01  0.89060321323E+00  0.88000000000E+00 0. -1.
        -11    1    4    4    0    0 -0.30331081467E-01 -0.82392928526E-01 -0.31301286005E-01  0.93212664379E-01  0.51100000000E-03 0. -1.
         11    1    4    4    0    0 -0.49393976173E-02 -0.35937430172E-01 -0.27674685282E-02  0.36384289731E-01  0.51100000000E-03 0.  1.
</event>
<event>
 8    1  0.1061722E+005  0.1043930E+01  0.7957747E-01            NaN
         13   -1    0    0    0    0  0.00000000000E+00  0.00000000000E+00  0.74505805969E-08  0.10566000000E+00  0.10566000000E+00 0.  1.
     999900   -1    0    0    0    0 -0.00000000000E+00 -0.00000000000E+00 -0.74505805969E-08  0.93827000000E+00  0.93827000000E+00 0. -1.
     999902    2    1    2    0    0  0.11555632867E-01 -0.29970196153E-03 -0.18372179274E-01  0.10222237925E+01  0.10219933085E+01 0.  0.
     999903    2    3    3    0    0 -0.47897353835E-01  0.10262229699E+00  0.61939329663E-01  0.13060866592E+00  0.19916091753E-01 0.  0.
         14    1    1    2    0    0 -0.11555632867E-01  0.29970196153E-03  0.18372179274E-01  0.21706207488E-01  0.00000000000E+00 0.  1.
     999901    1    3    3    0    0  0.59452986702E-01 -0.10292199895E+00 -0.80311508938E-01  0.89161512659E+00  0.88000000000E+00 0.  1.
        -11    1    4    4    0    0 -0.25631326037E-01  0.71745194768E-01  0.48093765198E-01  0.90097775881E-01  0.51100000000E-03 0.  1.
         11    1    4    4    0    0 -0.22266027798E-01  0.30877102223E-01  0.13845564465E-01  0.40510890042E-01  0.51100000000E-03 0. -1.
</event>
<event>
 7    1  0.1061722E+005  0.1043930E+01  0.7957747E-01            NaN
         13   -1    0    0    0    0  0.00000000000E+00  0.00000000000E+00  0.74505805969E-08  0.10566000000E+00  0.10566000000E+00 0. -1.
     999900   -1    0    0    0    0 -0.00000000000E+00 -0.00000000000E+00 -0.74505805969E-08  0.93827000000E+00  0.93827000000E+00 0.  1.
     999903    2    1    2    0    0  0.49364387601E-01  0.18287959988E-01  0.88527070725E-01  0.10490523779E+00  0.19919197295E-01 0.  0.
         14    1    1    2    0    0 -0.25402900672E-01  0.18824796425E-02  0.41725378968E-01  0.48886177414E-01  0.00000000000E+00 0. -1.
     999901    1    1    2    0    0 -0.23961486930E-01 -0.20170439631E-01 -0.13025244969E+00  0.89013858480E+00  0.88000000000E+00 0.  1.
        -11    1    3    3    0    0  0.17962437610E-01 -0.22916691877E-02  0.36449398889E-01  0.40702834213E-01  0.51100000000E-03 0.  1.
         11    1    3    3    0    0  0.31401949992E-01  0.20579629176E-01  0.52077671836E-01  0.64202403577E-01  0.51100000000E-03 0. -1.
</event>
<event>
 8    1  0.1061722E+005  0.1043930E+01  0.7957747E-01            NaN
         13   -1    0    0    0    0  0.00000000000E+00  0.00000000000E+00  0.74505805969E-08  0.10566000000E+00  0.10566000000E+00 0.  1.
     999900   -1    0    0    0    0 -0.00000000000E+00 -0.00000000000E+00 -0.74505805969E-08  0.93827000000E+00  0.93827000000E+00 0. -1.
     999902    2    1    2    0    0  0.20231583287E-01 -0.73027460601E-02  0.96977108558E-02  0.10203356647E+01  0.10200628294E+01 0.  0.
     999903    2    3    3    0    0  0.31987732583E-01 -0.97636889043E-01 -0.79071028368E-01  0.13119093323E+00  0.20066297562E-01 0.  0.
         14    1    1    2    0    0 -0.20231583287E-01  0.73027460601E-02 -0.96977108558E-02  0.23594335298E-01  0.00000000000E+00 0.  1.
     999901    1    3    3    0    0 -0.11756149296E-01  0.90334142983E-01  0.88768739224E-01  0.88914473147E+00  0.88000000000E+00 0.  1.
        -11    1    4    4    0    0  0.15983545839E-01 -0.72944098672E-01 -0.62735926618E-01  0.97531394322E-01  0.51100000000E-03 0. -1.
         11    1    4    4    0    0  0.16004186744E-01 -0.24692790370E-01 -0.16335101750E-01  0.33659538912E-01  0.51100000000E-03 0.  1.
</event>
<event>
 8    1  0.1061722E+005  0.1043930E+01  0.7957747E-01            NaN
         13   -1    0    0    0    0  0.00000000000E+00  0.00000000000E+00  0.74505805969E-08  0.10566000000E+00  0.10566000000E+00 0.  1.
     999900   -1    0    0    0    0 -0.00000000000E+00 -0.00000000000E+00 -0.74505805969E-08  0.93827000000E+00  0.93827000000E+00 0.  1.
     999902    2    1    2    0    0 -0.12693665223E-02  0.23235125379E-01  0.47564023660E-02  0.10201790904E+01  0.10199025791E+01 0.  0.
     999903    2    3    3    0    0  0.48790817695E-01  0.94975372955E-01 -0.75309963456E-01  0.13222452620E+00  0.20269913033E-01 0.  0.
         14    1    1    2    0    0  0.12693665223E-02 -0.23235125379E-01 -0.47564023660E-02  0.23750909587E-01  0.00000000000E+00 0.  1.
     999901    1    3    3    0    0 -0.50060184217E-01 -0.71740247577E-01  0.80066365822E-01  0.88795456421E+00  0.88000000000E+00 0. -1.
        -11    1    4    4    0    0  0.31244011338E-01  0.75897181743E-01 -0.63302334604E-01  0.10365335078E+00  0.51100000000E-03 0.  1.
         11    1    4    4    0    0  0.17546806357E-01  0.19078191212E-01 -0.12007628852E-01  0.28571175420E-01  0.51100000000E-03 0. -1.
</event>
<event>
 8    1  0.1061722E+005  0.1043930E+01  0.7957747E-01            NaN
         13   -1    0    0    0    0  0.00000000000E+00  0.00000000000E+00  0.74505805969E-08  0.10566000000E+00  0.10566000000E+00 0.  1.
     999900   -1    0    0    0    0 -0.00000000000E+00 -0.00000000000E+00 -0.74505805969E-08  0.93827000000E+00  0.93827000000E+00 0. -1.
     999902    2    1    2    0    0  0.33050547436E-02 -0.18765417499E-01  0.10030656612E-01  0.10223968081E+01  0.10221700225E+01 0.  0.
     999903    2    3    3    0    0 -0.91941411234E-02  0.12063981521E+00 -0.41779870249E-01  0.12983063158E+00  0.21724136176E-01 0.  0.
         14    1    1    2    0    0 -0.33050547436E-02  0.18765417499E-01 -0.10030656612E-01  0.21533191887E-01  0.00000000000E+00 0. -1.
     999901    1    3    3    0    0  0.12499195867E-01 -0.13940523271E+00  0.51810526861E-01  0.89256617654E+00  0.88000000000E+00 0.  1.
        -11    1    4    4    0    0 -0.12582675816E-01  0.57704015052E-01 -0.27762386863E-01  0.65261691130E-01  0.51100000000E-03 0. -1.
         11    1    4    4    0    0  0.33885346923E-02  0.62935800158E-01 -0.14017483386E-01  0.64568940447E-01  0.51100000000E-03 0.  1.
</event>
<event>
 8    1  0.1061722E+005  0.1043930E+01  0.7957747E-01            NaN
         13   -1    0    0    0    0  0.00000000000E+00  0.00000000000E+00  0.74505805969E-08  0.10566000000E+00  0.10566000000E+00 0.  1.
     999900   -1    0    0    0    0 -0.00000000000E+00 -0.00000000000E+00 -0.74505805969E-08  0.93827000000E+00  0.93827000000E+00 0. -1.
     999902    2    1    2    0    0 -0.20138848663E-01 -0.12578997232E-01  0.48372686458E-02  0.10196977165E+01  0.10194097456E+01 0.  0.
     999903    2    3    3    0    0  0.16132404306E-03  0.55997804122E-01  0.11520855800E+00  0.12992432049E+00  0.21714905628E-01 0.  0.
         14    1    1    2    0    0  0.20138848663E-01  0.12578997232E-01 -0.48372686458E-02  0.24232283524E-01  0.00000000000E+00 0. -1.
     999901    1    3    3    0    0 -0.20300172706E-01 -0.68576801354E-01 -0.11037128935E+00  0.88977339599E+00  0.88000000000E+00 0. -1.
        -11    1    4    4    0    0 -0.12428359399E-02  0.61065620476E-02  0.34246960338E-01  0.34813074478E-01  0.51100000000E-03 0.  1.
         11    1    4    4    0    0  0.14041599829E-02  0.49891242075E-01  0.80961597659E-01  0.95111246010E-01  0.51100000000E-03 0. -1.
</event>
<event>
 8    1  0.1061722E+005  0.1043930E+01  0.7957747E-01            NaN
         13   -1    0    0    0    0  0.00000000000E+00  0.00000000000E+00  0.74505805969E-08  0.10566000000E+00  0.10566000000E+00 0. -1.
     999900   -1    0    0    0    0 -0.00000000000E+00 -0.00000000000E+00 -0.74505805969E-08  0.93827000000E+00  0.93827000000E+00 0. -1.
     999902    2    1    2    0    0 -0.18628157071E-01 -0.95067483792E-02  0.97078124587E-02  0.10208729377E+01  0.10206125253E+01 0.  0.
     999903    2    3    3    0    0  0.76843698647E-01 -0.10356722424E+00 -0.60834939321E-02  0.13058556063E+00  0.19607544162E-01 0.  0.
         14    1    1    2    0    0  0.18628157071E-01  0.95067483792E-02 -0.97078124587E-02  0.23057062331E-01  0.00000000000E+00 0.  1.
     999901    1    3    3    0    0 -0.95471855718E-01  0.94060475863E-01  0.15791306391E-01  0.89028737704E+00  0.88000000000E+00 0. -1.
        -11    1    4    4    0    0  0.18417928507E-01 -0.24485437519E-01  0.68904236784E-02  0.31408530696E-01  0.51100000000E-03 0. -1.
         11    1    4    4    0    0  0.58425770141E-01 -0.79081786723E-01 -0.12973917611E-01  0.99177029937E-01  0.51100000000E-03 0.  1.
</event>
<event>
 8    1  0.1061722E+005  0.1043930E+01  0.7957747E-01            NaN
         13   -1    0    0    0    0  0.00000000000E+00  0.00000000000E+00  0.74505805969E-08  0.10566000000E+00  0.10566000000E+00 0.  1.
     999900   -1    0    0    0    0 -0.00000000000E+00 -0.00000000000E+00 -0.74505805969E-08  0.93827000000E+00  0.93827000000E+00 0. -1.
     999902    2    1    2    0    0  0.12217037474E-01 -0.18663639401E-01 -0.72086377617E-02  0.10204874767E+01  0.10202181817E+01 0.  0.
     999903    2    3    3    0    0  0.28543824989E-01  0.12365132208E+00  0.95855091050E-02  0.12874639565E+00  0.19476986701E-01 0.  0.
         14    1    1    2    0    0 -0.12217037474E-01  0.18663639401E-01  0.72086377617E-02  0.23442523301E-01  0.00000000000E+00 0.  1.
     999901    1    3    3    0    0 -0.16326787514E-01 -0.14231496149E+00 -0.16794146867E-01  0.89174108104E+00  0.88000000000E+00 0.  1.
        -11    1    4    4    0    0  0.15884898588E-01  0.61769685011E-01  0.14437264276E-01  0.65395104636E-01  0.51100000000E-03 0.  1.
         11    1    4    4    0    0  0.12658926401E-01  0.61881637074E-01 -0.48517551710E-02  0.63351291019E-01  0.51100000000E-03 0. -1.
</event>
<event>
 8    1  0.1061722E+005  0.1043930E+01  0.7957747E-01            NaN
         13   -1    0    0    0    0  0.00000000000E+00  0.00000000000E+00  0.74505805969E-08  0.10566000000E+00  0.10566000000E+00 0. -1.
     999900   -1    0    0    0    0 -0.00000000000E+00 -0.00000000000E+00 -0.74505805969E-08  0.93827000000E+00  0.93827000000E+00 0. -1.
     999902    2    1    2    0    0 -0.12399755813E-01 -0.16935495345E-02  0.19976181169E-01  0.10203573491E+01  0.10200850210E+01 0.  0.
     999903    2    3    3    0    0 -0.64911962156E-01 -0.54637085280E-01  0.10109237320E+00  0.13348622750E+00  0.20003277115E-01 0.  0.
         14    1    1    2    0    0  0.12399755813E-01  0.16935495345E-02 -0.19976181169E-01  0.23572650855E-01  0.00000000000E+00 0.  1.
     999901    1    3    3    0    0  0.52512206343E-01  0.52943535745E-01 -0.81116192029E-01  0.88687112164E+00  0.88000000000E+00 0. -1.
        -11    1    4    4    0    0 -0.46098229889E-01 -0.33898695058E-01  0.53904869685E-01  0.78614021791E-01  0.51100000000E-03 0. -1.
         11    1    4    4    0    0 -0.18813732267E-01 -0.20738390222E-01  0.47187503514E-01  0.54872205712E-01  0.51100000000E-03 0.  1.
</event>
<event>
 7    1  0.1061722E+005  0.1043930E+01  0.7957747E-01            NaN
         13   -1    0    0    0    0  0.00000000000E+00  0.00000000000E+00  0.74505805969E-08  0.10566000000E+00  0.10566000000E+00 0. -1.
     999900   -1    0    0    0    0 -0.00000000000E+00 -0.00000000000E+00 -0.74505805969E-08  0.93827000000E+00  0.93827000000E+00 0. -1.
     999903    2    1    2    0    0  0.76794581460E-01  0.38109306885E-01  0.47008188502E-01  0.99881060484E-01  0.20413952198E-01 0.  0.
         14    1    1    2    0    0 -0.98352405346E-02 -0.20731544188E-01  0.50985794693E-01  0.55911359680E-01  0.00000000000E+00 0. -1.
     999901    1    1    2    0    0 -0.66959340926E-01 -0.17377762697E-01 -0.97993983195E-01  0.88813757984E+00  0.88000000000E+00 0. -1.
        -11    1    3    3    0    0  0.27294195789E-01  0.55840035571E-02  0.22354384709E-01  0.35723015777E-01  0.51100000000E-03 0.  1.
         11    1    3    3    0    0  0.49500385672E-01  0.32525303328E-01  0.24653803792E-01  0.64158044708E-01  0.51100000000E-03 0. -1.
</event>
<event>
 8    1  0.1061722E+005  0.1043930E+01  0.7957747E-01            NaN
         13   -1    0    0    0    0  0.00000000000E+00  0.00000000000E+00  0.74505805969E-08  0.10566000000E+00  0.10566000000E+00 0. -1.
     999900   -1    0    0    0    0 -0.00000000000E+00 -0.00000000000E+00 -0.74505805969E-08  0.93827000000E+00  0.93827000000E+00 0.  1.
     999902    2    1    2    0    0 -0.18449279091E-01  0.81860263217E-02  0.12624080236E-01  0.10201233974E+01  0.10198455724E+01 0.  0.
     999903    2    3    3    0    0  0.10041236064E+00 -0.34065850453E-01 -0.67864347597E-01  0.12749150377E+00  0.20134287260E-01 0.  0.
         14    1    1    2    0    0  0.18449279091E-01 -0.81860263217E-02 -0.12624080236E-01  0.23806602608E-01  0.00000000000E+00 0.  1.
     999901    1    3    3    0    0 -0.11886163973E+00  0.42251876775E-01  0.80488427832E-01  0.89263189362E+00  0.88000000000E+00 0. -1.
        -11    1    4    4    0    0  0.22910589329E-01 -0.16913059326E-01 -0.15949556502E-01  0.32643470293E-01  0.51100000000E-03 0. -1.
         11    1    4    4    0    0  0.77501771310E-01 -0.17152791127E-01 -0.51914791095E-01  0.94848033481E-01  0.51100000000E-03 0.  1.
</event>
<event>
 8    1  0.1061722E+005  0.1043930E+01  0.7957747E-01            NaN
         13   -1    0    0    0    0  0.00000000000E+00  0.00000000000E+00  0.74505805969E-08  0.10566000000E+00  0.10566000000E+00 0. -1.
     999900   -1    0    0    0    0 -0.00000000000E+00 -0.00000000000E+00 -0.74505805969E-08  0.93827000000E+00  0.93827000000E+00 0.  1.
     999902    2    1    2    0    0 -0.69305462053E-02  0.82058101470E-02 -0.20793977975E-01  0.10205257843E+01  0.10202573789E+01 0.  0.
     999903    2    3    3    0    0  0.39963860078E-01  0.47958103871E-02  0.12026092203E+00  0.12805326473E+00  0.17743712447E-01 0.  0.
         14    1    1    2    0    0  0.69305462053E-02 -0.82058101470E-02  0.20793977975E-01  0.23404215665E-01  0.00000000000E+00 0. -1.
     999901    1    3    3    0    0 -0.46894406283E-01  0.34099997599E-02 -0.14105490000E+00  0.89247251961E+00  0.88000000000E+00 0.  1.
        -11    1    4    4    0    0  0.13524070215E-01 -0.40515921436E-02  0.60187603832E-01  0.61823334188E-01  0.51100000000E-03 0.  1.
         11    1    4    4    0    0  0.26439789863E-01  0.88474025307E-02  0.60073318194E-01  0.66229930540E-01  0.51100000000E-03 0. -1.
</event>
<event>
 8    1  0.1061722E+005  0.1043930E+01  0.7957747E-01            NaN
         13   -1    0    0    0    0  0.00000000000E+00  0.00000000000E+00  0.74505805969E-08  0.10566000000E+00  0.10566000000E+00 0.  1.
     999900   -1    0    0    0    0 -0.00000000000E+00 -0.00000000000E+00 -0.74505805969E-08  0.93827000000E+00  0.93827000000E+00 0.  1.
     999902    2    1    2    0    0  0.29245187118E-02  0.23278343065E-01 -0.31231889224E-02  0.10202617011E+01  0.10199871324E+01 0.  0.
     999903    2    3    3    0    0  0.12413171075E+00  0.36680091585E-01  0.13314900681E-01  0.13170050393E+00  0.20337783140E-01 0.  0.
         14    1    1    2    0    0 -0.29245187118E-02 -0.23278343065E-01  0.31231889224E-02  0.23668298938E-01  0.00000000000E+00 0. -1.
     999901    1    3    3    0    0 -0.12120719203E+00 -0.13401748519E-01 -0.16438089603E-01  0.88856119714E+00  0.88000000000E+00 0. -1.
        -11    1    4    4    0    0  0.20024026395E-01  0.10124051860E-02 -0.35455192319E-02  0.20367091715E-01  0.51100000000E-03 0.  1.
         11    1    4    4    0    0  0.10410768435E+00  0.35667686399E-01  0.16860419913E-01  0.11133341221E+00  0.51100000000E-03 0. -1.
</event>
<event>
 8    1  0.1061722E+005  0.1043930E+01  0.7957747E-01            NaN
         13   -1    0    0    0    0  0.00000000000E+00  0.00000000000E+00  0.74505805969E-08  0.10566000000E+00  0.10566000000E+00 0. -1.
     999900   -1    0    0    0    0 -0.00000000000E+00 -0.00000000000E+00 -0.74505805969E-08  0.93827000000E+00  0.93827000000E+00 0.  1.
     999902    2    1    2    0    0 -0.11761858004E-01  0.17596954040E-01  0.10684710005E-01  0.10202201471E+01  0.10199446022E+01 0.  0.
     999903    2    3    3    0    0  0.11547414455E+00  0.27879818298E-01 -0.46541380580E-01  0.12917044982E+00  0.20182732016E-01 0.  0.
         14    1    1    2    0    0  0.11761858004E-01 -0.17596954040E-01 -0.10684710005E-01  0.23709852869E-01  0.00000000000E+00 0.  1.
     999901    1    3    3    0    0 -0.12723600255E+00 -0.10282864259E-01  0.57226090584E-01  0.89104969732E+00  0.88000000000E+00 0.  1.
        -11    1    4    4    0    0  0.25944077028E-01 -0.30296236444E-03 -0.15893616849E-01  0.30431153389E-01  0.51100000000E-03 0. -1.
         11    1    4    4    0    0  0.89530067520E-01  0.28182780663E-01 -0.30647763731E-01  0.98739296427E-01  0.51100000000E-03 0.  1.
</event>
<event>
 8    1  0.1061722E+005  0.1043930E+01  0.7957747E-01            NaN
         13   -1    0    0    0    0  0.00000000000E+00  0.00000000000E+00  0.74505805969E-08  0.10566000000E+00  0.10566000000E+00 0. -1.
     999900   -1    0    0    0    0 -0.00000000000E+00 -0.00000000000E+00 -0.74505805969E-08  0.93827000000E+00  0.93827000000E+00 0.  1.
     999902    2    1    2    0    0 -0.15194940050E-02 -0.17491123555E-01  0.15152931565E-01  0.10207381997E+01  0.10204746997E+01 0.  0.
     999903    2    3    3    0    0 -0.10939126123E-01  0.12442579196E+00 -0.21950323358E-01  0.12854663290E+00  0.20999474969E-01 0.  0.
         14    1    1    2    0    0  0.15194940050E-02  0.17491123555E-01 -0.15152931565E-01  0.23191800281E-01  0.00000000000E+00 0.  1.
     999901    1    3    3    0    0  0.94196321182E-02 -0.14191691552E+00  0.37103254923E-01  0.89219156682E+00  0.88000000000E+00 0.  1.
        -11    1    4    4    0    0 -0.11620916550E-01  0.52616797888E-01 -0.16252200273E-02  0.53911738820E-01  0.51100000000E-03 0.  1.
         11    1    4    4    0    0  0.68179042649E-03  0.71808994072E-01 -0.20325103331E-01  0.74634894079E-01  0.51100000000E-03 0. -1.
</event>
<event>
 8    1  0.1061722E+005  0.1043930E+01  0.7957747E-01            NaN
         13   -1    0    0    0    0  0.00000000000E+00  0.00000000000E+00  0.74505805969E-08  0.10566000000E+00  0.10566000000E+00 0.  1.
     999900   -1    0    0    0    0 -0.00000000000E+00 -0.00000000000E+00 -0.74505805969E-08  0.93827000000E+00  0.93827000000E+00 0. -1.
     999902    2    1    2    0    0  0.28689303331E-04 -0.83612475285E-02  0.21596928042E-01  0.10207710150E+01  0.10205082687E+01 0.  0.
     999903    2    3    3    0    0 -0.10307565649E+00  0.68820699105E-01 -0.32955115996E-01  0.12972472864E+00  0.19534225446E-01 0.  0.
         14    1    1    2    0    0 -0.28689303331E-04  0.83612475285E-02 -0.21596928042E-01  0.23158984955E-01  0.00000000000E+00 0. -1.
     999901    1    3    3    0    0  0.10310434580E+00 -0.77181946634E-01  0.54552044038E-01  0.89104628641E+00  0.88000000000E+00 0. -1.
        -11    1    4    4    0    0 -0.22245873760E-01  0.19853960603E-01 -0.58113760006E-03  0.29827126796E-01  0.51100000000E-03 0.  1.
         11    1    4    4    0    0 -0.80829782732E-01  0.48966738502E-01 -0.32373978396E-01  0.99897601844E-01  0.51100000000E-03 0. -1.
</event>
<event>
 8    1  0.1061722E+005  0.1043930E+01  0.7957747E-01            NaN
         13   -1    0    0    0    0  0.00000000000E+00  0.00000000000E+00  0.74505805969E-08  0.10566000000E+00  0.10566000000E+00 0. -1.
     999900   -1    0    0    0    0 -0.00000000000E+00 -0.00000000000E+00 -0.74505805969E-08  0.93827000000E+00  0.93827000000E+00 0. -1.
     999902    2    1    2    0    0 -0.14549164250E-02  0.15766730549E-01  0.18283173657E-01  0.10197436193E+01  0.10194567514E+01 0.  0.
     999903    2    3    3    0    0 -0.70172970329E-02  0.49305554931E-01  0.12149840509E+00  0.13305924655E+00  0.21508613338E-01 0.  0.
         14    1    1    2    0    0  0.14549164250E-02 -0.15766730549E-01 -0.18283173657E-01  0.24186380733E-01  0.00000000000E+00 0.  1.
     999901    1    3    3    0    0  0.55623806078E-02 -0.33538824382E-01 -0.10321523144E+00  0.88668437272E+00  0.88000000000E+00 0. -1.
        -11    1    4    4    0    0 -0.14576279102E-01  0.29038272493E-01  0.77144347062E-01  0.83709023327E-01  0.51100000000E-03 0. -1.
         11    1    4    4    0    0  0.75589820687E-02  0.20267282438E-01  0.44354058031E-01  0.49350223223E-01  0.51100000000E-03 0.  1.
</event>
<event>
 8    1  0.1061722E+005  0.1043930E+01  0.7957747E-01            NaN
         13   -1    0    0    0    0  0.00000000000E+00  0.00000000000E+00  0.74505805969E-08  0.10566000000E+00  0.10566000000E+00 0. -1.
     999900   -1    0    0    0    0 -0.00000000000E+00 -0.00000000000E+00 -0.74505805969E-08  0.93827000000E+00  0.93827000000E+00 0.  1.
     999902    2    1    2    0    0  0.19560577860E-01  0.14657808116E-01  0.53378735378E-02  0.10189107986E+01  0.10186035809E+01 0.  0.
     999903    2    3    3    0    0 -0.45255075376E-01 -0.11432668785E-01  0.11848383427E+00  0.12891990520E+00  0.20079721420E-01 0.  0.
         14    1    1    2    0    0 -0.19560577860E-01 -0.14657808116E-01 -0.53378735378E-02  0.25019201404E-01  0.00000000000E+00 0.  1.
     999901    1    3    3    0    0  0.64815653237E-01  0.26090476901E-01 -0.11314596073E+00  0.88999089339E+00  0.88000000000E+00 0.  1.
        -11    1    4    4    0    0  0.57692319894E-03 -0.28394962127E-02  0.16760215393E-01  0.17016507284E-01  0.51100000000E-03 0. -1.
         11    1    4    4    0    0 -0.45831998575E-01 -0.85931725723E-02  0.10172361888E+00  0.11190339792E+00  0.51100000000E-03 0.  1.
</event>
<event>
 8    1  0.1061722E+005  0.1043930E+01  0.7957747E-01            NaN
         13   -1    0    0    0    0  0.00000000000E+00  0.00000000000E+00  0.74505805969E-08  0.10566000000E+00  0.10566000000E+00 0. -1.
     999900   -1    0    0    0    0 -0.00000000000E+00 -0.00000000000E+00 -0.74505805969E-08  0.93827000000E+00  0.93827000000E+00 0.  1.
     999902    2    1    2    0    0 -0.13330068205E-01  0.31022541456E-01  0.75159665766E-02  0.10093384035E+01  0.10087454754E+01 0.  0.
     999903    2    3    3    0    0 -0.29516240061E-01 -0.46507792014E-01  0.10504129085E+00  0.12041538451E+00  0.20784823729E-01 0.  0.
         14    1    1    2    0    0  0.13330068205E-01 -0.31022541456E-01 -0.75159665766E-02  0.34591596527E-01  0.00000000000E+00 0. -1.
     999901    1    3    3    0    0  0.16186171855E-01  0.77530333470E-01 -0.97525324275E-01  0.88892301896E+00  0.88000000000E+00 0. -1.
        -11    1    4    4    0    0 -0.43584593615E-03 -0.34895410581E-02  0.23335719641E-01  0.23604740851E-01  0.51100000000E-03 0.  1.
         11    1    4    4    0    0 -0.29080394124E-01 -0.43018250956E-01  0.81705571211E-01  0.96810643659E-01  0.51100000000E-03 0. -1.
</event>
<event>
 8    1  0.1061722E+005  0.1043930E+01  0.7957747E-01            NaN
         13   -1    0    0    0    0  0.00000000000E+00  0.00000000000E+00  0.74505805969E-08  0.10566000000E+00  0.10566000000E+00 0. -1.
     999900   -1    0    0    0    0 -0.00000000000E+00 -0.00000000000E+00 -0.74505805969E-08  0.93827000000E+00  0.93827000000E+00 0. -1.
     999902    2    1    2    0    0  0.51022666678E-02 -0.21065104203E-01 -0.90191673985E-02  0.10204541162E+01  0.10201840452E+01 0.  0.
     999903    2    3    3    0    0  0.42420812847E-01 -0.96478267171E-01 -0.79528817552E-01  0.13363314790E+00  0.20625324148E-01 0.  0.
         14    1    1    2    0    0 -0.51022666678E-02  0.21065104203E-01  0.90191673985E-02  0.23475883813E-01  0.00000000000E+00 0. -1.
     999901    1    3    3    0    0 -0.37318546180E-01  0.75413162968E-01  0.70509650153E-01  0.88682096829E+00  0.88000000000E+00 0.  1.
        -11    1    4    4    0    0  0.18646837473E-01 -0.45626989021E-01 -0.49965381991E-01  0.70187799463E-01  0.51100000000E-03 0. -1.
         11    1    4    4    0    0  0.23773975374E-01 -0.50851278150E-01 -0.29563435561E-01  0.63445348432E-01  0.51100000000E-03 0.  1.
</event>
<event>
 8    1  0.1061722E+005  0.1043930E+01  0.7957747E-01            NaN
         13   -1    0    0    0    0  0.00000000000E+00  0.00000000000E+00  0.74505805969E-08  0.10566000000E+00  0.10566000000E+00 0. -1.
     999900   -1    0    0    0    0 -0.00000000000E+00 -0.00000000000E+00 -0.74505805969E-08  0.93827000000E+00  0.93827000000E+00 0.  1.
     999902    2    1    2    0    0 -0.17642579440E-01  0.69740936151E-02 -0.13508207258E-01  0.10206411560E+01  0.10203754207E+01 0.  0.
     999903    2    3    3    0    0  0.26768785127E-01 -0.70296781753E-02 -0.12763932160E+00  0.13204991917E+00  0.19478205844E-01 0.  0.
         14    1    1    2    0    0  0.17642579440E-01 -0.69740936151E-02  0.13508207258E-01  0.23288843990E-01  0.00000000000E+00 0. -1.
     999901    1    3    3    0    0 -0.44411364568E-01  0.14003771790E-01  0.11413111434E+00  0.88859123684E+00  0.88000000000E+00 0. -1.
        -11    1    4    4    0    0  0.23998237173E-01 -0.12954732184E-01 -0.10389163770E+00  0.10741263417E+00  0.51100000000E-03 0. -1.
         11    1    4    4    0    0  0.27705479544E-02  0.59250540087E-02 -0.23747683893E-01  0.24637285001E-01  0.51100000000E-03 0.  1.
</event>
<event>
 8    1  0.1061722E+005  0.1043930E+01  0.7957747E-01            NaN
         13   -1    0    0    0    0  0.00000000000E+00  0.00000000000E+00  0.74505805969E-08  0.10566000000E+00  0.10566000000E+00 0.  1.
     999900   -1    0    0    0    0 -0.00000000000E+00 -0.00000000000E+00 -0.74505805969E-08  0.93827000000E+00  0.93827000000E+00 0.  1.
     999902    2    1    2    0    0 -0.11285439300E-01 -0.10465365721E-01  0.18229695912E-01  0.10200719441E+01  0.10197929026E+01 0.  0.
     999903    2    3    3    0    0  0.39352796329E-01 -0.12176816374E+00  0.22741823466E-01  0.13160534197E+00  0.20655440437E-01 0.  0.
         14    1    1    2    0    0  0.11285439300E-01  0.10465365721E-01 -0.18229695912E-01  0.23858055933E-01  0.00000000000E+00 0. -1.
     999901    1    3    3    0    0 -0.50638235629E-01  0.11130279802E+00 -0.45121275543E-02  0.88846660210E+00  0.88000000000E+00 0. -1.
        -11    1    4    4    0    0  0.18955816911E-01 -0.59430738605E-01  0.62641623241E-03  0.62385809318E-01  0.51100000000E-03 0. -1.
         11    1    4    4    0    0  0.20396979417E-01 -0.62337425135E-01  0.22115407234E-01  0.69219532648E-01  0.51100000000E-03 0.  1.
</event>
<event>
 8    1  0.1061722E+005  0.1043930E+01  0.7957747E-01            NaN
         13   -1    0    0    0    0  0.00000000000E+00  0.00000000000E+00  0.74505805969E-08  0.10566000000E+00  0.10566000000E+00 0.  1.
     999900   -1    0    0    0    0 -0.00000000000E+00 -0.00000000000E+00 -0.74505805969E-08  0.93827000000E+00  0.93827000000E+00 0.  1.
     999902    2    1    2    0    0  0.20065498187E-01 -0.78079020191E-02 -0.11272888739E-01  0.10196263877E+01  0.10193366985E+01 0.  0.
     999903    2    3    3    0    0 -0.39258264197E-01  0.77085802062E-01  0.91772710411E-01  0.12758118407E+00  0.19269041615E-01 0.  0.
         14    1    1    2    0    0 -0.20065498187E-01  0.78079020191E-02  0.11272888739E-01  0.24303612323E-01  0.00000000000E+00 0. -1.
     999901    1    3    3    0    0  0.59323762384E-01 -0.84893704082E-01 -0.10304559915E+00  0.89204520361E+00  0.88000000000E+00 0.  1.
        -11    1    4    4    0    0 -0.20483604806E-01  0.55708212297E-01  0.53654329719E-01  0.80012694004E-01  0.51100000000E-03 0.  1.
         11    1    4    4    0    0 -0.18774659391E-01  0.21377589765E-01  0.38118380693E-01  0.47568490065E-01  0.51100000000E-03 0. -1.
</event>
<event>
 8    1  0.1061722E+005  0.1043930E+01  0.7957747E-01            NaN
         13   -1    0    0    0    0  0.00000000000E+00  0.00000000000E+00  0.74505805969E-08  0.10566000000E+00  0.10566000000E+00 0. -1.
     999900   -1    0    0    0    0 -0.00000000000E+00 -0.00000000000E+00 -0.74505805969E-08  0.93827000000E+00  0.93827000000E+00 0. -1.
     999902    2    1    2    0    0  0.41742956705E-03  0.23789937875E-02 -0.23466317832E-01  0.10203397068E+01  0.10200669661E+01 0.  0.
     999903    2    3    3    0    0 -0.10821881820E+00  0.50885025865E-01 -0.51616486962E-01  0.13188762512E+00  0.20724031084E-01 0.  0.
         14    1    1    2    0    0 -0.41742956705E-03 -0.23789937875E-02  0.23466317832E-01  0.23590293162E-01  0.00000000000E+00 0. -1.
     999901    1    3    3    0    0  0.10863624777E+00 -0.48506032078E-01  0.28150169130E-01  0.88845208171E+00  0.88000000000E+00 0.  1.
        -11    1    4    4    0    0 -0.65457281437E-01  0.19627363268E-01 -0.31110053671E-01  0.75086521044E-01  0.51100000000E-03 0. -1.
         11    1    4    4    0    0 -0.42761536765E-01  0.31257662597E-01 -0.20506433291E-01  0.56801104081E-01  0.51100000000E-03 0.  1.
</event>
<event>
 7    1  0.1061722E+005  0.1043930E+01  0.7957747E-01            NaN
         13   -1    0    0    0    0  0.00000000000E+00  0.00000000000E+00  0.74505805969E-08  0.10566000000E+00  0.10566000000E+00 0. -1.
     999900   -1    0    0    0    0 -0.00000000000E+00 -0.00000000000E+00 -0.74505805969E-08  0.93827000000E+00  0.93827000000E+00 0.  1.
     999902    2    1    2    0    0 -0.16763152529E-01 -0.14035828384E-01 -0.89334746308E-02  0.10203118983E+01  0.10200385066E+01 0.  0.
         14    1    1    2    0    0  0.16763152529E-01  0.14035828384E-01  0.89334746308E-02  0.23618101747E-01  0.00000000000E+00 0. -1.
     999901    1    3    3    0    0 -0.90236208436E-01  0.69201538570E-01 -0.64953588646E-01  0.88969117953E+00  0.88000000000E+00 0.  1.
        -11    1    3    3    0    0  0.66411030114E-02  0.42187114904E-02  0.46536392141E-02  0.91552856199E-02  0.51100000000E-03 0.  1.
         11    1    3    3    0    0  0.66831952895E-01 -0.87456078445E-01  0.51366474801E-01  0.12146543310E+00  0.51100000000E-03 0. -1.
</event>
<event>
 7    1  0.1061722E+005  0.1043930E+01  0.7957747E-01            NaN
         13   -1    0    0    0    0  0.00000000000E+00  0.00000000000E+00  0.74505805969E-08  0.10566000000E+00  0.10566000000E+00 0.  1.
     999900   -1    0    0    0    0 -0.00000000000E+00 -0.00000000000E+00 -0.74505805969E-08  0.93827000000E+00  0.93827000000E+00 0. -1.
     999903    2    1    2    0    0 -0.18687117826E-01  0.97687020812E-01  0.52726127712E-01  0.11492685064E+00  0.23155432330E-01 0.  0.
         14    1    1    2    0    0 -0.14772106193E-01 -0.14114580585E-01  0.34525647143E-01  0.40118036058E-01  0.00000000000E+00 0.  1.
     999901    1    1    2    0    0  0.33459224019E-01 -0.83572440227E-01 -0.87251774855E-01  0.88888511330E+00  0.88000000000E+00 0. -1.
        -11    1    3    3    0    0 -0.21513691201E-01  0.54425576204E-01  0.34130941787E-01  0.67750753224E-01  0.51100000000E-03 0. -1.
         11    1    3    3    0    0  0.28265733749E-02  0.43261444608E-01  0.18595185925E-01  0.47176097414E-01  0.51100000000E-03 0.  1.
</event>
<event>
 8    1  0.1061722E+005  0.1043930E+01  0.7957747E-01            NaN
         13   -1    0    0    0    0  0.00000000000E+00  0.00000000000E+00  0.74505805969E-08  0.10566000000E+00  0.10566000000E+00 0.  1.
     999900   -1    0    0    0    0 -0.00000000000E+00 -0.00000000000E+00 -0.74505805969E-08  0.93827000000E+00  0.93827000000E+00 0. -1.
     999902    2    1    2    0    0 -0.16753831097E-01 -0.15462732987E-01  0.35575746067E-02  0.10208552670E+01  0.10205944507E+01 0.  0.
     999903    2    3    3    0    0  0.67582998363E-01 -0.89650287374E-01 -0.64568029068E-01  0.13110384555E+00  0.20360556112E-01 0.  0.
         14    1    1    2    0    0  0.16753831097E-01  0.15462732987E-01 -0.35575746067E-02  0.23074733042E-01  0.00000000000E+00 0. -1.
     999901    1    3    3    0    0 -0.84336829460E-01  0.74187554387E-01  0.68125603674E-01  0.88975142141E+00  0.88000000000E+00 0.  1.
        -11    1    4    4    0    0  0.31558803072E-01 -0.35504386032E-01 -0.38063416658E-01  0.60873674832E-01  0.51100000000E-03 0.  1.
         11    1    4    4    0    0  0.36024195291E-01 -0.54145901342E-01 -0.26504612409E-01  0.70230170714E-01  0.51100000000E-03 0. -1.
</event>
<event>
 8    1  0.1061722E+005  0.1043930E+01  0.7957747E-01            NaN
         13   -1    0    0    0    0  0.00000000000E+00  0.00000000000E+00  0.74505805969E-08  0.10566000000E+00  0.10566000000E+00 0. -1.
     999900   -1    0    0    0    0 -0.00000000000E+00 -0.00000000000E+00 -0.74505805969E-08  0.93827000000E+00  0.93827000000E+00 0.  1.
     999902    2    1    2    0    0 -0.83296208157E-02 -0.18818501427E-01  0.11796715370E-01  0.10202091005E+01  0.10199332957E+01 0.  0.
     999903    2    3    3    0    0  0.68052072318E-01  0.10082591148E+00 -0.34312377686E-01  0.12764257804E+00  0.17842070868E-01 0.  0.
         14    1    1    2    0    0  0.83296208157E-02  0.18818501427E-01 -0.11796715370E-01  0.23720899486E-01  0.00000000000E+00 0.  1.
     999901    1    3    3    0    0 -0.76381693133E-01 -0.11964441291E+00  0.46109093055E-01  0.89256652248E+00  0.88000000000E+00 0. -1.
        -11    1    4    4    0    0  0.58178871594E-01  0.84550056902E-01 -0.35401974816E-01  0.10856820052E+00  0.51100000000E-03 0.  1.
         11    1    4    4    0    0  0.98732007237E-02  0.16275854578E-01  0.10895971303E-02  0.19074377517E-01  0.51100000000E-03 0. -1.
</event>
<event>
 8    1  0.1061722E+005  0.1043930E+01  0.7957747E-01            NaN
         13   -1    0    0    0    0  0.00000000000E+00  0.00000000000E+00  0.74505805969E-08  0.10566000000E+00  0.10566000000E+00 0.  1.
     999900   -1    0    0    0    0 -0.00000000000E+00 -0.00000000000E+00 -0.74505805969E-08  0.93827000000E+00  0.93827000000E+00 0. -1.
     999902    2    1    2    0    0 -0.15597454908E-01  0.11709355775E-01  0.14098505478E-01  0.10198643093E+01  0.10195803313E+01 0.  0.
     999903    2    3    3    0    0  0.68806022613E-02  0.96897057082E-01 -0.83729753349E-01  0.13007075137E+00  0.21710513740E-01 0.  0.
         14    1    1    2    0    0  0.15597454908E-01 -0.11709355775E-01 -0.14098505478E-01  0.24065690702E-01  0.00000000000E+00 0.  1.
     999901    1    3    3    0    0 -0.22478057169E-01 -0.85187701306E-01  0.97828258827E-01  0.88979355793E+00  0.88000000000E+00 0.  1.
        -11    1    4    4    0    0  0.47034701896E-02  0.30568423793E-02 -0.39371640136E-02  0.68723575742E-02  0.51100000000E-03 0.  1.
         11    1    4    4    0    0  0.21771320717E-02  0.93840214702E-01 -0.79792589336E-01  0.12319839379E+00  0.51100000000E-03 0. -1.
</event>
<event>
 8    1  0.1061722E+005  0.1043930E+01  0.7957747E-01            NaN
         13   -1    0    0    0    0  0.00000000000E+00  0.00000000000E+00  0.74505805969E-08  0.10566000000E+00  0.10566000000E+00 0. -1.
     999900   -1    0    0    0    0 -0.00000000000E+00 -0.00000000000E+00 -0.74505805969E-08  0.93827000000E+00  0.93827000000E+00 0.  1.
     999902    2    1    2    0    0  0.26732711732E-02 -0.13736253516E-02 -0.23268593677E-01  0.10204681016E+01  0.10201983560E+01 0.  0.
     999903    2    3    3    0    0 -0.37847972483E-01  0.68963034483E-01  0.97942210896E-01  0.12845841776E+00  0.26842490031E-01 0.  0.
         14    1    1    2    0    0 -0.26732711732E-02  0.13736253516E-02  0.23268593677E-01  0.23461898412E-01  0.00000000000E+00 0. -1.
     999901    1    3    3    0    0  0.40521243656E-01 -0.70336659835E-01 -0.12121080457E+00  0.89200968383E+00  0.88000000000E+00 0.  1.
        -11    1    4    4    0    0 -0.22353425602E-01  0.14976917912E-01  0.33606155617E-01  0.43053670257E-01  0.51100000000E-03 0. -1.
         11    1    4    4    0    0 -0.15494546881E-01  0.53986116572E-01  0.64336055279E-01  0.85404747499E-01  0.51100000000E-03 0.  1.
</event>
<event>
 8    1  0.1061722E+005  0.1043930E+01  0.7957747E-01            NaN
         13   -1    0    0    0    0  0.00000000000E+00  0.00000000000E+00  0.74505805969E-08  0.10566000000E+00  0.10566000000E+00 0. -1.
     999900   -1    0    0    0    0 -0.00000000000E+00 -0.00000000000E+00 -0.74505805969E-08  0.93827000000E+00  0.93827000000E+00 0. -1.
     999902    2    1    2    0    0  0.21463484869E-01  0.28895917020E-03 -0.75934807219E-02  0.10211610380E+01  0.10209071652E+01 0.  0.
     999903    2    3    3    0    0  0.60050799276E-01  0.83175654938E-01 -0.82696343476E-01  0.13324233388E+00  0.19762242933E-01 0.  0.
         14    1    1    2    0    0 -0.21463484869E-01 -0.28895917020E-03  0.75934807219E-02  0.22768961979E-01  0.00000000000E+00 0. -1.
     999901    1    3    3    0    0 -0.38587314407E-01 -0.82886695768E-01  0.75102862754E-01  0.88791870414E+00  0.88000000000E+00 0. -1.
        -11    1    4    4    0    0  0.48600528059E-01  0.71946335753E-01 -0.77483189558E-01  0.11637092567E+00  0.51100000000E-03 0. -1.
         11    1    4    4    0    0  0.11450271216E-01  0.11229319184E-01 -0.52131539178E-02  0.16871408212E-01  0.51100000000E-03 0.  1.
</event>
<event>
 8    1  0.1061722E+005  0.1043930E+01  0.7957747E-01            NaN
         13   -1    0    0    0    0  0.00000000000E+00  0.00000000000E+00  0.74505805969E-08  0.10566000000E+00  0.10566000000E+00 0. -1.
     999900   -1    0    0    0    0 -0.00000000000E+00 -0.00000000000E+00 -0.74505805969E-08  0.93827000000E+00  0.93827000000E+00 0.  1.
     999902    2    1    2    0    0  0.18896434749E-01 -0.10228177747E-01 -0.11638539044E-01  0.10194934197E+01  0.10192005133E+01 0.  0.
     999903    2    3    3    0    0  0.60652766681E-01  0.95496264480E-01  0.59130012363E-01  0.12936453194E+00  0.20988785705E-01 0.  0.
         14    1    1    2    0    0 -0.18896434749E-01  0.10228177747E-01  0.11638539044E-01  0.24436580312E-01  0.00000000000E+00 0.  1.
     999901    1    3    3    0    0 -0.41756331932E-01 -0.10572444223E+00 -0.70768551407E-01  0.89012888775E+00  0.88000000000E+00 0.  1.
        -11    1    4    4    0    0  0.22621844828E-01  0.30878534229E-01  0.94875421366E-02  0.39439907662E-01  0.51100000000E-03 0.  1.
         11    1    4    4    0    0  0.38030921853E-01  0.64617730251E-01  0.49642470227E-01  0.89924624275E-01  0.51100000000E-03 0. -1.
</event>
<event>
 8    1  0.1061722E+005  0.1043930E+01  0.7957747E-01            NaN
         13   -1    0    0    0    0  0.00000000000E+00  0.00000000000E+00  0.74505805969E-08  0.10566000000E+00  0.10566000000E+00 0.  1.
     999900   -1    0    0    0    0 -0.00000000000E+00 -0.00000000000E+00 -0.74505805969E-08  0.93827000000E+00  0.93827000000E+00 0. -1.
     999902    2    1    2    0    0 -0.14500366656E-01  0.16615498111E-01  0.10647869558E-01  0.10194409711E+01  0.10191467907E+01 0.  0.
     999903    2    3    3    0    0 -0.92536221494E-01 -0.18603019341E-01  0.89771391974E-01  0.13175269787E+00  0.19769824558E-01 0.  0.
         14    1    1    2    0    0  0.14500366656E-01 -0.16615498111E-01 -0.10647869558E-01  0.24489028906E-01  0.00000000000E+00 0. -1.
     999901    1    3    3    0    0  0.78035854838E-01  0.35218517452E-01 -0.79123522416E-01  0.88768827322E+00  0.88000000000E+00 0. -1.
        -11    1    4    4    0    0 -0.68659364980E-01 -0.92688130526E-02  0.75236189827E-01  0.10227787970E+00  0.51100000000E-03 0.  1.
         11    1    4    4    0    0 -0.23876856514E-01 -0.93342062882E-02  0.14535202147E-01  0.29474818176E-01  0.51100000000E-03 0. -1.
</event>
<event>
 8    1  0.1061722E+005  0.1043930E+01  0.7957747E-01            NaN
         13   -1    0    0    0    0  0.00000000000E+00  0.00000000000E+00  0.74505805969E-08  0.10566000000E+00  0.10566000000E+00 0. -1.
     999900   -1    0    0    0    0 -0.00000000000E+00 -0.00000000000E+00 -0.74505805969E-08  0.93827000000E+00  0.93827000000E+00 0.  1.
     999902    2    1    2    0    0  0.19092216059E-01 -0.25848989042E-02 -0.13507445647E-01  0.10204003272E+01  0.10201290027E+01 0.  0.
     999903    2    3    3    0    0 -0.98292275655E-02 -0.62077811134E-01 -0.11454067529E+00  0.13215285601E+00  0.19863099099E-01 0.  0.
         14    1    1    2    0    0 -0.19092216059E-01  0.25848989042E-02  0.13507445647E-01  0.23529672847E-01  0.00000000000E+00 0. -1.
     999901    1    3    3    0    0  0.28921443624E-01  0.59492912230E-01  0.10103322964E+00  0.88824747115E+00  0.88000000000E+00 0. -1.
        -11    1    4    4    0    0 -0.62177284854E-02 -0.42334066965E-01 -0.57454317228E-01  0.71638628284E-01  0.51100000000E-03 0. -1.
         11    1    4    4    0    0 -0.36114990801E-02 -0.19743744169E-01 -0.57086358059E-01  0.60514227723E-01  0.51100000000E-03 0.  1.
</event>
<event>
 8    1  0.1061722E+005  0.1043930E+01  0.7957747E-01            NaN
         13   -1    0    0    0    0  0.00000000000E+00  0.00000000000E+00  0.74505805969E-08  0.10566000000E+00  0.10566000000E+00 0.  1.
     999900   -1    0    0    0    0 -0.00000000000E+00 -0.00000000000E+00 -0.74505805969E-08  0.93827000000E+00  0.93827000000E+00 0.  1.
     999902    2    1    2    0    0 -0.10940501830E-01  0.58133918999E-02  0.15258597640E-01  0.10242751047E+01  0.10240865077E+01 0.  0.
     999903    2    3    3    0    0  0.23041185780E-01  0.79246267801E-01  0.10603454925E+00  0.13591289497E+00  0.20448036128E-01 0.  0.
         14    1    1    2    0    0  0.10940501830E-01 -0.58133918999E-02 -0.15258597640E-01  0.19654895258E-01  0.00000000000E+00 0. -1.
     999901    1    3    3    0    0 -0.33981687609E-01 -0.73432875901E-01 -0.90775951615E-01  0.88836220977E+00  0.88000000000E+00 0.  1.
        -11    1    4    4    0    0  0.89921106486E-03  0.33755938322E-01  0.34347342441E-01  0.48169212224E-01  0.51100000000E-03 0.  1.
         11    1    4    4    0    0  0.22141974715E-01  0.45490329479E-01  0.71687206814E-01  0.87743682748E-01  0.51100000000E-03 0. -1.
</event>
<event>
 8    1  0.1061722E+005  0.1043930E+01  0.7957747E-01            NaN
         13   -1    0    0    0    0  0.00000000000E+00  0.00000000000E+00  0.74505805969E-08  0.10566000000E+00  0.10566000000E+00 0. -1.
     999900   -1    0    0    0    0 -0.00000000000E+00 -0.00000000000E+00 -0.74505805969E-08  0.93827000000E+00  0.93827000000E+00 0. -1.
     999902    2    1    2    0    0 -0.66281838828E-02  0.18543504513E-01  0.12661091223E-01  0.10205185154E+01  0.10202499412E+01 0.  0.
     999903    2    3    3    0    0 -0.12185561756E+00  0.48292025158E-01  0.10837795379E-01  0.13250631931E+00  0.16110730070E-01 0.  0.
         14    1    1    2    0    0  0.66281838828E-02 -0.18543504513E-01 -0.12661091223E-01  0.23411484621E-01  0.00000000000E+00 0.  1.
     999901    1    3    3    0    0  0.11522743368E+00 -0.29748520646E-01  0.18232958448E-02  0.88801219607E+00  0.88000000000E+00 0. -1.
        -11    1    4    4    0    0 -0.79439541513E-01  0.23653922270E-01  0.95256167606E-02  0.83433490220E-01  0.51100000000E-03 0. -1.
         11    1    4    4    0    0 -0.42416076051E-01  0.24638102888E-01  0.13121786179E-02  0.49072829094E-01  0.51100000000E-03 0.  1.
</event>
<event>
 8    1  0.1061722E+005  0.1043930E+01  0.7957747E-01            NaN
         13   -1    0    0    0    0  0.00000000000E+00  0.00000000000E+00  0.74505805969E-08  0.10566000000E+00  0.10566000000E+00 0. -1.
     999900   -1    0    0    0    0 -0.00000000000E+00 -0.00000000000E+00 -0.74505805969E-08  0.93827000000E+00  0.93827000000E+00 0.  1.
     999902    2    1    2    0    0 -0.60106285010E-02 -0.54937211893E-02 -0.20176448996E-01  0.10221722951E+01  0.10219407043E+01 0.  0.
     999903    2    3    3    0    0 -0.12660122065E+00 -0.31791979734E-01  0.14493146448E-01  0.13288287645E+00  0.20228902956E-01 0.  0.
         14    1    1    2    0    0  0.60106285010E-02  0.54937211893E-02  0.20176448996E-01  0.21757704878E-01  0.00000000000E+00 0. -1.
     999901    1    3    3    0    0  0.12059059214E+00  0.26298258544E-01 -0.34669595444E-01  0.88928941867E+00  0.88000000000E+00 0. -1.
        -11    1    4    4    0    0 -0.99124843489E-01 -0.17367799211E-01  0.15538553385E-01  0.10182869344E+00  0.51100000000E-03 0.  1.
         11    1    4    4    0    0 -0.27476377157E-01 -0.14424180523E-01 -0.10454069366E-02  0.31054183005E-01  0.51100000000E-03 0. -1.
</event>
<event>
 8    1  0.1061722E+005  0.1043930E+01  0.7957747E-01            NaN
         13   -1    0    0    0    0  0.00000000000E+00  0.00000000000E+00  0.74505805969E-08  0.10566000000E+00  0.10566000000E+00 0.  1.
     999900   -1    0    0    0    0 -0.00000000000E+00 -0.00000000000E+00 -0.74505805969E-08  0.93827000000E+00  0.93827000000E+00 0. -1.
     999902    2    1    2    0    0  0.14454571202E-01 -0.14566299782E-01  0.93492003700E-02  0.10213796283E+01  0.10211306605E+01 0.  0.
     999903    2    3    3    0    0 -0.10893387232E+00  0.38775590418E-02  0.69093547405E-01  0.13057422250E+00  0.19851581462E-01 0.  0.
         14    1    1    2    0    0 -0.14454571202E-01  0.14566299782E-01 -0.93492003700E-02  0.22550371738E-01  0.00000000000E+00 0. -1.
     999901    1    3    3    0    0  0.12338844352E+00 -0.18443858823E-01 -0.59744347035E-01  0.89080540576E+00  0.88000000000E+00 0. -1.
        -11    1    4    4    0    0 -0.80723571082E-01  0.44524941291E-02  0.40595752622E-01  0.90467651037E-01  0.51100000000E-03 0. -1.
         11    1    4    4    0    0 -0.28210301240E-01 -0.57493508723E-03  0.28497794783E-01  0.40106571468E-01  0.51100000000E-03 0.  1.
</event>
<event>
 7    1  0.1061722E+005  0.1043930E+01  0.7957747E-01            NaN
         13   -1    0    0    0    0  0.00000000000E+00  0.00000000000E+00  0.74505805969E-08  0.10566000000E+00  0.10566000000E+00 0.  1.
     999900   -1    0    0    0    0 -0.00000000000E+00 -0.00000000000E+00 -0.74505805969E-08  0.93827000000E+00  0.93827000000E+00 0. -1.
     999903    2    1    2    0    0 -0.72048433710E-01 -0.46153519734E-01  0.60800179376E-01  0.10680171604E+00  0.19718533233E-01 0.  0.
         14    1    1    2    0    0 -0.73384376332E-02  0.35040314681E-01  0.32783439110E-01  0.48543075714E-01  0.00000000000E+00 0.  1.
     999901    1    1    2    0    0  0.79386871343E-01  0.11113205052E-01 -0.93583618485E-01  0.88858520825E+00  0.88000000000E+00 0. -1.
        -11    1    3    3    0    0 -0.29732538426E-01 -0.30721955907E-01  0.29039260408E-01  0.51685609042E-01  0.51100000000E-03 0.  1.
         11    1    3    3    0    0 -0.42315895284E-01 -0.15431563827E-01  0.31760918968E-01  0.55116106997E-01  0.51100000000E-03 0. -1.
</event>
<event>
 8    1  0.1061722E+005  0.1043930E+01  0.7957747E-01            NaN
         13   -1    0    0    0    0  0.00000000000E+00  0.00000000000E+00  0.74505805969E-08  0.10566000000E+00  0.10566000000E+00 0.  1.
     999900   -1    0    0    0    0 -0.00000000000E+00 -0.00000000000E+00 -0.74505805969E-08  0.93827000000E+00  0.93827000000E+00 0. -1.
     999902    2    1    2    0    0 -0.96530841760E-02  0.48063797204E-03  0.19156308945E-01  0.10224735972E+01  0.10222484433E+01 0.  0.
     999903    2    3    3    0    0  0.52432216608E-01 -0.10683835460E+00  0.55973278783E-01  0.13302014708E+00  0.19944428753E-01 0.  0.
         14    1    1    2    0    0  0.96530841760E-02 -0.48063797204E-03 -0.19156308945E-01  0.21456402759E-01  0.00000000000E+00 0. -1.
     999901    1    3    3    0    0 -0.62085300784E-01  0.10731899257E+00 -0.36816969838E-01  0.88945345016E+00  0.88000000000E+00 0. -1.
        -11    1    4    4    0    0  0.30351027214E-01 -0.58344166495E-01  0.20056510621E-01  0.68758645683E-01  0.51100000000E-03 0. -1.
         11    1    4    4    0    0  0.22081189394E-01 -0.48494188107E-01  0.35916768162E-01  0.64261501394E-01  0.51100000000E-03 0.  1.
</event>
<event>
 8    1  0.1061722E+005  0.1043930E+01  0.7957747E-01            NaN
         13   -1    0    0    0    0  0.00000000000E+00  0.00000000000E+00  0.74505805969E-08  0.10566000000E+00  0.10566000000E+00 0. -1.
     999900   -1    0    0    0    0 -0.00000000000E+00 -0.00000000000E+00 -0.74505805969E-08  0.93827000000E+00  0.93827000000E+00 0. -1.
     999902    2    1    2    0    0  0.12195952380E-01 -0.16757813487E-01 -0.10755126289E-01  0.10205796615E+01  0.10203125046E+01 0.  0.
     999903    2    3    3    0    0 -0.99359449661E-01  0.28306930905E-01 -0.76788101283E-01  0.12994180427E+00  0.17744785848E-01 0.  0.
         14    1    1    2    0    0 -0.12195952380E-01  0.16757813487E-01  0.10755126289E-01  0.23350338516E-01  0.00000000000E+00 0. -1.
     999901    1    3    3    0    0  0.11155540204E+00 -0.45064744392E-01  0.66032974994E-01  0.89063785721E+00  0.88000000000E+00 0.  1.
        -11    1    4    4    0    0 -0.40219882364E-01  0.20555142670E-01 -0.32333533786E-01  0.55550619759E-01  0.51100000000E-03 0.  1.
         11    1    4    4    0    0 -0.59139567297E-01  0.77517882342E-02 -0.44454567497E-01  0.74391184513E-01  0.51100000000E-03 0. -1.
</event>
<event>
 8    1  0.1061722E+005  0.1043930E+01  0.7957747E-01            NaN
         13   -1    0    0    0    0  0.00000000000E+00  0.00000000000E+00  0.74505805969E-08  0.10566000000E+00  0.10566000000E+00 0. -1.
     999900   -1    0    0    0    0 -0.00000000000E+00 -0.00000000000E+00 -0.74505805969E-08  0.93827000000E+00  0.93827000000E+00 0. -1.
     999902    2    1    2    0    0 -0.91353873767E-02 -0.38279189416E-03 -0.21295985932E-01  0.10207541322E+01  0.10204909983E+01 0.  0.
     999903    2    3    3    0    0  0.32568310997E-01 -0.54059420158E-01 -0.11547848910E+00  0.13312204467E+00  0.20076890816E-01 0.  0.
         14    1    1    2    0    0  0.91353873767E-02  0.38279189416E-03  0.21295985932E-01  0.23175867814E-01  0.00000000000E+00 0. -1.
     999901    1    3    3    0    0 -0.41703698374E-01  0.53676628264E-01  0.94182503165E-01  0.88763208751E+00  0.88000000000E+00 0.  1.
        -11    1    4    4    0    0  0.20014501557E-01 -0.48536866514E-01 -0.91495376677E-01  0.10548968081E+00  0.51100000000E-03 0.  1.
         11    1    4    4    0    0  0.12553809440E-01 -0.55225536442E-02 -0.23983112419E-01  0.27632363861E-01  0.51100000000E-03 0. -1.
</event>
<event>
 8    1  0.1061722E+005  0.1043930E+01  0.7957747E-01            NaN
         13   -1    0    0    0    0  0.00000000000E+00  0.00000000000E+00  0.74505805969E-08  0.10566000000E+00  0.10566000000E+00 0. -1.
     999900   -1    0    0    0    0 -0.00000000000E+00 -0.00000000000E+00 -0.74505805969E-08  0.93827000000E+00  0.93827000000E+00 0. -1.
     999902    2    1    2    0    0 -0.52486696427E-02  0.20639106543E-01 -0.69568244266E-02  0.10215264588E+01  0.10212807584E+01 0.  0.
     999903    2    3    3    0    0  0.10782977473E+00 -0.65987617292E-01  0.19853537013E-01  0.12966900420E+00  0.20934702354E-01 0.  0.
         14    1    1    2    0    0  0.52486696427E-02 -0.20639106543E-01  0.69568244266E-02  0.22403541194E-01  0.00000000000E+00 0. -1.
     999901    1    3    3    0    0 -0.11307844437E+00  0.86626723835E-01 -0.26810361439E-01  0.89185745461E+00  0.88000000000E+00 0. -1.
        -11    1    4    4    0    0  0.59689170773E-01 -0.45713787145E-01  0.18432648273E-01  0.77411698638E-01  0.51100000000E-03 0.  1.
         11    1    4    4    0    0  0.48140603958E-01 -0.20273830148E-01  0.14208887397E-02  0.52257305557E-01  0.51100000000E-03 0. -1.
</event>
<event>
 8    1  0.1061722E+005  0.1043930E+01  0.7957747E-01            NaN
         13   -1    0    0    0    0  0.00000000000E+00  0.00000000000E+00  0.74505805969E-08  0.10566000000E+00  0.10566000000E+00 0. -1.
     999900   -1    0    0    0    0 -0.00000000000E+00 -0.00000000000E+00 -0.74505805969E-08  0.93827000000E+00  0.93827000000E+00 0. -1.
     999902    2    1    2    0    0 -0.11443248392E-01 -0.73116649575E-02 -0.18987204100E-01  0.10205864292E+01  0.10203194290E+01 0.  0.
     999903    2    3    3    0    0 -0.12523110014E+00  0.36733378006E-01 -0.23211874401E-02  0.13201150432E+00  0.19735244115E-01 0.  0.
         14    1    1    2    0    0  0.11443248392E-01  0.73116649575E-02  0.18987204100E-01  0.23343570802E-01  0.00000000000E+00 0. -1.
     999901    1    3    3    0    0  0.11378785174E+00 -0.44045042963E-01 -0.16666016660E-01  0.88857492488E+00  0.88000000000E+00 0. -1.
        -11    1    4    4    0    0 -0.86587966498E-01  0.18478792777E-01 -0.79776555103E-02  0.88897951794E-01  0.51100000000E-03 0.  1.
         11    1    4    4    0    0 -0.38643133638E-01  0.18254585229E-01  0.56564680702E-02  0.43113552524E-01  0.51100000000E-03 0. -1.
</event>
<event>
 8    1  0.1061722E+005  0.1043930E+01  0.7957747E-01            NaN
         13   -1    0    0    0    0  0.00000000000E+00  0.00000000000E+00  0.74505805969E-08  0.10566000000E+00  0.10566000000E+00 0.  1.
     999900   -1    0    0    0    0 -0.00000000000E+00 -0.00000000000E+00 -0.74505805969E-08  0.93827000000E+00  0.93827000000E+00 0.  1.
     999902    2    1    2    0    0 -0.14655153083E-01  0.12397707570E-01 -0.13333902566E-01  0.10205575884E+01  0.10202899204E+01 0.  0.
     999903    2    3    3    0    0  0.35661893549E-01 -0.13663392619E-01  0.12138437387E+00  0.12850377832E+00  0.17905191239E-01 0.  0.
         14    1    1    2    0    0  0.14655153083E-01 -0.12397707570E-01  0.13333902566E-01  0.23372411568E-01  0.00000000000E+00 0. -1.
     999901    1    3    3    0    0 -0.50317046633E-01  0.26061100189E-01 -0.13471827644E+00  0.89205381011E+00  0.88000000000E+00 0.  1.
        -11    1    4    4    0    0  0.48470905891E-02  0.25531203123E-02  0.33884644474E-01  0.34328457038E-01  0.51100000000E-03 0.  1.
         11    1    4    4    0    0  0.30814802960E-01 -0.16216512931E-01  0.87499729398E-01  0.94175321284E-01  0.51100000000E-03 0. -1.
</event>
<event>
 8    1  0.1061722E+005  0.1043930E+01  0.7957747E-01            NaN
         13   -1    0    0    0    0  0.00000000000E+00  0.00000000000E+00  0.74505805969E-08  0.10566000000E+00  0.10566000000E+00 0. -1.
     999900   -1    0    0    0    0 -0.00000000000E+00 -0.00000000000E+00 -0.74505805969E-08  0.93827000000E+00  0.93827000000E+00 0.  1.
     999902    2    1    2    0    0 -0.59370236879E-02  0.13718374455E-01  0.16461730198E-01  0.10216942043E+01  0.10214522096E+01 0.  0.
     999903    2    3    3    0    0  0.18519158414E-01 -0.29327501397E-01  0.12723852774E+00  0.13336850328E+00  0.19860844873E-01 0.  0.
         14    1    1    2    0    0  0.59370236879E-02 -0.13718374455E-01 -0.16461730198E-01  0.22235795670E-01  0.00000000000E+00 0.  1.
     999901    1    3    3    0    0 -0.24456182102E-01  0.43045875851E-01 -0.11077679754E+00  0.88832570105E+00  0.88000000000E+00 0.  1.
        -11    1    4    4    0    0  0.13431309039E-01 -0.86119881986E-02  0.31897483358E-01  0.35668991699E-01  0.51100000000E-03 0.  1.
         11    1    4    4    0    0  0.50878493760E-02 -0.20715513198E-01  0.95341044383E-01  0.97699511582E-01  0.51100000000E-03 0. -1.
</event>
<event>
 8    1  0.1061722E+005  0.1043930E+01  0.7957747E-01            NaN
         13   -1    0    0    0    0  0.00000000000E+00  0.00000000000E+00  0.74505805969E-08  0.10566000000E+00  0.10566000000E+00 0. -1.
     999900   -1    0    0    0    0 -0.00000000000E+00 -0.00000000000E+00 -0.74505805969E-08  0.93827000000E+00  0.93827000000E+00 0. -1.
     999902    2    1    2    0    0 -0.45747724742E-02  0.20578328472E-01  0.10205353505E-01  0.10205089542E+01  0.10202401581E+01 0.  0.
     999903    2    3    3    0    0 -0.51440971335E-02  0.46390860030E-01  0.12296164745E+00  0.13293890472E+00  0.19354896430E-01 0.  0.
         14    1    1    2    0    0  0.45747724742E-02 -0.20578328472E-01 -0.10205353505E-01  0.23421045794E-01  0.00000000000E+00 0.  1.
     999901    1    3    3    0    0  0.56932465938E-03 -0.25812531557E-01 -0.11275629394E+00  0.88757004948E+00  0.88000000000E+00 0. -1.
        -11    1    4    4    0    0  0.46211416410E-03  0.10809368733E-01  0.54624743081E-01  0.55688236455E-01  0.51100000000E-03 0. -1.
         11    1    4    4    0    0 -0.56062112976E-02  0.35581491297E-01  0.68336904369E-01  0.77250668267E-01  0.51100000000E-03 0.  1.
</event>
<event>
 8    1  0.1061722E+005  0.1043930E+01  0.7957747E-01            NaN
         13   -1    0    0    0    0  0.00000000000E+00  0.00000000000E+00  0.74505805969E-08  0.10566000000E+00  0.10566000000E+00 0. -1.
     999900   -1    0    0    0    0 -0.00000000000E+00 -0.00000000000E+00 -0.74505805969E-08  0.93827000000E+00  0.93827000000E+00 0. -1.
     999902    2    1    2    0    0  0.90644528795E-03 -0.13705604487E-02 -0.23683672539E-01  0.10201893929E+01  0.10199131243E+01 0.  0.
     999903    2    3    3    0    0 -0.29963382555E-02  0.12167545821E+00 -0.44503993717E-01  0.13137611659E+00  0.21568110276E-01 0.  0.
         14    1    1    2    0    0 -0.90644528795E-03  0.13705604487E-02  0.23683672539E-01  0.23740607067E-01  0.00000000000E+00 0. -1.
     999901    1    3    3    0    0  0.39027835434E-02 -0.12304601866E+00  0.20820321178E-01  0.88881327634E+00  0.88000000000E+00 0.  1.
        -11    1    4    4    0    0 -0.65862313833E-02  0.11273614621E-01 -0.61915596990E-02  0.14459231064E-01  0.51100000000E-03 0. -1.
         11    1    4    4    0    0  0.35898931278E-02  0.11040184359E+00 -0.38312434018E-01  0.11691688553E+00  0.51100000000E-03 0.  1.
</event>
<event>
 8    1  0.1061722E+005  0.1043930E+01  0.7957747E-01            NaN
         13   -1    0    0    0    0  0.00000000000E+00  0.00000000000E+00  0.74505805969E-08  0.10566000000E+00  0.10566000000E+00 0. -1.
     999900   -1    0    0    0    0 -0.00000000000E+00 -0.00000000000E+00 -0.74505805969E-08  0.93827000000E+00  0.93827000000E+00 0.  1.
     999902    2    1    2    0    0  0.14128351712E-01  0.16287865366E-01  0.99800366192E-02  0.10201706648E+01  0.10198939549E+01 0.  0.
     999903    2    3    3    0    0  0.80595299686E-01 -0.97876700990E-01 -0.18366290748E-01  0.12985896784E+00  0.21226868953E-01 0.  0.
         14    1    1    2    0    0 -0.14128351712E-01 -0.16287865366E-01 -0.99800366192E-02  0.23759335243E-01  0.00000000000E+00 0.  1.
     999901    1    3    3    0    0 -0.66466947974E-01  0.11416456636E+00  0.28346327367E-01  0.89031169691E+00  0.88000000000E+00 0. -1.
        -11    1    4    4    0    0  0.30980249220E-01 -0.28428583528E-01  0.20465022053E-02  0.42099994007E-01  0.51100000000E-03 0.  1.
         11    1    4    4    0    0  0.49615050467E-01 -0.69448117462E-01 -0.20412792953E-01  0.87758973837E-01  0.51100000000E-03 0. -1.
</event>
<event>
 8    1  0.1061722E+005  0.1043930E+01  0.7957747E-01            NaN
         13   -1    0    0    0    0  0.00000000000E+00  0.00000000000E+00  0.74505805969E-08  0.10566000000E+00  0.10566000000E+00 0. -1.
     999900   -1    0    0    0    0 -0.00000000000E+00 -0.00000000000E+00 -0.74505805969E-08  0.93827000000E+00  0.93827000000E+00 0.  1.
     999902    2    1    2    0    0 -0.14695357885E-01 -0.90639486546E-02 -0.15340692775E-01  0.10208335595E+01  0.10205722467E+01 0.  0.
     999903    2    3    3    0    0  0.10210857194E+00 -0.24740631513E-01  0.71268003947E-01  0.12876294417E+00  0.21506001327E-01 0.  0.
         14    1    1    2    0    0  0.14695357885E-01  0.90639486546E-02  0.15340692775E-01  0.23096440491E-01  0.00000000000E+00 0.  1.
     999901    1    3    3    0    0 -0.11680392982E+00  0.15676682859E-01 -0.86608696721E-01  0.89207061534E+00  0.88000000000E+00 0. -1.
        -11    1    4    4    0    0  0.75647977716E-01 -0.27603421441E-01  0.51209954197E-01  0.95432101190E-01  0.51100000000E-03 0. -1.
         11    1    4    4    0    0  0.26460594223E-01  0.28627899276E-02  0.20058049750E-01  0.33330842977E-01  0.51100000000E-03 0.  1.
</event>
<event>
 8    1  0.1061722E+005  0.1043930E+01  0.7957747E-01            NaN
         13   -1    0    0    0    0  0.00000000000E+00  0.00000000000E+00  0.74505805969E-08  0.10566000000E+00  0.10566000000E+00 0. -1.
     999900   -1    0    0    0    0 -0.00000000000E+00 -0.00000000000E+00 -0.74505805969E-08  0.93827000000E+00  0.93827000000E+00 0.  1.
     999902    2    1    2    0    0  0.90331372294E-02  0.15797432346E-01 -0.16583821249E-01  0.10193092859E+01  0.10190118943E+01 0.  0.
     999903    2    3    3    0    0 -0.83583997340E-01 -0.93710281564E-01 -0.18405407440E-01  0.12769659462E+00  0.14133639766E-01 0.  0.
         14    1    1    2    0    0 -0.90331372294E-02 -0.15797432346E-01  0.16583821249E-01  0.24620714128E-01  0.00000000000E+00 0. -1.
     999901    1    3    3    0    0  0.92617134569E-01  0.10950771391E+00  0.18215861904E-02  0.89161269125E+00  0.88000000000E+00 0.  1.
        -11    1    4    4    0    0 -0.29087759757E-01 -0.37005560696E-01 -0.68538833829E-03  0.47076960058E-01  0.51100000000E-03 0.  1.
         11    1    4    4    0    0 -0.54496237582E-01 -0.56704720868E-01 -0.17720019101E-01  0.80619634565E-01  0.51100000000E-03 0. -1.
</event>
<event>
 7    1  0.1061722E+005  0.1043930E+01  0.7957747E-01            NaN
         13   -1    0    0    0    0  0.00000000000E+00  0.00000000000E+00  0.74505805969E-08  0.10566000000E+00  0.10566000000E+00 0.  1.
     999900   -1    0    0    0    0 -0.00000000000E+00 -0.00000000000E+00 -0.74505805969E-08  0.93827000000E+00  0.93827000000E+00 0. -1.
     999903    2    1    2    0    0  0.63358638446E-01  0.45764974266E-01 -0.39202454705E-01  0.89731241594E-01  0.20152253664E-01 0.  0.
         14    1    1    2    0    0  0.63214675882E-01 -0.15222539546E-02  0.32729082776E-02  0.63317647086E-01  0.00000000000E+00 0. -1.
     999901    1    1    2    0    0 -0.12657331433E+00 -0.44242720311E-01  0.35929546427E-01  0.89088111132E+00  0.88000000000E+00 0. -1.
        -11    1    3    3    0    0  0.23668735301E-01  0.18648744299E-01 -0.26197713064E-01  0.39932017047E-01  0.51100000000E-03 0. -1.
         11    1    3    3    0    0  0.39689903145E-01  0.27116229967E-01 -0.13004741642E-01  0.49799224547E-01  0.51100000000E-03 0.  1.
</event>
<event>
 8    1  0.1061722E+005  0.1043930E+01  0.7957747E-01            NaN
         13   -1    0    0    0    0  0.00000000000E+00  0.00000000000E+00  0.74505805969E-08  0.10566000000E+00  0.10566000000E+00 0.  1.
     999900   -1    0    0    0    0 -0.00000000000E+00 -0.00000000000E+00 -0.74505805969E-08  0.93827000000E+00  0.93827000000E+00 0.  1.
     999902    2    1    2    0    0 -0.13585321872E-01 -0.15476501013E-01  0.74949063731E-02  0.10220152407E+01  0.10217802579E+01 0.  0.
     999903    2    3    3    0    0 -0.86252917570E-01  0.88334072752E-01 -0.41108349352E-01  0.13161112392E+00  0.19726057788E-01 0.  0.
         14    1    1    2    0    0  0.13585321872E-01  0.15476501013E-01 -0.74949063731E-02  0.21914759308E-01  0.00000000000E+00 0.  1.
     999901    1    3    3    0    0  0.72667595698E-01 -0.10381057376E+00  0.48603255725E-01  0.89040411677E+00  0.88000000000E+00 0. -1.
        -11    1    4    4    0    0 -0.51845905921E-01  0.58752934300E-01 -0.16828084793E-01  0.80145809675E-01  0.51100000000E-03 0. -1.
         11    1    4    4    0    0 -0.34407011649E-01  0.29581138452E-01 -0.24280264559E-01  0.51465314249E-01  0.51100000000E-03 0.  1.
</event>
<event>
 8    1  0.1168818E+005  0.1043930E+01  0.7957747E-01            NaN
         13   -1    0    0    0    0  0.00000000000E+00  0.00000000000E+00  0.74505805969E-08  0.10566000000E+00  0.10566000000E+00 0.  1.
     999900   -1    0    0    0    0 -0.00000000000E+00 -0.00000000000E+00 -0.74505805969E-08  0.93827000000E+00  0.93827000000E+00 0.  1.
     999902    2    1    2    0    0 -0.24125343249E-02 -0.42095947054E-02 -0.25489755825E-01  0.10179825789E+01  0.10176518375E+01 0.  0.
     999903    2    3    3    0    0 -0.40640455069E-01 -0.12067796784E+00 -0.11525958321E-01  0.12937622989E+00  0.19762151581E-01 0.  0.
         14    1    1    2    0    0  0.24125343249E-02  0.42095947054E-02  0.25489755825E-01  0.25947421095E-01  0.00000000000E+00 0.  1.
     999901    1    3    3    0    0  0.38227920744E-01  0.11646837314E+00 -0.13963797504E-01  0.88860634901E+00  0.88000000000E+00 0. -1.
        -11    1    4    4    0    0 -0.29233767841E-01 -0.61337289351E-01 -0.51168775629E-03  0.67951447317E-01  0.51100000000E-03 0.  1.
         11    1    4    4    0    0 -0.11406687228E-01 -0.59340678492E-01 -0.11014270564E-01  0.61424782575E-01  0.51100000000E-03 0. -1.
</event>
<event>
 8    1  0.1061722E+005  0.1043930E+01  0.7957747E-01            NaN
         13   -1    0    0    0    0  0.00000000000E+00  0.00000000000E+00  0.74505805969E-08  0.10566000000E+00  0.10566000000E+00 0. -1.
     999900   -1    0    0    0    0 -0.00000000000E+00 -0.00000000000E+00 -0.74505805969E-08  0.93827000000E+00  0.93827000000E+00 0.  1.
     999902    2    1    2    0    0 -0.15337785068E-01  0.27705108095E-02 -0.16776125976E-01  0.10210310528E+01  0.10207742400E+01 0.  0.
     999903    2    3    3    0    0  0.57965740021E-01  0.65474529994E-01  0.92878471977E-01  0.12899443265E+00  0.19136666447E-01 0.  0.
         14    1    1    2    0    0  0.15337785068E-01 -0.27705108095E-02  0.16776125976E-01  0.22898947218E-01  0.00000000000E+00 0. -1.
     999901    1    3    3    0    0 -0.73303525089E-01 -0.62704019184E-01 -0.10965459795E+00  0.89203662014E+00  0.88000000000E+00 0.  1.
        -11    1    4    4    0    0  0.34275435002E-01  0.46811712330E-01  0.50138769924E-01  0.76683109133E-01  0.51100000000E-03 0. -1.
         11    1    4    4    0    0  0.23690305019E-01  0.18662817664E-01  0.42739702053E-01  0.52311323512E-01  0.51100000000E-03 0.  1.
</event>
<event>
 8    1  0.1061722E+005  0.1043930E+01  0.7957747E-01            NaN
         13   -1    0    0    0    0  0.00000000000E+00  0.00000000000E+00  0.74505805969E-08  0.10566000000E+00  0.10566000000E+00 0.  1.
     999900   -1    0    0    0    0 -0.00000000000E+00 -0.00000000000E+00 -0.74505805969E-08  0.93827000000E+00  0.93827000000E+00 0.  1.
     999902    2    1    2    0    0 -0.11930753459E-01 -0.19829045332E-01  0.56439574676E-02  0.10201100887E+01  0.10198319494E+01 0.  0.
     999903    2    3    3    0    0 -0.10744039261E+00  0.30651615689E-01  0.66104203868E-01  0.13144489323E+00  0.20616369201E-01 0.  0.
         14    1    1    2    0    0  0.11930753459E-01  0.19829045332E-01 -0.56439574676E-02  0.23819911267E-01  0.00000000000E+00 0.  1.
     999901    1    3    3    0    0  0.95509639147E-01 -0.50480661022E-01 -0.60460246400E-01  0.88866519551E+00  0.88000000000E+00 0.  1.
        -11    1    4    4    0    0 -0.68512842694E-01  0.13637695355E-01  0.50430295280E-01  0.86159573767E-01  0.51100000000E-03 0. -1.
         11    1    4    4    0    0 -0.38927549912E-01  0.17013920335E-01  0.15673908588E-01  0.45285319461E-01  0.51100000000E-03 0.  1.
</event>
<event>
 8    1  0.1061722E+005  0.1043930E+01  0.7957747E-01            NaN
         13   -1    0    0    0    0  0.00000000000E+00  0.00000000000E+00  0.74505805969E-08  0.10566000000E+00  0.10566000000E+00 0. -1.
     999900   -1    0    0    0    0 -0.00000000000E+00 -0.00000000000E+00 -0.74505805969E-08  0.93827000000E+00  0.93827000000E+00 0. -1.
     999902    2    1    2    0    0 -0.57891741181E-02  0.18982848961E-01  0.12469450654E-01  0.10204917771E+01  0.10202225820E+01 0.  0.
     999903    2    3    3    0    0 -0.12301546095E+00 -0.35735696933E-01 -0.14281425771E-01  0.13063126504E+00  0.21230275920E-01 0.  0.
         14    1    1    2    0    0  0.57891741181E-02 -0.18982848961E-01 -0.12469450654E-01  0.23438222869E-01  0.00000000000E+00 0.  1.
     999901    1    3    3    0    0  0.11722628683E+00  0.54718545894E-01  0.26750876425E-01  0.88986051209E+00  0.88000000000E+00 0. -1.
        -11    1    4    4    0    0 -0.96386278919E-01 -0.20057377444E-01 -0.15681828107E-01  0.99693500328E-01  0.51100000000E-03 0. -1.
         11    1    4    4    0    0 -0.26629182031E-01 -0.15678319490E-01  0.14004023358E-02  0.30937764712E-01  0.51100000000E-03 0.  1.
</event>
<event>
 8    1  0.1061722E+005  0.1043930E+01  0.7957747E-01            NaN
         13   -1    0    0    0    0  0.00000000000E+00  0.00000000000E+00  0.74505805969E-08  0.10566000000E+00  0.10566000000E+00 0.  1.
     999900   -1    0    0    0    0 -0.00000000000E+00 -0.00000000000E+00 -0.74505805969E-08  0.93827000000E+00  0.93827000000E+00 0. -1.
     999902    2    1    2    0    0  0.92277412798E-02  0.44032058746E-02  0.20463929334E-01  0.10210539900E+01  0.10207976972E+01 0.  0.
     999903    2    3    3    0    0 -0.11379883498E+00  0.48932756501E-01  0.38487597661E-01  0.13119823089E+00  0.19674631196E-01 0.  0.
         14    1    1    2    0    0 -0.92277412798E-02 -0.44032058746E-02 -0.20463929334E-01  0.22876010030E-01  0.00000000000E+00 0. -1.
     999901    1    3    3    0    0  0.12302657626E+00 -0.44529550626E-01 -0.18023668327E-01  0.88985575908E+00  0.88000000000E+00 0.  1.
        -11    1    4    4    0    0 -0.58779959678E-01  0.31131683116E-01  0.11997143176E-01  0.67590368536E-01  0.51100000000E-03 0. -1.
         11    1    4    4    0    0 -0.55018875307E-01  0.17801073384E-01  0.26490454485E-01  0.63607862356E-01  0.51100000000E-03 0.  1.
</event>
<event>
 8    1  0.1061722E+005  0.1043930E+01  0.7957747E-01            NaN
         13   -1    0    0    0    0  0.00000000000E+00  0.00000000000E+00  0.74505805969E-08  0.10566000000E+00  0.10566000000E+00 0.  1.
     999900   -1    0    0    0    0 -0.00000000000E+00 -0.00000000000E+00 -0.74505805969E-08  0.93827000000E+00  0.93827000000E+00 0. -1.
     999902    2    1    2    0    0  0.95100903334E-02 -0.19875502540E-02  0.23830637077E-01  0.10181949764E+01  0.10178696963E+01 0.  0.
     999903    2    3    3    0    0  0.31823260172E-01 -0.68247343192E-01 -0.99978095445E-01  0.12678214281E+00  0.20190899590E-01 0.  0.
         14    1    1    2    0    0 -0.95100903334E-02  0.19875502540E-02 -0.23830637077E-01  0.25735023561E-01  0.00000000000E+00 0. -1.
     999901    1    3    3    0    0 -0.22313169838E-01  0.66259792938E-01  0.12380873252E+00  0.89141283363E+00  0.88000000000E+00 0.  1.
        -11    1    4    4    0    0  0.57268284325E-02 -0.36071298937E-01 -0.47469197866E-01  0.59895918375E-01  0.51100000000E-03 0.  1.
         11    1    4    4    0    0  0.26096431739E-01 -0.32176044255E-01 -0.52508897579E-01  0.66886224437E-01  0.51100000000E-03 0. -1.
</event>
<event>
 8    1  0.1061722E+005  0.1043930E+01  0.7957747E-01            NaN
         13   -1    0    0    0    0  0.00000000000E+00  0.00000000000E+00  0.74505805969E-08  0.10566000000E+00  0.10566000000E+00 0. -1.
     999900   -1    0    0    0    0 -0.00000000000E+00 -0.00000000000E+00 -0.74505805969E-08  0.93827000000E+00  0.93827000000E+00 0.  1.
     999902    2    1    2    0    0  0.13628224214E-01 -0.94084007157E-02  0.16472398584E-01  0.10205722087E+01  0.10203048793E+01 0.  0.
     999903    2    3    3    0    0 -0.80978995756E-02 -0.12779627558E+00  0.26558448574E-01  0.13232143230E+00  0.20153069889E-01 0.  0.
         14    1    1    2    0    0 -0.13628224214E-01  0.94084007157E-02 -0.16472398584E-01  0.23357791299E-01  0.00000000000E+00 0.  1.
     999901    1    3    3    0    0  0.21726123790E-01  0.11838787486E+00 -0.10086049990E-01  0.88825077640E+00  0.88000000000E+00 0.  1.
        -11    1    4    4    0    0 -0.64584271676E-02 -0.38128130347E-01  0.16596461898E-01  0.42085261954E-01  0.51100000000E-03 0.  1.
         11    1    4    4    0    0 -0.16394724080E-02 -0.89668145234E-01  0.99619866754E-02  0.90236170347E-01  0.51100000000E-03 0. -1.
</event>
<event>
 8    1  0.1061722E+005  0.1043930E+01  0.7957747E-01            NaN
         13   -1    0    0    0    0  0.00000000000E+00  0.00000000000E+00  0.74505805969E-08  0.10566000000E+00  0.10566000000E+00 0.  1.
     999900   -1    0    0    0    0 -0.00000000000E+00 -0.00000000000E+00 -0.74505805969E-08  0.93827000000E+00  0.93827000000E+00 0.  1.
     999902    2    1    2    0    0  0.96654954840E-02  0.45871576453E-02  0.21101770843E-01  0.10202709943E+01  0.10199966437E+01 0.  0.
     999903    2    3    3    0    0 -0.88864258652E-01  0.38722039498E-01 -0.81635524695E-01  0.12817892814E+00  0.19215252210E-01 0.  0.
         14    1    1    2    0    0 -0.96654954840E-02 -0.45871576453E-02 -0.21101770843E-01  0.23659005704E-01  0.00000000000E+00 0. -1.
     999901    1    3    3    0    0  0.98529754136E-01 -0.34134881853E-01  0.10273729554E+00  0.89209206616E+00  0.88000000000E+00 0. -1.
        -11    1    4    4    0    0 -0.81861530771E-02  0.90525172888E-02 -0.15411981678E-01  0.19665997857E-01  0.51100000000E-03 0.  1.
         11    1    4    4    0    0 -0.80678105575E-01  0.29669522209E-01 -0.66223543017E-01  0.10851293028E+00  0.51100000000E-03 0. -1.
</event>
<event>
 8    1  0.1061722E+005  0.1043930E+01  0.7957747E-01            NaN
         13   -1    0    0    0    0  0.00000000000E+00  0.00000000000E+00  0.74505805969E-08  0.10566000000E+00  0.10566000000E+00 0.  1.
     999900   -1    0    0    0    0 -0.00000000000E+00 -0.00000000000E+00 -0.74505805969E-08  0.93827000000E+00  0.93827000000E+00 0.  1.
     999902    2    1    2    0    0 -0.21401795633E-01 -0.94671377295E-02  0.66390069399E-02  0.10196042941E+01  0.10193140716E+01 0.  0.
     999903    2    3    3    0    0 -0.24427847897E-01  0.12432333524E+00  0.17719152926E-01  0.12941789944E+00  0.19545149673E-01 0.  0.
         14    1    1    2    0    0  0.21401795633E-01  0.94671377295E-02 -0.66390069399E-02  0.24325705874E-01  0.00000000000E+00 0. -1.
     999901    1    3    3    0    0  0.30260522639E-02 -0.13379047297E+00 -0.11080145986E-01  0.89018639469E+00  0.88000000000E+00 0. -1.
        -11    1    4    4    0    0 -0.54605183411E-02  0.67410976733E-01  0.15488205193E-01  0.69384455506E-01  0.51100000000E-03 0.  1.
         11    1    4    4    0    0 -0.18967329556E-01  0.56912358511E-01  0.22309477326E-02  0.60033443934E-01  0.51100000000E-03 0. -1.
</event>
<event>
 8    1  0.1061722E+005  0.1043930E+01  0.7957747E-01            NaN
         13   -1    0    0    0    0  0.00000000000E+00  0.00000000000E+00  0.74505805969E-08  0.10566000000E+00  0.10566000000E+00 0. -1.
     999900   -1    0    0    0    0 -0.00000000000E+00 -0.00000000000E+00 -0.74505805969E-08  0.93827000000E+00  0.93827000000E+00 0.  1.
     999902    2    1    2    0    0 -0.21303166913E-01 -0.36388446737E-02 -0.92241915750E-02  0.10204320890E+01  0.10201615051E+01 0.  0.
     999903    2    3    3    0    0 -0.18263059220E-01 -0.43534300808E-02  0.12698860372E+00  0.12994700856E+00  0.20189796254E-01 0.  0.
         14    1    1    2    0    0  0.21303166913E-01  0.36388446737E-02  0.92241915750E-02  0.23497910998E-01  0.00000000000E+00 0. -1.
     999901    1    3    3    0    0 -0.30401076929E-02  0.71458540716E-03 -0.13621279530E+00  0.89048508044E+00  0.88000000000E+00 0.  1.
        -11    1    4    4    0    0 -0.58182942597E-02 -0.10572697404E-01  0.81055230909E-01  0.81950265754E-01  0.51100000000E-03 0. -1.
         11    1    4    4    0    0 -0.12444764960E-01  0.62192673230E-02  0.45933372814E-01  0.47996742806E-01  0.51100000000E-03 0.  1.
</event>
<event>
 8    1  0.1061722E+005  0.1043930E+01  0.7957747E-01            NaN
         13   -1    0    0    0    0  0.00000000000E+00  0.00000000000E+00  0.74505805969E-08  0.10566000000E+00  0.10566000000E+00 0. -1.
     999900   -1    0    0    0    0 -0.00000000000E+00 -0.00000000000E+00 -0.74505805969E-08  0.93827000000E+00  0.93827000000E+00 0.  1.
     999902    2    1    2    0    0  0.90077968718E-02 -0.11800695383E-01 -0.18029500420E-01  0.10205749213E+01  0.10203076547E+01 0.  0.
     999903    2    3    3    0    0 -0.21630662594E-01 -0.11774933483E+00  0.49499885087E-01  0.13112337832E+00  0.20256117611E-01 0.  0.
         14    1    1    2    0    0 -0.90077968718E-02  0.11800695383E-01  0.18029500420E-01  0.23355078707E-01  0.00000000000E+00 0. -1.
     999901    1    3    3    0    0  0.30638459465E-01  0.10594863944E+00 -0.67529385507E-01  0.88945154298E+00  0.88000000000E+00 0.  1.
        -11    1    4    4    0    0 -0.64693695327E-02 -0.85874517743E-01  0.35377109998E-01  0.93102559431E-01  0.51100000000E-03 0.  1.
         11    1    4    4    0    0 -0.15161293061E-01 -0.31874817085E-01  0.14122775088E-01  0.38020818885E-01  0.51100000000E-03 0. -1.
</event>
<event>
 8    1  0.1061722E+005  0.1043930E+01  0.7957747E-01            NaN
         13   -1    0    0    0    0  0.00000000000E+00  0.00000000000E+00  0.74505805969E-08  0.10566000000E+00  0.10566000000E+00 0. -1.
     999900   -1    0    0    0    0 -0.00000000000E+00 -0.00000000000E+00 -0.74505805969E-08  0.93827000000E+00  0.93827000000E+00 0. -1.
     999902    2    1    2    0    0  0.21848793268E-01 -0.10957009258E-01  0.22920430990E-02  0.10193804729E+01  0.10190848195E+01 0.  0.
     999903    2    3    3    0    0 -0.11213965545E-01 -0.11747684602E+00  0.52764784936E-01  0.13090587039E+00  0.20631577678E-01 0.  0.
         14    1    1    2    0    0 -0.21848793268E-01  0.10957009258E-01 -0.22920430990E-02  0.24549527098E-01  0.00000000000E+00 0. -1.
     999901    1    3    3    0    0  0.33062758813E-01  0.10651983677E+00 -0.50472741837E-01  0.88847460251E+00  0.88000000000E+00 0. -1.
        -11    1    4    4    0    0 -0.16159967821E-01 -0.72225578303E-01  0.28423967926E-01  0.79283426987E-01  0.51100000000E-03 0.  1.
         11    1    4    4    0    0  0.49460022758E-02 -0.45251267721E-01  0.24340817010E-01  0.51622443401E-01  0.51100000000E-03 0. -1.
</event>
<event>
 8    1  0.1061722E+005  0.1043930E+01  0.7957747E-01            NaN
         13   -1    0    0    0    0  0.00000000000E+00  0.00000000000E+00  0.74505805969E-08  0.10566000000E+00  0.10566000000E+00 0.  1.
     999900   -1    0    0    0    0 -0.00000000000E+00 -0.00000000000E+00 -0.74505805969E-08  0.93827000000E+00  0.93827000000E+00 0.  1.
     999902    2    1    2    0    0 -0.25054447424E-01 -0.92441354323E-02  0.98457942446E-02  0.10154674098E+01  0.10150684417E+01 0.  0.
     999903    2    3    3    0    0  0.12523511653E-01 -0.90211803059E-01  0.87897251067E-01  0.12751476687E+00  0.15462253029E-01 0.  0.
         14    1    1    2    0    0  0.25054447424E-01  0.92441354323E-02 -0.98457942446E-02  0.28462590183E-01  0.00000000000E+00 0.  1.
     999901    1    3    3    0    0 -0.37577959077E-01  0.80967667627E-01 -0.78051456823E-01  0.88795264295E+00  0.88000000000E+00 0.  1.
        -11    1    4    4    0    0  0.46163222292E-02 -0.74009518559E-01  0.67354133242E-01  0.10017764049E+00  0.51100000000E-03 0.  1.
         11    1    4    4    0    0  0.79071894242E-02 -0.16202284500E-01  0.20543117826E-01  0.27337126378E-01  0.51100000000E-03 0. -1.
</event>
<event>
 8    1  0.1061722E+005  0.1043930E+01  0.7957747E-01            NaN
         13   -1    0    0    0    0  0.00000000000E+00  0.00000000000E+00  0.74505805969E-08  0.10566000000E+00  0.10566000000E+00 0.  1.
     999900   -1    0    0    0    0 -0.00000000000E+00 -0.00000000000E+00 -0.74505805969E-08  0.93827000000E+00  0.93827000000E+00 0.  1.
     999902    2    1    2    0    0 -0.22979535411E-02 -0.22114607030E-01 -0.86413819212E-02  0.10200760713E+01  0.10197971275E+01 0.  0.
     999903    2    3    3    0    0 -0.48508210433E-01  0.74183397968E-01  0.89875138170E-01  0.12816004476E+00  0.22163790247E-01 0.  0.
         14    1    1    2    0    0  0.22979535411E-02  0.22114607030E-01  0.86413819212E-02  0.23853928735E-01  0.00000000000E+00 0.  1.
     999901    1    3    3    0    0  0.46210256892E-01 -0.96298004998E-01 -0.98516520091E-01  0.89191602651E+00  0.88000000000E+00 0.  1.
        -11    1    4    4    0    0 -0.63099992454E-02  0.14913330920E-01  0.63831649273E-02  0.17413484577E-01  0.51100000000E-03 0.  1.
         11    1    4    4    0    0 -0.42198211187E-01  0.59270067047E-01  0.83491973242E-01  0.11074656018E+00  0.51100000000E-03 0. -1.
</event>
<event>
 8    1  0.1061722E+005  0.1043930E+01  0.7957747E-01            NaN
         13   -1    0    0    0    0  0.00000000000E+00  0.00000000000E+00  0.74505805969E-08  0.10566000000E+00  0.10566000000E+00 0.  1.
     999900   -1    0    0    0    0 -0.00000000000E+00 -0.00000000000E+00 -0.74505805969E-08  0.93827000000E+00  0.93827000000E+00 0.  1.
     999902    2    1    2    0    0 -0.18794030190E-02  0.22818513747E-01  0.73937634634E-02  0.10198699821E+01  0.10195861395E+01 0.  0.
     999903    2    3    3    0    0  0.11107926056E+00 -0.28929952131E-01 -0.55382291635E-01  0.12892756164E+00  0.19482650401E-01 0.  0.
         14    1    1    2    0    0  0.18794030190E-02 -0.22818513747E-01 -0.73937634634E-02  0.24060017945E-01  0.00000000000E+00 0. -1.
     999901    1    3    3    0    0 -0.11295866358E+00  0.51748465879E-01  0.62776055099E-01  0.89094242041E+00  0.88000000000E+00 0. -1.
        -11    1    4    4    0    0  0.43661483709E-01 -0.73825734760E-02 -0.31040225624E-01  0.54079425649E-01  0.51100000000E-03 0. -1.
         11    1    4    4    0    0  0.67417776854E-01 -0.21547378655E-01 -0.24342066011E-01  0.74848135992E-01  0.51100000000E-03 0.  1.
</event>
<event>
 8    1  0.1061722E+005  0.1043930E+01  0.7957747E-01            NaN
         13   -1    0    0    0    0  0.00000000000E+00  0.00000000000E+00  0.74505805969E-08  0.10566000000E+00  0.10566000000E+00 0. -1.
     999900   -1    0    0    0    0 -0.00000000000E+00 -0.00000000000E+00 -0.74505805969E-08  0.93827000000E+00  0.93827000000E+00 0.  1.
     999902    2    1    2    0    0  0.22988798686E-01 -0.22777575626E-01  0.35302700307E-02  0.10113759584E+01  0.10108519000E+01 0.  0.
     999903    2    3    3    0    0  0.87397930060E-01  0.30325104042E-01 -0.79500662978E-01  0.12353443730E+00  0.19554837553E-01 0.  0.
         14    1    1    2    0    0 -0.22988798686E-01  0.22777575626E-01 -0.35302700307E-02  0.32554041576E-01  0.00000000000E+00 0. -1.
     999901    1    3    3    0    0 -0.64409131374E-01 -0.53102679668E-01  0.83030933009E-01  0.88784152112E+00  0.88000000000E+00 0. -1.
        -11    1    4    4    0    0  0.12977675656E-01  0.86169139117E-02 -0.22234874818E-01  0.27153674705E-01  0.51100000000E-03 0. -1.
         11    1    4    4    0    0  0.74420254404E-01  0.21708190130E-01 -0.57265788160E-01  0.96380762598E-01  0.51100000000E-03 0.  1.
</event>
<event>
 8    1  0.1061722E+005  0.1043930E+01  0.7957747E-01            NaN
         13   -1    0    0    0    0  0.00000000000E+00  0.00000000000E+00  0.74505805969E-08  0.10566000000E+00  0.10566000000E+00 0.  1.
     999900   -1    0    0    0    0 -0.00000000000E+00 -0.00000000000E+00 -0.74505805969E-08  0.93827000000E+00  0.93827000000E+00 0. -1.
     999902    2    1    2    0    0  0.17819172511E-01  0.81621861284E-02 -0.13116195079E-01  0.10203465574E+01  0.10200739769E+01 0.  0.
     999903    2    3    3    0    0 -0.15199138755E-01  0.10513592984E+00  0.72771155589E-01  0.13025063400E+00  0.19621646457E-01 0.  0.
         14    1    1    2    0    0 -0.17819172511E-01 -0.81621861284E-02  0.13116195079E-01  0.23583442597E-01  0.00000000000E+00 0.  1.
     999901    1    3    3    0    0  0.33018311266E-01 -0.96973743714E-01 -0.85887350668E-01  0.89009592340E+00  0.88000000000E+00 0. -1.
        -11    1    4    4    0    0  0.27313416887E-02  0.24108186189E-01  0.10238569635E-01  0.26339215970E-01  0.51100000000E-03 0. -1.
         11    1    4    4    0    0 -0.17930480444E-01  0.81027743653E-01  0.62532585955E-01  0.10391141803E+00  0.51100000000E-03 0.  1.
</event>
<event>
 8    1  0.1061722E+005  0.1043930E+01  0.7957747E-01            NaN
         13   -1    0    0    0    0  0.00000000000E+00  0.00000000000E+00  0.74505805969E-08  0.10566000000E+00  0.10566000000E+00 0. -1.
     999900   -1    0    0    0    0 -0.00000000000E+00 -0.00000000000E+00 -0.74505805969E-08  0.93827000000E+00  0.93827000000E+00 0. -1.
     999902    2    1    2    0    0  0.90323630887E-02 -0.50837023834E-02  0.19837543989E-01  0.10215479589E+01  0.10213027350E+01 0.  0.
     999903    2    3    3    0    0 -0.30357704214E-01 -0.11342222003E+00  0.59266831975E-01  0.13315419452E+00  0.20767569534E-01 0.  0.
         14    1    1    2    0    0 -0.90323630887E-02  0.50837023834E-02 -0.19837543989E-01  0.22382041113E-01  0.00000000000E+00 0.  1.
     999901    1    3    3    0    0  0.39390067302E-01  0.10833851765E+00 -0.39429287987E-01  0.88839376436E+00  0.88000000000E+00 0. -1.
        -11    1    4    4    0    0 -0.25094903381E-02 -0.48513694342E-01  0.25458450285E-01  0.54847697238E-01  0.51100000000E-03 0. -1.
         11    1    4    4    0    0 -0.27848213875E-01 -0.64908525692E-01  0.33808381690E-01  0.78306497285E-01  0.51100000000E-03 0.  1.
</event>
<event>
 8    1  0.1061722E+005  0.1043930E+01  0.7957747E-01            NaN
         13   -1    0    0    0    0  0.00000000000E+00  0.00000000000E+00  0.74505805969E-08  0.10566000000E+00  0.10566000000E+00 0. -1.
     999900   -1    0    0    0    0 -0.00000000000E+00 -0.00000000000E+00 -0.74505805969E-08  0.93827000000E+00  0.93827000000E+00 0. -1.
     999902    2    1    2    0    0 -0.90925381986E-02 -0.18972220849E-01  0.14074500130E-01  0.10186177309E+01  0.10183031821E+01 0.  0.
     999903    2    3    3    0    0 -0.46927817650E-01  0.46956541848E-01  0.10993396366E+00  0.13015436816E+00  0.21155289967E-01 0.  0.
         14    1    1    2    0    0  0.90925381986E-02  0.18972220849E-01 -0.14074500130E-01  0.25312269135E-01  0.00000000000E+00 0.  1.
     999901    1    3    3    0    0  0.37835279452E-01 -0.65928762697E-01 -0.95859463529E-01  0.88846336271E+00  0.88000000000E+00 0. -1.
        -11    1    4    4    0    0 -0.33857220716E-01  0.44767534783E-01  0.84038710027E-01  0.10106042484E+00  0.51100000000E-03 0. -1.
         11    1    4    4    0    0 -0.13070596935E-01  0.21890070653E-02  0.25895253631E-01  0.29093943318E-01  0.51100000000E-03 0.  1.
</event>
<event>
 8    1  0.1061722E+005  0.1043930E+01  0.7957747E-01            NaN
         13   -1    0    0    0    0  0.00000000000E+00  0.00000000000E+00  0.74505805969E-08  0.10566000000E+00  0.10566000000E+00 0.  1.
     999900   -1    0    0    0    0 -0.00000000000E+00 -0.00000000000E+00 -0.74505805969E-08  0.93827000000E+00  0.93827000000E+00 0.  1.
     999902    2    1    2    0    0 -0.27905807022E-02  0.20144965724E-01 -0.41150986091E-02  0.10231805176E+01  0.10229701024E+01 0.  0.
     999903    2    3    3    0    0  0.10884123508E-01  0.12392765148E+00 -0.50001894914E-01  0.13578914874E+00  0.21493638001E-01 0.  0.
         14    1    1    2    0    0  0.27905807022E-02 -0.20144965724E-01  0.41150986091E-02  0.20749482433E-01  0.00000000000E+00 0.  1.
     999901    1    3    3    0    0 -0.13674704210E-01 -0.10378268575E+00  0.45886796304E-01  0.88739136883E+00  0.88000000000E+00 0. -1.
        -11    1    4    4    0    0 -0.62385685606E-02  0.22455477095E-01 -0.81271769163E-02  0.24687655111E-01  0.51100000000E-03 0.  1.
         11    1    4    4    0    0  0.17122692068E-01  0.10147217438E+00 -0.41874717997E-01  0.11110149363E+00  0.51100000000E-03 0. -1.
</event>
<event>
 8    1  0.1061722E+005  0.1043930E+01  0.7957747E-01            NaN
         13   -1    0    0    0    0  0.00000000000E+00  0.00000000000E+00  0.74505805969E-08  0.10566000000E+00  0.10566000000E+00 0.  1.
     999900   -1    0    0    0    0 -0.00000000000E+00 -0.00000000000E+00 -0.74505805969E-08  0.93827000000E+00  0.93827000000E+00 0.  1.
     999902    2    1    2    0    0 -0.18260078699E-01 -0.11563416886E-01 -0.17398923554E-01  0.10161835475E+01  0.10158046744E+01 0.  0.
     999903    2    3    3    0    0 -0.46276511020E-01 -0.11776898914E+00  0.61404664683E-02  0.12904283324E+00  0.24562109176E-01 0.  0.
         14    1    1    2    0    0  0.18260078699E-01  0.11563416886E-01  0.17398923554E-01  0.27746452476E-01  0.00000000000E+00 0. -1.
     999901    1    3    3    0    0  0.28016432321E-01  0.10620557225E+00 -0.23539390022E-01  0.88714071428E+00  0.88000000000E+00 0. -1.
        -11    1    4    4    0    0 -0.10550302617E-01 -0.16880565818E-01 -0.72248727400E-02  0.21183066226E-01  0.51100000000E-03 0.  1.
         11    1    4    4    0    0 -0.35726208403E-01 -0.10088842332E+00  0.13365339208E-01  0.10785976701E+00  0.51100000000E-03 0. -1.
</event>
<event>
 8    1  0.1061722E+005  0.1043930E+01  0.7957747E-01            NaN
         13   -1    0    0    0    0  0.00000000000E+00  0.00000000000E+00  0.74505805969E-08  0.10566000000E+00  0.10566000000E+00 0. -1.
     999900   -1    0    0    0    0 -0.00000000000E+00 -0.00000000000E+00 -0.74505805969E-08  0.93827000000E+00  0.93827000000E+00 0.  1.
     999902    2    1    2    0    0 -0.15338661001E-01 -0.16916515399E-01 -0.54847820453E-02  0.10204454125E+01  0.10201751389E+01 0.  0.
     999903    2    3    3    0    0  0.11054817905E+00 -0.95735122150E-02  0.62397358223E-01  0.12886849428E+00  0.20027642839E-01 0.  0.
         14    1    1    2    0    0  0.15338661001E-01  0.16916515399E-01  0.54847820453E-02  0.23484587470E-01  0.00000000000E+00 0.  1.
     999901    1    3    3    0    0 -0.12588684005E+00 -0.73430031841E-02 -0.67882140268E-01  0.89157691825E+00  0.88000000000E+00 0.  1.
        -11    1    4    4    0    0  0.46854032794E-01 -0.29212924231E-02  0.37765745500E-01  0.60252360889E-01  0.51100000000E-03 0.  1.
         11    1    4    4    0    0  0.63694146251E-01 -0.66522197919E-02  0.24631612723E-01  0.68616133388E-01  0.51100000000E-03 0. -1.
</event>
<event>
 7    1  0.1061722E+005  0.1043930E+01  0.7957747E-01            NaN
         13   -1    0    0    0    0  0.00000000000E+00  0.00000000000E+00  0.74505805969E-08  0.10566000000E+00  0.10566000000E+00 0. -1.
     999900   -1    0    0    0    0 -0.00000000000E+00 -0.00000000000E+00 -0.74505805969E-08  0.93827000000E+00  0.93827000000E+00 0.  1.
     999903    2    1    2    0    0  0.13445374254E-01 -0.30253570854E-02  0.10170009499E+00  0.10447051528E+00  0.19525582382E-01 0.  0.
         14    1    1    2    0    0 -0.30512917334E-01 -0.16818674986E-01 -0.45460011062E-01  0.57275811284E-01  0.00000000000E+00 0.  1.
     999901    1    1    2    0    0  0.17067543080E-01  0.19844032071E-01 -0.56240083930E-01  0.88218367344E+00  0.88000000000E+00 0.  1.
        -11    1    3    3    0    0  0.18019360184E-01 -0.49744320371E-02  0.85295904887E-01  0.87321788959E-01  0.51100000000E-03 0. -1.
         11    1    3    3    0    0 -0.45739859303E-02  0.19490749517E-02  0.16404190105E-01  0.17148726322E-01  0.51100000000E-03 0.  1.
</event>
<event>
 8    1  0.1061722E+005  0.1043930E+01  0.7957747E-01            NaN
         13   -1    0    0    0    0  0.00000000000E+00  0.00000000000E+00  0.74505805969E-08  0.10566000000E+00  0.10566000000E+00 0. -1.
     999900   -1    0    0    0    0 -0.00000000000E+00 -0.00000000000E+00 -0.74505805969E-08  0.93827000000E+00  0.93827000000E+00 0. -1.
     999902    2    1    2    0    0 -0.19846941677E-01  0.16978433027E-02  0.11722996628E-01  0.10208169644E+01  0.10205552716E+01 0.  0.
     999903    2    3    3    0    0 -0.67312999632E-01 -0.10957462558E+00 -0.22492366719E-01  0.13188205108E+00  0.18690381090E-01 0.  0.
         14    1    1    2    0    0  0.19846941677E-01 -0.16978433027E-02 -0.11722996628E-01  0.23113035624E-01  0.00000000000E+00 0.  1.
     999901    1    3    3    0    0  0.47466057955E-01  0.11127246888E+00  0.34215363347E-01  0.88893491330E+00  0.88000000000E+00 0.  1.
        -11    1    4    4    0    0 -0.16334761595E-01 -0.20594229633E-01 -0.11662773052E-01  0.28761573789E-01  0.51100000000E-03 0.  1.
         11    1    4    4    0    0 -0.50978238037E-01 -0.88980395948E-01 -0.10829593667E-01  0.10312047729E+00  0.51100000000E-03 0. -1.
</event>
<event>
 8    1  0.1061722E+005  0.1043930E+01  0.7957747E-01            NaN
         13   -1    0    0    0    0  0.00000000000E+00  0.00000000000E+00  0.74505805969E-08  0.10566000000E+00  0.10566000000E+00 0.  1.
     999900   -1    0    0    0    0 -0.00000000000E+00 -0.00000000000E+00 -0.74505805969E-08  0.93827000000E+00  0.93827000000E+00 0.  1.
     999902    2    1    2    0    0  0.64813157886E-03  0.17254556769E-01 -0.15397660736E-01  0.10207950101E+01  0.10205328142E+01 0.  0.
     999903    2    3    3    0    0 -0.26738078395E-01  0.12564631642E+00 -0.30742358522E-01  0.13358915017E+00  0.19976155043E-01 0.  0.
         14    1    1    2    0    0 -0.64813157886E-03 -0.17254556769E-01  0.15397660736E-01  0.23134989950E-01  0.00000000000E+00 0. -1.
     999901    1    3    3    0    0  0.27386209973E-01 -0.10839175965E+00  0.15344697787E-01  0.88720585988E+00  0.88000000000E+00 0.  1.
        -11    1    4    4    0    0 -0.20370891046E-01  0.49026665087E-01 -0.11259459092E-01  0.54273599766E-01  0.51100000000E-03 0.  1.
         11    1    4    4    0    0 -0.63671873489E-02  0.76619651330E-01 -0.19482899430E-01  0.79315550404E-01  0.51100000000E-03 0. -1.
</event>
<event>
 8    1  0.1061722E+005  0.1043930E+01  0.7957747E-01            NaN
         13   -1    0    0    0    0  0.00000000000E+00  0.00000000000E+00  0.74505805969E-08  0.10566000000E+00  0.10566000000E+00 0.  1.
     999900   -1    0    0    0    0 -0.00000000000E+00 -0.00000000000E+00 -0.74505805969E-08  0.93827000000E+00  0.93827000000E+00 0. -1.
     999902    2    1    2    0    0 -0.22767967062E-01 -0.65579363521E-03 -0.74662355016E-02  0.10199601218E+01  0.10196784272E+01 0.  0.
     999903    2    3    3    0    0 -0.12270084428E+00 -0.37407691051E-01  0.28206764470E-01  0.13282436845E+00  0.19795422588E-01 0.  0.
         14    1    1    2    0    0  0.22767967062E-01  0.65579363521E-03  0.74662355016E-02  0.23969878222E-01  0.00000000000E+00 0. -1.
     999901    1    3    3    0    0  0.99932877214E-01  0.36751897416E-01 -0.35672999971E-01  0.88713575333E+00  0.88000000000E+00 0. -1.
        -11    1    4    4    0    0 -0.10475841541E+00 -0.38467896045E-01  0.21614362282E-01  0.11367298009E+00  0.51100000000E-03 0. -1.
         11    1    4    4    0    0 -0.17942428869E-01  0.10602049944E-02  0.65924021881E-02  0.19151388356E-01  0.51100000000E-03 0.  1.
</event>
<event>
 8    1  0.1061722E+005  0.1043930E+01  0.7957747E-01            NaN
         13   -1    0    0    0    0  0.00000000000E+00  0.00000000000E+00  0.74505805969E-08  0.10566000000E+00  0.10566000000E+00 0.  1.
     999900   -1    0    0    0    0 -0.00000000000E+00 -0.00000000000E+00 -0.74505805969E-08  0.93827000000E+00  0.93827000000E+00 0. -1.
     999902    2    1    2    0    0  0.95576054982E-02  0.13761890547E-01 -0.17105202970E-01  0.10199857852E+01  0.10197047007E+01 0.  0.
     999903    2    3    3    0    0 -0.31937757431E-02  0.12684850499E+00  0.26186199820E-01  0.13160223872E+00  0.23080050977E-01 0.  0.
         14    1    1    2    0    0 -0.95576054982E-02 -0.13761890547E-01  0.17105202970E-01  0.23944214811E-01  0.00000000000E+00 0.  1.
     999901    1    3    3    0    0  0.12751381241E-01 -0.11308661444E+00 -0.43291402790E-01  0.88838354647E+00  0.88000000000E+00 0. -1.
        -11    1    4    4    0    0  0.90000333971E-02  0.57390942016E-01  0.16687155493E-01  0.60443718500E-01  0.51100000000E-03 0.  1.
         11    1    4    4    0    0 -0.12193809140E-01  0.69457562971E-01  0.94990443271E-02  0.71158520216E-01  0.51100000000E-03 0. -1.
</event>
<event>
 8    1  0.1061722E+005  0.1043930E+01  0.7957747E-01            NaN
         13   -1    0    0    0    0  0.00000000000E+00  0.00000000000E+00  0.74505805969E-08  0.10566000000E+00  0.10566000000E+00 0.  1.
     999900   -1    0    0    0    0 -0.00000000000E+00 -0.00000000000E+00 -0.74505805969E-08  0.93827000000E+00  0.93827000000E+00 0. -1.
     999902    2    1    2    0    0  0.71016469842E-02  0.21654547047E-01 -0.55812354142E-02  0.10204671999E+01  0.10201974334E+01 0.  0.
     999903    2    3    3    0    0  0.60308039883E-01  0.11860745761E-01  0.11364584612E+00  0.13078077442E+00  0.20260692339E-01 0.  0.
         14    1    1    2    0    0 -0.71016469842E-02 -0.21654547047E-01  0.55812354142E-02  0.23462800055E-01  0.00000000000E+00 0.  1.
     999901    1    3    3    0    0 -0.53206392898E-01  0.97938012861E-02 -0.11922708153E+00  0.88968642552E+00  0.88000000000E+00 0. -1.
        -11    1    4    4    0    0  0.45650255519E-01  0.84027758521E-02  0.10081779012E+00  0.11099117260E+00  0.51100000000E-03 0. -1.
         11    1    4    4    0    0  0.14657784364E-01  0.34579699087E-02  0.12828056001E-01  0.19789601818E-01  0.51100000000E-03 0.  1.
</event>
<event>
 8    1  0.1061722E+005  0.1043930E+01  0.7957747E-01            NaN
         13   -1    0    0    0    0  0.00000000000E+00  0.00000000000E+00  0.74505805969E-08  0.10566000000E+00  0.10566000000E+00 0.  1.
     999900   -1    0    0    0    0 -0.00000000000E+00 -0.00000000000E+00 -0.74505805969E-08  0.93827000000E+00  0.93827000000E+00 0.  1.
     999902    2    1    2    0    0  0.16579139659E-01 -0.10002183205E-01 -0.10811751220E-01  0.10217533117E+01  0.10215126159E+01 0.  0.
     999903    2    3    3    0    0  0.92768065734E-01 -0.62802656858E-02  0.92190440442E-01  0.13246817370E+00  0.20084421283E-01 0.  0.
         14    1    1    2    0    0 -0.16579139659E-01  0.10002183205E-01  0.10811751220E-01  0.22176688327E-01  0.00000000000E+00 0. -1.
     999901    1    3    3    0    0 -0.76188926075E-01 -0.37219175195E-02 -0.10300219166E+00  0.88928513797E+00  0.88000000000E+00 0.  1.
        -11    1    4    4    0    0  0.68156724881E-01  0.30849881867E-02  0.59840732894E-01  0.90752579759E-01  0.51100000000E-03 0.  1.
         11    1    4    4    0    0  0.24611340852E-01 -0.93652538725E-02  0.32349707548E-01  0.41715593944E-01  0.51100000000E-03 0. -1.
</event>
<event>
 8    1  0.1061722E+005  0.1043930E+01  0.7957747E-01            NaN
         13   -1    0    0    0    0  0.00000000000E+00  0.00000000000E+00  0.74505805969E-08  0.10566000000E+00  0.10566000000E+00 0. -1.
     999900   -1    0    0    0    0 -0.00000000000E+00 -0.00000000000E+00 -0.74505805969E-08  0.93827000000E+00  0.93827000000E+00 0. -1.
     999902    2    1    2    0    0  0.14246042442E-01  0.16079814782E-01 -0.10184272450E-01  0.10201554427E+01  0.10198783740E+01 0.  0.
     999903    2    3    3    0    0 -0.10156018858E+00 -0.68797745416E-01 -0.31260809322E-01  0.12827007801E+00  0.20697174563E-01 0.  0.
         14    1    1    2    0    0 -0.14246042442E-01 -0.16079814782E-01  0.10184272450E-01  0.23774557284E-01  0.00000000000E+00 0. -1.
     999901    1    3    3    0    0  0.11580623102E+00  0.84877560199E-01  0.21076536872E-01  0.89188536471E+00  0.88000000000E+00 0.  1.
        -11    1    4    4    0    0 -0.14524337628E-01 -0.43585502453E-02 -0.92197406029E-02  0.17754382038E-01  0.51100000000E-03 0. -1.
         11    1    4    4    0    0 -0.87035850952E-01 -0.64439195171E-01 -0.22041068719E-01  0.11051569597E+00  0.51100000000E-03 0.  1.
</event>
<event>
 8    1  0.1061722E+005  0.1043930E+01  0.7957747E-01            NaN
         13   -1    0    0    0    0  0.00000000000E+00  0.00000000000E+00  0.74505805969E-08  0.10566000000E+00  0.10566000000E+00 0. -1.
     999900   -1    0    0    0    0 -0.00000000000E+00 -0.00000000000E+00 -0.74505805969E-08  0.93827000000E+00  0.93827000000E+00 0.  1.
     999902    2    1    2    0    0  0.12485023711E-01 -0.11239031125E-01 -0.16571299023E-01  0.10203333988E+01  0.10200605105E+01 0.  0.
     999903    2    3    3    0    0  0.22349527527E-01 -0.78245134474E-01 -0.10382067294E+00  0.13342890586E+00  0.20068341729E-01 0.  0.
         14    1    1    2    0    0 -0.12485023711E-01  0.11239031125E-01  0.16571299023E-01  0.23596601218E-01  0.00000000000E+00 0. -1.
     999901    1    3    3    0    0 -0.98645038155E-02  0.67006103348E-01  0.87249373914E-01  0.88690449292E+00  0.88000000000E+00 0. -1.
        -11    1    4    4    0    0  0.14438641925E-01 -0.27020606454E-01 -0.50478844623E-01  0.59050507443E-01  0.51100000000E-03 0. -1.
         11    1    4    4    0    0  0.79108856017E-02 -0.51224528020E-01 -0.53341828314E-01  0.74378398415E-01  0.51100000000E-03 0.  1.
</event>
<event>
 8    1  0.1061722E+005  0.1043930E+01  0.7957747E-01            NaN
         13   -1    0    0    0    0  0.00000000000E+00  0.00000000000E+00  0.74505805969E-08  0.10566000000E+00  0.10566000000E+00 0. -1.
     999900   -1    0    0    0    0 -0.00000000000E+00 -0.00000000000E+00 -0.74505805969E-08  0.93827000000E+00  0.93827000000E+00 0. -1.
     999902    2    1    2    0    0  0.80836426631E-02  0.19163293169E-01  0.12471806345E-01  0.10196787518E+01  0.10193903246E+01 0.  0.
     999903    2    3    3    0    0 -0.12088866513E+00  0.36235728893E-02  0.42068804826E-01  0.12964992006E+00  0.20300684598E-01 0.  0.
         14    1    1    2    0    0 -0.80836426631E-02 -0.19163293169E-01 -0.12471806345E-01  0.24251248160E-01  0.00000000000E+00 0.  1.
     999901    1    3    3    0    0  0.12897230779E+00  0.15539720280E-01 -0.29596998480E-01  0.89002883178E+00  0.88000000000E+00 0. -1.
        -11    1    4    4    0    0 -0.83368190069E-01 -0.48436781875E-02  0.22485323942E-01  0.86484491370E-01  0.51100000000E-03 0. -1.
         11    1    4    4    0    0 -0.37520475058E-01  0.84672510768E-02  0.19583480883E-01  0.43165428689E-01  0.51100000000E-03 0.  1.
</event>
<event>
 8    1  0.1061722E+005  0.1043930E+01  0.7957747E-01            NaN
         13   -1    0    0    0    0  0.00000000000E+00  0.00000000000E+00  0.74505805969E-08  0.10566000000E+00  0.10566000000E+00 0.  1.
     999900   -1    0    0    0    0 -0.00000000000E+00 -0.00000000000E+00 -0.74505805969E-08  0.93827000000E+00  0.93827000000E+00 0.  1.
     999902    2    1    2    0    0 -0.21117142089E-01  0.53285859460E-02  0.92153613011E-02  0.10202815243E+01  0.10200074208E+01 0.  0.
     999903    2    3    3    0    0  0.10246867878E+00  0.73774823737E-01 -0.14972284255E-01  0.12868554811E+00  0.19830437427E-01 0.  0.
         14    1    1    2    0    0  0.21117142089E-01 -0.53285859460E-02 -0.92153613011E-02  0.23648475682E-01  0.00000000000E+00 0. -1.
     999901    1    3    3    0    0 -0.12358582087E+00 -0.68446237791E-01  0.24187645556E-01  0.89159597621E+00  0.88000000000E+00 0.  1.
        -11    1    4    4    0    0  0.81836017450E-01  0.48647535183E-01 -0.13256436384E-01  0.96123413683E-01  0.51100000000E-03 0. -1.
         11    1    4    4    0    0  0.20632661332E-01  0.25127288554E-01 -0.17158478707E-02  0.32562134430E-01  0.51100000000E-03 0.  1.
</event>
<event>
 8    1  0.1061722E+005  0.1043930E+01  0.7957747E-01            NaN
         13   -1    0    0    0    0  0.00000000000E+00  0.00000000000E+00  0.74505805969E-08  0.10566000000E+00  0.10566000000E+00 0. -1.
     999900   -1    0    0    0    0 -0.00000000000E+00 -0.00000000000E+00 -0.74505805969E-08  0.93827000000E+00  0.93827000000E+00 0.  1.
     999902    2    1    2    0    0  0.12074441582E-01 -0.63714598463E-02  0.18658010394E-01  0.10208105495E+01  0.10205487097E+01 0.  0.
     999903    2    3    3    0    0  0.53471345763E-01  0.54996698046E-02  0.12091770143E+00  0.13384286586E+00  0.20084596974E-01 0.  0.
         14    1    1    2    0    0 -0.12074441582E-01  0.63714598463E-02 -0.18658010394E-01  0.23119450512E-01  0.00000000000E+00 0.  1.
     999901    1    3    3    0    0 -0.41396904181E-01 -0.11871129651E-01 -0.10225969104E+00  0.88696768363E+00  0.88000000000E+00 0.  1.
        -11    1    4    4    0    0  0.29634970958E-01  0.10144092192E-01  0.83994844510E-01  0.89646690599E-01  0.51100000000E-03 0.  1.
         11    1    4    4    0    0  0.23836374806E-01 -0.46444223879E-02  0.36922856922E-01  0.44196175259E-01  0.51100000000E-03 0. -1.
</event>
<event>
 8    1  0.1061722E+005  0.1043930E+01  0.7957747E-01            NaN
         13   -1    0    0    0    0  0.00000000000E+00  0.00000000000E+00  0.74505805969E-08  0.10566000000E+00  0.10566000000E+00 0. -1.
     999900   -1    0    0    0    0 -0.00000000000E+00 -0.00000000000E+00 -0.74505805969E-08  0.93827000000E+00  0.93827000000E+00 0. -1.
     999902    2    1    2    0    0  0.14179608324E-01 -0.19288986962E-01 -0.36232786320E-02  0.10197173079E+01  0.10194298081E+01 0.  0.
     999903    2    3    3    0    0 -0.57639199850E-01  0.55795235139E-01 -0.98394928522E-01  0.12855107917E+00  0.20209709904E-01 0.  0.
         14    1    1    2    0    0 -0.14179608324E-01  0.19288986962E-01  0.36232786320E-02  0.24212692091E-01  0.00000000000E+00 0. -1.
     999901    1    3    3    0    0  0.71818808173E-01 -0.75084222101E-01  0.94771649890E-01  0.89116622874E+00  0.88000000000E+00 0.  1.
        -11    1    4    4    0    0 -0.28502400341E-01  0.29958195426E-01 -0.66038348370E-01  0.77917936798E-01  0.51100000000E-03 0.  1.
         11    1    4    4    0    0 -0.29136799509E-01  0.25837039713E-01 -0.32356580151E-01  0.50633142375E-01  0.51100000000E-03 0. -1.
</event>
<event>
 8    1  0.1061722E+005  0.1043930E+01  0.7957747E-01            NaN
         13   -1    0    0    0    0  0.00000000000E+00  0.00000000000E+00  0.74505805969E-08  0.10566000000E+00  0.10566000000E+00 0. -1.
     999900   -1    0    0    0    0 -0.00000000000E+00 -0.00000000000E+00 -0.74505805969E-08  0.93827000000E+00  0.93827000000E+00 0. -1.
     999902    2    1    2    0    0  0.35070586689E-02 -0.12553870997E-01  0.10626865506E-01  0.10271124672E+01  0.10269747762E+01 0.  0.
     999903    2    3    3    0    0 -0.11961728976E+00 -0.63048156887E-01  0.10574786548E-01  0.13710725333E+00  0.20080007714E-01 0.  0.
         14    1    1    2    0    0 -0.35070586689E-02  0.12553870997E-01 -0.10626865506E-01  0.16817532756E-01  0.00000000000E+00 0.  1.
     999901    1    3    3    0    0  0.12312434842E+00  0.50494285890E-01  0.52078957710E-04  0.89000521391E+00  0.88000000000E+00 0.  1.
        -11    1    4    4    0    0 -0.76489406269E-01 -0.44756953267E-01 -0.18355010730E-02  0.88642226520E-01  0.51100000000E-03 0.  1.
         11    1    4    4    0    0 -0.43127883487E-01 -0.18291203620E-01  0.12410287621E-01  0.48465026810E-01  0.51100000000E-03 0. -1.
</event>
<event>
 8    1  0.1061722E+005  0.1043930E+01  0.7957747E-01            NaN
         13   -1    0    0    0    0  0.00000000000E+00  0.00000000000E+00  0.74505805969E-08  0.10566000000E+00  0.10566000000E+00 0. -1.
     999900   -1    0    0    0    0 -0.00000000000E+00 -0.00000000000E+00 -0.74505805969E-08  0.93827000000E+00  0.93827000000E+00 0.  1.
     999902    2    1    2    0    0 -0.35525310855E-02  0.18436785640E-01  0.14063181989E-01  0.10204713421E+01  0.10202016720E+01 0.  0.
     999903    2    3    3    0    0  0.37067522171E-01 -0.11554281819E+00  0.39137072164E-01  0.12905156281E+00  0.19961247763E-01 0.  0.
         14    1    1    2    0    0  0.35525310855E-02 -0.18436785640E-01 -0.14063181989E-01  0.23458657879E-01  0.00000000000E+00 0.  1.
     999901    1    3    3    0    0 -0.40620053256E-01  0.13397960383E+00 -0.25073890175E-01  0.89141977931E+00  0.88000000000E+00 0.  1.
        -11    1    4    4    0    0  0.31574125291E-01 -0.71203155844E-01  0.29848734309E-01  0.83414763986E-01  0.51100000000E-03 0.  1.
         11    1    4    4    0    0  0.54933968802E-02 -0.44339662346E-01  0.92883378553E-02  0.45636798829E-01  0.51100000000E-03 0. -1.
</event>
<event>
 8    1  0.1061722E+005  0.1043930E+01  0.7957747E-01            NaN
         13   -1    0    0    0    0  0.00000000000E+00  0.00000000000E+00  0.74505805969E-08  0.10566000000E+00  0.10566000000E+00 0.  1.
     999900   -1    0    0    0    0 -0.00000000000E+00 -0.00000000000E+00 -0.74505805969E-08  0.93827000000E+00  0.93827000000E+00 0.  1.
     999902    2    1    2    0    0 -0.10741367346E-01  0.18161038314E-01 -0.12534792162E-01  0.10193877650E+01  0.10190922893E+01 0.  0.
     999903    2    3    3    0    0  0.16271327173E-03  0.53503419768E-01 -0.11900764245E+00  0.13219869227E+00  0.21237534522E-01 0.  0.
         14    1    1    2    0    0  0.10741367346E-01 -0.18161038314E-01  0.12534792162E-01  0.24542235017E-01  0.00000000000E+00 0.  1.
     999901    1    3    3    0    0 -0.10904080618E-01 -0.35342381454E-01  0.10647285029E+00  0.88718907272E+00  0.88000000000E+00 0. -1.
        -11    1    4    4    0    0  0.10410514909E-01  0.33472529937E-01 -0.72132291915E-01  0.80200484655E-01  0.51100000000E-03 0. -1.
         11    1    4    4    0    0 -0.10247801637E-01  0.20030889832E-01 -0.46875350535E-01  0.51998207610E-01  0.51100000000E-03 0.  1.
</event>
<event>
 8    1  0.1061722E+005  0.1043930E+01  0.7957747E-01            NaN
         13   -1    0    0    0    0  0.00000000000E+00  0.00000000000E+00  0.74505805969E-08  0.10566000000E+00  0.10566000000E+00 0. -1.
     999900   -1    0    0    0    0 -0.00000000000E+00 -0.00000000000E+00 -0.74505805969E-08  0.93827000000E+00  0.93827000000E+00 0. -1.
     999902    2    1    2    0    0 -0.23471392748E-01 -0.11167961934E-02 -0.55590298278E-02  0.10197834407E+01  0.10194975280E+01 0.  0.
     999903    2    3    3    0    0 -0.96979755351E-02  0.77944087464E-01  0.10235167777E+00  0.12956714615E+00  0.11935154801E-01 0.  0.
         14    1    1    2    0    0  0.23471392748E-01  0.11167961934E-02  0.55590298278E-02  0.24146559256E-01  0.00000000000E+00 0. -1.
     999901    1    3    3    0    0 -0.13773417213E-01 -0.79060883657E-01 -0.10791070759E+00  0.89021629459E+00  0.88000000000E+00 0. -1.
        -11    1    4    4    0    0 -0.12200421630E-01  0.54612370724E-01  0.73237991789E-01  0.92170634620E-01  0.51100000000E-03 0. -1.
         11    1    4    4    0    0  0.25024460945E-02  0.23331716740E-01  0.29113685977E-01  0.37396511530E-01  0.51100000000E-03 0.  1.
</event>
<event>
 8    1  0.1061722E+005  0.1043930E+01  0.7957747E-01            NaN
         13   -1    0    0    0    0  0.00000000000E+00  0.00000000000E+00  0.74505805969E-08  0.10566000000E+00  0.10566000000E+00 0. -1.
     999900   -1    0    0    0    0 -0.00000000000E+00 -0.00000000000E+00 -0.74505805969E-08  0.93827000000E+00  0.93827000000E+00 0. -1.
     999902    2    1    2    0    0 -0.19662418469E-02 -0.19895082052E-01 -0.48677449992E-03  0.10239320664E+01  0.10237367627E+01 0.  0.
     999903    2    3    3    0    0  0.53941491970E-01 -0.12325044620E+00  0.53020598896E-03  0.13612068995E+00  0.20693092276E-01 0.  0.
         14    1    1    2    0    0  0.19662418469E-02  0.19895082052E-01  0.48677449992E-03  0.19997933550E-01  0.00000000000E+00 0.  1.
     999901    1    3    3    0    0 -0.55907733817E-01  0.10335536415E+00 -0.10169804889E-02  0.88781137650E+00  0.88000000000E+00 0.  1.
        -11    1    4    4    0    0  0.25569659433E-01 -0.45266285759E-01  0.87711147137E-02  0.52726062666E-01  0.51100000000E-03 0.  1.
         11    1    4    4    0    0  0.28371832537E-01 -0.77984160444E-01 -0.82409087248E-02  0.83394627280E-01  0.51100000000E-03 0. -1.
</event>
<event>
 8    1  0.1061722E+005  0.1043930E+01  0.7957747E-01            NaN
         13   -1    0    0    0    0  0.00000000000E+00  0.00000000000E+00  0.74505805969E-08  0.10566000000E+00  0.10566000000E+00 0.  1.
     999900   -1    0    0    0    0 -0.00000000000E+00 -0.00000000000E+00 -0.74505805969E-08  0.93827000000E+00  0.93827000000E+00 0.  1.
     999902    2    1    2    0    0 -0.11517350061E-01  0.24229341225E-01 -0.21145805224E-01  0.10097707347E+01  0.10091927869E+01 0.  0.
     999903    2    3    3    0    0  0.10048294112E+00  0.40035524905E-01  0.47660577165E-01  0.11986724614E+00  0.19923889407E-01 0.  0.
         14    1    1    2    0    0  0.11517350061E-01 -0.24229341225E-01  0.21145805224E-01  0.34159265319E-01  0.00000000000E+00 0.  1.
     999901    1    3    3    0    0 -0.11200029118E+00 -0.15806183680E-01 -0.68806382389E-01  0.88990348855E+00  0.88000000000E+00 0. -1.
        -11    1    4    4    0    0  0.11773026346E-01  0.21834476852E-02 -0.63562152684E-03  0.12001530272E-01  0.51100000000E-03 0.  1.
         11    1    4    4    0    0  0.88709914777E-01  0.37852077219E-01  0.48296198692E-01  0.10786571586E+00  0.51100000000E-03 0. -1.
</event>
<event>
 8    1  0.1061722E+005  0.1043930E+01  0.7957747E-01            NaN
         13   -1    0    0    0    0  0.00000000000E+00  0.00000000000E+00  0.74505805969E-08  0.10566000000E+00  0.10566000000E+00 0. -1.
     999900   -1    0    0    0    0 -0.00000000000E+00 -0.00000000000E+00 -0.74505805969E-08  0.93827000000E+00  0.93827000000E+00 0. -1.
     999902    2    1    2    0    0  0.50005983795E-02  0.19398698602E-01  0.11188027732E-01  0.10209846855E+01  0.10207268198E+01 0.  0.
     999903    2    3    3    0    0 -0.36847408802E-01 -0.10227488821E+00  0.68088418906E-01  0.12980940987E+00  0.19913960090E-01 0.  0.
         14    1    1    2    0    0 -0.50005983795E-02 -0.19398698602E-01 -0.11188027732E-01  0.22945314470E-01  0.00000000000E+00 0.  1.
     999901    1    3    3    0    0  0.41848007181E-01  0.12167358682E+00 -0.56900391175E-01  0.89117527566E+00  0.88000000000E+00 0. -1.
        -11    1    4    4    0    0 -0.43295595829E-02 -0.39941473384E-01  0.26290652243E-01  0.48015892147E-01  0.51100000000E-03 0.  1.
         11    1    4    4    0    0 -0.32517849219E-01 -0.62333414831E-01  0.41797766663E-01  0.81793517722E-01  0.51100000000E-03 0. -1.
</event>
<event>
 8    1  0.1061722E+005  0.1043930E+01  0.7957747E-01            NaN
         13   -1    0    0    0    0  0.00000000000E+00  0.00000000000E+00  0.74505805969E-08  0.10566000000E+00  0.10566000000E+00 0.  1.
     999900   -1    0    0    0    0 -0.00000000000E+00 -0.00000000000E+00 -0.74505805969E-08  0.93827000000E+00  0.93827000000E+00 0. -1.
     999902    2    1    2    0    0  0.45802399466E-02  0.22570475264E-01 -0.62944613333E-02  0.10200547996E+01  0.10197753522E+01 0.  0.
     999903    2    3    3    0    0  0.11778707361E+00 -0.48865196393E-01 -0.14991397304E-01  0.12988937728E+00  0.19619026706E-01 0.  0.
         14    1    1    2    0    0 -0.45802399466E-02 -0.22570475264E-01  0.62944613333E-02  0.23875200420E-01  0.00000000000E+00 0. -1.
     999901    1    3    3    0    0 -0.11320683366E+00  0.71435671656E-01  0.86969359704E-02  0.89016542230E+00  0.88000000000E+00 0.  1.
        -11    1    4    4    0    0  0.84375807116E-01 -0.40253918382E-01 -0.36218543261E-02  0.93557649187E-01  0.51100000000E-03 0.  1.
         11    1    4    4    0    0  0.33411266489E-01 -0.86112780106E-02 -0.11369542978E-01  0.36331728089E-01  0.51100000000E-03 0. -1.
</event>
<event>
 8    1  0.1061722E+005  0.1043930E+01  0.7957747E-01            NaN
         13   -1    0    0    0    0  0.00000000000E+00  0.00000000000E+00  0.74505805969E-08  0.10566000000E+00  0.10566000000E+00 0. -1.
     999900   -1    0    0    0    0 -0.00000000000E+00 -0.00000000000E+00 -0.74505805969E-08  0.93827000000E+00  0.93827000000E+00 0. -1.
     999902    2    1    2    0    0 -0.13810149720E-01  0.44209139961E-02  0.18305674161E-01  0.10205770040E+01  0.10203097856E+01 0.  0.
     999903    2    3    3    0    0 -0.12927099130E+00 -0.18465663118E-01 -0.87888899938E-02  0.13232641055E+00  0.19520871777E-01 0.  0.
         14    1    1    2    0    0  0.13810149720E-01 -0.44209139961E-02 -0.18305674161E-01  0.23352996003E-01  0.00000000000E+00 0.  1.
     999901    1    3    3    0    0  0.11546084158E+00  0.22886577114E-01  0.27094564155E-01  0.88825059345E+00  0.88000000000E+00 0.  1.
        -11    1    4    4    0    0 -0.14459434573E-01 -0.61040953155E-02 -0.60176748845E-02  0.16816918856E-01  0.51100000000E-03 0.  1.
         11    1    4    4    0    0 -0.11481155673E+00 -0.12361567802E-01 -0.27712151094E-02  0.11550949169E+00  0.51100000000E-03 0. -1.
</event>
<event>
 8    1  0.1061722E+005  0.1043930E+01  0.7957747E-01            NaN
         13   -1    0    0    0    0  0.00000000000E+00  0.00000000000E+00  0.74505805969E-08  0.10566000000E+00  0.10566000000E+00 0.  1.
     999900   -1    0    0    0    0 -0.00000000000E+00 -0.00000000000E+00 -0.74505805969E-08  0.93827000000E+00  0.93827000000E+00 0. -1.
     999902    2    1    2    0    0 -0.94058237613E-02  0.18843605591E-01 -0.10175963885E-01  0.10205398048E+01  0.10202717245E+01 0.  0.
     999903    2    3    3    0    0  0.59338755622E-01 -0.11165881510E+00 -0.55170626379E-02  0.12825150810E+00  0.20717925592E-01 0.  0.
         14    1    1    2    0    0  0.94058237613E-02 -0.18843605591E-01  0.10175963885E-01  0.23390195239E-01  0.00000000000E+00 0.  1.
     999901    1    3    3    0    0 -0.68744579383E-01  0.13050242069E+00 -0.46589012469E-02  0.89228829666E+00  0.88000000000E+00 0. -1.
        -11    1    4    4    0    0  0.24603001639E-01 -0.57759771608E-01 -0.11575179347E-01  0.63841560161E-01  0.51100000000E-03 0. -1.
         11    1    4    4    0    0  0.34735753983E-01 -0.53899043493E-01  0.60581167096E-02  0.64409947937E-01  0.51100000000E-03 0.  1.
</event>
<event>
 8    1  0.1061722E+005  0.1043930E+01  0.7957747E-01            NaN
         13   -1    0    0    0    0  0.00000000000E+00  0.00000000000E+00  0.74505805969E-08  0.10566000000E+00  0.10566000000E+00 0. -1.
     999900   -1    0    0    0    0 -0.00000000000E+00 -0.00000000000E+00 -0.74505805969E-08  0.93827000000E+00  0.93827000000E+00 0.  1.
     999902    2    1    2    0    0 -0.70374906701E-02  0.47190916259E-02 -0.21855885088E-01  0.10204890996E+01  0.10202198422E+01 0.  0.
     999903    2    3    3    0    0  0.13896193988E-01  0.50748943523E-01  0.11561467683E+00  0.12838197493E+00  0.18617693525E-01 0.  0.
         14    1    1    2    0    0  0.70374906701E-02 -0.47190916259E-02  0.21855885088E-01  0.23440900446E-01  0.00000000000E+00 0. -1.
     999901    1    3    3    0    0 -0.20933684658E-01 -0.46029851897E-01 -0.13747056192E+00  0.89210712463E+00  0.88000000000E+00 0.  1.
        -11    1    4    4    0    0  0.74968399041E-02  0.53459555704E-02  0.28213286820E-01  0.29682192030E-01  0.51100000000E-03 0.  1.
         11    1    4    4    0    0  0.63993540842E-02  0.45402987952E-01  0.87401390006E-01  0.98699782896E-01  0.51100000000E-03 0. -1.
</event>
<event>
 8    1  0.1061722E+005  0.1043930E+01  0.7957747E-01            NaN
         13   -1    0    0    0    0  0.00000000000E+00  0.00000000000E+00  0.74505805969E-08  0.10566000000E+00  0.10566000000E+00 0.  1.
     999900   -1    0    0    0    0 -0.00000000000E+00 -0.00000000000E+00 -0.74505805969E-08  0.93827000000E+00  0.93827000000E+00 0.  1.
     999902    2    1    2    0    0 -0.50282603250E-02  0.16337173998E-01 -0.16236190251E-01  0.10203545778E+01  0.10200821849E+01 0.  0.
     999903    2    3    3    0    0 -0.10573449687E+00  0.63832037021E-01  0.40307876833E-01  0.13153809531E+00  0.20572622691E-01 0.  0.
         14    1    1    2    0    0  0.50282603250E-02 -0.16337173998E-01  0.16236190251E-01  0.23575422160E-01  0.00000000000E+00 0.  1.
     999901    1    3    3    0    0  0.10070623655E+00 -0.47494863023E-01 -0.56544067083E-01  0.88881648253E+00  0.88000000000E+00 0.  1.
        -11    1    4    4    0    0 -0.53346002776E-01  0.43161683412E-01  0.26399533678E-01  0.73524985050E-01  0.51100000000E-03 0. -1.
         11    1    4    4    0    0 -0.52388494095E-01  0.20670353609E-01  0.13908343155E-01  0.58013110262E-01  0.51100000000E-03 0.  1.
</event>
<event>
 8    1  0.1061722E+005  0.1043930E+01  0.7957747E-01            NaN
         13   -1    0    0    0    0  0.00000000000E+00  0.00000000000E+00  0.74505805969E-08  0.10566000000E+00  0.10566000000E+00 0. -1.
     999900   -1    0    0    0    0 -0.00000000000E+00 -0.00000000000E+00 -0.74505805969E-08  0.93827000000E+00  0.93827000000E+00 0. -1.
     999902    2    1    2    0    0 -0.22317252009E-02  0.19277557643E-01 -0.10392521719E-01  0.10219161559E+01  0.10216790202E+01 0.  0.
     999903    2    3    3    0    0 -0.31200267864E-01 -0.14492114289E-01 -0.12709951019E+00  0.13309666442E+00  0.19415419118E-01 0.  0.
         14    1    1    2    0    0  0.22317252009E-02 -0.19277557643E-01  0.10392521719E-01  0.22013844138E-01  0.00000000000E+00 0. -1.
     999901    1    3    3    0    0  0.28968542664E-01  0.33769671932E-01  0.11670698847E+00  0.88881949144E+00  0.88000000000E+00 0.  1.
        -11    1    4    4    0    0 -0.19168455875E-01  0.16990554605E-03 -0.46598588329E-01  0.50389960545E-01  0.51100000000E-03 0.  1.
         11    1    4    4    0    0 -0.12031811990E-01 -0.14662019835E-01 -0.80500921856E-01  0.82706703877E-01  0.51100000000E-03 0. -1.
</event>
<event>
 8    1  0.1061722E+005  0.1043930E+01  0.7957747E-01            NaN
         13   -1    0    0    0    0  0.00000000000E+00  0.00000000000E+00  0.74505805969E-08  0.10566000000E+00  0.10566000000E+00 0.  1.
     999900   -1    0    0    0    0 -0.00000000000E+00 -0.00000000000E+00 -0.74505805969E-08  0.93827000000E+00  0.93827000000E+00 0. -1.
     999902    2    1    2    0    0  0.16526271802E-01 -0.17692189472E-01  0.54222474096E-03  0.10197137816E+01  0.10194261970E+01 0.  0.
     999903    2    3    3    0    0  0.12395175906E+00  0.53075616401E-02 -0.40262748023E-01  0.13194451555E+00  0.19901193955E-01 0.  0.
         14    1    1    2    0    0 -0.16526271802E-01  0.17692189472E-01 -0.54222474096E-03  0.24216218442E-01  0.00000000000E+00 0. -1.
     999901    1    3    3    0    0 -0.10742548726E+00 -0.22999751112E-01  0.40804972764E-01  0.88776926601E+00  0.88000000000E+00 0. -1.
        -11    1    4    4    0    0  0.95174292473E-01  0.77149596129E-02 -0.38661469323E-01  0.10301765325E+00  0.51100000000E-03 0.  1.
         11    1    4    4    0    0  0.28777466587E-01 -0.24073979728E-02 -0.16012786998E-02  0.28926862302E-01  0.51100000000E-03 0. -1.
</event>
<event>
 8    1  0.1061722E+005  0.1043930E+01  0.7957747E-01            NaN
         13   -1    0    0    0    0  0.00000000000E+00  0.00000000000E+00  0.74505805969E-08  0.10566000000E+00  0.10566000000E+00 0.  1.
     999900   -1    0    0    0    0 -0.00000000000E+00 -0.00000000000E+00 -0.74505805969E-08  0.93827000000E+00  0.93827000000E+00 0. -1.
     999902    2    1    2    0    0 -0.18266302117E-01 -0.16219015559E-01 -0.84182841243E-02  0.10180923963E+01  0.10177644843E+01 0.  0.
     999903    2    3    3    0    0 -0.15984395095E-01  0.56229776277E-01  0.11102866098E+00  0.12706960912E+00  0.20050769956E-01 0.  0.
         14    1    1    2    0    0  0.18266302117E-01  0.16219015559E-01  0.84182841243E-02  0.25837603727E-01  0.00000000000E+00 0. -1.
     999901    1    3    3    0    0 -0.22819070216E-02 -0.72448791836E-01 -0.11944694510E+00  0.89102278716E+00  0.88000000000E+00 0. -1.
        -11    1    4    4    0    0 -0.13441560698E-01  0.29226487516E-01  0.77690989331E-01  0.84089321978E-01  0.51100000000E-03 0.  1.
         11    1    4    4    0    0 -0.25428343975E-02  0.27003288761E-01  0.33337671647E-01  0.42980287139E-01  0.51100000000E-03 0. -1.
</event>
<event>
 8    1  0.1061722E+005  0.1043930E+01  0.7957747E-01            NaN
         13   -1    0    0    0    0  0.00000000000E+00  0.00000000000E+00  0.74505805969E-08  0.10566000000E+00  0.10566000000E+00 0.  1.
     999900   -1    0    0    0    0 -0.00000000000E+00 -0.00000000000E+00 -0.74505805969E-08  0.93827000000E+00  0.93827000000E+00 0.  1.
     999902    2    1    2    0    0 -0.18285922471E-01 -0.19665358460E-01  0.28108698822E-02  0.10169299579E+01  0.10165714618E+01 0.  0.
     999903    2    3    3    0    0  0.36008945372E-02  0.10219293396E+00 -0.69172593628E-01  0.12535265042E+00  0.21727334534E-01 0.  0.
         14    1    1    2    0    0  0.18285922471E-01  0.19665358460E-01 -0.28108698822E-02  0.27000042101E-01  0.00000000000E+00 0.  1.
     999901    1    3    3    0    0 -0.21886817008E-01 -0.12185829242E+00  0.71983463510E-01  0.89157730748E+00  0.88000000000E+00 0.  1.
        -11    1    4    4    0    0  0.96264965976E-02  0.32243314796E-01 -0.15907249910E-01  0.37223682065E-01  0.51100000000E-03 0. -1.
         11    1    4    4    0    0 -0.60256020604E-02  0.69949619163E-01 -0.53265343718E-01  0.88128968357E-01  0.51100000000E-03 0.  1.
</event>
<event>
 8    1  0.1061722E+005  0.1043930E+01  0.7957747E-01            NaN
         13   -1    0    0    0    0  0.00000000000E+00  0.00000000000E+00  0.74505805969E-08  0.10566000000E+00  0.10566000000E+00 0.  1.
     999900   -1    0    0    0    0 -0.00000000000E+00 -0.00000000000E+00 -0.74505805969E-08  0.93827000000E+00  0.93827000000E+00 0.  1.
     999902    2    1    2    0    0  0.95411131859E-02 -0.17680954638E-01  0.18036338643E-01  0.10169307684E+01  0.10165722941E+01 0.  0.
     999903    2    3    3    0    0 -0.48699759803E-01 -0.20729202655E-01 -0.11206198410E+00  0.12545622319E+00  0.19493824904E-01 0.  0.
         14    1    1    2    0    0 -0.95411131859E-02  0.17680954638E-01 -0.18036338643E-01  0.26999231644E-01  0.00000000000E+00 0. -1.
     999901    1    3    3    0    0  0.58240872989E-01  0.30482480168E-02  0.13009832274E+00  0.89147454517E+00  0.88000000000E+00 0. -1.
        -11    1    4    4    0    0 -0.27385456338E-01 -0.17043545798E-02 -0.47590873862E-01  0.54936512806E-01  0.51100000000E-03 0. -1.
         11    1    4    4    0    0 -0.21314303466E-01 -0.19024848075E-01 -0.64471110234E-01  0.70519710381E-01  0.51100000000E-03 0.  1.
</event>
<event>
 8    1  0.1061722E+005  0.1043930E+01  0.7957747E-01            NaN
         13   -1    0    0    0    0  0.00000000000E+00  0.00000000000E+00  0.74505805969E-08  0.10566000000E+00  0.10566000000E+00 0. -1.
     999900   -1    0    0    0    0 -0.00000000000E+00 -0.00000000000E+00 -0.74505805969E-08  0.93827000000E+00  0.93827000000E+00 0. -1.
     999902    2    1    2    0    0 -0.90183522673E-02 -0.15023637442E-02  0.20973179009E-01  0.10210507078E+01  0.10207943406E+01 0.  0.
     999903    2    3    3    0    0  0.79032864715E-01  0.10014913252E+00 -0.15803462247E-01  0.13007452132E+00  0.19839083371E-01 0.  0.
         14    1    1    2    0    0  0.90183522673E-02  0.15023637442E-02 -0.20973179009E-01  0.22879292214E-01  0.00000000000E+00 0. -1.
     999901    1    3    3    0    0 -0.88051216982E-01 -0.10165149626E+00  0.36776641256E-01  0.89097618646E+00  0.88000000000E+00 0. -1.
        -11    1    4    4    0    0  0.75585151554E-01  0.97955795166E-01 -0.18568949586E-01  0.12511402780E+00  0.51100000000E-03 0. -1.
         11    1    4    4    0    0  0.34477131610E-02  0.21933373526E-02  0.27654873397E-02  0.49604935247E-02  0.51100000000E-03 0.  1.
</event>
<event>
 8    1  0.1061722E+005  0.1043930E+01  0.7957747E-01            NaN
         13   -1    0    0    0    0  0.00000000000E+00  0.00000000000E+00  0.74505805969E-08  0.10566000000E+00  0.10566000000E+00 0. -1.
     999900   -1    0    0    0    0 -0.00000000000E+00 -0.00000000000E+00 -0.74505805969E-08  0.93827000000E+00  0.93827000000E+00 0. -1.
     999902    2    1    2    0    0  0.11278862613E-01  0.13310602185E-01  0.96800321435E-02  0.10239778599E+01  0.10237834584E+01 0.  0.
     999903    2    3    3    0    0  0.51488263957E-01  0.11560995863E+00  0.46479505326E-01  0.13637651047E+00  0.20530570674E-01 0.  0.
         14    1    1    2    0    0 -0.11278862613E-01 -0.13310602185E-01 -0.96800321435E-02  0.19952140103E-01  0.00000000000E+00 0.  1.
     999901    1    3    3    0    0 -0.40209401343E-01 -0.10229935644E+00 -0.36799473183E-01  0.88760134943E+00  0.88000000000E+00 0. -1.
        -11    1    4    4    0    0  0.14684761133E-01  0.39244630031E-01  0.25472523191E-01  0.49039716094E-01  0.51100000000E-03 0. -1.
         11    1    4    4    0    0  0.36803502823E-01  0.76365328598E-01  0.21006982135E-01  0.87336794373E-01  0.51100000000E-03 0.  1.
</event>
<event>
 8    1  0.1061722E+005  0.1043930E+01  0.7957747E-01            NaN
         13   -1    0    0    0    0  0.00000000000E+00  0.00000000000E+00  0.74505805969E-08  0.10566000000E+00  0.10566000000E+00 0.  1.
     999900   -1    0    0    0    0 -0.00000000000E+00 -0.00000000000E+00 -0.74505805969E-08  0.93827000000E+00  0.93827000000E+00 0.  1.
     999902    2    1    2    0    0  0.11252810588E-01 -0.17634854006E-01 -0.11061131480E-01  0.10202664742E+01  0.10199920176E+01 0.  0.
     999903    2    3    3    0    0  0.12959841346E+00 -0.15478157319E-02  0.13151642889E-01  0.13186862813E+00  0.20450546969E-01 0.  0.
         14    1    1    2    0    0 -0.11252810588E-01  0.17634854006E-01  0.11061131480E-01  0.23663525763E-01  0.00000000000E+00 0.  1.
     999901    1    3    3    0    0 -0.11834560287E+00 -0.16087038274E-01 -0.24212774369E-01  0.88839784610E+00  0.88000000000E+00 0.  1.
        -11    1    4    4    0    0  0.71935637496E-01  0.67404835221E-02  0.14040908826E-01  0.73604200299E-01  0.51100000000E-03 0. -1.
         11    1    4    4    0    0  0.57662775960E-01 -0.82882992540E-02 -0.88926593718E-03  0.58264427834E-01  0.51100000000E-03 0.  1.
</event>
<event>
 8    1  0.1061722E+005  0.1043930E+01  0.7957747E-01            NaN
         13   -1    0    0    0    0  0.00000000000E+00  0.00000000000E+00  0.74505805969E-08  0.10566000000E+00  0.10566000000E+00 0. -1.
     999900   -1    0    0    0    0 -0.00000000000E+00 -0.00000000000E+00 -0.74505805969E-08  0.93827000000E+00  0.93827000000E+00 0.  1.
     999902    2    1    2    0    0  0.14243850044E-01  0.98553176753E-02 -0.15590745561E-01  0.10206257966E+01  0.10203597065E+01 0.  0.
     999903    2    3    3    0    0 -0.34813987341E-01  0.21861851079E-01  0.12056879017E+00  0.12872319683E+00  0.18516856941E-01 0.  0.
         14    1    1    2    0    0 -0.14243850044E-01 -0.98553176753E-02  0.15590745561E-01  0.23304203434E-01  0.00000000000E+00 0. -1.
     999901    1    3    3    0    0  0.49057837385E-01 -0.12006533404E-01 -0.13615953573E+00  0.89190259974E+00  0.88000000000E+00 0.  1.
        -11    1    4    4    0    0 -0.51468491946E-02  0.98972800857E-02  0.50137757791E-01  0.51366351700E-01  0.51100000000E-03 0.  1.
         11    1    4    4    0    0 -0.29667138146E-01  0.11964570993E-01  0.70431032379E-01  0.77356845125E-01  0.51100000000E-03 0. -1.
</event>
<event>
 8    1  0.1061722E+005  0.1043930E+01  0.7957747E-01            NaN
         13   -1    0    0    0    0  0.00000000000E+00  0.00000000000E+00  0.74505805969E-08  0.10566000000E+00  0.10566000000E+00 0. -1.
     999900   -1    0    0    0    0 -0.00000000000E+00 -0.00000000000E+00 -0.74505805969E-08  0.93827000000E+00  0.93827000000E+00 0.  1.
     999902    2    1    2    0    0  0.13056838656E-01  0.86948258073E-02 -0.17001850489E-01  0.10207968214E+01  0.10205346671E+01 0.  0.
     999903    2    3    3    0    0 -0.11850809345E+00  0.49439660731E-01 -0.52973448886E-04  0.12992267914E+00  0.19785132855E-01 0.  0.
         14    1    1    2    0    0 -0.13056838656E-01 -0.86948258073E-02  0.17001850489E-01  0.23133178587E-01  0.00000000000E+00 0. -1.
     999901    1    3    3    0    0  0.13156493211E+00 -0.40744834923E-01 -0.16948877040E-01  0.89087414227E+00  0.88000000000E+00 0.  1.
        -11    1    4    4    0    0 -0.88780062562E-01  0.30460930239E-01 -0.64128298685E-02  0.94080568065E-01  0.51100000000E-03 0. -1.
         11    1    4    4    0    0 -0.29728030891E-01  0.18978730491E-01  0.63598564196E-02  0.35842111076E-01  0.51100000000E-03 0.  1.
</event>
<event>
 8    1  0.1061722E+005  0.1043930E+01  0.7957747E-01            NaN
         13   -1    0    0    0    0  0.00000000000E+00  0.00000000000E+00  0.74505805969E-08  0.10566000000E+00  0.10566000000E+00 0.  1.
     999900   -1    0    0    0    0 -0.00000000000E+00 -0.00000000000E+00 -0.74505805969E-08  0.93827000000E+00  0.93827000000E+00 0. -1.
     999902    2    1    2    0    0 -0.21203341135E-01  0.35172426207E-02  0.88626813604E-02  0.10206813486E+01  0.10204165402E+01 0.  0.
     999903    2    3    3    0    0 -0.89853842930E-01  0.28218266515E-01 -0.90258358101E-01  0.13211620612E+00  0.20931723699E-01 0.  0.
         14    1    1    2    0    0  0.21203341135E-01 -0.35172426207E-02 -0.88626813604E-02  0.23248651398E-01  0.00000000000E+00 0. -1.
     999901    1    3    3    0    0  0.68650501795E-01 -0.24701023894E-01  0.99121039461E-01  0.88856514249E+00  0.88000000000E+00 0.  1.
        -11    1    4    4    0    0 -0.15396659192E-01  0.88099289472E-02 -0.27937979653E-01  0.33097791323E-01  0.51100000000E-03 0.  1.
         11    1    4    4    0    0 -0.74457183738E-01  0.19408337568E-01 -0.62320378447E-01  0.99018414793E-01  0.51100000000E-03 0. -1.
</event>
<event>
 8    1  0.1061722E+005  0.1043930E+01  0.7957747E-01            NaN
         13   -1    0    0    0    0  0.00000000000E+00  0.00000000000E+00  0.74505805969E-08  0.10566000000E+00  0.10566000000E+00 0. -1.
     999900   -1    0    0    0    0 -0.00000000000E+00 -0.00000000000E+00 -0.74505805969E-08  0.93827000000E+00  0.93827000000E+00 0.  1.
     999902    2    1    2    0    0  0.56076834867E-02  0.12715887376E-01 -0.18626784201E-01  0.10206900130E+01  0.10204254043E+01 0.  0.
     999903    2    3    3    0    0 -0.11013102242E+00 -0.39029616369E-01  0.50680915743E-01  0.12890719052E+00  0.19908678908E-01 0.  0.
         14    1    1    2    0    0 -0.56076834867E-02 -0.12715887376E-01  0.18626784201E-01  0.23239986995E-01  0.00000000000E+00 0. -1.
     999901    1    3    3    0    0  0.11573870590E+00  0.51745503744E-01 -0.69307699945E-01  0.89178282248E+00  0.88000000000E+00 0.  1.
        -11    1    4    4    0    0 -0.21122764058E-01 -0.20149919581E-02  0.15528032966E-01  0.26298522446E-01  0.51100000000E-03 0. -1.
         11    1    4    4    0    0 -0.89008258358E-01 -0.37014624410E-01  0.35152882777E-01  0.10260866808E+00  0.51100000000E-03 0.  1.
</event>
<event>
 8    1  0.1061722E+005  0.1043930E+01  0.7957747E-01            NaN
         13   -1    0    0    0    0  0.00000000000E+00  0.00000000000E+00  0.74505805969E-08  0.10566000000E+00  0.10566000000E+00 0.  1.
     999900   -1    0    0    0    0 -0.00000000000E+00 -0.00000000000E+00 -0.74505805969E-08  0.93827000000E+00  0.93827000000E+00 0. -1.
     999902    2    1    2    0    0 -0.73387670099E-03 -0.32875324499E-01  0.52605393405E-02  0.10106283663E+01  0.10100795493E+01 0.  0.
     999903    2    3    3    0    0  0.12513456110E-01 -0.60538538722E-01  0.10598883245E+00  0.12435135861E+00  0.20202141685E-01 0.  0.
         14    1    1    2    0    0  0.73387670099E-03  0.32875324499E-01 -0.52605393405E-02  0.33301633745E-01  0.00000000000E+00 0. -1.
     999901    1    3    3    0    0 -0.13247332811E-01  0.27663214223E-01 -0.10072829311E+00  0.88627700765E+00  0.88000000000E+00 0. -1.
        -11    1    4    4    0    0  0.15512246756E-01 -0.37180142440E-01  0.54938089249E-01  0.68128170111E-01  0.51100000000E-03 0.  1.
         11    1    4    4    0    0 -0.29987906461E-02 -0.23358396282E-01  0.51050743205E-01  0.56223188499E-01  0.51100000000E-03 0. -1.
</event>
<event>
 8    1  0.1061722E+005  0.1043930E+01  0.7957747E-01            NaN
         13   -1    0    0    0    0  0.00000000000E+00  0.00000000000E+00  0.74505805969E-08  0.10566000000E+00  0.10566000000E+00 0. -1.
     999900   -1    0    0    0    0 -0.00000000000E+00 -0.00000000000E+00 -0.74505805969E-08  0.93827000000E+00  0.93827000000E+00 0. -1.
     999902    2    1    2    0    0  0.13200164621E-01  0.84540520794E-02  0.17524750874E-01  0.10204176153E+01  0.10201466940E+01 0.  0.
     999903    2    3    3    0    0 -0.83650106805E-01 -0.14012458521E-01  0.97978854625E-01  0.13117210250E+00  0.20311946177E-01 0.  0.
         14    1    1    2    0    0 -0.13200164621E-01 -0.84540520794E-02 -0.17524750874E-01  0.23512384732E-01  0.00000000000E+00 0.  1.
     999901    1    3    3    0    0  0.96850271426E-01  0.22466510601E-01 -0.80454103750E-01  0.88924551277E+00  0.88000000000E+00 0. -1.
        -11    1    4    4    0    0 -0.52743881542E-01 -0.13418773759E-01  0.74925197420E-01  0.92606840238E-01  0.51100000000E-03 0.  1.
         11    1    4    4    0    0 -0.30906225263E-01 -0.59368476261E-03  0.23053657204E-01  0.38565262259E-01  0.51100000000E-03 0. -1.
</event>
<event>
 8    1  0.1061722E+005  0.1043930E+01  0.7957747E-01            NaN
         13   -1    0    0    0    0  0.00000000000E+00  0.00000000000E+00  0.74505805969E-08  0.10566000000E+00  0.10566000000E+00 0. -1.
     999900   -1    0    0    0    0 -0.00000000000E+00 -0.00000000000E+00 -0.74505805969E-08  0.93827000000E+00  0.93827000000E+00 0. -1.
     999902    2    1    2    0    0 -0.30311268045E-02 -0.72345125712E-02  0.21862946469E-01  0.10207025522E+01  0.10204382322E+01 0.  0.
     999903    2    3    3    0    0  0.55124156901E-01 -0.99757370854E-01  0.65436679430E-01  0.13287307168E+00  0.19572645404E-01 0.  0.
         14    1    1    2    0    0  0.30311268045E-02  0.72345125712E-02 -0.21862946469E-01  0.23227447775E-01  0.00000000000E+00 0.  1.
     999901    1    3    3    0    0 -0.58155283705E-01  0.92522858283E-01 -0.43573732961E-01  0.88782948055E+00  0.88000000000E+00 0. -1.
        -11    1    4    4    0    0  0.15861299036E-01 -0.45734278454E-01  0.33306822476E-01  0.58760620974E-01  0.51100000000E-03 0. -1.
         11    1    4    4    0    0  0.39262857865E-01 -0.54023092400E-01  0.32129856953E-01  0.74112450702E-01  0.51100000000E-03 0.  1.
</event>
<event>
 8    1  0.1061722E+005  0.1043930E+01  0.7957747E-01            NaN
         13   -1    0    0    0    0  0.00000000000E+00  0.00000000000E+00  0.74505805969E-08  0.10566000000E+00  0.10566000000E+00 0. -1.
     999900   -1    0    0    0    0 -0.00000000000E+00 -0.00000000000E+00 -0.74505805969E-08  0.93827000000E+00  0.93827000000E+00 0. -1.
     999902    2    1    2    0    0  0.76360169746E-02  0.87431644302E-02  0.22330887830E-01  0.10187621588E+01  0.10184512340E+01 0.  0.
     999903    2    3    3    0    0 -0.10913385268E+00  0.46482734239E-01  0.49319909951E-01  0.12983702983E+00  0.18824410117E-01 0.  0.
         14    1    1    2    0    0 -0.76360169746E-02 -0.87431644302E-02 -0.22330887830E-01  0.25167841202E-01  0.00000000000E+00 0.  1.
     999901    1    3    3    0    0  0.11676986965E+00 -0.37739569809E-01 -0.26989022121E-01  0.88892512896E+00  0.88000000000E+00 0.  1.
        -11    1    4    4    0    0 -0.68647665007E-01  0.19262845116E-01  0.30308479087E-01  0.77475313090E-01  0.51100000000E-03 0.  1.
         11    1    4    4    0    0 -0.40486187670E-01  0.27219889123E-01  0.19011430864E-01  0.52361716745E-01  0.51100000000E-03 0. -1.
</event>
<event>
 8    1  0.1061722E+005  0.1043930E+01  0.7957747E-01            NaN
         13   -1    0    0    0    0  0.00000000000E+00  0.00000000000E+00  0.74505805969E-08  0.10566000000E+00  0.10566000000E+00 0. -1.
     999900   -1    0    0    0    0 -0.00000000000E+00 -0.00000000000E+00 -0.74505805969E-08  0.93827000000E+00  0.93827000000E+00 0. -1.
     999902    2    1    2    0    0  0.18196496961E-01 -0.83686035118E-02  0.12465533976E-01  0.10203389940E+01  0.10200662366E+01 0.  0.
     999903    2    3    3    0    0 -0.72406410718E-01  0.43690566852E-01  0.96824848457E-01  0.13015050945E+00  0.20311324100E-01 0.  0.
         14    1    1    2    0    0 -0.18196496961E-01  0.83686035118E-02 -0.12465533976E-01  0.23591005992E-01  0.00000000000E+00 0.  1.
     999901    1    3    3    0    0  0.90602907680E-01 -0.52059170364E-01 -0.84359314481E-01  0.89018848456E+00  0.88000000000E+00 0.  1.
        -11    1    4    4    0    0 -0.25369618919E-01  0.84073925482E-02  0.41814029686E-01  0.49628379111E-01  0.51100000000E-03 0. -1.
         11    1    4    4    0    0 -0.47036791800E-01  0.35283174304E-01  0.55010818771E-01  0.80522130340E-01  0.51100000000E-03 0.  1.
</event>
<event>
 8    1  0.1061722E+005  0.1043930E+01  0.7957747E-01            NaN
         13   -1    0    0    0    0  0.00000000000E+00  0.00000000000E+00  0.74505805969E-08  0.10566000000E+00  0.10566000000E+00 0.  1.
     999900   -1    0    0    0    0 -0.00000000000E+00 -0.00000000000E+00 -0.74505805969E-08  0.93827000000E+00  0.93827000000E+00 0.  1.
     999902    2    1    2    0    0  0.85407023009E-02 -0.69090224585E-02  0.21080348231E-01  0.10201590247E+01  0.10198820404E+01 0.  0.
     999903    2    3    3    0    0  0.10591964533E+00 -0.52600265595E-01 -0.52444620682E-01  0.13056570786E+00  0.17641049360E-01 0.  0.
         14    1    1    2    0    0 -0.85407023009E-02  0.69090224585E-02 -0.21080348231E-01  0.23770975341E-01  0.00000000000E+00 0. -1.
     999901    1    3    3    0    0 -0.97378943029E-01  0.45691243136E-01  0.73524968912E-01  0.88959331680E+00  0.88000000000E+00 0. -1.
        -11    1    4    4    0    0  0.56633900265E-01 -0.33404219326E-01 -0.37065262165E-01  0.75480694938E-01  0.51100000000E-03 0. -1.
         11    1    4    4    0    0  0.49285745065E-01 -0.19196046268E-01 -0.15379358517E-01  0.55085012919E-01  0.51100000000E-03 0.  1.
</event>
<event>
 7    1  0.1061722E+005  0.1043930E+01  0.7957747E-01            NaN
         13   -1    0    0    0    0  0.00000000000E+00  0.00000000000E+00  0.74505805969E-08  0.10566000000E+00  0.10566000000E+00 0. -1.
     999900   -1    0    0    0    0 -0.00000000000E+00 -0.00000000000E+00 -0.74505805969E-08  0.93827000000E+00  0.93827000000E+00 0.  1.
     999903    2    1    2    0    0 -0.30136636842E-01 -0.60519771761E-01  0.52971078194E-01  0.87892164735E-01  0.18661131866E-01 0.  0.
         14    1    1    2    0    0 -0.28532218878E-01 -0.53044715802E-02  0.57843927583E-01  0.64715878199E-01  0.00000000000E+00 0.  1.
     999901    1    1    2    0    0  0.58668855720E-01  0.65824243342E-01 -0.11081500578E+00  0.89132195707E+00  0.88000000000E+00 0. -1.
        -11    1    3    3    0    0 -0.17553062451E-01 -0.51202620659E-01  0.37324870039E-01  0.65751238834E-01  0.51100000000E-03 0. -1.
         11    1    3    3    0    0 -0.12583574391E-01 -0.93171511026E-02  0.15646208156E-01  0.22140925902E-01  0.51100000000E-03 0.  1.
</event>
<event>
 8    1  0.1061722E+005  0.1043930E+01  0.7957747E-01            NaN
         13   -1    0    0    0    0  0.00000000000E+00  0.00000000000E+00  0.74505805969E-08  0.10566000000E+00  0.10566000000E+00 0.  1.
     999900   -1    0    0    0    0 -0.00000000000E+00 -0.00000000000E+00 -0.74505805969E-08  0.93827000000E+00  0.93827000000E+00 0. -1.
     999902    2    1    2    0    0  0.21814764306E-01 -0.15629653116E-01 -0.65213227650E-02  0.10163130188E+01  0.10159377218E+01 0.  0.
     999903    2    3    3    0    0 -0.83582671130E-01  0.20269997969E-01  0.87484318845E-01  0.12432957448E+00  0.20184184785E-01 0.  0.
         14    1    1    2    0    0 -0.21814764306E-01  0.15629653116E-01  0.65213227650E-02  0.27616981169E-01  0.00000000000E+00 0.  1.
     999901    1    3    3    0    0  0.10539743544E+00 -0.35899651085E-01 -0.94005641610E-01  0.89198344435E+00  0.88000000000E+00 0.  1.
        -11    1    4    4    0    0 -0.45508094546E-01  0.43223021413E-02  0.35116331737E-01  0.57646221391E-01  0.51100000000E-03 0.  1.
         11    1    4    4    0    0 -0.38074576584E-01  0.15947695828E-01  0.52367987108E-01  0.66683353088E-01  0.51100000000E-03 0. -1.
</event>
<event>
 8    1  0.1061722E+005  0.1043930E+01  0.7957747E-01            NaN
         13   -1    0    0    0    0  0.00000000000E+00  0.00000000000E+00  0.74505805969E-08  0.10566000000E+00  0.10566000000E+00 0. -1.
     999900   -1    0    0    0    0 -0.00000000000E+00 -0.00000000000E+00 -0.74505805969E-08  0.93827000000E+00  0.93827000000E+00 0. -1.
     999902    2    1    2    0    0  0.10527664365E-01  0.91045694969E-02  0.19425886678E-01  0.10200325111E+01  0.10197525355E+01 0.  0.
     999903    2    3    3    0    0 -0.11467602290E+00 -0.12020993146E-01  0.56623342693E-01  0.13014156079E+00  0.20869317274E-01 0.  0.
         14    1    1    2    0    0 -0.10527664365E-01 -0.91045694969E-02 -0.19425886678E-01  0.23897488904E-01  0.00000000000E+00 0.  1.
     999901    1    3    3    0    0  0.12520368726E+00  0.21125562643E-01 -0.37197456016E-01  0.88989095031E+00  0.88000000000E+00 0. -1.
        -11    1    4    4    0    0 -0.70033105863E-01 -0.10164481071E-01  0.45365001254E-01  0.84060674825E-01  0.51100000000E-03 0.  1.
         11    1    4    4    0    0 -0.44642917034E-01 -0.18565120758E-02  0.11258341439E-01  0.46080885965E-01  0.51100000000E-03 0. -1.
</event>
<event>
 8    1  0.1061722E+005  0.1043930E+01  0.7957747E-01            NaN
         13   -1    0    0    0    0  0.00000000000E+00  0.00000000000E+00  0.74505805969E-08  0.10566000000E+00  0.10566000000E+00 0.  1.
     999900   -1    0    0    0    0 -0.00000000000E+00 -0.00000000000E+00 -0.74505805969E-08  0.93827000000E+00  0.93827000000E+00 0.  1.
     999902    2    1    2    0    0 -0.11118355476E-01  0.67906497320E-02 -0.19767194004E-01  0.10202556951E+01  0.10199809855E+01 0.  0.
     999903    2    3    3    0    0  0.12313796217E-01 -0.53818664555E-01 -0.11819626416E+00  0.13238699056E+00  0.22536197010E-01 0.  0.
         14    1    1    2    0    0  0.11118355476E-01 -0.67906497320E-02  0.19767194004E-01  0.23674304869E-01  0.00000000000E+00 0. -1.
     999901    1    3    3    0    0 -0.23432151692E-01  0.60609314287E-01  0.98429070155E-01  0.88786870457E+00  0.88000000000E+00 0. -1.
        -11    1    4    4    0    0  0.12071886725E-01 -0.36860111982E-01 -0.10116106774E+00  0.10834307109E+00  0.51100000000E-03 0. -1.
         11    1    4    4    0    0  0.24190949147E-03 -0.16958552573E-01 -0.17035196416E-01  0.24043919471E-01  0.51100000000E-03 0.  1.
</event>
<event>
 8    1  0.1061722E+005  0.1043930E+01  0.7957747E-01            NaN
         13   -1    0    0    0    0  0.00000000000E+00  0.00000000000E+00  0.74505805969E-08  0.10566000000E+00  0.10566000000E+00 0. -1.
     999900   -1    0    0    0    0 -0.00000000000E+00 -0.00000000000E+00 -0.74505805969E-08  0.93827000000E+00  0.93827000000E+00 0. -1.
     999902    2    1    2    0    0  0.41839591509E-02  0.76686776690E-02 -0.22810796214E-01  0.10195036504E+01  0.10192109922E+01 0.  0.
     999903    2    3    3    0    0 -0.74566770658E-01 -0.10303231813E+00  0.14018960025E-02  0.12874967629E+00  0.19966270682E-01 0.  0.
         14    1    1    2    0    0 -0.41839591509E-02 -0.76686776690E-02  0.22810796214E-01  0.24426349610E-01  0.00000000000E+00 0. -1.
     999901    1    3    3    0    0  0.78750729809E-01  0.11070099580E+00 -0.24212692216E-01  0.89075397410E+00  0.88000000000E+00 0. -1.
        -11    1    4    4    0    0 -0.40704673023E-01 -0.57213646212E-01 -0.91291085986E-02  0.70808710365E-01  0.51100000000E-03 0.  1.
         11    1    4    4    0    0 -0.33862097635E-01 -0.45818671922E-01  0.10531004601E-01  0.57940965921E-01  0.51100000000E-03 0. -1.
</event>
<event>
 8    1  0.1061722E+005  0.1043930E+01  0.7957747E-01            NaN
         13   -1    0    0    0    0  0.00000000000E+00  0.00000000000E+00  0.74505805969E-08  0.10566000000E+00  0.10566000000E+00 0. -1.
     999900   -1    0    0    0    0 -0.00000000000E+00 -0.00000000000E+00 -0.74505805969E-08  0.93827000000E+00  0.93827000000E+00 0. -1.
     999902    2    1    2    0    0  0.11299330861E-01  0.90263386828E-02  0.19591605277E-01  0.10195788057E+01  0.10192879673E+01 0.  0.
     999903    2    3    3    0    0  0.11770019026E+00 -0.15088199223E-01 -0.49574472170E-01  0.13014831368E+00  0.19999167935E-01 0.  0.
         14    1    1    2    0    0 -0.11299330861E-01 -0.90263386828E-02 -0.19591605277E-01  0.24351194329E-01  0.00000000000E+00 0.  1.
     999901    1    3    3    0    0 -0.10640085940E+00  0.24114537905E-01  0.69166077447E-01  0.88943049199E+00  0.88000000000E+00 0.  1.
        -11    1    4    4    0    0  0.15494088942E-01 -0.90351456117E-02 -0.78975660170E-02  0.19604420889E-01  0.51100000000E-03 0. -1.
         11    1    4    4    0    0  0.10220610132E+00 -0.60530536108E-02 -0.41676906153E-01  0.11054389279E+00  0.51100000000E-03 0.  1.
</event>
<event>
 8    1  0.1061722E+005  0.1043930E+01  0.7957747E-01            NaN
         13   -1    0    0    0    0  0.00000000000E+00  0.00000000000E+00  0.74505805969E-08  0.10566000000E+00  0.10566000000E+00 0. -1.
     999900   -1    0    0    0    0 -0.00000000000E+00 -0.00000000000E+00 -0.74505805969E-08  0.93827000000E+00  0.93827000000E+00 0.  1.
     999902    2    1    2    0    0 -0.16875272015E-01 -0.15974440691E-01  0.37868533608E-02  0.10203864697E+01  0.10201148218E+01 0.  0.
     999903    2    3    3    0    0 -0.14517166775E-01  0.20235963449E-01  0.12715204231E+00  0.13104079794E+00  0.19590980368E-01 0.  0.
         14    1    1    2    0    0  0.16875272015E-01  0.15974440691E-01 -0.37868533608E-02  0.23543530307E-01  0.00000000000E+00 0.  1.
     999901    1    3    3    0    0 -0.23581052392E-02 -0.36210404140E-01 -0.12336518895E+00  0.88934567176E+00  0.88000000000E+00 0.  1.
        -11    1    4    4    0    0 -0.74365942691E-02  0.89307820704E-03  0.67792081471E-01  0.68206509617E-01  0.51100000000E-03 0. -1.
         11    1    4    4    0    0 -0.70805725063E-02  0.19342885242E-01  0.59359960840E-01  0.62834288318E-01  0.51100000000E-03 0.  1.
</event>
<event>
 8    1  0.1061722E+005  0.1043930E+01  0.7957747E-01            NaN
         13   -1    0    0    0    0  0.00000000000E+00  0.00000000000E+00  0.74505805969E-08  0.10566000000E+00  0.10566000000E+00 0. -1.
     999900   -1    0    0    0    0 -0.00000000000E+00 -0.00000000000E+00 -0.74505805969E-08  0.93827000000E+00  0.93827000000E+00 0. -1.
     999902    2    1    2    0    0 -0.61348406158E-02 -0.78380527546E-02 -0.21638379782E-01  0.10201121323E+01  0.10198340413E+01 0.  0.
     999903    2    3    3    0    0  0.98124944779E-01  0.17624429619E-01  0.77741166212E-01  0.12803885339E+00  0.20276433247E-01 0.  0.
         14    1    1    2    0    0  0.61348406158E-02  0.78380527546E-02  0.21638379782E-01  0.23817867661E-01  0.00000000000E+00 0. -1.
     999901    1    3    3    0    0 -0.10425978539E+00 -0.25462482373E-01 -0.99379545993E-01  0.89207327895E+00  0.88000000000E+00 0. -1.
        -11    1    4    4    0    0  0.69687673010E-01  0.15537164299E-01  0.44037966066E-01  0.83889086419E-01  0.51100000000E-03 0.  1.
         11    1    4    4    0    0  0.28437271769E-01  0.20872653196E-02  0.33703200146E-01  0.44149766967E-01  0.51100000000E-03 0. -1.
</event>
<event>
 8    1  0.1061722E+005  0.1043930E+01  0.7957747E-01            NaN
         13   -1    0    0    0    0  0.00000000000E+00  0.00000000000E+00  0.74505805969E-08  0.10566000000E+00  0.10566000000E+00 0.  1.
     999900   -1    0    0    0    0 -0.00000000000E+00 -0.00000000000E+00 -0.74505805969E-08  0.93827000000E+00  0.93827000000E+00 0. -1.
     999902    2    1    2    0    0  0.46235135496E-02 -0.18898272818E-02  0.23553427961E-01  0.10198527848E+01  0.10195685314E+01 0.  0.
     999903    2    3    3    0    0  0.23200312140E-01 -0.75580299785E-01 -0.99201772119E-01  0.12808811719E+00  0.17746491930E-01 0.  0.
         14    1    1    2    0    0 -0.46235135496E-02  0.18898272818E-02 -0.23553427961E-01  0.24077215233E-01  0.00000000000E+00 0. -1.
     999901    1    3    3    0    0 -0.18576798590E-01  0.73690472503E-01  0.12275520008E+00  0.89176466757E+00  0.88000000000E+00 0.  1.
        -11    1    4    4    0    0  0.90149816637E-02 -0.44491390785E-01 -0.68308003435E-01  0.82018279686E-01  0.51100000000E-03 0. -1.
         11    1    4    4    0    0  0.14185330476E-01 -0.31088909000E-01 -0.30893768684E-01  0.46069837508E-01  0.51100000000E-03 0.  1.
</event>
<event>
 8    1  0.1061722E+005  0.1043930E+01  0.7957747E-01            NaN
         13   -1    0    0    0    0  0.00000000000E+00  0.00000000000E+00  0.74505805969E-08  0.10566000000E+00  0.10566000000E+00 0.  1.
     999900   -1    0    0    0    0 -0.00000000000E+00 -0.00000000000E+00 -0.74505805969E-08  0.93827000000E+00  0.93827000000E+00 0.  1.
     999902    2    1    2    0    0 -0.22195620078E-01  0.71868615673E-02 -0.16937552117E-02  0.10205384345E+01  0.10202703225E+01 0.  0.
     999903    2    3    3    0    0  0.10406292358E+00  0.36830363977E-01 -0.63289707921E-01  0.12890284836E+00  0.20610419954E-01 0.  0.
         14    1    1    2    0    0  0.22195620078E-01 -0.71868615673E-02  0.16937552117E-02  0.23391565500E-01  0.00000000000E+00 0. -1.
     999901    1    3    3    0    0 -0.12625854366E+00 -0.29643502410E-01  0.61595952709E-01  0.89163558614E+00  0.88000000000E+00 0. -1.
        -11    1    4    4    0    0  0.65908316039E-01  0.22874947465E-01 -0.28318324890E-01  0.75295139220E-01  0.51100000000E-03 0. -1.
         11    1    4    4    0    0  0.38154607545E-01  0.13955416513E-01 -0.34971383031E-01  0.53607709138E-01  0.51100000000E-03 0.  1.
</event>
<event>
 8    1  0.1061722E+005  0.1043930E+01  0.7957747E-01            NaN
         13   -1    0    0    0    0  0.00000000000E+00  0.00000000000E+00  0.74505805969E-08  0.10566000000E+00  0.10566000000E+00 0.  1.
     999900   -1    0    0    0    0 -0.00000000000E+00 -0.00000000000E+00 -0.74505805969E-08  0.93827000000E+00  0.93827000000E+00 0.  1.
     999902    2    1    2    0    0 -0.77905306500E-02  0.19761693765E-01  0.74025768828E-03  0.10226752384E+01  0.10224543405E+01 0.  0.
     999903    2    3    3    0    0 -0.33507698897E-01  0.66626923183E-01  0.10990324973E+00  0.13432042119E+00  0.20033433764E-01 0.  0.
         14    1    1    2    0    0  0.77905306500E-02 -0.19761693765E-01 -0.74025768828E-03  0.21254761577E-01  0.00000000000E+00 0. -1.
     999901    1    3    3    0    0  0.25717168247E-01 -0.46865229418E-01 -0.10916299204E+00  0.88835481723E+00  0.88000000000E+00 0.  1.
        -11    1    4    4    0    0 -0.15617665448E-02  0.22980995601E-01  0.35883257757E-01  0.42643107084E-01  0.51100000000E-03 0. -1.
         11    1    4    4    0    0 -0.31945932352E-01  0.43645927582E-01  0.74019991976E-01  0.91677314104E-01  0.51100000000E-03 0.  1.
</event>
<event>
 8    1  0.1061722E+005  0.1043930E+01  0.7957747E-01            NaN
         13   -1    0    0    0    0  0.00000000000E+00  0.00000000000E+00  0.74505805969E-08  0.10566000000E+00  0.10566000000E+00 0. -1.
     999900   -1    0    0    0    0 -0.00000000000E+00 -0.00000000000E+00 -0.74505805969E-08  0.93827000000E+00  0.93827000000E+00 0.  1.
     999902    2    1    2    0    0 -0.81409944855E-02  0.12234385410E-01 -0.18262352681E-01  0.10204892342E+01  0.10202199800E+01 0.  0.
     999903    2    3    3    0    0 -0.75199507122E-01  0.72495509204E-01  0.76230150442E-01  0.13085049832E+00  0.20006307734E-01 0.  0.
         14    1    1    2    0    0  0.81409944855E-02 -0.12234385410E-01  0.18262352681E-01  0.23440765837E-01  0.00000000000E+00 0. -1.
     999901    1    3    3    0    0  0.67058512637E-01 -0.60261123794E-01 -0.94492503123E-01  0.88963873584E+00  0.88000000000E+00 0.  1.
        -11    1    4    4    0    0 -0.41188892083E-01  0.33555662810E-01  0.49634795309E-01  0.72707505555E-01  0.51100000000E-03 0.  1.
         11    1    4    4    0    0 -0.34010615039E-01  0.38939846395E-01  0.26595355133E-01  0.58142992770E-01  0.51100000000E-03 0. -1.
</event>
<event>
 8    1  0.1061722E+005  0.1043930E+01  0.7957747E-01            NaN
         13   -1    0    0    0    0  0.00000000000E+00  0.00000000000E+00  0.74505805969E-08  0.10566000000E+00  0.10566000000E+00 0. -1.
     999900   -1    0    0    0    0 -0.00000000000E+00 -0.00000000000E+00 -0.74505805969E-08  0.93827000000E+00  0.93827000000E+00 0.  1.
     999902    2    1    2    0    0  0.14784759460E-01 -0.14370502619E-01 -0.12872828523E-01  0.10196234130E+01  0.10193336520E+01 0.  0.
     999903    2    3    3    0    0 -0.11157396865E+00 -0.61784933836E-01 -0.10464119204E-01  0.12933106868E+00  0.18732298453E-01 0.  0.
         14    1    1    2    0    0 -0.14784759460E-01  0.14370502619E-01  0.12872828523E-01  0.24306587008E-01  0.00000000000E+00 0.  1.
     999901    1    3    3    0    0  0.12635872811E+00  0.47414431218E-01 -0.24087093196E-02  0.89029234431E+00  0.88000000000E+00 0.  1.
        -11    1    4    4    0    0 -0.29331839548E-01 -0.15350232267E-01  0.54428687652E-02  0.33554021865E-01  0.51100000000E-03 0. -1.
         11    1    4    4    0    0 -0.82242129105E-01 -0.46434701569E-01 -0.15906987969E-01  0.95777046816E-01  0.51100000000E-03 0.  1.
</event>
<event>
 8    1  0.1061722E+005  0.1043930E+01  0.7957747E-01            NaN
         13   -1    0    0    0    0  0.00000000000E+00  0.00000000000E+00  0.74505805969E-08  0.10566000000E+00  0.10566000000E+00 0.  1.
     999900   -1    0    0    0    0 -0.00000000000E+00 -0.00000000000E+00 -0.74505805969E-08  0.93827000000E+00  0.93827000000E+00 0. -1.
     999902    2    1    2    0    0  0.17791633926E-01 -0.15135128153E-01  0.16988201661E-01  0.10150472484E+01  0.10146362418E+01 0.  0.
     999903    2    3    3    0    0  0.24516327501E-01 -0.10052095508E+00 -0.70155185313E-01  0.12660483003E+00  0.20037969841E-01 0.  0.
         14    1    1    2    0    0 -0.17791633926E-01  0.15135128153E-01 -0.16988201661E-01  0.28882751560E-01  0.00000000000E+00 0. -1.
     999901    1    3    3    0    0 -0.67246935750E-02  0.85385826927E-01  0.87143386974E-01  0.88844241841E+00  0.88000000000E+00 0.  1.
        -11    1    4    4    0    0  0.22898600690E-01 -0.54474167168E-01 -0.35358813580E-01  0.68864269552E-01  0.51100000000E-03 0. -1.
         11    1    4    4    0    0  0.16177268113E-02 -0.46046787912E-01 -0.34796371733E-01  0.57740560474E-01  0.51100000000E-03 0.  1.
</event>
<event>
 8    1  0.1061722E+005  0.1043930E+01  0.7957747E-01            NaN
         13   -1    0    0    0    0  0.00000000000E+00  0.00000000000E+00  0.74505805969E-08  0.10566000000E+00  0.10566000000E+00 0.  1.
     999900   -1    0    0    0    0 -0.00000000000E+00 -0.00000000000E+00 -0.74505805969E-08  0.93827000000E+00  0.93827000000E+00 0.  1.
     999902    2    1    2    0    0  0.14474987321E-01  0.42191556800E-03 -0.17332807250E-01  0.10213439539E+01  0.10210941890E+01 0.  0.
     999903    2    3    3    0    0 -0.58690743218E-02  0.48784436587E-01  0.11792992992E+00  0.12946457734E+00  0.20958080309E-01 0.  0.
         14    1    1    2    0    0 -0.14474987321E-01 -0.42191556800E-03  0.17332807250E-01  0.22586046087E-01  0.00000000000E+00 0.  1.
     999901    1    3    3    0    0  0.20344061643E-01 -0.48362521019E-01 -0.13526273717E+00  0.89187937657E+00  0.88000000000E+00 0.  1.
        -11    1    4    4    0    0 -0.69034639492E-02  0.25586553640E-01  0.85920301800E-01  0.89916010388E-01  0.51100000000E-03 0.  1.
         11    1    4    4    0    0  0.10343896274E-02  0.23197882947E-01  0.32009628116E-01  0.39548566955E-01  0.51100000000E-03 0. -1.
</event>
<event>
 8    1  0.1061722E+005  0.1043930E+01  0.7957747E-01            NaN
         13   -1    0    0    0    0  0.00000000000E+00  0.00000000000E+00  0.74505805969E-08  0.10566000000E+00  0.10566000000E+00 0. -1.
     999900   -1    0    0    0    0 -0.00000000000E+00 -0.00000000000E+00 -0.74505805969E-08  0.93827000000E+00  0.93827000000E+00 0.  1.
     999902    2    1    2    0    0  0.19889305570E-01  0.19607291511E-03 -0.12150789756E-01  0.10206219625E+01  0.10203557839E+01 0.  0.
     999903    2    3    3    0    0 -0.26971879716E-01 -0.58526202135E-01 -0.11303230465E+00  0.13167800683E+00  0.20248381577E-01 0.  0.
         14    1    1    2    0    0 -0.19889305570E-01 -0.19607291511E-03  0.12150789756E-01  0.23308037505E-01  0.00000000000E+00 0. -1.
     999901    1    3    3    0    0  0.46861185286E-01  0.58722275051E-01  0.10088151489E+00  0.88894395567E+00  0.88000000000E+00 0. -1.
        -11    1    4    4    0    0 -0.22218181862E-01 -0.46590751426E-01 -0.10354683476E+00  0.11570027586E+00  0.51100000000E-03 0.  1.
         11    1    4    4    0    0 -0.47536978543E-02 -0.11935450710E-01 -0.94854698822E-02  0.15977730966E-01  0.51100000000E-03 0. -1.
</event>
<event>
 8    1  0.1061722E+005  0.1043930E+01  0.7957747E-01            NaN
         13   -1    0    0    0    0  0.00000000000E+00  0.00000000000E+00  0.74505805969E-08  0.10566000000E+00  0.10566000000E+00 0. -1.
     999900   -1    0    0    0    0 -0.00000000000E+00 -0.00000000000E+00 -0.74505805969E-08  0.93827000000E+00  0.93827000000E+00 0. -1.
     999902    2    1    2    0    0  0.43392846559E-02  0.77289133150E-02 -0.22106934231E-01  0.10201123168E+01  0.10198342301E+01 0.  0.
     999903    2    3    3    0    0  0.72893116263E-01  0.78726932170E-02 -0.10943617876E+00  0.13313653051E+00  0.19330619190E-01 0.  0.
         14    1    1    2    0    0 -0.43392846559E-02 -0.77289133150E-02  0.22106934231E-01  0.23817683209E-01  0.00000000000E+00 0.  1.
     999901    1    3    3    0    0 -0.68553831607E-01 -0.14377990200E-03  0.87329244526E-01  0.88697578628E+00  0.88000000000E+00 0.  1.
        -11    1    4    4    0    0  0.15611615079E-01 -0.62320605742E-02 -0.23363156076E-01  0.28786442768E-01  0.51100000000E-03 0. -1.
         11    1    4    4    0    0  0.57281501183E-01  0.14104753791E-01 -0.86073022681E-01  0.10435008774E+00  0.51100000000E-03 0.  1.
</event>
<event>
 8    1  0.1061722E+005  0.1043930E+01  0.7957747E-01            NaN
         13   -1    0    0    0    0  0.00000000000E+00  0.00000000000E+00  0.74505805969E-08  0.10566000000E+00  0.10566000000E+00 0.  1.
     999900   -1    0    0    0    0 -0.00000000000E+00 -0.00000000000E+00 -0.74505805969E-08  0.93827000000E+00  0.93827000000E+00 0. -1.
     999902    2    1    2    0    0  0.47401012837E-02  0.54280934324E-02  0.22854940956E-01  0.10199658375E+01  0.10196842789E+01 0.  0.
     999903    2    3    3    0    0 -0.42923693632E-01 -0.23874068896E-01  0.12196950962E+00  0.13263604999E+00  0.17416826381E-01 0.  0.
         14    1    1    2    0    0 -0.47401012837E-02 -0.54280934324E-02 -0.22854940956E-01  0.23964162506E-01  0.00000000000E+00 0. -1.
     999901    1    3    3    0    0  0.47663794916E-01  0.29302162328E-01 -0.99114568662E-01  0.88732978750E+00  0.88000000000E+00 0.  1.
        -11    1    4    4    0    0 -0.25287263490E-01 -0.10294396516E-01  0.46237460348E-01  0.53699014468E-01  0.51100000000E-03 0.  1.
         11    1    4    4    0    0 -0.17636430142E-01 -0.13579672380E-01  0.75732049270E-01  0.78937035527E-01  0.51100000000E-03 0. -1.
</event>
<event>
 8    1  0.1061722E+005  0.1043930E+01  0.7957747E-01            NaN
         13   -1    0    0    0    0  0.00000000000E+00  0.00000000000E+00  0.74505805969E-08  0.10566000000E+00  0.10566000000E+00 0.  1.
     999900   -1    0    0    0    0 -0.00000000000E+00 -0.00000000000E+00 -0.74505805969E-08  0.93827000000E+00  0.93827000000E+00 0. -1.
     999902    2    1    2    0    0 -0.12169648140E-01 -0.21051464060E-01 -0.10465410018E-02  0.10195915587E+01  0.10193010286E+01 0.  0.
     999903    2    3    3    0    0  0.94854153714E-01 -0.38488634159E-01 -0.77094982643E-01  0.12968059997E+00  0.19867969781E-01 0.  0.
         14    1    1    2    0    0  0.12169648140E-01  0.21051464060E-01  0.10465410018E-02  0.24338441261E-01  0.00000000000E+00 0.  1.
     999901    1    3    3    0    0 -0.10702380185E+00  0.17437170099E-01  0.76048441641E-01  0.88991095877E+00  0.88000000000E+00 0.  1.
        -11    1    4    4    0    0  0.28070843106E-01 -0.69199884354E-02 -0.32019673523E-01  0.43143702740E-01  0.51100000000E-03 0.  1.
         11    1    4    4    0    0  0.66783310609E-01 -0.31568645723E-01 -0.45075309120E-01  0.86536897228E-01  0.51100000000E-03 0. -1.
</event>
<event>
 8    1  0.1061722E+005  0.1043930E+01  0.7957747E-01            NaN
         13   -1    0    0    0    0  0.00000000000E+00  0.00000000000E+00  0.74505805969E-08  0.10566000000E+00  0.10566000000E+00 0. -1.
     999900   -1    0    0    0    0 -0.00000000000E+00 -0.00000000000E+00 -0.74505805969E-08  0.93827000000E+00  0.93827000000E+00 0. -1.
     999902    2    1    2    0    0  0.54838492926E-02 -0.23328458323E-01 -0.61249243827E-02  0.10191953225E+01  0.10188951375E+01 0.  0.
     999903    2    3    3    0    0  0.11715379942E+00  0.27905263350E-03  0.52425157158E-01  0.12989469598E+00  0.19978597337E-01 0.  0.
         14    1    1    2    0    0 -0.54838492926E-02  0.23328458323E-01  0.61249243827E-02  0.24734677469E-01  0.00000000000E+00 0. -1.
     999901    1    3    3    0    0 -0.11166995013E+00 -0.23607510957E-01 -0.58550081541E-01  0.88930062655E+00  0.88000000000E+00 0.  1.
        -11    1    4    4    0    0  0.26596814282E-01 -0.52126246847E-02  0.19448206869E-01  0.33362491775E-01  0.51100000000E-03 0.  1.
         11    1    4    4    0    0  0.90556985139E-01  0.54916773182E-02  0.32976950290E-01  0.96532204205E-01  0.51100000000E-03 0. -1.
</event>
<event>
 8    1  0.1061722E+005  0.1043930E+01  0.7957747E-01            NaN
         13   -1    0    0    0    0  0.00000000000E+00  0.00000000000E+00  0.74505805969E-08  0.10566000000E+00  0.10566000000E+00 0.  1.
     999900   -1    0    0    0    0 -0.00000000000E+00 -0.00000000000E+00 -0.74505805969E-08  0.93827000000E+00  0.93827000000E+00 0. -1.
     999902    2    1    2    0    0 -0.15675950914E-01 -0.50055960950E-02 -0.18283363179E-01  0.10193317725E+01  0.10190349305E+01 0.  0.
     999903    2    3    3    0    0 -0.11504388836E+00  0.71489827978E-02  0.57641505269E-01  0.13040753134E+00  0.19934314582E-01 0.  0.
         14    1    1    2    0    0  0.15675950914E-01  0.50055960950E-02  0.18283363179E-01  0.24598227547E-01  0.00000000000E+00 0.  1.
     999901    1    3    3    0    0  0.99367937446E-01 -0.12154578893E-01 -0.75924868448E-01  0.88892424111E+00  0.88000000000E+00 0.  1.
        -11    1    4    4    0    0 -0.81408969380E-01  0.11721343593E-01  0.47482777759E-01  0.94972024807E-01  0.51100000000E-03 0.  1.
         11    1    4    4    0    0 -0.33634918979E-01 -0.45723607952E-02  0.10158727509E-01  0.35435506538E-01  0.51100000000E-03 0. -1.
</event>
<event>
 8    1  0.1061722E+005  0.1043930E+01  0.7957747E-01            NaN
         13   -1    0    0    0    0  0.00000000000E+00  0.00000000000E+00  0.74505805969E-08  0.10566000000E+00  0.10566000000E+00 0.  1.
     999900   -1    0    0    0    0 -0.00000000000E+00 -0.00000000000E+00 -0.74505805969E-08  0.93827000000E+00  0.93827000000E+00 0. -1.
     999902    2    1    2    0    0  0.10466204626E-01 -0.56444883287E-02 -0.12730687568E-01  0.10265095496E+01  0.10263617214E+01 0.  0.
     999903    2    3    3    0    0  0.15711756712E-01  0.11204169317E+00  0.70457594677E-01  0.13477088636E+00  0.19967945667E-01 0.  0.
         14    1    1    2    0    0 -0.10466204626E-01  0.56444883287E-02  0.12730687568E-01  0.17420450445E-01  0.00000000000E+00 0.  1.
     999901    1    3    3    0    0 -0.52455520855E-02 -0.11768618150E+00 -0.83188282245E-01  0.89173866319E+00  0.88000000000E+00 0. -1.
        -11    1    4    4    0    0  0.14956804132E-01  0.38221792410E-01  0.26180618004E-01  0.48685698977E-01  0.51100000000E-03 0.  1.
         11    1    4    4    0    0  0.75495257944E-03  0.73819900765E-01  0.44276976673E-01  0.86085187382E-01  0.51100000000E-03 0. -1.
</event>
<event>
 8    1  0.1061722E+005  0.1043930E+01  0.7957747E-01            NaN
         13   -1    0    0    0    0  0.00000000000E+00  0.00000000000E+00  0.74505805969E-08  0.10566000000E+00  0.10566000000E+00 0.  1.
     999900   -1    0    0    0    0 -0.00000000000E+00 -0.00000000000E+00 -0.74505805969E-08  0.93827000000E+00  0.93827000000E+00 0.  1.
     999902    2    1    2    0    0  0.95755157184E-02  0.14673627489E-01 -0.16464048317E-01  0.10198868985E+01  0.10196034596E+01 0.  0.
     999903    2    3    3    0    0 -0.11308950216E+00  0.39121889160E-01  0.43618870260E-01  0.12901407857E+00  0.20549182823E-01 0.  0.
         14    1    1    2    0    0 -0.95755157184E-02 -0.14673627489E-01  0.16464048317E-01  0.24043101546E-01  0.00000000000E+00 0. -1.
     999901    1    3    3    0    0  0.12266501788E+00 -0.24448261672E-01 -0.60082918577E-01  0.89087281989E+00  0.88000000000E+00 0.  1.
        -11    1    4    4    0    0 -0.61818655965E-01  0.29869043140E-01  0.18129276148E-01  0.71011532430E-01  0.51100000000E-03 0.  1.
         11    1    4    4    0    0 -0.51270846198E-01  0.92528460204E-02  0.25489594112E-01  0.58002546137E-01  0.51100000000E-03 0. -1.
</event>
<event>
 8    1  0.1061722E+005  0.1043930E+01  0.7957747E-01            NaN
         13   -1    0    0    0    0  0.00000000000E+00  0.00000000000E+00  0.74505805969E-08  0.10566000000E+00  0.10566000000E+00 0.  1.
     999900   -1    0    0    0    0 -0.00000000000E+00 -0.00000000000E+00 -0.74505805969E-08  0.93827000000E+00  0.93827000000E+00 0. -1.
     999902    2    1    2    0    0 -0.24694902645E-01 -0.16652294949E-03 -0.57449817856E-02  0.10185751038E+01  0.10182594813E+01 0.  0.
     999903    2    3    3    0    0  0.50047855845E-01  0.78215403333E-01  0.84919054955E-01  0.12731185767E+00  0.19355258077E-01 0.  0.
         14    1    1    2    0    0  0.24694902645E-01  0.16652294949E-03  0.57449817856E-02  0.25354896218E-01  0.00000000000E+00 0.  1.
     999901    1    3    3    0    0 -0.74742758490E-01 -0.78381926282E-01 -0.90664036741E-01  0.89126324611E+00  0.88000000000E+00 0. -1.
        -11    1    4    4    0    0  0.35005606907E-01  0.42026780139E-01  0.40413605936E-01  0.68008554092E-01  0.51100000000E-03 0. -1.
         11    1    4    4    0    0  0.15042248938E-01  0.36188623194E-01  0.44505449019E-01  0.59303303577E-01  0.51100000000E-03 0.  1.
</event>
<event>
 8    1  0.1061722E+005  0.1043930E+01  0.7957747E-01            NaN
         13   -1    0    0    0    0  0.00000000000E+00  0.00000000000E+00  0.74505805969E-08  0.10566000000E+00  0.10566000000E+00 0. -1.
     999900   -1    0    0    0    0 -0.00000000000E+00 -0.00000000000E+00 -0.74505805969E-08  0.93827000000E+00  0.93827000000E+00 0. -1.
     999902    2    1    2    0    0  0.99812871364E-02 -0.18771712204E-01  0.11178798176E-01  0.10199098251E+01  0.10196269331E+01 0.  0.
     999903    2    3    3    0    0  0.88328737500E-02 -0.30077960777E-01 -0.12412485056E+00  0.12949631026E+00  0.19483646008E-01 0.  0.
         14    1    1    2    0    0 -0.99812871364E-02  0.18771712204E-01 -0.11178798176E-01  0.24020174867E-01  0.00000000000E+00 0. -1.
     999901    1    3    3    0    0  0.11484133864E-02  0.11306248573E-01  0.13530364873E+00  0.89041351487E+00  0.88000000000E+00 0.  1.
        -11    1    4    4    0    0  0.78891863524E-02 -0.17991990067E-01 -0.40728646095E-01  0.45222059900E-01  0.51100000000E-03 0.  1.
         11    1    4    4    0    0  0.94368739762E-03 -0.12085970709E-01 -0.83396204462E-01  0.84274250359E-01  0.51100000000E-03 0. -1.
</event>
<event>
 8    1  0.1061722E+005  0.1043930E+01  0.7957747E-01            NaN
         13   -1    0    0    0    0  0.00000000000E+00  0.00000000000E+00  0.74505805969E-08  0.10566000000E+00  0.10566000000E+00 0. -1.
     999900   -1    0    0    0    0 -0.00000000000E+00 -0.00000000000E+00 -0.74505805969E-08  0.93827000000E+00  0.93827000000E+00 0.  1.
     999902    2    1    2    0    0  0.19339266783E-01 -0.51358047083E-02 -0.10134295906E-01  0.10215003838E+01  0.10212541047E+01 0.  0.
     999903    2    3    3    0    0 -0.23266689533E-01  0.12531154791E+00 -0.21653999433E-01  0.13079028343E+00  0.19821192400E-01 0.  0.
         14    1    1    2    0    0 -0.19339266783E-01  0.51358047083E-02  0.10134295906E-01  0.22429616208E-01  0.00000000000E+00 0. -1.
     999901    1    3    3    0    0  0.42605956316E-01 -0.13044735261E+00  0.11519703528E-01  0.89071010036E+00  0.88000000000E+00 0. -1.
        -11    1    4    4    0    0 -0.10022285827E-01  0.95242521280E-01 -0.11860997981E-01  0.96501442824E-01  0.51100000000E-03 0. -1.
         11    1    4    4    0    0 -0.13244403706E-01  0.30069026625E-01 -0.97930014517E-02  0.34288840606E-01  0.51100000000E-03 0.  1.
</event>
<event>
 8    1  0.1061722E+005  0.1043930E+01  0.7957747E-01            NaN
         13   -1    0    0    0    0  0.00000000000E+00  0.00000000000E+00  0.74505805969E-08  0.10566000000E+00  0.10566000000E+00 0. -1.
     999900   -1    0    0    0    0 -0.00000000000E+00 -0.00000000000E+00 -0.74505805969E-08  0.93827000000E+00  0.93827000000E+00 0.  1.
     999902    2    1    2    0    0 -0.17071716144E-01  0.14250763978E-01 -0.65393667512E-02  0.10207504598E+01  0.10204872415E+01 0.  0.
     999903    2    3    3    0    0 -0.68169118188E-01 -0.86464102687E-01  0.67056091379E-01  0.13048604947E+00  0.20174736334E-01 0.  0.
         14    1    1    2    0    0  0.17071716144E-01 -0.14250763978E-01  0.65393667512E-02  0.23179540193E-01  0.00000000000E+00 0. -1.
     999901    1    3    3    0    0  0.51097402044E-01  0.10071486666E+00 -0.73595458130E-01  0.89026441034E+00  0.88000000000E+00 0.  1.
        -11    1    4    4    0    0 -0.15097008090E-01 -0.28699013867E-01  0.11708521652E-01  0.34480482167E-01  0.51100000000E-03 0.  1.
         11    1    4    4    0    0 -0.53072110098E-01 -0.57765088820E-01  0.55347569726E-01  0.96005567298E-01  0.51100000000E-03 0. -1.
</event>
<event>
 8    1  0.1061722E+005  0.1043930E+01  0.7957747E-01            NaN
         13   -1    0    0    0    0  0.00000000000E+00  0.00000000000E+00  0.74505805969E-08  0.10566000000E+00  0.10566000000E+00 0.  1.
     999900   -1    0    0    0    0 -0.00000000000E+00 -0.00000000000E+00 -0.74505805969E-08  0.93827000000E+00  0.93827000000E+00 0. -1.
     999902    2    1    2    0    0 -0.13902997290E-01  0.10749582004E-01  0.93712838244E-02  0.10240134790E+01  0.10238197778E+01 0.  0.
     999903    2    3    3    0    0  0.55100124758E-02 -0.12849935862E+00 -0.23127053138E-01  0.13226055680E+00  0.20385016410E-01 0.  0.
         14    1    1    2    0    0  0.13902997290E-01 -0.10749582004E-01 -0.93712838244E-02  0.19916520967E-01  0.00000000000E+00 0.  1.
     999901    1    3    3    0    0 -0.19413009766E-01  0.13924894062E+00  0.32498336962E-01  0.89175292224E+00  0.88000000000E+00 0. -1.
        -11    1    4    4    0    0  0.79985893935E-02 -0.96571114855E-01 -0.25319787723E-01  0.10015642979E+00  0.51100000000E-03 0.  1.
         11    1    4    4    0    0 -0.24885769178E-02 -0.31928243764E-01  0.21927345852E-02  0.32104127007E-01  0.51100000000E-03 0. -1.
</event>
<event>
 8    1  0.1061722E+005  0.1043930E+01  0.7957747E-01            NaN
         13   -1    0    0    0    0  0.00000000000E+00  0.00000000000E+00  0.74505805969E-08  0.10566000000E+00  0.10566000000E+00 0.  1.
     999900   -1    0    0    0    0 -0.00000000000E+00 -0.00000000000E+00 -0.74505805969E-08  0.93827000000E+00  0.93827000000E+00 0.  1.
     999902    2    1    2    0    0 -0.99987527824E-02  0.17192459204E-01  0.15545933097E-01  0.10186865504E+01  0.10183737311E+01 0.  0.
     999903    2    3    3    0    0  0.59565851234E-01 -0.48376490608E-02 -0.11002571848E+00  0.12678252000E+00  0.19916203675E-01 0.  0.
         14    1    1    2    0    0  0.99987527824E-02 -0.17192459204E-01 -0.15545933097E-01  0.25243449577E-01  0.00000000000E+00 0. -1.
     999901    1    3    3    0    0 -0.69564604017E-01  0.22030108265E-01  0.12557165158E+00  0.89190403042E+00  0.88000000000E+00 0. -1.
        -11    1    4    4    0    0  0.81719295843E-02  0.10240862025E-02 -0.32872802854E-01  0.33892646314E-01  0.51100000000E-03 0.  1.
         11    1    4    4    0    0  0.51393921650E-01 -0.58617352633E-02 -0.77152915628E-01  0.92889873688E-01  0.51100000000E-03 0. -1.
</event>
<event>
 8    1  0.1061722E+005  0.1043930E+01  0.7957747E-01            NaN
         13   -1    0    0    0    0  0.00000000000E+00  0.00000000000E+00  0.74505805969E-08  0.10566000000E+00  0.10566000000E+00 0. -1.
     999900   -1    0    0    0    0 -0.00000000000E+00 -0.00000000000E+00 -0.74505805969E-08  0.93827000000E+00  0.93827000000E+00 0.  1.
     999902    2    1    2    0    0  0.22437157830E-01  0.56002207859E-02  0.66574894208E-02  0.10198652812E+01  0.10195813264E+01 0.  0.
     999903    2    3    3    0    0  0.47202027087E-01  0.69749179204E-02  0.12124700458E+00  0.13208943929E+00  0.21681859034E-01 0.  0.
         14    1    1    2    0    0 -0.22437157830E-01 -0.56002207859E-02 -0.66574894208E-02  0.24064718775E-01  0.00000000000E+00 0. -1.
     999901    1    3    3    0    0 -0.24764869257E-01 -0.13746971344E-02 -0.11458951516E+00  0.88777584194E+00  0.88000000000E+00 0.  1.
        -11    1    4    4    0    0  0.44924051090E-01  0.11582446019E-01  0.10023655526E+00  0.11045339086E+00  0.51100000000E-03 0. -1.
         11    1    4    4    0    0  0.22779759970E-02 -0.46075280990E-02  0.21010449319E-01  0.21636048424E-01  0.51100000000E-03 0.  1.
</event>
<event>
 8    1  0.1061722E+005  0.1043930E+01  0.7957747E-01            NaN
         13   -1    0    0    0    0  0.00000000000E+00  0.00000000000E+00  0.74505805969E-08  0.10566000000E+00  0.10566000000E+00 0. -1.
     999900   -1    0    0    0    0 -0.00000000000E+00 -0.00000000000E+00 -0.74505805969E-08  0.93827000000E+00  0.93827000000E+00 0.  1.
     999902    2    1    2    0    0  0.73288141707E-02 -0.14464254563E-02  0.26483835937E-01  0.10164127830E+01  0.10160402297E+01 0.  0.
     999903    2    3    3    0    0  0.18613847325E-01 -0.29904348647E-01  0.12383123279E+00  0.13051565523E+00  0.21434007223E-01 0.  0.
         14    1    1    2    0    0 -0.73288141707E-02  0.14464254563E-02 -0.26483835937E-01  0.27517216969E-01  0.00000000000E+00 0.  1.
     999901    1    3    3    0    0 -0.11285033154E-01  0.28457923191E-01 -0.97347396856E-01  0.88589712780E+00  0.88000000000E+00 0.  1.
        -11    1    4    4    0    0  0.12210762228E-01 -0.22875981010E-02  0.29444032100E-01  0.31961664014E-01  0.51100000000E-03 0.  1.
         11    1    4    4    0    0  0.64030850973E-02 -0.27616750546E-01  0.94387200694E-01  0.98553991219E-01  0.51100000000E-03 0. -1.
</event>
<event>
 8    1  0.1061722E+005  0.1043930E+01  0.7957747E-01            NaN
         13   -1    0    0    0    0  0.00000000000E+00  0.00000000000E+00  0.74505805969E-08  0.10566000000E+00  0.10566000000E+00 0.  1.
     999900   -1    0    0    0    0 -0.00000000000E+00 -0.00000000000E+00 -0.74505805969E-08  0.93827000000E+00  0.93827000000E+00 0.  1.
     999902    2    1    2    0    0  0.21258128334E-01  0.64950000685E-02 -0.85554954654E-02  0.10201121590E+01  0.10198340686E+01 0.  0.
     999903    2    3    3    0    0  0.53112727732E-01  0.86946419976E-01 -0.82652911201E-01  0.13276917376E+00  0.20384012812E-01 0.  0.
         14    1    1    2    0    0 -0.21258128334E-01 -0.64950000685E-02  0.85554954654E-02  0.23817840978E-01  0.00000000000E+00 0.  1.
     999901    1    3    3    0    0 -0.31854599397E-01 -0.80451419908E-01  0.74097415736E-01  0.88734298526E+00  0.88000000000E+00 0. -1.
        -11    1    4    4    0    0  0.45400276680E-02  0.94760263468E-03 -0.13951752581E-02  0.48700551311E-02  0.51100000000E-03 0. -1.
         11    1    4    4    0    0  0.48572700063E-01  0.85998817341E-01 -0.81257735943E-01  0.12789911863E+00  0.51100000000E-03 0.  1.
</event>
<event>
 8    1  0.1061722E+005  0.1043930E+01  0.7957747E-01            NaN
         13   -1    0    0    0    0  0.00000000000E+00  0.00000000000E+00  0.74505805969E-08  0.10566000000E+00  0.10566000000E+00 0.  1.
     999900   -1    0    0    0    0 -0.00000000000E+00 -0.00000000000E+00 -0.74505805969E-08  0.93827000000E+00  0.93827000000E+00 0.  1.
     999902    2    1    2    0    0  0.10840190930E-01  0.13448915261E-01  0.15667628565E-01  0.10206092443E+01  0.10203427718E+01 0.  0.
     999903    2    3    3    0    0  0.79056967110E-01  0.94406436064E-01  0.48227014535E-01  0.13366631360E+00  0.19448887904E-01 0.  0.
         14    1    1    2    0    0 -0.10840190930E-01 -0.13448915261E-01 -0.15667628565E-01  0.23320755690E-01  0.00000000000E+00 0. -1.
     999901    1    3    3    0    0 -0.68216776180E-01 -0.80957520803E-01 -0.32559385969E-01  0.88694293071E+00  0.88000000000E+00 0. -1.
        -11    1    4    4    0    0  0.48532336658E-01  0.68854885390E-01  0.38838324709E-01  0.92763460106E-01  0.51100000000E-03 0. -1.
         11    1    4    4    0    0  0.30524630452E-01  0.25551550674E-01  0.93886898258E-02  0.40902853491E-01  0.51100000000E-03 0.  1.
</event>
<event>
 8    1  0.1061722E+005  0.1043930E+01  0.7957747E-01            NaN
         13   -1    0    0    0    0  0.00000000000E+00  0.00000000000E+00  0.74505805969E-08  0.10566000000E+00  0.10566000000E+00 0. -1.
     999900   -1    0    0    0    0 -0.00000000000E+00 -0.00000000000E+00 -0.74505805969E-08  0.93827000000E+00  0.93827000000E+00 0. -1.
     999902    2    1    2    0    0  0.10232273331E-01 -0.20707992838E-01  0.10193939077E-01  0.10186824897E+01  0.10183695684E+01 0.  0.
     999903    2    3    3    0    0 -0.17514622148E-01 -0.94346987622E-01 -0.85210070959E-01  0.13003491221E+00  0.20981090020E-01 0.  0.
         14    1    1    2    0    0 -0.10232273331E-01  0.20707992838E-01 -0.10193939077E-01  0.25247510348E-01  0.00000000000E+00 0. -1.
     999901    1    3    3    0    0  0.27746895478E-01  0.73638994784E-01  0.95404010036E-01  0.88864757744E+00  0.88000000000E+00 0.  1.
        -11    1    4    4    0    0 -0.15688574023E-01 -0.37565967854E-01 -0.43313383669E-01  0.59444458291E-01  0.51100000000E-03 0.  1.
         11    1    4    4    0    0 -0.18260481247E-02 -0.56781019768E-01 -0.41896687290E-01  0.70590453919E-01  0.51100000000E-03 0. -1.
</event>
<event>
 8    1  0.1061722E+005  0.1043930E+01  0.7957747E-01            NaN
         13   -1    0    0    0    0  0.00000000000E+00  0.00000000000E+00  0.74505805969E-08  0.10566000000E+00  0.10566000000E+00 0. -1.
     999900   -1    0    0    0    0 -0.00000000000E+00 -0.00000000000E+00 -0.74505805969E-08  0.93827000000E+00  0.93827000000E+00 0.  1.
     999902    2    1    2    0    0 -0.18378941482E-01 -0.17515161906E-02 -0.93084607166E-02  0.10232539090E+01  0.10230449949E+01 0.  0.
     999903    2    3    3    0    0 -0.16737749611E-01  0.12720631117E+00 -0.32199063143E-01  0.13355913299E+00  0.18429988432E-01 0.  0.
         14    1    1    2    0    0  0.18378941482E-01  0.17515161906E-02  0.93084607166E-02  0.20676091020E-01  0.00000000000E+00 0. -1.
     999901    1    3    3    0    0 -0.16411918715E-02 -0.12895782736E+00  0.22890602426E-01  0.88969477599E+00  0.88000000000E+00 0. -1.
        -11    1    4    4    0    0  0.26230721443E-02  0.47829658883E-01 -0.12707531162E-01  0.49561065824E-01  0.51100000000E-03 0. -1.
         11    1    4    4    0    0 -0.19360821755E-01  0.79376652287E-01 -0.19491531981E-01  0.83998067164E-01  0.51100000000E-03 0.  1.
</event>
<event>
 8    1  0.1061722E+005  0.1043930E+01  0.7957747E-01            NaN
         13   -1    0    0    0    0  0.00000000000E+00  0.00000000000E+00  0.74505805969E-08  0.10566000000E+00  0.10566000000E+00 0. -1.
     999900   -1    0    0    0    0 -0.00000000000E+00 -0.00000000000E+00 -0.74505805969E-08  0.93827000000E+00  0.93827000000E+00 0. -1.
     999902    2    1    2    0    0 -0.34048915854E-01 -0.66017856863E-02 -0.11377896759E-02  0.10092283169E+01  0.10086315426E+01 0.  0.
     999903    2    3    3    0    0  0.91124853850E-01 -0.65524476468E-01 -0.30409719330E-01  0.11793868833E+00  0.19687233701E-01 0.  0.
         14    1    1    2    0    0  0.34048915854E-01  0.66017856863E-02  0.11377896759E-02  0.34701683107E-01  0.00000000000E+00 0. -1.
     999901    1    3    3    0    0 -0.12517376970E+00  0.58922690782E-01  0.29271929654E-01  0.89128962856E+00  0.88000000000E+00 0. -1.
        -11    1    4    4    0    0  0.57273203548E-01 -0.43976817207E-01 -0.28899395108E-01  0.77779280371E-01  0.51100000000E-03 0. -1.
         11    1    4    4    0    0  0.33851650301E-01 -0.21547659261E-01 -0.15103242214E-02  0.40159407964E-01  0.51100000000E-03 0.  1.
</event>
<event>
 7    1  0.1061722E+005  0.1043930E+01  0.7957747E-01            NaN
         13   -1    0    0    0    0  0.00000000000E+00  0.00000000000E+00  0.74505805969E-08  0.10566000000E+00  0.10566000000E+00 0. -1.
     999900   -1    0    0    0    0 -0.00000000000E+00 -0.00000000000E+00 -0.74505805969E-08  0.93827000000E+00  0.93827000000E+00 0. -1.
     999902    2    1    2    0    0 -0.12075051344E-01 -0.86592476015E-02 -0.20606529107E-01  0.10185249124E+01  0.10182080233E+01 0.  0.
         14    1    1    2    0    0  0.12075051344E-01  0.86592476015E-02  0.20606529107E-01  0.25405087598E-01  0.00000000000E+00 0. -1.
     999901    1    3    3    0    0  0.77774757875E-01 -0.30187752979E-01 -0.10163784594E+00  0.88976989448E+00  0.88000000000E+00 0. -1.
        -11    1    3    3    0    0 -0.65116306404E-01  0.58553449766E-02  0.34899232663E-01  0.74112320068E-01  0.51100000000E-03 0. -1.
         11    1    3    3    0    0 -0.24733502816E-01  0.15673160401E-01  0.46132084166E-01  0.54642697856E-01  0.51100000000E-03 0.  1.
</event>
<event>
 7    1  0.1061722E+005  0.1043930E+01  0.7957747E-01            NaN
         13   -1    0    0    0    0  0.00000000000E+00  0.00000000000E+00  0.74505805969E-08  0.10566000000E+00  0.10566000000E+00 0. -1.
     999900   -1    0    0    0    0 -0.00000000000E+00 -0.00000000000E+00 -0.74505805969E-08  0.93827000000E+00  0.93827000000E+00 0. -1.
     999903    2    1    2    0    0 -0.98080618848E-01 -0.10308310506E+00 -0.91365264697E-02  0.14379105039E+00  0.18613320886E-01 0.  0.
         14    1    1    2    0    0 -0.67663050284E-02  0.36496103082E-02  0.32192904301E-02  0.83346487636E-02  0.00000000000E+00 0. -1.
     999901    1    1    2    0    0  0.10484692388E+00  0.99433494750E-01  0.59172360397E-02  0.89180430085E+00  0.88000000000E+00 0. -1.
        -11    1    3    3    0    0 -0.63632297306E-01 -0.77892157775E-01 -0.10212831853E-01  0.10109807396E+00  0.51100000000E-03 0. -1.
         11    1    3    3    0    0 -0.34448321542E-01 -0.25190947283E-01  0.10763053830E-02  0.42692976429E-01  0.51100000000E-03 0.  1.
</event>
<event>
 8    1  0.1061722E+005  0.1043930E+01  0.7957747E-01            NaN
         13   -1    0    0    0    0  0.00000000000E+00  0.00000000000E+00  0.74505805969E-08  0.10566000000E+00  0.10566000000E+00 0.  1.
     999900   -1    0    0    0    0 -0.00000000000E+00 -0.00000000000E+00 -0.74505805969E-08  0.93827000000E+00  0.93827000000E+00 0.  1.
     999902    2    1    2    0    0 -0.78514361618E-02  0.15753760795E-02 -0.22729792945E-01  0.10198308227E+01  0.10195460444E+01 0.  0.
     999903    2    3    3    0    0 -0.38256332781E-01  0.11876684585E+00  0.30564867633E-01  0.12994396518E+00  0.19547692511E-01 0.  0.
         14    1    1    2    0    0  0.78514361618E-02 -0.15753760795E-02  0.22729792945E-01  0.24099177308E-01  0.00000000000E+00 0.  1.
     999901    1    3    3    0    0  0.30404896619E-01 -0.11719146977E+00 -0.53294660578E-01  0.88988685751E+00  0.88000000000E+00 0.  1.
        -11    1    4    4    0    0 -0.31670509162E-01  0.91810299471E-01  0.31710100038E-01  0.10216625571E+00  0.51100000000E-03 0. -1.
         11    1    4    4    0    0 -0.65858236186E-02  0.26956546379E-01 -0.11452324047E-02  0.27777709475E-01  0.51100000000E-03 0.  1.
</event>
<event>
 8    1  0.1061722E+005  0.1043930E+01  0.7957747E-01            NaN
         13   -1    0    0    0    0  0.00000000000E+00  0.00000000000E+00  0.74505805969E-08  0.10566000000E+00  0.10566000000E+00 0.  1.
     999900   -1    0    0    0    0 -0.00000000000E+00 -0.00000000000E+00 -0.74505805969E-08  0.93827000000E+00  0.93827000000E+00 0. -1.
     999902    2    1    2    0    0  0.45386269612E-02 -0.22639619845E-01 -0.92190003329E-02  0.10190675486E+01  0.10187642157E+01 0.  0.
     999903    2    3    3    0    0  0.10603071395E+00 -0.69867098077E-01  0.26330005306E-01  0.13126418626E+00  0.20324707127E-01 0.  0.
         14    1    1    2    0    0 -0.45386269612E-02  0.22639619845E-01  0.92190003329E-02  0.24862451379E-01  0.00000000000E+00 0. -1.
     999901    1    3    3    0    0 -0.10149208699E+00  0.47227478232E-01 -0.35549005639E-01  0.88780336236E+00  0.88000000000E+00 0. -1.
        -11    1    4    4    0    0  0.67803161832E-01 -0.32706828780E-01  0.15353881271E-01  0.76831036660E-01  0.51100000000E-03 0. -1.
         11    1    4    4    0    0  0.38227552120E-01 -0.37160269297E-01  0.10976124035E-01  0.54433149598E-01  0.51100000000E-03 0.  1.
</event>
<event>
 8    1  0.1061722E+005  0.1043930E+01  0.7957747E-01            NaN
         13   -1    0    0    0    0  0.00000000000E+00  0.00000000000E+00  0.74505805969E-08  0.10566000000E+00  0.10566000000E+00 0. -1.
     999900   -1    0    0    0    0 -0.00000000000E+00 -0.00000000000E+00 -0.74505805969E-08  0.93827000000E+00  0.93827000000E+00 0. -1.
     999902    2    1    2    0    0 -0.25395495638E-01 -0.11985874422E-01 -0.92335036201E-02  0.10143690465E+01  0.10139382193E+01 0.  0.
     999903    2    3    3    0    0 -0.49346899506E-01 -0.11399995410E+00 -0.16082836936E-01  0.12812559484E+00  0.26951890140E-01 0.  0.
         14    1    1    2    0    0  0.25395495638E-01  0.11985874422E-01  0.92335036201E-02  0.29560953528E-01  0.00000000000E+00 0. -1.
     999901    1    3    3    0    0  0.23951403868E-01  0.10201407968E+00  0.68493333157E-02  0.88624345164E+00  0.88000000000E+00 0. -1.
        -11    1    4    4    0    0 -0.27479408452E-01 -0.37709351841E-01  0.20827848785E-02  0.46708802371E-01  0.51100000000E-03 0. -1.
         11    1    4    4    0    0 -0.21867491055E-01 -0.76290602261E-01 -0.18165621814E-01  0.81416792465E-01  0.51100000000E-03 0.  1.
</event>
<event>
 8    1  0.1061722E+005  0.1043930E+01  0.7957747E-01            NaN
         13   -1    0    0    0    0  0.00000000000E+00  0.00000000000E+00  0.74505805969E-08  0.10566000000E+00  0.10566000000E+00 0.  1.
     999900   -1    0    0    0    0 -0.00000000000E+00 -0.00000000000E+00 -0.74505805969E-08  0.93827000000E+00  0.93827000000E+00 0.  1.
     999902    2    1    2    0    0 -0.21006883388E-01  0.45386487345E-02  0.92625246186E-02  0.10205273753E+01  0.10202590067E+01 0.  0.
     999903    2    3    3    0    0 -0.94607221649E-01  0.28056700400E-01 -0.85264695295E-01  0.13209870405E+00  0.21030799351E-01 0.  0.
         14    1    1    2    0    0  0.21006883388E-01 -0.45386487345E-02 -0.92625246186E-02  0.23402624731E-01  0.00000000000E+00 0. -1.
     999901    1    3    3    0    0  0.73600338261E-01 -0.23518051666E-01  0.94527219913E-01  0.88842867122E+00  0.88000000000E+00 0. -1.
        -11    1    4    4    0    0 -0.75813495820E-01  0.16804268345E-01 -0.74785406524E-01  0.10781088875E+00  0.51100000000E-03 0.  1.
         11    1    4    4    0    0 -0.18793725829E-01  0.11252432055E-01 -0.10479288770E-01  0.24287815296E-01  0.51100000000E-03 0. -1.
</event>
<event>
 8    1  0.1802238E+005  0.1043930E+01  0.7957747E-01            NaN
         13   -1    0    0    0    0  0.00000000000E+00  0.00000000000E+00  0.74505805969E-08  0.10566000000E+00  0.10566000000E+00 0. -1.
     999900   -1    0    0    0    0 -0.00000000000E+00 -0.00000000000E+00 -0.74505805969E-08  0.93827000000E+00  0.93827000000E+00 0. -1.
     999902    2    1    2    0    0  0.46949156966E-04 -0.20021414255E-01  0.16169244825E-01  0.10181947380E+01  0.10178694517E+01 0.  0.
     999903    2    3    3    0    0  0.26159297915E-01  0.84542497826E-01  0.90981265003E-01  0.12846876622E+00  0.19871852096E-01 0.  0.
         14    1    1    2    0    0 -0.46949156966E-04  0.20021414255E-01 -0.16169244825E-01  0.25735262020E-01  0.00000000000E+00 0.  1.
     999901    1    3    3    0    0 -0.26112348758E-01 -0.10456391208E+00 -0.74812020178E-01  0.88972597176E+00  0.88000000000E+00 0.  1.
        -11    1    4    4    0    0 -0.15842619906E-02  0.22623584658E-01  0.26224896698E-01  0.34674815020E-01  0.51100000000E-03 0. -1.
         11    1    4    4    0    0  0.27743559906E-01  0.61918913168E-01  0.64756368305E-01  0.93793951197E-01  0.51100000000E-03 0.  1.
</event>
<event>
 8    1  0.1061722E+005  0.1043930E+01  0.7957747E-01            NaN
         13   -1    0    0    0    0  0.00000000000E+00  0.00000000000E+00  0.74505805969E-08  0.10566000000E+00  0.10566000000E+00 0.  1.
     999900   -1    0    0    0    0 -0.00000000000E+00 -0.00000000000E+00 -0.74505805969E-08  0.93827000000E+00  0.93827000000E+00 0.  1.
     999902    2    1    2    0    0  0.21288471933E-01 -0.95936608263E-02  0.38616853259E-02  0.10202625122E+01  0.10199879626E+01 0.  0.
     999903    2    3    3    0    0 -0.10609303193E-01 -0.10903632861E+00 -0.69135509627E-01  0.13108598152E+00  0.20058354595E-01 0.  0.
         14    1    1    2    0    0 -0.21288471933E-01  0.95936608263E-02 -0.38616853259E-02  0.23667487801E-01  0.00000000000E+00 0.  1.
     999901    1    3    3    0    0  0.31897775126E-01  0.99442667785E-01  0.72997194953E-01  0.88917653068E+00  0.88000000000E+00 0. -1.
        -11    1    4    4    0    0 -0.11657859036E-01 -0.72044404065E-01 -0.55325202929E-01  0.91582973497E-01  0.51100000000E-03 0.  1.
         11    1    4    4    0    0  0.10485558432E-02 -0.36991924546E-01 -0.13810306699E-01  0.39503008026E-01  0.51100000000E-03 0. -1.
</event>
<event>
 8    1  0.1061722E+005  0.1043930E+01  0.7957747E-01            NaN
         13   -1    0    0    0    0  0.00000000000E+00  0.00000000000E+00  0.74505805969E-08  0.10566000000E+00  0.10566000000E+00 0. -1.
     999900   -1    0    0    0    0 -0.00000000000E+00 -0.00000000000E+00 -0.74505805969E-08  0.93827000000E+00  0.93827000000E+00 0.  1.
     999902    2    1    2    0    0  0.26808415232E-01 -0.32583549773E-02  0.24767506507E-02  0.10168109606E+01  0.10164492547E+01 0.  0.
     999903    2    3    3    0    0  0.46684366878E-01 -0.55052022338E-01  0.10651363434E+00  0.12894762055E+00  0.84958384727E-02 0.  0.
         14    1    1    2    0    0 -0.26808415232E-01  0.32583549773E-02 -0.24767506507E-02  0.27119039404E-01  0.00000000000E+00 0. -1.
     999901    1    3    3    0    0 -0.19875951646E-01  0.51793667361E-01 -0.10403688369E+00  0.88786334005E+00  0.88000000000E+00 0.  1.
        -11    1    4    4    0    0  0.12575711780E-01 -0.11392769389E-01  0.30157981645E-01  0.34607928269E-01  0.51100000000E-03 0. -1.
         11    1    4    4    0    0  0.34108655097E-01 -0.43659252949E-01  0.76355652691E-01  0.94339692280E-01  0.51100000000E-03 0.  1.
</event>
<event>
 8    1  0.1061722E+005  0.1043930E+01  0.7957747E-01            NaN
         13   -1    0    0    0    0  0.00000000000E+00  0.00000000000E+00  0.74505805969E-08  0.10566000000E+00  0.10566000000E+00 0.  1.
     999900   -1    0    0    0    0 -0.00000000000E+00 -0.00000000000E+00 -0.74505805969E-08  0.93827000000E+00  0.93827000000E+00 0. -1.
     999902    2    1    2    0    0 -0.12822641117E-02  0.44006925381E-02  0.23042854564E-01  0.10204356721E+01  0.10201651717E+01 0.  0.
     999903    2    3    3    0    0 -0.99146452266E-01 -0.76414168473E-02  0.85680158669E-01  0.13271620991E+00  0.19598278872E-01 0.  0.
         14    1    1    2    0    0  0.12822641117E-02 -0.44006925381E-02 -0.23042854564E-01  0.23494327880E-01  0.00000000000E+00 0. -1.
     999901    1    3    3    0    0  0.97864188155E-01  0.12042109385E-01 -0.62637304105E-01  0.88771946221E+00  0.88000000000E+00 0. -1.
        -11    1    4    4    0    0 -0.70148065929E-01  0.35379858359E-02  0.60908176824E-01  0.92969541369E-01  0.51100000000E-03 0. -1.
         11    1    4    4    0    0 -0.28998386337E-01 -0.11179402683E-01  0.24771981845E-01  0.39746668540E-01  0.51100000000E-03 0.  1.
</event>
<event>
 8    1  0.1061722E+005  0.1043930E+01  0.7957747E-01            NaN
         13   -1    0    0    0    0  0.00000000000E+00  0.00000000000E+00  0.74505805969E-08  0.10566000000E+00  0.10566000000E+00 0. -1.
     999900   -1    0    0    0    0 -0.00000000000E+00 -0.00000000000E+00 -0.74505805969E-08  0.93827000000E+00  0.93827000000E+00 0. -1.
     999902    2    1    2    0    0  0.12299969450E-01 -0.17388594111E-01  0.98854998718E-02  0.10204486124E+01  0.10201784134E+01 0.  0.
     999903    2    3    3    0    0 -0.13462790165E-01  0.27663840568E-01  0.12671213945E+00  0.13121191428E+00  0.14630973053E-01 0.  0.
         14    1    1    2    0    0 -0.12299969450E-01  0.17388594111E-01 -0.98854998718E-02  0.23481387551E-01  0.00000000000E+00 0. -1.
     999901    1    3    3    0    0  0.25762759615E-01 -0.45052434679E-01 -0.11682663957E+00  0.88923669817E+00  0.88000000000E+00 0. -1.
        -11    1    4    4    0    0  0.28752266562E-03  0.15066566401E-01  0.65884885794E-01  0.67588189719E-01  0.51100000000E-03 0. -1.
         11    1    4    4    0    0 -0.13750312831E-01  0.12597274166E-01  0.60827253652E-01  0.63623724562E-01  0.51100000000E-03 0.  1.
</event>
<event>
 8    1  0.1061722E+005  0.1043930E+01  0.7957747E-01            NaN
         13   -1    0    0    0    0  0.00000000000E+00  0.00000000000E+00  0.74505805969E-08  0.10566000000E+00  0.10566000000E+00 0.  1.
     999900   -1    0    0    0    0 -0.00000000000E+00 -0.00000000000E+00 -0.74505805969E-08  0.93827000000E+00  0.93827000000E+00 0.  1.
     999902    2    1    2    0    0 -0.19078857867E-01 -0.16663958660E-01  0.38384258296E-02  0.10183092301E+01  0.10179868684E+01 0.  0.
     999903    2    3    3    0    0 -0.46625226952E-01 -0.15283796511E-01  0.11968104251E+00  0.13028883671E+00  0.15624429943E-01 0.  0.
         14    1    1    2    0    0  0.19078857867E-01  0.16663958660E-01 -0.38384258296E-02  0.25620769868E-01  0.00000000000E+00 0. -1.
     999901    1    3    3    0    0  0.27546369084E-01 -0.13801621490E-02 -0.11584261668E+00  0.88802039342E+00  0.88000000000E+00 0.  1.
        -11    1    4    4    0    0 -0.14083203329E-01 -0.76393911271E-02  0.57471082580E-01  0.59664758164E-01  0.51100000000E-03 0. -1.
         11    1    4    4    0    0 -0.32542023622E-01 -0.76444053843E-02  0.62209959928E-01  0.70624078545E-01  0.51100000000E-03 0.  1.
</event>
<event>
 8    1  0.1061722E+005  0.1043930E+01  0.7957747E-01            NaN
         13   -1    0    0    0    0  0.00000000000E+00  0.00000000000E+00  0.74505805969E-08  0.10566000000E+00  0.10566000000E+00 0.  1.
     999900   -1    0    0    0    0 -0.00000000000E+00 -0.00000000000E+00 -0.74505805969E-08  0.93827000000E+00  0.93827000000E+00 0.  1.
     999902    2    1    2    0    0  0.12896157184E-01 -0.38690593211E-02 -0.15129218126E-01  0.10236772537E+01  0.10234768908E+01 0.  0.
     999903    2    3    3    0    0 -0.11228969225E+00  0.65076292359E-01 -0.13599742235E-01  0.13214638062E+00  0.20828204701E-01 0.  0.
         14    1    1    2    0    0 -0.12896157184E-01  0.38690593211E-02  0.15129218126E-01  0.20252746265E-01  0.00000000000E+00 0.  1.
     999901    1    3    3    0    0  0.12518584943E+00 -0.68945351680E-01 -0.15294758912E-02  0.89153087311E+00  0.88000000000E+00 0.  1.
        -11    1    4    4    0    0 -0.19486895449E-01  0.10661306360E-01 -0.10364401132E-01  0.24517024276E-01  0.51100000000E-03 0. -1.
         11    1    4    4    0    0 -0.92802796797E-01  0.54414985999E-01 -0.32353411035E-02  0.10762935635E+00  0.51100000000E-03 0.  1.
</event>
<event>
 8    1  0.1061722E+005  0.1043930E+01  0.7957747E-01            NaN
         13   -1    0    0    0    0  0.00000000000E+00  0.00000000000E+00  0.74505805969E-08  0.10566000000E+00  0.10566000000E+00 0.  1.
     999900   -1    0    0    0    0 -0.00000000000E+00 -0.00000000000E+00 -0.74505805969E-08  0.93827000000E+00  0.93827000000E+00 0. -1.
     999902    2    1    2    0    0 -0.97335282356E-02  0.15083746971E-01 -0.14467958988E-01  0.10208739199E+01  0.10206135299E+01 0.  0.
     999903    2    3    3    0    0 -0.86677510076E-01 -0.77352711966E-01 -0.58471454467E-01  0.13160389174E+00  0.20105733809E-01 0.  0.
         14    1    1    2    0    0  0.97335282356E-02 -0.15083746971E-01  0.14467958988E-01  0.23056080150E-01  0.00000000000E+00 0.  1.
     999901    1    3    3    0    0  0.76943981840E-01  0.92436458937E-01  0.44003495479E-01  0.88927002811E+00  0.88000000000E+00 0. -1.
        -11    1    4    4    0    0 -0.70322293109E-01 -0.54891819322E-01 -0.51279923279E-01  0.10289911753E+00  0.51100000000E-03 0. -1.
         11    1    4    4    0    0 -0.16355216967E-01 -0.22460892644E-01 -0.71915311882E-02  0.28704774206E-01  0.51100000000E-03 0.  1.
</event>
<event>
 8    1  0.1061722E+005  0.1043930E+01  0.7957747E-01            NaN
         13   -1    0    0    0    0  0.00000000000E+00  0.00000000000E+00  0.74505805969E-08  0.10566000000E+00  0.10566000000E+00 0.  1.
     999900   -1    0    0    0    0 -0.00000000000E+00 -0.00000000000E+00 -0.74505805969E-08  0.93827000000E+00  0.93827000000E+00 0.  1.
     999902    2    1    2    0    0 -0.16808961903E-01 -0.74317225531E-02  0.16371231821E-01  0.10193172202E+01  0.10190200226E+01 0.  0.
     999903    2    3    3    0    0 -0.11581872039E+00  0.40530914898E-01  0.44618251847E-01  0.13201724776E+00  0.19520098706E-01 0.  0.
         14    1    1    2    0    0  0.16808961903E-01  0.74317225531E-02 -0.16371231821E-01  0.24612779845E-01  0.00000000000E+00 0. -1.
     999901    1    3    3    0    0  0.99009758488E-01 -0.47962637451E-01 -0.28247020026E-01  0.88729997239E+00  0.88000000000E+00 0. -1.
        -11    1    4    4    0    0 -0.58289250661E-01  0.10930803981E-01  0.17233377800E-01  0.61760583301E-01  0.51100000000E-03 0. -1.
         11    1    4    4    0    0 -0.57529469730E-01  0.29600110917E-01  0.27384874047E-01  0.70256664462E-01  0.51100000000E-03 0.  1.
</event>
<event>
 8    1  0.1061722E+005  0.1043930E+01  0.7957747E-01            NaN
         13   -1    0    0    0    0  0.00000000000E+00  0.00000000000E+00  0.74505805969E-08  0.10566000000E+00  0.10566000000E+00 0.  1.
     999900   -1    0    0    0    0 -0.00000000000E+00 -0.00000000000E+00 -0.74505805969E-08  0.93827000000E+00  0.93827000000E+00 0. -1.
     999902    2    1    2    0    0  0.21217575260E-01  0.90018206927E-02 -0.32797165944E-02  0.10206496474E+01  0.10203841080E+01 0.  0.
     999903    2    3    3    0    0 -0.95551022600E-01  0.84163979141E-01 -0.15092048183E-01  0.12968175423E+00  0.19391084456E-01 0.  0.
         14    1    1    2    0    0 -0.21217575260E-01 -0.90018206927E-02  0.32797165944E-02  0.23280352588E-01  0.00000000000E+00 0. -1.
     999901    1    3    3    0    0  0.11676859786E+00 -0.75162158448E-01  0.11812331589E-01  0.89096789318E+00  0.88000000000E+00 0. -1.
        -11    1    4    4    0    0 -0.77860358597E-01  0.59376709337E-01 -0.70031659089E-02  0.98168908043E-01  0.51100000000E-03 0. -1.
         11    1    4    4    0    0 -0.17690664002E-01  0.24787269804E-01 -0.80888822745E-02  0.31512846184E-01  0.51100000000E-03 0.  1.
</event>
<event>
 8    1  0.1061722E+005  0.1043930E+01  0.7957747E-01            NaN
         13   -1    0    0    0    0  0.00000000000E+00  0.00000000000E+00  0.74505805969E-08  0.10566000000E+00  0.10566000000E+00 0.  1.
     999900   -1    0    0    0    0 -0.00000000000E+00 -0.00000000000E+00 -0.74505805969E-08  0.93827000000E+00  0.93827000000E+00 0.  1.
     999902    2    1    2    0    0  0.15676424077E-01 -0.63252461175E-02  0.17037126313E-01  0.10199295274E+01  0.10196471048E+01 0.  0.
     999903    2    3    3    0    0 -0.12175364698E-01  0.89988137641E-01 -0.87994292018E-01  0.12803066049E+00  0.20068636606E-01 0.  0.
         14    1    1    2    0    0 -0.15676424077E-01  0.63252461175E-02 -0.17037126313E-01  0.24000472564E-01  0.00000000000E+00 0.  1.
     999901    1    3    3    0    0  0.27851788775E-01 -0.96313383759E-01  0.10503141833E+00  0.89189886695E+00  0.88000000000E+00 0. -1.
        -11    1    4    4    0    0 -0.47008892607E-02  0.73264374045E-01 -0.61256617400E-01  0.95615904327E-01  0.51100000000E-03 0.  1.
         11    1    4    4    0    0 -0.74744754375E-02  0.16723763596E-01 -0.26737674618E-01  0.32414756160E-01  0.51100000000E-03 0. -1.
</event>
<event>
 8    1  0.1061722E+005  0.1043930E+01  0.7957747E-01            NaN
         13   -1    0    0    0    0  0.00000000000E+00  0.00000000000E+00  0.74505805969E-08  0.10566000000E+00  0.10566000000E+00 0.  1.
     999900   -1    0    0    0    0 -0.00000000000E+00 -0.00000000000E+00 -0.74505805969E-08  0.93827000000E+00  0.93827000000E+00 0. -1.
     999902    2    1    2    0    0  0.19773213066E-01 -0.14679594113E-01 -0.46292103074E-03  0.10192990290E+01  0.10190013865E+01 0.  0.
     999903    2    3    3    0    0  0.71148196200E-01 -0.34974822105E-01 -0.10315371754E+00  0.13160725540E+00  0.19861425585E-01 0.  0.
         14    1    1    2    0    0 -0.19773213066E-01  0.14679594113E-01  0.46292103074E-03  0.24630971036E-01  0.00000000000E+00 0. -1.
     999901    1    3    3    0    0 -0.51374983134E-01  0.20295227992E-01  0.10269079651E+00  0.88769177357E+00  0.88000000000E+00 0.  1.
        -11    1    4    4    0    0  0.48481894678E-01 -0.33291558499E-01 -0.70362087788E-01  0.91705542350E-01  0.51100000000E-03 0.  1.
         11    1    4    4    0    0  0.22666301522E-01 -0.16832636068E-02 -0.32791629755E-01  0.39901713047E-01  0.51100000000E-03 0. -1.
</event>
<event>
 8    1  0.1061722E+005  0.1043930E+01  0.7957747E-01            NaN
         13   -1    0    0    0    0  0.00000000000E+00  0.00000000000E+00  0.74505805969E-08  0.10566000000E+00  0.10566000000E+00 0. -1.
     999900   -1    0    0    0    0 -0.00000000000E+00 -0.00000000000E+00 -0.74505805969E-08  0.93827000000E+00  0.93827000000E+00 0.  1.
     999902    2    1    2    0    0  0.20506051477E-01  0.69422669914E-03 -0.10694620169E-01  0.10207922603E+01  0.10205300014E+01 0.  0.
     999903    2    3    3    0    0 -0.59459184732E-01 -0.42064032082E-01 -0.10678048547E+00  0.13092979834E+00  0.20874926854E-01 0.  0.
         14    1    1    2    0    0 -0.20506051477E-01 -0.69422669914E-03  0.10694620169E-01  0.23137739700E-01  0.00000000000E+00 0. -1.
     999901    1    3    3    0    0  0.79965236209E-01  0.42758258781E-01  0.96085865304E-01  0.88986246196E+00  0.88000000000E+00 0. -1.
        -11    1    4    4    0    0 -0.26551842781E-01 -0.15321922138E-01 -0.62519810697E-01  0.69632962767E-01  0.51100000000E-03 0. -1.
         11    1    4    4    0    0 -0.32907341951E-01 -0.26742109943E-01 -0.44260674776E-01  0.61296835572E-01  0.51100000000E-03 0.  1.
</event>
<event>
 8    1  0.1061722E+005  0.1043930E+01  0.7957747E-01            NaN
         13   -1    0    0    0    0  0.00000000000E+00  0.00000000000E+00  0.74505805969E-08  0.10566000000E+00  0.10566000000E+00 0. -1.
     999900   -1    0    0    0    0 -0.00000000000E+00 -0.00000000000E+00 -0.74505805969E-08  0.93827000000E+00  0.93827000000E+00 0. -1.
     999902    2    1    2    0    0  0.97185724698E-02  0.17711669143E-01  0.14174546140E-01  0.10192506233E+01  0.10189517955E+01 0.  0.
     999903    2    3    3    0    0 -0.62459388394E-01 -0.25048893318E-01 -0.10599089420E+00  0.12713075650E+00  0.19988430134E-01 0.  0.
         14    1    1    2    0    0 -0.97185724698E-02 -0.17711669143E-01 -0.14174546140E-01  0.24679376673E-01  0.00000000000E+00 0.  1.
     999901    1    3    3    0    0  0.72177960864E-01  0.42760562461E-01  0.12016544034E+00  0.89211986683E+00  0.88000000000E+00 0.  1.
        -11    1    4    4    0    0 -0.30446623708E-01 -0.89647364904E-02 -0.67225807389E-01  0.74343350043E-01  0.51100000000E-03 0. -1.
         11    1    4    4    0    0 -0.32012764686E-01 -0.16084156827E-01 -0.38765086814E-01  0.52787406456E-01  0.51100000000E-03 0.  1.
</event>
<event>
 8    1  0.1061722E+005  0.1043930E+01  0.7957747E-01            NaN
         13   -1    0    0    0    0  0.00000000000E+00  0.00000000000E+00  0.74505805969E-08  0.10566000000E+00  0.10566000000E+00 0.  1.
     999900   -1    0    0    0    0 -0.00000000000E+00 -0.00000000000E+00 -0.74505805969E-08  0.93827000000E+00  0.93827000000E+00 0. -1.
     999902    2    1    2    0    0 -0.17271283126E-01 -0.64154363021E-02  0.15238858898E-01  0.10200202140E+01  0.10197399469E+01 0.  0.
     999903    2    3    3    0    0  0.11355451207E-01 -0.16324418413E-01 -0.12486952555E+00  0.12842162879E+00  0.22456255734E-01 0.  0.
         14    1    1    2    0    0  0.17271283126E-01  0.64154363021E-02 -0.15238858898E-01  0.23909785952E-01  0.00000000000E+00 0. -1.
     999901    1    3    3    0    0 -0.28626734334E-01  0.99089821113E-02  0.14010838444E+00  0.89159858526E+00  0.88000000000E+00 0.  1.
        -11    1    4    4    0    0  0.37786668100E-02 -0.20751727388E-01 -0.92878943272E-01  0.95245323963E-01  0.51100000000E-03 0. -1.
         11    1    4    4    0    0  0.75767843972E-02  0.44273089750E-02 -0.31990582275E-01  0.33176304825E-01  0.51100000000E-03 0.  1.
</event>
<event>
 8    1  0.1061722E+005  0.1043930E+01  0.7957747E-01            NaN
         13   -1    0    0    0    0  0.00000000000E+00  0.00000000000E+00  0.74505805969E-08  0.10566000000E+00  0.10566000000E+00 0. -1.
     999900   -1    0    0    0    0 -0.00000000000E+00 -0.00000000000E+00 -0.74505805969E-08  0.93827000000E+00  0.93827000000E+00 0. -1.
     999902    2    1    2    0    0 -0.22278354281E-01 -0.89568783537E-02 -0.70675736718E-02  0.10188999913E+01  0.10185925048E+01 0.  0.
     999903    2    3    3    0    0  0.13355757923E-01 -0.87380013783E-01  0.91995150103E-01  0.12916216395E+00  0.20152267263E-01 0.  0.
         14    1    1    2    0    0  0.22278354281E-01  0.89568783537E-02  0.70675736718E-02  0.25030008728E-01  0.00000000000E+00 0. -1.
     999901    1    3    3    0    0 -0.35634112204E-01  0.78423135429E-01 -0.99062723775E-01  0.88973782732E+00  0.88000000000E+00 0. -1.
        -11    1    4    4    0    0  0.52245387262E-02 -0.58129763577E-01  0.47286178082E-01  0.75117301450E-01  0.51100000000E-03 0. -1.
         11    1    4    4    0    0  0.81312191964E-02 -0.29250250205E-01  0.44708972021E-01  0.54044862502E-01  0.51100000000E-03 0.  1.
</event>
<event>
 8    1  0.1061722E+005  0.1043930E+01  0.7957747E-01            NaN
         13   -1    0    0    0    0  0.00000000000E+00  0.00000000000E+00  0.74505805969E-08  0.10566000000E+00  0.10566000000E+00 0.  1.
     999900   -1    0    0    0    0 -0.00000000000E+00 -0.00000000000E+00 -0.74505805969E-08  0.93827000000E+00  0.93827000000E+00 0. -1.
     999902    2    1    2    0    0 -0.19536852495E-01  0.12427238141E-01  0.56715741461E-02  0.10200911324E+01  0.10198125450E+01 0.  0.
     999903    2    3    3    0    0  0.54896891742E-01  0.78804127782E-01  0.86755607338E-01  0.13075379813E+00  0.18608090781E-01 0.  0.
         14    1    1    2    0    0  0.19536852495E-01 -0.12427238141E-01 -0.56715741461E-02  0.23838867560E-01  0.00000000000E+00 0. -1.
     999901    1    3    3    0    0 -0.74433744237E-01 -0.66376889640E-01 -0.81084033192E-01  0.88933733431E+00  0.88000000000E+00 0. -1.
        -11    1    4    4    0    0  0.34514920638E-01  0.63701710461E-01  0.64022109920E-01  0.96686500309E-01  0.51100000000E-03 0.  1.
         11    1    4    4    0    0  0.20381971104E-01  0.15102417320E-01  0.22733497418E-01  0.34067297821E-01  0.51100000000E-03 0. -1.
</event>
<event>
 8    1  0.1061722E+005  0.1043930E+01  0.7957747E-01            NaN
         13   -1    0    0    0    0  0.00000000000E+00  0.00000000000E+00  0.74505805969E-08  0.10566000000E+00  0.10566000000E+00 0.  1.
     999900   -1    0    0    0    0 -0.00000000000E+00 -0.00000000000E+00 -0.74505805969E-08  0.93827000000E+00  0.93827000000E+00 0.  1.
     999902    2    1    2    0    0 -0.51544064406E-04  0.50032870696E-02 -0.23310517420E-01  0.10200885286E+01  0.10198098795E+01 0.  0.
     999903    2    3    3    0    0 -0.60866470740E-01  0.10611515773E+00 -0.45248044287E-01  0.13194252661E+00  0.19907055413E-01 0.  0.
         14    1    1    2    0    0  0.51544064406E-04 -0.50032870696E-02  0.23310517420E-01  0.23841471445E-01  0.00000000000E+00 0.  1.
     999901    1    3    3    0    0  0.60814926676E-01 -0.10111187066E+00  0.21937526867E-01  0.88814600195E+00  0.88000000000E+00 0.  1.
        -11    1    4    4    0    0 -0.33713534817E-01  0.52635255692E-01 -0.33147577415E-01  0.70753767258E-01  0.51100000000E-03 0. -1.
         11    1    4    4    0    0 -0.27152935923E-01  0.53479902035E-01 -0.12100466872E-01  0.61188759347E-01  0.51100000000E-03 0.  1.
</event>
<event>
 8    1  0.1061722E+005  0.1043930E+01  0.7957747E-01            NaN
         13   -1    0    0    0    0  0.00000000000E+00  0.00000000000E+00  0.74505805969E-08  0.10566000000E+00  0.10566000000E+00 0. -1.
     999900   -1    0    0    0    0 -0.00000000000E+00 -0.00000000000E+00 -0.74505805969E-08  0.93827000000E+00  0.93827000000E+00 0. -1.
     999902    2    1    2    0    0 -0.19056153520E-01 -0.48273575004E-03  0.15401022389E-01  0.10194236434E+01  0.10191290415E+01 0.  0.
     999903    2    3    3    0    0  0.66870501409E-01 -0.18483729571E-02  0.10993943777E+00  0.13019770648E+00  0.19740373743E-01 0.  0.
         14    1    1    2    0    0  0.19056153520E-01  0.48273575004E-03 -0.15401022389E-01  0.24506356551E-01  0.00000000000E+00 0. -1.
     999901    1    3    3    0    0 -0.85926654930E-01  0.13656372071E-02 -0.94538415377E-01  0.88922593697E+00  0.88000000000E+00 0.  1.
        -11    1    4    4    0    0  0.51066657283E-01  0.30019878671E-02  0.95055429477E-01  0.10794726125E+00  0.51100000000E-03 0. -1.
         11    1    4    4    0    0  0.15803844126E-01 -0.48503608242E-02  0.14884008289E-01  0.22250445232E-01  0.51100000000E-03 0.  1.
</event>
<event>
 8    1  0.1061722E+005  0.1043930E+01  0.7957747E-01            NaN
         13   -1    0    0    0    0  0.00000000000E+00  0.00000000000E+00  0.74505805969E-08  0.10566000000E+00  0.10566000000E+00 0.  1.
     999900   -1    0    0    0    0 -0.00000000000E+00 -0.00000000000E+00 -0.74505805969E-08  0.93827000000E+00  0.93827000000E+00 0.  1.
     999902    2    1    2    0    0 -0.57323688833E-02  0.10801155934E-01  0.19821148530E-01  0.10206404540E+01  0.10203747025E+01 0.  0.
     999903    2    3    3    0    0 -0.46694016504E-01 -0.11970748105E+00  0.14495383277E-01  0.13005709202E+00  0.13947001540E-01 0.  0.
         14    1    1    2    0    0  0.57323688833E-02 -0.10801155934E-01 -0.19821148530E-01  0.23289545972E-01  0.00000000000E+00 0. -1.
     999901    1    3    3    0    0  0.40961647620E-01  0.13050863699E+00  0.53257652533E-02  0.89058336200E+00  0.88000000000E+00 0.  1.
        -11    1    4    4    0    0 -0.28338184088E-01 -0.77983662923E-01  0.29263803852E-02  0.83026075322E-01  0.51100000000E-03 0. -1.
         11    1    4    4    0    0 -0.18355832416E-01 -0.41723818130E-01  0.11569002892E-01  0.47031016701E-01  0.51100000000E-03 0.  1.
</event>
<event>
 8    1  0.1061722E+005  0.1043930E+01  0.7957747E-01            NaN
         13   -1    0    0    0    0  0.00000000000E+00  0.00000000000E+00  0.74505805969E-08  0.10566000000E+00  0.10566000000E+00 0.  1.
     999900   -1    0    0    0    0 -0.00000000000E+00 -0.00000000000E+00 -0.74505805969E-08  0.93827000000E+00  0.93827000000E+00 0. -1.
     999902    2    1    2    0    0 -0.13597885103E-01 -0.51050698226E-02  0.18776739624E-01  0.10201912096E+01  0.10199149837E+01 0.  0.
     999903    2    3    3    0    0 -0.12570990210E-01  0.11673316577E+00  0.54780302599E-01  0.13106699631E+00  0.19824585355E-01 0.  0.
         14    1    1    2    0    0  0.13597885103E-01  0.51050698226E-02 -0.18776739624E-01  0.23738790366E-01  0.00000000000E+00 0. -1.
     999901    1    3    3    0    0 -0.10268948930E-02 -0.12183823559E+00 -0.36003562975E-01  0.88912421332E+00  0.88000000000E+00 0. -1.
        -11    1    4    4    0    0 -0.16093465027E-01  0.62098330742E-01  0.33013825519E-01  0.72148292384E-01  0.51100000000E-03 0. -1.
         11    1    4    4    0    0  0.35224748170E-02  0.54634835027E-01  0.21766477080E-01  0.58918703930E-01  0.51100000000E-03 0.  1.
</event>
<event>
 7    1  0.1061722E+005  0.1043930E+01  0.7957747E-01            NaN
         13   -1    0    0    0    0  0.00000000000E+00  0.00000000000E+00  0.74505805969E-08  0.10566000000E+00  0.10566000000E+00 0.  1.
     999900   -1    0    0    0    0 -0.00000000000E+00 -0.00000000000E+00 -0.74505805969E-08  0.93827000000E+00  0.93827000000E+00 0.  1.
     999903    2    1    2    0    0 -0.94727551769E-01  0.39690526426E-02 -0.49434308118E-01  0.10886923962E+00  0.20486533973E-01 0.  0.
         14    1    1    2    0    0  0.12934596465E-01  0.18515718553E-01 -0.40548161631E-01  0.46414319244E-01  0.00000000000E+00 0. -1.
     999901    1    1    2    0    0  0.81792955304E-01 -0.22484771196E-01  0.89982469749E-01  0.88864644113E+00  0.88000000000E+00 0.  1.
        -11    1    3    3    0    0 -0.19560825457E-01  0.25071285683E-02 -0.16722624400E-02  0.19798211255E-01  0.51100000000E-03 0.  1.
         11    1    3    3    0    0 -0.75166726313E-01  0.14619240743E-02 -0.47762045678E-01  0.89071028370E-01  0.51100000000E-03 0. -1.
</event>
<event>
 8    1  0.1061722E+005  0.1043930E+01  0.7957747E-01            NaN
         13   -1    0    0    0    0  0.00000000000E+00  0.00000000000E+00  0.74505805969E-08  0.10566000000E+00  0.10566000000E+00 0.  1.
     999900   -1    0    0    0    0 -0.00000000000E+00 -0.00000000000E+00 -0.74505805969E-08  0.93827000000E+00  0.93827000000E+00 0. -1.
     999902    2    1    2    0    0 -0.43937506021E-02 -0.21351918262E-01 -0.21672410272E-01  0.10131907283E+01  0.10127243204E+01 0.  0.
     999903    2    3    3    0    0 -0.44416147375E-01  0.11153944687E+00  0.59515725514E-02  0.12188551032E+00  0.20169631947E-01 0.  0.
         14    1    1    2    0    0  0.43937506021E-02  0.21351918262E-01  0.21672410272E-01  0.30739271703E-01  0.00000000000E+00 0.  1.
     999901    1    3    3    0    0  0.40022396772E-01 -0.13289136514E+00 -0.27623982823E-01  0.89130521798E+00  0.88000000000E+00 0.  1.
        -11    1    4    4    0    0 -0.32152177640E-01  0.99255615334E-01  0.61955936715E-02  0.10451835343E+00  0.51100000000E-03 0.  1.
         11    1    4    4    0    0 -0.12263969734E-01  0.12283831541E-01 -0.24402112007E-03  0.17367156885E-01  0.51100000000E-03 0. -1.
</event>
<event>
 8    1  0.1061722E+005  0.1043930E+01  0.7957747E-01            NaN
         13   -1    0    0    0    0  0.00000000000E+00  0.00000000000E+00  0.74505805969E-08  0.10566000000E+00  0.10566000000E+00 0.  1.
     999900   -1    0    0    0    0 -0.00000000000E+00 -0.00000000000E+00 -0.74505805969E-08  0.93827000000E+00  0.93827000000E+00 0. -1.
     999902    2    1    2    0    0 -0.15414497441E-01  0.10896679570E-01  0.14664135079E-01  0.10200264184E+01  0.10197462983E+01 0.  0.
     999903    2    3    3    0    0 -0.57463125068E-01 -0.33187326468E-01 -0.10959948516E+00  0.12921053729E+00  0.16730404049E-01 0.  0.
         14    1    1    2    0    0  0.15414497441E-01 -0.10896679570E-01 -0.14664135079E-01  0.23903581628E-01  0.00000000000E+00 0. -1.
     999901    1    3    3    0    0  0.42048627627E-01  0.44084006038E-01  0.12426362024E+00  0.89081588108E+00  0.88000000000E+00 0.  1.
        -11    1    4    4    0    0 -0.40908319865E-01 -0.31794601777E-01 -0.83022676518E-01  0.97864259429E-01  0.51100000000E-03 0.  1.
         11    1    4    4    0    0 -0.16554805202E-01 -0.13927246909E-02 -0.26576808639E-01  0.31346277861E-01  0.51100000000E-03 0. -1.
</event>
<event>
 8    1  0.1061722E+005  0.1043930E+01  0.7957747E-01            NaN
         13   -1    0    0    0    0  0.00000000000E+00  0.00000000000E+00  0.74505805969E-08  0.10566000000E+00  0.10566000000E+00 0.  1.
     999900   -1    0    0    0    0 -0.00000000000E+00 -0.00000000000E+00 -0.74505805969E-08  0.93827000000E+00  0.93827000000E+00 0.  1.
     999902    2    1    2    0    0  0.11843688652E-01 -0.21082068700E-01 -0.31300733564E-03  0.10197468539E+01  0.10194600637E+01 0.  0.
     999903    2    3    3    0    0  0.51283472420E-01  0.21813002620E-01  0.11369621556E+00  0.13048109689E+00  0.31506913321E-01 0.  0.
         14    1    1    2    0    0 -0.11843688652E-01  0.21082068700E-01  0.31300733564E-03  0.24183146097E-01  0.00000000000E+00 0.  1.
     999901    1    3    3    0    0 -0.39439783769E-01 -0.42895071320E-01 -0.11400922289E+00  0.88926575701E+00  0.88000000000E+00 0.  1.
        -11    1    4    4    0    0 -0.38619416453E-02  0.18292116497E-03  0.13810628123E-01  0.14350701153E-01  0.51100000000E-03 0.  1.
         11    1    4    4    0    0  0.55145414066E-01  0.21630081455E-01  0.99885587436E-01  0.11613039574E+00  0.51100000000E-03 0. -1.
</event>
<event>
 8    1  0.1061722E+005  0.1043930E+01  0.7957747E-01            NaN
         13   -1    0    0    0    0  0.00000000000E+00  0.00000000000E+00  0.74505805969E-08  0.10566000000E+00  0.10566000000E+00 0.  1.
     999900   -1    0    0    0    0 -0.00000000000E+00 -0.00000000000E+00 -0.74505805969E-08  0.93827000000E+00  0.93827000000E+00 0.  1.
     999902    2    1    2    0    0  0.18932106930E-01 -0.10525395047E-01 -0.93685348877E-02  0.10203296174E+01  0.10200566406E+01 0.  0.
     999903    2    3    3    0    0  0.41197954409E-01  0.83055509744E-01  0.87209971146E-01  0.12983505730E+00  0.25613939392E-01 0.  0.
         14    1    1    2    0    0 -0.18932106930E-01  0.10525395047E-01  0.93685348877E-02  0.23600382617E-01  0.00000000000E+00 0.  1.
     999901    1    3    3    0    0 -0.22265847479E-01 -0.93580904791E-01 -0.96578506034E-01  0.89049456008E+00  0.88000000000E+00 0.  1.
        -11    1    4    4    0    0  0.19927342492E-01  0.27229810512E-01  0.17456411163E-01  0.37994064945E-01  0.51100000000E-03 0.  1.
         11    1    4    4    0    0  0.21270611917E-01  0.55825699232E-01  0.69753559982E-01  0.91840992358E-01  0.51100000000E-03 0. -1.
</event>
<event>
 8    1  0.1061722E+005  0.1043930E+01  0.7957747E-01            NaN
         13   -1    0    0    0    0  0.00000000000E+00  0.00000000000E+00  0.74505805969E-08  0.10566000000E+00  0.10566000000E+00 0.  1.
     999900   -1    0    0    0    0 -0.00000000000E+00 -0.00000000000E+00 -0.74505805969E-08  0.93827000000E+00  0.93827000000E+00 0. -1.
     999902    2    1    2    0    0 -0.51414896120E-02  0.60431126051E-02  0.22621155867E-01  0.10199577073E+01  0.10196759553E+01 0.  0.
     999903    2    3    3    0    0  0.96845848292E-03  0.10507442328E+00 -0.72591035570E-01  0.12927825127E+00  0.20045834194E-01 0.  0.
         14    1    1    2    0    0  0.51414896120E-02 -0.60431126051E-02 -0.22621155867E-01  0.23972292718E-01  0.00000000000E+00 0. -1.
     999901    1    3    3    0    0 -0.61099480950E-02 -0.99031310670E-01  0.95212191437E-01  0.89067945601E+00  0.88000000000E+00 0.  1.
        -11    1    4    4    0    0  0.18861203876E-02  0.19663990234E-01 -0.23705225447E-01  0.30861445147E-01  0.51100000000E-03 0. -1.
         11    1    4    4    0    0 -0.91766190466E-03  0.85410433041E-01 -0.48885810122E-01  0.98416806126E-01  0.51100000000E-03 0.  1.
</event>
<event>
 8    1  0.1061722E+005  0.1043930E+01  0.7957747E-01            NaN
         13   -1    0    0    0    0  0.00000000000E+00  0.00000000000E+00  0.74505805969E-08  0.10566000000E+00  0.10566000000E+00 0.  1.
     999900   -1    0    0    0    0 -0.00000000000E+00 -0.00000000000E+00 -0.74505805969E-08  0.93827000000E+00  0.93827000000E+00 0. -1.
     999902    2    1    2    0    0 -0.22599912197E-01  0.50731185314E-02 -0.63153366974E-02  0.10199221671E+01  0.10196395691E+01 0.  0.
     999903    2    3    3    0    0 -0.56129420887E-01  0.44238559991E-01 -0.10891093003E+00  0.13246286351E+00  0.24026182593E-01 0.  0.
         14    1    1    2    0    0  0.22599912197E-01 -0.50731185314E-02  0.63153366974E-02  0.24007832900E-01  0.00000000000E+00 0. -1.
     999901    1    3    3    0    0  0.33529508690E-01 -0.39165441459E-01  0.10259559333E+00  0.88745930359E+00  0.88000000000E+00 0.  1.
        -11    1    4    4    0    0 -0.91458350968E-02  0.21132973845E-01 -0.33962195766E-01  0.41035847078E-01  0.51100000000E-03 0.  1.
         11    1    4    4    0    0 -0.46983585790E-01  0.23105586146E-01 -0.74948734264E-01  0.91427016432E-01  0.51100000000E-03 0. -1.
</event>
<event>
 8    1  0.1061722E+005  0.1043930E+01  0.7957747E-01            NaN
         13   -1    0    0    0    0  0.00000000000E+00  0.00000000000E+00  0.74505805969E-08  0.10566000000E+00  0.10566000000E+00 0. -1.
     999900   -1    0    0    0    0 -0.00000000000E+00 -0.00000000000E+00 -0.74505805969E-08  0.93827000000E+00  0.93827000000E+00 0.  1.
     999902    2    1    2    0    0 -0.14289817331E-01  0.16602840878E-01  0.94904546346E-02  0.10200569622E+01  0.10197775660E+01 0.  0.
     999903    2    3    3    0    0  0.18937557249E-01  0.10348956113E+00  0.77348184176E-01  0.13255595824E+00  0.22795177791E-01 0.  0.
         14    1    1    2    0    0  0.14289817331E-01 -0.16602840878E-01 -0.94904546346E-02  0.23873037799E-01  0.00000000000E+00 0.  1.
     999901    1    3    3    0    0 -0.33227374580E-01 -0.86886720256E-01 -0.67857729541E-01  0.88750100396E+00  0.88000000000E+00 0.  1.
        -11    1    4    4    0    0  0.50377561097E-02  0.79290271738E-01  0.52906102013E-01  0.95454926170E-01  0.51100000000E-03 0.  1.
         11    1    4    4    0    0  0.13899801139E-01  0.24199289397E-01  0.24442082163E-01  0.37101032067E-01  0.51100000000E-03 0. -1.
</event>
<event>
 8    1  0.1061722E+005  0.1043930E+01  0.7957747E-01            NaN
         13   -1    0    0    0    0  0.00000000000E+00  0.00000000000E+00  0.74505805969E-08  0.10566000000E+00  0.10566000000E+00 0.  1.
     999900   -1    0    0    0    0 -0.00000000000E+00 -0.00000000000E+00 -0.74505805969E-08  0.93827000000E+00  0.93827000000E+00 0.  1.
     999902    2    1    2    0    0  0.50925736507E-02 -0.22289108355E-01 -0.71716676435E-02  0.10199681246E+01  0.10196866203E+01 0.  0.
     999903    2    3    3    0    0  0.86848224460E-01 -0.77829890857E-01 -0.60820218872E-01  0.13281146872E+00  0.18430442122E-01 0.  0.
         14    1    1    2    0    0 -0.50925736507E-02  0.22289108355E-01  0.71716676435E-02  0.23961875437E-01  0.00000000000E+00 0.  1.
     999901    1    3    3    0    0 -0.81755650810E-01  0.55540782502E-01  0.53648551228E-01  0.88715665584E+00  0.88000000000E+00 0. -1.
        -11    1    4    4    0    0  0.49432255151E-01 -0.42934602781E-01 -0.23842006040E-01  0.69682353134E-01  0.51100000000E-03 0. -1.
         11    1    4    4    0    0  0.37415969309E-01 -0.34895288077E-01 -0.36978212831E-01  0.63129115585E-01  0.51100000000E-03 0.  1.
</event>
<event>
 8    1  0.1061722E+005  0.1043930E+01  0.7957747E-01            NaN
         13   -1    0    0    0    0  0.00000000000E+00  0.00000000000E+00  0.74505805969E-08  0.10566000000E+00  0.10566000000E+00 0.  1.
     999900   -1    0    0    0    0 -0.00000000000E+00 -0.00000000000E+00 -0.74505805969E-08  0.93827000000E+00  0.93827000000E+00 0.  1.
     999902    2    1    2    0    0 -0.59302439185E-02 -0.14608904002E-01  0.15429218883E-01  0.10218698852E+01  0.10216317407E+01 0.  0.
     999903    2    3    3    0    0 -0.48082596675E-01  0.10766556557E+00 -0.50789797889E-01  0.12995462863E+00  0.20119438862E-01 0.  0.
         14    1    1    2    0    0  0.59302439185E-02  0.14608904002E-01 -0.15429218883E-01  0.22060114787E-01  0.00000000000E+00 0. -1.
     999901    1    3    3    0    0  0.42152352757E-01 -0.12227446957E+00  0.66219016772E-01  0.89191525659E+00  0.88000000000E+00 0.  1.
        -11    1    4    4    0    0 -0.48321396285E-01  0.92117423112E-01 -0.43083245991E-01  0.11259220304E+00  0.51100000000E-03 0. -1.
         11    1    4    4    0    0  0.23879960944E-03  0.15548142453E-01 -0.77065518977E-02  0.17362425584E-01  0.51100000000E-03 0.  1.
</event>
<event>
 7    1  0.1061722E+005  0.1043930E+01  0.7957747E-01            NaN
         13   -1    0    0    0    0  0.00000000000E+00  0.00000000000E+00  0.74505805969E-08  0.10566000000E+00  0.10566000000E+00 0.  1.
     999900   -1    0    0    0    0 -0.00000000000E+00 -0.00000000000E+00 -0.74505805969E-08  0.93827000000E+00  0.93827000000E+00 0.  1.
     999902    2    1    2    0    0  0.99851472633E-02 -0.22665786276E-03 -0.22087845731E-01  0.10196889714E+01  0.10194007901E+01 0.  0.
         14    1    1    2    0    0 -0.99851472633E-02  0.22665786276E-03  0.22087845731E-01  0.24241028622E-01  0.00000000000E+00 0.  1.
     999901    1    3    3    0    0 -0.11537562702E+00  0.12304863200E-01 -0.52371672431E-02  0.88763189042E+00  0.88000000000E+00 0.  1.
        -11    1    3    3    0    0  0.23049239253E-01 -0.16719388230E-01 -0.58021932134E-02  0.29064272569E-01  0.51100000000E-03 0. -1.
         11    1    3    3    0    0  0.10231153503E+00  0.41878671670E-02 -0.11048485274E-01  0.10299280839E+00  0.51100000000E-03 0.  1.
</event>
<event>
 8    1  0.1061722E+005  0.1043930E+01  0.7957747E-01            NaN
         13   -1    0    0    0    0  0.00000000000E+00  0.00000000000E+00  0.74505805969E-08  0.10566000000E+00  0.10566000000E+00 0. -1.
     999900   -1    0    0    0    0 -0.00000000000E+00 -0.00000000000E+00 -0.74505805969E-08  0.93827000000E+00  0.93827000000E+00 0.  1.
     999902    2    1    2    0    0  0.53121474945E-02  0.14937866753E-01 -0.19807440219E-01  0.10185588853E+01  0.10182428538E+01 0.  0.
     999903    2    3    3    0    0 -0.10870569785E+00  0.16853819467E-01  0.61334683248E-01  0.12749896354E+00  0.19825800360E-01 0.  0.
         14    1    1    2    0    0 -0.53121474945E-02 -0.14937866753E-01  0.19807440219E-01  0.25371114720E-01  0.00000000000E+00 0. -1.
     999901    1    3    3    0    0  0.11401784534E+00 -0.19159527146E-02 -0.81142123466E-01  0.89105992174E+00  0.88000000000E+00 0.  1.
        -11    1    4    4    0    0 -0.63422490171E-01  0.18399324962E-01  0.30875827879E-01  0.72900790714E-01  0.51100000000E-03 0. -1.
         11    1    4    4    0    0 -0.45283207675E-01 -0.15455054946E-02  0.30458855368E-01  0.54598172826E-01  0.51100000000E-03 0.  1.
</event>
<event>
 8    1  0.1061722E+005  0.1043930E+01  0.7957747E-01            NaN
         13   -1    0    0    0    0  0.00000000000E+00  0.00000000000E+00  0.74505805969E-08  0.10566000000E+00  0.10566000000E+00 0. -1.
     999900   -1    0    0    0    0 -0.00000000000E+00 -0.00000000000E+00 -0.74505805969E-08  0.93827000000E+00  0.93827000000E+00 0. -1.
     999902    2    1    2    0    0  0.91541538467E-02 -0.21632077766E-01 -0.34697957528E-02  0.10201858470E+01  0.10199094948E+01 0.  0.
     999903    2    3    3    0    0 -0.72641221108E-01 -0.56406434900E-01 -0.91643456334E-01  0.13132459024E+00  0.19727949967E-01 0.  0.
         14    1    1    2    0    0 -0.91541538467E-02  0.21632077766E-01  0.34697957528E-02  0.23744153042E-01  0.00000000000E+00 0. -1.
     999901    1    3    3    0    0  0.81795374955E-01  0.34774357134E-01  0.88173660581E-01  0.88886125672E+00  0.88000000000E+00 0.  1.
        -11    1    4    4    0    0 -0.49579517396E-01 -0.47599816158E-01 -0.60383248330E-01  0.91489173367E-01  0.51100000000E-03 0.  1.
         11    1    4    4    0    0 -0.23061703712E-01 -0.88066187425E-02 -0.31260208004E-01  0.39835416870E-01  0.51100000000E-03 0. -1.
</event>
<event>
 8    1  0.1061722E+005  0.1043930E+01  0.7957747E-01            NaN
         13   -1    0    0    0    0  0.00000000000E+00  0.00000000000E+00  0.74505805969E-08  0.10566000000E+00  0.10566000000E+00 0. -1.
     999900   -1    0    0    0    0 -0.00000000000E+00 -0.00000000000E+00 -0.74505805969E-08  0.93827000000E+00  0.93827000000E+00 0. -1.
     999902    2    1    2    0    0  0.30606546525E-03  0.19832440192E-01  0.14486000525E-01  0.10193685755E+01  0.10190726320E+01 0.  0.
     999903    2    3    3    0    0 -0.74307479574E-01  0.10448325230E+00  0.24750031219E-01  0.13210407641E+00  0.20014280590E-01 0.  0.
         14    1    1    2    0    0 -0.30606546525E-03 -0.19832440192E-01 -0.14486000525E-01  0.24561424454E-01  0.00000000000E+00 0.  1.
     999901    1    3    3    0    0  0.74613545039E-01 -0.84650812110E-01 -0.10264030694E-01  0.88726449913E+00  0.88000000000E+00 0.  1.
        -11    1    4    4    0    0 -0.34510297217E-01  0.39416891880E-01  0.16848421589E-02  0.52419002219E-01  0.51100000000E-03 0. -1.
         11    1    4    4    0    0 -0.39797182357E-01  0.65066360422E-01  0.23065189060E-01  0.79685074195E-01  0.51100000000E-03 0.  1.
</event>
<event>
 8    1  0.1061722E+005  0.1043930E+01  0.7957747E-01            NaN
         13   -1    0    0    0    0  0.00000000000E+00  0.00000000000E+00  0.74505805969E-08  0.10566000000E+00  0.10566000000E+00 0. -1.
     999900   -1    0    0    0    0 -0.00000000000E+00 -0.00000000000E+00 -0.74505805969E-08  0.93827000000E+00  0.93827000000E+00 0. -1.
     999902    2    1    2    0    0 -0.21747193149E-01  0.72105903377E-02 -0.58552968691E-02  0.10202822195E+01  0.10200081322E+01 0.  0.
     999903    2    3    3    0    0 -0.35672795359E-01 -0.49767233008E-01 -0.11474768724E+00  0.13163271182E+00  0.20268529449E-01 0.  0.
         14    1    1    2    0    0  0.21747193149E-01 -0.72105903377E-02  0.58552968691E-02  0.23647780536E-01  0.00000000000E+00 0.  1.
     999901    1    3    3    0    0  0.13925602211E-01  0.56977823346E-01  0.10889239037E+00  0.88864950764E+00  0.88000000000E+00 0.  1.
        -11    1    4    4    0    0 -0.17574906450E-01 -0.36903883737E-01 -0.60509871526E-01  0.73023829294E-01  0.51100000000E-03 0.  1.
         11    1    4    4    0    0 -0.18097888910E-01 -0.12863349271E-01 -0.54237815709E-01  0.58608882529E-01  0.51100000000E-03 0. -1.
</event>
<event>
 8    1  0.1061722E+005  0.1043930E+01  0.7957747E-01            NaN
         13   -1    0    0    0    0  0.00000000000E+00  0.00000000000E+00  0.74505805969E-08  0.10566000000E+00  0.10566000000E+00 0. -1.
     999900   -1    0    0    0    0 -0.00000000000E+00 -0.00000000000E+00 -0.74505805969E-08  0.93827000000E+00  0.93827000000E+00 0.  1.
     999902    2    1    2    0    0 -0.22953869593E-01  0.14285131426E-01  0.41277036439E-02  0.10165807213E+01  0.10162127631E+01 0.  0.
     999903    2    3    3    0    0 -0.19018124143E-01 -0.92988422850E-01 -0.80654519721E-01  0.12601285136E+00  0.19119396586E-01 0.  0.
         14    1    1    2    0    0  0.22953869593E-01 -0.14285131426E-01 -0.41277036439E-02  0.27349278720E-01  0.00000000000E+00 0. -1.
     999901    1    3    3    0    0 -0.39357454500E-02  0.10727355428E+00  0.84782223365E-01  0.89056786992E+00  0.88000000000E+00 0. -1.
        -11    1    4    4    0    0 -0.14918755327E-01 -0.62677479509E-01 -0.42835876799E-01  0.77370596225E-01  0.51100000000E-03 0. -1.
         11    1    4    4    0    0 -0.40993688159E-02 -0.30310943341E-01 -0.37818642921E-01  0.48642255132E-01  0.51100000000E-03 0.  1.
</event>
<event>
 7    1  0.1061722E+005  0.1043930E+01  0.7957747E-01            NaN
         13   -1    0    0    0    0  0.00000000000E+00  0.00000000000E+00  0.74505805969E-08  0.10566000000E+00  0.10566000000E+00 0.  1.
     999900   -1    0    0    0    0 -0.00000000000E+00 -0.00000000000E+00 -0.74505805969E-08  0.93827000000E+00  0.93827000000E+00 0. -1.
     999902    2    1    2    0    0  0.27330675567E-02 -0.22922942104E-01 -0.49779649721E-02  0.10203140929E+01  0.10200407527E+01 0.  0.
         14    1    1    2    0    0 -0.27330675567E-02  0.22922942104E-01  0.49779649721E-02  0.23615907102E-01  0.00000000000E+00 0.  1.
     999901    1    3    3    0    0 -0.80902596150E-01  0.66656811744E-01  0.16957755843E-02  0.88622301723E+00  0.88000000000E+00 0. -1.
        -11    1    3    3    0    0  0.18305692339E-01 -0.75165120589E-02  0.17529717845E-01  0.26441415512E-01  0.51100000000E-03 0. -1.
         11    1    3    3    0    0  0.65329971367E-01 -0.82063241790E-01 -0.24203458401E-01  0.10764966015E+00  0.51100000000E-03 0.  1.
</event>
<event>
 8    1  0.1061722E+005  0.1043930E+01  0.7957747E-01            NaN
         13   -1    0    0    0    0  0.00000000000E+00  0.00000000000E+00  0.74505805969E-08  0.10566000000E+00  0.10566000000E+00 0. -1.
     999900   -1    0    0    0    0 -0.00000000000E+00 -0.00000000000E+00 -0.74505805969E-08  0.93827000000E+00  0.93827000000E+00 0. -1.
     999902    2    1    2    0    0  0.20389843404E-01 -0.18336602290E-01 -0.12774370449E-01  0.10136783680E+01  0.10132268613E+01 0.  0.
     999903    2    3    3    0    0 -0.73333383741E-02 -0.97847242621E-01 -0.78525384568E-01  0.12721702504E+00  0.19750308785E-01 0.  0.
         14    1    1    2    0    0 -0.20389843404E-01  0.18336602290E-01  0.12774370449E-01  0.30251631988E-01  0.00000000000E+00 0. -1.
     999901    1    3    3    0    0  0.27723181778E-01  0.79510640331E-01  0.65751014119E-01  0.88646134298E+00  0.88000000000E+00 0.  1.
        -11    1    4    4    0    0 -0.94854443560E-02 -0.32269229960E-01 -0.34597764988E-01  0.48254982334E-01  0.51100000000E-03 0.  1.
         11    1    4    4    0    0  0.21521059819E-02 -0.65578012661E-01 -0.43927619579E-01  0.78962042701E-01  0.51100000000E-03 0. -1.
</event>
<event>
 8    1  0.1061722E+005  0.1043930E+01  0.7957747E-01            NaN
         13   -1    0    0    0    0  0.00000000000E+00  0.00000000000E+00  0.74505805969E-08  0.10566000000E+00  0.10566000000E+00 0. -1.
     999900   -1    0    0    0    0 -0.00000000000E+00 -0.00000000000E+00 -0.74505805969E-08  0.93827000000E+00  0.93827000000E+00 0. -1.
     999902    2    1    2    0    0 -0.22937597802E-01 -0.43571874459E-02  0.24800625133E-02  0.10204508777E+01  0.10201807313E+01 0.  0.
     999903    2    3    3    0    0 -0.11763320026E+00 -0.53678969264E-01 -0.26810266368E-01  0.13351355257E+00  0.19699664781E-01 0.  0.
         14    1    1    2    0    0  0.22937597802E-01  0.43571874459E-02 -0.24800625133E-02  0.23479122331E-01  0.00000000000E+00 0.  1.
     999901    1    3    3    0    0  0.94695602459E-01  0.49321781818E-01  0.29290328881E-01  0.88693732510E+00  0.88000000000E+00 0.  1.
        -11    1    4    4    0    0 -0.62988700075E-01 -0.38897370422E-01 -0.12015066095E-01  0.75001364635E-01  0.51100000000E-03 0.  1.
         11    1    4    4    0    0 -0.54644500186E-01 -0.14781598842E-01 -0.14795200273E-01  0.58512187936E-01  0.51100000000E-03 0. -1.
</event>
<event>
 8    1  0.1814541E+005  0.1043930E+01  0.7957747E-01            NaN
         13   -1    0    0    0    0  0.00000000000E+00  0.00000000000E+00  0.74505805969E-08  0.10566000000E+00  0.10566000000E+00 0.  1.
     999900   -1    0    0    0    0 -0.00000000000E+00 -0.00000000000E+00 -0.74505805969E-08  0.93827000000E+00  0.93827000000E+00 0.  1.
     999902    2    1    2    0    0 -0.11741672015E-01 -0.15141069605E-01  0.13996383423E-01  0.10202020081E+01  0.10199260364E+01 0.  0.
     999903    2    3    3    0    0  0.11314332156E+00  0.57092003351E-01  0.54731808475E-02  0.12841362321E+00  0.19979861309E-01 0.  0.
         14    1    1    2    0    0  0.11741672015E-01  0.15141069605E-01 -0.13996383423E-01  0.23727991896E-01  0.00000000000E+00 0. -1.
     999901    1    3    3    0    0 -0.12488499357E+00 -0.72233072956E-01  0.85232025756E-02  0.89178838489E+00  0.88000000000E+00 0. -1.
        -11    1    4    4    0    0  0.52095391122E-01  0.15390511187E-01  0.73340076973E-03  0.54328598440E-01  0.51100000000E-03 0. -1.
         11    1    4    4    0    0  0.61047930436E-01  0.41701492164E-01  0.47397800778E-02  0.74085024772E-01  0.51100000000E-03 0.  1.
</event>
<event>
 8    1  0.1061722E+005  0.1043930E+01  0.7957747E-01            NaN
         13   -1    0    0    0    0  0.00000000000E+00  0.00000000000E+00  0.74505805969E-08  0.10566000000E+00  0.10566000000E+00 0. -1.
     999900   -1    0    0    0    0 -0.00000000000E+00 -0.00000000000E+00 -0.74505805969E-08  0.93827000000E+00  0.93827000000E+00 0. -1.
     999902    2    1    2    0    0  0.19140310792E-01 -0.12991816500E-01 -0.16287714798E-02  0.10207396639E+01  0.10204761975E+01 0.  0.
     999903    2    3    3    0    0  0.65614243181E-01  0.53783429835E-01  0.98589022690E-01  0.13132279525E+00  0.18110630168E-01 0.  0.
         14    1    1    2    0    0 -0.19140310792E-01  0.12991816500E-01  0.16287714798E-02  0.23190336128E-01  0.00000000000E+00 0. -1.
     999901    1    3    3    0    0 -0.46473932389E-01 -0.66775246335E-01 -0.10021779417E+00  0.88941686862E+00  0.88000000000E+00 0. -1.
        -11    1    4    4    0    0  0.47889339477E-01  0.34216707791E-01  0.56196196396E-01  0.81378409532E-01  0.51100000000E-03 0.  1.
         11    1    4    4    0    0  0.17724903705E-01  0.19566722044E-01  0.42392826294E-01  0.49944385722E-01  0.51100000000E-03 0. -1.
</event>
<event>
 8    1  0.1061722E+005  0.1043930E+01  0.7957747E-01            NaN
         13   -1    0    0    0    0  0.00000000000E+00  0.00000000000E+00  0.74505805969E-08  0.10566000000E+00  0.10566000000E+00 0. -1.
     999900   -1    0    0    0    0 -0.00000000000E+00 -0.00000000000E+00 -0.74505805969E-08  0.93827000000E+00  0.93827000000E+00 0. -1.
     999902    2    1    2    0    0 -0.79950931931E-02  0.13650381013E-01  0.17249445792E-01  0.10205249194E+01  0.10202564939E+01 0.  0.
     999903    2    3    3    0    0  0.72179122787E-01  0.29680771732E-01 -0.10064183707E+00  0.12890659698E+00  0.19933825514E-01 0.  0.
         14    1    1    2    0    0  0.79950931931E-02 -0.13650381013E-01 -0.17249445792E-01  0.23405080583E-01  0.00000000000E+00 0.  1.
     999901    1    3    3    0    0 -0.80174215980E-01 -0.16030390719E-01  0.11789128286E+00  0.89161832244E+00  0.88000000000E+00 0.  1.
        -11    1    4    4    0    0  0.17618600796E-01 -0.42339679196E-03 -0.29152331966E-01  0.34069252103E-01  0.51100000000E-03 0.  1.
         11    1    4    4    0    0  0.54560521991E-01  0.30104168524E-01 -0.71489505100E-01  0.94837344875E-01  0.51100000000E-03 0. -1.
</event>
<event>
 8    1  0.1061722E+005  0.1043930E+01  0.7957747E-01            NaN
         13   -1    0    0    0    0  0.00000000000E+00  0.00000000000E+00  0.74505805969E-08  0.10566000000E+00  0.10566000000E+00 0. -1.
     999900   -1    0    0    0    0 -0.00000000000E+00 -0.00000000000E+00 -0.74505805969E-08  0.93827000000E+00  0.93827000000E+00 0. -1.
     999902    2    1    2    0    0 -0.11059651040E-02  0.48135687585E-02 -0.23618732176E-01  0.10198003893E+01  0.10195148826E+01 0.  0.
     999903    2    3    3    0    0  0.50918742102E-01 -0.11276679468E+00 -0.35541808042E-01  0.13037705266E+00  0.20637041004E-01 0.  0.
         14    1    1    2    0    0  0.11059651040E-02 -0.48135687585E-02  0.23618732176E-01  0.24129610702E-01  0.00000000000E+00 0. -1.
     999901    1    3    3    0    0 -0.52024707206E-01  0.11758036344E+00  0.11923075866E-01  0.88942333664E+00  0.88000000000E+00 0. -1.
        -11    1    4    4    0    0  0.23864752336E-01 -0.47745252017E-01 -0.25771808756E-01  0.59275481793E-01  0.51100000000E-03 0.  1.
         11    1    4    4    0    0  0.27053989767E-01 -0.65021542660E-01 -0.97699992855E-02  0.71101570863E-01  0.51100000000E-03 0. -1.
</event>
<event>
 8    1  0.1061722E+005  0.1043930E+01  0.7957747E-01            NaN
         13   -1    0    0    0    0  0.00000000000E+00  0.00000000000E+00  0.74505805969E-08  0.10566000000E+00  0.10566000000E+00 0.  1.
     999900   -1    0    0    0    0 -0.00000000000E+00 -0.00000000000E+00 -0.74505805969E-08  0.93827000000E+00  0.93827000000E+00 0. -1.
     999902    2    1    2    0    0  0.59024188414E-02 -0.16555087857E-02 -0.23588203639E-01  0.10195582416E+01  0.10192669059E+01 0.  0.
     999903    2    3    3    0    0  0.11638245691E+00 -0.10697144471E-01 -0.57771510665E-01  0.13194566367E+00  0.20317616523E-01 0.  0.
         14    1    1    2    0    0 -0.59024188414E-02  0.16555087857E-02  0.23588203639E-01  0.24371758419E-01  0.00000000000E+00 0.  1.
     999901    1    3    3    0    0 -0.11048003807E+00  0.90416356857E-02  0.34183307027E-01  0.88761257791E+00  0.88000000000E+00 0.  1.
        -11    1    4    4    0    0  0.27154595255E-01 -0.15568370789E-02 -0.23420218735E-01  0.35896567409E-01  0.51100000000E-03 0. -1.
         11    1    4    4    0    0  0.89227861653E-01 -0.91403073926E-02 -0.34351291930E-01  0.96049096261E-01  0.51100000000E-03 0.  1.
</event>
<event>
 8    1  0.1061722E+005  0.1043930E+01  0.7957747E-01            NaN
         13   -1    0    0    0    0  0.00000000000E+00  0.00000000000E+00  0.74505805969E-08  0.10566000000E+00  0.10566000000E+00 0. -1.
     999900   -1    0    0    0    0 -0.00000000000E+00 -0.00000000000E+00 -0.74505805969E-08  0.93827000000E+00  0.93827000000E+00 0. -1.
     999902    2    1    2    0    0 -0.61826258187E-02  0.14702766082E-01 -0.16869662108E-01  0.10207140208E+01  0.10204499647E+01 0.  0.
     999903    2    3    3    0    0 -0.10050539188E+00  0.11436555833E-01 -0.84067603111E-01  0.13312007328E+00  0.20529574062E-01 0.  0.
         14    1    1    2    0    0  0.61826258187E-02 -0.14702766082E-01  0.16869662108E-01  0.23215979240E-01  0.00000000000E+00 0. -1.
     999901    1    3    3    0    0  0.94322766060E-01  0.32662102484E-02  0.67197941004E-01  0.88759394748E+00  0.88000000000E+00 0.  1.
        -11    1    4    4    0    0 -0.53017865263E-01  0.25274905430E-03 -0.54672811302E-01  0.76159932614E-01  0.51100000000E-03 0.  1.
         11    1    4    4    0    0 -0.47487526617E-01  0.11183806779E-01 -0.29394791809E-01  0.56960140667E-01  0.51100000000E-03 0. -1.
</event>
<event>
 8    1  0.1061722E+005  0.1043930E+01  0.7957747E-01            NaN
         13   -1    0    0    0    0  0.00000000000E+00  0.00000000000E+00  0.74505805969E-08  0.10566000000E+00  0.10566000000E+00 0. -1.
     999900   -1    0    0    0    0 -0.00000000000E+00 -0.00000000000E+00 -0.74505805969E-08  0.93827000000E+00  0.93827000000E+00 0.  1.
     999902    2    1    2    0    0 -0.41513802816E-02 -0.16963807980E-01 -0.15479080535E-01  0.10205931906E+01  0.10203263468E+01 0.  0.
     999903    2    3    3    0    0  0.85643305586E-02 -0.12216528079E+00 -0.49084181668E-01  0.13359919850E+00  0.21018690754E-01 0.  0.
         14    1    1    2    0    0  0.41513802816E-02  0.16963807980E-01  0.15479080535E-01  0.23336809414E-01  0.00000000000E+00 0. -1.
     999901    1    3    3    0    0 -0.12715710840E-01  0.10520147281E+00  0.33605101133E-01  0.88699399209E+00  0.88000000000E+00 0. -1.
        -11    1    4    4    0    0  0.10559430454E-01 -0.28291702775E-01 -0.14861888911E-01  0.33660939981E-01  0.51100000000E-03 0.  1.
         11    1    4    4    0    0 -0.19950998954E-02 -0.93873578012E-01 -0.34222292756E-01  0.99938258514E-01  0.51100000000E-03 0. -1.
</event>
<event>
 8    1  0.1061722E+005  0.1043930E+01  0.7957747E-01            NaN
         13   -1    0    0    0    0  0.00000000000E+00  0.00000000000E+00  0.74505805969E-08  0.10566000000E+00  0.10566000000E+00 0.  1.
     999900   -1    0    0    0    0 -0.00000000000E+00 -0.00000000000E+00 -0.74505805969E-08  0.93827000000E+00  0.93827000000E+00 0.  1.
     999902    2    1    2    0    0  0.16295535642E-01  0.12683816555E-01 -0.10181396658E-01  0.10209064355E+01  0.10206467878E+01 0.  0.
     999903    2    3    3    0    0  0.47386206011E-01 -0.67025069887E-01  0.98996472542E-01  0.13004171879E+00  0.19306334102E-01 0.  0.
         14    1    1    2    0    0 -0.16295535642E-01 -0.12683816555E-01  0.10181396658E-01  0.23023564497E-01  0.00000000000E+00 0.  1.
     999901    1    3    3    0    0 -0.31090670368E-01  0.79708886442E-01 -0.10917786920E+00  0.89086471671E+00  0.88000000000E+00 0.  1.
        -11    1    4    4    0    0  0.29680307764E-02 -0.33143166782E-02  0.14937354737E-01  0.15594216533E-01  0.51100000000E-03 0.  1.
         11    1    4    4    0    0  0.44418175234E-01 -0.63710753209E-01  0.84059117804E-01  0.11444750226E+00  0.51100000000E-03 0. -1.
</event>
<event>
 8    1  0.1061722E+005  0.1043930E+01  0.7957747E-01            NaN
         13   -1    0    0    0    0  0.00000000000E+00  0.00000000000E+00  0.74505805969E-08  0.10566000000E+00  0.10566000000E+00 0. -1.
     999900   -1    0    0    0    0 -0.00000000000E+00 -0.00000000000E+00 -0.74505805969E-08  0.93827000000E+00  0.93827000000E+00 0. -1.
     999902    2    1    2    0    0  0.22541990982E-02 -0.23386426269E-01  0.32703278870E-02  0.10202086722E+01  0.10199328573E+01 0.  0.
     999903    2    3    3    0    0  0.11154311518E+00 -0.63681826864E-01  0.24271221191E-01  0.13228478809E+00  0.20320712724E-01 0.  0.
         14    1    1    2    0    0 -0.22541990982E-02  0.23386426269E-01 -0.32703278870E-02  0.23721327782E-01  0.00000000000E+00 0.  1.
     999901    1    3    3    0    0 -0.10928891608E+00  0.40295400595E-01 -0.21000893304E-01  0.88792388413E+00  0.88000000000E+00 0.  1.
        -11    1    4    4    0    0  0.94278631702E-01 -0.59894509539E-01  0.16265252992E-01  0.11287440917E+00  0.51100000000E-03 0.  1.
         11    1    4    4    0    0  0.17264483475E-01 -0.37873173256E-02  0.80059681993E-02  0.19410378924E-01  0.51100000000E-03 0. -1.
</event>
<event>
 8    1  0.1061722E+005  0.1043930E+01  0.7957747E-01            NaN
         13   -1    0    0    0    0  0.00000000000E+00  0.00000000000E+00  0.74505805969E-08  0.10566000000E+00  0.10566000000E+00 0. -1.
     999900   -1    0    0    0    0 -0.00000000000E+00 -0.00000000000E+00 -0.74505805969E-08  0.93827000000E+00  0.93827000000E+00 0.  1.
     999902    2    1    2    0    0  0.38434073644E-02  0.11070782460E-01  0.21217021646E-01  0.10196916830E+01  0.10194035670E+01 0.  0.
     999903    2    3    3    0    0  0.65333628825E-01 -0.82478490818E-01  0.75161357894E-01  0.13096084337E+00  0.20744355181E-01 0.  0.
         14    1    1    2    0    0 -0.38434073644E-02 -0.11070782460E-01 -0.21217021646E-01  0.24238317020E-01  0.00000000000E+00 0.  1.
     999901    1    3    3    0    0 -0.61490221460E-01  0.93549273278E-01 -0.53944336249E-01  0.88873083961E+00  0.88000000000E+00 0.  1.
        -11    1    4    4    0    0  0.23519107852E-01 -0.41396124129E-01  0.42678222442E-01  0.63941217684E-01  0.51100000000E-03 0.  1.
         11    1    4    4    0    0  0.41814520973E-01 -0.41082366689E-01  0.32483135452E-01  0.67019625684E-01  0.51100000000E-03 0. -1.
</event>
<event>
 8    1  0.1061722E+005  0.1043930E+01  0.7957747E-01            NaN
         13   -1    0    0    0    0  0.00000000000E+00  0.00000000000E+00  0.74505805969E-08  0.10566000000E+00  0.10566000000E+00 0.  1.
     999900   -1    0    0    0    0 -0.00000000000E+00 -0.00000000000E+00 -0.74505805969E-08  0.93827000000E+00  0.93827000000E+00 0. -1.
     999902    2    1    2    0    0  0.75465414821E-02 -0.17567009086E-01 -0.27657590757E-01  0.10103072038E+01  0.10097475693E+01 0.  0.
     999903    2    3    3    0    0  0.11796598738E+00  0.67982080792E-02  0.21145497564E-01  0.12173089349E+00  0.20225937610E-01 0.  0.
         14    1    1    2    0    0 -0.75465414821E-02  0.17567009086E-01  0.27657590757E-01  0.33622796182E-01  0.00000000000E+00 0.  1.
     999901    1    3    3    0    0 -0.11041944590E+00 -0.24365217165E-01 -0.48803088321E-01  0.88857631032E+00  0.88000000000E+00 0.  1.
        -11    1    4    4    0    0  0.20878870159E-01 -0.64783879548E-02  0.29713770535E-02  0.22067780410E-01  0.51100000000E-03 0.  1.
         11    1    4    4    0    0  0.97087117220E-01  0.13276596034E-01  0.18174120511E-01  0.99663113084E-01  0.51100000000E-03 0. -1.
</event>
<event>
 8    1  0.1061722E+005  0.1043930E+01  0.7957747E-01            NaN
         13   -1    0    0    0    0  0.00000000000E+00  0.00000000000E+00  0.74505805969E-08  0.10566000000E+00  0.10566000000E+00 0.  1.
     999900   -1    0    0    0    0 -0.00000000000E+00 -0.00000000000E+00 -0.74505805969E-08  0.93827000000E+00  0.93827000000E+00 0. -1.
     999902    2    1    2    0    0 -0.97532233169E-02  0.17399828344E-01 -0.12628595496E-01  0.10203215097E+01  0.10200483431E+01 0.  0.
     999903    2    3    3    0    0 -0.61011786947E-01  0.55757090909E-01 -0.10296320646E+00  0.13338348372E+00  0.18932525233E-01 0.  0.
         14    1    1    2    0    0  0.97532233169E-02 -0.17399828344E-01  0.12628595496E-01  0.23608490330E-01  0.00000000000E+00 0.  1.
     999901    1    3    3    0    0  0.51258563630E-01 -0.38357262565E-01  0.90334610964E-01  0.88693802595E+00  0.88000000000E+00 0.  1.
        -11    1    4    4    0    0 -0.15695460827E-01  0.24819474337E-01 -0.28867772811E-01  0.41182074074E-01  0.51100000000E-03 0.  1.
         11    1    4    4    0    0 -0.45316326120E-01  0.30937616572E-01 -0.74095433649E-01  0.92201409647E-01  0.51100000000E-03 0. -1.
</event>
<event>
 8    1  0.1061722E+005  0.1043930E+01  0.7957747E-01            NaN
         13   -1    0    0    0    0  0.00000000000E+00  0.00000000000E+00  0.74505805969E-08  0.10566000000E+00  0.10566000000E+00 0. -1.
     999900   -1    0    0    0    0 -0.00000000000E+00 -0.00000000000E+00 -0.74505805969E-08  0.93827000000E+00  0.93827000000E+00 0. -1.
     999902    2    1    2    0    0  0.30392753061E-02 -0.10164171823E-01 -0.21861538103E-01  0.10196303203E+01  0.10193407260E+01 0.  0.
     999903    2    3    3    0    0 -0.63186139875E-01 -0.10432985553E+00 -0.45323739077E-01  0.13182208853E+00  0.21109587233E-01 0.  0.
         14    1    1    2    0    0 -0.30392753061E-02  0.10164171823E-01  0.21861538103E-01  0.24299679657E-01  0.00000000000E+00 0. -1.
     999901    1    3    3    0    0  0.66225415181E-01  0.94165683705E-01  0.23462200974E-01  0.88780823181E+00  0.88000000000E+00 0. -1.
        -11    1    4    4    0    0 -0.29132733265E-01 -0.31398877456E-01 -0.10392186272E-01  0.44077934497E-01  0.51100000000E-03 0. -1.
         11    1    4    4    0    0 -0.34053406610E-01 -0.72930978072E-01 -0.34931552805E-01  0.87744154031E-01  0.51100000000E-03 0.  1.
</event>
<event>
 8    1  0.1061722E+005  0.1043930E+01  0.7957747E-01            NaN
         13   -1    0    0    0    0  0.00000000000E+00  0.00000000000E+00  0.74505805969E-08  0.10566000000E+00  0.10566000000E+00 0. -1.
     999900   -1    0    0    0    0 -0.00000000000E+00 -0.00000000000E+00 -0.74505805969E-08  0.93827000000E+00  0.93827000000E+00 0. -1.
     999902    2    1    2    0    0 -0.16132486854E-01 -0.90396298430E-02  0.11940356377E-01  0.10219176364E+01  0.10216805330E+01 0.  0.
     999903    2    3    3    0    0 -0.25364514751E-01 -0.11027941822E+00 -0.65726661492E-01  0.13266688959E+00  0.21808275268E-01 0.  0.
         14    1    1    2    0    0  0.16132486854E-01  0.90396298430E-02 -0.11940356377E-01  0.22012363576E-01  0.00000000000E+00 0.  1.
     999901    1    3    3    0    0  0.92320278977E-02  0.10123978838E+00  0.77667017869E-01  0.88925074684E+00  0.88000000000E+00 0. -1.
        -11    1    4    4    0    0 -0.27576476863E-01 -0.89183884325E-01 -0.58893677668E-01  0.11037641818E+00  0.51100000000E-03 0. -1.
         11    1    4    4    0    0  0.22119621120E-02 -0.21095533893E-01 -0.68329838242E-02  0.22290471407E-01  0.51100000000E-03 0.  1.
</event>
<event>
 8    1  0.1061722E+005  0.1043930E+01  0.7957747E-01            NaN
         13   -1    0    0    0    0  0.00000000000E+00  0.00000000000E+00  0.74505805969E-08  0.10566000000E+00  0.10566000000E+00 0.  1.
     999900   -1    0    0    0    0 -0.00000000000E+00 -0.00000000000E+00 -0.74505805969E-08  0.93827000000E+00  0.93827000000E+00 0.  1.
     999902    2    1    2    0    0  0.13437847100E-01  0.81530270092E-02 -0.18215417003E-01  0.10198707190E+01  0.10195868941E+01 0.  0.
     999903    2    3    3    0    0  0.55444342725E-01 -0.10947122994E+00  0.26037783020E-01  0.12995029719E+00  0.33927691799E-01 0.  0.
         14    1    1    2    0    0 -0.13437847100E-01 -0.81530270092E-02  0.18215417003E-01  0.24059280968E-01  0.00000000000E+00 0.  1.
     999901    1    3    3    0    0 -0.42006495624E-01  0.11762425695E+00 -0.44253200023E-01  0.88992042184E+00  0.88000000000E+00 0.  1.
        -11    1    4    4    0    0  0.42459203846E-01 -0.52821258062E-01  0.43419847434E-02  0.67911584041E-01  0.51100000000E-03 0.  1.
         11    1    4    4    0    0  0.12985138879E-01 -0.56649971878E-01  0.21695798277E-01  0.62038713150E-01  0.51100000000E-03 0. -1.
</event>
<event>
 8    1  0.1061722E+005  0.1043930E+01  0.7957747E-01            NaN
         13   -1    0    0    0    0  0.00000000000E+00  0.00000000000E+00  0.74505805969E-08  0.10566000000E+00  0.10566000000E+00 0. -1.
     999900   -1    0    0    0    0 -0.00000000000E+00 -0.00000000000E+00 -0.74505805969E-08  0.93827000000E+00  0.93827000000E+00 0.  1.
     999902    2    1    2    0    0 -0.49162969053E-02  0.19093495243E-01  0.13139781402E-01  0.10202364272E+01  0.10199612650E+01 0.  0.
     999903    2    3    3    0    0  0.98778106236E-01  0.69619285890E-01 -0.45839165281E-01  0.13075123852E+00  0.19766083611E-01 0.  0.
         14    1    1    2    0    0  0.49162969053E-02 -0.19093495243E-01 -0.13139781402E-01  0.23693572781E-01  0.00000000000E+00 0.  1.
     999901    1    3    3    0    0 -0.10369440314E+00 -0.50525790648E-01  0.58978946683E-01  0.88948518870E+00  0.88000000000E+00 0. -1.
        -11    1    4    4    0    0  0.18932369940E-01  0.88303824859E-02 -0.15146625662E-01  0.25808751933E-01  0.51100000000E-03 0. -1.
         11    1    4    4    0    0  0.79845736296E-01  0.60788903404E-01 -0.30692539619E-01  0.10494248659E+00  0.51100000000E-03 0.  1.
</event>
<event>
 8    1  0.1061722E+005  0.1043930E+01  0.7957747E-01            NaN
         13   -1    0    0    0    0  0.00000000000E+00  0.00000000000E+00  0.74505805969E-08  0.10566000000E+00  0.10566000000E+00 0. -1.
     999900   -1    0    0    0    0 -0.00000000000E+00 -0.00000000000E+00 -0.74505805969E-08  0.93827000000E+00  0.93827000000E+00 0. -1.
     999902    2    1    2    0    0 -0.10877240875E-01  0.13756267688E-01  0.16772396883E-01  0.10196635094E+01  0.10193747151E+01 0.  0.
     999903    2    3    3    0    0  0.43068288569E-01  0.24842919668E-01 -0.11617648897E+00  0.12797497618E+00  0.20213109636E-01 0.  0.
         14    1    1    2    0    0  0.10877240875E-01 -0.13756267688E-01 -0.16772396883E-01  0.24266490619E-01  0.00000000000E+00 0. -1.
     999901    1    3    3    0    0 -0.53945529444E-01 -0.11086651980E-01  0.13294888585E+00  0.89168853320E+00  0.88000000000E+00 0.  1.
        -11    1    4    4    0    0  0.24273582537E-01  0.34203437345E-02 -0.43930567160E-01  0.50309655261E-01  0.51100000000E-03 0. -1.
         11    1    4    4    0    0  0.18794706032E-01  0.21422575934E-01 -0.72245921806E-01  0.77665320916E-01  0.51100000000E-03 0.  1.
</event>
<event>
 8    1  0.1061722E+005  0.1043930E+01  0.7957747E-01            NaN
         13   -1    0    0    0    0  0.00000000000E+00  0.00000000000E+00  0.74505805969E-08  0.10566000000E+00  0.10566000000E+00 0. -1.
     999900   -1    0    0    0    0 -0.00000000000E+00 -0.00000000000E+00 -0.74505805969E-08  0.93827000000E+00  0.93827000000E+00 0. -1.
     999902    2    1    2    0    0  0.18497026939E-01  0.99458086401E-02  0.95630961190E-02  0.10208537802E+01  0.10205929299E+01 0.  0.
     999903    2    3    3    0    0 -0.11063461779E+00  0.35734050800E-01 -0.51904690347E-01  0.12893545212E+00  0.20330098231E-01 0.  0.
         14    1    1    2    0    0 -0.18497026939E-01 -0.99458086401E-02 -0.95630961190E-02  0.23076219848E-01  0.00000000000E+00 0. -1.
     999901    1    3    3    0    0  0.12913164473E+00 -0.25788242160E-01  0.61467786466E-01  0.89191832803E+00  0.88000000000E+00 0.  1.
        -11    1    4    4    0    0 -0.74810641684E-01  0.29702724843E-01 -0.27054673795E-01  0.84918198682E-01  0.51100000000E-03 0. -1.
         11    1    4    4    0    0 -0.35823976105E-01  0.60313259569E-02 -0.24850016552E-01  0.44017253440E-01  0.51100000000E-03 0.  1.
</event>
<event>
 8    1  0.1061722E+005  0.1043930E+01  0.7957747E-01            NaN
         13   -1    0    0    0    0  0.00000000000E+00  0.00000000000E+00  0.74505805969E-08  0.10566000000E+00  0.10566000000E+00 0.  1.
     999900   -1    0    0    0    0 -0.00000000000E+00 -0.00000000000E+00 -0.74505805969E-08  0.93827000000E+00  0.93827000000E+00 0.  1.
     999902    2    1    2    0    0 -0.18773864519E-01  0.14760486700E-01  0.30783326388E-02  0.10198508370E+01  0.10195665372E+01 0.  0.
     999903    2    3    3    0    0 -0.47320212522E-01  0.12300857444E+00  0.63367748386E-02  0.13275266890E+00  0.14587819763E-01 0.  0.
         14    1    1    2    0    0  0.18773864519E-01 -0.14760486700E-01 -0.30783326388E-02  0.24079162951E-01  0.00000000000E+00 0.  1.
     999901    1    3    3    0    0  0.28546348003E-01 -0.10824808774E+00 -0.32584421998E-02  0.88709816815E+00  0.88000000000E+00 0. -1.
        -11    1    4    4    0    0 -0.22792539684E-01  0.45375001404E-01  0.74711162754E-02  0.51327081712E-01  0.51100000000E-03 0. -1.
         11    1    4    4    0    0 -0.24527672838E-01  0.77633573039E-01 -0.11343414368E-02  0.81425587190E-01  0.51100000000E-03 0.  1.
</event>
<event>
 8    1  0.1061722E+005  0.1043930E+01  0.7957747E-01            NaN
         13   -1    0    0    0    0  0.00000000000E+00  0.00000000000E+00  0.74505805969E-08  0.10566000000E+00  0.10566000000E+00 0.  1.
     999900   -1    0    0    0    0 -0.00000000000E+00 -0.00000000000E+00 -0.74505805969E-08  0.93827000000E+00  0.93827000000E+00 0.  1.
     999902    2    1    2    0    0 -0.18182444653E-02 -0.68519449519E-02  0.22503097237E-01  0.10203366843E+01  0.10200638728E+01 0.  0.
     999903    2    3    3    0    0  0.10005406360E+00  0.54288083392E-01 -0.56888527520E-01  0.12881040854E+00  0.19945053092E-01 0.  0.
         14    1    1    2    0    0  0.18182444653E-02  0.68519449519E-02 -0.22503097237E-01  0.23593315745E-01  0.00000000000E+00 0.  1.
     999901    1    3    3    0    0 -0.10187230806E+00 -0.61140028344E-01  0.79391624757E-01  0.89152627572E+00  0.88000000000E+00 0. -1.
        -11    1    4    4    0    0  0.22141283756E-01  0.17489253541E-01 -0.22269964136E-01  0.35948892325E-01  0.51100000000E-03 0. -1.
         11    1    4    4    0    0  0.77912779843E-01  0.36798829851E-01 -0.34618563384E-01  0.92861516211E-01  0.51100000000E-03 0.  1.
</event>
<event>
 8    1  0.1061722E+005  0.1043930E+01  0.7957747E-01            NaN
         13   -1    0    0    0    0  0.00000000000E+00  0.00000000000E+00  0.74505805969E-08  0.10566000000E+00  0.10566000000E+00 0. -1.
     999900   -1    0    0    0    0 -0.00000000000E+00 -0.00000000000E+00 -0.74505805969E-08  0.93827000000E+00  0.93827000000E+00 0. -1.
     999902    2    1    2    0    0  0.19242682273E-01 -0.12829019911E-01  0.12227667480E-02  0.10207705585E+01  0.10205078017E+01 0.  0.
     999903    2    3    3    0    0 -0.62041758614E-01  0.22008599762E-01 -0.10951485747E+00  0.12943243998E+00  0.20632358969E-01 0.  0.
         14    1    1    2    0    0 -0.19242682273E-01  0.12829019911E-01 -0.12227667480E-02  0.23159441519E-01  0.00000000000E+00 0. -1.
     999901    1    3    3    0    0  0.81284440888E-01 -0.34837619673E-01  0.11073762422E+00  0.89133811850E+00  0.88000000000E+00 0. -1.
        -11    1    4    4    0    0 -0.27078890547E-01  0.69039566026E-02 -0.65565965817E-01  0.71274735527E-01  0.51100000000E-03 0.  1.
         11    1    4    4    0    0 -0.34962868067E-01  0.15104643160E-01 -0.43948891655E-01  0.58157704453E-01  0.51100000000E-03 0. -1.
</event>
<event>
 8    1  0.1065995E+005  0.1043930E+01  0.7957747E-01            NaN
         13   -1    0    0    0    0  0.00000000000E+00  0.00000000000E+00  0.74505805969E-08  0.10566000000E+00  0.10566000000E+00 0. -1.
     999900   -1    0    0    0    0 -0.00000000000E+00 -0.00000000000E+00 -0.74505805969E-08  0.93827000000E+00  0.93827000000E+00 0. -1.
     999902    2    1    2    0    0  0.97573542412E-02 -0.10059424316E-01 -0.19706311290E-01  0.10197486708E+01  0.10194619242E+01 0.  0.
     999903    2    3    3    0    0 -0.12528252748E+00 -0.20186301731E-01  0.98412551087E-02  0.12889998440E+00  0.20375406911E-01 0.  0.
         14    1    1    2    0    0 -0.97573542412E-02  0.10059424316E-01  0.19706311290E-01  0.24181329244E-01  0.00000000000E+00 0. -1.
     999901    1    3    3    0    0  0.13503988172E+00  0.10126877415E-01 -0.29547566399E-01  0.89084868636E+00  0.88000000000E+00 0. -1.
        -11    1    4    4    0    0 -0.80964675126E-01 -0.46295459637E-02  0.11437628539E-01  0.81901109771E-01  0.51100000000E-03 0. -1.
         11    1    4    4    0    0 -0.44317852354E-01 -0.15556755767E-01 -0.15963734301E-02  0.46998874629E-01  0.51100000000E-03 0.  1.
</event>
<event>
 8    1  0.1061722E+005  0.1043930E+01  0.7957747E-01            NaN
         13   -1    0    0    0    0  0.00000000000E+00  0.00000000000E+00  0.74505805969E-08  0.10566000000E+00  0.10566000000E+00 0.  1.
     999900   -1    0    0    0    0 -0.00000000000E+00 -0.00000000000E+00 -0.74505805969E-08  0.93827000000E+00  0.93827000000E+00 0.  1.
     999902    2    1    2    0    0 -0.12873948618E-01  0.62160572270E-02  0.19662813082E-01  0.10196194233E+01  0.10193295661E+01 0.  0.
     999903    2    3    3    0    0  0.17902994652E-02  0.12813010792E+00  0.19071642268E-01  0.13109343866E+00  0.20030786089E-01 0.  0.
         14    1    1    2    0    0  0.12873948618E-01 -0.62160572270E-02 -0.19662813082E-01  0.24310576685E-01  0.00000000000E+00 0. -1.
     999901    1    3    3    0    0 -0.14664248083E-01 -0.12191405070E+00  0.59117081463E-03  0.88852598466E+00  0.88000000000E+00 0.  1.
        -11    1    4    4    0    0 -0.41008316234E-02  0.10935836099E+00  0.20579834810E-01  0.11135465262E+00  0.51100000000E-03 0. -1.
         11    1    4    4    0    0  0.58911310887E-02  0.18771746935E-01 -0.15081925420E-02  0.19738786038E-01  0.51100000000E-03 0.  1.
</event>
<event>
 8    1  0.1061722E+005  0.1043930E+01  0.7957747E-01            NaN
         13   -1    0    0    0    0  0.00000000000E+00  0.00000000000E+00  0.74505805969E-08  0.10566000000E+00  0.10566000000E+00 0.  1.
     999900   -1    0    0    0    0 -0.00000000000E+00 -0.00000000000E+00 -0.74505805969E-08  0.93827000000E+00  0.93827000000E+00 0. -1.
     999902    2    1    2    0    0 -0.10200570881E-01 -0.35785694488E-02  0.20219807166E-01  0.10210018861E+01  0.10207444112E+01 0.  0.
     999903    2    3    3    0    0  0.81654929684E-01 -0.75739849070E-01 -0.62693919561E-01  0.12941937766E+00  0.20366528551E-01 0.  0.
         14    1    1    2    0    0  0.10200570881E-01  0.35785694488E-02 -0.20219807166E-01  0.22928113909E-01  0.00000000000E+00 0. -1.
     999901    1    3    3    0    0 -0.91855500565E-01  0.72161279621E-01  0.82913726727E-01  0.89158250843E+00  0.88000000000E+00 0.  1.
        -11    1    4    4    0    0  0.65359564617E-01 -0.50348114313E-01 -0.40167172481E-01  0.91763108971E-01  0.51100000000E-03 0.  1.
         11    1    4    4    0    0  0.16295365066E-01 -0.25391734756E-01 -0.22526747080E-01  0.37656268689E-01  0.51100000000E-03 0. -1.
</event>
<event>
 8    1  0.1061722E+005  0.1043930E+01  0.7957747E-01            NaN
         13   -1    0    0    0    0  0.00000000000E+00  0.00000000000E+00  0.74505805969E-08  0.10566000000E+00  0.10566000000E+00 0. -1.
     999900   -1    0    0    0    0 -0.00000000000E+00 -0.00000000000E+00 -0.74505805969E-08  0.93827000000E+00  0.93827000000E+00 0. -1.
     999902    2    1    2    0    0 -0.57897656935E-02 -0.11216291962E-01 -0.19562928603E-01  0.10206483599E+01  0.10203827908E+01 0.  0.
     999903    2    3    3    0    0 -0.12702259161E+00  0.21037069612E-01  0.13603934831E-01  0.13113291972E+00  0.20820146836E-01 0.  0.
         14    1    1    2    0    0  0.57897656935E-02  0.11216291962E-01  0.19562928603E-01  0.23281640142E-01  0.00000000000E+00 0. -1.
     999901    1    3    3    0    0  0.12123282592E+00 -0.32253361574E-01 -0.33166863435E-01  0.88951544014E+00  0.88000000000E+00 0. -1.
        -11    1    4    4    0    0 -0.36624301241E-01  0.11799226619E-01 -0.35953791405E-02  0.38649049955E-01  0.51100000000E-03 0. -1.
         11    1    4    4    0    0 -0.90398290369E-01  0.92378429926E-02  0.17199313972E-01  0.92483869766E-01  0.51100000000E-03 0.  1.
</event>
<event>
 8    1  0.1061722E+005  0.1043930E+01  0.7957747E-01            NaN
         13   -1    0    0    0    0  0.00000000000E+00  0.00000000000E+00  0.74505805969E-08  0.10566000000E+00  0.10566000000E+00 0.  1.
     999900   -1    0    0    0    0 -0.00000000000E+00 -0.00000000000E+00 -0.74505805969E-08  0.93827000000E+00  0.93827000000E+00 0.  1.
     999902    2    1    2    0    0  0.10532714916E-03 -0.45492609538E-02  0.22930178594E-01  0.10205526614E+01  0.10202848792E+01 0.  0.
     999903    2    3    3    0    0  0.12245668624E+00 -0.27665195507E-01  0.34318948008E-01  0.13171414651E+00  0.20244089304E-01 0.  0.
         14    1    1    2    0    0 -0.10532714916E-03  0.45492609538E-02 -0.22930178594E-01  0.23377338587E-01  0.00000000000E+00 0. -1.
     999901    1    3    3    0    0 -0.12235135909E+00  0.23115934554E-01 -0.11388769414E-01  0.88883851490E+00  0.88000000000E+00 0.  1.
        -11    1    4    4    0    0  0.93309825495E-01 -0.29501736487E-01  0.28520228356E-01  0.10193498191E+00  0.51100000000E-03 0.  1.
         11    1    4    4    0    0  0.29146860745E-01  0.18365409799E-02  0.57987196522E-02  0.29779164607E-01  0.51100000000E-03 0. -1.
</event>
<event>
 8    1  0.1061722E+005  0.1043930E+01  0.7957747E-01            NaN
         13   -1    0    0    0    0  0.00000000000E+00  0.00000000000E+00  0.74505805969E-08  0.10566000000E+00  0.10566000000E+00 0. -1.
     999900   -1    0    0    0    0 -0.00000000000E+00 -0.00000000000E+00 -0.74505805969E-08  0.93827000000E+00  0.93827000000E+00 0. -1.
     999902    2    1    2    0    0  0.96913232398E-02  0.21827580111E-01  0.79341551482E-02  0.10187642332E+01  0.10184533603E+01 0.  0.
     999903    2    3    3    0    0 -0.84718656168E-01  0.83443892494E-01  0.49652014150E-01  0.13059184347E+00  0.21184267121E-01 0.  0.
         14    1    1    2    0    0 -0.96913232398E-02 -0.21827580111E-01 -0.79341551482E-02  0.25165766778E-01  0.00000000000E+00 0.  1.
     999901    1    3    3    0    0  0.94409979408E-01 -0.61616312383E-01 -0.41717859002E-01  0.88817238976E+00  0.88000000000E+00 0. -1.
        -11    1    4    4    0    0 -0.24148454782E-01  0.11683593569E-01  0.12545804978E-01  0.29619462699E-01  0.51100000000E-03 0.  1.
         11    1    4    4    0    0 -0.60570201386E-01  0.71760298925E-01  0.37106209172E-01  0.10097238077E+00  0.51100000000E-03 0. -1.
</event>
<event>
 8    1  0.1061722E+005  0.1043930E+01  0.7957747E-01            NaN
         13   -1    0    0    0    0  0.00000000000E+00  0.00000000000E+00  0.74505805969E-08  0.10566000000E+00  0.10566000000E+00 0.  1.
     999900   -1    0    0    0    0 -0.00000000000E+00 -0.00000000000E+00 -0.74505805969E-08  0.93827000000E+00  0.93827000000E+00 0.  1.
     999902    2    1    2    0    0  0.13428996328E-01 -0.32010332293E-02  0.21332702850E-01  0.10185199869E+01  0.10182029733E+01 0.  0.
     999903    2    3    3    0    0  0.20734858601E-01 -0.62276370803E-02 -0.12361638988E+00  0.12662718197E+00  0.16873456789E-01 0.  0.
         14    1    1    2    0    0 -0.13428996328E-01  0.32010332293E-02 -0.21332702850E-01  0.25410013124E-01  0.00000000000E+00 0. -1.
     999901    1    3    3    0    0 -0.73058622739E-02  0.30266038510E-02  0.14494909272E+00  0.89189280490E+00  0.88000000000E+00 0. -1.
        -11    1    4    4    0    0  0.54378471009E-02  0.30599311709E-02 -0.65928978644E-01  0.66225559310E-01  0.51100000000E-03 0.  1.
         11    1    4    4    0    0  0.15297011501E-01 -0.92875682512E-02 -0.57687411231E-01  0.60401622664E-01  0.51100000000E-03 0. -1.
</event>
<event>
 8    1  0.1061722E+005  0.1043930E+01  0.7957747E-01            NaN
         13   -1    0    0    0    0  0.00000000000E+00  0.00000000000E+00  0.74505805969E-08  0.10566000000E+00  0.10566000000E+00 0.  1.
     999900   -1    0    0    0    0 -0.00000000000E+00 -0.00000000000E+00 -0.74505805969E-08  0.93827000000E+00  0.93827000000E+00 0.  1.
     999902    2    1    2    0    0 -0.23827286906E-01  0.15692983607E-02 -0.33869037258E-02  0.10198120935E+01  0.10195268670E+01 0.  0.
     999903    2    3    3    0    0  0.95618954587E-01  0.10760701775E-01  0.81609924500E-01  0.12763702807E+00  0.19293884510E-01 0.  0.
         14    1    1    2    0    0  0.23827286906E-01 -0.15692983607E-02  0.33869037258E-02  0.24117906532E-01  0.00000000000E+00 0.  1.
     999901    1    3    3    0    0 -0.11944624149E+00 -0.91914034145E-02 -0.84996828226E-01  0.89217506539E+00  0.88000000000E+00 0. -1.
        -11    1    4    4    0    0  0.81521496328E-01  0.66727914295E-02  0.76753334719E-01  0.11216780296E+00  0.51100000000E-03 0. -1.
         11    1    4    4    0    0  0.14097458258E-01  0.40879103457E-02  0.48565897811E-02  0.15469225114E-01  0.51100000000E-03 0.  1.
</event>
<event>
 8    1  0.1061722E+005  0.1043930E+01  0.7957747E-01            NaN
         13   -1    0    0    0    0  0.00000000000E+00  0.00000000000E+00  0.74505805969E-08  0.10566000000E+00  0.10566000000E+00 0. -1.
     999900   -1    0    0    0    0 -0.00000000000E+00 -0.00000000000E+00 -0.74505805969E-08  0.93827000000E+00  0.93827000000E+00 0.  1.
     999902    2    1    2    0    0 -0.21800681333E-01 -0.83681265501E-02 -0.32677664567E-03  0.10205761560E+01  0.10203089180E+01 0.  0.
     999903    2    3    3    0    0  0.92597558698E-01 -0.15469824139E-01  0.86083764727E-01  0.12894609080E+00  0.20076265785E-01 0.  0.
         14    1    1    2    0    0  0.21800681333E-01  0.83681265501E-02  0.32677664567E-03  0.23353844042E-01  0.00000000000E+00 0.  1.
     999901    1    3    3    0    0 -0.11439824003E+00  0.71016975888E-02 -0.86410541372E-01  0.89163006516E+00  0.88000000000E+00 0.  1.
        -11    1    4    4    0    0  0.34563440568E-01 -0.59064524661E-02  0.45672476517E-01  0.57582582756E-01  0.51100000000E-03 0. -1.
         11    1    4    4    0    0  0.58034118130E-01 -0.95633716728E-02  0.40411288209E-01  0.71363508046E-01  0.51100000000E-03 0.  1.
</event>
<event>
 8    1  0.1061722E+005  0.1043930E+01  0.7957747E-01            NaN
         13   -1    0    0    0    0  0.00000000000E+00  0.00000000000E+00  0.74505805969E-08  0.10566000000E+00  0.10566000000E+00 0. -1.
     999900   -1    0    0    0    0 -0.00000000000E+00 -0.00000000000E+00 -0.74505805969E-08  0.93827000000E+00  0.93827000000E+00 0. -1.
     999902    2    1    2    0    0  0.55220022492E-02 -0.16651019771E-01  0.15782693695E-01  0.10203324919E+01  0.10200595824E+01 0.  0.
     999903    2    3    3    0    0 -0.30891870248E-01 -0.49835052721E-01 -0.11377933731E+00  0.12948263360E+00  0.19549288440E-01 0.  0.
         14    1    1    2    0    0 -0.55220022492E-02  0.16651019771E-01 -0.15782693695E-01  0.23597508100E-01  0.00000000000E+00 0.  1.
     999901    1    3    3    0    0  0.36413872497E-01  0.33184032950E-01  0.12956203101E+00  0.89084985830E+00  0.88000000000E+00 0.  1.
        -11    1    4    4    0    0 -0.27577197347E-01 -0.26784749835E-01 -0.67922061243E-01  0.78048652530E-01  0.51100000000E-03 0. -1.
         11    1    4    4    0    0 -0.33146729013E-02 -0.23050302886E-01 -0.45857276067E-01  0.51433981071E-01  0.51100000000E-03 0.  1.
</event>
<event>
 8    1  0.1061722E+005  0.1043930E+01  0.7957747E-01            NaN
         13   -1    0    0    0    0  0.00000000000E+00  0.00000000000E+00  0.74505805969E-08  0.10566000000E+00  0.10566000000E+00 0. -1.
     999900   -1    0    0    0    0 -0.00000000000E+00 -0.00000000000E+00 -0.74505805969E-08  0.93827000000E+00  0.93827000000E+00 0.  1.
     999902    2    1    2    0    0  0.86202305981E-02 -0.21636102764E-01  0.24314888880E-02  0.10205133082E+01  0.10202446132E+01 0.  0.
     999903    2    3    3    0    0  0.20182772179E-01 -0.30763446542E-01  0.12517065092E+00  0.13187282818E+00  0.19209815806E-01 0.  0.
         14    1    1    2    0    0 -0.86202305981E-02  0.21636102764E-01 -0.24314888880E-02  0.23416691837E-01  0.00000000000E+00 0.  1.
     999901    1    3    3    0    0 -0.11562541581E-01  0.91273437778E-02 -0.12273916203E+00  0.88864047999E+00  0.88000000000E+00 0.  1.
        -11    1    4    4    0    0  0.21679137980E-02  0.48142391472E-03  0.30156645827E-01  0.30242619393E-01  0.51100000000E-03 0.  1.
         11    1    4    4    0    0  0.18014858382E-01 -0.31244870457E-01  0.95014005095E-01  0.10163020878E+00  0.51100000000E-03 0. -1.
</event>
<event>
 8    1  0.1061722E+005  0.1043930E+01  0.7957747E-01            NaN
         13   -1    0    0    0    0  0.00000000000E+00  0.00000000000E+00  0.74505805969E-08  0.10566000000E+00  0.10566000000E+00 0. -1.
     999900   -1    0    0    0    0 -0.00000000000E+00 -0.00000000000E+00 -0.74505805969E-08  0.93827000000E+00  0.93827000000E+00 0. -1.
     999902    2    1    2    0    0 -0.15340047385E-01 -0.52128748712E-03  0.14909214468E-01  0.10225320218E+01  0.10223081053E+01 0.  0.
     999903    2    3    3    0    0  0.61151482461E-01 -0.65303443805E-01 -0.92622114109E-01  0.13033772204E+00  0.20125162992E-01 0.  0.
         14    1    1    2    0    0  0.15340047385E-01  0.52128748712E-03 -0.14909214468E-01  0.21397978187E-01  0.00000000000E+00 0.  1.
     999901    1    3    3    0    0 -0.76491529847E-01  0.64782156318E-01  0.10753132858E+00  0.89219429977E+00  0.88000000000E+00 0.  1.
        -11    1    4    4    0    0  0.31805691419E-02 -0.12678193203E-01 -0.96463216063E-02  0.16253161061E-01  0.51100000000E-03 0.  1.
         11    1    4    4    0    0  0.57970913319E-01 -0.52625250602E-01 -0.82975792503E-01  0.11408456098E+00  0.51100000000E-03 0. -1.
</event>
<event>
 8    1  0.1061722E+005  0.1043930E+01  0.7957747E-01            NaN
         13   -1    0    0    0    0  0.00000000000E+00  0.00000000000E+00  0.74505805969E-08  0.10566000000E+00  0.10566000000E+00 0. -1.
     999900   -1    0    0    0    0 -0.00000000000E+00 -0.00000000000E+00 -0.74505805969E-08  0.93827000000E+00  0.93827000000E+00 0.  1.
     999902    2    1    2    0    0  0.13174938281E-01  0.14591000058E-01 -0.12921782951E-01  0.10204045084E+01  0.10201332815E+01 0.  0.
     999903    2    3    3    0    0  0.10791534478E+00 -0.59315801559E-01 -0.42848544165E-01  0.13173495732E+00  0.18815293989E-01 0.  0.
         14    1    1    2    0    0 -0.13174938281E-01 -0.14591000058E-01  0.12921782951E-01  0.23525491621E-01  0.00000000000E+00 0. -1.
     999901    1    3    3    0    0 -0.94740406501E-01  0.73906801617E-01  0.29926761214E-01  0.88866955106E+00  0.88000000000E+00 0.  1.
        -11    1    4    4    0    0  0.38250440271E-02 -0.71845915533E-02 -0.28557592495E-02  0.86409374195E-02  0.51100000000E-03 0.  1.
         11    1    4    4    0    0  0.10409030075E+00 -0.52131210006E-01 -0.39992784916E-01  0.12309401990E+00  0.51100000000E-03 0. -1.
</event>
<event>
 8    1  0.1061722E+005  0.1043930E+01  0.7957747E-01            NaN
         13   -1    0    0    0    0  0.00000000000E+00  0.00000000000E+00  0.74505805969E-08  0.10566000000E+00  0.10566000000E+00 0. -1.
     999900   -1    0    0    0    0 -0.00000000000E+00 -0.00000000000E+00 -0.74505805969E-08  0.93827000000E+00  0.93827000000E+00 0. -1.
     999902    2    1    2    0    0  0.12042626637E-01  0.17637196714E-01 -0.91384918475E-02  0.10207005446E+01  0.10204361784E+01 0.  0.
     999903    2    3    3    0    0 -0.60987361574E-01  0.86637823372E-01 -0.76851769279E-01  0.13239904535E+00  0.19943471561E-01 0.  0.
         14    1    1    2    0    0 -0.12042626637E-01 -0.17637196714E-01  0.91384918475E-02  0.23229455385E-01  0.00000000000E+00 0. -1.
     999901    1    3    3    0    0  0.73029988210E-01 -0.69000626658E-01  0.67713277431E-01  0.88830149927E+00  0.88000000000E+00 0.  1.
        -11    1    4    4    0    0 -0.27119749455E-01  0.55383052987E-01 -0.46057615524E-01  0.76969659200E-01  0.51100000000E-03 0.  1.
         11    1    4    4    0    0 -0.33867612118E-01  0.31254770385E-01 -0.30794153755E-01  0.55429386149E-01  0.51100000000E-03 0. -1.
</event>
<event>
 8    1  0.1061722E+005  0.1043930E+01  0.7957747E-01            NaN
         13   -1    0    0    0    0  0.00000000000E+00  0.00000000000E+00  0.74505805969E-08  0.10566000000E+00  0.10566000000E+00 0.  1.
     999900   -1    0    0    0    0 -0.00000000000E+00 -0.00000000000E+00 -0.74505805969E-08  0.93827000000E+00  0.93827000000E+00 0. -1.
     999902    2    1    2    0    0  0.94665527916E-02  0.19168399496E-01  0.97865218956E-02  0.10204178931E+01  0.10201469783E+01 0.  0.
     999903    2    3    3    0    0 -0.43060324634E-01  0.50794814516E-01 -0.11000199699E+00  0.13018837647E+00  0.20353606283E-01 0.  0.
         14    1    1    2    0    0 -0.94665527916E-02 -0.19168399496E-01 -0.97865218956E-02  0.23512106920E-01  0.00000000000E+00 0. -1.
     999901    1    3    3    0    0  0.52526877426E-01 -0.31626415020E-01  0.11978851888E+00  0.89022951661E+00  0.88000000000E+00 0.  1.
        -11    1    4    4    0    0 -0.19448555011E-01  0.30611165713E-01 -0.75501007531E-01  0.83761285911E-01  0.51100000000E-03 0.  1.
         11    1    4    4    0    0 -0.23611769624E-01  0.20183648803E-01 -0.34500989456E-01  0.46427090563E-01  0.51100000000E-03 0. -1.
</event>
<event>
 8    1  0.1061722E+005  0.1043930E+01  0.7957747E-01            NaN
         13   -1    0    0    0    0  0.00000000000E+00  0.00000000000E+00  0.74505805969E-08  0.10566000000E+00  0.10566000000E+00 0.  1.
     999900   -1    0    0    0    0 -0.00000000000E+00 -0.00000000000E+00 -0.74505805969E-08  0.93827000000E+00  0.93827000000E+00 0.  1.
     999902    2    1    2    0    0 -0.22630330268E-01 -0.89584009906E-02 -0.63335708935E-03  0.10195828043E+01  0.10192920626E+01 0.  0.
     999903    2    3    3    0    0 -0.10544335214E+00  0.40705172065E-01 -0.64326805116E-01  0.13201234379E+00  0.22673983188E-01 0.  0.
         14    1    1    2    0    0  0.22630330268E-01  0.89584009906E-02  0.63335708935E-03  0.24347195682E-01  0.00000000000E+00 0.  1.
     999901    1    3    3    0    0  0.82813021870E-01 -0.49663573056E-01  0.63693448027E-01  0.88757046053E+00  0.88000000000E+00 0.  1.
        -11    1    4    4    0    0 -0.59304436715E-01  0.11057091101E-01 -0.36503431061E-01  0.70512673173E-01  0.51100000000E-03 0. -1.
         11    1    4    4    0    0 -0.46138915423E-01  0.29648080965E-01 -0.27823374055E-01  0.61499670618E-01  0.51100000000E-03 0.  1.
</event>
<event>
 8    1  0.1061722E+005  0.1043930E+01  0.7957747E-01            NaN
         13   -1    0    0    0    0  0.00000000000E+00  0.00000000000E+00  0.74505805969E-08  0.10566000000E+00  0.10566000000E+00 0.  1.
     999900   -1    0    0    0    0 -0.00000000000E+00 -0.00000000000E+00 -0.74505805969E-08  0.93827000000E+00  0.93827000000E+00 0.  1.
     999902    2    1    2    0    0 -0.70151834088E-02 -0.11857806089E-01 -0.19283868293E-01  0.10202300435E+01  0.10199547312E+01 0.  0.
     999903    2    3    3    0    0  0.12015824923E-01  0.31713789770E-01  0.12160272757E+00  0.12775612444E+00  0.19602537306E-01 0.  0.
         14    1    1    2    0    0  0.70151834088E-02  0.11857806089E-01  0.19283868293E-01  0.23699956537E-01  0.00000000000E+00 0.  1.
     999901    1    3    3    0    0 -0.19031008331E-01 -0.43571595859E-01 -0.14088659586E+00  0.89247391902E+00  0.88000000000E+00 0.  1.
        -11    1    4    4    0    0  0.10134943841E-01  0.88306829522E-02  0.24250579735E-01  0.27731746908E-01  0.51100000000E-03 0. -1.
         11    1    4    4    0    0  0.18808810817E-02  0.22883106818E-01  0.97352147836E-01  0.10002437753E+00  0.51100000000E-03 0.  1.
</event>
<event>
 8    1  0.1061722E+005  0.1043930E+01  0.7957747E-01            NaN
         13   -1    0    0    0    0  0.00000000000E+00  0.00000000000E+00  0.74505805969E-08  0.10566000000E+00  0.10566000000E+00 0.  1.
     999900   -1    0    0    0    0 -0.00000000000E+00 -0.00000000000E+00 -0.74505805969E-08  0.93827000000E+00  0.93827000000E+00 0.  1.
     999902    2    1    2    0    0  0.16250098837E-02 -0.25737615341E-01 -0.26921004117E-02  0.10180010026E+01  0.10176707367E+01 0.  0.
     999903    2    3    3    0    0 -0.63894563854E-01  0.95707569639E-01 -0.47379633534E-01  0.12612728784E+00  0.20513626877E-01 0.  0.
         14    1    1    2    0    0 -0.16250098837E-02  0.25737615341E-01  0.26921004117E-02  0.25928997381E-01  0.00000000000E+00 0. -1.
     999901    1    3    3    0    0  0.65519573738E-01 -0.12144518498E+00  0.44687533123E-01  0.89187371478E+00  0.88000000000E+00 0. -1.
        -11    1    4    4    0    0 -0.24239998003E-01  0.52544654732E-01 -0.28788970372E-01  0.64634233810E-01  0.51100000000E-03 0. -1.
         11    1    4    4    0    0 -0.39654565851E-01  0.43162914907E-01 -0.18590663162E-01  0.61493054030E-01  0.51100000000E-03 0.  1.
</event>
<event>
 8    1  0.1061722E+005  0.1043930E+01  0.7957747E-01            NaN
         13   -1    0    0    0    0  0.00000000000E+00  0.00000000000E+00  0.74505805969E-08  0.10566000000E+00  0.10566000000E+00 0. -1.
     999900   -1    0    0    0    0 -0.00000000000E+00 -0.00000000000E+00 -0.74505805969E-08  0.93827000000E+00  0.93827000000E+00 0.  1.
     999902    2    1    2    0    0 -0.10711886056E-01  0.18740212050E-01  0.97535787895E-02  0.10202430342E+01  0.10199680272E+01 0.  0.
     999903    2    3    3    0    0 -0.11139657527E+00  0.68432468524E-01 -0.10445738774E-01  0.13287910691E+00  0.21343473587E-01 0.  0.
         14    1    1    2    0    0  0.10711886056E-01 -0.18740212050E-01 -0.97535787895E-02  0.23686965820E-01  0.00000000000E+00 0.  1.
     999901    1    3    3    0    0  0.10068468921E+00 -0.49692256473E-01  0.20199317564E-01  0.88736392727E+00  0.88000000000E+00 0. -1.
        -11    1    4    4    0    0 -0.35358624961E-01  0.21682138163E-01  0.66074300403E-02  0.42003175203E-01  0.51100000000E-03 0. -1.
         11    1    4    4    0    0 -0.76037950305E-01  0.46750330361E-01 -0.17053168815E-01  0.90875931704E-01  0.51100000000E-03 0.  1.
</event>
<event>
 8    1  0.1061722E+005  0.1043930E+01  0.7957747E-01            NaN
         13   -1    0    0    0    0  0.00000000000E+00  0.00000000000E+00  0.74505805969E-08  0.10566000000E+00  0.10566000000E+00 0. -1.
     999900   -1    0    0    0    0 -0.00000000000E+00 -0.00000000000E+00 -0.74505805969E-08  0.93827000000E+00  0.93827000000E+00 0. -1.
     999902    2    1    2    0    0 -0.15759066435E-01 -0.18347033215E-01 -0.18031888360E-03  0.10197433442E+01  0.10194564698E+01 0.  0.
     999903    2    3    3    0    0 -0.11541847657E+00  0.56961525545E-01 -0.12736796968E-01  0.13083331380E+00  0.19725361238E-01 0.  0.
         14    1    1    2    0    0  0.15759066435E-01  0.18347033215E-01  0.18031888360E-03  0.24186655776E-01  0.00000000000E+00 0. -1.
     999901    1    3    3    0    0  0.99659410136E-01 -0.75308558760E-01  0.12556478084E-01  0.88891003043E+00  0.88000000000E+00 0. -1.
        -11    1    4    4    0    0 -0.22460517510E-01  0.71732538587E-02 -0.92195675213E-02  0.25321768580E-01  0.51100000000E-03 0.  1.
         11    1    4    4    0    0 -0.92957959061E-01  0.49788271686E-01 -0.35172294464E-02  0.10551154522E+00  0.51100000000E-03 0. -1.
</event>
<event>
 8    1  0.1061722E+005  0.1043930E+01  0.7957747E-01            NaN
         13   -1    0    0    0    0  0.00000000000E+00  0.00000000000E+00  0.74505805969E-08  0.10566000000E+00  0.10566000000E+00 0. -1.
     999900   -1    0    0    0    0 -0.00000000000E+00 -0.00000000000E+00 -0.74505805969E-08  0.93827000000E+00  0.93827000000E+00 0.  1.
     999902    2    1    2    0    0  0.20110763799E-01  0.11306285273E-01  0.67000560420E-02  0.10199057277E+01  0.10196227380E+01 0.  0.
     999903    2    3    3    0    0 -0.46853700641E-01  0.30684513396E-01 -0.11439872359E+00  0.12888122209E+00  0.19659420710E-01 0.  0.
         14    1    1    2    0    0 -0.20110763799E-01 -0.11306285273E-01 -0.67000560420E-02  0.24024272272E-01  0.00000000000E+00 0.  1.
     999901    1    3    3    0    0  0.66964464440E-01 -0.19378228122E-01  0.12109877963E+00  0.89102450564E+00  0.88000000000E+00 0. -1.
        -11    1    4    4    0    0 -0.13841926415E-01  0.19088933578E-01 -0.56567069884E-01  0.61286873214E-01  0.51100000000E-03 0.  1.
         11    1    4    4    0    0 -0.33011774226E-01  0.11595579818E-01 -0.57831653702E-01  0.67594348874E-01  0.51100000000E-03 0. -1.
</event>
<event>
 8    1  0.1061722E+005  0.1043930E+01  0.7957747E-01            NaN
         13   -1    0    0    0    0  0.00000000000E+00  0.00000000000E+00  0.74505805969E-08  0.10566000000E+00  0.10566000000E+00 0. -1.
     999900   -1    0    0    0    0 -0.00000000000E+00 -0.00000000000E+00 -0.74505805969E-08  0.93827000000E+00  0.93827000000E+00 0. -1.
     999902    2    1    2    0    0  0.11717125132E-01  0.73072049578E-02 -0.16528243847E-01  0.10223923792E+01  0.10221654993E+01 0.  0.
     999903    2    3    3    0    0 -0.11699342740E+00  0.17330499427E-01  0.51260129464E-01  0.13039342385E+00  0.19673226622E-01 0.  0.
         14    1    1    2    0    0 -0.11717125132E-01 -0.73072049578E-02  0.16528243847E-01  0.21537620814E-01  0.00000000000E+00 0. -1.
     999901    1    3    3    0    0  0.12871055253E+00 -0.10023294469E-01 -0.67788373311E-01  0.89199895534E+00  0.88000000000E+00 0. -1.
        -11    1    4    4    0    0 -0.52469605461E-01 -0.15240934537E-02  0.25998496406E-01  0.58579563796E-01  0.51100000000E-03 0.  1.
         11    1    4    4    0    0 -0.64523821937E-01  0.18854592881E-01  0.25261633058E-01  0.71813860054E-01  0.51100000000E-03 0. -1.
</event>
<event>
 8    1  0.1061722E+005  0.1043930E+01  0.7957747E-01            NaN
         13   -1    0    0    0    0  0.00000000000E+00  0.00000000000E+00  0.74505805969E-08  0.10566000000E+00  0.10566000000E+00 0. -1.
     999900   -1    0    0    0    0 -0.00000000000E+00 -0.00000000000E+00 -0.74505805969E-08  0.93827000000E+00  0.93827000000E+00 0. -1.
     999902    2    1    2    0    0 -0.18591137863E-01  0.83797285324E-02  0.11934720443E-01  0.10203018852E+01  0.10200282590E+01 0.  0.
     999903    2    3    3    0    0  0.97912828870E-01  0.79792663413E-01 -0.17995028596E-01  0.12925263211E+00  0.20703397364E-01 0.  0.
         14    1    1    2    0    0  0.18591137863E-01 -0.83797285324E-02 -0.11934720443E-01  0.23628114808E-01  0.00000000000E+00 0.  1.
     999901    1    3    3    0    0 -0.11650396673E+00 -0.71412934881E-01  0.29929749039E-01  0.89104925308E+00  0.88000000000E+00 0.  1.
        -11    1    4    4    0    0  0.69586717590E-01  0.59690738867E-01 -0.22000706819E-01  0.94284610584E-01  0.51100000000E-03 0.  1.
         11    1    4    4    0    0  0.28326111281E-01  0.20101924546E-01  0.40056782233E-02  0.34968021531E-01  0.51100000000E-03 0. -1.
</event>
<event>
 8    1  0.1061722E+005  0.1043930E+01  0.7957747E-01            NaN
         13   -1    0    0    0    0  0.00000000000E+00  0.00000000000E+00  0.74505805969E-08  0.10566000000E+00  0.10566000000E+00 0.  1.
     999900   -1    0    0    0    0 -0.00000000000E+00 -0.00000000000E+00 -0.74505805969E-08  0.93827000000E+00  0.93827000000E+00 0.  1.
     999902    2    1    2    0    0 -0.19892658119E-01  0.83116243557E-02  0.10004766523E-01  0.10201624528E+01  0.10198855494E+01 0.  0.
     999903    2    3    3    0    0  0.54498184970E-01 -0.33676123178E-01 -0.10893284989E+00  0.12806205202E+00  0.20721726402E-01 0.  0.
         14    1    1    2    0    0  0.19892658119E-01 -0.83116243557E-02 -0.10004766523E-01  0.23767547195E-01  0.00000000000E+00 0. -1.
     999901    1    3    3    0    0 -0.74390843090E-01  0.41987747534E-01  0.11893761642E+00  0.89210040078E+00  0.88000000000E+00 0. -1.
        -11    1    4    4    0    0  0.23913591460E-01 -0.24458924476E-01 -0.68161184389E-01  0.76264716753E-01  0.51100000000E-03 0.  1.
         11    1    4    4    0    0  0.30584593510E-01 -0.92171987023E-02 -0.40771665503E-01  0.51797335269E-01  0.51100000000E-03 0. -1.
</event>
<event>
 8    1  0.1061722E+005  0.1043930E+01  0.7957747E-01            NaN
         13   -1    0    0    0    0  0.00000000000E+00  0.00000000000E+00  0.74505805969E-08  0.10566000000E+00  0.10566000000E+00 0.  1.
     999900   -1    0    0    0    0 -0.00000000000E+00 -0.00000000000E+00 -0.74505805969E-08  0.93827000000E+00  0.93827000000E+00 0.  1.
     999902    2    1    2    0    0 -0.96911703711E-02 -0.46004465959E-02 -0.21052464916E-01  0.10203018564E+01  0.10200282295E+01 0.  0.
     999903    2    3    3    0    0  0.81562785652E-02  0.97056464050E-01  0.81192469677E-01  0.12839004147E+00  0.20132151476E-01 0.  0.
         14    1    1    2    0    0  0.96911703711E-02  0.46004465959E-02  0.21052464916E-01  0.23628143624E-01  0.00000000000E+00 0.  1.
     999901    1    3    3    0    0 -0.17847448936E-01 -0.10165691065E+00 -0.10224493459E+00  0.89191181490E+00  0.88000000000E+00 0.  1.
        -11    1    4    4    0    0 -0.54227728354E-02  0.52523881732E-01  0.40384597861E-01  0.66478127853E-01  0.51100000000E-03 0.  1.
         11    1    4    4    0    0  0.13579051401E-01  0.44532582318E-01  0.40807871816E-01  0.61911913619E-01  0.51100000000E-03 0. -1.
</event>
<event>
 8    1  0.1061722E+005  0.1043930E+01  0.7957747E-01            NaN
         13   -1    0    0    0    0  0.00000000000E+00  0.00000000000E+00  0.74505805969E-08  0.10566000000E+00  0.10566000000E+00 0.  1.
     999900   -1    0    0    0    0 -0.00000000000E+00 -0.00000000000E+00 -0.74505805969E-08  0.93827000000E+00  0.93827000000E+00 0. -1.
     999902    2    1    2    0    0 -0.22355862297E-02 -0.23823441145E-01  0.38446796295E-02  0.10196949891E+01  0.10194069526E+01 0.  0.
     999903    2    3    3    0    0 -0.10266200200E-01  0.10911155936E+00  0.62384921459E-01  0.12775151269E+00  0.20441216164E-01 0.  0.
         14    1    1    2    0    0  0.22355862297E-02  0.23823441145E-01 -0.38446796295E-02  0.24235010939E-01  0.00000000000E+00 0. -1.
     999901    1    3    3    0    0  0.80306139700E-02 -0.13293500050E+00 -0.58540241830E-01  0.89194347637E+00  0.88000000000E+00 0.  1.
        -11    1    4    4    0    0 -0.16408415015E-01  0.86044202021E-01  0.49744617684E-01  0.10073544011E+00  0.51100000000E-03 0. -1.
         11    1    4    4    0    0  0.61422148151E-02  0.23067357336E-01  0.12640303775E-01  0.27016072584E-01  0.51100000000E-03 0.  1.
</event>
<event>
 8    1  0.1061722E+005  0.1043930E+01  0.7957747E-01            NaN
         13   -1    0    0    0    0  0.00000000000E+00  0.00000000000E+00  0.74505805969E-08  0.10566000000E+00  0.10566000000E+00 0. -1.
     999900   -1    0    0    0    0 -0.00000000000E+00 -0.00000000000E+00 -0.74505805969E-08  0.93827000000E+00  0.93827000000E+00 0.  1.
     999902    2    1    2    0    0  0.16632948917E-01 -0.71740021534E-02 -0.14808914992E-01  0.10205328792E+01  0.10202646384E+01 0.  0.
     999903    2    3    3    0    0 -0.16239585234E-01  0.11618357234E+00  0.49824912912E-01  0.12897512654E+00  0.19741193246E-01 0.  0.
         14    1    1    2    0    0 -0.16632948917E-01  0.71740021534E-02  0.14808914992E-01  0.23397120759E-01  0.00000000000E+00 0.  1.
     999901    1    3    3    0    0  0.32872534151E-01 -0.12335757449E+00 -0.64633827903E-01  0.89155775270E+00  0.88000000000E+00 0. -1.
        -11    1    4    4    0    0 -0.14069095890E-01  0.46483299792E-01  0.27169480585E-01  0.55651400836E-01  0.51100000000E-03 0.  1.
         11    1    4    4    0    0 -0.21704893439E-02  0.69700272544E-01  0.22655432327E-01  0.73323725708E-01  0.51100000000E-03 0. -1.
</event>
<event>
 8    1  0.1061722E+005  0.1043930E+01  0.7957747E-01            NaN
         13   -1    0    0    0    0  0.00000000000E+00  0.00000000000E+00  0.74505805969E-08  0.10566000000E+00  0.10566000000E+00 0.  1.
     999900   -1    0    0    0    0 -0.00000000000E+00 -0.00000000000E+00 -0.74505805969E-08  0.93827000000E+00  0.93827000000E+00 0.  1.
     999902    2    1    2    0    0  0.29912672235E-02  0.19194702064E-01  0.12274625168E-01  0.10209506464E+01  0.10206920063E+01 0.  0.
     999903    2    3    3    0    0  0.61478309410E-01 -0.12311911848E-01  0.11491504535E+00  0.13249780207E+00  0.20470324971E-01 0.  0.
         14    1    1    2    0    0 -0.29912672235E-02 -0.19194702064E-01 -0.12274625168E-01  0.22979353558E-01  0.00000000000E+00 0.  1.
     999901    1    3    3    0    0 -0.58487042186E-01  0.31506613911E-01 -0.10264042018E+00  0.88845284438E+00  0.88000000000E+00 0. -1.
        -11    1    4    4    0    0  0.28190084180E-01  0.36927829640E-02  0.41412785878E-01  0.50235420246E-01  0.51100000000E-03 0.  1.
         11    1    4    4    0    0  0.33288225230E-01 -0.16004694812E-01  0.73502259468E-01  0.82262381821E-01  0.51100000000E-03 0. -1.
</event>
<event>
 8    1  0.1061722E+005  0.1043930E+01  0.7957747E-01            NaN
         13   -1    0    0    0    0  0.00000000000E+00  0.00000000000E+00  0.74505805969E-08  0.10566000000E+00  0.10566000000E+00 0. -1.
     999900   -1    0    0    0    0 -0.00000000000E+00 -0.00000000000E+00 -0.74505805969E-08  0.93827000000E+00  0.93827000000E+00 0. -1.
     999902    2    1    2    0    0  0.50138067546E-02  0.97718535194E-02 -0.19416859656E-01  0.10216221131E+01  0.10213785293E+01 0.  0.
     999903    2    3    3    0    0  0.92480921920E-01  0.34877918162E-01  0.83614515895E-01  0.13095030201E+00  0.19682587039E-01 0.  0.
         14    1    1    2    0    0 -0.50138067546E-02 -0.97718535194E-02  0.19416859656E-01  0.22307886907E-01  0.00000000000E+00 0. -1.
     999901    1    3    3    0    0 -0.87467115165E-01 -0.25106064643E-01 -0.10303137555E+00  0.89067181109E+00  0.88000000000E+00 0. -1.
        -11    1    4    4    0    0  0.16936682475E-01  0.15001781886E-01  0.20172620164E-01  0.30316668654E-01  0.51100000000E-03 0.  1.
         11    1    4    4    0    0  0.75544239445E-01  0.19876136276E-01  0.63441895731E-01  0.10063363335E+00  0.51100000000E-03 0. -1.
</event>
<event>
 8    1  0.1061722E+005  0.1043930E+01  0.7957747E-01            NaN
         13   -1    0    0    0    0  0.00000000000E+00  0.00000000000E+00  0.74505805969E-08  0.10566000000E+00  0.10566000000E+00 0. -1.
     999900   -1    0    0    0    0 -0.00000000000E+00 -0.00000000000E+00 -0.74505805969E-08  0.93827000000E+00  0.93827000000E+00 0.  1.
     999902    2    1    2    0    0  0.10798143299E-01 -0.10247531495E-01  0.19026484891E-01  0.10197717938E+01  0.10194856019E+01 0.  0.
     999903    2    3    3    0    0 -0.26325765316E-01 -0.53905543014E-02 -0.12359329275E+00  0.12750379828E+00  0.16118702438E-01 0.  0.
         14    1    1    2    0    0 -0.10798143299E-01  0.10247531495E-01 -0.19026484891E-01  0.24158206220E-01  0.00000000000E+00 0.  1.
     999901    1    3    3    0    0  0.37123908615E-01 -0.48569771939E-02  0.14261977764E+00  0.89226799550E+00  0.88000000000E+00 0. -1.
        -11    1    4    4    0    0 -0.10194820474E-01 -0.54098675233E-02 -0.83319928661E-01  0.84117017685E-01  0.51100000000E-03 0. -1.
         11    1    4    4    0    0 -0.16130944842E-01  0.19313221963E-04 -0.40273364088E-01  0.43386780596E-01  0.51100000000E-03 0.  1.
</event>
<event>
 8    1  0.1061722E+005  0.1043930E+01  0.7957747E-01            NaN
         13   -1    0    0    0    0  0.00000000000E+00  0.00000000000E+00  0.74505805969E-08  0.10566000000E+00  0.10566000000E+00 0.  1.
     999900   -1    0    0    0    0 -0.00000000000E+00 -0.00000000000E+00 -0.74505805969E-08  0.93827000000E+00  0.93827000000E+00 0. -1.
     999902    2    1    2    0    0  0.61699335215E-02 -0.22869213133E-01  0.34193417481E-02  0.10199975767E+01  0.10197167722E+01 0.  0.
     999903    2    3    3    0    0 -0.11671291427E+00 -0.17173916320E-01 -0.50029650974E-01  0.12983499291E+00  0.20911997712E-01 0.  0.
         14    1    1    2    0    0 -0.61699335215E-02  0.22869213133E-01 -0.34193417481E-02  0.23932423341E-01  0.00000000000E+00 0. -1.
     999901    1    3    3    0    0  0.12288284779E+00 -0.56952968122E-02  0.53448992722E-01  0.89016258375E+00  0.88000000000E+00 0. -1.
        -11    1    4    4    0    0 -0.42615710229E-01  0.29433435122E-02 -0.22376373847E-01  0.48225773782E-01  0.51100000000E-03 0.  1.
         11    1    4    4    0    0 -0.74097204039E-01 -0.20117259833E-01 -0.27653277127E-01  0.81609219127E-01  0.51100000000E-03 0. -1.
</event>
<event>
 8    1  0.1061722E+005  0.1043930E+01  0.7957747E-01            NaN
         13   -1    0    0    0    0  0.00000000000E+00  0.00000000000E+00  0.74505805969E-08  0.10566000000E+00  0.10566000000E+00 0. -1.
     999900   -1    0    0    0    0 -0.00000000000E+00 -0.00000000000E+00 -0.74505805969E-08  0.93827000000E+00  0.93827000000E+00 0.  1.
     999902    2    1    2    0    0 -0.15237444747E-01  0.23138362478E-02 -0.17333342294E-01  0.10207356404E+01  0.10204720816E+01 0.  0.
     999903    2    3    3    0    0  0.99379455663E-01 -0.77117459486E-01 -0.24525899727E-01  0.12972604594E+00  0.20098469386E-01 0.  0.
         14    1    1    2    0    0  0.15237444747E-01 -0.23138362478E-02  0.17333342294E-01  0.23194359566E-01  0.00000000000E+00 0. -1.
     999901    1    3    3    0    0 -0.11461690041E+00  0.79431295734E-01  0.71925574330E-02  0.89100959450E+00  0.88000000000E+00 0. -1.
        -11    1    4    4    0    0  0.17481156183E-01 -0.50591643544E-02 -0.52641647337E-02  0.18951477958E-01  0.51100000000E-03 0. -1.
         11    1    4    4    0    0  0.81898299481E-01 -0.72058295132E-01 -0.19261734993E-01  0.11077456798E+00  0.51100000000E-03 0.  1.
</event>
<event>
 8    1  0.1061722E+005  0.1043930E+01  0.7957747E-01            NaN
         13   -1    0    0    0    0  0.00000000000E+00  0.00000000000E+00  0.74505805969E-08  0.10566000000E+00  0.10566000000E+00 0.  1.
     999900   -1    0    0    0    0 -0.00000000000E+00 -0.00000000000E+00 -0.74505805969E-08  0.93827000000E+00  0.93827000000E+00 0. -1.
     999902    2    1    2    0    0  0.78612006440E-03 -0.77975352522E-02  0.20891346466E-01  0.10216170464E+01  0.10213733507E+01 0.  0.
     999903    2    3    3    0    0  0.68596614972E-01 -0.11143938376E+00  0.11079601175E-01  0.13288977310E+00  0.20315077992E-01 0.  0.
         14    1    1    2    0    0 -0.78612006440E-03  0.77975352522E-02 -0.20891346466E-01  0.22312953591E-01  0.00000000000E+00 0. -1.
     999901    1    3    3    0    0 -0.67810494908E-01  0.10364184851E+00  0.98117452908E-02  0.88872727331E+00  0.88000000000E+00 0. -1.
        -11    1    4    4    0    0  0.88763742266E-02 -0.26271208858E-01  0.78254728600E-02  0.28817799721E-01  0.51100000000E-03 0. -1.
         11    1    4    4    0    0  0.59720240745E-01 -0.85168174901E-01  0.32541283153E-02  0.10407197338E+00  0.51100000000E-03 0.  1.
</event>
<event>
 8    1  0.1061722E+005  0.1043930E+01  0.7957747E-01            NaN
         13   -1    0    0    0    0  0.00000000000E+00  0.00000000000E+00  0.74505805969E-08  0.10566000000E+00  0.10566000000E+00 0.  1.
     999900   -1    0    0    0    0 -0.00000000000E+00 -0.00000000000E+00 -0.74505805969E-08  0.93827000000E+00  0.93827000000E+00 0.  1.
     999902    2    1    2    0    0  0.48322137134E-02 -0.13266608446E-01  0.12851877629E-01  0.10248374898E+01  0.10246596296E+01 0.  0.
     999903    2    3    3    0    0 -0.82800752333E-01  0.10100373211E+00  0.15764692262E-01  0.13312804607E+00  0.20416479628E-01 0.  0.
         14    1    1    2    0    0 -0.48322137134E-02  0.13266608446E-01 -0.12851877629E-01  0.19092510250E-01  0.00000000000E+00 0.  1.
     999901    1    3    3    0    0  0.87632966046E-01 -0.11427034055E+00 -0.29128146330E-02  0.89170944369E+00  0.88000000000E+00 0. -1.
        -11    1    4    4    0    0 -0.43612435474E-01  0.37322604233E-01  0.77353381476E-02  0.57923379494E-01  0.51100000000E-03 0.  1.
         11    1    4    4    0    0 -0.39188316859E-01  0.63681127875E-01  0.80293541144E-02  0.75204666571E-01  0.51100000000E-03 0. -1.
</event>
<event>
 8    1  0.1061722E+005  0.1043930E+01  0.7957747E-01            NaN
         13   -1    0    0    0    0  0.00000000000E+00  0.00000000000E+00  0.74505805969E-08  0.10566000000E+00  0.10566000000E+00 0. -1.
     999900   -1    0    0    0    0 -0.00000000000E+00 -0.00000000000E+00 -0.74505805969E-08  0.93827000000E+00  0.93827000000E+00 0. -1.
     999902    2    1    2    0    0 -0.12785435289E-01 -0.18979376228E-01  0.68075016656E-02  0.10200547794E+01  0.10197753316E+01 0.  0.
     999903    2    3    3    0    0 -0.35055852108E-01 -0.12595272892E+00  0.15924032570E-01  0.13325018948E+00  0.20224625900E-01 0.  0.
         14    1    1    2    0    0  0.12785435289E-01  0.18979376228E-01 -0.68075016656E-02  0.23875220553E-01  0.00000000000E+00 0.  1.
     999901    1    3    3    0    0  0.22270416819E-01  0.10697335269E+00 -0.91165309046E-02  0.88680458997E+00  0.88000000000E+00 0.  1.
        -11    1    4    4    0    0 -0.22085842965E-01 -0.43484415717E-01  0.43464986851E-02  0.48967663223E-01  0.51100000000E-03 0. -1.
         11    1    4    4    0    0 -0.12970009143E-01 -0.82468313206E-01  0.11577533885E-01  0.84282526256E-01  0.51100000000E-03 0.  1.
</event>
<event>
 8    1  0.1061722E+005  0.1043930E+01  0.7957747E-01            NaN
         13   -1    0    0    0    0  0.00000000000E+00  0.00000000000E+00  0.74505805969E-08  0.10566000000E+00  0.10566000000E+00 0. -1.
     999900   -1    0    0    0    0 -0.00000000000E+00 -0.00000000000E+00 -0.74505805969E-08  0.93827000000E+00  0.93827000000E+00 0. -1.
     999902    2    1    2    0    0  0.12288817727E-01 -0.12360730660E-01  0.15993042347E-01  0.10202745544E+01  0.10200002874E+01 0.  0.
     999903    2    3    3    0    0 -0.23194147508E-01 -0.12680035116E+00  0.21360824095E-01  0.13213927154E+00  0.19702912080E-01 0.  0.
         14    1    1    2    0    0 -0.12288817727E-01  0.12360730660E-01 -0.15993042347E-01  0.23655445612E-01  0.00000000000E+00 0.  1.
     999901    1    3    3    0    0  0.35482965235E-01  0.11443962050E+00 -0.53677817473E-02  0.88813528285E+00  0.88000000000E+00 0. -1.
        -11    1    4    4    0    0 -0.19780299325E-01 -0.10859791471E+00  0.25183717512E-01  0.11322211829E+00  0.51100000000E-03 0.  1.
         11    1    4    4    0    0 -0.34138481835E-02 -0.18202436443E-01 -0.38228934179E-02  0.18917153247E-01  0.51100000000E-03 0. -1.
</event>
<event>
 8    1  0.1061722E+005  0.1043930E+01  0.7957747E-01            NaN
         13   -1    0    0    0    0  0.00000000000E+00  0.00000000000E+00  0.74505805969E-08  0.10566000000E+00  0.10566000000E+00 0.  1.
     999900   -1    0    0    0    0 -0.00000000000E+00 -0.00000000000E+00 -0.74505805969E-08  0.93827000000E+00  0.93827000000E+00 0. -1.
     999902    2    1    2    0    0  0.16492880006E-01 -0.17598006173E-01  0.14459321188E-01  0.10158092447E+01  0.10154199351E+01 0.  0.
     999903    2    3    3    0    0  0.12089441499E+00  0.34305094134E-01 -0.13967148743E-01  0.12766416837E+00  0.17628374371E-01 0.  0.
         14    1    1    2    0    0 -0.16492880006E-01  0.17598006173E-01 -0.14459321188E-01  0.28120755349E-01  0.00000000000E+00 0.  1.
     999901    1    3    3    0    0 -0.10440153498E+00 -0.51903100306E-01  0.28426469931E-01  0.88814507628E+00  0.88000000000E+00 0.  1.
        -11    1    4    4    0    0  0.22262949302E-01 -0.55786801266E-03 -0.30360554866E-02  0.22481745534E-01  0.51100000000E-03 0.  1.
         11    1    4    4    0    0  0.98631465686E-01  0.34862962147E-01 -0.10931093256E-01  0.10518242284E+00  0.51100000000E-03 0. -1.
</event>
<event>
 8    1  0.1061722E+005  0.1043930E+01  0.7957747E-01            NaN
         13   -1    0    0    0    0  0.00000000000E+00  0.00000000000E+00  0.74505805969E-08  0.10566000000E+00  0.10566000000E+00 0.  1.
     999900   -1    0    0    0    0 -0.00000000000E+00 -0.00000000000E+00 -0.74505805969E-08  0.93827000000E+00  0.93827000000E+00 0. -1.
     999902    2    1    2    0    0 -0.10764004551E-01 -0.19404113795E-01 -0.43852751197E-02  0.10213111127E+01  0.10210606127E+01 0.  0.
     999903    2    3    3    0    0  0.60162065865E-01 -0.98001693396E-01 -0.63716943857E-01  0.13298215677E+00  0.20014969547E-01 0.  0.
         14    1    1    2    0    0  0.10764004551E-01  0.19404113795E-01  0.43852751197E-02  0.22618887329E-01  0.00000000000E+00 0. -1.
     999901    1    3    3    0    0 -0.70926070415E-01  0.78597579601E-01  0.59331668737E-01  0.88832895590E+00  0.88000000000E+00 0.  1.
        -11    1    4    4    0    0  0.32474184423E-01 -0.67747139315E-01 -0.34798859559E-01  0.82797761364E-01  0.51100000000E-03 0. -1.
         11    1    4    4    0    0  0.27687881442E-01 -0.30254554082E-01 -0.28918084298E-01  0.50184395402E-01  0.51100000000E-03 0.  1.
</event>
<event>
 8    1  0.1061722E+005  0.1043930E+01  0.7957747E-01            NaN
         13   -1    0    0    0    0  0.00000000000E+00  0.00000000000E+00  0.74505805969E-08  0.10566000000E+00  0.10566000000E+00 0.  1.
     999900   -1    0    0    0    0 -0.00000000000E+00 -0.00000000000E+00 -0.74505805969E-08  0.93827000000E+00  0.93827000000E+00 0. -1.
     999902    2    1    2    0    0  0.31540387118E-02  0.23532254481E-01 -0.43803959040E-02  0.10197866193E+01  0.10195007828E+01 0.  0.
     999903    2    3    3    0    0 -0.54525003325E-01  0.93179559738E-01 -0.74075129722E-01  0.13241129011E+00  0.19753950585E-01 0.  0.
         14    1    1    2    0    0 -0.31540387118E-02 -0.23532254481E-01  0.43803959040E-02  0.24143380655E-01  0.00000000000E+00 0. -1.
     999901    1    3    3    0    0  0.57679042037E-01 -0.69647305257E-01  0.69694733818E-01  0.88737532924E+00  0.88000000000E+00 0.  1.
        -11    1    4    4    0    0 -0.11305773199E-01  0.16952662499E-01 -0.54216351390E-02  0.21091906552E-01  0.51100000000E-03 0.  1.
         11    1    4    4    0    0 -0.43219230126E-01  0.76226897239E-01 -0.68653494583E-01  0.11131938355E+00  0.51100000000E-03 0. -1.
</event>
<event>
 8    1  0.1061722E+005  0.1043930E+01  0.7957747E-01            NaN
         13   -1    0    0    0    0  0.00000000000E+00  0.00000000000E+00  0.74505805969E-08  0.10566000000E+00  0.10566000000E+00 0. -1.
     999900   -1    0    0    0    0 -0.00000000000E+00 -0.00000000000E+00 -0.74505805969E-08  0.93827000000E+00  0.93827000000E+00 0.  1.
     999902    2    1    2    0    0 -0.65933541640E-02 -0.14460365320E-01  0.16780302111E-01  0.10208182492E+01  0.10205565859E+01 0.  0.
     999903    2    3    3    0    0 -0.11587064675E+00 -0.22568034987E-01 -0.54101663850E-01  0.13119388240E+00  0.18695501183E-01 0.  0.
         14    1    1    2    0    0  0.65933541640E-02  0.14460365320E-01 -0.16780302111E-01  0.23111750761E-01  0.00000000000E+00 0.  1.
     999901    1    3    3    0    0  0.10927729259E+00  0.81076696672E-02  0.70881965961E-01  0.88962436684E+00  0.88000000000E+00 0.  1.
        -11    1    4    4    0    0 -0.10677250574E+00 -0.25788203420E-01 -0.49243564149E-01  0.12037686301E+00  0.51100000000E-03 0.  1.
         11    1    4    4    0    0 -0.90981410146E-02  0.32201684327E-02 -0.48580997005E-02  0.10817019384E-01  0.51100000000E-03 0. -1.
</event>
<event>
 8    1  0.1061722E+005  0.1043930E+01  0.7957747E-01            NaN
         13   -1    0    0    0    0  0.00000000000E+00  0.00000000000E+00  0.74505805969E-08  0.10566000000E+00  0.10566000000E+00 0. -1.
     999900   -1    0    0    0    0 -0.00000000000E+00 -0.00000000000E+00 -0.74505805969E-08  0.93827000000E+00  0.93827000000E+00 0.  1.
     999902    2    1    2    0    0 -0.16844989708E-01 -0.15696025853E-01 -0.10581181076E-02  0.10208813879E+01  0.10206211685E+01 0.  0.
     999903    2    3    3    0    0 -0.81142957770E-01  0.75629685275E-01 -0.69561548254E-01  0.13118068870E+00  0.80953815490E-02 0.  0.
         14    1    1    2    0    0  0.16844989708E-01  0.15696025853E-01  0.10581181076E-02  0.23048612101E-01  0.00000000000E+00 0.  1.
     999901    1    3    3    0    0  0.64297968062E-01 -0.91325711129E-01  0.68503430146E-01  0.88970069920E+00  0.88000000000E+00 0. -1.
        -11    1    4    4    0    0 -0.51188374262E-01  0.42681403678E-01 -0.43337288871E-01  0.79500525830E-01  0.51100000000E-03 0. -1.
         11    1    4    4    0    0 -0.29954583508E-01  0.32948281597E-01 -0.26224259383E-01  0.51680162872E-01  0.51100000000E-03 0.  1.
</event>
<event>
 8    1  0.1061722E+005  0.1043930E+01  0.7957747E-01            NaN
         13   -1    0    0    0    0  0.00000000000E+00  0.00000000000E+00  0.74505805969E-08  0.10566000000E+00  0.10566000000E+00 0.  1.
     999900   -1    0    0    0    0 -0.00000000000E+00 -0.00000000000E+00 -0.74505805969E-08  0.93827000000E+00  0.93827000000E+00 0. -1.
     999902    2    1    2    0    0  0.15724434581E-01 -0.17406714847E-03  0.18121094250E-01  0.10199370386E+01  0.10196547947E+01 0.  0.
     999903    2    3    3    0    0 -0.30976804037E-01  0.10771535351E+00  0.64596614507E-01  0.13090323337E+00  0.20019343867E-01 0.  0.
         14    1    1    2    0    0 -0.15724434581E-01  0.17406714847E-03 -0.18121094250E-01  0.23992961449E-01  0.00000000000E+00 0. -1.
     999901    1    3    3    0    0  0.46701238618E-01 -0.10788942066E+00 -0.46475520257E-01  0.88903380519E+00  0.88000000000E+00 0.  1.
        -11    1    4    4    0    0  0.18286215224E-02  0.15874543567E-01  0.56998640805E-02  0.16973348570E-01  0.51100000000E-03 0. -1.
         11    1    4    4    0    0 -0.32805425559E-01  0.91840809947E-01  0.58896750426E-01  0.11392988480E+00  0.51100000000E-03 0.  1.
</event>
<event>
 8    1  0.1061722E+005  0.1043930E+01  0.7957747E-01            NaN
         13   -1    0    0    0    0  0.00000000000E+00  0.00000000000E+00  0.74505805969E-08  0.10566000000E+00  0.10566000000E+00 0.  1.
     999900   -1    0    0    0    0 -0.00000000000E+00 -0.00000000000E+00 -0.74505805969E-08  0.93827000000E+00  0.93827000000E+00 0.  1.
     999902    2    1    2    0    0  0.22167458635E-01 -0.38891803715E-02 -0.77164320054E-02  0.10201378738E+01  0.10198603906E+01 0.  0.
     999903    2    3    3    0    0 -0.63981035951E-01  0.70992570408E-01  0.82960855294E-01  0.12814504303E+00  0.20127854486E-01 0.  0.
         14    1    1    2    0    0 -0.22167458635E-01  0.38891803715E-02  0.77164320054E-02  0.23792126201E-01  0.00000000000E+00 0.  1.
     999901    1    3    3    0    0  0.86148494586E-01 -0.74881750780E-01 -0.90677287300E-01  0.89199283077E+00  0.88000000000E+00 0.  1.
        -11    1    4    4    0    0 -0.14707195180E-01  0.11271487379E-01  0.26410091570E-01  0.32266113425E-01  0.51100000000E-03 0. -1.
         11    1    4    4    0    0 -0.49273840772E-01  0.59721083029E-01  0.56550763724E-01  0.95878929601E-01  0.51100000000E-03 0.  1.
</event>
<event>
 8    1  0.1061722E+005  0.1043930E+01  0.7957747E-01            NaN
         13   -1    0    0    0    0  0.00000000000E+00  0.00000000000E+00  0.74505805969E-08  0.10566000000E+00  0.10566000000E+00 0.  1.
     999900   -1    0    0    0    0 -0.00000000000E+00 -0.00000000000E+00 -0.74505805969E-08  0.93827000000E+00  0.93827000000E+00 0.  1.
     999902    2    1    2    0    0  0.24434144446E-01 -0.19658948333E-02  0.55587879783E-02  0.10187945215E+01  0.10184844057E+01 0.  0.
     999903    2    3    3    0    0  0.43417867232E-01 -0.38713596393E-01 -0.11420088549E+00  0.12972019685E+00  0.20040795491E-01 0.  0.
         14    1    1    2    0    0 -0.24434144446E-01  0.19658948333E-02 -0.55587879783E-02  0.25135478533E-01  0.00000000000E+00 0.  1.
     999901    1    3    3    0    0 -0.18983722786E-01  0.36747701560E-01  0.11975967347E+00  0.88907432462E+00  0.88000000000E+00 0. -1.
        -11    1    4    4    0    0  0.30168253847E-01 -0.37596141502E-01 -0.88365015448E-01  0.10065898108E+00  0.51100000000E-03 0. -1.
         11    1    4    4    0    0  0.13249613385E-01 -0.11174548910E-02 -0.25835870042E-01  0.29061215771E-01  0.51100000000E-03 0.  1.
</event>
<event>
 8    1  0.1061722E+005  0.1043930E+01  0.7957747E-01            NaN
         13   -1    0    0    0    0  0.00000000000E+00  0.00000000000E+00  0.74505805969E-08  0.10566000000E+00  0.10566000000E+00 0. -1.
     999900   -1    0    0    0    0 -0.00000000000E+00 -0.00000000000E+00 -0.74505805969E-08  0.93827000000E+00  0.93827000000E+00 0.  1.
     999902    2    1    2    0    0 -0.38364876748E-02  0.85794944715E-02  0.21543459613E-01  0.10204258086E+01  0.10201550783E+01 0.  0.
     999903    2    3    3    0    0  0.10972138352E+00  0.57028822338E-01  0.40689870220E-01  0.13160112814E+00  0.19290484999E-01 0.  0.
         14    1    1    2    0    0  0.38364876748E-02 -0.85794944715E-02 -0.21543459613E-01  0.23504191438E-01  0.00000000000E+00 0.  1.
     999901    1    3    3    0    0 -0.11355787119E+00 -0.48449327867E-01 -0.19146410607E-01  0.88882468042E+00  0.88000000000E+00 0.  1.
        -11    1    4    4    0    0  0.27677663840E-01  0.22863140724E-01  0.71497431571E-02  0.36608144279E-01  0.51100000000E-03 0.  1.
         11    1    4    4    0    0  0.82043719680E-01  0.34165681615E-01  0.33540127063E-01  0.94992983864E-01  0.51100000000E-03 0. -1.
</event>
<event>
 8    1  0.1061722E+005  0.1043930E+01  0.7957747E-01            NaN
         13   -1    0    0    0    0  0.00000000000E+00  0.00000000000E+00  0.74505805969E-08  0.10566000000E+00  0.10566000000E+00 0. -1.
     999900   -1    0    0    0    0 -0.00000000000E+00 -0.00000000000E+00 -0.74505805969E-08  0.93827000000E+00  0.93827000000E+00 0.  1.
     999902    2    1    2    0    0 -0.19799373371E-01  0.70466262343E-02  0.59897431111E-02  0.10220771478E+01  0.10218435051E+01 0.  0.
     999903    2    3    3    0    0  0.78373146703E-01  0.13092928091E-02  0.10335673844E+00  0.13126230032E+00  0.20077642586E-01 0.  0.
         14    1    1    2    0    0  0.19799373371E-01 -0.70466262343E-02 -0.59897431111E-02  0.21852852210E-01  0.00000000000E+00 0.  1.
     999901    1    3    3    0    0 -0.98172520074E-01  0.57373334251E-02 -0.97366995333E-01  0.89081484747E+00  0.88000000000E+00 0.  1.
        -11    1    4    4    0    0  0.20558878823E-01  0.89248901203E-02  0.24877620861E-01  0.33488480151E-01  0.51100000000E-03 0. -1.
         11    1    4    4    0    0  0.57814267880E-01 -0.76155973111E-02  0.78479117583E-01  0.97773820170E-01  0.51100000000E-03 0.  1.
</event>
<event>
 8    1  0.1061722E+005  0.1043930E+01  0.7957747E-01            NaN
         13   -1    0    0    0    0  0.00000000000E+00  0.00000000000E+00  0.74505805969E-08  0.10566000000E+00  0.10566000000E+00 0. -1.
     999900   -1    0    0    0    0 -0.00000000000E+00 -0.00000000000E+00 -0.74505805969E-08  0.93827000000E+00  0.93827000000E+00 0. -1.
     999902    2    1    2    0    0  0.13346467090E-01  0.16853445664E-01  0.74356070962E-02  0.10211823613E+01  0.10209289691E+01 0.  0.
     999903    2    3    3    0    0  0.73918718790E-01 -0.10509363075E+00  0.13229406730E-01  0.13069167899E+00  0.19916062460E-01 0.  0.
         14    1    1    2    0    0 -0.13346467090E-01 -0.16853445664E-01 -0.74356070962E-02  0.22747638722E-01  0.00000000000E+00 0.  1.
     999901    1    3    3    0    0 -0.60572251700E-01  0.12194707641E+00 -0.57937996340E-02  0.89049068228E+00  0.88000000000E+00 0.  1.
        -11    1    4    4    0    0  0.12633844557E-01 -0.30559897495E-01 -0.13558470162E-02  0.33100163222E-01  0.51100000000E-03 0.  1.
         11    1    4    4    0    0  0.61284874233E-01 -0.74533733255E-01  0.14585253746E-01  0.97591515771E-01  0.51100000000E-03 0. -1.
</event>
<event>
 8    1  0.1061722E+005  0.1043930E+01  0.7957747E-01            NaN
         13   -1    0    0    0    0  0.00000000000E+00  0.00000000000E+00  0.74505805969E-08  0.10566000000E+00  0.10566000000E+00 0.  1.
     999900   -1    0    0    0    0 -0.00000000000E+00 -0.00000000000E+00 -0.74505805969E-08  0.93827000000E+00  0.93827000000E+00 0. -1.
     999902    2    1    2    0    0 -0.79773273679E-02 -0.10400685009E-01 -0.17565494850E-01  0.10220129151E+01  0.10217778820E+01 0.  0.
     999903    2    3    3    0    0  0.18236984115E-01 -0.13061090956E+00 -0.65981009327E-02  0.13338590003E+00  0.18880309985E-01 0.  0.
         14    1    1    2    0    0  0.79773273679E-02  0.10400685009E-01  0.17565494850E-01  0.21917084886E-01  0.00000000000E+00 0.  1.
     999901    1    3    3    0    0 -0.26214311483E-01  0.12021022455E+00 -0.10967393917E-01  0.88862701509E+00  0.88000000000E+00 0. -1.
        -11    1    4    4    0    0  0.90782077101E-02 -0.10392721338E+00  0.35763677374E-03  0.10432482236E+00  0.51100000000E-03 0.  1.
         11    1    4    4    0    0  0.91587764053E-02 -0.26683696178E-01 -0.69557377064E-02  0.29061077665E-01  0.51100000000E-03 0. -1.
</event>
<event>
 8    1  0.1061722E+005  0.1043930E+01  0.7957747E-01            NaN
         13   -1    0    0    0    0  0.00000000000E+00  0.00000000000E+00  0.74505805969E-08  0.10566000000E+00  0.10566000000E+00 0. -1.
     999900   -1    0    0    0    0 -0.00000000000E+00 -0.00000000000E+00 -0.74505805969E-08  0.93827000000E+00  0.93827000000E+00 0.  1.
     999902    2    1    2    0    0 -0.12195891767E-01 -0.27244631320E-02  0.19105521763E-01  0.10211005577E+01  0.10208453191E+01 0.  0.
     999903    2    3    3    0    0 -0.21004552806E-01 -0.29298449327E-01 -0.12263387005E+00  0.12931929276E+00  0.19616906571E-01 0.  0.
         14    1    1    2    0    0  0.12195891767E-01  0.27244631320E-02 -0.19105521763E-01  0.22829442332E-01  0.00000000000E+00 0.  1.
     999901    1    3    3    0    0  0.88086610389E-02  0.26573986195E-01  0.14173939182E+00  0.89178126491E+00  0.88000000000E+00 0. -1.
        -11    1    4    4    0    0 -0.22817386879E-01 -0.17103129081E-01 -0.79804341467E-01  0.84747532155E-01  0.51100000000E-03 0.  1.
         11    1    4    4    0    0  0.18128340726E-02 -0.12195320246E-01 -0.42829528587E-01  0.44571760603E-01  0.51100000000E-03 0. -1.
</event>
<event>
 8    1  0.1061722E+005  0.1043930E+01  0.7957747E-01            NaN
         13   -1    0    0    0    0  0.00000000000E+00  0.00000000000E+00  0.74505805969E-08  0.10566000000E+00  0.10566000000E+00 0. -1.
     999900   -1    0    0    0    0 -0.00000000000E+00 -0.00000000000E+00 -0.74505805969E-08  0.93827000000E+00  0.93827000000E+00 0. -1.
     999902    2    1    2    0    0 -0.24579339172E-01 -0.43200855576E-02  0.55911832283E-02  0.10183552393E+01  0.10180340491E+01 0.  0.
     999903    2    3    3    0    0  0.32415751893E-01  0.12354583299E-01  0.12229041448E+00  0.12866698182E+00  0.19920593313E-01 0.  0.
         14    1    1    2    0    0  0.24579339172E-01  0.43200855576E-02 -0.55911832283E-02  0.25574760668E-01  0.00000000000E+00 0. -1.
     999901    1    3    3    0    0 -0.56995091065E-01 -0.16674668856E-01 -0.11669923125E+00  0.88968825752E+00  0.88000000000E+00 0. -1.
        -11    1    4    4    0    0  0.27898032765E-01  0.14061341360E-02  0.79571251479E-01  0.84333401618E-01  0.51100000000E-03 0. -1.
         11    1    4    4    0    0  0.45177191277E-02  0.10948449163E-01  0.42719162996E-01  0.44333580199E-01  0.51100000000E-03 0.  1.
</event>
<event>
 8    1  0.1061722E+005  0.1043930E+01  0.7957747E-01            NaN
         13   -1    0    0    0    0  0.00000000000E+00  0.00000000000E+00  0.74505805969E-08  0.10566000000E+00  0.10566000000E+00 0.  1.
     999900   -1    0    0    0    0 -0.00000000000E+00 -0.00000000000E+00 -0.74505805969E-08  0.93827000000E+00  0.93827000000E+00 0.  1.
     999902    2    1    2    0    0  0.16189589219E-01 -0.39190004473E-02  0.18297607653E-01  0.10191860349E+01  0.10188856216E+01 0.  0.
     999903    2    3    3    0    0  0.74061588823E-01  0.65911104267E-01  0.84846266769E-01  0.13202531896E+00  0.20059991433E-01 0.  0.
         14    1    1    2    0    0 -0.16189589219E-01  0.39190004473E-02 -0.18297607653E-01  0.24743965111E-01  0.00000000000E+00 0. -1.
     999901    1    3    3    0    0 -0.57871999603E-01 -0.69830104715E-01 -0.66548659116E-01  0.88716071593E+00  0.88000000000E+00 0.  1.
        -11    1    4    4    0    0  0.57694531147E-01  0.40970781989E-01  0.65797749165E-01  0.96627474443E-01  0.51100000000E-03 0. -1.
         11    1    4    4    0    0  0.16367057676E-01  0.24940322278E-01  0.19048517604E-01  0.35397844514E-01  0.51100000000E-03 0.  1.
</event>
<event>
 8    1  0.1061722E+005  0.1043930E+01  0.7957747E-01            NaN
         13   -1    0    0    0    0  0.00000000000E+00  0.00000000000E+00  0.74505805969E-08  0.10566000000E+00  0.10566000000E+00 0.  1.
     999900   -1    0    0    0    0 -0.00000000000E+00 -0.00000000000E+00 -0.74505805969E-08  0.93827000000E+00  0.93827000000E+00 0.  1.
     999902    2    1    2    0    0  0.22790958160E-01 -0.74789047685E-02 -0.49320605878E-03  0.10199382297E+01  0.10196560142E+01 0.  0.
     999903    2    3    3    0    0  0.97967683472E-01 -0.68653567579E-01 -0.54366619331E-01  0.13297925428E+00  0.20415029412E-01 0.  0.
         14    1    1    2    0    0 -0.22790958160E-01  0.74789047685E-02  0.49320605878E-03  0.23991770310E-01  0.00000000000E+00 0. -1.
     999901    1    3    3    0    0 -0.75176725312E-01  0.61174662811E-01  0.53873413272E-01  0.88695897541E+00  0.88000000000E+00 0. -1.
        -11    1    4    4    0    0  0.60196378785E-01 -0.51955932155E-01 -0.29769171927E-01  0.84908701693E-01  0.51100000000E-03 0.  1.
         11    1    4    4    0    0  0.37771304687E-01 -0.16697635424E-01 -0.24597447404E-01  0.48070552590E-01  0.51100000000E-03 0. -1.
</event>
<event>
 8    1  0.1061722E+005  0.1043930E+01  0.7957747E-01            NaN
         13   -1    0    0    0    0  0.00000000000E+00  0.00000000000E+00  0.74505805969E-08  0.10566000000E+00  0.10566000000E+00 0.  1.
     999900   -1    0    0    0    0 -0.00000000000E+00 -0.00000000000E+00 -0.74505805969E-08  0.93827000000E+00  0.93827000000E+00 0.  1.
     999902    2    1    2    0    0  0.23928854603E-02  0.18212166387E-01  0.26742153892E-01  0.10114869468E+01  0.10109665137E+01 0.  0.
     999903    2    3    3    0    0  0.87534223885E-01  0.76349710743E-01  0.42755727402E-01  0.12532361192E+00  0.19657995753E-01 0.  0.
         14    1    1    2    0    0 -0.23928854603E-02 -0.18212166387E-01 -0.26742153892E-01  0.32443053187E-01  0.00000000000E+00 0. -1.
     999901    1    3    3    0    0 -0.85141338425E-01 -0.58137544357E-01 -0.16013573510E-01  0.88616333489E+00  0.88000000000E+00 0.  1.
        -11    1    4    4    0    0  0.82090785159E-02  0.10416556930E-01  0.11446957170E-01  0.17526767466E-01  0.51100000000E-03 0. -1.
         11    1    4    4    0    0  0.79325145369E-01  0.65933153814E-01  0.31308770232E-01  0.10779684445E+00  0.51100000000E-03 0.  1.
</event>
<event>
 8    1  0.1061722E+005  0.1043930E+01  0.7957747E-01            NaN
         13   -1    0    0    0    0  0.00000000000E+00  0.00000000000E+00  0.74505805969E-08  0.10566000000E+00  0.10566000000E+00 0.  1.
     999900   -1    0    0    0    0 -0.00000000000E+00 -0.00000000000E+00 -0.74505805969E-08  0.93827000000E+00  0.93827000000E+00 0.  1.
     999902    2    1    2    0    0 -0.80535649025E-02  0.12277479174E-01 -0.17043063550E-01  0.10214341689E+01  0.10211864173E+01 0.  0.
     999903    2    3    3    0    0 -0.10233690084E+00 -0.78303206624E-01 -0.19359161570E-01  0.13177155171E+00  0.19614567616E-01 0.  0.
         14    1    1    2    0    0  0.80535649025E-02 -0.12277479174E-01  0.17043063550E-01  0.22495831118E-01  0.00000000000E+00 0.  1.
     999901    1    3    3    0    0  0.94283335941E-01  0.90580685798E-01  0.23160980204E-02  0.88966261717E+00  0.88000000000E+00 0.  1.
        -11    1    4    4    0    0 -0.72183876794E-01 -0.65825807406E-01 -0.15305388886E-01  0.98884099023E-01  0.51100000000E-03 0.  1.
         11    1    4    4    0    0 -0.30153024049E-01 -0.12477399218E-01 -0.40537726845E-02  0.32887452692E-01  0.51100000000E-03 0. -1.
</event>
<event>
 8    1  0.1061722E+005  0.1043930E+01  0.7957747E-01            NaN
         13   -1    0    0    0    0  0.00000000000E+00  0.00000000000E+00  0.74505805969E-08  0.10566000000E+00  0.10566000000E+00 0. -1.
     999900   -1    0    0    0    0 -0.00000000000E+00 -0.00000000000E+00 -0.74505805969E-08  0.93827000000E+00  0.93827000000E+00 0.  1.
     999902    2    1    2    0    0 -0.20213938426E-01 -0.99851500463E-02 -0.82672882467E-02  0.10199163667E+01  0.10196336305E+01 0.  0.
     999903    2    3    3    0    0 -0.90140700832E-01  0.60679951356E-02 -0.95154808760E-01  0.13273155126E+00  0.20026496402E-01 0.  0.
         14    1    1    2    0    0  0.20213938426E-01  0.99851500463E-02  0.82672882467E-02  0.24013633275E-01  0.00000000000E+00 0. -1.
     999901    1    3    3    0    0  0.69926762406E-01 -0.16053145182E-01  0.86887520513E-01  0.88718481547E+00  0.88000000000E+00 0. -1.
        -11    1    4    4    0    0 -0.53064371443E-01  0.12627298726E-01 -0.61767648249E-01  0.82406187152E-01  0.51100000000E-03 0. -1.
         11    1    4    4    0    0 -0.37076329389E-01 -0.65593035900E-02 -0.33387160511E-01  0.50325364107E-01  0.51100000000E-03 0.  1.
</event>
<event>
 8    1  0.1061722E+005  0.1043930E+01  0.7957747E-01            NaN
         13   -1    0    0    0    0  0.00000000000E+00  0.00000000000E+00  0.74505805969E-08  0.10566000000E+00  0.10566000000E+00 0. -1.
     999900   -1    0    0    0    0 -0.00000000000E+00 -0.00000000000E+00 -0.74505805969E-08  0.93827000000E+00  0.93827000000E+00 0.  1.
     999902    2    1    2    0    0  0.26244919101E-02 -0.29401148241E-03 -0.37730063824E-01  0.10061076241E+01  0.10053964488E+01 0.  0.
     999903    2    3    3    0    0 -0.12069049158E-01 -0.92025402483E-01  0.65115947185E-01  0.11526092002E+00  0.20752263862E-01 0.  0.
         14    1    1    2    0    0 -0.26244919101E-02  0.29401148241E-03  0.37730063824E-01  0.37822375873E-01  0.00000000000E+00 0. -1.
     999901    1    3    3    0    0  0.14693541068E-01  0.91731391001E-01 -0.10284601101E+00  0.89084670411E+00  0.88000000000E+00 0.  1.
        -11    1    4    4    0    0 -0.42998446010E-02 -0.59270334195E-01  0.29847708130E-01  0.66502691531E-01  0.51100000000E-03 0.  1.
         11    1    4    4    0    0 -0.77692045573E-02 -0.32755068288E-01  0.35268239055E-01  0.48758228486E-01  0.51100000000E-03 0. -1.
</event>
<event>
 8    1  0.1061722E+005  0.1043930E+01  0.7957747E-01            NaN
         13   -1    0    0    0    0  0.00000000000E+00  0.00000000000E+00  0.74505805969E-08  0.10566000000E+00  0.10566000000E+00 0. -1.
     999900   -1    0    0    0    0 -0.00000000000E+00 -0.00000000000E+00 -0.74505805969E-08  0.93827000000E+00  0.93827000000E+00 0. -1.
     999902    2    1    2    0    0  0.16348574771E-02  0.17024576676E-01  0.16564285914E-01  0.10201206628E+01  0.10198427732E+01 0.  0.
     999903    2    3    3    0    0 -0.22803470618E-01  0.80655724440E-01 -0.97596448786E-01  0.13013255716E+00  0.19597741173E-01 0.  0.
         14    1    1    2    0    0 -0.16348574771E-02 -0.17024576676E-01 -0.16564285914E-01  0.23809337198E-01  0.00000000000E+00 0. -1.
     999901    1    3    3    0    0  0.24438328095E-01 -0.63631147764E-01  0.11416073470E+00  0.88998810565E+00  0.88000000000E+00 0.  1.
        -11    1    4    4    0    0 -0.18398008369E-01  0.53301928353E-01 -0.77755614169E-01  0.96050918443E-01  0.51100000000E-03 0.  1.
         11    1    4    4    0    0 -0.44054622497E-02  0.27353796087E-01 -0.19840834617E-01  0.34081638712E-01  0.51100000000E-03 0. -1.
</event>
<event>
 7    1  0.1061722E+005  0.1043930E+01  0.7957747E-01            NaN
         13   -1    0    0    0    0  0.00000000000E+00  0.00000000000E+00  0.74505805969E-08  0.10566000000E+00  0.10566000000E+00 0. -1.
     999900   -1    0    0    0    0 -0.00000000000E+00 -0.00000000000E+00 -0.74505805969E-08  0.93827000000E+00  0.93827000000E+00 0. -1.
     999902    2    1    2    0    0 -0.22453068432E-01  0.52963208546E-02 -0.93268505186E-03  0.10208418819E+01  0.10205807595E+01 0.  0.
         14    1    1    2    0    0  0.22453068432E-01 -0.52963208546E-02  0.93268505186E-03  0.23088118113E-01  0.00000000000E+00 0. -1.
     999901    1    3    3    0    0 -0.40322070578E-02 -0.88605707189E-01  0.81944522726E-01  0.88824666329E+00  0.88000000000E+00 0.  1.
        -11    1    3    3    0    0 -0.13300752310E-01  0.36699929318E-01 -0.10939132821E-01  0.40542823925E-01  0.51100000000E-03 0. -1.
         11    1    3    3    0    0 -0.51201090645E-02  0.57202098726E-01 -0.71938074956E-01  0.92052394672E-01  0.51100000000E-03 0.  1.
</event>
<event>
 8    1  0.1061722E+005  0.1043930E+01  0.7957747E-01            NaN
         13   -1    0    0    0    0  0.00000000000E+00  0.00000000000E+00  0.74505805969E-08  0.10566000000E+00  0.10566000000E+00 0. -1.
     999900   -1    0    0    0    0 -0.00000000000E+00 -0.00000000000E+00 -0.74505805969E-08  0.93827000000E+00  0.93827000000E+00 0.  1.
     999902    2    1    2    0    0 -0.17932203125E-01  0.16129621759E-01  0.38628487940E-02  0.10195035756E+01  0.10192109156E+01 0.  0.
     999903    2    3    3    0    0  0.41273616643E-01  0.24275420455E-01 -0.11812953424E+00  0.12908017934E+00  0.20354320642E-01 0.  0.
         14    1    1    2    0    0  0.17932203125E-01 -0.16129621759E-01 -0.38628487940E-02  0.24426424377E-01  0.00000000000E+00 0. -1.
     999901    1    3    3    0    0 -0.59205819768E-01 -0.81457986956E-02  0.12199238304E+00  0.89042339628E+00  0.88000000000E+00 0. -1.
        -11    1    4    4    0    0  0.33420921604E-01  0.26576208523E-01 -0.10739074838E+00  0.11556940261E+00  0.51100000000E-03 0. -1.
         11    1    4    4    0    0  0.78526950393E-02 -0.23007880677E-02 -0.10738785864E-01  0.13510776734E-01  0.51100000000E-03 0.  1.
</event>
<event>
 8    1  0.1061722E+005  0.1043930E+01  0.7957747E-01            NaN
         13   -1    0    0    0    0  0.00000000000E+00  0.00000000000E+00  0.74505805969E-08  0.10566000000E+00  0.10566000000E+00 0. -1.
     999900   -1    0    0    0    0 -0.00000000000E+00 -0.00000000000E+00 -0.74505805969E-08  0.93827000000E+00  0.93827000000E+00 0. -1.
     999902    2    1    2    0    0  0.49589116392E-02 -0.68781377250E-02  0.23108352891E-01  0.10193150542E+01  0.10190178037E+01 0.  0.
     999903    2    3    3    0    0  0.81079299554E-01  0.17611666827E-01  0.10090991530E+00  0.13227100395E+00  0.20707096722E-01 0.  0.
         14    1    1    2    0    0 -0.49589116392E-02  0.68781377250E-02 -0.23108352891E-01  0.24614945796E-01  0.00000000000E+00 0.  1.
     999901    1    3    3    0    0 -0.76120387915E-01 -0.24489804552E-01 -0.77801562410E-01  0.88704405026E+00  0.88000000000E+00 0. -1.
        -11    1    4    4    0    0  0.48935570677E-01  0.20594116887E-01  0.66305820569E-01  0.84944279914E-01  0.51100000000E-03 0. -1.
         11    1    4    4    0    0  0.32143728877E-01 -0.29824500607E-02  0.34604094732E-01  0.47326724033E-01  0.51100000000E-03 0.  1.
</event>
<event>
 8    1  0.1061722E+005  0.1043930E+01  0.7957747E-01            NaN
         13   -1    0    0    0    0  0.00000000000E+00  0.00000000000E+00  0.74505805969E-08  0.10566000000E+00  0.10566000000E+00 0. -1.
     999900   -1    0    0    0    0 -0.00000000000E+00 -0.00000000000E+00 -0.74505805969E-08  0.93827000000E+00  0.93827000000E+00 0. -1.
     999902    2    1    2    0    0 -0.11262098060E-02 -0.61978609329E-02  0.22601146277E-01  0.10204673991E+01  0.10201976372E+01 0.  0.
     999903    2    3    3    0    0  0.31725882095E-01 -0.18756424651E-02 -0.12228536109E+00  0.12800449143E+00  0.20527802147E-01 0.  0.
         14    1    1    2    0    0  0.11262098060E-02  0.61978609329E-02 -0.22601146277E-01  0.23462600915E-01  0.00000000000E+00 0.  1.
     999901    1    3    3    0    0 -0.32852091901E-01 -0.43222184678E-02  0.14488650737E+00  0.89246290765E+00  0.88000000000E+00 0.  1.
        -11    1    4    4    0    0  0.88368685978E-02  0.88774143760E-02 -0.39668456203E-01  0.41602238776E-01  0.51100000000E-03 0.  1.
         11    1    4    4    0    0  0.22889013497E-01 -0.10753056841E-01 -0.82616904888E-01  0.86402252659E-01  0.51100000000E-03 0. -1.
</event>
<event>
 8    1  0.1061722E+005  0.1043930E+01  0.7957747E-01            NaN
         13   -1    0    0    0    0  0.00000000000E+00  0.00000000000E+00  0.74505805969E-08  0.10566000000E+00  0.10566000000E+00 0.  1.
     999900   -1    0    0    0    0 -0.00000000000E+00 -0.00000000000E+00 -0.74505805969E-08  0.93827000000E+00  0.93827000000E+00 0.  1.
     999902    2    1    2    0    0  0.19076801214E-01 -0.48688334470E-02 -0.12245505040E-01  0.10207441794E+01  0.10204808168E+01 0.  0.
     999903    2    3    3    0    0  0.54370608409E-01  0.84228635445E-01  0.81617704632E-01  0.13057884985E+00  0.18405440239E-01 0.  0.
         14    1    1    2    0    0 -0.19076801214E-01  0.48688334470E-02  0.12245505040E-01  0.23185820610E-01  0.00000000000E+00 0.  1.
     999901    1    3    3    0    0 -0.35293807196E-01 -0.89097468892E-01 -0.93863209672E-01  0.89016532954E+00  0.88000000000E+00 0.  1.
        -11    1    4    4    0    0  0.25718776556E-01  0.51116702738E-01  0.37493191747E-01  0.68413253941E-01  0.51100000000E-03 0.  1.
         11    1    4    4    0    0  0.28651831853E-01  0.33111932707E-01  0.44124512885E-01  0.62165595907E-01  0.51100000000E-03 0. -1.
</event>
<event>
 8    1  0.1061722E+005  0.1043930E+01  0.7957747E-01            NaN
         13   -1    0    0    0    0  0.00000000000E+00  0.00000000000E+00  0.74505805969E-08  0.10566000000E+00  0.10566000000E+00 0.  1.
     999900   -1    0    0    0    0 -0.00000000000E+00 -0.00000000000E+00 -0.74505805969E-08  0.93827000000E+00  0.93827000000E+00 0. -1.
     999902    2    1    2    0    0 -0.20511938984E-01 -0.42729321031E-02 -0.10088432863E-01  0.10206754506E+01  0.10204105063E+01 0.  0.
     999903    2    3    3    0    0 -0.64309203529E-01 -0.11430529190E+00  0.58387801369E-03  0.13267814273E+00  0.20044331601E-01 0.  0.
         14    1    1    2    0    0  0.20511938984E-01  0.42729321031E-02  0.10088432863E-01  0.23254549389E-01  0.00000000000E+00 0.  1.
     999901    1    3    3    0    0  0.43797264544E-01  0.11003235980E+00 -0.10672310877E-01  0.88799730788E+00  0.88000000000E+00 0. -1.
        -11    1    4    4    0    0 -0.33703380217E-01 -0.69629020802E-01 -0.82808983905E-02  0.77800724772E-01  0.51100000000E-03 0.  1.
         11    1    4    4    0    0 -0.30605823312E-01 -0.44676271101E-01  0.88647764042E-02  0.54877417958E-01  0.51100000000E-03 0. -1.
</event>
<event>
 8    1  0.1061722E+005  0.1043930E+01  0.7957747E-01            NaN
         13   -1    0    0    0    0  0.00000000000E+00  0.00000000000E+00  0.74505805969E-08  0.10566000000E+00  0.10566000000E+00 0.  1.
     999900   -1    0    0    0    0 -0.00000000000E+00 -0.00000000000E+00 -0.74505805969E-08  0.93827000000E+00  0.93827000000E+00 0. -1.
     999902    2    1    2    0    0 -0.11310418218E-02  0.21510759597E-01  0.92097476602E-02  0.10205032741E+01  0.10202343461E+01 0.  0.
     999903    2    3    3    0    0 -0.26925848160E-01 -0.75086017517E-01 -0.98453449520E-01  0.12832186127E+00  0.20260973135E-01 0.  0.
         14    1    1    2    0    0  0.11310418218E-02 -0.21510759597E-01 -0.92097476602E-02  0.23426725892E-01  0.00000000000E+00 0. -1.
     999901    1    3    3    0    0  0.25794806338E-01  0.96596777114E-01  0.10766319718E+00  0.89218141284E+00  0.88000000000E+00 0.  1.
        -11    1    4    4    0    0 -0.33920578202E-03 -0.29036976932E-01 -0.37543044100E-01  0.47465802123E-01  0.51100000000E-03 0.  1.
         11    1    4    4    0    0 -0.26586642378E-01 -0.46049040584E-01 -0.60910405420E-01  0.80856059149E-01  0.51100000000E-03 0. -1.
</event>
<event>
 8    1  0.1061722E+005  0.1043930E+01  0.7957747E-01            NaN
         13   -1    0    0    0    0  0.00000000000E+00  0.00000000000E+00  0.74505805969E-08  0.10566000000E+00  0.10566000000E+00 0.  1.
     999900   -1    0    0    0    0 -0.00000000000E+00 -0.00000000000E+00 -0.74505805969E-08  0.93827000000E+00  0.93827000000E+00 0. -1.
     999902    2    1    2    0    0 -0.37341439475E-02 -0.63202949220E-02 -0.22251114759E-01  0.10204992069E+01  0.10202301844E+01 0.  0.
     999903    2    3    3    0    0 -0.65478300740E-01  0.97120446537E-01 -0.56770583384E-01  0.13162130659E+00  0.19531518275E-01 0.  0.
         14    1    1    2    0    0  0.37341439475E-02  0.63202949220E-02  0.22251114759E-01  0.23430793135E-01  0.00000000000E+00 0.  1.
     999901    1    3    3    0    0  0.61744156792E-01 -0.10344074146E+00  0.34519468625E-01  0.88887790028E+00  0.88000000000E+00 0. -1.
        -11    1    4    4    0    0 -0.49478063006E-01  0.57419556657E-01 -0.33151279074E-01  0.82730602746E-01  0.51100000000E-03 0.  1.
         11    1    4    4    0    0 -0.16000237734E-01  0.39700889880E-01 -0.23619304310E-01  0.48890703839E-01  0.51100000000E-03 0. -1.
</event>
<event>
 8    1  0.1061722E+005  0.1043930E+01  0.7957747E-01            NaN
         13   -1    0    0    0    0  0.00000000000E+00  0.00000000000E+00  0.74505805969E-08  0.10566000000E+00  0.10566000000E+00 0. -1.
     999900   -1    0    0    0    0 -0.00000000000E+00 -0.00000000000E+00 -0.74505805969E-08  0.93827000000E+00  0.93827000000E+00 0.  1.
     999902    2    1    2    0    0  0.12711653770E-01  0.24922908750E-01 -0.62931850459E-03  0.10159454764E+01  0.10155599822E+01 0.  0.
     999903    2    3    3    0    0  0.10967445042E+00  0.40327208338E-01 -0.50037628644E-01  0.12910825482E+00  0.22592219366E-01 0.  0.
         14    1    1    2    0    0 -0.12711653770E-01 -0.24922908750E-01  0.62931850459E-03  0.27984523649E-01  0.00000000000E+00 0.  1.
     999901    1    3    3    0    0 -0.96962796648E-01 -0.15404299588E-01  0.49408310139E-01  0.88683722153E+00  0.88000000000E+00 0. -1.
        -11    1    4    4    0    0  0.28462608095E-01  0.21114114647E-01 -0.12288366758E-01  0.37512544241E-01  0.51100000000E-03 0. -1.
         11    1    4    4    0    0  0.81211842323E-01  0.19213093691E-01 -0.37749261886E-01  0.91595710580E-01  0.51100000000E-03 0.  1.
</event>
<event>
 8    1  0.1061722E+005  0.1043930E+01  0.7957747E-01            NaN
         13   -1    0    0    0    0  0.00000000000E+00  0.00000000000E+00  0.74505805969E-08  0.10566000000E+00  0.10566000000E+00 0. -1.
     999900   -1    0    0    0    0 -0.00000000000E+00 -0.00000000000E+00 -0.74505805969E-08  0.93827000000E+00  0.93827000000E+00 0.  1.
     999902    2    1    2    0    0 -0.22404744436E-01  0.11165893894E-01  0.32183582968E-02  0.10186909907E+01  0.10183782828E+01 0.  0.
     999903    2    3    3    0    0  0.12303126174E+00  0.14191755773E-01 -0.16617696791E-01  0.12652830554E+00  0.19878806799E-01 0.  0.
         14    1    1    2    0    0  0.22404744436E-01 -0.11165893894E-01 -0.32183582968E-02  0.25239009287E-01  0.00000000000E+00 0. -1.
     999901    1    3    3    0    0 -0.14543600617E+00 -0.30258618795E-02  0.19836055088E-01  0.89216268517E+00  0.88000000000E+00 0.  1.
        -11    1    4    4    0    0  0.99919124384E-01  0.84099756424E-02 -0.60375592147E-02  0.10045532515E+00  0.51100000000E-03 0.  1.
         11    1    4    4    0    0  0.23112137354E-01  0.57817801308E-02 -0.10580137576E-01  0.26072980395E-01  0.51100000000E-03 0. -1.
</event>
<event>
 8    1  0.1061722E+005  0.1043930E+01  0.7957747E-01            NaN
         13   -1    0    0    0    0  0.00000000000E+00  0.00000000000E+00  0.74505805969E-08  0.10566000000E+00  0.10566000000E+00 0.  1.
     999900   -1    0    0    0    0 -0.00000000000E+00 -0.00000000000E+00 -0.74505805969E-08  0.93827000000E+00  0.93827000000E+00 0.  1.
     999902    2    1    2    0    0  0.22535143839E-01 -0.11605762355E-02 -0.71732665275E-02  0.10202522594E+01  0.10199774691E+01 0.  0.
     999903    2    3    3    0    0 -0.55825135376E-03  0.12637938180E+00 -0.25992013972E-01  0.13055911512E+00  0.19950888749E-01 0.  0.
         14    1    1    2    0    0 -0.22535143839E-01  0.11605762355E-02  0.71732665275E-02  0.23677740553E-01  0.00000000000E+00 0. -1.
     999901    1    3    3    0    0  0.23093395193E-01 -0.12753995804E+00  0.18818747445E-01  0.88969314432E+00  0.88000000000E+00 0.  1.
        -11    1    4    4    0    0  0.37408439349E-02  0.10784143330E+00 -0.16088245255E-01  0.10910023559E+00  0.51100000000E-03 0. -1.
         11    1    4    4    0    0 -0.42990952887E-02  0.18537948507E-01 -0.99037687172E-02  0.21458879536E-01  0.51100000000E-03 0.  1.
</event>
<event>
 8    1  0.1128743E+005  0.1043930E+01  0.7957747E-01            NaN
         13   -1    0    0    0    0  0.00000000000E+00  0.00000000000E+00  0.74505805969E-08  0.10566000000E+00  0.10566000000E+00 0.  1.
     999900   -1    0    0    0    0 -0.00000000000E+00 -0.00000000000E+00 -0.74505805969E-08  0.93827000000E+00  0.93827000000E+00 0.  1.
     999902    2    1    2    0    0  0.16686188915E-01 -0.17081677779E-01  0.55288641014E-02  0.10194191666E+01  0.10191244557E+01 0.  0.
     999903    2    3    3    0    0 -0.21291395131E-01 -0.78353703010E-01  0.10123431075E+00  0.13129975430E+00  0.19965308009E-01 0.  0.
         14    1    1    2    0    0 -0.16686188915E-01  0.17081677779E-01 -0.55288641014E-02  0.24510833411E-01  0.00000000000E+00 0. -1.
     999901    1    3    3    0    0  0.37977584046E-01  0.61272025231E-01 -0.95705446650E-01  0.88811941229E+00  0.88000000000E+00 0.  1.
        -11    1    4    4    0    0 -0.17250744854E-01 -0.26723575978E-01  0.37481680509E-01  0.49161725008E-01  0.51100000000E-03 0.  1.
         11    1    4    4    0    0 -0.40406502776E-02 -0.51630127033E-01  0.63752630243E-01  0.82138029292E-01  0.51100000000E-03 0. -1.
</event>
<event>
 8    1  0.1061722E+005  0.1043930E+01  0.7957747E-01            NaN
         13   -1    0    0    0    0  0.00000000000E+00  0.00000000000E+00  0.74505805969E-08  0.10566000000E+00  0.10566000000E+00 0.  1.
     999900   -1    0    0    0    0 -0.00000000000E+00 -0.00000000000E+00 -0.74505805969E-08  0.93827000000E+00  0.93827000000E+00 0.  1.
     999902    2    1    2    0    0  0.29621737574E-02  0.16431900445E-01  0.13072176743E-01  0.10227247264E+01  0.10225048666E+01 0.  0.
     999903    2    3    3    0    0  0.10034646222E+00  0.11101978806E-02  0.86795137657E-01  0.13415647958E+00  0.19847419812E-01 0.  0.
         14    1    1    2    0    0 -0.29621737574E-02 -0.16431900445E-01 -0.13072176743E-01  0.21205273646E-01  0.00000000000E+00 0. -1.
     999901    1    3    3    0    0 -0.97384288462E-01  0.15321702564E-01 -0.73722960914E-01  0.88856824677E+00  0.88000000000E+00 0. -1.
        -11    1    4    4    0    0  0.43968871043E-01  0.42951737517E-02  0.26371895079E-01  0.51453358582E-01  0.51100000000E-03 0.  1.
         11    1    4    4    0    0  0.56377591177E-01 -0.31849758711E-02  0.60423242578E-01  0.82703120998E-01  0.51100000000E-03 0. -1.
</event>
<event>
 8    1  0.1061722E+005  0.1043930E+01  0.7957747E-01            NaN
         13   -1    0    0    0    0  0.00000000000E+00  0.00000000000E+00  0.74505805969E-08  0.10566000000E+00  0.10566000000E+00 0.  1.
     999900   -1    0    0    0    0 -0.00000000000E+00 -0.00000000000E+00 -0.74505805969E-08  0.93827000000E+00  0.93827000000E+00 0. -1.
     999902    2    1    2    0    0 -0.23073701694E-01 -0.61258898749E-02  0.10233399412E-02  0.10200350327E+01  0.10197551169E+01 0.  0.
     999903    2    3    3    0    0  0.24209314031E-01 -0.11176577446E+00  0.59603226004E-01  0.13052557699E+00  0.20166865648E-01 0.  0.
         14    1    1    2    0    0  0.23073701694E-01  0.61258898749E-02 -0.10233399412E-02  0.23894967279E-01  0.00000000000E+00 0.  1.
     999901    1    3    3    0    0 -0.47283015726E-01  0.10563988459E+00 -0.58579886063E-01  0.88950945574E+00  0.88000000000E+00 0.  1.
        -11    1    4    4    0    0  0.20039031227E-01 -0.53109152845E-01  0.22941983909E-01  0.61226960035E-01  0.51100000000E-03 0. -1.
         11    1    4    4    0    0  0.41702828046E-02 -0.58656621618E-01  0.36661242095E-01  0.69298616950E-01  0.51100000000E-03 0.  1.
</event>
<event>
 8    1  0.1061722E+005  0.1043930E+01  0.7957747E-01            NaN
         13   -1    0    0    0    0  0.00000000000E+00  0.00000000000E+00  0.74505805969E-08  0.10566000000E+00  0.10566000000E+00 0. -1.
     999900   -1    0    0    0    0 -0.00000000000E+00 -0.00000000000E+00 -0.74505805969E-08  0.93827000000E+00  0.93827000000E+00 0.  1.
     999902    2    1    2    0    0  0.17801805165E-01  0.70319868650E-02  0.12392100442E-01  0.10211283058E+01  0.10208736942E+01 0.  0.
     999903    2    3    3    0    0 -0.67566718283E-01 -0.11336685796E-01  0.10980832973E+00  0.13145695372E+00  0.23006076153E-01 0.  0.
         14    1    1    2    0    0 -0.17801805165E-01 -0.70319868650E-02 -0.12392100442E-01  0.22801694230E-01  0.00000000000E+00 0.  1.
     999901    1    3    3    0    0  0.85368523448E-01  0.18368672661E-01 -0.97416229283E-01  0.88967135205E+00  0.88000000000E+00 0.  1.
        -11    1    4    4    0    0 -0.59150260861E-01 -0.74696584286E-02  0.77131142110E-01  0.97488580671E-01  0.51100000000E-03 0.  1.
         11    1    4    4    0    0 -0.84164574219E-02 -0.38670273671E-02  0.32677187615E-01  0.33968373049E-01  0.51100000000E-03 0. -1.
</event>
<event>
 8    1  0.1061722E+005  0.1043930E+01  0.7957747E-01            NaN
         13   -1    0    0    0    0  0.00000000000E+00  0.00000000000E+00  0.74505805969E-08  0.10566000000E+00  0.10566000000E+00 0. -1.
     999900   -1    0    0    0    0 -0.00000000000E+00 -0.00000000000E+00 -0.74505805969E-08  0.93827000000E+00  0.93827000000E+00 0. -1.
     999902    2    1    2    0    0 -0.20538180993E-01  0.12403563942E-02  0.12961516341E-01  0.10196121821E+01  0.10193221500E+01 0.  0.
     999903    2    3    3    0    0 -0.18362295552E-01  0.12179656756E+00 -0.36473485410E-01  0.13001544539E+00  0.20053008119E-01 0.  0.
         14    1    1    2    0    0  0.20538180993E-01 -0.12403563942E-02 -0.12961516341E-01  0.24317817919E-01  0.00000000000E+00 0.  1.
     999901    1    3    3    0    0 -0.21758854415E-02 -0.12055621117E+00  0.49435001751E-01  0.88959673669E+00  0.88000000000E+00 0.  1.
        -11    1    4    4    0    0 -0.13759753741E-01  0.55981399017E-01 -0.25880368128E-01  0.63192582115E-01  0.51100000000E-03 0. -1.
         11    1    4    4    0    0 -0.46025418109E-02  0.65815168546E-01 -0.10593117282E-01  0.66822863277E-01  0.51100000000E-03 0.  1.
</event>
<event>
 8    1  0.1061722E+005  0.1043930E+01  0.7957747E-01            NaN
         13   -1    0    0    0    0  0.00000000000E+00  0.00000000000E+00  0.74505805969E-08  0.10566000000E+00  0.10566000000E+00 0. -1.
     999900   -1    0    0    0    0 -0.00000000000E+00 -0.00000000000E+00 -0.74505805969E-08  0.93827000000E+00  0.93827000000E+00 0.  1.
     999902    2    1    2    0    0 -0.15388156204E-02  0.22306583287E-01  0.79669728484E-03  0.10215562131E+01  0.10213111721E+01 0.  0.
     999903    2    3    3    0    0  0.24969667402E-01 -0.12505151175E+00  0.18129970786E-02  0.12890950772E+00  0.18788542820E-01 0.  0.
         14    1    1    2    0    0  0.15388156204E-02 -0.22306583287E-01 -0.79669728484E-03  0.22373786851E-01  0.00000000000E+00 0.  1.
     999901    1    3    3    0    0 -0.26508483022E-01  0.14735809504E+00 -0.10162997938E-02  0.89264670543E+00  0.88000000000E+00 0. -1.
        -11    1    4    4    0    0  0.19482987760E-02 -0.56836885649E-01 -0.52934666862E-03  0.56875027624E-01  0.51100000000E-03 0.  1.
         11    1    4    4    0    0  0.23021368626E-01 -0.68214626102E-01  0.23423437473E-02  0.72034480098E-01  0.51100000000E-03 0. -1.
</event>
<event>
 8    1  0.1061722E+005  0.1043930E+01  0.7957747E-01            NaN
         13   -1    0    0    0    0  0.00000000000E+00  0.00000000000E+00  0.74505805969E-08  0.10566000000E+00  0.10566000000E+00 0.  1.
     999900   -1    0    0    0    0 -0.00000000000E+00 -0.00000000000E+00 -0.74505805969E-08  0.93827000000E+00  0.93827000000E+00 0. -1.
     999902    2    1    2    0    0 -0.29877241694E-01 -0.10472536393E-01  0.95807448521E-02  0.10108526020E+01  0.10103112731E+01 0.  0.
     999903    2    3    3    0    0 -0.12197857582E+00 -0.18956987333E-01  0.15775226440E-01  0.12598367761E+00  0.19618586284E-01 0.  0.
         14    1    1    2    0    0  0.29877241694E-01  0.10472536393E-01 -0.95807448521E-02  0.33077398048E-01  0.00000000000E+00 0. -1.
     999901    1    3    3    0    0  0.92101334128E-01  0.84844509404E-02 -0.61944815879E-02  0.88486892434E+00  0.88000000000E+00 0. -1.
        -11    1    4    4    0    0 -0.72544480452E-01 -0.44206635431E-02  0.22814732862E-02  0.72716642879E-01  0.51100000000E-03 0. -1.
         11    1    4    4    0    0 -0.49434095369E-01 -0.14536323790E-01  0.13493753154E-01  0.53267034735E-01  0.51100000000E-03 0.  1.
</event>
<event>
 8    1  0.1069213E+005  0.1043930E+01  0.7957747E-01            NaN
         13   -1    0    0    0    0  0.00000000000E+00  0.00000000000E+00  0.74505805969E-08  0.10566000000E+00  0.10566000000E+00 0. -1.
     999900   -1    0    0    0    0 -0.00000000000E+00 -0.00000000000E+00 -0.74505805969E-08  0.93827000000E+00  0.93827000000E+00 0. -1.
     999902    2    1    2    0    0 -0.21770700181E-01  0.56184688438E-02  0.59730956206E-02  0.10206661128E+01  0.10204009532E+01 0.  0.
     999903    2    3    3    0    0  0.31178324270E-01  0.68777563497E-01  0.10494767325E+00  0.13129069290E+00  0.22820840827E-01 0.  0.
         14    1    1    2    0    0  0.21770700181E-01 -0.56184688438E-02 -0.59730956206E-02  0.23263887247E-01  0.00000000000E+00 0. -1.
     999901    1    3    3    0    0 -0.52949024452E-01 -0.63159094653E-01 -0.98974577629E-01  0.88937541986E+00  0.88000000000E+00 0. -1.
        -11    1    4    4    0    0  0.20874719748E-01  0.40532497212E-01  0.80586225196E-01  0.92590701839E-01  0.51100000000E-03 0. -1.
         11    1    4    4    0    0  0.10303604522E-01  0.28245066285E-01  0.24361448054E-01  0.38699991058E-01  0.51100000000E-03 0.  1.
</event>
<event>
 8    1  0.1061722E+005  0.1043930E+01  0.7957747E-01            NaN
         13   -1    0    0    0    0  0.00000000000E+00  0.00000000000E+00  0.74505805969E-08  0.10566000000E+00  0.10566000000E+00 0.  1.
     999900   -1    0    0    0    0 -0.00000000000E+00 -0.00000000000E+00 -0.74505805969E-08  0.93827000000E+00  0.93827000000E+00 0. -1.
     999902    2    1    2    0    0  0.61315390450E-02 -0.21884809293E-01 -0.62542535661E-02  0.10203576362E+01  0.10200853147E+01 0.  0.
     999903    2    3    3    0    0 -0.16057799384E-01  0.14720705931E-01 -0.12765189677E+00  0.13099285260E+00  0.19737491703E-01 0.  0.
         14    1    1    2    0    0 -0.61315390450E-02  0.21884809293E-01  0.62542535661E-02  0.23572363829E-01  0.00000000000E+00 0. -1.
     999901    1    3    3    0    0  0.22189338429E-01 -0.36605515224E-01  0.12139764320E+00  0.88936478357E+00  0.88000000000E+00 0.  1.
        -11    1    4    4    0    0 -0.69382898992E-02 -0.24752942099E-02 -0.64129135141E-01  0.64552877884E-01  0.51100000000E-03 0. -1.
         11    1    4    4    0    0 -0.91195094851E-02  0.17196000141E-01 -0.63522761628E-01  0.66439974713E-01  0.51100000000E-03 0.  1.
</event>
<event>
 8    1  0.1061722E+005  0.1043930E+01  0.7957747E-01            NaN
         13   -1    0    0    0    0  0.00000000000E+00  0.00000000000E+00  0.74505805969E-08  0.10566000000E+00  0.10566000000E+00 0. -1.
     999900   -1    0    0    0    0 -0.00000000000E+00 -0.00000000000E+00 -0.74505805969E-08  0.93827000000E+00  0.93827000000E+00 0. -1.
     999902    2    1    2    0    0  0.49115658186E-02  0.22069455730E-01 -0.68592747369E-02  0.10203030238E+01  0.10200294243E+01 0.  0.
     999903    2    3    3    0    0  0.11642163756E+00 -0.40365784661E-01  0.35427846167E-01  0.13006661927E+00  0.21881473885E-01 0.  0.
         14    1    1    2    0    0 -0.49115658186E-02 -0.22069455730E-01  0.68592747369E-02  0.23626976212E-01  0.00000000000E+00 0.  1.
     999901    1    3    3    0    0 -0.11151007174E+00  0.62435240391E-01 -0.42287120904E-01  0.89023640452E+00  0.88000000000E+00 0. -1.
        -11    1    4    4    0    0  0.58212612893E-01 -0.30963031045E-01  0.14629655253E-01  0.67540399208E-01  0.51100000000E-03 0. -1.
         11    1    4    4    0    0  0.58209024668E-01 -0.94027536160E-02  0.20798190915E-01  0.62526220058E-01  0.51100000000E-03 0.  1.
</event>
<event>
 8    1  0.1061722E+005  0.1043930E+01  0.7957747E-01            NaN
         13   -1    0    0    0    0  0.00000000000E+00  0.00000000000E+00  0.74505805969E-08  0.10566000000E+00  0.10566000000E+00 0.  1.
     999900   -1    0    0    0    0 -0.00000000000E+00 -0.00000000000E+00 -0.74505805969E-08  0.93827000000E+00  0.93827000000E+00 0. -1.
     999902    2    1    2    0    0 -0.18323044218E-01 -0.80258439535E-02  0.12239704205E-01  0.10204788064E+01  0.10202093098E+01 0.  0.
     999903    2    3    3    0    0 -0.11629610717E+00  0.23359094885E-01  0.57790053355E-01  0.13331559160E+00  0.19050586343E-01 0.  0.
         14    1    1    2    0    0  0.18323044218E-01  0.80258439535E-02 -0.12239704205E-01  0.23451193565E-01  0.00000000000E+00 0.  1.
     999901    1    3    3    0    0  0.97973062952E-01 -0.31384938839E-01 -0.45550349150E-01  0.88716321484E+00  0.88000000000E+00 0. -1.
        -11    1    4    4    0    0 -0.75002059774E-01  0.16549163986E-01  0.47164921123E-01  0.90133094391E-01  0.51100000000E-03 0.  1.
         11    1    4    4    0    0 -0.41294047396E-01  0.68099308994E-02  0.10625132232E-01  0.43182497209E-01  0.51100000000E-03 0. -1.
</event>
<event>
 8    1  0.1061722E+005  0.1043930E+01  0.7957747E-01            NaN
         13   -1    0    0    0    0  0.00000000000E+00  0.00000000000E+00  0.74505805969E-08  0.10566000000E+00  0.10566000000E+00 0.  1.
     999900   -1    0    0    0    0 -0.00000000000E+00 -0.00000000000E+00 -0.74505805969E-08  0.93827000000E+00  0.93827000000E+00 0. -1.
     999902    2    1    2    0    0  0.60061731955E-02 -0.13963928424E-02 -0.27666031297E-01  0.10155851007E+01  0.10151894717E+01 0.  0.
     999903    2    3    3    0    0 -0.10653996825E+00 -0.26570178659E-01 -0.61603096938E-01  0.12741165036E+00  0.19546044767E-01 0.  0.
         14    1    1    2    0    0 -0.60061731955E-02  0.13963928424E-02  0.27666031297E-01  0.28344899314E-01  0.00000000000E+00 0.  1.
     999901    1    3    3    0    0  0.11254614144E+00  0.25173785816E-01  0.33937065641E-01  0.88817345033E+00  0.88000000000E+00 0. -1.
        -11    1    4    4    0    0 -0.69326884411E-01 -0.16933665757E-01 -0.50397762819E-01  0.87367966419E-01  0.51100000000E-03 0. -1.
         11    1    4    4    0    0 -0.37213083837E-01 -0.96365129016E-02 -0.11205334119E-01  0.40043683937E-01  0.51100000000E-03 0.  1.
</event>
<event>
 8    1  0.1061722E+005  0.1043930E+01  0.7957747E-01            NaN
         13   -1    0    0    0    0  0.00000000000E+00  0.00000000000E+00  0.74505805969E-08  0.10566000000E+00  0.10566000000E+00 0. -1.
     999900   -1    0    0    0    0 -0.00000000000E+00 -0.00000000000E+00 -0.74505805969E-08  0.93827000000E+00  0.93827000000E+00 0. -1.
     999902    2    1    2    0    0 -0.10924948288E-01  0.19844087781E-01  0.77864074548E-02  0.10199764939E+01  0.10196951886E+01 0.  0.
     999903    2    3    3    0    0  0.42209291949E-01  0.70234817456E-01  0.10086416045E+00  0.13204297089E+00  0.23392592620E-01 0.  0.
         14    1    1    2    0    0  0.10924948288E-01 -0.19844087781E-01 -0.77864074548E-02  0.23953506132E-01  0.00000000000E+00 0.  1.
     999901    1    3    3    0    0 -0.53134240237E-01 -0.50390729675E-01 -0.93077752992E-01  0.88793352298E+00  0.88000000000E+00 0. -1.
        -11    1    4    4    0    0  0.28661994525E-02  0.25391846826E-01  0.30130746319E-01  0.39510555289E-01  0.51100000000E-03 0.  1.
         11    1    4    4    0    0  0.39343092496E-01  0.44842970630E-01  0.70733414128E-01  0.92532415603E-01  0.51100000000E-03 0. -1.
</event>
<event>
 8    1  0.1061722E+005  0.1043930E+01  0.7957747E-01            NaN
         13   -1    0    0    0    0  0.00000000000E+00  0.00000000000E+00  0.74505805969E-08  0.10566000000E+00  0.10566000000E+00 0. -1.
     999900   -1    0    0    0    0 -0.00000000000E+00 -0.00000000000E+00 -0.74505805969E-08  0.93827000000E+00  0.93827000000E+00 0.  1.
     999902    2    1    2    0    0  0.12152380702E-01 -0.24361372175E-02  0.10510896045E-01  0.10276790290E+01  0.10275505305E+01 0.  0.
     999903    2    3    3    0    0  0.39324864131E-01  0.11763796647E+00  0.56603747778E-01  0.13791463034E+00  0.20768363076E-01 0.  0.
         14    1    1    2    0    0 -0.12152380702E-01  0.24361372175E-02 -0.10510896045E-01  0.16250970954E-01  0.00000000000E+00 0.  1.
     999901    1    3    3    0    0 -0.27172483429E-01 -0.12007410368E+00 -0.46092851733E-01  0.88976439871E+00  0.88000000000E+00 0.  1.
        -11    1    4    4    0    0  0.29379770392E-02  0.32948514198E-01  0.20497958270E-01  0.38918680749E-01  0.51100000000E-03 0.  1.
         11    1    4    4    0    0  0.36386887092E-01  0.84689452268E-01  0.36105789508E-01  0.98995949587E-01  0.51100000000E-03 0. -1.
</event>
<event>
 8    1  0.1061722E+005  0.1043930E+01  0.7957747E-01            NaN
         13   -1    0    0    0    0  0.00000000000E+00  0.00000000000E+00  0.74505805969E-08  0.10566000000E+00  0.10566000000E+00 0.  1.
     999900   -1    0    0    0    0 -0.00000000000E+00 -0.00000000000E+00 -0.74505805969E-08  0.93827000000E+00  0.93827000000E+00 0.  1.
     999902    2    1    2    0    0 -0.15192231111E-01  0.22072900088E-01 -0.26659934828E-02  0.10170018674E+01  0.10166453039E+01 0.  0.
     999903    2    3    3    0    0  0.56515042253E-01  0.11308535869E+00  0.18860924258E-01  0.12914568036E+00  0.18456000081E-01 0.  0.
         14    1    1    2    0    0  0.15192231111E-01 -0.22072900088E-01  0.26659934828E-02  0.26928132607E-01  0.00000000000E+00 0. -1.
     999901    1    3    3    0    0 -0.71707273365E-01 -0.91012458605E-01 -0.21526917741E-01  0.88785618704E+00  0.88000000000E+00 0.  1.
        -11    1    4    4    0    0  0.38378357225E-01  0.59432677762E-01  0.15379894872E-01  0.72401269164E-01  0.51100000000E-03 0.  1.
         11    1    4    4    0    0  0.18136685029E-01  0.53652680931E-01  0.34810293857E-02  0.56744411192E-01  0.51100000000E-03 0. -1.
</event>
<event>
 8    1  0.1061722E+005  0.1043930E+01  0.7957747E-01            NaN
         13   -1    0    0    0    0  0.00000000000E+00  0.00000000000E+00  0.74505805969E-08  0.10566000000E+00  0.10566000000E+00 0.  1.
     999900   -1    0    0    0    0 -0.00000000000E+00 -0.00000000000E+00 -0.74505805969E-08  0.93827000000E+00  0.93827000000E+00 0. -1.
     999902    2    1    2    0    0 -0.18535265639E-02 -0.18823059822E-01 -0.13930425618E-01  0.10204395786E+01  0.10201691691E+01 0.  0.
     999903    2    3    3    0    0  0.90978045909E-01  0.11589627063E-01  0.88684909235E-01  0.12910768789E+00  0.19810543986E-01 0.  0.
         14    1    1    2    0    0  0.18535265639E-02  0.18823059822E-01  0.13930425618E-01  0.23490421445E-01  0.00000000000E+00 0.  1.
     999901    1    3    3    0    0 -0.92831572473E-01 -0.30412686885E-01 -0.10261533485E+00  0.89133189067E+00  0.88000000000E+00 0. -1.
        -11    1    4    4    0    0  0.31558557367E-01  0.10519706397E-01  0.22545371874E-01  0.40189074133E-01  0.51100000000E-03 0.  1.
         11    1    4    4    0    0  0.59419488542E-01  0.10699206669E-02  0.66139537361E-01  0.88918613755E-01  0.51100000000E-03 0. -1.
</event>
<event>
 8    1  0.1099678E+005  0.1043930E+01  0.7957747E-01            NaN
         13   -1    0    0    0    0  0.00000000000E+00  0.00000000000E+00  0.74505805969E-08  0.10566000000E+00  0.10566000000E+00 0.  1.
     999900   -1    0    0    0    0 -0.00000000000E+00 -0.00000000000E+00 -0.74505805969E-08  0.93827000000E+00  0.93827000000E+00 0. -1.
     999902    2    1    2    0    0  0.18973617645E-01  0.27517053281E-02  0.15797949291E-01  0.10190875917E+01  0.10187847537E+01 0.  0.
     999903    2    3    3    0    0  0.13370807307E-01  0.11323461401E+00 -0.57354915162E-01  0.12914983759E+00  0.19729114469E-01 0.  0.
         14    1    1    2    0    0 -0.18973617645E-01 -0.27517053281E-02 -0.15797949291E-01  0.24842408308E-01  0.00000000000E+00 0. -1.
     999901    1    3    3    0    0  0.56028103377E-02 -0.11048290869E+00  0.73152864453E-01  0.88993775410E+00  0.88000000000E+00 0.  1.
        -11    1    4    4    0    0 -0.77611093446E-03  0.60524097724E-01 -0.23553632434E-01  0.64952316936E-01  0.51100000000E-03 0.  1.
         11    1    4    4    0    0  0.14146918242E-01  0.52710516290E-01 -0.33801282727E-01  0.64197520655E-01  0.51100000000E-03 0. -1.
</event>
<event>
 8    1  0.1061722E+005  0.1043930E+01  0.7957747E-01            NaN
         13   -1    0    0    0    0  0.00000000000E+00  0.00000000000E+00  0.74505805969E-08  0.10566000000E+00  0.10566000000E+00 0.  1.
     999900   -1    0    0    0    0 -0.00000000000E+00 -0.00000000000E+00 -0.74505805969E-08  0.93827000000E+00  0.93827000000E+00 0. -1.
     999902    2    1    2    0    0 -0.14489567566E-01 -0.16877741906E-01  0.80134304428E-02  0.10202863791E+01  0.10200123895E+01 0.  0.
     999903    2    3    3    0    0  0.40643685795E-01  0.10882628349E+00  0.51351125382E-01  0.12859173778E+00  0.20095466488E-01 0.  0.
         14    1    1    2    0    0  0.14489567566E-01  0.16877741906E-01 -0.80134304428E-02  0.23643620864E-01  0.00000000000E+00 0. -1.
     999901    1    3    3    0    0 -0.55133253361E-01 -0.12570402539E+00 -0.43337694939E-01  0.89169464136E+00  0.88000000000E+00 0. -1.
        -11    1    4    4    0    0  0.19476134654E-01  0.36730769944E-01  0.27119699193E-01  0.49640794586E-01  0.51100000000E-03 0.  1.
         11    1    4    4    0    0  0.21167551141E-01  0.72095513545E-01  0.24231426189E-01  0.78950943191E-01  0.51100000000E-03 0. -1.
</event>
<event>
 8    1  0.1061722E+005  0.1043930E+01  0.7957747E-01            NaN
         13   -1    0    0    0    0  0.00000000000E+00  0.00000000000E+00  0.74505805969E-08  0.10566000000E+00  0.10566000000E+00 0.  1.
     999900   -1    0    0    0    0 -0.00000000000E+00 -0.00000000000E+00 -0.74505805969E-08  0.93827000000E+00  0.93827000000E+00 0.  1.
     999902    2    1    2    0    0  0.12631159983E-01  0.43081450239E-02 -0.19184482995E-01  0.10205601326E+01  0.10202925235E+01 0.  0.
     999903    2    3    3    0    0 -0.11658167612E+00 -0.34576926336E-01  0.35636181109E-01  0.12858854613E+00  0.21868373296E-01 0.  0.
         14    1    1    2    0    0 -0.12631159983E-01 -0.43081450239E-02  0.19184482995E-01  0.23369867433E-01  0.00000000000E+00 0.  1.
     999901    1    3    3    0    0  0.12921283611E+00  0.38885071360E-01 -0.54820664104E-01  0.89197158643E+00  0.88000000000E+00 0.  1.
        -11    1    4    4    0    0 -0.31183675638E-01 -0.11055564311E-01  0.19928423203E-01  0.38627066947E-01  0.51100000000E-03 0. -1.
         11    1    4    4    0    0 -0.85398000485E-01 -0.23521362026E-01  0.15707757906E-01  0.89961479188E-01  0.51100000000E-03 0.  1.
</event>
<event>
 8    1  0.1061722E+005  0.1043930E+01  0.7957747E-01            NaN
         13   -1    0    0    0    0  0.00000000000E+00  0.00000000000E+00  0.74505805969E-08  0.10566000000E+00  0.10566000000E+00 0.  1.
     999900   -1    0    0    0    0 -0.00000000000E+00 -0.00000000000E+00 -0.74505805969E-08  0.93827000000E+00  0.93827000000E+00 0.  1.
     999902    2    1    2    0    0 -0.41558472220E-02  0.14626913445E-01 -0.87790817171E-02  0.10263718128E+01  0.10262216174E+01 0.  0.
     999903    2    3    3    0    0 -0.83443147748E-01 -0.16142300180E-02 -0.10739013343E+00  0.13717307779E+00  0.17845107701E-01 0.  0.
         14    1    1    2    0    0  0.41558472220E-02 -0.14626913445E-01  0.87790817171E-02  0.17558187232E-01  0.00000000000E+00 0.  1.
     999901    1    3    3    0    0  0.79287300526E-01  0.16241143463E-01  0.98611051709E-01  0.88919873498E+00  0.88000000000E+00 0. -1.
        -11    1    4    4    0    0 -0.31910731225E-01 -0.50073974442E-02 -0.53747312028E-01  0.62708878699E-01  0.51100000000E-03 0. -1.
         11    1    4    4    0    0 -0.51532416523E-01  0.33931674263E-02 -0.53642821398E-01  0.74464199092E-01  0.51100000000E-03 0.  1.
</event>
<event>
 8    1  0.1061722E+005  0.1043930E+01  0.7957747E-01            NaN
         13   -1    0    0    0    0  0.00000000000E+00  0.00000000000E+00  0.74505805969E-08  0.10566000000E+00  0.10566000000E+00 0.  1.
     999900   -1    0    0    0    0 -0.00000000000E+00 -0.00000000000E+00 -0.74505805969E-08  0.93827000000E+00  0.93827000000E+00 0.  1.
     999902    2    1    2    0    0 -0.11979648826E-03 -0.21384611575E-01  0.78994174588E-02  0.10211327028E+01  0.10208781906E+01 0.  0.
     999903    2    3    3    0    0  0.12432019714E+00 -0.39847342755E-01 -0.13487665414E-02  0.13213792590E+00  0.20378668910E-01 0.  0.
         14    1    1    2    0    0  0.11979648826E-03  0.21384611575E-01 -0.78994174588E-02  0.22797297199E-01  0.00000000000E+00 0. -1.
     999901    1    3    3    0    0 -0.12443999363E+00  0.18462731180E-01  0.92481840002E-02  0.88899477691E+00  0.88000000000E+00 0. -1.
        -11    1    4    4    0    0  0.11414752674E+00 -0.41945849922E-01  0.27893546100E-03  0.12161188722E+00  0.51100000000E-03 0. -1.
         11    1    4    4    0    0  0.10172670402E-01  0.20985071667E-02 -0.16277020024E-02  0.10526038678E-01  0.51100000000E-03 0.  1.
</event>
<event>
 8    1  0.1061722E+005  0.1043930E+01  0.7957747E-01            NaN
         13   -1    0    0    0    0  0.00000000000E+00  0.00000000000E+00  0.74505805969E-08  0.10566000000E+00  0.10566000000E+00 0. -1.
     999900   -1    0    0    0    0 -0.00000000000E+00 -0.00000000000E+00 -0.74505805969E-08  0.93827000000E+00  0.93827000000E+00 0.  1.
     999902    2    1    2    0    0  0.19901512814E-01 -0.47587136624E-03  0.13326599519E-01  0.10199738960E+01  0.10196925289E+01 0.  0.
     999903    2    3    3    0    0  0.70406222539E-01  0.97763450989E-01 -0.47596984070E-01  0.13097818551E+00  0.19367076862E-01 0.  0.
         14    1    1    2    0    0 -0.19901512814E-01  0.47587136624E-03 -0.13326599519E-01  0.23956104037E-01  0.00000000000E+00 0.  1.
     999901    1    3    3    0    0 -0.50504709725E-01 -0.98239322356E-01  0.60923583589E-01  0.88899571045E+00  0.88000000000E+00 0.  1.
        -11    1    4    4    0    0  0.36551811190E-01  0.47294538944E-01 -0.33755873277E-01  0.68647858065E-01  0.51100000000E-03 0. -1.
         11    1    4    4    0    0  0.33854411349E-01  0.50468912045E-01 -0.13841110793E-01  0.62330327449E-01  0.51100000000E-03 0.  1.
</event>
<event>
 8    1  0.1061722E+005  0.1043930E+01  0.7957747E-01            NaN
         13   -1    0    0    0    0  0.00000000000E+00  0.00000000000E+00  0.74505805969E-08  0.10566000000E+00  0.10566000000E+00 0. -1.
     999900   -1    0    0    0    0 -0.00000000000E+00 -0.00000000000E+00 -0.74505805969E-08  0.93827000000E+00  0.93827000000E+00 0.  1.
     999902    2    1    2    0    0  0.15109334511E-01  0.80588997196E-02  0.15561458235E-01  0.10207913562E+01  0.10205290765E+01 0.  0.
     999903    2    3    3    0    0  0.11957757609E+00 -0.30242395661E-01  0.47260898724E-01  0.13321856638E+00  0.17326127114E-01 0.  0.
         14    1    1    2    0    0 -0.15109334511E-01 -0.80588997196E-02 -0.15561458235E-01  0.23138643790E-01  0.00000000000E+00 0.  1.
     999901    1    3    3    0    0 -0.10446824158E+00  0.38301295381E-01 -0.31699440490E-01  0.88757278983E+00  0.88000000000E+00 0. -1.
        -11    1    4    4    0    0  0.88561482395E-01 -0.20611215367E-01  0.26668117147E-01  0.94759738054E-01  0.51100000000E-03 0. -1.
         11    1    4    4    0    0  0.31016093692E-01 -0.96311802941E-02  0.20592781578E-01  0.38458828322E-01  0.51100000000E-03 0.  1.
</event>
<event>
 8    1  0.1061722E+005  0.1043930E+01  0.7957747E-01            NaN
         13   -1    0    0    0    0  0.00000000000E+00  0.00000000000E+00  0.74505805969E-08  0.10566000000E+00  0.10566000000E+00 0. -1.
     999900   -1    0    0    0    0 -0.00000000000E+00 -0.00000000000E+00 -0.74505805969E-08  0.93827000000E+00  0.93827000000E+00 0. -1.
     999902    2    1    2    0    0  0.16165157062E-01  0.91119420008E-02 -0.12215417084E-01  0.10217138751E+01  0.10214723131E+01 0.  0.
     999903    2    3    3    0    0 -0.10818264946E+00 -0.43192629504E-01 -0.55236638722E-01  0.13039520557E+00  0.19563601157E-01 0.  0.
         14    1    1    2    0    0 -0.16165157062E-01 -0.91119420008E-02  0.12215417084E-01  0.22216124874E-01  0.00000000000E+00 0. -1.
     999901    1    3    3    0    0  0.12434780652E+00  0.52304571505E-01  0.43021221638E-01  0.89131866956E+00  0.88000000000E+00 0.  1.
        -11    1    4    4    0    0 -0.35009990685E-01 -0.16006353577E-01 -0.28432960198E-01  0.47860183339E-01  0.51100000000E-03 0.  1.
         11    1    4    4    0    0 -0.73172658777E-01 -0.27186275927E-01 -0.26803678524E-01  0.82535022231E-01  0.51100000000E-03 0. -1.
</event>
<event>
 8    1  0.1061722E+005  0.1043930E+01  0.7957747E-01            NaN
         13   -1    0    0    0    0  0.00000000000E+00  0.00000000000E+00  0.74505805969E-08  0.10566000000E+00  0.10566000000E+00 0. -1.
     999900   -1    0    0    0    0 -0.00000000000E+00 -0.00000000000E+00 -0.74505805969E-08  0.93827000000E+00  0.93827000000E+00 0.  1.
     999902    2    1    2    0    0  0.63400825256E-02 -0.16167056054E-01  0.15905806284E-01  0.10203807957E+01  0.10201090154E+01 0.  0.
     999903    2    3    3    0    0 -0.60672942036E-01  0.98497457688E-01 -0.50458540421E-01  0.12794428669E+00  0.20993359139E-01 0.  0.
         14    1    1    2    0    0 -0.63400825256E-02  0.16167056054E-01 -0.15905806284E-01  0.23549204263E-01  0.00000000000E+00 0.  1.
     999901    1    3    3    0    0  0.67013024561E-01 -0.11466451374E+00  0.66364346705E-01  0.89243650905E+00  0.88000000000E+00 0.  1.
        -11    1    4    4    0    0 -0.36271875400E-01  0.76598333336E-01 -0.35094492043E-01  0.91732426697E-01  0.51100000000E-03 0.  1.
         11    1    4    4    0    0 -0.24401066636E-01  0.21899124352E-01 -0.15364048377E-01  0.36211859989E-01  0.51100000000E-03 0. -1.
</event>
<event>
 8    1  0.1061722E+005  0.1043930E+01  0.7957747E-01            NaN
         13   -1    0    0    0    0  0.00000000000E+00  0.00000000000E+00  0.74505805969E-08  0.10566000000E+00  0.10566000000E+00 0.  1.
     999900   -1    0    0    0    0 -0.00000000000E+00 -0.00000000000E+00 -0.74505805969E-08  0.93827000000E+00  0.93827000000E+00 0. -1.
     999902    2    1    2    0    0  0.17460679447E-01 -0.16110784141E-01 -0.10544843003E-01  0.10179371855E+01  0.10176052708E+01 0.  0.
     999903    2    3    3    0    0  0.27103206599E-01  0.75711206584E-01 -0.98614736810E-01  0.12873497985E+00  0.19520709798E-01 0.  0.
         14    1    1    2    0    0 -0.17460679447E-01  0.16110784141E-01  0.10544843003E-01  0.25992814514E-01  0.00000000000E+00 0.  1.
     999901    1    3    3    0    0 -0.96425271519E-02 -0.91821990725E-01  0.88069893806E-01  0.88920220563E+00  0.88000000000E+00 0.  1.
        -11    1    4    4    0    0  0.47471581305E-02  0.30883851257E-01 -0.26767025466E-01  0.41147084369E-01  0.51100000000E-03 0. -1.
         11    1    4    4    0    0  0.22356048468E-01  0.44827355327E-01 -0.71847711344E-01  0.87587895483E-01  0.51100000000E-03 0.  1.
</event>
<event>
 8    1  0.1061722E+005  0.1043930E+01  0.7957747E-01            NaN
         13   -1    0    0    0    0  0.00000000000E+00  0.00000000000E+00  0.74505805969E-08  0.10566000000E+00  0.10566000000E+00 0. -1.
     999900   -1    0    0    0    0 -0.00000000000E+00 -0.00000000000E+00 -0.74505805969E-08  0.93827000000E+00  0.93827000000E+00 0. -1.
     999902    2    1    2    0    0  0.19728755354E-01 -0.18458500472E-02 -0.12429201502E-01  0.10205394891E+01  0.10202714015E+01 0.  0.
     999903    2    3    3    0    0 -0.96266748377E-01  0.57674596684E-01  0.58178810414E-01  0.12813647935E+00  0.20988983133E-01 0.  0.
         14    1    1    2    0    0 -0.19728755354E-01  0.18458500472E-02  0.12429201502E-01  0.23390510900E-01  0.00000000000E+00 0. -1.
     999901    1    3    3    0    0  0.11599550373E+00 -0.59520446732E-01 -0.70608011916E-01  0.89240300975E+00  0.88000000000E+00 0. -1.
        -11    1    4    4    0    0 -0.13507955571E-01  0.49614772841E-02  0.15434138472E-01  0.21108170738E-01  0.51100000000E-03 0. -1.
         11    1    4    4    0    0 -0.82758792806E-01  0.52713119400E-01  0.42744671942E-01  0.10702830861E+00  0.51100000000E-03 0.  1.
</event>
<event>
 8    1  0.1061722E+005  0.1043930E+01  0.7957747E-01            NaN
         13   -1    0    0    0    0  0.00000000000E+00  0.00000000000E+00  0.74505805969E-08  0.10566000000E+00  0.10566000000E+00 0. -1.
     999900   -1    0    0    0    0 -0.00000000000E+00 -0.00000000000E+00 -0.74505805969E-08  0.93827000000E+00  0.93827000000E+00 0. -1.
     999902    2    1    2    0    0 -0.16024457369E-01 -0.14425401339E-01  0.11226060771E-01  0.10196215678E+01  0.10193317623E+01 0.  0.
     999903    2    3    3    0    0 -0.12479920046E+00  0.27947092916E-01  0.24618516702E-01  0.13181149185E+00  0.20305604675E-01 0.  0.
         14    1    1    2    0    0  0.16024457369E-01  0.14425401339E-01 -0.11226060771E-01  0.24308432245E-01  0.00000000000E+00 0.  1.
     999901    1    3    3    0    0  0.10877474309E+00 -0.42372494255E-01 -0.13392455931E-01  0.88781007591E+00  0.88000000000E+00 0. -1.
        -11    1    4    4    0    0 -0.70882877403E-01  0.67123720754E-02  0.88126923819E-02  0.71745124683E-01  0.51100000000E-03 0. -1.
         11    1    4    4    0    0 -0.53916323056E-01  0.21234720841E-01  0.15805824320E-01  0.60066367166E-01  0.51100000000E-03 0.  1.
</event>
<event>
 8    1  0.1061722E+005  0.1043930E+01  0.7957747E-01            NaN
         13   -1    0    0    0    0  0.00000000000E+00  0.00000000000E+00  0.74505805969E-08  0.10566000000E+00  0.10566000000E+00 0.  1.
     999900   -1    0    0    0    0 -0.00000000000E+00 -0.00000000000E+00 -0.74505805969E-08  0.93827000000E+00  0.93827000000E+00 0. -1.
     999902    2    1    2    0    0  0.18193354501E-01  0.15992571751E-03  0.14690804121E-01  0.10205453159E+01  0.10202773635E+01 0.  0.
     999903    2    3    3    0    0  0.33916118430E-01 -0.11646008482E+00 -0.44079934833E-01  0.13076925874E+00  0.21078518225E-01 0.  0.
         14    1    1    2    0    0 -0.18193354501E-01 -0.15992571751E-03 -0.14690804121E-01  0.23384684089E-01  0.00000000000E+00 0. -1.
     999901    1    3    3    0    0 -0.15722763929E-01  0.11662001054E+00  0.58770738954E-01  0.88977605717E+00  0.88000000000E+00 0. -1.
        -11    1    4    4    0    0  0.27888109108E-01 -0.10135634589E+00 -0.45266107146E-01  0.11445583016E+00  0.51100000000E-03 0. -1.
         11    1    4    4    0    0  0.60280093221E-02 -0.15103738931E-01  0.11861723125E-02  0.16313428574E-01  0.51100000000E-03 0.  1.
</event>
<event>
 8    1  0.1061722E+005  0.1043930E+01  0.7957747E-01            NaN
         13   -1    0    0    0    0  0.00000000000E+00  0.00000000000E+00  0.74505805969E-08  0.10566000000E+00  0.10566000000E+00 0. -1.
     999900   -1    0    0    0    0 -0.00000000000E+00 -0.00000000000E+00 -0.74505805969E-08  0.93827000000E+00  0.93827000000E+00 0. -1.
     999902    2    1    2    0    0 -0.60398099860E-02 -0.16312933078E-01 -0.16776607008E-01  0.10197629639E+01  0.10194765603E+01 0.  0.
     999903    2    3    3    0    0 -0.11523607471E+00 -0.55851465240E-01  0.20315860523E-01  0.13135823019E+00  0.21059709553E-01 0.  0.
         14    1    1    2    0    0  0.60398099860E-02  0.16312933078E-01  0.16776607008E-01  0.24167036082E-01  0.00000000000E+00 0. -1.
     999901    1    3    3    0    0  0.10919626473E+00  0.39538532162E-01 -0.37092467531E-01  0.88840473372E+00  0.88000000000E+00 0. -1.
        -11    1    4    4    0    0 -0.70623899679E-01 -0.24557174329E-01  0.60038071133E-02  0.75013977616E-01  0.51100000000E-03 0. -1.
         11    1    4    4    0    0 -0.44612175033E-01 -0.31294290911E-01  0.14312053410E-01  0.56344252578E-01  0.51100000000E-03 0.  1.
</event>
<event>
 8    1  0.1061722E+005  0.1043930E+01  0.7957747E-01            NaN
         13   -1    0    0    0    0  0.00000000000E+00  0.00000000000E+00  0.74505805969E-08  0.10566000000E+00  0.10566000000E+00 0. -1.
     999900   -1    0    0    0    0 -0.00000000000E+00 -0.00000000000E+00 -0.74505805969E-08  0.93827000000E+00  0.93827000000E+00 0.  1.
     999902    2    1    2    0    0  0.16951206366E-01 -0.61892350264E-02  0.15737219274E-01  0.10199861052E+01  0.10197050283E+01 0.  0.
     999903    2    3    3    0    0  0.10588898055E+00  0.75155115136E-01  0.66126355773E-02  0.13172370647E+00  0.21133867716E-01 0.  0.
         14    1    1    2    0    0 -0.16951206366E-01  0.61892350264E-02 -0.15737219274E-01  0.23943894796E-01  0.00000000000E+00 0. -1.
     999901    1    3    3    0    0 -0.88937774179E-01 -0.81344350162E-01  0.91245836971E-02  0.88826239874E+00  0.88000000000E+00 0. -1.
        -11    1    4    4    0    0  0.35199274414E-01  0.16807489612E-01  0.89894385507E-02  0.40031884202E-01  0.51100000000E-03 0. -1.
         11    1    4    4    0    0  0.70689706132E-01  0.58347625524E-01 -0.23768029735E-02  0.91691822267E-01  0.51100000000E-03 0.  1.
</event>
<event>
 8    1  0.1061722E+005  0.1043930E+01  0.7957747E-01            NaN
         13   -1    0    0    0    0  0.00000000000E+00  0.00000000000E+00  0.74505805969E-08  0.10566000000E+00  0.10566000000E+00 0.  1.
     999900   -1    0    0    0    0 -0.00000000000E+00 -0.00000000000E+00 -0.74505805969E-08  0.93827000000E+00  0.93827000000E+00 0. -1.
     999902    2    1    2    0    0 -0.62982754901E-02 -0.19250938158E-01  0.13173541868E-01  0.10197678581E+01  0.10194815719E+01 0.  0.
     999903    2    3    3    0    0  0.11448046974E+00  0.19697941702E-02 -0.55178226096E-01  0.12863947852E+00  0.19844917644E-01 0.  0.
         14    1    1    2    0    0  0.62982754901E-02  0.19250938158E-01 -0.13173541868E-01  0.24162141864E-01  0.00000000000E+00 0. -1.
     999901    1    3    3    0    0 -0.12077874523E+00 -0.21220732328E-01  0.68351767964E-01  0.89112837962E+00  0.88000000000E+00 0.  1.
        -11    1    4    4    0    0  0.46094403869E-01 -0.14077845701E-02 -0.32840572800E-01  0.56616607707E-01  0.51100000000E-03 0.  1.
         11    1    4    4    0    0  0.68386065874E-01  0.33775787403E-02 -0.22337653296E-01  0.72022870809E-01  0.51100000000E-03 0. -1.
</event>
<event>
 8    1  0.1061722E+005  0.1043930E+01  0.7957747E-01            NaN
         13   -1    0    0    0    0  0.00000000000E+00  0.00000000000E+00  0.74505805969E-08  0.10566000000E+00  0.10566000000E+00 0. -1.
     999900   -1    0    0    0    0 -0.00000000000E+00 -0.00000000000E+00 -0.74505805969E-08  0.93827000000E+00  0.93827000000E+00 0. -1.
     999902    2    1    2    0    0  0.21051390509E-01 -0.72749060901E-02 -0.82184542218E-02  0.10201891430E+01  0.10199128684E+01 0.  0.
     999903    2    3    3    0    0  0.66854260163E-01  0.68064677438E-01  0.86955917164E-01  0.13067685153E+00  0.20317863570E-01 0.  0.
         14    1    1    2    0    0 -0.21051390509E-01  0.72749060901E-02  0.82184542218E-02  0.23740856993E-01  0.00000000000E+00 0. -1.
     999901    1    3    3    0    0 -0.45802869654E-01 -0.75339583528E-01 -0.95174371386E-01  0.88951229147E+00  0.88000000000E+00 0. -1.
        -11    1    4    4    0    0  0.27971695880E-01  0.32249210416E-01  0.25989876867E-01  0.49981618255E-01  0.51100000000E-03 0.  1.
         11    1    4    4    0    0  0.38882564283E-01  0.35815467022E-01  0.60966040297E-01  0.80695233278E-01  0.51100000000E-03 0. -1.
</event>
<event>
 8    1  0.1061722E+005  0.1043930E+01  0.7957747E-01            NaN
         13   -1    0    0    0    0  0.00000000000E+00  0.00000000000E+00  0.74505805969E-08  0.10566000000E+00  0.10566000000E+00 0. -1.
     999900   -1    0    0    0    0 -0.00000000000E+00 -0.00000000000E+00 -0.74505805969E-08  0.93827000000E+00  0.93827000000E+00 0.  1.
     999902    2    1    2    0    0  0.24111414598E-01  0.78498517840E-02 -0.13341455339E-01  0.10152773401E+01  0.10148729489E+01 0.  0.
     999903    2    3    3    0    0  0.24673463344E-02 -0.10953895417E+00 -0.57972077598E-01  0.12609766768E+00  0.23129845124E-01 0.  0.
         14    1    1    2    0    0 -0.24111414598E-01 -0.78498517840E-02  0.13341455339E-01  0.28652659868E-01  0.00000000000E+00 0. -1.
     999901    1    3    3    0    0  0.21644068264E-01  0.11738880595E+00  0.44630622259E-01  0.88917967245E+00  0.88000000000E+00 0. -1.
        -11    1    4    4    0    0  0.64646825307E-02 -0.62403889882E-01 -0.44469257980E-01  0.76901323909E-01  0.51100000000E-03 0. -1.
         11    1    4    4    0    0 -0.39973361964E-02 -0.47135064288E-01 -0.13502819617E-01  0.49196343774E-01  0.51100000000E-03 0.  1.
</event>
<event>
 8    1  0.1061722E+005  0.1043930E+01  0.7957747E-01            NaN
         13   -1    0    0    0    0  0.00000000000E+00  0.00000000000E+00  0.74505805969E-08  0.10566000000E+00  0.10566000000E+00 0. -1.
     999900   -1    0    0    0    0 -0.00000000000E+00 -0.00000000000E+00 -0.74505805969E-08  0.93827000000E+00  0.93827000000E+00 0. -1.
     999902    2    1    2    0    0  0.18388074271E-01  0.15489412962E-02  0.14318530185E-01  0.10205731851E+01  0.10203058783E+01 0.  0.
     999903    2    3    3    0    0 -0.11225675752E-01  0.96112230901E-01 -0.83764880389E-01  0.12959644841E+00  0.20374187829E-01 0.  0.
         14    1    1    2    0    0 -0.18388074271E-01 -0.15489412962E-02 -0.14318530185E-01  0.23356814877E-01  0.00000000000E+00 0.  1.
     999901    1    3    3    0    0  0.29613750023E-01 -0.94563289604E-01  0.98083410573E-01  0.89097673671E+00  0.88000000000E+00 0.  1.
        -11    1    4    4    0    0 -0.86144223479E-02  0.64944820819E-01 -0.43640935245E-01  0.78719949020E-01  0.51100000000E-03 0.  1.
         11    1    4    4    0    0 -0.26112534040E-02  0.31167410082E-01 -0.40123945143E-01  0.50876499392E-01  0.51100000000E-03 0. -1.
</event>
<event>
 8    1  0.1061722E+005  0.1043930E+01  0.7957747E-01            NaN
         13   -1    0    0    0    0  0.00000000000E+00  0.00000000000E+00  0.74505805969E-08  0.10566000000E+00  0.10566000000E+00 0.  1.
     999900   -1    0    0    0    0 -0.00000000000E+00 -0.00000000000E+00 -0.74505805969E-08  0.93827000000E+00  0.93827000000E+00 0. -1.
     999902    2    1    2    0    0  0.40537868103E-02  0.82075330767E-02 -0.22038132730E-01  0.10200663020E+01  0.10197871270E+01 0.  0.
     999903    2    3    3    0    0 -0.59783676789E-01 -0.90789100479E-01  0.64389229009E-01  0.12802076279E+00  0.20654154958E-01 0.  0.
         14    1    1    2    0    0 -0.40537868103E-02 -0.82075330767E-02  0.22038132730E-01  0.23863697973E-01  0.00000000000E+00 0.  1.
     999901    1    3    3    0    0  0.63837463600E-01  0.98996633556E-01 -0.86427361739E-01  0.89204553924E+00  0.88000000000E+00 0. -1.
        -11    1    4    4    0    0 -0.37817548737E-01 -0.41545710756E-01  0.39188133541E-01  0.68499518291E-01  0.51100000000E-03 0. -1.
         11    1    4    4    0    0 -0.21966128052E-01 -0.49243389723E-01  0.25201095468E-01  0.59521244500E-01  0.51100000000E-03 0.  1.
</event>
<event>
 8    1  0.1061722E+005  0.1043930E+01  0.7957747E-01            NaN
         13   -1    0    0    0    0  0.00000000000E+00  0.00000000000E+00  0.74505805969E-08  0.10566000000E+00  0.10566000000E+00 0.  1.
     999900   -1    0    0    0    0 -0.00000000000E+00 -0.00000000000E+00 -0.74505805969E-08  0.93827000000E+00  0.93827000000E+00 0. -1.
     999902    2    1    2    0    0  0.33659567389E-02  0.56360630083E-02 -0.20677465643E-01  0.10222354740E+01  0.10220052407E+01 0.  0.
     999903    2    3    3    0    0 -0.68677160321E-02  0.12935739498E+00 -0.25507863950E-01  0.13350884071E+00  0.19835782453E-01 0.  0.
         14    1    1    2    0    0 -0.33659567389E-02 -0.56360630083E-02  0.20677465643E-01  0.21694525955E-01  0.00000000000E+00 0.  1.
     999901    1    3    3    0    0  0.10233672771E-01 -0.12372133197E+00  0.48303983070E-02  0.88872663333E+00  0.88000000000E+00 0.  1.
        -11    1    4    4    0    0  0.63539925093E-02  0.23430965844E-01 -0.55704068177E-02  0.24913328447E-01  0.51100000000E-03 0.  1.
         11    1    4    4    0    0 -0.13221708541E-01  0.10592642914E+00 -0.19937457132E-01  0.10859551227E+00  0.51100000000E-03 0. -1.
</event>
<event>
 8    1  0.1061722E+005  0.1043930E+01  0.7957747E-01            NaN
         13   -1    0    0    0    0  0.00000000000E+00  0.00000000000E+00  0.74505805969E-08  0.10566000000E+00  0.10566000000E+00 0.  1.
     999900   -1    0    0    0    0 -0.00000000000E+00 -0.00000000000E+00 -0.74505805969E-08  0.93827000000E+00  0.93827000000E+00 0.  1.
     999902    2    1    2    0    0 -0.17548754904E-01 -0.11758182009E-01  0.11253822877E-01  0.10199954607E+01  0.10197146060E+01 0.  0.
     999903    2    3    3    0    0 -0.22427504790E-01 -0.54819096766E-01 -0.11404917013E+00  0.13006350563E+00  0.20029377086E-01 0.  0.
         14    1    1    2    0    0  0.17548754904E-01  0.11758182009E-01 -0.11253822877E-01  0.23934539314E-01  0.00000000000E+00 0. -1.
     999901    1    3    3    0    0  0.48787498860E-02  0.43060914758E-01  0.12530299301E+00  0.88993195506E+00  0.88000000000E+00 0. -1.
        -11    1    4    4    0    0 -0.18520604044E-01 -0.33682485042E-01 -0.89640216865E-01  0.97535389338E-01  0.51100000000E-03 0.  1.
         11    1    4    4    0    0 -0.39069007461E-02 -0.21136611724E-01 -0.24408953268E-01  0.32528116288E-01  0.51100000000E-03 0. -1.
</event>
<event>
 8    1  0.1061722E+005  0.1043930E+01  0.7957747E-01            NaN
         13   -1    0    0    0    0  0.00000000000E+00  0.00000000000E+00  0.74505805969E-08  0.10566000000E+00  0.10566000000E+00 0. -1.
     999900   -1    0    0    0    0 -0.00000000000E+00 -0.00000000000E+00 -0.74505805969E-08  0.93827000000E+00  0.93827000000E+00 0.  1.
     999902    2    1    2    0    0  0.15240053829E-01  0.16568260076E-01  0.82012171581E-02  0.10199711510E+01  0.10196897187E+01 0.  0.
     999903    2    3    3    0    0 -0.39715057138E-01 -0.16216544636E-01 -0.11933839087E+00  0.12847731520E+00  0.20603565314E-01 0.  0.
         14    1    1    2    0    0 -0.15240053829E-01 -0.16568260076E-01 -0.82012171581E-02  0.23958849002E-01  0.00000000000E+00 0.  1.
     999901    1    3    3    0    0  0.54955110967E-01  0.32784804712E-01  0.12753960803E+00  0.89149383579E+00  0.88000000000E+00 0. -1.
        -11    1    4    4    0    0 -0.22547223261E-02 -0.87405926004E-02 -0.17261640667E-01  0.19486074291E-01  0.51100000000E-03 0. -1.
         11    1    4    4    0    0 -0.37460334812E-01 -0.74759520358E-02 -0.10207675020E+00  0.10899124091E+00  0.51100000000E-03 0.  1.
</event>
<event>
 8    1  0.1061722E+005  0.1043930E+01  0.7957747E-01            NaN
         13   -1    0    0    0    0  0.00000000000E+00  0.00000000000E+00  0.74505805969E-08  0.10566000000E+00  0.10566000000E+00 0.  1.
     999900   -1    0    0    0    0 -0.00000000000E+00 -0.00000000000E+00 -0.74505805969E-08  0.93827000000E+00  0.93827000000E+00 0.  1.
     999902    2    1    2    0    0  0.18049735246E-01 -0.47157046429E-02  0.13888627518E-01  0.10206722102E+01  0.10204071912E+01 0.  0.
     999903    2    3    3    0    0 -0.54682824281E-01 -0.97810320850E-01  0.66921167091E-01  0.13119535099E+00  0.13293132877E-01 0.  0.
         14    1    1    2    0    0 -0.18049735246E-01  0.47157046429E-02 -0.13888627518E-01  0.23257789815E-01  0.00000000000E+00 0. -1.
     999901    1    3    3    0    0  0.72732559527E-01  0.93094616207E-01 -0.53032539573E-01  0.88947685919E+00  0.88000000000E+00 0.  1.
        -11    1    4    4    0    0 -0.15938047999E-01 -0.40985142761E-01  0.23596061944E-01  0.49908301528E-01  0.51100000000E-03 0.  1.
         11    1    4    4    0    0 -0.38744776282E-01 -0.56825178088E-01  0.43325105147E-01  0.81287049466E-01  0.51100000000E-03 0. -1.
</event>
<event>
 8    1  0.1061722E+005  0.1043930E+01  0.7957747E-01            NaN
         13   -1    0    0    0    0  0.00000000000E+00  0.00000000000E+00  0.74505805969E-08  0.10566000000E+00  0.10566000000E+00 0.  1.
     999900   -1    0    0    0    0 -0.00000000000E+00 -0.00000000000E+00 -0.74505805969E-08  0.93827000000E+00  0.93827000000E+00 0.  1.
     999902    2    1    2    0    0 -0.14559159708E-02 -0.23440055585E-01  0.16173464258E-03  0.10204442159E+01  0.10201739144E+01 0.  0.
     999903    2    3    3    0    0  0.18128472861E-01 -0.13097717446E+00  0.92378662031E-03  0.13368136093E+00  0.19651745939E-01 0.  0.
         14    1    1    2    0    0  0.14559159708E-02  0.23440055585E-01 -0.16173464258E-03  0.23485784109E-01  0.00000000000E+00 0. -1.
     999901    1    3    3    0    0 -0.19584388832E-01  0.10753711888E+00 -0.76205197773E-03  0.88676285497E+00  0.88000000000E+00 0.  1.
        -11    1    4    4    0    0  0.10096521622E-01 -0.78760071019E-01 -0.90306013347E-02  0.79918091927E-01  0.51100000000E-03 0. -1.
         11    1    4    4    0    0  0.80319512391E-02 -0.52217103445E-01  0.99543879550E-02  0.53763268999E-01  0.51100000000E-03 0.  1.
</event>
<event>
 8    1  0.1061722E+005  0.1043930E+01  0.7957747E-01            NaN
         13   -1    0    0    0    0  0.00000000000E+00  0.00000000000E+00  0.74505805969E-08  0.10566000000E+00  0.10566000000E+00 0. -1.
     999900   -1    0    0    0    0 -0.00000000000E+00 -0.00000000000E+00 -0.74505805969E-08  0.93827000000E+00  0.93827000000E+00 0.  1.
     999902    2    1    2    0    0  0.72140965050E-02  0.10598940687E-01  0.18312316444E-01  0.10215755448E+01  0.10213309317E+01 0.  0.
     999903    2    3    3    0    0 -0.98066499330E-01  0.54003027147E-01  0.68145218745E-01  0.13283979292E+00  0.21662744834E-01 0.  0.
         14    1    1    2    0    0 -0.72140965050E-02 -0.10598940687E-01 -0.18312316444E-01  0.22354455163E-01  0.00000000000E+00 0.  1.
     999901    1    3    3    0    0  0.10528059583E+00 -0.43404086460E-01 -0.49832902301E-01  0.88873575192E+00  0.88000000000E+00 0.  1.
        -11    1    4    4    0    0 -0.97912644502E-01  0.51835457847E-01  0.68920822440E-01  0.13047659380E+00  0.51100000000E-03 0. -1.
         11    1    4    4    0    0 -0.15385482724E-03  0.21675693005E-02 -0.77560369528E-03  0.23631991182E-02  0.51100000000E-03 0.  1.
</event>
<event>
 8    1  0.1061722E+005  0.1043930E+01  0.7957747E-01            NaN
         13   -1    0    0    0    0  0.00000000000E+00  0.00000000000E+00  0.74505805969E-08  0.10566000000E+00  0.10566000000E+00 0.  1.
     999900   -1    0    0    0    0 -0.00000000000E+00 -0.00000000000E+00 -0.74505805969E-08  0.93827000000E+00  0.93827000000E+00 0.  1.
     999902    2    1    2    0    0 -0.19029588220E-01  0.12343670555E-01 -0.62756699263E-02  0.10203954411E+01  0.10201240026E+01 0.  0.
     999903    2    3    3    0    0 -0.20005960974E-01 -0.13627670440E-01 -0.12787680318E+00  0.13165346533E+00  0.19854628316E-01 0.  0.
         14    1    1    2    0    0  0.19029588220E-01 -0.12343670555E-01  0.62756699263E-02  0.23534558921E-01  0.00000000000E+00 0.  1.
     999901    1    3    3    0    0  0.97637275440E-03  0.25971340995E-01  0.12160113325E+00  0.88874197575E+00  0.88000000000E+00 0. -1.
        -11    1    4    4    0    0 -0.12404664628E-01 -0.10232582585E-01 -0.36397714439E-01  0.39794926665E-01  0.51100000000E-03 0. -1.
         11    1    4    4    0    0 -0.76012963464E-02 -0.33950878551E-02 -0.91479088737E-01  0.91858538661E-01  0.51100000000E-03 0.  1.
</event>
<event>
 8    1  0.1061722E+005  0.1043930E+01  0.7957747E-01            NaN
         13   -1    0    0    0    0  0.00000000000E+00  0.00000000000E+00  0.74505805969E-08  0.10566000000E+00  0.10566000000E+00 0.  1.
     999900   -1    0    0    0    0 -0.00000000000E+00 -0.00000000000E+00 -0.74505805969E-08  0.93827000000E+00  0.93827000000E+00 0. -1.
     999902    2    1    2    0    0  0.10219135595E-01  0.71171283954E-02  0.20025669289E-01  0.10203479797E+01  0.10200754325E+01 0.  0.
     999903    2    3    3    0    0 -0.48937892334E-01 -0.11554932292E+00  0.28227495555E-01  0.12983471079E+00  0.17711501507E-01 0.  0.
         14    1    1    2    0    0 -0.10219135595E-01 -0.71171283954E-02 -0.20025669289E-01  0.23582020256E-01  0.00000000000E+00 0. -1.
     999901    1    3    3    0    0  0.59157027928E-01  0.12266645132E+00 -0.82018262668E-02  0.89051326896E+00  0.88000000000E+00 0.  1.
        -11    1    4    4    0    0 -0.26737106416E-01 -0.49405208128E-01  0.19751611889E-01  0.59549431088E-01  0.51100000000E-03 0.  1.
         11    1    4    4    0    0 -0.22200785918E-01 -0.66144114797E-01  0.84758836668E-02  0.70285279700E-01  0.51100000000E-03 0. -1.
</event>
<event>
 8    1  0.1061722E+005  0.1043930E+01  0.7957747E-01            NaN
         13   -1    0    0    0    0  0.00000000000E+00  0.00000000000E+00  0.74505805969E-08  0.10566000000E+00  0.10566000000E+00 0. -1.
     999900   -1    0    0    0    0 -0.00000000000E+00 -0.00000000000E+00 -0.74505805969E-08  0.93827000000E+00  0.93827000000E+00 0.  1.
     999902    2    1    2    0    0  0.18867755559E-01 -0.27693218086E-02  0.14721433971E-01  0.10198388821E+01  0.10195542965E+01 0.  0.
     999903    2    3    3    0    0  0.10138815750E+00 -0.54018189306E-01  0.64242454960E-01  0.13310983969E+00  0.19839686113E-01 0.  0.
         14    1    1    2    0    0 -0.18867755559E-01  0.27693218086E-02 -0.14721433971E-01  0.24091117892E-01  0.00000000000E+00 0.  1.
     999901    1    3    3    0    0 -0.82520401939E-01  0.51248867497E-01 -0.49521020990E-01  0.88672904242E+00  0.88000000000E+00 0. -1.
        -11    1    4    4    0    0  0.79125103749E-01 -0.34198746017E-01  0.41835118085E-01  0.95816358200E-01  0.51100000000E-03 0.  1.
         11    1    4    4    0    0  0.22263053749E-01 -0.19819443289E-01  0.22407336875E-01  0.37293481486E-01  0.51100000000E-03 0. -1.
</event>
<event>
 8    1  0.1061722E+005  0.1043930E+01  0.7957747E-01            NaN
         13   -1    0    0    0    0  0.00000000000E+00  0.00000000000E+00  0.74505805969E-08  0.10566000000E+00  0.10566000000E+00 0.  1.
     999900   -1    0    0    0    0 -0.00000000000E+00 -0.00000000000E+00 -0.74505805969E-08  0.93827000000E+00  0.93827000000E+00 0.  1.
     999902    2    1    2    0    0  0.28391351951E-02 -0.53697962421E-02  0.22298597812E-01  0.10208189017E+01  0.10205572533E+01 0.  0.
     999903    2    3    3    0    0 -0.74978308432E-01  0.72746783832E-01 -0.72779087863E-01  0.12885616653E+00  0.19831155522E-01 0.  0.
         14    1    1    2    0    0 -0.28391351951E-02  0.53697962421E-02 -0.22298597812E-01  0.23111098302E-01  0.00000000000E+00 0. -1.
     999901    1    3    3    0    0  0.77817443627E-01 -0.78116580074E-01  0.95077685675E-01  0.89196273517E+00  0.88000000000E+00 0. -1.
        -11    1    4    4    0    0 -0.55089157250E-01  0.49166412566E-01 -0.40557620843E-01  0.84245671108E-01  0.51100000000E-03 0. -1.
         11    1    4    4    0    0 -0.19889151182E-01  0.23580371266E-01 -0.32221467020E-01  0.44610495421E-01  0.51100000000E-03 0.  1.
</event>
<event>
 8    1  0.1061722E+005  0.1043930E+01  0.7957747E-01            NaN
         13   -1    0    0    0    0  0.00000000000E+00  0.00000000000E+00  0.74505805969E-08  0.10566000000E+00  0.10566000000E+00 0.  1.
     999900   -1    0    0    0    0 -0.00000000000E+00 -0.00000000000E+00 -0.74505805969E-08  0.93827000000E+00  0.93827000000E+00 0. -1.
     999902    2    1    2    0    0  0.30375638084E-01 -0.21894660557E-02  0.87951431719E-02  0.10122309828E+01  0.10117345179E+01 0.  0.
     999903    2    3    3    0    0 -0.22428539109E-01 -0.59736367934E-01 -0.10189385118E+00  0.12186477691E+00  0.19929724626E-01 0.  0.
         14    1    1    2    0    0 -0.30375638084E-01  0.21894660557E-02 -0.87951431719E-02  0.31699017241E-01  0.00000000000E+00 0.  1.
     999901    1    3    3    0    0  0.52804177194E-01  0.57546901879E-01  0.11068899435E+00  0.89036620585E+00  0.88000000000E+00 0.  1.
        -11    1    4    4    0    0 -0.10564315089E-01 -0.36126399504E-01 -0.76272561001E-01  0.85055782738E-01  0.51100000000E-03 0. -1.
         11    1    4    4    0    0 -0.11864224020E-01 -0.23609968430E-01 -0.25621290175E-01  0.36808994174E-01  0.51100000000E-03 0.  1.
</event>
<event>
 8    1  0.1067669E+005  0.1043930E+01  0.7957747E-01            NaN
         13   -1    0    0    0    0  0.00000000000E+00  0.00000000000E+00  0.74505805969E-08  0.10566000000E+00  0.10566000000E+00 0. -1.
     999900   -1    0    0    0    0 -0.00000000000E+00 -0.00000000000E+00 -0.74505805969E-08  0.93827000000E+00  0.93827000000E+00 0. -1.
     999902    2    1    2    0    0  0.33606224282E-02 -0.12628317937E-01 -0.18919413107E-01  0.10209362533E+01  0.10206772853E+01 0.  0.
     999903    2    3    3    0    0  0.12277440188E-01  0.64700657596E-01  0.10894754644E+00  0.12829453373E+00  0.15906252832E-01 0.  0.
         14    1    1    2    0    0 -0.33606224282E-02  0.12628317937E-01  0.18919413107E-01  0.22993746744E-01  0.00000000000E+00 0. -1.
     999901    1    3    3    0    0 -0.89168177599E-02 -0.77328975532E-01 -0.12786695954E+00  0.89264171953E+00  0.88000000000E+00 0.  1.
        -11    1    4    4    0    0 -0.41331426849E-03  0.32878664035E-01  0.61897100889E-01  0.70090581371E-01  0.51100000000E-03 0. -1.
         11    1    4    4    0    0  0.12690754457E-01  0.31821993561E-01  0.47050445549E-01  0.58203952359E-01  0.51100000000E-03 0.  1.
</event>
<event>
 8    1  0.1061722E+005  0.1043930E+01  0.7957747E-01            NaN
         13   -1    0    0    0    0  0.00000000000E+00  0.00000000000E+00  0.74505805969E-08  0.10566000000E+00  0.10566000000E+00 0.  1.
     999900   -1    0    0    0    0 -0.00000000000E+00 -0.00000000000E+00 -0.74505805969E-08  0.93827000000E+00  0.93827000000E+00 0.  1.
     999902    2    1    2    0    0  0.27648306251E-01  0.14500405135E-01  0.11082883271E-01  0.10108011472E+01  0.10102581048E+01 0.  0.
     999903    2    3    3    0    0 -0.48143307521E-01 -0.98610199627E-01  0.43343894108E-01  0.11974607007E+00  0.20461637531E-01 0.  0.
         14    1    1    2    0    0 -0.27648306251E-01 -0.14500405135E-01 -0.11082883271E-01  0.33128852821E-01  0.00000000000E+00 0. -1.
     999901    1    3    3    0    0  0.75791613772E-01  0.11311060476E+00 -0.32261010837E-01  0.89105507711E+00  0.88000000000E+00 0. -1.
        -11    1    4    4    0    0 -0.30740798043E-02 -0.18333891618E-01  0.13447619531E-01  0.22949534648E-01  0.51100000000E-03 0.  1.
         11    1    4    4    0    0 -0.45069227717E-01 -0.80276308008E-01  0.29896274577E-01  0.96796535418E-01  0.51100000000E-03 0. -1.
</event>
<event>
 8    1  0.1061722E+005  0.1043930E+01  0.7957747E-01            NaN
         13   -1    0    0    0    0  0.00000000000E+00  0.00000000000E+00  0.74505805969E-08  0.10566000000E+00  0.10566000000E+00 0.  1.
     999900   -1    0    0    0    0 -0.00000000000E+00 -0.00000000000E+00 -0.74505805969E-08  0.93827000000E+00  0.93827000000E+00 0. -1.
     999902    2    1    2    0    0 -0.21779376138E-01 -0.16329434128E-02  0.80370027019E-02  0.10206576743E+01  0.10203923202E+01 0.  0.
     999903    2    3    3    0    0 -0.78836915577E-01 -0.44976095703E-01 -0.93809713438E-01  0.13189058154E+00  0.18887951744E-01 0.  0.
         14    1    1    2    0    0  0.21779376138E-01  0.16329434128E-02 -0.80370027019E-02  0.23272325659E-01  0.00000000000E+00 0.  1.
     999901    1    3    3    0    0  0.57057539439E-01  0.43343152291E-01  0.10184671614E+00  0.88876709280E+00  0.88000000000E+00 0.  1.
        -11    1    4    4    0    0 -0.21264413022E-01 -0.60890063950E-02 -0.14500269647E-01  0.26453169959E-01  0.51100000000E-03 0.  1.
         11    1    4    4    0    0 -0.57572502555E-01 -0.38887089308E-01 -0.79309443791E-01  0.10543741158E+00  0.51100000000E-03 0. -1.
</event>
<event>
 8    1  0.1061722E+005  0.1043930E+01  0.7957747E-01            NaN
         13   -1    0    0    0    0  0.00000000000E+00  0.00000000000E+00  0.74505805969E-08  0.10566000000E+00  0.10566000000E+00 0.  1.
     999900   -1    0    0    0    0 -0.00000000000E+00 -0.00000000000E+00 -0.74505805969E-08  0.93827000000E+00  0.93827000000E+00 0.  1.
     999902    2    1    2    0    0 -0.13520369400E-03 -0.68975096570E-02  0.23055011876E-01  0.10198649321E+01  0.10195809690E+01 0.  0.
     999903    2    3    3    0    0 -0.11821904333E+00 -0.50941334603E-01  0.11251338162E-01  0.13080757828E+00  0.20328997700E-01 0.  0.
         14    1    1    2    0    0  0.13520369400E-03  0.68975096570E-02 -0.23055011876E-01  0.24065067881E-01  0.00000000000E+00 0. -1.
     999901    1    3    3    0    0  0.11808383964E+00  0.44043824946E-01  0.11803673714E-01  0.88905735384E+00  0.88000000000E+00 0.  1.
        -11    1    4    4    0    0 -0.82105517769E-01 -0.40097621260E-01  0.16115592831E-01  0.92785282950E-01  0.51100000000E-03 0.  1.
         11    1    4    4    0    0 -0.36113525565E-01 -0.10843713343E-01 -0.48642546683E-02  0.38022295331E-01  0.51100000000E-03 0. -1.
</event>
<event>
 8    1  0.1061722E+005  0.1043930E+01  0.7957747E-01            NaN
         13   -1    0    0    0    0  0.00000000000E+00  0.00000000000E+00  0.74505805969E-08  0.10566000000E+00  0.10566000000E+00 0. -1.
     999900   -1    0    0    0    0 -0.00000000000E+00 -0.00000000000E+00 -0.74505805969E-08  0.93827000000E+00  0.93827000000E+00 0.  1.
     999902    2    1    2    0    0 -0.14559192015E-02 -0.21575683198E-03 -0.20426015216E-01  0.10234510267E+01  0.10232461168E+01 0.  0.
     999903    2    3    3    0    0  0.41571443303E-01 -0.63359164775E-01  0.10507604225E+00  0.13126875250E+00  0.21164641902E-01 0.  0.
         14    1    1    2    0    0  0.14559192015E-02  0.21575683198E-03  0.20426015216E-01  0.20478973347E-01  0.00000000000E+00 0. -1.
     999901    1    3    3    0    0 -0.43027362504E-01  0.63143407943E-01 -0.12550205747E+00  0.89218227416E+00  0.88000000000E+00 0.  1.
        -11    1    4    4    0    0  0.11506950207E-01 -0.16481267329E-01  0.45338349969E-01  0.49597068207E-01  0.51100000000E-03 0.  1.
         11    1    4    4    0    0  0.30064493096E-01 -0.46877897446E-01  0.59737692285E-01  0.81671684289E-01  0.51100000000E-03 0. -1.
</event>
<event>
 8    1  0.1061722E+005  0.1043930E+01  0.7957747E-01            NaN
         13   -1    0    0    0    0  0.00000000000E+00  0.00000000000E+00  0.74505805969E-08  0.10566000000E+00  0.10566000000E+00 0.  1.
     999900   -1    0    0    0    0 -0.00000000000E+00 -0.00000000000E+00 -0.74505805969E-08  0.93827000000E+00  0.93827000000E+00 0. -1.
     999902    2    1    2    0    0  0.21314822802E-01  0.10838471393E-01  0.52283489178E-02  0.10194528726E+01  0.10191589816E+01 0.  0.
     999903    2    3    3    0    0 -0.75780808530E-01 -0.99819230051E-01 -0.76357541588E-02  0.12713108442E+00  0.19934850272E-01 0.  0.
         14    1    1    2    0    0 -0.21314822802E-01 -0.10838471393E-01 -0.52283489178E-02  0.24477127397E-01  0.00000000000E+00 0. -1.
     999901    1    3    3    0    0  0.97095631332E-01  0.11065770144E+00  0.12864103077E-01  0.89232178818E+00  0.88000000000E+00 0.  1.
        -11    1    4    4    0    0 -0.27679882647E-01 -0.45439701505E-01  0.49771900459E-02  0.53441331551E-01  0.51100000000E-03 0. -1.
         11    1    4    4    0    0 -0.48100925884E-01 -0.54379528546E-01 -0.12612944205E-01  0.73689752872E-01  0.51100000000E-03 0.  1.
</event>
<event>
 8    1  0.1061722E+005  0.1043930E+01  0.7957747E-01            NaN
         13   -1    0    0    0    0  0.00000000000E+00  0.00000000000E+00  0.74505805969E-08  0.10566000000E+00  0.10566000000E+00 0.  1.
     999900   -1    0    0    0    0 -0.00000000000E+00 -0.00000000000E+00 -0.74505805969E-08  0.93827000000E+00  0.93827000000E+00 0.  1.
     999902    2    1    2    0    0 -0.16691431978E-01  0.10894770347E-01 -0.12934051408E-01  0.10201689056E+01  0.10198921542E+01 0.  0.
     999903    2    3    3    0    0  0.10952040886E-03  0.97843578370E-01  0.83935998810E-01  0.13043513986E+00  0.19866957298E-01 0.  0.
         14    1    1    2    0    0  0.16691431978E-01 -0.10894770347E-01  0.12934051408E-01  0.23761094424E-01  0.00000000000E+00 0. -1.
     999901    1    3    3    0    0 -0.16800952387E-01 -0.86948808023E-01 -0.96870050218E-01  0.88973376571E+00  0.88000000000E+00 0.  1.
        -11    1    4    4    0    0  0.78438673486E-02  0.37954201608E-01  0.40420781684E-01  0.56001324874E-01  0.51100000000E-03 0.  1.
         11    1    4    4    0    0 -0.77343469397E-02  0.59889376762E-01  0.43515217126E-01  0.74433814991E-01  0.51100000000E-03 0. -1.
</event>
<event>
 8    1  0.1061722E+005  0.1043930E+01  0.7957747E-01            NaN
         13   -1    0    0    0    0  0.00000000000E+00  0.00000000000E+00  0.74505805969E-08  0.10566000000E+00  0.10566000000E+00 0. -1.
     999900   -1    0    0    0    0 -0.00000000000E+00 -0.00000000000E+00 -0.74505805969E-08  0.93827000000E+00  0.93827000000E+00 0. -1.
     999902    2    1    2    0    0 -0.10662595138E-01 -0.18650030152E-01  0.98901976014E-02  0.10202798294E+01  0.10200056861E+01 0.  0.
     999903    2    3    3    0    0  0.97925287830E-01 -0.46278863089E-01 -0.68557139140E-01  0.12971334376E+00  0.19858878566E-01 0.  0.
         14    1    1    2    0    0  0.10662595138E-01  0.18650030152E-01 -0.98901976014E-02  0.23650170577E-01  0.00000000000E+00 0. -1.
     999901    1    3    3    0    0 -0.10858788297E+00  0.27628832937E-01  0.78447336741E-01  0.89056648566E+00  0.88000000000E+00 0.  1.
        -11    1    4    4    0    0  0.57504028949E-01 -0.16250949730E-01 -0.37025571403E-01  0.70299080870E-01  0.51100000000E-03 0. -1.
         11    1    4    4    0    0  0.40421258881E-01 -0.30027913359E-01 -0.31531567737E-01  0.59414262893E-01  0.51100000000E-03 0.  1.
</event>
<event>
 8    1  0.1061722E+005  0.1043930E+01  0.7957747E-01            NaN
         13   -1    0    0    0    0  0.00000000000E+00  0.00000000000E+00  0.74505805969E-08  0.10566000000E+00  0.10566000000E+00 0. -1.
     999900   -1    0    0    0    0 -0.00000000000E+00 -0.00000000000E+00 -0.74505805969E-08  0.93827000000E+00  0.93827000000E+00 0.  1.
     999902    2    1    2    0    0  0.13860990826E-01  0.71677807661E-02  0.16249365148E-01  0.10214012181E+01  0.10211527321E+01 0.  0.
     999903    2    3    3    0    0  0.16204811819E-01 -0.56535758480E-01  0.11738153949E+00  0.13331825398E+00  0.23161241703E-01 0.  0.
         14    1    1    2    0    0 -0.13860990826E-01 -0.71677807661E-02 -0.16249365148E-01  0.22528781936E-01  0.00000000000E+00 0.  1.
     999901    1    3    3    0    0 -0.23438209932E-02  0.63703539246E-01 -0.10113217435E+00  0.88808296408E+00  0.88000000000E+00 0.  1.
        -11    1    4    4    0    0  0.15206994945E-01 -0.16793412166E-01  0.53123549230E-01  0.57755034337E-01  0.51100000000E-03 0.  1.
         11    1    4    4    0    0  0.99781687365E-03 -0.39742346314E-01  0.64257990264E-01  0.75563219643E-01  0.51100000000E-03 0. -1.
</event>
<event>
 8    1  0.1061722E+005  0.1043930E+01  0.7957747E-01            NaN
         13   -1    0    0    0    0  0.00000000000E+00  0.00000000000E+00  0.74505805969E-08  0.10566000000E+00  0.10566000000E+00 0. -1.
     999900   -1    0    0    0    0 -0.00000000000E+00 -0.00000000000E+00 -0.74505805969E-08  0.93827000000E+00  0.93827000000E+00 0. -1.
     999902    2    1    2    0    0 -0.84961585350E-03 -0.21748040352E-01 -0.39624376759E-02  0.10218076127E+01  0.10215681071E+01 0.  0.
     999903    2    3    3    0    0 -0.15318029970E-02  0.64165266051E-01 -0.11218167029E+00  0.13102539248E+00  0.21526693612E-01 0.  0.
         14    1    1    2    0    0  0.84961585350E-03  0.21748040352E-01  0.39624376759E-02  0.22122387271E-01  0.00000000000E+00 0. -1.
     999901    1    3    3    0    0  0.68218714348E-03 -0.85913306403E-01  0.10821923262E+00  0.89078222025E+00  0.88000000000E+00 0.  1.
        -11    1    4    4    0    0  0.90030759305E-02  0.43534212779E-01 -0.70920359241E-01  0.83703294645E-01  0.51100000000E-03 0. -1.
         11    1    4    4    0    0 -0.10534878928E-01  0.20631053272E-01 -0.41261311052E-01  0.47322097839E-01  0.51100000000E-03 0.  1.
</event>
<event>
 8    1  0.1061722E+005  0.1043930E+01  0.7957747E-01            NaN
         13   -1    0    0    0    0  0.00000000000E+00  0.00000000000E+00  0.74505805969E-08  0.10566000000E+00  0.10566000000E+00 0.  1.
     999900   -1    0    0    0    0 -0.00000000000E+00 -0.00000000000E+00 -0.74505805969E-08  0.93827000000E+00  0.93827000000E+00 0. -1.
     999902    2    1    2    0    0  0.22346992361E-01 -0.10462301629E-01  0.14250072657E-02  0.10192140442E+01  0.10189143190E+01 0.  0.
     999903    2    3    3    0    0 -0.90851680051E-01  0.13985432824E-01  0.86097982011E-01  0.12759689333E+00  0.20456895723E-01 0.  0.
         14    1    1    2    0    0 -0.22346992361E-01  0.10462301629E-01 -0.14250072657E-02  0.24715955751E-01  0.00000000000E+00 0.  1.
     999901    1    3    3    0    0  0.11319867241E+00 -0.24447734454E-01 -0.84672974745E-01  0.89161715092E+00  0.88000000000E+00 0. -1.
        -11    1    4    4    0    0 -0.55297770990E-01 -0.14225084869E-03  0.57911664218E-01  0.80074251075E-01  0.51100000000E-03 0.  1.
         11    1    4    4    0    0 -0.35553909060E-01  0.14127683673E-01  0.28186317793E-01  0.47522642258E-01  0.51100000000E-03 0. -1.
</event>
<event>
 8    1  0.1061722E+005  0.1043930E+01  0.7957747E-01            NaN
         13   -1    0    0    0    0  0.00000000000E+00  0.00000000000E+00  0.74505805969E-08  0.10566000000E+00  0.10566000000E+00 0.  1.
     999900   -1    0    0    0    0 -0.00000000000E+00 -0.00000000000E+00 -0.74505805969E-08  0.93827000000E+00  0.93827000000E+00 0. -1.
     999902    2    1    2    0    0  0.15537157884E-01  0.49447589941E-02 -0.16942438234E-01  0.10204161715E+01  0.10201452166E+01 0.  0.
     999903    2    3    3    0    0  0.91809527566E-01 -0.11531126710E-02 -0.95080940227E-01  0.13364659383E+00  0.19766330649E-01 0.  0.
         14    1    1    2    0    0 -0.15537157884E-01 -0.49447589941E-02  0.16942438234E-01  0.23513828483E-01  0.00000000000E+00 0.  1.
     999901    1    3    3    0    0 -0.76272369682E-01  0.60978716651E-02  0.78138501994E-01  0.88676957769E+00  0.88000000000E+00 0.  1.
        -11    1    4    4    0    0  0.49782965002E-01  0.71388551333E-02 -0.42684261514E-01  0.65966007602E-01  0.51100000000E-03 0. -1.
         11    1    4    4    0    0  0.42026562564E-01 -0.82919678043E-02 -0.52396678714E-01  0.67680586229E-01  0.51100000000E-03 0.  1.
</event>
<event>
 8    1  0.1061722E+005  0.1043930E+01  0.7957747E-01            NaN
         13   -1    0    0    0    0  0.00000000000E+00  0.00000000000E+00  0.74505805969E-08  0.10566000000E+00  0.10566000000E+00 0. -1.
     999900   -1    0    0    0    0 -0.00000000000E+00 -0.00000000000E+00 -0.74505805969E-08  0.93827000000E+00  0.93827000000E+00 0.  1.
     999902    2    1    2    0    0 -0.16483803209E-02  0.10474068439E-01 -0.21494504835E-01  0.10199625845E+01  0.10196809485E+01 0.  0.
     999903    2    3    3    0    0 -0.41511122339E-02  0.13000070866E+00  0.18493541749E-02  0.13157200760E+00  0.19757456493E-01 0.  0.
         14    1    1    2    0    0  0.16483803209E-02 -0.10474068439E-01  0.21494504835E-01  0.23967415494E-01  0.00000000000E+00 0. -1.
     999901    1    3    3    0    0  0.25027319130E-02 -0.11952664022E+00 -0.23343859010E-01  0.88839057691E+00  0.88000000000E+00 0. -1.
        -11    1    4    4    0    0 -0.42264294090E-02  0.40645749775E-01 -0.81009703746E-02  0.41663251461E-01  0.51100000000E-03 0. -1.
         11    1    4    4    0    0  0.75317175056E-04  0.89354958885E-01  0.99503245495E-02  0.89908756135E-01  0.51100000000E-03 0.  1.
</event>
<event>
 8    1  0.1061722E+005  0.1043930E+01  0.7957747E-01            NaN
         13   -1    0    0    0    0  0.00000000000E+00  0.00000000000E+00  0.74505805969E-08  0.10566000000E+00  0.10566000000E+00 0.  1.
     999900   -1    0    0    0    0 -0.00000000000E+00 -0.00000000000E+00 -0.74505805969E-08  0.93827000000E+00  0.93827000000E+00 0.  1.
     999902    2    1    2    0    0  0.65234922782E-02 -0.30811610667E-02  0.21734972026E-01  0.10210289408E+01  0.10207720800E+01 0.  0.
     999903    2    3    3    0    0  0.26729431751E-01  0.93944393105E-01 -0.82454213516E-01  0.12935768714E+00  0.19867118038E-01 0.  0.
         14    1    1    2    0    0 -0.65234922782E-02  0.30811610667E-02 -0.21734972026E-01  0.22901059233E-01  0.00000000000E+00 0. -1.
     999901    1    3    3    0    0 -0.20205939473E-01 -0.97025554172E-01  0.10418918554E+00  0.89167125362E+00  0.88000000000E+00 0. -1.
        -11    1    4    4    0    0  0.10193936440E-01  0.11963611443E-01 -0.16981165894E-01  0.23144447607E-01  0.51100000000E-03 0. -1.
         11    1    4    4    0    0  0.16535495311E-01  0.81980781662E-01 -0.65473047622E-01  0.10621323954E+00  0.51100000000E-03 0.  1.
</event>
<event>
 8    1  0.1061722E+005  0.1043930E+01  0.7957747E-01            NaN
         13   -1    0    0    0    0  0.00000000000E+00  0.00000000000E+00  0.74505805969E-08  0.10566000000E+00  0.10566000000E+00 0.  1.
     999900   -1    0    0    0    0 -0.00000000000E+00 -0.00000000000E+00 -0.74505805969E-08  0.93827000000E+00  0.93827000000E+00 0.  1.
     999902    2    1    2    0    0 -0.22579969885E-01 -0.57128351958E-03  0.86621056692E-04  0.10213426383E+01  0.10210928439E+01 0.  0.
     999903    2    3    3    0    0 -0.50605854958E-01  0.83560016496E-01  0.87525313394E-01  0.13257436098E+00  0.19288644095E-01 0.  0.
         14    1    1    2    0    0  0.22579969885E-01  0.57128351958E-03 -0.86621056692E-04  0.22587361689E-01  0.00000000000E+00 0. -1.
     999901    1    3    3    0    0  0.28025885073E-01 -0.84131300016E-01 -0.87438692337E-01  0.88876827733E+00  0.88000000000E+00 0.  1.
        -11    1    4    4    0    0 -0.79356307587E-02  0.29300009748E-01  0.30525314571E-01  0.43052534855E-01  0.51100000000E-03 0.  1.
         11    1    4    4    0    0 -0.42670224199E-01  0.54260006748E-01  0.56999998823E-01  0.89521826123E-01  0.51100000000E-03 0. -1.
</event>
<event>
 8    1  0.1061722E+005  0.1043930E+01  0.7957747E-01            NaN
         13   -1    0    0    0    0  0.00000000000E+00  0.00000000000E+00  0.74505805969E-08  0.10566000000E+00  0.10566000000E+00 0. -1.
     999900   -1    0    0    0    0 -0.00000000000E+00 -0.00000000000E+00 -0.74505805969E-08  0.93827000000E+00  0.93827000000E+00 0. -1.
     999902    2    1    2    0    0  0.33535334995E-02  0.76466225312E-02  0.20794415562E-01  0.10215218599E+01  0.10212760575E+01 0.  0.
     999903    2    3    3    0    0  0.11032840683E+00 -0.79161338572E-02  0.72012905267E-01  0.13342887121E+00  0.19554606101E-01 0.  0.
         14    1    1    2    0    0 -0.33535334995E-02 -0.76466225312E-02 -0.20794415562E-01  0.22408140075E-01  0.00000000000E+00 0.  1.
     999901    1    3    3    0    0 -0.10697487333E+00  0.15562756388E-01 -0.51218489704E-01  0.88809298871E+00  0.88000000000E+00 0. -1.
        -11    1    4    4    0    0  0.80888689613E-01 -0.53187297364E-02  0.62553327384E-01  0.10239359785E+00  0.51100000000E-03 0. -1.
         11    1    4    4    0    0  0.29439717215E-01 -0.25974041208E-02  0.94595778833E-02  0.31035273361E-01  0.51100000000E-03 0.  1.
</event>
<event>
 8    1  0.1061722E+005  0.1043930E+01  0.7957747E-01            NaN
         13   -1    0    0    0    0  0.00000000000E+00  0.00000000000E+00  0.74505805969E-08  0.10566000000E+00  0.10566000000E+00 0. -1.
     999900   -1    0    0    0    0 -0.00000000000E+00 -0.00000000000E+00 -0.74505805969E-08  0.93827000000E+00  0.93827000000E+00 0.  1.
     999902    2    1    2    0    0 -0.14725060613E-01  0.12511496808E-01  0.70939375308E-02  0.10233462950E+01  0.10231392625E+01 0.  0.
     999903    2    3    3    0    0 -0.19371096504E-01 -0.80638593879E-01 -0.10074248081E+00  0.13187155156E+00  0.19058763585E-01 0.  0.
         14    1    1    2    0    0  0.14725060613E-01 -0.12511496808E-01 -0.70939375308E-02  0.20583705015E-01  0.00000000000E+00 0. -1.
     999901    1    3    3    0    0  0.46460358908E-02  0.93150090687E-01  0.10783641834E+00  0.89147474342E+00  0.88000000000E+00 0. -1.
        -11    1    4    4    0    0  0.18547664053E-03 -0.23060625899E-01 -0.18391187296E-01  0.29501250136E-01  0.51100000000E-03 0.  1.
         11    1    4    4    0    0 -0.19556573145E-01 -0.57577967980E-01 -0.82351293510E-01  0.10237030142E+00  0.51100000000E-03 0. -1.
</event>
<event>
 8    1  0.1061722E+005  0.1043930E+01  0.7957747E-01            NaN
         13   -1    0    0    0    0  0.00000000000E+00  0.00000000000E+00  0.74505805969E-08  0.10566000000E+00  0.10566000000E+00 0.  1.
     999900   -1    0    0    0    0 -0.00000000000E+00 -0.00000000000E+00 -0.74505805969E-08  0.93827000000E+00  0.93827000000E+00 0.  1.
     999902    2    1    2    0    0  0.10482363196E-01 -0.22953662137E-01 -0.30947431780E-02  0.10185070187E+01  0.10181896774E+01 0.  0.
     999903    2    3    3    0    0 -0.55732058350E-01  0.10209093705E+00 -0.44604243926E-01  0.12623825869E+00  0.20443522809E-01 0.  0.
         14    1    1    2    0    0 -0.10482363196E-01  0.22953662137E-01  0.30947431780E-02  0.25422981316E-01  0.00000000000E+00 0.  1.
     999901    1    3    3    0    0  0.66214421547E-01 -0.12504459919E+00  0.41509500748E-01  0.89226875999E+00  0.88000000000E+00 0.  1.
        -11    1    4    4    0    0 -0.19411544978E-01  0.28070861558E-01 -0.22475365792E-01  0.40867891254E-01  0.51100000000E-03 0.  1.
         11    1    4    4    0    0 -0.36320513372E-01  0.74020075495E-01 -0.22128878134E-01  0.85370367437E-01  0.51100000000E-03 0. -1.
</event>
<event>
 8    1  0.1061722E+005  0.1043930E+01  0.7957747E-01            NaN
         13   -1    0    0    0    0  0.00000000000E+00  0.00000000000E+00  0.74505805969E-08  0.10566000000E+00  0.10566000000E+00 0. -1.
     999900   -1    0    0    0    0 -0.00000000000E+00 -0.00000000000E+00 -0.74505805969E-08  0.93827000000E+00  0.93827000000E+00 0.  1.
     999902    2    1    2    0    0 -0.10015696687E-01  0.18069924183E-02  0.21580377904E-01  0.10200701569E+01  0.10197910732E+01 0.  0.
     999903    2    3    3    0    0  0.25443897500E-01  0.54519686225E-01  0.11650080744E+00  0.13268867251E+00  0.20348404682E-01 0.  0.
         14    1    1    2    0    0  0.10015696687E-01 -0.18069924183E-02 -0.21580377904E-01  0.23859843088E-01  0.00000000000E+00 0.  1.
     999901    1    3    3    0    0 -0.35459594187E-01 -0.52712693807E-01 -0.94920429537E-01  0.88738148440E+00  0.88000000000E+00 0.  1.
        -11    1    4    4    0    0  0.26224544223E-01  0.43719804489E-01  0.82315933242E-01  0.96826246497E-01  0.51100000000E-03 0. -1.
         11    1    4    4    0    0 -0.78064672276E-03  0.10799881736E-01  0.34184874199E-01  0.35862426017E-01  0.51100000000E-03 0.  1.
</event>
<event>
 8    1  0.1061722E+005  0.1043930E+01  0.7957747E-01            NaN
         13   -1    0    0    0    0  0.00000000000E+00  0.00000000000E+00  0.74505805969E-08  0.10566000000E+00  0.10566000000E+00 0. -1.
     999900   -1    0    0    0    0 -0.00000000000E+00 -0.00000000000E+00 -0.74505805969E-08  0.93827000000E+00  0.93827000000E+00 0.  1.
     999902    2    1    2    0    0  0.13850733788E-01  0.19495317705E-01  0.26504276278E-02  0.10198689317E+01  0.10195850641E+01 0.  0.
     999903    2    3    3    0    0  0.88182907628E-01  0.97431184133E-01  0.81513279577E-02  0.13328586669E+00  0.20727210909E-01 0.  0.
         14    1    1    2    0    0 -0.13850733788E-01 -0.19495317705E-01 -0.26504276278E-02  0.24061068253E-01  0.00000000000E+00 0.  1.
     999901    1    3    3    0    0 -0.74332173840E-01 -0.77935866428E-01 -0.55009003300E-02  0.88658306506E+00  0.88000000000E+00 0.  1.
        -11    1    4    4    0    0  0.76365610293E-01  0.87204830999E-01  0.13635713864E-01  0.11671582069E+00  0.51100000000E-03 0.  1.
         11    1    4    4    0    0  0.11817297335E-01  0.10226353134E-01 -0.54843859063E-02  0.16570046001E-01  0.51100000000E-03 0. -1.
</event>
<event>
 8    1  0.1061722E+005  0.1043930E+01  0.7957747E-01            NaN
         13   -1    0    0    0    0  0.00000000000E+00  0.00000000000E+00  0.74505805969E-08  0.10566000000E+00  0.10566000000E+00 0.  1.
     999900   -1    0    0    0    0 -0.00000000000E+00 -0.00000000000E+00 -0.74505805969E-08  0.93827000000E+00  0.93827000000E+00 0. -1.
     999902    2    1    2    0    0 -0.19322622884E-02  0.23040800020E-01 -0.58595224061E-02  0.10200774088E+01  0.10197984967E+01 0.  0.
     999903    2    3    3    0    0 -0.11724241073E+00  0.46067100381E-01  0.31327685866E-01  0.13147765117E+00  0.20904263742E-01 0.  0.
         14    1    1    2    0    0  0.19322622884E-02 -0.23040800020E-01  0.58595224061E-02  0.23852591178E-01  0.00000000000E+00 0.  1.
     999901    1    3    3    0    0  0.11531014845E+00 -0.23026300362E-01 -0.37187208272E-01  0.88859975765E+00  0.88000000000E+00 0. -1.
        -11    1    4    4    0    0 -0.17881298999E-01  0.15368331022E-01  0.36837329257E-02  0.23869592824E-01  0.51100000000E-03 0. -1.
         11    1    4    4    0    0 -0.99361111735E-01  0.30698769359E-01  0.27643952941E-01  0.10760805834E+00  0.51100000000E-03 0.  1.
</event>
<event>
 8    1  0.1061722E+005  0.1043930E+01  0.7957747E-01            NaN
         13   -1    0    0    0    0  0.00000000000E+00  0.00000000000E+00  0.74505805969E-08  0.10566000000E+00  0.10566000000E+00 0.  1.
     999900   -1    0    0    0    0 -0.00000000000E+00 -0.00000000000E+00 -0.74505805969E-08  0.93827000000E+00  0.93827000000E+00 0.  1.
     999902    2    1    2    0    0  0.12064644804E-01 -0.11540578399E-01 -0.17435575294E-01  0.10197899940E+01  0.10195042383E+01 0.  0.
     999903    2    3    3    0    0  0.16681874280E-01  0.10913529999E-01  0.12493546202E+00  0.12805291500E+00  0.19781033898E-01 0.  0.
         14    1    1    2    0    0 -0.12064644804E-01  0.11540578399E-01  0.17435575294E-01  0.24140006004E-01  0.00000000000E+00 0.  1.
     999901    1    3    3    0    0 -0.46172294759E-02 -0.22454108398E-01 -0.14237103732E+00  0.89173707900E+00  0.88000000000E+00 0.  1.
        -11    1    4    4    0    0  0.20633113197E-01  0.55338592258E-02  0.97177485871E-01  0.99499114766E-01  0.51100000000E-03 0.  1.
         11    1    4    4    0    0 -0.39512389167E-02  0.53796707731E-02  0.27757976153E-01  0.28553800233E-01  0.51100000000E-03 0. -1.
</event>
<event>
 8    1  0.1061722E+005  0.1043930E+01  0.7957747E-01            NaN
         13   -1    0    0    0    0  0.00000000000E+00  0.00000000000E+00  0.74505805969E-08  0.10566000000E+00  0.10566000000E+00 0.  1.
     999900   -1    0    0    0    0 -0.00000000000E+00 -0.00000000000E+00 -0.74505805969E-08  0.93827000000E+00  0.93827000000E+00 0.  1.
     999902    2    1    2    0    0 -0.21490601161E-02 -0.48988668342E-02  0.28702469961E-01  0.10147332684E+01  0.10143131453E+01 0.  0.
     999903    2    3    3    0    0 -0.76327600279E-01  0.31070821742E-01  0.96257311219E-01  0.12830226097E+00  0.20117198574E-01 0.  0.
         14    1    1    2    0    0  0.21490601161E-02  0.48988668342E-02 -0.28702469961E-01  0.29196731623E-01  0.00000000000E+00 0. -1.
     999901    1    3    3    0    0  0.74178540163E-01 -0.35969688576E-01 -0.67554841259E-01  0.88643100741E+00  0.88000000000E+00 0.  1.
        -11    1    4    4    0    0 -0.74190212530E-01  0.29041554615E-01  0.84367503646E-01  0.11604195932E+00  0.51100000000E-03 0.  1.
         11    1    4    4    0    0 -0.21373877494E-02  0.20292671262E-02  0.11889807573E-01  0.12260301652E-01  0.51100000000E-03 0. -1.
</event>
<event>
 8    1  0.1061722E+005  0.1043930E+01  0.7957747E-01            NaN
         13   -1    0    0    0    0  0.00000000000E+00  0.00000000000E+00  0.74505805969E-08  0.10566000000E+00  0.10566000000E+00 0.  1.
     999900   -1    0    0    0    0 -0.00000000000E+00 -0.00000000000E+00 -0.74505805969E-08  0.93827000000E+00  0.93827000000E+00 0. -1.
     999902    2    1    2    0    0  0.94070444839E-03 -0.23789623357E-01  0.14061455263E-02  0.10200802967E+01  0.10198014529E+01 0.  0.
     999903    2    3    3    0    0  0.80730895692E-01 -0.85043907557E-01 -0.58102660727E-01  0.13235293988E+00  0.19784786554E-01 0.  0.
         14    1    1    2    0    0 -0.94070444839E-03  0.23789623357E-01 -0.14061455263E-02  0.23849703344E-01  0.00000000000E+00 0.  1.
     999901    1    3    3    0    0 -0.79790191244E-01  0.61254284200E-01  0.59508806253E-01  0.88772735678E+00  0.88000000000E+00 0.  1.
        -11    1    4    4    0    0  0.66007817974E-01 -0.77415731536E-01 -0.54347286972E-01  0.11534347075E+00  0.51100000000E-03 0. -1.
         11    1    4    4    0    0  0.14723077718E-01 -0.76281760206E-02 -0.37553737550E-02  0.17009469125E-01  0.51100000000E-03 0.  1.
</event>
<event>
 8    1  0.1061722E+005  0.1043930E+01  0.7957747E-01            NaN
         13   -1    0    0    0    0  0.00000000000E+00  0.00000000000E+00  0.74505805969E-08  0.10566000000E+00  0.10566000000E+00 0.  1.
     999900   -1    0    0    0    0 -0.00000000000E+00 -0.00000000000E+00 -0.74505805969E-08  0.93827000000E+00  0.93827000000E+00 0.  1.
     999902    2    1    2    0    0  0.12695701112E-01  0.23817293960E-01  0.33487728637E-02  0.10167333348E+01  0.10163695270E+01 0.  0.
     999903    2    3    3    0    0 -0.98451824113E-01  0.39849337724E-01  0.67455976415E-01  0.12728376774E+00  0.19238435192E-01 0.  0.
         14    1    1    2    0    0 -0.12695701112E-01 -0.23817293960E-01 -0.33487728637E-02  0.27196665200E-01  0.00000000000E+00 0.  1.
     999901    1    3    3    0    0  0.11114752522E+00 -0.16032043764E-01 -0.64107203552E-01  0.88944956706E+00  0.88000000000E+00 0.  1.
        -11    1    4    4    0    0 -0.33624153618E-01  0.75985620980E-02  0.13681942783E-01  0.37091488670E-01  0.51100000000E-03 0. -1.
         11    1    4    4    0    0 -0.64827670495E-01  0.32250775626E-01  0.53774033632E-01  0.90192279073E-01  0.51100000000E-03 0.  1.
</event>
<event>
 8    1  0.1187908E+005  0.1043930E+01  0.7957747E-01            NaN
         13   -1    0    0    0    0  0.00000000000E+00  0.00000000000E+00  0.74505805969E-08  0.10566000000E+00  0.10566000000E+00 0.  1.
     999900   -1    0    0    0    0 -0.00000000000E+00 -0.00000000000E+00 -0.74505805969E-08  0.93827000000E+00  0.93827000000E+00 0. -1.
     999902    2    1    2    0    0  0.12146336631E-01 -0.14584943605E-01  0.15216593982E-01  0.10196030847E+01  0.10193128330E+01 0.  0.
     999903    2    3    3    0    0 -0.13067390842E-01 -0.17262738771E-01 -0.12477215201E+00  0.12817739987E+00  0.19814062367E-01 0.  0.
         14    1    1    2    0    0 -0.12146336631E-01  0.14584943605E-01 -0.15216593982E-01  0.24326915257E-01  0.00000000000E+00 0. -1.
     999901    1    3    3    0    0  0.25213727472E-01  0.26777951655E-02  0.13998874599E+00  0.89142568487E+00  0.88000000000E+00 0.  1.
        -11    1    4    4    0    0 -0.18021160025E-01 -0.12657838195E-01 -0.83763092596E-01  0.86611199499E-01  0.51100000000E-03 0. -1.
         11    1    4    4    0    0  0.49537691830E-02 -0.46049005760E-02 -0.41009059416E-01  0.41566200375E-01  0.51100000000E-03 0.  1.
</event>
<event>
 8    1  0.1061722E+005  0.1043930E+01  0.7957747E-01            NaN
         13   -1    0    0    0    0  0.00000000000E+00  0.00000000000E+00  0.74505805969E-08  0.10566000000E+00  0.10566000000E+00 0.  1.
     999900   -1    0    0    0    0 -0.00000000000E+00 -0.00000000000E+00 -0.74505805969E-08  0.93827000000E+00  0.93827000000E+00 0.  1.
     999902    2    1    2    0    0 -0.45173861656E-02  0.10971488838E-01 -0.22151751793E-01  0.10188007252E+01  0.10184907644E+01 0.  0.
     999903    2    3    3    0    0 -0.85224838203E-01  0.68861604965E-01  0.65053677640E-01  0.12893009117E+00  0.19641633089E-01 0.  0.
         14    1    1    2    0    0  0.45173861656E-02 -0.10971488838E-01  0.22151751793E-01  0.25129274812E-01  0.00000000000E+00 0.  1.
     999901    1    3    3    0    0  0.80707452037E-01 -0.57890116127E-01 -0.87205429433E-01  0.88987063401E+00  0.88000000000E+00 0.  1.
        -11    1    4    4    0    0 -0.55845331030E-01  0.49885848623E-01  0.53725853534E-01  0.92163047637E-01  0.51100000000E-03 0.  1.
         11    1    4    4    0    0 -0.29379507172E-01  0.18975756342E-01  0.11327824106E-01  0.36767043536E-01  0.51100000000E-03 0. -1.
</event>
<event>
 8    1  0.1061722E+005  0.1043930E+01  0.7957747E-01            NaN
         13   -1    0    0    0    0  0.00000000000E+00  0.00000000000E+00  0.74505805969E-08  0.10566000000E+00  0.10566000000E+00 0.  1.
     999900   -1    0    0    0    0 -0.00000000000E+00 -0.00000000000E+00 -0.74505805969E-08  0.93827000000E+00  0.93827000000E+00 0.  1.
     999902    2    1    2    0    0  0.15850582144E-01 -0.14596047889E-01 -0.29086804823E-02  0.10221872773E+01  0.10219560088E+01 0.  0.
     999903    2    3    3    0    0  0.59623532796E-01 -0.92516643391E-01 -0.74778980247E-01  0.13474543109E+00  0.21216511162E-01 0.  0.
         14    1    1    2    0    0 -0.15850582144E-01  0.14596047889E-01  0.29086804823E-02  0.21742722700E-01  0.00000000000E+00 0.  1.
     999901    1    3    3    0    0 -0.43772950652E-01  0.77920595502E-01  0.71870299765E-01  0.88744184621E+00  0.88000000000E+00 0.  1.
        -11    1    4    4    0    0  0.31900257385E-01 -0.30445558073E-01 -0.30224071548E-01  0.53463202762E-01  0.51100000000E-03 0. -1.
         11    1    4    4    0    0  0.27723275410E-01 -0.62071085318E-01 -0.44554908699E-01  0.81282228330E-01  0.51100000000E-03 0.  1.
</event>
<event>
 8    1  0.1061722E+005  0.1043930E+01  0.7957747E-01            NaN
         13   -1    0    0    0    0  0.00000000000E+00  0.00000000000E+00  0.74505805969E-08  0.10566000000E+00  0.10566000000E+00 0.  1.
     999900   -1    0    0    0    0 -0.00000000000E+00 -0.00000000000E+00 -0.74505805969E-08  0.93827000000E+00  0.93827000000E+00 0.  1.
     999902    2    1    2    0    0  0.18359918090E-01 -0.12966477307E-01  0.60981918728E-02  0.10206404300E+01  0.10203746779E+01 0.  0.
     999903    2    3    3    0    0  0.27959333166E-02  0.12741815426E+00 -0.85420776794E-02  0.12925699967E+00  0.19778816782E-01 0.  0.
         14    1    1    2    0    0 -0.18359918090E-01  0.12966477307E-01 -0.60981918728E-02  0.23289569987E-01  0.00000000000E+00 0.  1.
     999901    1    3    3    0    0  0.15563984774E-01 -0.14038463157E+00  0.14640269552E-01  0.89138343035E+00  0.88000000000E+00 0.  1.
        -11    1    4    4    0    0  0.35198664146E-02  0.83347799673E-01 -0.14829877281E-01  0.84731526312E-01  0.51100000000E-03 0.  1.
         11    1    4    4    0    0 -0.72393309804E-03  0.44070354589E-01  0.62877996020E-02  0.44525473356E-01  0.51100000000E-03 0. -1.
</event>
<event>
 8    1  0.1061722E+005  0.1043930E+01  0.7957747E-01            NaN
         13   -1    0    0    0    0  0.00000000000E+00  0.00000000000E+00  0.74505805969E-08  0.10566000000E+00  0.10566000000E+00 0.  1.
     999900   -1    0    0    0    0 -0.00000000000E+00 -0.00000000000E+00 -0.74505805969E-08  0.93827000000E+00  0.93827000000E+00 0. -1.
     999902    2    1    2    0    0  0.61017027681E-02  0.72989694389E-02  0.22876962233E-01  0.10191537789E+01  0.10188525722E+01 0.  0.
     999903    2    3    3    0    0  0.86000576210E-01 -0.41937251693E-01  0.88465460093E-01  0.13173624103E+00  0.19325304214E-01 0.  0.
         14    1    1    2    0    0 -0.61017027681E-02 -0.72989694389E-02 -0.22876962233E-01  0.24776221112E-01  0.00000000000E+00 0. -1.
     999901    1    3    3    0    0 -0.79898873442E-01  0.49236221132E-01 -0.65588497860E-01  0.88741753786E+00  0.88000000000E+00 0. -1.
        -11    1    4    4    0    0  0.10923591763E-01 -0.29437533135E-03  0.16030189940E-01  0.19407205475E-01  0.51100000000E-03 0.  1.
         11    1    4    4    0    0  0.75076984448E-01 -0.41642876361E-01  0.72435270154E-01  0.11232903555E+00  0.51100000000E-03 0. -1.
</event>
<event>
 8    1  0.1061722E+005  0.1043930E+01  0.7957747E-01            NaN
         13   -1    0    0    0    0  0.00000000000E+00  0.00000000000E+00  0.74505805969E-08  0.10566000000E+00  0.10566000000E+00 0. -1.
     999900   -1    0    0    0    0 -0.00000000000E+00 -0.00000000000E+00 -0.74505805969E-08  0.93827000000E+00  0.93827000000E+00 0.  1.
     999902    2    1    2    0    0  0.17132051087E-01  0.73972393773E-02 -0.14663356831E-01  0.10201973146E+01  0.10199212324E+01 0.  0.
     999903    2    3    3    0    0 -0.21395778318E-01 -0.39336253624E-02 -0.12864059959E+00  0.13193857184E+00  0.19650194365E-01 0.  0.
         14    1    1    2    0    0 -0.17132051087E-01 -0.73972393773E-02  0.14663356831E-01  0.23732685445E-01  0.00000000000E+00 0. -1.
     999901    1    3    3    0    0  0.38527829405E-01  0.11330864740E-01  0.11397724276E+00  0.88825874271E+00  0.88000000000E+00 0. -1.
        -11    1    4    4    0    0 -0.70346692359E-02  0.53175717734E-02 -0.77852972211E-01  0.78352469929E-01  0.51100000000E-03 0. -1.
         11    1    4    4    0    0 -0.14361109082E-01 -0.92511971358E-02 -0.50787627382E-01  0.53586101916E-01  0.51100000000E-03 0.  1.
</event>
<event>
 8    1  0.1061722E+005  0.1043930E+01  0.7957747E-01            NaN
         13   -1    0    0    0    0  0.00000000000E+00  0.00000000000E+00  0.74505805969E-08  0.10566000000E+00  0.10566000000E+00 0. -1.
     999900   -1    0    0    0    0 -0.00000000000E+00 -0.00000000000E+00 -0.74505805969E-08  0.93827000000E+00  0.93827000000E+00 0.  1.
     999902    2    1    2    0    0  0.22715079138E-01 -0.44172860155E-02 -0.74215490132E-02  0.10196284234E+01  0.10193387833E+01 0.  0.
     999903    2    3    3    0    0 -0.25200469531E-01 -0.58683347542E-01 -0.11182243356E+00  0.13050511927E+00  0.21178540177E-01 0.  0.
         14    1    1    2    0    0 -0.22715079138E-01  0.44172860155E-02  0.74215490132E-02  0.24301576610E-01  0.00000000000E+00 0. -1.
     999901    1    3    3    0    0  0.47915548668E-01  0.54266061527E-01  0.10440088455E+00  0.88912330412E+00  0.88000000000E+00 0. -1.
        -11    1    4    4    0    0 -0.19766102455E-04 -0.19115317948E-01 -0.44703615120E-01  0.48621703968E-01  0.51100000000E-03 0.  1.
         11    1    4    4    0    0 -0.25180703428E-01 -0.39568029594E-01 -0.67118818443E-01  0.81883415300E-01  0.51100000000E-03 0. -1.
</event>
<event>
 8    1  0.1061722E+005  0.1043930E+01  0.7957747E-01            NaN
         13   -1    0    0    0    0  0.00000000000E+00  0.00000000000E+00  0.74505805969E-08  0.10566000000E+00  0.10566000000E+00 0.  1.
     999900   -1    0    0    0    0 -0.00000000000E+00 -0.00000000000E+00 -0.74505805969E-08  0.93827000000E+00  0.93827000000E+00 0. -1.
     999902    2    1    2    0    0 -0.11611046806E-01  0.17598715457E-01  0.11114851380E-01  0.10200957575E+01  0.10198172794E+01 0.  0.
     999903    2    3    3    0    0  0.11348067896E+00  0.26833854849E-01 -0.51512768361E-01  0.12899786928E+00  0.19722188352E-01 0.  0.
         14    1    1    2    0    0  0.11611046806E-01 -0.17598715457E-01 -0.11114851380E-01  0.23834242485E-01  0.00000000000E+00 0. -1.
     999901    1    3    3    0    0 -0.12509172576E+00 -0.92351393920E-02  0.62627619741E-01  0.89109788823E+00  0.88000000000E+00 0.  1.
        -11    1    4    4    0    0  0.45466340580E-01  0.18805575358E-01 -0.15320092633E-01  0.51534494754E-01  0.51100000000E-03 0.  1.
         11    1    4    4    0    0  0.68014338376E-01  0.80282794913E-02 -0.36192675728E-01  0.77463374531E-01  0.51100000000E-03 0. -1.
</event>
<event>
 8    1  0.1061722E+005  0.1043930E+01  0.7957747E-01            NaN
         13   -1    0    0    0    0  0.00000000000E+00  0.00000000000E+00  0.74505805969E-08  0.10566000000E+00  0.10566000000E+00 0.  1.
     999900   -1    0    0    0    0 -0.00000000000E+00 -0.00000000000E+00 -0.74505805969E-08  0.93827000000E+00  0.93827000000E+00 0. -1.
     999902    2    1    2    0    0 -0.72564696660E-02 -0.12228838880E-01  0.19681603692E-01  0.10196490120E+01  0.10193598684E+01 0.  0.
     999903    2    3    3    0    0 -0.11041264512E+00 -0.25411343873E-01 -0.60346985726E-01  0.12991896866E+00  0.20012274514E-01 0.  0.
         14    1    1    2    0    0  0.72564696660E-02  0.12228838880E-01 -0.19681603692E-01  0.24280987958E-01  0.00000000000E+00 0. -1.
     999901    1    3    3    0    0  0.10315617546E+00  0.13182504994E-01  0.80028589418E-01  0.88973004338E+00  0.88000000000E+00 0. -1.
        -11    1    4    4    0    0 -0.89138687062E-01 -0.13367479211E-01 -0.42544706584E-01  0.99673006431E-01  0.51100000000E-03 0. -1.
         11    1    4    4    0    0 -0.21273958059E-01 -0.12043864662E-01 -0.17802279142E-01  0.30245962228E-01  0.51100000000E-03 0.  1.
</event>
<event>
 8    1  0.1061722E+005  0.1043930E+01  0.7957747E-01            NaN
         13   -1    0    0    0    0  0.00000000000E+00  0.00000000000E+00  0.74505805969E-08  0.10566000000E+00  0.10566000000E+00 0.  1.
     999900   -1    0    0    0    0 -0.00000000000E+00 -0.00000000000E+00 -0.74505805969E-08  0.93827000000E+00  0.93827000000E+00 0. -1.
     999902    2    1    2    0    0  0.19219537522E-01 -0.13922234282E-01 -0.68604723381E-03  0.10201878457E+01  0.10199115406E+01 0.  0.
     999903    2    3    3    0    0 -0.55227588523E-01  0.61441897954E-01  0.96299291877E-01  0.12854426051E+00  0.20612615957E-01 0.  0.
         14    1    1    2    0    0 -0.19219537522E-01  0.13922234282E-01  0.68604723381E-03  0.23742154299E-01  0.00000000000E+00 0. -1.
     999901    1    3    3    0    0  0.74447126045E-01 -0.75364132236E-01 -0.96985339111E-01  0.89164358519E+00  0.88000000000E+00 0. -1.
        -11    1    4    4    0    0 -0.30430113726E-01  0.38686001410E-01  0.71192525855E-01  0.86551923058E-01  0.51100000000E-03 0.  1.
         11    1    4    4    0    0 -0.24797474797E-01  0.22755896544E-01  0.25106766022E-01  0.41992337455E-01  0.51100000000E-03 0. -1.
</event>
<event>
 8    1  0.1061722E+005  0.1043930E+01  0.7957747E-01            NaN
         13   -1    0    0    0    0  0.00000000000E+00  0.00000000000E+00  0.74505805969E-08  0.10566000000E+00  0.10566000000E+00 0. -1.
     999900   -1    0    0    0    0 -0.00000000000E+00 -0.00000000000E+00 -0.74505805969E-08  0.93827000000E+00  0.93827000000E+00 0.  1.
     999902    2    1    2    0    0  0.75125950733E-02 -0.12170841914E-02  0.27698213103E-01  0.10152052478E+01  0.10147987898E+01 0.  0.
     999903    2    3    3    0    0 -0.11339821578E-01 -0.12407562179E+00 -0.10148345763E-01  0.12566491940E+00  0.12858132429E-01 0.  0.
         14    1    1    2    0    0 -0.75125950733E-02  0.12170841914E-02 -0.27698213103E-01  0.28724752179E-01  0.00000000000E+00 0.  1.
     999901    1    3    3    0    0  0.18852416651E-01  0.12285853760E+00  0.37846558865E-01  0.88954032842E+00  0.88000000000E+00 0. -1.
        -11    1    4    4    0    0 -0.10556159484E-01 -0.10260483717E+00 -0.36478980511E-02  0.10321217658E+00  0.51100000000E-03 0. -1.
         11    1    4    4    0    0 -0.78366209399E-03 -0.21470784620E-01 -0.65004477117E-02  0.22452742815E-01  0.51100000000E-03 0.  1.
</event>
<event>
 8    1  0.1061722E+005  0.1043930E+01  0.7957747E-01            NaN
         13   -1    0    0    0    0  0.00000000000E+00  0.00000000000E+00  0.74505805969E-08  0.10566000000E+00  0.10566000000E+00 0. -1.
     999900   -1    0    0    0    0 -0.00000000000E+00 -0.00000000000E+00 -0.74505805969E-08  0.93827000000E+00  0.93827000000E+00 0.  1.
     999902    2    1    2    0    0  0.18640558880E-01 -0.12791382422E-01 -0.30986792756E-02  0.10211113297E+01  0.10208563346E+01 0.  0.
     999903    2    3    3    0    0 -0.10520239732E+00  0.70202493061E-01 -0.12712842103E-01  0.12852100192E+00  0.18976225837E-01 0.  0.
         14    1    1    2    0    0 -0.18640558880E-01  0.12791382422E-01  0.30986792756E-02  0.22818670270E-01  0.00000000000E+00 0.  1.
     999901    1    3    3    0    0  0.12384295620E+00 -0.82993875483E-01  0.96141628272E-02  0.89259032781E+00  0.88000000000E+00 0. -1.
        -11    1    4    4    0    0 -0.63180863916E-02  0.72366758008E-02  0.33672616771E-02  0.10192510216E-01  0.51100000000E-03 0. -1.
         11    1    4    4    0    0 -0.98884310929E-01  0.62965817260E-01 -0.16080103780E-01  0.11832849171E+00  0.51100000000E-03 0.  1.
</event>
<event>
 8    1  0.1061722E+005  0.1043930E+01  0.7957747E-01            NaN
         13   -1    0    0    0    0  0.00000000000E+00  0.00000000000E+00  0.74505805969E-08  0.10566000000E+00  0.10566000000E+00 0.  1.
     999900   -1    0    0    0    0 -0.00000000000E+00 -0.00000000000E+00 -0.74505805969E-08  0.93827000000E+00  0.93827000000E+00 0.  1.
     999902    2    1    2    0    0  0.19678867897E-01  0.12524229439E-01  0.47711661564E-02  0.10201207961E+01  0.10198429097E+01 0.  0.
     999903    2    3    3    0    0 -0.77260383027E-01  0.10270211413E+00 -0.33499377921E-03  0.13020206826E+00  0.20870441453E-01 0.  0.
         14    1    1    2    0    0 -0.19678867897E-01 -0.12524229439E-01 -0.47711661564E-02  0.23809203919E-01  0.00000000000E+00 0. -1.
     999901    1    3    3    0    0  0.96939250924E-01 -0.90177884690E-01  0.51061599356E-02  0.88991872782E+00  0.88000000000E+00 0.  1.
        -11    1    4    4    0    0 -0.74950287610E-01  0.91818665076E-01  0.30370201239E-02  0.11856516133E+00  0.51100000000E-03 0. -1.
         11    1    4    4    0    0 -0.23100954166E-02  0.10883449053E-01 -0.33720139032E-02  0.11636906929E-01  0.51100000000E-03 0.  1.
</event>
<event>
 8    1  0.1061722E+005  0.1043930E+01  0.7957747E-01            NaN
         13   -1    0    0    0    0  0.00000000000E+00  0.00000000000E+00  0.74505805969E-08  0.10566000000E+00  0.10566000000E+00 0. -1.
     999900   -1    0    0    0    0 -0.00000000000E+00 -0.00000000000E+00 -0.74505805969E-08  0.93827000000E+00  0.93827000000E+00 0.  1.
     999902    2    1    2    0    0 -0.10877784619E-01 -0.17877421687E-01 -0.78135902035E-02  0.10215921264E+01  0.10213478801E+01 0.  0.
     999903    2    3    3    0    0 -0.10566966439E+00 -0.69297125551E-01 -0.41549731226E-01  0.13436745722E+00  0.18975347524E-01 0.  0.
         14    1    1    2    0    0  0.10877784619E-01  0.17877421687E-01  0.78135902035E-02  0.22337873584E-01  0.00000000000E+00 0. -1.
     999901    1    3    3    0    0  0.94791879770E-01  0.51419703864E-01  0.33736141023E-01  0.88722466919E+00  0.88000000000E+00 0. -1.
        -11    1    4    4    0    0 -0.29718942511E-01 -0.11913487379E-01 -0.50534508378E-02  0.32418285147E-01  0.51100000000E-03 0. -1.
         11    1    4    4    0    0 -0.75950721878E-01 -0.57383638171E-01 -0.36496280389E-01  0.10194917208E+00  0.51100000000E-03 0.  1.
</event>
<event>
 8    1  0.1061722E+005  0.1043930E+01  0.7957747E-01            NaN
         13   -1    0    0    0    0  0.00000000000E+00  0.00000000000E+00  0.74505805969E-08  0.10566000000E+00  0.10566000000E+00 0.  1.
     999900   -1    0    0    0    0 -0.00000000000E+00 -0.00000000000E+00 -0.74505805969E-08  0.93827000000E+00  0.93827000000E+00 0.  1.
     999902    2    1    2    0    0 -0.21228731807E-01  0.99388155355E-03  0.10084942084E-01  0.10204065455E+01  0.10201353661E+01 0.  0.
     999903    2    3    3    0    0 -0.18357013305E-01  0.53111321050E-02 -0.12675978436E+00  0.12981496426E+00  0.20462012446E-01 0.  0.
         14    1    1    2    0    0  0.21228731807E-01 -0.99388155355E-03 -0.10084942084E-01  0.23523454498E-01  0.00000000000E+00 0. -1.
     999901    1    3    3    0    0 -0.28717185023E-02 -0.43172505515E-02  0.13684472645E+00  0.89059158124E+00  0.88000000000E+00 0. -1.
        -11    1    4    4    0    0 -0.19345615296E-01  0.10663202930E-01 -0.91261614021E-01  0.93898349520E-01  0.51100000000E-03 0. -1.
         11    1    4    4    0    0  0.98860199084E-03 -0.53520708247E-02 -0.35498170340E-01  0.35916614742E-01  0.51100000000E-03 0.  1.
</event>
<event>
 8    1  0.1061722E+005  0.1043930E+01  0.7957747E-01            NaN
         13   -1    0    0    0    0  0.00000000000E+00  0.00000000000E+00  0.74505805969E-08  0.10566000000E+00  0.10566000000E+00 0.  1.
     999900   -1    0    0    0    0 -0.00000000000E+00 -0.00000000000E+00 -0.74505805969E-08  0.93827000000E+00  0.93827000000E+00 0. -1.
     999902    2    1    2    0    0 -0.66813319294E-02 -0.74737003249E-02  0.17429147898E-01  0.10238234939E+01  0.10236260425E+01 0.  0.
     999903    2    3    3    0    0  0.95277854374E-01  0.84669521213E-01 -0.28412636259E-01  0.13197848595E+00  0.19085216749E-01 0.  0.
         14    1    1    2    0    0  0.66813319294E-02  0.74737003249E-02 -0.17429147898E-01  0.20106506145E-01  0.00000000000E+00 0. -1.
     999901    1    3    3    0    0 -0.10195918630E+00 -0.92143221538E-01  0.45841784158E-01  0.89184500790E+00  0.88000000000E+00 0.  1.
        -11    1    4    4    0    0  0.28950672944E-01  0.35213237599E-01 -0.42598436992E-02  0.45787781727E-01  0.51100000000E-03 0.  1.
         11    1    4    4    0    0  0.66327181430E-01  0.49456283614E-01 -0.24152792560E-01  0.86190704225E-01  0.51100000000E-03 0. -1.
</event>
<event>
 8    1  0.1061722E+005  0.1043930E+01  0.7957747E-01            NaN
         13   -1    0    0    0    0  0.00000000000E+00  0.00000000000E+00  0.74505805969E-08  0.10566000000E+00  0.10566000000E+00 0.  1.
     999900   -1    0    0    0    0 -0.00000000000E+00 -0.00000000000E+00 -0.74505805969E-08  0.93827000000E+00  0.93827000000E+00 0. -1.
     999902    2    1    2    0    0 -0.13716531608E-02 -0.17665188804E-01  0.12725561602E-01  0.10221153204E+01  0.10218825020E+01 0.  0.
     999903    2    3    3    0    0 -0.12673595293E+00 -0.34695988666E-01  0.92928898255E-02  0.13306074444E+00  0.18788041852E-01 0.  0.
         14    1    1    2    0    0  0.13716531608E-02  0.17665188804E-01 -0.12725561602E-01  0.21814679598E-01  0.00000000000E+00 0. -1.
     999901    1    3    3    0    0  0.12536429977E+00  0.17030799862E-01  0.34326717768E-02  0.88905457596E+00  0.88000000000E+00 0.  1.
        -11    1    4    4    0    0 -0.75526905295E-01 -0.14296931862E-01  0.12329206653E-01  0.77852335494E-01  0.51100000000E-03 0. -1.
         11    1    4    4    0    0 -0.51209047631E-01 -0.20399056804E-01 -0.30363168276E-02  0.55208408948E-01  0.51100000000E-03 0.  1.
</event>
<event>
 8    1  0.1061722E+005  0.1043930E+01  0.7957747E-01            NaN
         13   -1    0    0    0    0  0.00000000000E+00  0.00000000000E+00  0.74505805969E-08  0.10566000000E+00  0.10566000000E+00 0. -1.
     999900   -1    0    0    0    0 -0.00000000000E+00 -0.00000000000E+00 -0.74505805969E-08  0.93827000000E+00  0.93827000000E+00 0.  1.
     999902    2    1    2    0    0 -0.12108423786E-01  0.21104742698E-01  0.43537146223E-02  0.10192120122E+01  0.10189122371E+01 0.  0.
     999903    2    3    3    0    0 -0.37863668210E-01 -0.39289037571E-01  0.11583211813E+00  0.12975252701E+00  0.21008399083E-01 0.  0.
         14    1    1    2    0    0  0.12108423786E-01 -0.21104742698E-01 -0.43537146223E-02  0.24717987822E-01  0.00000000000E+00 0. -1.
     999901    1    3    3    0    0  0.25755244424E-01  0.60393780270E-01 -0.11147840350E+00  0.88945948517E+00  0.88000000000E+00 0.  1.
        -11    1    4    4    0    0 -0.34802948746E-01 -0.40343905590E-01  0.97314072643E-01  0.11094668005E+00  0.51100000000E-03 0. -1.
         11    1    4    4    0    0 -0.30607194642E-02  0.10548680188E-02  0.18518045483E-01  0.18805846955E-01  0.51100000000E-03 0.  1.
</event>
<event>
 8    1  0.1061722E+005  0.1043930E+01  0.7957747E-01            NaN
         13   -1    0    0    0    0  0.00000000000E+00  0.00000000000E+00  0.74505805969E-08  0.10566000000E+00  0.10566000000E+00 0. -1.
     999900   -1    0    0    0    0 -0.00000000000E+00 -0.00000000000E+00 -0.74505805969E-08  0.93827000000E+00  0.93827000000E+00 0. -1.
     999902    2    1    2    0    0 -0.70907615783E-02  0.61562427804E-02 -0.25552444936E-01  0.10167067440E+01  0.10163422148E+01 0.  0.
     999903    2    3    3    0    0  0.10867419666E+00  0.13122957977E-01 -0.63566033988E-01  0.12828393158E+00  0.20828667223E-01 0.  0.
         14    1    1    2    0    0  0.70907615783E-02 -0.61562427804E-02  0.25552444936E-01  0.27223255998E-01  0.00000000000E+00 0. -1.
     999901    1    3    3    0    0 -0.11576495824E+00 -0.69667151970E-02  0.38013589051E-01  0.88842281242E+00  0.88000000000E+00 0.  1.
        -11    1    4    4    0    0  0.68257837550E-01  0.10976221716E-01 -0.50965159626E-01  0.85891317645E-01  0.51100000000E-03 0.  1.
         11    1    4    4    0    0  0.40416359114E-01  0.21467362613E-02 -0.12600874362E-01  0.42392613936E-01  0.51100000000E-03 0. -1.
</event>
<event>
 8    1  0.1061722E+005  0.1043930E+01  0.7957747E-01            NaN
         13   -1    0    0    0    0  0.00000000000E+00  0.00000000000E+00  0.74505805969E-08  0.10566000000E+00  0.10566000000E+00 0. -1.
     999900   -1    0    0    0    0 -0.00000000000E+00 -0.00000000000E+00 -0.74505805969E-08  0.93827000000E+00  0.93827000000E+00 0.  1.
     999902    2    1    2    0    0  0.85883526435E-02 -0.11456648712E-01 -0.66005525612E-02  0.10281635199E+01  0.10280426264E+01 0.  0.
     999903    2    3    3    0    0  0.12478795544E+00 -0.42842857576E-01  0.38297280458E-01  0.13883610144E+00  0.20030903748E-01 0.  0.
         14    1    1    2    0    0 -0.85883526435E-02  0.11456648712E-01  0.66005525612E-02  0.15766480107E-01  0.00000000000E+00 0. -1.
     999901    1    3    3    0    0 -0.11619960280E+00  0.31386208864E-01 -0.44897833019E-01  0.88932741845E+00  0.88000000000E+00 0. -1.
        -11    1    4    4    0    0  0.64994802767E-01 -0.24269338849E-01  0.98958374706E-02  0.70082193995E-01  0.51100000000E-03 0.  1.
         11    1    4    4    0    0  0.59793152674E-01 -0.18573518727E-01  0.28401442988E-01  0.68753907448E-01  0.51100000000E-03 0. -1.
</event>
<event>
 8    1  0.1061722E+005  0.1043930E+01  0.7957747E-01            NaN
         13   -1    0    0    0    0  0.00000000000E+00  0.00000000000E+00  0.74505805969E-08  0.10566000000E+00  0.10566000000E+00 0. -1.
     999900   -1    0    0    0    0 -0.00000000000E+00 -0.00000000000E+00 -0.74505805969E-08  0.93827000000E+00  0.93827000000E+00 0.  1.
     999902    2    1    2    0    0 -0.21510219320E-01 -0.18592911293E-03  0.99990604883E-02  0.10202085895E+01  0.10199327727E+01 0.  0.
     999903    2    3    3    0    0  0.71095185839E-01  0.92115809157E-01 -0.50404603604E-01  0.12850013122E+00  0.20780084540E-01 0.  0.
         14    1    1    2    0    0  0.21510219320E-01  0.18592911293E-03 -0.99990604883E-02  0.23721410487E-01  0.00000000000E+00 0.  1.
     999901    1    3    3    0    0 -0.92605405159E-01 -0.92301738270E-01  0.60403664092E-01  0.89170845829E+00  0.88000000000E+00 0. -1.
        -11    1    4    4    0    0  0.28752227749E-01  0.49837231784E-01 -0.32289068377E-01  0.65979431114E-01  0.51100000000E-03 0. -1.
         11    1    4    4    0    0  0.42342958089E-01  0.42278577373E-01 -0.18115535227E-01  0.62520700108E-01  0.51100000000E-03 0.  1.
</event>
<event>
 8    1  0.1061722E+005  0.1043930E+01  0.7957747E-01            NaN
         13   -1    0    0    0    0  0.00000000000E+00  0.00000000000E+00  0.74505805969E-08  0.10566000000E+00  0.10566000000E+00 0.  1.
     999900   -1    0    0    0    0 -0.00000000000E+00 -0.00000000000E+00 -0.74505805969E-08  0.93827000000E+00  0.93827000000E+00 0.  1.
     999902    2    1    2    0    0  0.84899975531E-02  0.24392872392E-02 -0.21451791471E-01  0.10207306565E+01  0.10204669831E+01 0.  0.
     999903    2    3    3    0    0 -0.71543057963E-02  0.85407124997E-01  0.94644960298E-01  0.12909908344E+00  0.19061577706E-01 0.  0.
         14    1    1    2    0    0 -0.84899975531E-02 -0.24392872392E-02  0.21451791471E-01  0.23199343482E-01  0.00000000000E+00 0.  1.
     999901    1    3    3    0    0  0.15644303349E-01 -0.82967837758E-01 -0.11609675177E+00  0.89163157307E+00  0.88000000000E+00 0.  1.
        -11    1    4    4    0    0 -0.26324334749E-02  0.78548508587E-01  0.90563733553E-01  0.11991183788E+00  0.51100000000E-03 0. -1.
         11    1    4    4    0    0 -0.45218723214E-02  0.68586164100E-02  0.40812267453E-02  0.91872455664E-02  0.51100000000E-03 0.  1.
</event>
<event>
 8    1  0.1061722E+005  0.1043930E+01  0.7957747E-01            NaN
         13   -1    0    0    0    0  0.00000000000E+00  0.00000000000E+00  0.74505805969E-08  0.10566000000E+00  0.10566000000E+00 0. -1.
     999900   -1    0    0    0    0 -0.00000000000E+00 -0.00000000000E+00 -0.74505805969E-08  0.93827000000E+00  0.93827000000E+00 0. -1.
     999902    2    1    2    0    0  0.50044838585E-02  0.23463045797E-01  0.14834935646E-02  0.10198933586E+01  0.10196100739E+01 0.  0.
     999903    2    3    3    0    0 -0.84424641701E-01 -0.83327594361E-01  0.43772282144E-01  0.12793475476E+00  0.19500786720E-01 0.  0.
         14    1    1    2    0    0 -0.50044838585E-02 -0.23463045797E-01 -0.14834935646E-02  0.24036641402E-01  0.00000000000E+00 0. -1.
     999901    1    3    3    0    0  0.89429125560E-01  0.10679064016E+00 -0.42288788579E-01  0.89195860384E+00  0.88000000000E+00 0.  1.
        -11    1    4    4    0    0 -0.66271913750E-01 -0.73981715201E-01  0.40433798680E-01  0.10723998290E+00  0.51100000000E-03 0.  1.
         11    1    4    4    0    0 -0.18152727951E-01 -0.93458791595E-02  0.33384834639E-02  0.20694771856E-01  0.51100000000E-03 0. -1.
</event>
<event>
 8    1  0.1061722E+005  0.1043930E+01  0.7957747E-01            NaN
         13   -1    0    0    0    0  0.00000000000E+00  0.00000000000E+00  0.74505805969E-08  0.10566000000E+00  0.10566000000E+00 0. -1.
     999900   -1    0    0    0    0 -0.00000000000E+00 -0.00000000000E+00 -0.74505805969E-08  0.93827000000E+00  0.93827000000E+00 0.  1.
     999902    2    1    2    0    0  0.93830313630E-02  0.17415396419E-01 -0.11937167793E-01  0.10208251675E+01  0.10205636625E+01 0.  0.
     999903    2    3    3    0    0 -0.10328883739E+00 -0.22483138591E-01 -0.74720920081E-01  0.13052822678E+00  0.16742957891E-01 0.  0.
         14    1    1    2    0    0 -0.93830313630E-02 -0.17415396419E-01  0.11937167793E-01  0.23104832501E-01  0.00000000000E+00 0. -1.
     999901    1    3    3    0    0  0.11267186875E+00  0.39898535010E-01  0.62783752288E-01  0.89029694072E+00  0.88000000000E+00 0.  1.
        -11    1    4    4    0    0 -0.29311877836E-01 -0.12690633500E-01 -0.17006858954E-01  0.36190229806E-01  0.51100000000E-03 0. -1.
         11    1    4    4    0    0 -0.73976959550E-01 -0.97925050909E-02 -0.57714061127E-01  0.94337996974E-01  0.51100000000E-03 0.  1.
</event>
<event>
 8    1  0.1061722E+005  0.1043930E+01  0.7957747E-01            NaN
         13   -1    0    0    0    0  0.00000000000E+00  0.00000000000E+00  0.74505805969E-08  0.10566000000E+00  0.10566000000E+00 0.  1.
     999900   -1    0    0    0    0 -0.00000000000E+00 -0.00000000000E+00 -0.74505805969E-08  0.93827000000E+00  0.93827000000E+00 0. -1.
     999902    2    1    2    0    0 -0.94777739278E-03 -0.22943179405E-02  0.23865794746E-01  0.10199354520E+01  0.10196531704E+01 0.  0.
     999903    2    3    3    0    0  0.96570281976E-01  0.17269847641E-01 -0.80147078968E-01  0.12824536769E+00  0.19981318016E-01 0.  0.
         14    1    1    2    0    0  0.94777739278E-03  0.22943179405E-02 -0.23865794746E-01  0.23994548040E-01  0.00000000000E+00 0. -1.
     999901    1    3    3    0    0 -0.97518059369E-01 -0.19564165582E-01  0.10401287371E+00  0.89169008426E+00  0.88000000000E+00 0. -1.
        -11    1    4    4    0    0  0.21129129643E-01  0.72343524018E-02 -0.28749018002E-01  0.36408009163E-01  0.51100000000E-03 0. -1.
         11    1    4    4    0    0  0.75441152333E-01  0.10035495239E-01 -0.51398060966E-01  0.91837358532E-01  0.51100000000E-03 0.  1.
</event>
<event>
 8    1  0.1061722E+005  0.1043930E+01  0.7957747E-01            NaN
         13   -1    0    0    0    0  0.00000000000E+00  0.00000000000E+00  0.74505805969E-08  0.10566000000E+00  0.10566000000E+00 0.  1.
     999900   -1    0    0    0    0 -0.00000000000E+00 -0.00000000000E+00 -0.74505805969E-08  0.93827000000E+00  0.93827000000E+00 0. -1.
     999902    2    1    2    0    0 -0.21507934978E-01  0.28843349292E-02 -0.79922190543E-02  0.10208045547E+01  0.10205425776E+01 0.  0.
     999903    2    3    3    0    0 -0.46190979880E-01 -0.15922363692E-01 -0.12199488197E+00  0.13290841676E+00  0.19868762676E-01 0.  0.
         14    1    1    2    0    0  0.21507934978E-01 -0.28843349292E-02  0.79922190543E-02  0.23125445302E-01  0.00000000000E+00 0. -1.
     999901    1    3    3    0    0  0.24683044902E-01  0.18806698621E-01  0.11400266292E+00  0.88789613794E+00  0.88000000000E+00 0.  1.
        -11    1    4    4    0    0 -0.82629792742E-02 -0.12042909680E-01 -0.33586441389E-01  0.36628113058E-01  0.51100000000E-03 0. -1.
         11    1    4    4    0    0 -0.37928000606E-01 -0.38794540120E-02 -0.88408440581E-01  0.96280303699E-01  0.51100000000E-03 0.  1.
</event>
<event>
 8    1  0.1061722E+005  0.1043930E+01  0.7957747E-01            NaN
         13   -1    0    0    0    0  0.00000000000E+00  0.00000000000E+00  0.74505805969E-08  0.10566000000E+00  0.10566000000E+00 0.  1.
     999900   -1    0    0    0    0 -0.00000000000E+00 -0.00000000000E+00 -0.74505805969E-08  0.93827000000E+00  0.93827000000E+00 0. -1.
     999902    2    1    2    0    0 -0.35155490534E-02  0.11711691953E-01  0.20284112031E-01  0.10202452367E+01  0.10199702814E+01 0.  0.
     999903    2    3    3    0    0  0.30779294870E-01 -0.10919187996E+00 -0.54309397543E-01  0.12819254669E+00  0.24770682736E-01 0.  0.
         14    1    1    2    0    0  0.35155490534E-02 -0.11711691953E-01 -0.20284112031E-01  0.23684763339E-01  0.00000000000E+00 0.  1.
     999901    1    3    3    0    0 -0.34294843924E-01  0.12090357191E+00  0.74593509574E-01  0.89205268997E+00  0.88000000000E+00 0.  1.
        -11    1    4    4    0    0  0.50522226038E-02 -0.45536080549E-01 -0.11359407239E-01  0.47205474670E-01  0.51100000000E-03 0. -1.
         11    1    4    4    0    0  0.25727072266E-01 -0.63655799407E-01 -0.42949990304E-01  0.80987072016E-01  0.51100000000E-03 0.  1.
</event>
<event>
 8    1  0.1061722E+005  0.1043930E+01  0.7957747E-01            NaN
         13   -1    0    0    0    0  0.00000000000E+00  0.00000000000E+00  0.74505805969E-08  0.10566000000E+00  0.10566000000E+00 0.  1.
     999900   -1    0    0    0    0 -0.00000000000E+00 -0.00000000000E+00 -0.74505805969E-08  0.93827000000E+00  0.93827000000E+00 0.  1.
     999902    2    1    2    0    0 -0.22767560695E-01  0.14538927652E-02  0.23868580251E-02  0.10209915451E+01  0.10207338352E+01 0.  0.
     999903    2    3    3    0    0 -0.12710579789E+00 -0.73067068473E-02 -0.36656953453E-01  0.13392467324E+00  0.19565634297E-01 0.  0.
         14    1    1    2    0    0  0.22767560695E-01 -0.14538927652E-02 -0.23868580251E-02  0.22938454949E-01  0.00000000000E+00 0. -1.
     999901    1    3    3    0    0  0.10433823719E+00  0.87605996125E-02  0.39043811478E-01  0.88706687181E+00  0.88000000000E+00 0.  1.
        -11    1    4    4    0    0 -0.87654307825E-01 -0.21949777259E-02 -0.16122068079E-01  0.89153114403E-01  0.51100000000E-03 0.  1.
         11    1    4    4    0    0 -0.39451490061E-01 -0.51117291215E-02 -0.20534885374E-01  0.44771558840E-01  0.51100000000E-03 0. -1.
</event>
<event>
 8    1  0.1061722E+005  0.1043930E+01  0.7957747E-01            NaN
         13   -1    0    0    0    0  0.00000000000E+00  0.00000000000E+00  0.74505805969E-08  0.10566000000E+00  0.10566000000E+00 0.  1.
     999900   -1    0    0    0    0 -0.00000000000E+00 -0.00000000000E+00 -0.74505805969E-08  0.93827000000E+00  0.93827000000E+00 0. -1.
     999902    2    1    2    0    0  0.13304399519E-01 -0.21316931993E-01  0.36203653185E-02  0.10185424897E+01  0.10182260444E+01 0.  0.
     999903    2    3    3    0    0  0.11622453670E-02  0.64299982971E-02 -0.12646387340E+00  0.12846427219E+00  0.21616249936E-01 0.  0.
         14    1    1    2    0    0 -0.13304399519E-01  0.21316931993E-01 -0.36203653185E-02  0.25387510338E-01  0.00000000000E+00 0. -1.
     999901    1    3    3    0    0  0.12142154152E-01 -0.27746930290E-01  0.13008423872E+00  0.89007821747E+00  0.88000000000E+00 0.  1.
        -11    1    4    4    0    0  0.83677484530E-02  0.11152021819E-01 -0.78572949172E-01  0.79801981600E-01  0.51100000000E-03 0.  1.
         11    1    4    4    0    0 -0.72055030861E-02 -0.47220235218E-02 -0.47890924233E-01  0.48662290593E-01  0.51100000000E-03 0. -1.
</event>
<event>
 8    1  0.1061722E+005  0.1043930E+01  0.7957747E-01            NaN
         13   -1    0    0    0    0  0.00000000000E+00  0.00000000000E+00  0.74505805969E-08  0.10566000000E+00  0.10566000000E+00 0.  1.
     999900   -1    0    0    0    0 -0.00000000000E+00 -0.00000000000E+00 -0.74505805969E-08  0.93827000000E+00  0.93827000000E+00 0.  1.
     999902    2    1    2    0    0  0.10195130731E-02 -0.11010077250E-01 -0.20632733021E-01  0.10205212222E+01  0.10202527109E+01 0.  0.
     999903    2    3    3    0    0 -0.24226552972E-01  0.59693640271E-01 -0.11396956895E+00  0.13240628339E+00  0.19801633206E-01 0.  0.
         14    1    1    2    0    0 -0.10195130731E-02  0.11010077250E-01  0.20632733021E-01  0.23408777838E-01  0.00000000000E+00 0.  1.
     999901    1    3    3    0    0  0.25246066045E-01 -0.70703717521E-01  0.93336835929E-01  0.88811493877E+00  0.88000000000E+00 0. -1.
        -11    1    4    4    0    0 -0.66424585003E-02  0.19143340294E-02 -0.13626556861E-01  0.15288266827E-01  0.51100000000E-03 0. -1.
         11    1    4    4    0    0 -0.17584094472E-01  0.57779306241E-01 -0.10034301209E+00  0.11711801657E+00  0.51100000000E-03 0.  1.
</event>
<event>
 8    1  0.1061722E+005  0.1043930E+01  0.7957747E-01            NaN
         13   -1    0    0    0    0  0.00000000000E+00  0.00000000000E+00  0.74505805969E-08  0.10566000000E+00  0.10566000000E+00 0.  1.
     999900   -1    0    0    0    0 -0.00000000000E+00 -0.00000000000E+00 -0.74505805969E-08  0.93827000000E+00  0.93827000000E+00 0. -1.
     999902    2    1    2    0    0 -0.13223373427E-01  0.15278701494E-01  0.10927392891E-01  0.10209581860E+01  0.10206997175E+01 0.  0.
     999903    2    3    3    0    0  0.33967834446E-01  0.12496075365E+00  0.21395066912E-01  0.13283278106E+00  0.20440036806E-01 0.  0.
         14    1    1    2    0    0  0.13223373427E-01 -0.15278701494E-01 -0.10927392891E-01  0.22971814023E-01  0.00000000000E+00 0.  1.
     999901    1    3    3    0    0 -0.47191207873E-01 -0.10968205216E+00 -0.10467674021E-01  0.88812540492E+00  0.88000000000E+00 0. -1.
        -11    1    4    4    0    0  0.26640474882E-01  0.10080964530E+00  0.25279787315E-01  0.10729225627E+00  0.51100000000E-03 0. -1.
         11    1    4    4    0    0  0.73273595645E-02  0.24151108349E-01 -0.38847204032E-02  0.25540524785E-01  0.51100000000E-03 0.  1.
</event>
<event>
 8    1  0.1061722E+005  0.1043930E+01  0.7957747E-01            NaN
         13   -1    0    0    0    0  0.00000000000E+00  0.00000000000E+00  0.74505805969E-08  0.10566000000E+00  0.10566000000E+00 0. -1.
     999900   -1    0    0    0    0 -0.00000000000E+00 -0.00000000000E+00 -0.74505805969E-08  0.93827000000E+00  0.93827000000E+00 0. -1.
     999902    2    1    2    0    0  0.25154423933E-01 -0.45770296527E-02  0.38176834405E-02  0.10180791015E+01  0.10177508477E+01 0.  0.
     999903    2    3    3    0    0 -0.11971507121E-01  0.97248605804E-01  0.80134146907E-01  0.12815157788E+00  0.20018418979E-01 0.  0.
         14    1    1    2    0    0 -0.25154423933E-01  0.45770296527E-02 -0.38176834405E-02  0.25850898451E-01  0.00000000000E+00 0.  1.
     999901    1    3    3    0    0  0.37125931054E-01 -0.10182563546E+00 -0.76316463466E-01  0.88992752367E+00  0.88000000000E+00 0. -1.
        -11    1    4    4    0    0 -0.16336049576E-01  0.56960541102E-01  0.43376082694E-01  0.73437833772E-01  0.51100000000E-03 0.  1.
         11    1    4    4    0    0  0.43645424545E-02  0.40288064703E-01  0.36758064213E-01  0.54713744105E-01  0.51100000000E-03 0. -1.
</event>
<event>
 8    1  0.1061722E+005  0.1043930E+01  0.7957747E-01            NaN
         13   -1    0    0    0    0  0.00000000000E+00  0.00000000000E+00  0.74505805969E-08  0.10566000000E+00  0.10566000000E+00 0. -1.
     999900   -1    0    0    0    0 -0.00000000000E+00 -0.00000000000E+00 -0.74505805969E-08  0.93827000000E+00  0.93827000000E+00 0. -1.
     999902    2    1    2    0    0  0.20846309937E-01 -0.72790861237E-02 -0.84582311406E-02  0.10202848016E+01  0.10200107749E+01 0.  0.
     999903    2    3    3    0    0  0.12318959660E+00  0.43444098605E-01  0.12028987045E-01  0.13266623719E+00  0.19813317394E-01 0.  0.
         14    1    1    2    0    0 -0.20846309937E-01  0.72790861237E-02  0.84582311406E-02  0.23645198388E-01  0.00000000000E+00 0. -1.
     999901    1    3    3    0    0 -0.10234328667E+00 -0.50723184728E-01 -0.20487218186E-01  0.88761856442E+00  0.88000000000E+00 0.  1.
        -11    1    4    4    0    0  0.74875379763E-02 -0.14590230913E-02 -0.15941412275E-02  0.78098899212E-02  0.51100000000E-03 0.  1.
         11    1    4    4    0    0  0.11570205863E+00  0.44903121696E-01  0.13623128273E-01  0.12485634727E+00  0.51100000000E-03 0. -1.
</event>
<event>
 8    1  0.1061722E+005  0.1043930E+01  0.7957747E-01            NaN
         13   -1    0    0    0    0  0.00000000000E+00  0.00000000000E+00  0.74505805969E-08  0.10566000000E+00  0.10566000000E+00 0. -1.
     999900   -1    0    0    0    0 -0.00000000000E+00 -0.00000000000E+00 -0.74505805969E-08  0.93827000000E+00  0.93827000000E+00 0. -1.
     999902    2    1    2    0    0 -0.92745045531E-02 -0.10591945616E-01  0.17632939702E-01  0.10213661726E+01  0.10211169042E+01 0.  0.
     999903    2    3    3    0    0 -0.35045547952E-01 -0.12225777836E+00  0.36236555302E-01  0.13374040715E+00  0.19956296377E-01 0.  0.
         14    1    1    2    0    0  0.92745045531E-02  0.10591945616E-01 -0.17632939702E-01  0.22563827450E-01  0.00000000000E+00 0.  1.
     999901    1    3    3    0    0  0.25771043399E-01  0.11166583274E+00 -0.18603615600E-01  0.88762576540E+00  0.88000000000E+00 0.  1.
        -11    1    4    4    0    0 -0.13527850970E-01 -0.78336694497E-01  0.27048934738E-01  0.83973486578E-01  0.51100000000E-03 0. -1.
         11    1    4    4    0    0 -0.21517696982E-01 -0.43921083863E-01  0.91876205641E-02  0.49766920577E-01  0.51100000000E-03 0.  1.
</event>
<event>
 8    1  0.1061722E+005  0.1043930E+01  0.7957747E-01            NaN
         13   -1    0    0    0    0  0.00000000000E+00  0.00000000000E+00  0.74505805969E-08  0.10566000000E+00  0.10566000000E+00 0.  1.
     999900   -1    0    0    0    0 -0.00000000000E+00 -0.00000000000E+00 -0.74505805969E-08  0.93827000000E+00  0.93827000000E+00 0. -1.
     999902    2    1    2    0    0  0.34014171597E-01 -0.10380215210E-02  0.14262123610E-02  0.10098701198E+01  0.10092955877E+01 0.  0.
     999903    2    3    3    0    0 -0.10267129602E+00 -0.15231698883E-01  0.51672871504E-01  0.11778878701E+00  0.20753626634E-01 0.  0.
         14    1    1    2    0    0 -0.34014171597E-01  0.10380215210E-02 -0.14262123610E-02  0.34059880208E-01  0.00000000000E+00 0. -1.
     999901    1    3    3    0    0  0.13668546762E+00  0.14193677362E-01 -0.50246659143E-01  0.89208133278E+00  0.88000000000E+00 0. -1.
        -11    1    4    4    0    0 -0.79047042877E-01 -0.17602366155E-01  0.32483824804E-01  0.87256737716E-01  0.51100000000E-03 0.  1.
         11    1    4    4    0    0 -0.23624253147E-01  0.23706672717E-02  0.19189046700E-01  0.30532049298E-01  0.51100000000E-03 0. -1.
</event>
<event>
 8    1  0.1061722E+005  0.1043930E+01  0.7957747E-01            NaN
         13   -1    0    0    0    0  0.00000000000E+00  0.00000000000E+00  0.74505805969E-08  0.10566000000E+00  0.10566000000E+00 0. -1.
     999900   -1    0    0    0    0 -0.00000000000E+00 -0.00000000000E+00 -0.74505805969E-08  0.93827000000E+00  0.93827000000E+00 0. -1.
     999902    2    1    2    0    0 -0.18424009656E-01  0.14219639339E-01  0.61897743258E-02  0.10198477331E+01  0.10195633590E+01 0.  0.
     999903    2    3    3    0    0 -0.53679662075E-01  0.10489285820E+00  0.58122969292E-01  0.13296462330E+00  0.20427767066E-01 0.  0.
         14    1    1    2    0    0  0.18424009656E-01 -0.14219639339E-01 -0.61897743258E-02  0.24082266939E-01  0.00000000000E+00 0.  1.
     999901    1    3    3    0    0  0.35255652419E-01 -0.90673218861E-01 -0.51933194966E-01  0.88688310976E+00  0.88000000000E+00 0. -1.
        -11    1    4    4    0    0 -0.15731513830E-01  0.16842402353E-01  0.16969757089E-01  0.28624828752E-01  0.51100000000E-03 0. -1.
         11    1    4    4    0    0 -0.37948148245E-01  0.88050455846E-01  0.41153212202E-01  0.10433979454E+00  0.51100000000E-03 0.  1.
</event>
<event>
 8    1  0.1061722E+005  0.1043930E+01  0.7957747E-01            NaN
         13   -1    0    0    0    0  0.00000000000E+00  0.00000000000E+00  0.74505805969E-08  0.10566000000E+00  0.10566000000E+00 0. -1.
     999900   -1    0    0    0    0 -0.00000000000E+00 -0.00000000000E+00 -0.74505805969E-08  0.93827000000E+00  0.93827000000E+00 0. -1.
     999902    2    1    2    0    0 -0.20578158253E-01  0.82413356532E-02 -0.40144005711E-03  0.10217592678E+01  0.10215187027E+01 0.  0.
     999903    2    3    3    0    0  0.96041740290E-01 -0.84164847527E-01  0.35104185451E-02  0.12926030086E+00  0.19701900971E-01 0.  0.
         14    1    1    2    0    0  0.20578158253E-01 -0.82413356532E-02  0.40144005711E-03  0.22170732161E-01  0.00000000000E+00 0.  1.
     999901    1    3    3    0    0 -0.11661989854E+00  0.92406183180E-01 -0.39118586022E-02  0.89249896698E+00  0.88000000000E+00 0.  1.
        -11    1    4    4    0    0  0.61489650047E-01 -0.56141551567E-01  0.11507357438E-01  0.84056714613E-01  0.51100000000E-03 0.  1.
         11    1    4    4    0    0  0.34552090243E-01 -0.28023295960E-01 -0.79969388927E-02  0.45203586243E-01  0.51100000000E-03 0. -1.
</event>
<event>
 8    1  0.1061722E+005  0.1043930E+01  0.7957747E-01            NaN
         13   -1    0    0    0    0  0.00000000000E+00  0.00000000000E+00  0.74505805969E-08  0.10566000000E+00  0.10566000000E+00 0.  1.
     999900   -1    0    0    0    0 -0.00000000000E+00 -0.00000000000E+00 -0.74505805969E-08  0.93827000000E+00  0.93827000000E+00 0.  1.
     999902    2    1    2    0    0  0.17436957277E-01  0.16941917157E-01  0.16410955504E-01  0.10145975010E+01  0.10141734041E+01 0.  0.
     999903    2    3    3    0    0 -0.45636819528E-01  0.10962752480E+00 -0.36765467218E-01  0.12589245708E+00  0.19907226788E-01 0.  0.
         14    1    1    2    0    0 -0.17436957277E-01 -0.16941917157E-01 -0.16410955504E-01  0.29332498983E-01  0.00000000000E+00 0. -1.
     999901    1    3    3    0    0  0.63073776805E-01 -0.92685607647E-01  0.53176422722E-01  0.88870504394E+00  0.88000000000E+00 0. -1.
        -11    1    4    4    0    0 -0.13562561589E-01  0.57796350519E-01 -0.20449282783E-01  0.62791683347E-01  0.51100000000E-03 0.  1.
         11    1    4    4    0    0 -0.32074257939E-01  0.51831174285E-01 -0.16316184434E-01  0.63100773733E-01  0.51100000000E-03 0. -1.
</event>
<event>
 8    1  0.1061722E+005  0.1043930E+01  0.7957747E-01            NaN
         13   -1    0    0    0    0  0.00000000000E+00  0.00000000000E+00  0.74505805969E-08  0.10566000000E+00  0.10566000000E+00 0. -1.
     999900   -1    0    0    0    0 -0.00000000000E+00 -0.00000000000E+00 -0.74505805969E-08  0.93827000000E+00  0.93827000000E+00 0. -1.
     999902    2    1    2    0    0  0.20332152424E-01  0.16746855454E-01  0.34372334096E-02  0.10173655846E+01  0.10170187140E+01 0.  0.
     999903    2    3    3    0    0 -0.88397301717E-01  0.89010122639E-01  0.13927329197E-01  0.12767231385E+00  0.19218853822E-01 0.  0.
         14    1    1    2    0    0 -0.20332152424E-01 -0.16746855454E-01 -0.34372334096E-02  0.26564415358E-01  0.00000000000E+00 0.  1.
     999901    1    3    3    0    0  0.10872945414E+00 -0.72263267185E-01 -0.10490095787E-01  0.88969327079E+00  0.88000000000E+00 0.  1.
        -11    1    4    4    0    0 -0.58981143314E-01  0.47553496468E-01  0.12699798721E-01  0.76822238326E-01  0.51100000000E-03 0. -1.
         11    1    4    4    0    0 -0.29416158404E-01  0.41456626172E-01  0.12275304755E-02  0.50850075524E-01  0.51100000000E-03 0.  1.
</event>
<event>
 8    1  0.1061722E+005  0.1043930E+01  0.7957747E-01            NaN
         13   -1    0    0    0    0  0.00000000000E+00  0.00000000000E+00  0.74505805969E-08  0.10566000000E+00  0.10566000000E+00 0. -1.
     999900   -1    0    0    0    0 -0.00000000000E+00 -0.00000000000E+00 -0.74505805969E-08  0.93827000000E+00  0.93827000000E+00 0. -1.
     999902    2    1    2    0    0 -0.18678360559E-01 -0.26285625529E-01  0.16778518416E-02  0.10116402114E+01  0.10111247632E+01 0.  0.
     999903    2    3    3    0    0 -0.77825208610E-01  0.84394070623E-01 -0.36064792553E-01  0.12193641124E+00  0.19715396823E-01 0.  0.
         14    1    1    2    0    0  0.18678360559E-01  0.26285625529E-01 -0.16778518416E-02  0.32289788625E-01  0.00000000000E+00 0.  1.
     999901    1    3    3    0    0  0.59146848051E-01 -0.11067969615E+00  0.37742644394E-01  0.88970380014E+00  0.88000000000E+00 0.  1.
        -11    1    4    4    0    0 -0.28320264489E-01  0.31236087369E-01 -0.34437958186E-02  0.42306635242E-01  0.51100000000E-03 0.  1.
         11    1    4    4    0    0 -0.49504944121E-01  0.53157983254E-01 -0.32620996734E-01  0.79629775995E-01  0.51100000000E-03 0. -1.
</event>
<event>
 8    1  0.1061722E+005  0.1043930E+01  0.7957747E-01            NaN
         13   -1    0    0    0    0  0.00000000000E+00  0.00000000000E+00  0.74505805969E-08  0.10566000000E+00  0.10566000000E+00 0. -1.
     999900   -1    0    0    0    0 -0.00000000000E+00 -0.00000000000E+00 -0.74505805969E-08  0.93827000000E+00  0.93827000000E+00 0.  1.
     999902    2    1    2    0    0 -0.10623753271E-01  0.31133586869E-02 -0.21703690031E-01  0.10195659425E+01  0.10192747931E+01 0.  0.
     999903    2    3    3    0    0  0.66963826954E-01  0.72975103321E-01 -0.83717997788E-01  0.13122689107E+00  0.20056768459E-01 0.  0.
         14    1    1    2    0    0  0.10623753271E-01 -0.31133586869E-02  0.21703690031E-01  0.24364057478E-01  0.00000000000E+00 0. -1.
     999901    1    3    3    0    0 -0.77587580225E-01 -0.69861744634E-01  0.62014307758E-01  0.88833905145E+00  0.88000000000E+00 0. -1.
        -11    1    4    4    0    0  0.52357484026E-01  0.43909528487E-01 -0.52944850011E-01  0.86445191244E-01  0.51100000000E-03 0. -1.
         11    1    4    4    0    0  0.14606342928E-01  0.29065574833E-01 -0.30773147777E-01  0.44781699825E-01  0.51100000000E-03 0.  1.
</event>
<event>
 8    1  0.1061722E+005  0.1043930E+01  0.7957747E-01            NaN
         13   -1    0    0    0    0  0.00000000000E+00  0.00000000000E+00  0.74505805969E-08  0.10566000000E+00  0.10566000000E+00 0. -1.
     999900   -1    0    0    0    0 -0.00000000000E+00 -0.00000000000E+00 -0.74505805969E-08  0.93827000000E+00  0.93827000000E+00 0. -1.
     999902    2    1    2    0    0  0.10949173329E-01 -0.75706531098E-02  0.18511417904E-01  0.10211293031E+01  0.10208747141E+01 0.  0.
     999903    2    3    3    0    0  0.95416354161E-02  0.66159974577E-01  0.11340495097E+00  0.13296098054E+00  0.18701721883E-01 0.  0.
         14    1    1    2    0    0 -0.10949173329E-01  0.75706531098E-02 -0.18511417904E-01  0.22800696873E-01  0.00000000000E+00 0.  1.
     999901    1    3    3    0    0  0.14075379131E-02 -0.73730627687E-01 -0.94893533061E-01  0.88816832258E+00  0.88000000000E+00 0.  1.
        -11    1    4    4    0    0  0.13608381879E-01  0.50029806093E-01  0.75792987721E-01  0.91831408917E-01  0.51100000000E-03 0.  1.
         11    1    4    4    0    0 -0.40667464629E-02  0.16130168484E-01  0.37611963244E-01  0.41129571627E-01  0.51100000000E-03 0. -1.
</event>
<event>
 8    1  0.1061722E+005  0.1043930E+01  0.7957747E-01            NaN
         13   -1    0    0    0    0  0.00000000000E+00  0.00000000000E+00  0.74505805969E-08  0.10566000000E+00  0.10566000000E+00 0. -1.
     999900   -1    0    0    0    0 -0.00000000000E+00 -0.00000000000E+00 -0.74505805969E-08  0.93827000000E+00  0.93827000000E+00 0.  1.
     999902    2    1    2    0    0  0.19157289103E-01 -0.13065853392E-01 -0.21610734507E-02  0.10206407645E+01  0.10203750201E+01 0.  0.
     999903    2    3    3    0    0  0.40976026344E-01  0.12073927855E+00  0.16627982530E-01  0.13006067309E+00  0.19552001489E-01 0.  0.
         14    1    1    2    0    0 -0.19157289103E-01  0.13065853392E-01  0.21610734507E-02  0.23289235477E-01  0.00000000000E+00 0.  1.
     999901    1    3    3    0    0 -0.21818737241E-01 -0.13380513194E+00 -0.18789055981E-01  0.89058009143E+00  0.88000000000E+00 0.  1.
        -11    1    4    4    0    0  0.29837378468E-01  0.58594428800E-01  0.59202100716E-02  0.66021861898E-01  0.51100000000E-03 0.  1.
         11    1    4    4    0    0  0.11138647875E-01  0.62144849751E-01  0.10707772458E-01  0.64038811194E-01  0.51100000000E-03 0. -1.
</event>
<event>
 8    1  0.1061722E+005  0.1043930E+01  0.7957747E-01            NaN
         13   -1    0    0    0    0  0.00000000000E+00  0.00000000000E+00  0.74505805969E-08  0.10566000000E+00  0.10566000000E+00 0.  1.
     999900   -1    0    0    0    0 -0.00000000000E+00 -0.00000000000E+00 -0.74505805969E-08  0.93827000000E+00  0.93827000000E+00 0.  1.
     999902    2    1    2    0    0 -0.19861405803E-01  0.12658579550E-01 -0.32195230326E-03  0.10203754096E+01  0.10201035034E+01 0.  0.
     999903    2    3    3    0    0 -0.96774198894E-01  0.71249402461E-01  0.54101644386E-01  0.13340844844E+00  0.20714807932E-01 0.  0.
         14    1    1    2    0    0  0.19861405803E-01 -0.12658579550E-01  0.32195230326E-03  0.23554590423E-01  0.00000000000E+00 0. -1.
     999901    1    3    3    0    0  0.76912793091E-01 -0.58590822910E-01 -0.54423596689E-01  0.88696696114E+00  0.88000000000E+00 0.  1.
        -11    1    4    4    0    0 -0.79960706665E-01  0.54074017273E-01  0.34914805563E-01  0.10264998160E+00  0.51100000000E-03 0. -1.
         11    1    4    4    0    0 -0.16813492229E-01  0.17175385188E-01  0.19186838823E-01  0.30758466839E-01  0.51100000000E-03 0.  1.
</event>
<event>
 8    1  0.1061722E+005  0.1043930E+01  0.7957747E-01            NaN
         13   -1    0    0    0    0  0.00000000000E+00  0.00000000000E+00  0.74505805969E-08  0.10566000000E+00  0.10566000000E+00 0. -1.
     999900   -1    0    0    0    0 -0.00000000000E+00 -0.00000000000E+00 -0.74505805969E-08  0.93827000000E+00  0.93827000000E+00 0.  1.
     999902    2    1    2    0    0 -0.36527403905E-02 -0.13590739448E-01 -0.20012487593E-01  0.10194647109E+01  0.10191711075E+01 0.  0.
     999903    2    3    3    0    0 -0.11177016138E+00  0.58567398658E-01 -0.23542242497E-01  0.12990941032E+00  0.19987709950E-01 0.  0.
         14    1    1    2    0    0  0.36527403905E-02  0.13590739448E-01  0.20012487593E-01  0.24465289100E-01  0.00000000000E+00 0. -1.
     999901    1    3    3    0    0  0.10811742099E+00 -0.72158138106E-01  0.35297549039E-02  0.88955530058E+00  0.88000000000E+00 0. -1.
        -11    1    4    4    0    0 -0.79082386412E-01  0.50933454720E-01 -0.19826020411E-01  0.96133099693E-01  0.51100000000E-03 0.  1.
         11    1    4    4    0    0 -0.32687774964E-01  0.76339439380E-02 -0.37162220864E-02  0.33776310629E-01  0.51100000000E-03 0. -1.
</event>
<event>
 8    1  0.1101818E+005  0.1043930E+01  0.7957747E-01            NaN
         13   -1    0    0    0    0  0.00000000000E+00  0.00000000000E+00  0.74505805969E-08  0.10566000000E+00  0.10566000000E+00 0. -1.
     999900   -1    0    0    0    0 -0.00000000000E+00 -0.00000000000E+00 -0.74505805969E-08  0.93827000000E+00  0.93827000000E+00 0. -1.
     999902    2    1    2    0    0 -0.27499381794E-02 -0.12960216410E-03 -0.24230353337E-01  0.10195437543E+01  0.10192520679E+01 0.  0.
     999903    2    3    3    0    0  0.40857184150E-01 -0.11980750705E+00 -0.24260562559E-01  0.13037313909E+00  0.19632428697E-01 0.  0.
         14    1    1    2    0    0  0.27499381794E-02  0.12960216410E-03  0.24230353337E-01  0.24386245704E-01  0.00000000000E+00 0. -1.
     999901    1    3    3    0    0 -0.43607122330E-01  0.11967790489E+00  0.30209221834E-04  0.88917061521E+00  0.88000000000E+00 0.  1.
        -11    1    4    4    0    0  0.17986474832E-01 -0.53468963670E-01 -0.92646890249E-03  0.56423069914E-01  0.51100000000E-03 0. -1.
         11    1    4    4    0    0  0.22870709318E-01 -0.66338543385E-01 -0.23334093656E-01  0.73950069174E-01  0.51100000000E-03 0.  1.
</event>
<event>
 8    1  0.1061722E+005  0.1043930E+01  0.7957747E-01            NaN
         13   -1    0    0    0    0  0.00000000000E+00  0.00000000000E+00  0.74505805969E-08  0.10566000000E+00  0.10566000000E+00 0.  1.
     999900   -1    0    0    0    0 -0.00000000000E+00 -0.00000000000E+00 -0.74505805969E-08  0.93827000000E+00  0.93827000000E+00 0. -1.
     999902    2    1    2    0    0 -0.68503791649E-03 -0.22581029964E-01 -0.78819458940E-02  0.10200030850E+01  0.10197224113E+01 0.  0.
     999903    2    3    3    0    0  0.12461339454E+00  0.11060456596E-01  0.28330492120E-01  0.12975436274E+00  0.19563896977E-01 0.  0.
         14    1    1    2    0    0  0.68503791649E-03  0.22581029964E-01  0.78819458940E-02  0.23926915018E-01  0.00000000000E+00 0.  1.
     999901    1    3    3    0    0 -0.12529843246E+00 -0.33641486560E-01 -0.36212438014E-01  0.89024872225E+00  0.88000000000E+00 0. -1.
        -11    1    4    4    0    0  0.97375880811E-01  0.63525011408E-02  0.29904429098E-01  0.10206347258E+00  0.51100000000E-03 0.  1.
         11    1    4    4    0    0  0.27237513733E-01  0.47079554552E-02 -0.15739369775E-02  0.27690890155E-01  0.51100000000E-03 0. -1.
</event>
<event>
 8    1  0.1061722E+005  0.1043930E+01  0.7957747E-01            NaN
         13   -1    0    0    0    0  0.00000000000E+00  0.00000000000E+00  0.74505805969E-08  0.10566000000E+00  0.10566000000E+00 0. -1.
     999900   -1    0    0    0    0 -0.00000000000E+00 -0.00000000000E+00 -0.74505805969E-08  0.93827000000E+00  0.93827000000E+00 0. -1.
     999902    2    1    2    0    0 -0.68170430632E-02 -0.19277792939E-01 -0.12718449730E-01  0.10198496275E+01  0.10195652987E+01 0.  0.
     999903    2    3    3    0    0 -0.12787343394E-01 -0.12519926819E+00 -0.37903026932E-01  0.13312009356E+00  0.21117456138E-01 0.  0.
         14    1    1    2    0    0  0.68170430632E-02  0.19277792939E-01  0.12718449730E-01  0.24080372511E-01  0.00000000000E+00 0. -1.
     999901    1    3    3    0    0  0.59703003306E-02  0.10592147525E+00  0.25184577202E-01  0.88672953392E+00  0.88000000000E+00 0.  1.
        -11    1    4    4    0    0  0.19024776849E-02 -0.41993416391E-01 -0.45647500810E-02  0.42286694194E-01  0.51100000000E-03 0. -1.
         11    1    4    4    0    0 -0.14689821079E-01 -0.83205851798E-01 -0.33338276851E-01  0.90833399370E-01  0.51100000000E-03 0.  1.
</event>
<event>
 8    1  0.1061722E+005  0.1043930E+01  0.7957747E-01            NaN
         13   -1    0    0    0    0  0.00000000000E+00  0.00000000000E+00  0.74505805969E-08  0.10566000000E+00  0.10566000000E+00 0.  1.
     999900   -1    0    0    0    0 -0.00000000000E+00 -0.00000000000E+00 -0.74505805969E-08  0.93827000000E+00  0.93827000000E+00 0. -1.
     999902    2    1    2    0    0 -0.62534986904E-03  0.72258169955E-02  0.28103176096E-01  0.10149060099E+01  0.10144909152E+01 0.  0.
     999903    2    3    3    0    0  0.63481277615E-01  0.89451796319E-01 -0.56712348055E-01  0.12470128936E+00  0.17396110884E-01 0.  0.
         14    1    1    2    0    0  0.62534986904E-03 -0.72258169955E-02 -0.28103176096E-01  0.29023990084E-01  0.00000000000E+00 0. -1.
     999901    1    3    3    0    0 -0.64106627484E-01 -0.82225979323E-01  0.84815524151E-01  0.89020472056E+00  0.88000000000E+00 0.  1.
        -11    1    4    4    0    0  0.13643657244E-01  0.22442707293E-01 -0.21989717108E-01  0.34258331441E-01  0.51100000000E-03 0. -1.
         11    1    4    4    0    0  0.49837620370E-01  0.67009089026E-01 -0.34722630948E-01  0.90442957920E-01  0.51100000000E-03 0.  1.
</event>
<event>
 8    1  0.1061722E+005  0.1043930E+01  0.7957747E-01            NaN
         13   -1    0    0    0    0  0.00000000000E+00  0.00000000000E+00  0.74505805969E-08  0.10566000000E+00  0.10566000000E+00 0.  1.
     999900   -1    0    0    0    0 -0.00000000000E+00 -0.00000000000E+00 -0.74505805969E-08  0.93827000000E+00  0.93827000000E+00 0. -1.
     999902    2    1    2    0    0  0.23747265156E-01  0.40771381981E-02 -0.22584403974E-02  0.10197296651E+01  0.10194424621E+01 0.  0.
     999903    2    3    3    0    0 -0.10681685017E+00 -0.66145794584E-01  0.14349192582E-02  0.12732174857E+00  0.20583076682E-01 0.  0.
         14    1    1    2    0    0 -0.23747265156E-01 -0.40771381981E-02  0.22584403974E-02  0.24200334942E-01  0.00000000000E+00 0.  1.
     999901    1    3    3    0    0  0.13056411532E+00  0.70222932782E-01 -0.36933596555E-02  0.89240791648E+00  0.88000000000E+00 0.  1.
        -11    1    4    4    0    0 -0.65121531578E-02 -0.10397490501E-01  0.26341357620E-02  0.12558492731E-01  0.51100000000E-03 0.  1.
         11    1    4    4    0    0 -0.10030469701E+00 -0.55748304083E-01 -0.11992165038E-02  0.11476325584E+00  0.51100000000E-03 0. -1.
</event>
<event>
 8    1  0.1061722E+005  0.1043930E+01  0.7957747E-01            NaN
         13   -1    0    0    0    0  0.00000000000E+00  0.00000000000E+00  0.74505805969E-08  0.10566000000E+00  0.10566000000E+00 0.  1.
     999900   -1    0    0    0    0 -0.00000000000E+00 -0.00000000000E+00 -0.74505805969E-08  0.93827000000E+00  0.93827000000E+00 0. -1.
     999902    2    1    2    0    0 -0.17575876046E-01 -0.33108682220E-02 -0.16680925506E-01  0.10194733743E+01  0.10191799813E+01 0.  0.
     999903    2    3    3    0    0  0.78414714866E-01  0.81685741857E-01 -0.58404108757E-01  0.12920406596E+00  0.21476098594E-01 0.  0.
         14    1    1    2    0    0  0.17575876046E-01  0.33108682220E-02  0.16680925506E-01  0.24456625746E-01  0.00000000000E+00 0.  1.
     999901    1    3    3    0    0 -0.95990590912E-01 -0.84996610079E-01  0.41723183251E-01  0.89026930829E+00  0.88000000000E+00 0.  1.
        -11    1    4    4    0    0  0.37245365426E-01  0.41132642895E-01 -0.16744854112E-01  0.57963461055E-01  0.51100000000E-03 0.  1.
         11    1    4    4    0    0  0.41169349440E-01  0.40553098961E-01 -0.41659254645E-01  0.71240604905E-01  0.51100000000E-03 0. -1.
</event>
<event>
 8    1  0.1061722E+005  0.1043930E+01  0.7957747E-01            NaN
         13   -1    0    0    0    0  0.00000000000E+00  0.00000000000E+00  0.74505805969E-08  0.10566000000E+00  0.10566000000E+00 0.  1.
     999900   -1    0    0    0    0 -0.00000000000E+00 -0.00000000000E+00 -0.74505805969E-08  0.93827000000E+00  0.93827000000E+00 0.  1.
     999902    2    1    2    0    0  0.71823052801E-02 -0.18271247942E-01  0.14003971091E-01  0.10198149587E+01  0.10195298008E+01 0.  0.
     999903    2    3    3    0    0  0.98702701392E-01  0.80914069037E-01 -0.61427002482E-02  0.12929848026E+00  0.19775095481E-01 0.  0.
         14    1    1    2    0    0 -0.71823052801E-02  0.18271247942E-01 -0.14003971091E-01  0.24115041298E-01  0.00000000000E+00 0. -1.
     999901    1    3    3    0    0 -0.91520396112E-01 -0.99185316979E-01  0.20146671339E-01  0.89051647844E+00  0.88000000000E+00 0. -1.
        -11    1    4    4    0    0  0.46600150384E-01  0.35946309957E-01 -0.12536916258E-01  0.60175963686E-01  0.51100000000E-03 0. -1.
         11    1    4    4    0    0  0.52102551008E-01  0.44967759080E-01  0.63942160098E-02  0.69122516575E-01  0.51100000000E-03 0.  1.
</event>
<event>
 8    1  0.1061722E+005  0.1043930E+01  0.7957747E-01            NaN
         13   -1    0    0    0    0  0.00000000000E+00  0.00000000000E+00  0.74505805969E-08  0.10566000000E+00  0.10566000000E+00 0.  1.
     999900   -1    0    0    0    0 -0.00000000000E+00 -0.00000000000E+00 -0.74505805969E-08  0.93827000000E+00  0.93827000000E+00 0.  1.
     999902    2    1    2    0    0 -0.12481978671E-01  0.16781042252E-01  0.10199691516E-01  0.10206612038E+01  0.10203959310E+01 0.  0.
     999903    2    3    3    0    0  0.68283875237E-01  0.10384488677E+00  0.40413254548E-01  0.13217029467E+00  0.19730877434E-01 0.  0.
         14    1    1    2    0    0  0.12481978671E-01 -0.16781042252E-01 -0.10199691516E-01  0.23268796222E-01  0.00000000000E+00 0.  1.
     999901    1    3    3    0    0 -0.80765853909E-01 -0.87063844515E-01 -0.30213563032E-01  0.88849090911E+00  0.88000000000E+00 0.  1.
        -11    1    4    4    0    0  0.30141564908E-01  0.47005940333E-01  0.79330735524E-02  0.56402722795E-01  0.51100000000E-03 0.  1.
         11    1    4    4    0    0  0.38142310329E-01  0.56838946434E-01  0.32480180996E-01  0.75767571873E-01  0.51100000000E-03 0. -1.
</event>
<event>
 8    1  0.1061722E+005  0.1043930E+01  0.7957747E-01            NaN
         13   -1    0    0    0    0  0.00000000000E+00  0.00000000000E+00  0.74505805969E-08  0.10566000000E+00  0.10566000000E+00 0. -1.
     999900   -1    0    0    0    0 -0.00000000000E+00 -0.00000000000E+00 -0.74505805969E-08  0.93827000000E+00  0.93827000000E+00 0.  1.
     999902    2    1    2    0    0 -0.16999032119E-01  0.15376268482E-01 -0.43627359405E-02  0.10205969721E+01  0.10203302158E+01 0.  0.
     999903    2    3    3    0    0  0.11628005130E-01  0.94394240751E-01 -0.89529138727E-01  0.13249975707E+00  0.22253892978E-01 0.  0.
         14    1    1    2    0    0  0.16999032119E-01 -0.15376268482E-01  0.43627359405E-02  0.23333027885E-01  0.00000000000E+00 0.  1.
     999901    1    3    3    0    0 -0.28627037249E-01 -0.79017972269E-01  0.85166402786E-01  0.88809721504E+00  0.88000000000E+00 0. -1.
        -11    1    4    4    0    0  0.11757383719E-01  0.81318883286E-01 -0.65266693450E-01  0.10493330856E+00  0.51100000000E-03 0. -1.
         11    1    4    4    0    0 -0.12937858914E-03  0.13075357465E-01 -0.24262445277E-01  0.27566448511E-01  0.51100000000E-03 0.  1.
</event>
<event>
 8    1  0.1061722E+005  0.1043930E+01  0.7957747E-01            NaN
         13   -1    0    0    0    0  0.00000000000E+00  0.00000000000E+00  0.74505805969E-08  0.10566000000E+00  0.10566000000E+00 0. -1.
     999900   -1    0    0    0    0 -0.00000000000E+00 -0.00000000000E+00 -0.74505805969E-08  0.93827000000E+00  0.93827000000E+00 0. -1.
     999902    2    1    2    0    0 -0.13920547358E-01  0.22790736141E-02 -0.18674260717E-01  0.10205269269E+01  0.10202585480E+01 0.  0.
     999903    2    3    3    0    0 -0.26138510811E-01  0.94015848533E-02  0.12424918483E+00  0.12888399388E+00  0.20040269522E-01 0.  0.
         14    1    1    2    0    0  0.13920547358E-01 -0.22790736141E-02  0.18674260717E-01  0.23403073060E-01  0.00000000000E+00 0. -1.
     999901    1    3    3    0    0  0.12217963453E-01 -0.71225112392E-02 -0.14292344554E+00  0.89164293306E+00  0.88000000000E+00 0. -1.
        -11    1    4    4    0    0  0.61637500057E-04 -0.37592302487E-02  0.63908165152E-02  0.74323124245E-02  0.51100000000E-03 0.  1.
         11    1    4    4    0    0 -0.26200148311E-01  0.13160815102E-01  0.11785836831E+00  0.12145168145E+00  0.51100000000E-03 0. -1.
</event>
<event>
 8    1  0.1061722E+005  0.1043930E+01  0.7957747E-01            NaN
         13   -1    0    0    0    0  0.00000000000E+00  0.00000000000E+00  0.74505805969E-08  0.10566000000E+00  0.10566000000E+00 0. -1.
     999900   -1    0    0    0    0 -0.00000000000E+00 -0.00000000000E+00 -0.74505805969E-08  0.93827000000E+00  0.93827000000E+00 0. -1.
     999902    2    1    2    0    0 -0.17561896983E-01 -0.10955736292E-01 -0.13202047826E-01  0.10193791864E+01  0.10190835016E+01 0.  0.
     999903    2    3    3    0    0 -0.42839849239E-02 -0.28786797461E-03 -0.12971508114E+00  0.13153607337E+00  0.21384595552E-01 0.  0.
         14    1    1    2    0    0  0.17561896983E-01  0.10955736292E-01  0.13202047826E-01  0.24550813635E-01  0.00000000000E+00 0. -1.
     999901    1    3    3    0    0 -0.13277912059E-01 -0.10667868317E-01  0.11651303331E+00  0.88784311300E+00  0.88000000000E+00 0.  1.
        -11    1    4    4    0    0 -0.10837881422E-01 -0.12154753818E-02 -0.36832941735E-01  0.38416972446E-01  0.51100000000E-03 0. -1.
         11    1    4    4    0    0  0.65538964978E-02  0.92760740720E-03 -0.92882139406E-01  0.93119100922E-01  0.51100000000E-03 0.  1.
</event>
<event>
 8    1  0.1061722E+005  0.1043930E+01  0.7957747E-01            NaN
         13   -1    0    0    0    0  0.00000000000E+00  0.00000000000E+00  0.74505805969E-08  0.10566000000E+00  0.10566000000E+00 0.  1.
     999900   -1    0    0    0    0 -0.00000000000E+00 -0.00000000000E+00 -0.74505805969E-08  0.93827000000E+00  0.93827000000E+00 0. -1.
     999902    2    1    2    0    0 -0.14340810968E-01  0.14217190576E-01  0.11635943127E-01  0.10206237232E+01  0.10203575852E+01 0.  0.
     999903    2    3    3    0    0 -0.12340343472E+00  0.12205929292E-01 -0.41527427193E-01  0.13229661843E+00  0.20011887213E-01 0.  0.
         14    1    1    2    0    0  0.14340810968E-01 -0.14217190576E-01 -0.11635943127E-01  0.23306276827E-01  0.00000000000E+00 0. -1.
     999901    1    3    3    0    0  0.10906262375E+00  0.20112612832E-02  0.53163370320E-01  0.88832710474E+00  0.88000000000E+00 0.  1.
        -11    1    4    4    0    0 -0.11639742287E-01  0.50417443341E-02 -0.93654633444E-02  0.15775798271E-01  0.51100000000E-03 0. -1.
         11    1    4    4    0    0 -0.11176369243E+00  0.71641849583E-02 -0.32161963849E-01  0.11652082016E+00  0.51100000000E-03 0.  1.
</event>
<event>
 8    1  0.1061722E+005  0.1043930E+01  0.7957747E-01            NaN
         13   -1    0    0    0    0  0.00000000000E+00  0.00000000000E+00  0.74505805969E-08  0.10566000000E+00  0.10566000000E+00 0.  1.
     999900   -1    0    0    0    0 -0.00000000000E+00 -0.00000000000E+00 -0.74505805969E-08  0.93827000000E+00  0.93827000000E+00 0. -1.
     999902    2    1    2    0    0 -0.18462744906E-01  0.27941129627E-02  0.15042341576E-01  0.10199518421E+01  0.10196699506E+01 0.  0.
     999903    2    3    3    0    0 -0.56725963036E-01  0.11329413987E+00 -0.27596120451E-01  0.13119295001E+00  0.19916005023E-01 0.  0.
         14    1    1    2    0    0  0.18462744906E-01 -0.27941129627E-02 -0.15042341576E-01  0.23978157911E-01  0.00000000000E+00 0.  1.
     999901    1    3    3    0    0  0.38263218130E-01 -0.11050002691E+00  0.42638462027E-01  0.88875889208E+00  0.88000000000E+00 0.  1.
        -11    1    4    4    0    0 -0.36742018261E-01  0.90905599061E-01 -0.18065406352E-01  0.99701674380E-01  0.51100000000E-03 0. -1.
         11    1    4    4    0    0 -0.19983944776E-01  0.22388540812E-01 -0.95307140989E-02  0.31491275629E-01  0.51100000000E-03 0.  1.
</event>
<event>
 8    1  0.1061722E+005  0.1043930E+01  0.7957747E-01            NaN
         13   -1    0    0    0    0  0.00000000000E+00  0.00000000000E+00  0.74505805969E-08  0.10566000000E+00  0.10566000000E+00 0.  1.
     999900   -1    0    0    0    0 -0.00000000000E+00 -0.00000000000E+00 -0.74505805969E-08  0.93827000000E+00  0.93827000000E+00 0.  1.
     999902    2    1    2    0    0  0.99766264062E-04  0.15172950409E-01 -0.18210609331E-01  0.10202265262E+01  0.10199511312E+01 0.  0.
     999903    2    3    3    0    0 -0.90028004314E-01  0.58858853803E-01 -0.75189127723E-01  0.13271425884E+00  0.19755083869E-01 0.  0.
         14    1    1    2    0    0 -0.99766264062E-04 -0.15172950409E-01  0.18210609331E-01  0.23703473789E-01  0.00000000000E+00 0. -1.
     999901    1    3    3    0    0  0.90127770578E-01 -0.43685903393E-01  0.56978518392E-01  0.88751226738E+00  0.88000000000E+00 0. -1.
        -11    1    4    4    0    0 -0.26783174011E-01  0.83357647743E-02 -0.24154152152E-01  0.37020366984E-01  0.51100000000E-03 0. -1.
         11    1    4    4    0    0 -0.63244830303E-01  0.50523089028E-01 -0.51034975572E-01  0.95693891851E-01  0.51100000000E-03 0.  1.
</event>
<event>
 8    1  0.1061722E+005  0.1043930E+01  0.7957747E-01            NaN
         13   -1    0    0    0    0  0.00000000000E+00  0.00000000000E+00  0.74505805969E-08  0.10566000000E+00  0.10566000000E+00 0. -1.
     999900   -1    0    0    0    0 -0.00000000000E+00 -0.00000000000E+00 -0.74505805969E-08  0.93827000000E+00  0.93827000000E+00 0. -1.
     999902    2    1    2    0    0  0.72262545821E-02  0.12708040083E-02 -0.22733645625E-01  0.10200416693E+01  0.10197619109E+01 0.  0.
     999903    2    3    3    0    0  0.58286539283E-01  0.41152724938E-01 -0.11082804724E+00  0.13327318553E+00  0.19698185070E-01 0.  0.
         14    1    1    2    0    0 -0.72262545821E-02 -0.12708040083E-02  0.22733645625E-01  0.23888330656E-01  0.00000000000E+00 0. -1.
     999901    1    3    3    0    0 -0.51060284701E-01 -0.39881920930E-01  0.88094401614E-01  0.88676848381E+00  0.88000000000E+00 0.  1.
        -11    1    4    4    0    0  0.29265494788E-01  0.90546161116E-02 -0.42462637830E-01  0.52362123625E-01  0.51100000000E-03 0. -1.
         11    1    4    4    0    0  0.29021044496E-01  0.32098108827E-01 -0.68365409409E-01  0.80911061905E-01  0.51100000000E-03 0.  1.
</event>
<event>
 8    1  0.1061722E+005  0.1043930E+01  0.7957747E-01            NaN
         13   -1    0    0    0    0  0.00000000000E+00  0.00000000000E+00  0.74505805969E-08  0.10566000000E+00  0.10566000000E+00 0.  1.
     999900   -1    0    0    0    0 -0.00000000000E+00 -0.00000000000E+00 -0.74505805969E-08  0.93827000000E+00  0.93827000000E+00 0. -1.
     999902    2    1    2    0    0  0.16584536746E-01 -0.41161602369E-02  0.16130062674E-01  0.10204317329E+01  0.10201611407E+01 0.  0.
     999903    2    3    3    0    0  0.36999224116E-01 -0.36567389734E-01 -0.11696094543E+00  0.12959894378E+00  0.20246157550E-01 0.  0.
         14    1    1    2    0    0 -0.16584536746E-01  0.41161602369E-02 -0.16130062674E-01  0.23498267086E-01  0.00000000000E+00 0. -1.
     999901    1    3    3    0    0 -0.20414687370E-01  0.32451229498E-01  0.13309100811E+00  0.89083278913E+00  0.88000000000E+00 0.  1.
        -11    1    4    4    0    0  0.16634127598E-01 -0.26966958105E-01 -0.83059678874E-01  0.88899282371E-01  0.51100000000E-03 0. -1.
         11    1    4    4    0    0  0.20365096518E-01 -0.96004316297E-02 -0.33901266558E-01  0.40699661410E-01  0.51100000000E-03 0.  1.
</event>
<event>
 8    1  0.1061722E+005  0.1043930E+01  0.7957747E-01            NaN
         13   -1    0    0    0    0  0.00000000000E+00  0.00000000000E+00  0.74505805969E-08  0.10566000000E+00  0.10566000000E+00 0.  1.
     999900   -1    0    0    0    0 -0.00000000000E+00 -0.00000000000E+00 -0.74505805969E-08  0.93827000000E+00  0.93827000000E+00 0. -1.
     999902    2    1    2    0    0  0.22196390342E-01 -0.12836976524E-01  0.14011168409E-02  0.10182506145E+01  0.10179267572E+01 0.  0.
     999903    2    3    3    0    0 -0.41517253791E-01  0.67265075273E-02  0.11961227830E+00  0.12784843738E+00  0.16407240920E-01 0.  0.
         14    1    1    2    0    0 -0.22196390342E-01  0.12836976524E-01 -0.14011168409E-02  0.25679385485E-01  0.00000000000E+00 0.  1.
     999901    1    3    3    0    0  0.63713644133E-01 -0.19563484051E-01 -0.11821116146E+00  0.89040217714E+00  0.88000000000E+00 0. -1.
        -11    1    4    4    0    0 -0.23370963826E-01  0.11582588025E-01  0.62588758164E-01  0.67808348048E-01  0.51100000000E-03 0.  1.
         11    1    4    4    0    0 -0.18146289965E-01 -0.48560804982E-02  0.57023520134E-01  0.60040089330E-01  0.51100000000E-03 0. -1.
</event>
<event>
 8    1  0.1061722E+005  0.1043930E+01  0.7957747E-01            NaN
         13   -1    0    0    0    0  0.00000000000E+00  0.00000000000E+00  0.74505805969E-08  0.10566000000E+00  0.10566000000E+00 0.  1.
     999900   -1    0    0    0    0 -0.00000000000E+00 -0.00000000000E+00 -0.74505805969E-08  0.93827000000E+00  0.93827000000E+00 0.  1.
     999902    2    1    2    0    0  0.67576299228E-02 -0.25797318663E-01 -0.15871907061E-02  0.10172150906E+01  0.10168642260E+01 0.  0.
     999903    2    3    3    0    0  0.73959113438E-01 -0.76174235125E-01  0.72637680196E-01  0.13010562461E+00  0.19462179083E-01 0.  0.
         14    1    1    2    0    0 -0.67576299228E-02  0.25797318663E-01  0.15871907061E-02  0.26714909446E-01  0.00000000000E+00 0. -1.
     999901    1    3    3    0    0 -0.67201483515E-01  0.50376916463E-01 -0.74224870902E-01  0.88710946594E+00  0.88000000000E+00 0.  1.
        -11    1    4    4    0    0  0.43489194783E-01 -0.35507750063E-01  0.29372358844E-01  0.63364871676E-01  0.51100000000E-03 0.  1.
         11    1    4    4    0    0  0.30469918655E-01 -0.40666485062E-01  0.43265321352E-01  0.66740752939E-01  0.51100000000E-03 0. -1.
</event>
<event>
 8    1  0.1061722E+005  0.1043930E+01  0.7957747E-01            NaN
         13   -1    0    0    0    0  0.00000000000E+00  0.00000000000E+00  0.74505805969E-08  0.10566000000E+00  0.10566000000E+00 0. -1.
     999900   -1    0    0    0    0 -0.00000000000E+00 -0.00000000000E+00 -0.74505805969E-08  0.93827000000E+00  0.93827000000E+00 0.  1.
     999902    2    1    2    0    0 -0.58534384656E-02 -0.22547291551E-01 -0.37071421255E-02  0.10203421641E+01  0.10200694809E+01 0.  0.
     999903    2    3    3    0    0  0.55968274947E-01  0.79849495633E-01  0.80822719180E-01  0.12823660775E+00  0.20097907317E-01 0.  0.
         14    1    1    2    0    0  0.58534384656E-02  0.22547291551E-01  0.37071421255E-02  0.23587835867E-01  0.00000000000E+00 0. -1.
     999901    1    3    3    0    0 -0.61821713413E-01 -0.10239678718E+00 -0.84529861306E-01  0.89210555638E+00  0.88000000000E+00 0.  1.
        -11    1    4    4    0    0  0.11577535171E-01  0.59063785571E-02  0.73652059741E-02  0.14947642233E-01  0.51100000000E-03 0.  1.
         11    1    4    4    0    0  0.44390739777E-01  0.73943117076E-01  0.73457513206E-01  0.11328896552E+00  0.51100000000E-03 0. -1.
</event>
<event>
 8    1  0.1061722E+005  0.1043930E+01  0.7957747E-01            NaN
         13   -1    0    0    0    0  0.00000000000E+00  0.00000000000E+00  0.74505805969E-08  0.10566000000E+00  0.10566000000E+00 0.  1.
     999900   -1    0    0    0    0 -0.00000000000E+00 -0.00000000000E+00 -0.74505805969E-08  0.93827000000E+00  0.93827000000E+00 0.  1.
     999902    2    1    2    0    0 -0.11036179006E-01 -0.20494695777E-01 -0.39253948970E-02  0.10203240997E+01  0.10200509938E+01 0.  0.
     999903    2    3    3    0    0 -0.73959478706E-01  0.73394019441E-01 -0.75396882111E-01  0.13022151802E+00  0.20402630816E-01 0.  0.
         14    1    1    2    0    0  0.11036179006E-01  0.20494695777E-01  0.39253948970E-02  0.23605900261E-01  0.00000000000E+00 0. -1.
     999901    1    3    3    0    0  0.62923299700E-01 -0.93888715218E-01  0.71471487214E-01  0.89010258171E+00  0.88000000000E+00 0.  1.
        -11    1    4    4    0    0 -0.40996447581E-01  0.51206028797E-01 -0.38886980544E-01  0.76257619136E-01  0.51100000000E-03 0. -1.
         11    1    4    4    0    0 -0.32963031125E-01  0.22187990644E-01 -0.36509901567E-01  0.53963898888E-01  0.51100000000E-03 0.  1.
</event>
<event>
 8    1  0.1061722E+005  0.1043930E+01  0.7957747E-01            NaN
         13   -1    0    0    0    0  0.00000000000E+00  0.00000000000E+00  0.74505805969E-08  0.10566000000E+00  0.10566000000E+00 0. -1.
     999900   -1    0    0    0    0 -0.00000000000E+00 -0.00000000000E+00 -0.74505805969E-08  0.93827000000E+00  0.93827000000E+00 0.  1.
     999902    2    1    2    0    0 -0.33338940228E-02 -0.25012436222E-02 -0.24535279855E-01  0.10190432359E+01  0.10187393021E+01 0.  0.
     999903    2    3    3    0    0  0.91392887048E-01 -0.58140430563E-01 -0.70467649071E-01  0.13102371771E+00  0.21646144403E-01 0.  0.
         14    1    1    2    0    0  0.33338940228E-02  0.25012436222E-02  0.24535279855E-01  0.24886764084E-01  0.00000000000E+00 0. -1.
     999901    1    3    3    0    0 -0.94726781071E-01  0.55639186941E-01  0.45932369215E-01  0.88801951821E+00  0.88000000000E+00 0. -1.
        -11    1    4    4    0    0  0.43696951529E-01 -0.32628382550E-01 -0.23495793741E-01  0.59383064633E-01  0.51100000000E-03 0.  1.
         11    1    4    4    0    0  0.47695935520E-01 -0.25512048013E-01 -0.46971855330E-01  0.71640653075E-01  0.51100000000E-03 0. -1.
</event>
<event>
 8    1  0.1061722E+005  0.1043930E+01  0.7957747E-01            NaN
         13   -1    0    0    0    0  0.00000000000E+00  0.00000000000E+00  0.74505805969E-08  0.10566000000E+00  0.10566000000E+00 0. -1.
     999900   -1    0    0    0    0 -0.00000000000E+00 -0.00000000000E+00 -0.74505805969E-08  0.93827000000E+00  0.93827000000E+00 0. -1.
     999902    2    1    2    0    0 -0.45278545220E-02 -0.17692724207E-01 -0.15378780188E-01  0.10200544720E+01  0.10197750169E+01 0.  0.
     999903    2    3    3    0    0  0.30139327749E-01  0.74013851589E-01  0.97159312319E-01  0.12748697774E+00  0.20653528009E-01 0.  0.
         14    1    1    2    0    0  0.45278545220E-02  0.17692724207E-01  0.15378780188E-01  0.23875527984E-01  0.00000000000E+00 0. -1.
     999901    1    3    3    0    0 -0.34667182271E-01 -0.91706575796E-01 -0.11253809251E+00  0.89256749427E+00  0.88000000000E+00 0.  1.
        -11    1    4    4    0    0  0.16806746397E-01  0.52141373164E-01  0.51826876526E-01  0.75415355011E-01  0.51100000000E-03 0. -1.
         11    1    4    4    0    0  0.13332581352E-01  0.21872478424E-01  0.45332435793E-01  0.52071622731E-01  0.51100000000E-03 0.  1.
</event>
<event>
 8    1  0.1061722E+005  0.1043930E+01  0.7957747E-01            NaN
         13   -1    0    0    0    0  0.00000000000E+00  0.00000000000E+00  0.74505805969E-08  0.10566000000E+00  0.10566000000E+00 0.  1.
     999900   -1    0    0    0    0 -0.00000000000E+00 -0.00000000000E+00 -0.74505805969E-08  0.93827000000E+00  0.93827000000E+00 0.  1.
     999902    2    1    2    0    0 -0.11069031210E-01 -0.15248375364E-01  0.16070407203E-01  0.10191652187E+01  0.10188642936E+01 0.  0.
     999903    2    3    3    0    0 -0.53599832191E-01  0.90357602556E-02 -0.11413753547E+00  0.12823722131E+00  0.21513273846E-01 0.  0.
         14    1    1    2    0    0  0.11069031210E-01  0.15248375364E-01 -0.16070407203E-01  0.24764781260E-01  0.00000000000E+00 0.  1.
     999901    1    3    3    0    0  0.42530800981E-01 -0.24284135620E-01  0.13020794267E+00  0.89092799743E+00  0.88000000000E+00 0. -1.
        -11    1    4    4    0    0 -0.33591132840E-01  0.79376169129E-02 -0.92549744149E-01  0.98777964298E-01  0.51100000000E-03 0. -1.
         11    1    4    4    0    0 -0.20008699351E-01  0.10981433427E-02 -0.21587791319E-01  0.29459257010E-01  0.51100000000E-03 0.  1.
</event>
<event>
 8    1  0.1061722E+005  0.1043930E+01  0.7957747E-01            NaN
         13   -1    0    0    0    0  0.00000000000E+00  0.00000000000E+00  0.74505805969E-08  0.10566000000E+00  0.10566000000E+00 0.  1.
     999900   -1    0    0    0    0 -0.00000000000E+00 -0.00000000000E+00 -0.74505805969E-08  0.93827000000E+00  0.93827000000E+00 0. -1.
     999902    2    1    2    0    0  0.19898060662E-01 -0.27453187958E-02 -0.14101949023E-01  0.10193874948E+01  0.10190920126E+01 0.  0.
     999903    2    3    3    0    0 -0.23280855285E-01 -0.16220682524E-01 -0.12666505381E+00  0.13106522405E+00  0.18136932930E-01 0.  0.
         14    1    1    2    0    0 -0.19898060662E-01  0.27453187958E-02  0.14101949023E-01  0.24542505162E-01  0.00000000000E+00 0. -1.
     999901    1    3    3    0    0  0.43178915947E-01  0.13475363728E-01  0.11256310478E+00  0.88832227078E+00  0.88000000000E+00 0.  1.
        -11    1    4    4    0    0 -0.10415040901E-01 -0.64297801400E-02 -0.91998070587E-01  0.92810135558E-01  0.51100000000E-03 0.  1.
         11    1    4    4    0    0 -0.12865814384E-01 -0.97909023843E-02 -0.34666983221E-01  0.38255088497E-01  0.51100000000E-03 0. -1.
</event>
<event>
 8    1  0.1061722E+005  0.1043930E+01  0.7957747E-01            NaN
         13   -1    0    0    0    0  0.00000000000E+00  0.00000000000E+00  0.74505805969E-08  0.10566000000E+00  0.10566000000E+00 0. -1.
     999900   -1    0    0    0    0 -0.00000000000E+00 -0.00000000000E+00 -0.74505805969E-08  0.93827000000E+00  0.93827000000E+00 0. -1.
     999902    2    1    2    0    0  0.15225815455E-01 -0.72034555693E-02  0.16911344392E-01  0.10200614266E+01  0.10197821361E+01 0.  0.
     999903    2    3    3    0    0 -0.12407198915E+00 -0.24504935844E-01  0.14459995087E-01  0.12893336131E+00  0.20502922435E-01 0.  0.
         14    1    1    2    0    0 -0.15225815455E-01  0.72034555693E-02 -0.16911344392E-01  0.23868573429E-01  0.00000000000E+00 0.  1.
     999901    1    3    3    0    0  0.13929780460E+00  0.17301480274E-01  0.24513493052E-02  0.89112806526E+00  0.88000000000E+00 0. -1.
        -11    1    4    4    0    0 -0.76471409787E-02 -0.52165587782E-02 -0.27543389103E-02  0.96715435411E-02  0.51100000000E-03 0. -1.
         11    1    4    4    0    0 -0.11642484817E+00 -0.19288377065E-01  0.17214333997E-01  0.11926181777E+00  0.51100000000E-03 0.  1.
</event>
<event>
 8    1  0.1061722E+005  0.1043930E+01  0.7957747E-01            NaN
         13   -1    0    0    0    0  0.00000000000E+00  0.00000000000E+00  0.74505805969E-08  0.10566000000E+00  0.10566000000E+00 0. -1.
     999900   -1    0    0    0    0 -0.00000000000E+00 -0.00000000000E+00 -0.74505805969E-08  0.93827000000E+00  0.93827000000E+00 0.  1.
     999902    2    1    2    0    0  0.13543691646E-01  0.18838340868E-01 -0.32980066836E-02  0.10204951644E+01  0.10202260480E+01 0.  0.
     999903    2    3    3    0    0  0.12409180776E+00  0.31975544347E-01  0.29160372849E-01  0.13288769573E+00  0.19687563141E-01 0.  0.
         14    1    1    2    0    0 -0.13543691646E-01 -0.18838340868E-01  0.32980066836E-02  0.23434835569E-01  0.00000000000E+00 0. -1.
     999901    1    3    3    0    0 -0.11054811611E+00 -0.13137203479E-01 -0.32458379533E-01  0.88760746870E+00  0.88000000000E+00 0.  1.
        -11    1    4    4    0    0  0.11297651900E+00  0.34550528274E-01  0.27940284639E-01  0.12140162056E+00  0.51100000000E-03 0.  1.
         11    1    4    4    0    0  0.11115288762E-01 -0.25749839270E-02  0.12200882104E-02  0.11486075167E-01  0.51100000000E-03 0. -1.
</event>
<event>
 8    1  0.1061722E+005  0.1043930E+01  0.7957747E-01            NaN
         13   -1    0    0    0    0  0.00000000000E+00  0.00000000000E+00  0.74505805969E-08  0.10566000000E+00  0.10566000000E+00 0. -1.
     999900   -1    0    0    0    0 -0.00000000000E+00 -0.00000000000E+00 -0.74505805969E-08  0.93827000000E+00  0.93827000000E+00 0.  1.
     999902    2    1    2    0    0 -0.50382389696E-02  0.15504198979E-01  0.15837710303E-01  0.10212012274E+01  0.10209482600E+01 0.  0.
     999903    2    3    3    0    0  0.98871603227E-02  0.12383087895E-01 -0.12689397952E+00  0.12957078589E+00  0.20866473410E-01 0.  0.
         14    1    1    2    0    0  0.50382389696E-02 -0.15504198979E-01 -0.15837710303E-01  0.22728772636E-01  0.00000000000E+00 0.  1.
     999901    1    3    3    0    0 -0.14925399292E-01  0.31211110840E-02  0.14273168983E+00  0.89163044147E+00  0.88000000000E+00 0. -1.
        -11    1    4    4    0    0 -0.47315521972E-02  0.70578228167E-02 -0.72345335123E-01  0.72844416973E-01  0.51100000000E-03 0. -1.
         11    1    4    4    0    0  0.14618712520E-01  0.53252650781E-02 -0.54548644400E-01  0.56726368919E-01  0.51100000000E-03 0.  1.
</event>
<event>
 8    1  0.1061722E+005  0.1043930E+01  0.7957747E-01            NaN
         13   -1    0    0    0    0  0.00000000000E+00  0.00000000000E+00  0.74505805969E-08  0.10566000000E+00  0.10566000000E+00 0. -1.
     999900   -1    0    0    0    0 -0.00000000000E+00 -0.00000000000E+00 -0.74505805969E-08  0.93827000000E+00  0.93827000000E+00 0.  1.
     999902    2    1    2    0    0 -0.14009692294E-01 -0.80693598158E-02  0.18457332707E-01  0.10193931058E+01  0.10190977603E+01 0.  0.
     999903    2    3    3    0    0 -0.60886960320E-01 -0.10748842063E+00  0.42657681716E-01  0.13222497924E+00  0.20069499711E-01 0.  0.
         14    1    1    2    0    0  0.14009692294E-01  0.80693598158E-02 -0.18457332707E-01  0.24536894194E-01  0.00000000000E+00 0.  1.
     999901    1    3    3    0    0  0.46877268026E-01  0.99419060811E-01 -0.24200349009E-01  0.88716812657E+00  0.88000000000E+00 0.  1.
        -11    1    4    4    0    0 -0.39558284185E-02 -0.11438295302E-01 -0.13931682037E-02  0.12193654765E-01  0.51100000000E-03 0.  1.
         11    1    4    4    0    0 -0.56931131902E-01 -0.96050125326E-01  0.44050849920E-01  0.12003132447E+00  0.51100000000E-03 0. -1.
</event>
<event>
 8    1  0.1061722E+005  0.1043930E+01  0.7957747E-01            NaN
         13   -1    0    0    0    0  0.00000000000E+00  0.00000000000E+00  0.74505805969E-08  0.10566000000E+00  0.10566000000E+00 0.  1.
     999900   -1    0    0    0    0 -0.00000000000E+00 -0.00000000000E+00 -0.74505805969E-08  0.93827000000E+00  0.93827000000E+00 0.  1.
     999902    2    1    2    0    0 -0.12750609512E-01 -0.20140900654E-02 -0.18927246810E-01  0.10210198434E+01  0.10207627763E+01 0.  0.
     999903    2    3    3    0    0 -0.12956496633E+00 -0.15101319492E-01  0.13673943021E-01  0.13260569052E+00  0.19548966491E-01 0.  0.
         14    1    1    2    0    0  0.12750609512E-01  0.20140900654E-02  0.18927246810E-01  0.22910156558E-01  0.00000000000E+00 0.  1.
     999901    1    3    3    0    0  0.11681435682E+00  0.13087229426E-01 -0.32601189831E-01  0.88841415292E+00  0.88000000000E+00 0.  1.
        -11    1    4    4    0    0 -0.11126510685E+00 -0.79089395495E-02  0.16408299939E-01  0.11274736695E+00  0.51100000000E-03 0. -1.
         11    1    4    4    0    0 -0.18299859478E-01 -0.71923799423E-02 -0.27343569176E-02  0.19858323567E-01  0.51100000000E-03 0.  1.
</event>
<event>
 8    1  0.1061722E+005  0.1043930E+01  0.7957747E-01            NaN
         13   -1    0    0    0    0  0.00000000000E+00  0.00000000000E+00  0.74505805969E-08  0.10566000000E+00  0.10566000000E+00 0. -1.
     999900   -1    0    0    0    0 -0.00000000000E+00 -0.00000000000E+00 -0.74505805969E-08  0.93827000000E+00  0.93827000000E+00 0.  1.
     999902    2    1    2    0    0  0.20397776445E-01  0.20304689101E-01  0.54715000817E-02  0.10146334644E+01  0.10142104220E+01 0.  0.
     999903    2    3    3    0    0  0.10099525783E-01  0.11348232191E+00 -0.54423959929E-01  0.12762974890E+00  0.18631896932E-01 0.  0.
         14    1    1    2    0    0 -0.20397776445E-01 -0.20304689101E-01 -0.54715000817E-02  0.29296535572E-01  0.00000000000E+00 0. -1.
     999901    1    3    3    0    0  0.10298250662E-01 -0.93177632812E-01  0.59895460010E-01  0.88700371552E+00  0.88000000000E+00 0. -1.
        -11    1    4    4    0    0  0.18707473407E-02  0.66463649098E-01 -0.22470142410E-01  0.70186072465E-01  0.51100000000E-03 0.  1.
         11    1    4    4    0    0  0.82287784424E-02  0.47018672814E-01 -0.31953817518E-01  0.57443676439E-01  0.51100000000E-03 0. -1.
</event>
<event>
 8    1  0.1061722E+005  0.1043930E+01  0.7957747E-01            NaN
         13   -1    0    0    0    0  0.00000000000E+00  0.00000000000E+00  0.74505805969E-08  0.10566000000E+00  0.10566000000E+00 0. -1.
     999900   -1    0    0    0    0 -0.00000000000E+00 -0.00000000000E+00 -0.74505805969E-08  0.93827000000E+00  0.93827000000E+00 0.  1.
     999902    2    1    2    0    0 -0.56732351596E-02  0.22429131978E-01  0.96579637450E-02  0.10188595428E+01  0.10185510494E+01 0.  0.
     999903    2    3    3    0    0  0.66995239834E-01  0.42805640241E-01  0.10140626764E+00  0.13087662599E+00  0.22907970616E-01 0.  0.
         14    1    1    2    0    0  0.56732351596E-02 -0.22429131978E-01 -0.96579637450E-02  0.25070457159E-01  0.00000000000E+00 0.  1.
     999901    1    3    3    0    0 -0.72668474994E-01 -0.20376508263E-01 -0.91748303895E-01  0.88798291685E+00  0.88000000000E+00 0.  1.
        -11    1    4    4    0    0  0.20511143819E-01  0.20238238646E-01  0.22532014401E-01  0.36582046392E-01  0.51100000000E-03 0.  1.
         11    1    4    4    0    0  0.46484096015E-01  0.22567401595E-01  0.78874253239E-01  0.94294579601E-01  0.51100000000E-03 0. -1.
</event>
<event>
 8    1  0.1061722E+005  0.1043930E+01  0.7957747E-01            NaN
         13   -1    0    0    0    0  0.00000000000E+00  0.00000000000E+00  0.74505805969E-08  0.10566000000E+00  0.10566000000E+00 0.  1.
     999900   -1    0    0    0    0 -0.00000000000E+00 -0.00000000000E+00 -0.74505805969E-08  0.93827000000E+00  0.93827000000E+00 0.  1.
     999902    2    1    2    0    0  0.20477400616E-01  0.28470753484E-02  0.11611359975E-01  0.10202181158E+01  0.10199425230E+01 0.  0.
     999903    2    3    3    0    0 -0.97728711132E-01 -0.80190597402E-01 -0.87502674175E-02  0.12820772578E+00  0.19473594397E-01 0.  0.
         14    1    1    2    0    0 -0.20477400616E-01 -0.28470753484E-02 -0.11611359975E-01  0.23711884246E-01  0.00000000000E+00 0. -1.
     999901    1    3    3    0    0  0.11820611175E+00  0.83037672751E-01  0.20361627392E-01  0.89201038997E+00  0.88000000000E+00 0. -1.
        -11    1    4    4    0    0 -0.35907598290E-01 -0.27967418711E-01  0.61141176047E-02  0.45925762698E-01  0.51100000000E-03 0.  1.
         11    1    4    4    0    0 -0.61821112842E-01 -0.52223178692E-01 -0.14864385022E-01  0.82281963083E-01  0.51100000000E-03 0. -1.
</event>
<event>
 8    1  0.1061722E+005  0.1043930E+01  0.7957747E-01            NaN
         13   -1    0    0    0    0  0.00000000000E+00  0.00000000000E+00  0.74505805969E-08  0.10566000000E+00  0.10566000000E+00 0. -1.
     999900   -1    0    0    0    0 -0.00000000000E+00 -0.00000000000E+00 -0.74505805969E-08  0.93827000000E+00  0.93827000000E+00 0.  1.
     999902    2    1    2    0    0  0.12827171193E-01 -0.11590570826E-01 -0.16002274145E-01  0.10203726141E+01  0.10201006427E+01 0.  0.
     999903    2    3    3    0    0 -0.25655316749E-01 -0.11828495807E+00 -0.49792660380E-01  0.13245010377E+00  0.20351765946E-01 0.  0.
         14    1    1    2    0    0 -0.12827171193E-01  0.11590570826E-01  0.16002274145E-01  0.23557385905E-01  0.00000000000E+00 0. -1.
     999901    1    3    3    0    0  0.38482487942E-01  0.10669438724E+00  0.33790386235E-01  0.88792251033E+00  0.88000000000E+00 0. -1.
        -11    1    4    4    0    0 -0.13092586326E-01 -0.49662591544E-01 -0.31775426094E-01  0.60396420755E-01  0.51100000000E-03 0.  1.
         11    1    4    4    0    0 -0.12562730423E-01 -0.68622366524E-01 -0.18017234286E-01  0.72053683010E-01  0.51100000000E-03 0. -1.
</event>
<event>
 8    1  0.1061722E+005  0.1043930E+01  0.7957747E-01            NaN
         13   -1    0    0    0    0  0.00000000000E+00  0.00000000000E+00  0.74505805969E-08  0.10566000000E+00  0.10566000000E+00 0. -1.
     999900   -1    0    0    0    0 -0.00000000000E+00 -0.00000000000E+00 -0.74505805969E-08  0.93827000000E+00  0.93827000000E+00 0.  1.
     999902    2    1    2    0    0  0.20280301164E-02 -0.19609718929E-01 -0.12031021049E-01  0.10208345578E+01  0.10205732678E+01 0.  0.
     999903    2    3    3    0    0  0.92214814629E-01  0.88687053060E-01 -0.51140041852E-02  0.12959402235E+00  0.19987300264E-01 0.  0.
         14    1    1    2    0    0 -0.20280301164E-02  0.19609718929E-01  0.12031021049E-01  0.23095442193E-01  0.00000000000E+00 0.  1.
     999901    1    3    3    0    0 -0.90186784513E-01 -0.10829677199E+00 -0.69170168637E-02  0.89124053546E+00  0.88000000000E+00 0.  1.
        -11    1    4    4    0    0  0.41460879933E-01  0.33001900543E-01  0.63769765074E-02  0.53376558101E-01  0.51100000000E-03 0.  1.
         11    1    4    4    0    0  0.50753934696E-01  0.55685152517E-01 -0.11490980693E-01  0.76217464247E-01  0.51100000000E-03 0. -1.
</event>
<event>
 8    1  0.1061722E+005  0.1043930E+01  0.7957747E-01            NaN
         13   -1    0    0    0    0  0.00000000000E+00  0.00000000000E+00  0.74505805969E-08  0.10566000000E+00  0.10566000000E+00 0.  1.
     999900   -1    0    0    0    0 -0.00000000000E+00 -0.00000000000E+00 -0.74505805969E-08  0.93827000000E+00  0.93827000000E+00 0. -1.
     999902    2    1    2    0    0  0.10863768231E-01  0.20339887543E-01 -0.12248932573E-02  0.10208381649E+01  0.10205769574E+01 0.  0.
     999903    2    3    3    0    0  0.10739431493E+00 -0.49195236234E-01  0.53087388648E-01  0.13117356300E+00  0.20845206864E-01 0.  0.
         14    1    1    2    0    0 -0.10863768231E-01 -0.20339887543E-01  0.12248932573E-02  0.23091835114E-01  0.00000000000E+00 0.  1.
     999901    1    3    3    0    0 -0.96530546699E-01  0.69535123776E-01 -0.54312281905E-01  0.88966460189E+00  0.88000000000E+00 0. -1.
        -11    1    4    4    0    0  0.86349906471E-01 -0.36106043999E-01  0.50225780858E-01  0.10622072747E+00  0.51100000000E-03 0.  1.
         11    1    4    4    0    0  0.21044408459E-01 -0.13089192234E-01  0.28616077898E-02  0.24952835528E-01  0.51100000000E-03 0. -1.
</event>
<event>
 8    1  0.1061722E+005  0.1043930E+01  0.7957747E-01            NaN
         13   -1    0    0    0    0  0.00000000000E+00  0.00000000000E+00  0.74505805969E-08  0.10566000000E+00  0.10566000000E+00 0. -1.
     999900   -1    0    0    0    0 -0.00000000000E+00 -0.00000000000E+00 -0.74505805969E-08  0.93827000000E+00  0.93827000000E+00 0.  1.
     999902    2    1    2    0    0  0.13511487944E-01 -0.20415232872E-01  0.34380858824E-02  0.10192082995E+01  0.10189084333E+01 0.  0.
     999903    2    3    3    0    0 -0.32401339736E-01  0.85496424370E-01  0.87116502169E-01  0.12773348539E+00  0.19159147783E-01 0.  0.
         14    1    1    2    0    0 -0.13511487944E-01  0.20415232872E-01 -0.34380858824E-02  0.24721700472E-01  0.00000000000E+00 0. -1.
     999901    1    3    3    0    0  0.45912827680E-01 -0.10591165724E+00 -0.83678416286E-01  0.89147481414E+00  0.88000000000E+00 0.  1.
        -11    1    4    4    0    0 -0.29277994427E-01  0.65066196811E-01  0.57614518380E-01  0.91708804236E-01  0.51100000000E-03 0.  1.
         11    1    4    4    0    0 -0.31233453081E-02  0.20430227559E-01  0.29501983788E-01  0.36024681157E-01  0.51100000000E-03 0. -1.
</event>
<event>
 8    1  0.1061722E+005  0.1043930E+01  0.7957747E-01            NaN
         13   -1    0    0    0    0  0.00000000000E+00  0.00000000000E+00  0.74505805969E-08  0.10566000000E+00  0.10566000000E+00 0. -1.
     999900   -1    0    0    0    0 -0.00000000000E+00 -0.00000000000E+00 -0.74505805969E-08  0.93827000000E+00  0.93827000000E+00 0. -1.
     999902    2    1    2    0    0  0.17792136110E-01 -0.16046860773E-01 -0.12178212675E-02  0.10199394824E+01  0.10196572967E+01 0.  0.
     999903    2    3    3    0    0 -0.11464544731E+00  0.51951731387E-01  0.38125658390E-02  0.12742123222E+00  0.19469817166E-01 0.  0.
         14    1    1    2    0    0 -0.17792136110E-01  0.16046860773E-01  0.12178212675E-02  0.23990517640E-01  0.00000000000E+00 0.  1.
     999901    1    3    3    0    0  0.13243758342E+00 -0.67998592159E-01 -0.50303871065E-02  0.89251825014E+00  0.88000000000E+00 0. -1.
        -11    1    4    4    0    0 -0.43352553267E-01  0.30053923901E-01  0.29126728063E-02  0.52833956888E-01  0.51100000000E-03 0. -1.
         11    1    4    4    0    0 -0.71292894038E-01  0.21897807486E-01  0.89989303268E-03  0.74587275333E-01  0.51100000000E-03 0.  1.
</event>
<event>
 8    1  0.1061722E+005  0.1043930E+01  0.7957747E-01            NaN
         13   -1    0    0    0    0  0.00000000000E+00  0.00000000000E+00  0.74505805969E-08  0.10566000000E+00  0.10566000000E+00 0. -1.
     999900   -1    0    0    0    0 -0.00000000000E+00 -0.00000000000E+00 -0.74505805969E-08  0.93827000000E+00  0.93827000000E+00 0.  1.
     999902    2    1    2    0    0  0.21385510335E-01  0.34796553156E-02 -0.85583011688E-02  0.10206342370E+01  0.10203683419E+01 0.  0.
     999903    2    3    3    0    0  0.12159603499E+00 -0.15712887797E-01 -0.50633958816E-01  0.13374029527E+00  0.17034618457E-01 0.  0.
         14    1    1    2    0    0 -0.21385510335E-01 -0.34796553156E-02  0.85583011688E-02  0.23295762969E-01  0.00000000000E+00 0. -1.
     999901    1    3    3    0    0 -0.10021052465E+00  0.19192543113E-01  0.42075657647E-01  0.88689394176E+00  0.88000000000E+00 0.  1.
        -11    1    4    4    0    0  0.17499274230E-01 -0.83475182700E-02 -0.90412886171E-02  0.21398871015E-01  0.51100000000E-03 0. -1.
         11    1    4    4    0    0  0.10409676076E+00 -0.73653695269E-02 -0.41592670199E-01  0.11234142426E+00  0.51100000000E-03 0.  1.
</event>
<event>
 8    1  0.1061722E+005  0.1043930E+01  0.7957747E-01            NaN
         13   -1    0    0    0    0  0.00000000000E+00  0.00000000000E+00  0.74505805969E-08  0.10566000000E+00  0.10566000000E+00 0.  1.
     999900   -1    0    0    0    0 -0.00000000000E+00 -0.00000000000E+00 -0.74505805969E-08  0.93827000000E+00  0.93827000000E+00 0. -1.
     999902    2    1    2    0    0  0.56954956917E-02  0.18459955318E-01 -0.26787606365E-02  0.10244265547E+01  0.10242408806E+01 0.  0.
     999903    2    3    3    0    0 -0.37212369660E-01 -0.96731446837E-01 -0.79957325189E-01  0.13252851084E+00  0.20709878568E-01 0.  0.
         14    1    1    2    0    0 -0.56954956917E-02 -0.18459955318E-01  0.26787606365E-02  0.19503445338E-01  0.00000000000E+00 0.  1.
     999901    1    3    3    0    0  0.42907865351E-01  0.11519140215E+00  0.77278564553E-01  0.89189804382E+00  0.88000000000E+00 0. -1.
        -11    1    4    4    0    0  0.18089861140E-02 -0.77902396722E-02 -0.10081656304E-01  0.12878710329E-01  0.51100000000E-03 0. -1.
         11    1    4    4    0    0 -0.39021355774E-01 -0.88941207165E-01 -0.69875668886E-01  0.11964980051E+00  0.51100000000E-03 0.  1.
</event>
<event>
 8    1  0.1061722E+005  0.1043930E+01  0.7957747E-01            NaN
         13   -1    0    0    0    0  0.00000000000E+00  0.00000000000E+00  0.74505805969E-08  0.10566000000E+00  0.10566000000E+00 0. -1.
     999900   -1    0    0    0    0 -0.00000000000E+00 -0.00000000000E+00 -0.74505805969E-08  0.93827000000E+00  0.93827000000E+00 0.  1.
     999902    2    1    2    0    0 -0.42738640876E-02  0.25738616111E-01 -0.74143145349E-02  0.10168059455E+01  0.10164441039E+01 0.  0.
     999903    2    3    3    0    0  0.49220455595E-01 -0.10572837795E+00 -0.39967456443E-01  0.12483906279E+00  0.19653266188E-01 0.  0.
         14    1    1    2    0    0  0.42738640876E-02 -0.25738616111E-01  0.74143145349E-02  0.27124054520E-01  0.00000000000E+00 0.  1.
     999901    1    3    3    0    0 -0.53494319683E-01  0.13146699406E+00  0.32553141908E-01  0.89196688269E+00  0.88000000000E+00 0. -1.
        -11    1    4    4    0    0  0.14906892417E-01 -0.51462979200E-01 -0.12592550428E-01  0.55040776856E-01  0.51100000000E-03 0. -1.
         11    1    4    4    0    0  0.34313563178E-01 -0.54265398747E-01 -0.27374906015E-01  0.69798285935E-01  0.51100000000E-03 0.  1.
</event>
<event>
 8    1  0.1061722E+005  0.1043930E+01  0.7957747E-01            NaN
         13   -1    0    0    0    0  0.00000000000E+00  0.00000000000E+00  0.74505805969E-08  0.10566000000E+00  0.10566000000E+00 0.  1.
     999900   -1    0    0    0    0 -0.00000000000E+00 -0.00000000000E+00 -0.74505805969E-08  0.93827000000E+00  0.93827000000E+00 0. -1.
     999902    2    1    2    0    0  0.65731442362E-02  0.50083702913E-02 -0.21188506851E-01  0.10211870270E+01  0.10209337399E+01 0.  0.
     999903    2    3    3    0    0  0.95453177572E-01 -0.82238120580E-01  0.29251949943E-01  0.13098713362E+00  0.20676919839E-01 0.  0.
         14    1    1    2    0    0 -0.65731442362E-02 -0.50083702913E-02  0.21188506851E-01  0.22742972996E-01  0.00000000000E+00 0.  1.
     999901    1    3    3    0    0 -0.88880033336E-01  0.87246490871E-01 -0.50440456794E-01  0.89019989338E+00  0.88000000000E+00 0.  1.
        -11    1    4    4    0    0  0.79305349483E-01 -0.76494696816E-01  0.21953949020E-01  0.11235218777E+00  0.51100000000E-03 0. -1.
         11    1    4    4    0    0  0.16147828090E-01 -0.57434237633E-02  0.72980009234E-02  0.18634945855E-01  0.51100000000E-03 0.  1.
</event>
<event>
 8    1  0.1061722E+005  0.1043930E+01  0.7957747E-01            NaN
         13   -1    0    0    0    0  0.00000000000E+00  0.00000000000E+00  0.74505805969E-08  0.10566000000E+00  0.10566000000E+00 0. -1.
     999900   -1    0    0    0    0 -0.00000000000E+00 -0.00000000000E+00 -0.74505805969E-08  0.93827000000E+00  0.93827000000E+00 0. -1.
     999902    2    1    2    0    0  0.42105178851E-02 -0.12278635182E-01  0.24459629494E-01  0.10162394453E+01  0.10158621183E+01 0.  0.
     999903    2    3    3    0    0  0.15363988610E-01  0.90990168693E-01 -0.80356765870E-01  0.12395287561E+00  0.19795014704E-01 0.  0.
         14    1    1    2    0    0 -0.42105178851E-02  0.12278635182E-01 -0.24459629494E-01  0.27690554667E-01  0.00000000000E+00 0.  1.
     999901    1    3    3    0    0 -0.11153470725E-01 -0.10326880388E+00  0.10481639536E+00  0.89228656972E+00  0.88000000000E+00 0.  1.
        -11    1    4    4    0    0  0.44159698027E-02  0.43374135331E-01 -0.25582285587E-01  0.50552258722E-01  0.51100000000E-03 0. -1.
         11    1    4    4    0    0  0.10948018807E-01  0.47616033362E-01 -0.54774480283E-01  0.73400616893E-01  0.51100000000E-03 0.  1.
</event>
<event>
 8    1  0.1061722E+005  0.1043930E+01  0.7957747E-01            NaN
         13   -1    0    0    0    0  0.00000000000E+00  0.00000000000E+00  0.74505805969E-08  0.10566000000E+00  0.10566000000E+00 0. -1.
     999900   -1    0    0    0    0 -0.00000000000E+00 -0.00000000000E+00 -0.74505805969E-08  0.93827000000E+00  0.93827000000E+00 0. -1.
     999902    2    1    2    0    0  0.20336085720E-01  0.55585254271E-02  0.98465625101E-02  0.10206618161E+01  0.10203965575E+01 0.  0.
     999903    2    3    3    0    0  0.12246863968E+00 -0.46913000276E-01 -0.11804071105E-01  0.13293828399E+00  0.18271670812E-01 0.  0.
         14    1    1    2    0    0 -0.20336085720E-01 -0.55585254271E-02 -0.98465625101E-02  0.23268183870E-01  0.00000000000E+00 0.  1.
     999901    1    3    3    0    0 -0.10213255396E+00  0.52471525703E-01  0.21650633615E-01  0.88772353214E+00  0.88000000000E+00 0. -1.
        -11    1    4    4    0    0  0.10560653893E-01 -0.21652240091E-03 -0.43920683081E-02  0.11451012078E-01  0.51100000000E-03 0. -1.
         11    1    4    4    0    0  0.11190798579E+00 -0.46696477875E-01 -0.74120027973E-02  0.12148727191E+00  0.51100000000E-03 0.  1.
</event>
<event>
 8    1  0.1061722E+005  0.1043930E+01  0.7957747E-01            NaN
         13   -1    0    0    0    0  0.00000000000E+00  0.00000000000E+00  0.74505805969E-08  0.10566000000E+00  0.10566000000E+00 0.  1.
     999900   -1    0    0    0    0 -0.00000000000E+00 -0.00000000000E+00 -0.74505805969E-08  0.93827000000E+00  0.93827000000E+00 0. -1.
     999902    2    1    2    0    0 -0.57816323532E-02 -0.15841337031E-01  0.17744925194E-01  0.10194502614E+01  0.10191563069E+01 0.  0.
     999903    2    3    3    0    0 -0.11535766642E-01  0.49820083628E-01 -0.11497776733E+00  0.12706029881E+00  0.17587436122E-01 0.  0.
         14    1    1    2    0    0  0.57816323532E-02  0.15841337031E-01 -0.17744925194E-01  0.24479738596E-01  0.00000000000E+00 0.  1.
     999901    1    3    3    0    0  0.57541342883E-02 -0.65661420659E-01  0.13272269252E+00  0.89238996259E+00  0.88000000000E+00 0.  1.
        -11    1    4    4    0    0  0.37812717911E-03  0.10805906701E-01 -0.42835055793E-01  0.44181599401E-01  0.51100000000E-03 0.  1.
         11    1    4    4    0    0 -0.11913893821E-01  0.39014176927E-01 -0.72142711536E-01  0.82878699411E-01  0.51100000000E-03 0. -1.
</event>
<event>
 8    1  0.1061722E+005  0.1043930E+01  0.7957747E-01            NaN
         13   -1    0    0    0    0  0.00000000000E+00  0.00000000000E+00  0.74505805969E-08  0.10566000000E+00  0.10566000000E+00 0.  1.
     999900   -1    0    0    0    0 -0.00000000000E+00 -0.00000000000E+00 -0.74505805969E-08  0.93827000000E+00  0.93827000000E+00 0.  1.
     999902    2    1    2    0    0 -0.15481580081E-01  0.10896564348E-01  0.13717339946E-01  0.10205509527E+01  0.10202831309E+01 0.  0.
     999903    2    3    3    0    0 -0.19371350616E-01 -0.32505044749E-01  0.12556507101E+00  0.13240189714E+00  0.18216699748E-01 0.  0.
         14    1    1    2    0    0  0.15481580081E-01 -0.10896564348E-01 -0.13717339946E-01  0.23379047277E-01  0.00000000000E+00 0. -1.
     999901    1    3    3    0    0  0.38897705343E-02  0.43401609097E-01 -0.11184773107E+00  0.88814905558E+00  0.88000000000E+00 0.  1.
        -11    1    4    4    0    0 -0.15866334153E-01 -0.30558273924E-01  0.86107600793E-01  0.92737957170E-01  0.51100000000E-03 0.  1.
         11    1    4    4    0    0 -0.35050164625E-02 -0.19467708253E-02  0.39457470218E-01  0.39663939971E-01  0.51100000000E-03 0. -1.
</event>
<event>
 8    1  0.1061722E+005  0.1043930E+01  0.7957747E-01            NaN
         13   -1    0    0    0    0  0.00000000000E+00  0.00000000000E+00  0.74505805969E-08  0.10566000000E+00  0.10566000000E+00 0.  1.
     999900   -1    0    0    0    0 -0.00000000000E+00 -0.00000000000E+00 -0.74505805969E-08  0.93827000000E+00  0.93827000000E+00 0. -1.
     999902    2    1    2    0    0 -0.38793252049E-02 -0.18595297919E-01 -0.15869610771E-01  0.10191776503E+01  0.10188770309E+01 0.  0.
     999903    2    3    3    0    0 -0.36598503520E-01 -0.12511755476E+00  0.16670313096E-02  0.13197695732E+00  0.20525235723E-01 0.  0.
         14    1    1    2    0    0  0.38793252049E-02  0.18595297919E-01  0.15869610771E-01  0.24752349682E-01  0.00000000000E+00 0. -1.
     999901    1    3    3    0    0  0.32719178315E-01  0.10652225684E+00 -0.17536642081E-01  0.88720069299E+00  0.88000000000E+00 0. -1.
        -11    1    4    4    0    0 -0.93028823692E-02 -0.28578388147E-01  0.90195293562E-02  0.31382812497E-01  0.51100000000E-03 0. -1.
         11    1    4    4    0    0 -0.27295621151E-01 -0.96539166616E-01 -0.73524980466E-02  0.10059414483E+00  0.51100000000E-03 0.  1.
</event>
<event>
 8    1  0.1061722E+005  0.1043930E+01  0.7957747E-01            NaN
         13   -1    0    0    0    0  0.00000000000E+00  0.00000000000E+00  0.74505805969E-08  0.10566000000E+00  0.10566000000E+00 0.  1.
     999900   -1    0    0    0    0 -0.00000000000E+00 -0.00000000000E+00 -0.74505805969E-08  0.93827000000E+00  0.93827000000E+00 0. -1.
     999902    2    1    2    0    0  0.25302927913E-01  0.13893013950E-01 -0.18795906529E-02  0.10150027316E+01  0.10145904387E+01 0.  0.
     999903    2    3    3    0    0  0.97062654651E-01 -0.66913195143E-01 -0.43938964021E-01  0.12739465776E+00  0.20005790531E-01 0.  0.
         14    1    1    2    0    0 -0.25302927913E-01 -0.13893013950E-01  0.18795906529E-02  0.28927268426E-01  0.00000000000E+00 0. -1.
     999901    1    3    3    0    0 -0.71759726738E-01  0.80806209093E-01  0.42059373368E-01  0.88760807381E+00  0.88000000000E+00 0. -1.
        -11    1    4    4    0    0  0.73152635368E-01 -0.45412205734E-01 -0.40176308696E-01  0.95015648145E-01  0.51100000000E-03 0. -1.
         11    1    4    4    0    0  0.23910019282E-01 -0.21500989409E-01 -0.37626553252E-02  0.32379009617E-01  0.51100000000E-03 0.  1.
</event>
<event>
 8    1  0.1061722E+005  0.1043930E+01  0.7957747E-01            NaN
         13   -1    0    0    0    0  0.00000000000E+00  0.00000000000E+00  0.74505805969E-08  0.10566000000E+00  0.10566000000E+00 0.  1.
     999900   -1    0    0    0    0 -0.00000000000E+00 -0.00000000000E+00 -0.74505805969E-08  0.93827000000E+00  0.93827000000E+00 0. -1.
     999902    2    1    2    0    0 -0.12489913110E-01  0.18324981841E-01 -0.81685380375E-02  0.10202968051E+01  0.10200230598E+01 0.  0.
     999903    2    3    3    0    0 -0.80969719648E-01 -0.12582002099E-01 -0.10178292704E+00  0.13214795528E+00  0.19720942401E-01 0.  0.
         14    1    1    2    0    0  0.12489913110E-01 -0.18324981841E-01  0.81685380375E-02  0.23633194931E-01  0.00000000000E+00 0.  1.
     999901    1    3    3    0    0  0.68479806539E-01  0.30906983940E-01  0.93614389007E-01  0.88814884979E+00  0.88000000000E+00 0.  1.
        -11    1    4    4    0    0 -0.23095507901E-01 -0.12764430522E-01 -0.30877178463E-01  0.40620123616E-01  0.51100000000E-03 0. -1.
         11    1    4    4    0    0 -0.57874211747E-01  0.18242842241E-03 -0.70905748581E-01  0.91527831660E-01  0.51100000000E-03 0.  1.
</event>
<event>
 8    1  0.1061722E+005  0.1043930E+01  0.7957747E-01            NaN
         13   -1    0    0    0    0  0.00000000000E+00  0.00000000000E+00  0.74505805969E-08  0.10566000000E+00  0.10566000000E+00 0. -1.
     999900   -1    0    0    0    0 -0.00000000000E+00 -0.00000000000E+00 -0.74505805969E-08  0.93827000000E+00  0.93827000000E+00 0.  1.
     999902    2    1    2    0    0  0.43448194923E-02 -0.26899360562E-02  0.11322344012E-01  0.10315078953E+01  0.10314330949E+01 0.  0.
     999903    2    3    3    0    0 -0.72976691535E-01 -0.11179655459E+00  0.39999243564E-01  0.14094333564E+00  0.21000410693E-01 0.  0.
         14    1    1    2    0    0 -0.43448194923E-02  0.26899360562E-02 -0.11322344012E-01  0.12422104746E-01  0.00000000000E+00 0.  1.
     999901    1    3    3    0    0  0.77321511028E-01  0.10910661853E+00 -0.28676899553E-01  0.89056455962E+00  0.88000000000E+00 0.  1.
        -11    1    4    4    0    0 -0.19358216204E-01 -0.32805953169E-01  0.21343460016E-01  0.43666640636E-01  0.51100000000E-03 0. -1.
         11    1    4    4    0    0 -0.53618475332E-01 -0.78990601422E-01  0.18655783548E-01  0.97276695003E-01  0.51100000000E-03 0.  1.
</event>
<event>
 8    1  0.1061722E+005  0.1043930E+01  0.7957747E-01            NaN
         13   -1    0    0    0    0  0.00000000000E+00  0.00000000000E+00  0.74505805969E-08  0.10566000000E+00  0.10566000000E+00 0. -1.
     999900   -1    0    0    0    0 -0.00000000000E+00 -0.00000000000E+00 -0.74505805969E-08  0.93827000000E+00  0.93827000000E+00 0. -1.
     999902    2    1    2    0    0  0.18718366166E-01 -0.81194234410E-02 -0.11965977543E-01  0.10202765248E+01  0.10200023040E+01 0.  0.
     999903    2    3    3    0    0 -0.45179331309E-01  0.13381780641E-01 -0.12084508229E+00  0.13100723099E+00  0.18415119527E-01 0.  0.
         14    1    1    2    0    0 -0.18718366166E-01  0.81194234410E-02  0.11965977543E-01  0.23653475167E-01  0.00000000000E+00 0. -1.
     999901    1    3    3    0    0  0.63897697474E-01 -0.21501204082E-01  0.10887910475E+00  0.88926929384E+00  0.88000000000E+00 0. -1.
        -11    1    4    4    0    0 -0.28377995642E-01  0.82992315994E-03 -0.54940487867E-01  0.61844302383E-01  0.51100000000E-03 0. -1.
         11    1    4    4    0    0 -0.16801335666E-01  0.12551857481E-01 -0.65904594424E-01  0.69162928608E-01  0.51100000000E-03 0.  1.
</event>
<event>
 8    1  0.1061722E+005  0.1043930E+01  0.7957747E-01            NaN
         13   -1    0    0    0    0  0.00000000000E+00  0.00000000000E+00  0.74505805969E-08  0.10566000000E+00  0.10566000000E+00 0.  1.
     999900   -1    0    0    0    0 -0.00000000000E+00 -0.00000000000E+00 -0.74505805969E-08  0.93827000000E+00  0.93827000000E+00 0.  1.
     999902    2    1    2    0    0 -0.32631279266E-02  0.83205157610E-02 -0.21991661207E-01  0.10201915892E+01  0.10199153722E+01 0.  0.
     999903    2    3    3    0    0  0.11357828750E-01  0.25203564902E-01  0.12335978359E+00  0.12798878025E+00  0.19981784333E-01 0.  0.
         14    1    1    2    0    0  0.32631279266E-02 -0.83205157610E-02  0.21991661207E-01  0.23738410836E-01  0.00000000000E+00 0.  1.
     999901    1    3    3    0    0 -0.14620956676E-01 -0.16883049141E-01 -0.14535144480E+00  0.89220280891E+00  0.88000000000E+00 0.  1.
        -11    1    4    4    0    0 -0.19366641207E-03  0.20757183461E-01  0.61806740449E-01  0.65201475887E-01  0.51100000000E-03 0.  1.
         11    1    4    4    0    0  0.11551495162E-01  0.44463814408E-02  0.61553043144E-01  0.62787304367E-01  0.51100000000E-03 0. -1.
</event>
<event>
 8    1  0.1061722E+005  0.1043930E+01  0.7957747E-01            NaN
         13   -1    0    0    0    0  0.00000000000E+00  0.00000000000E+00  0.74505805969E-08  0.10566000000E+00  0.10566000000E+00 0. -1.
     999900   -1    0    0    0    0 -0.00000000000E+00 -0.00000000000E+00 -0.74505805969E-08  0.93827000000E+00  0.93827000000E+00 0.  1.
     999902    2    1    2    0    0 -0.19032750497E-01  0.10451723116E-01 -0.62637948940E-02  0.10213309019E+01  0.10210808450E+01 0.  0.
     999903    2    3    3    0    0  0.11663066875E+00  0.80728984126E-03 -0.53049956009E-01  0.12965465838E+00  0.19815852171E-01 0.  0.
         14    1    1    2    0    0  0.19032750497E-01 -0.10451723116E-01  0.62637948940E-02  0.22599098081E-01  0.00000000000E+00 0.  1.
     999901    1    3    3    0    0 -0.13566341925E+00  0.96444332748E-02  0.46786161115E-01  0.89167624354E+00  0.88000000000E+00 0. -1.
        -11    1    4    4    0    0  0.71828594157E-01  0.76495388017E-02 -0.39588803528E-01  0.82373520431E-01  0.51100000000E-03 0. -1.
         11    1    4    4    0    0  0.44802074595E-01 -0.68422489604E-02 -0.13461152481E-01  0.47281137951E-01  0.51100000000E-03 0.  1.
</event>
<event>
 8    1  0.1061722E+005  0.1043930E+01  0.7957747E-01            NaN
         13   -1    0    0    0    0  0.00000000000E+00  0.00000000000E+00  0.74505805969E-08  0.10566000000E+00  0.10566000000E+00 0. -1.
     999900   -1    0    0    0    0 -0.00000000000E+00 -0.00000000000E+00 -0.74505805969E-08  0.93827000000E+00  0.93827000000E+00 0.  1.
     999902    2    1    2    0    0 -0.52237640505E-02 -0.46728978039E-02 -0.22825849464E-01  0.10200523308E+01  0.10197728249E+01 0.  0.
     999903    2    3    3    0    0  0.78406099756E-01 -0.72110071955E-01 -0.75215905221E-01  0.13197212913E+00  0.20293632318E-01 0.  0.
         14    1    1    2    0    0  0.52237640505E-02  0.46728978039E-02  0.22825849464E-01  0.23877669243E-01  0.00000000000E+00 0. -1.
     999901    1    3    3    0    0 -0.83629863807E-01  0.67437174151E-01  0.52390055757E-01  0.88808020163E+00  0.88000000000E+00 0. -1.
        -11    1    4    4    0    0  0.62928351284E-01 -0.53524935378E-01 -0.67177969862E-01  0.10648021816E+00  0.51100000000E-03 0.  1.
         11    1    4    4    0    0  0.15477748472E-01 -0.18585136576E-01 -0.80379353592E-02  0.25491910975E-01  0.51100000000E-03 0. -1.
</event>
<event>
 8    1  0.1061722E+005  0.1043930E+01  0.7957747E-01            NaN
         13   -1    0    0    0    0  0.00000000000E+00  0.00000000000E+00  0.74505805969E-08  0.10566000000E+00  0.10566000000E+00 0.  1.
     999900   -1    0    0    0    0 -0.00000000000E+00 -0.00000000000E+00 -0.74505805969E-08  0.93827000000E+00  0.93827000000E+00 0. -1.
     999902    2    1    2    0    0 -0.13582657673E-01 -0.81170792272E-03 -0.20915507272E-01  0.10189779279E+01  0.10186723770E+01 0.  0.
     999903    2    3    3    0    0 -0.41146717855E-01 -0.36687367912E-01 -0.11879172734E+00  0.13239651883E+00  0.19451178892E-01 0.  0.
         14    1    1    2    0    0  0.13582657673E-01  0.81170792272E-03  0.20915507272E-01  0.24952072131E-01  0.00000000000E+00 0.  1.
     999901    1    3    3    0    0  0.27564060181E-01  0.35875659989E-01  0.97876220067E-01  0.88658140904E+00  0.88000000000E+00 0.  1.
        -11    1    4    4    0    0 -0.57112574110E-02  0.15323464787E-02 -0.17536456900E-01  0.18513643309E-01  0.51100000000E-03 0.  1.
         11    1    4    4    0    0 -0.35435460444E-01 -0.38219714391E-01 -0.10125527044E+00  0.11388287552E+00  0.51100000000E-03 0. -1.
</event>
<event>
 8    1  0.1061722E+005  0.1043930E+01  0.7957747E-01            NaN
         13   -1    0    0    0    0  0.00000000000E+00  0.00000000000E+00  0.74505805969E-08  0.10566000000E+00  0.10566000000E+00 0. -1.
     999900   -1    0    0    0    0 -0.00000000000E+00 -0.00000000000E+00 -0.74505805969E-08  0.93827000000E+00  0.93827000000E+00 0.  1.
     999902    2    1    2    0    0 -0.81779360526E-02  0.14918143651E-01  0.17117908460E-01  0.10197959486E+01  0.10195103356E+01 0.  0.
     999903    2    3    3    0    0  0.30761914340E-01 -0.74605387736E-02 -0.12214465809E+00  0.12771345249E+00  0.19734574632E-01 0.  0.
         14    1    1    2    0    0  0.81779360526E-02 -0.14918143651E-01 -0.17117908460E-01  0.24134051423E-01  0.00000000000E+00 0.  1.
     999901    1    3    3    0    0 -0.38939850393E-01  0.22378682424E-01  0.13926256655E+00  0.89208249608E+00  0.88000000000E+00 0. -1.
        -11    1    4    4    0    0  0.42734159461E-02 -0.35330643926E-02 -0.57094546599E-01  0.57365433844E-01  0.51100000000E-03 0. -1.
         11    1    4    4    0    0  0.26488498394E-01 -0.39274743810E-02 -0.65050111489E-01  0.70348018650E-01  0.51100000000E-03 0.  1.
</event>
<event>
 8    1  0.1061722E+005  0.1043930E+01  0.7957747E-01            NaN
         13   -1    0    0    0    0  0.00000000000E+00  0.00000000000E+00  0.74505805969E-08  0.10566000000E+00  0.10566000000E+00 0.  1.
     999900   -1    0    0    0    0 -0.00000000000E+00 -0.00000000000E+00 -0.74505805969E-08  0.93827000000E+00  0.93827000000E+00 0. -1.
     999902    2    1    2    0    0 -0.17600476083E-01  0.94897730084E-02  0.13357127297E-01  0.10198832663E+01  0.10195997409E+01 0.  0.
     999903    2    3    3    0    0 -0.10153435904E+00  0.55578731425E-01 -0.59752266631E-01  0.13167491675E+00  0.19228335363E-01 0.  0.
         14    1    1    2    0    0  0.17600476083E-01 -0.94897730084E-02 -0.13357127297E-01  0.24046733660E-01  0.00000000000E+00 0. -1.
     999901    1    3    3    0    0  0.83933882960E-01 -0.46088958417E-01  0.73109393927E-01  0.88820834959E+00  0.88000000000E+00 0.  1.
        -11    1    4    4    0    0 -0.25569060506E-01  0.50125578885E-02 -0.12302020747E-01  0.28818456364E-01  0.51100000000E-03 0. -1.
         11    1    4    4    0    0 -0.75965298538E-01  0.50566173537E-01 -0.47450245884E-01  0.10285646039E+00  0.51100000000E-03 0.  1.
</event>
<event>
 8    1  0.1061722E+005  0.1043930E+01  0.7957747E-01            NaN
         13   -1    0    0    0    0  0.00000000000E+00  0.00000000000E+00  0.74505805969E-08  0.10566000000E+00  0.10566000000E+00 0. -1.
     999900   -1    0    0    0    0 -0.00000000000E+00 -0.00000000000E+00 -0.74505805969E-08  0.93827000000E+00  0.93827000000E+00 0. -1.
     999902    2    1    2    0    0 -0.13221121486E-01  0.16075690362E-01  0.11120711012E-01  0.10203313541E+01  0.10200584180E+01 0.  0.
     999903    2    3    3    0    0  0.10327264332E+00 -0.61257432006E-01  0.42258178825E-01  0.12874807088E+00  0.19302855803E-01 0.  0.
         14    1    1    2    0    0  0.13221121486E-01 -0.16075690362E-01 -0.11120711012E-01  0.23598645880E-01  0.00000000000E+00 0.  1.
     999901    1    3    3    0    0 -0.11649376481E+00  0.77333122369E-01 -0.31137467813E-01  0.89158328324E+00  0.88000000000E+00 0.  1.
        -11    1    4    4    0    0  0.88520946999E-01 -0.44473932073E-01  0.31585044541E-01  0.10397963671E+00  0.51100000000E-03 0. -1.
         11    1    4    4    0    0  0.14751696324E-01 -0.16783499933E-01  0.10673134284E-01  0.24768434164E-01  0.51100000000E-03 0.  1.
</event>
<event>
 8    1  0.1061722E+005  0.1043930E+01  0.7957747E-01            NaN
         13   -1    0    0    0    0  0.00000000000E+00  0.00000000000E+00  0.74505805969E-08  0.10566000000E+00  0.10566000000E+00 0.  1.
     999900   -1    0    0    0    0 -0.00000000000E+00 -0.00000000000E+00 -0.74505805969E-08  0.93827000000E+00  0.93827000000E+00 0. -1.
     999902    2    1    2    0    0 -0.24274959248E-01 -0.20066765213E-02  0.71091247241E-02  0.10185559965E+01  0.10182398922E+01 0.  0.
     999903    2    3    3    0    0  0.11122870354E+00  0.10312780769E-01 -0.54764572595E-01  0.12595229608E+00  0.19663278895E-01 0.  0.
         14    1    1    2    0    0  0.24274959248E-01  0.20066765213E-02 -0.71091247241E-02  0.25374003458E-01  0.00000000000E+00 0. -1.
     999901    1    3    3    0    0 -0.13550366279E+00 -0.12319457290E-01  0.61873697319E-01  0.89260370046E+00  0.88000000000E+00 0. -1.
        -11    1    4    4    0    0  0.95201525523E-01  0.13351197965E-01 -0.40652752943E-01  0.10437668510E+00  0.51100000000E-03 0. -1.
         11    1    4    4    0    0  0.16027178022E-01 -0.30384171963E-02 -0.14111819652E-01  0.21575610983E-01  0.51100000000E-03 0.  1.
</event>
<event>
 8    1  0.1061722E+005  0.1043930E+01  0.7957747E-01            NaN
         13   -1    0    0    0    0  0.00000000000E+00  0.00000000000E+00  0.74505805969E-08  0.10566000000E+00  0.10566000000E+00 0. -1.
     999900   -1    0    0    0    0 -0.00000000000E+00 -0.00000000000E+00 -0.74505805969E-08  0.93827000000E+00  0.93827000000E+00 0.  1.
     999902    2    1    2    0    0  0.14278504967E-02 -0.11727645924E-01  0.20508340238E-01  0.10202621219E+01  0.10199875631E+01 0.  0.
     999903    2    3    3    0    0  0.46003661679E-01  0.55147950146E-01 -0.10383814422E+00  0.12789370216E+00  0.20415816531E-01 0.  0.
         14    1    1    2    0    0 -0.14278504967E-02  0.11727645924E-01 -0.20508340238E-01  0.23667878132E-01  0.00000000000E+00 0.  1.
     999901    1    3    3    0    0 -0.44575811182E-01 -0.66875596070E-01  0.12434648446E+00  0.89236841971E+00  0.88000000000E+00 0. -1.
        -11    1    4    4    0    0  0.14959808068E-01  0.20024253848E-01 -0.53807453100E-01  0.59331861000E-01  0.51100000000E-03 0.  1.
         11    1    4    4    0    0  0.31043853611E-01  0.35123696298E-01 -0.50030691119E-01  0.68561841162E-01  0.51100000000E-03 0. -1.
</event>
<event>
 8    1  0.1061722E+005  0.1043930E+01  0.7957747E-01            NaN
         13   -1    0    0    0    0  0.00000000000E+00  0.00000000000E+00  0.74505805969E-08  0.10566000000E+00  0.10566000000E+00 0.  1.
     999900   -1    0    0    0    0 -0.00000000000E+00 -0.00000000000E+00 -0.74505805969E-08  0.93827000000E+00  0.93827000000E+00 0.  1.
     999902    2    1    2    0    0  0.70395610174E-02  0.20273172626E-01  0.46038256478E-03  0.10224644718E+01  0.10222391243E+01 0.  0.
     999903    2    3    3    0    0  0.10965001430E+00  0.73863408112E-01 -0.15876968853E-01  0.13473268378E+00  0.20539942642E-01 0.  0.
         14    1    1    2    0    0 -0.70395610174E-02 -0.20273172626E-01 -0.46038256478E-03  0.21465528173E-01  0.00000000000E+00 0.  1.
     999901    1    3    3    0    0 -0.10261045328E+00 -0.53590235486E-01  0.16337351418E-01  0.88773178805E+00  0.88000000000E+00 0.  1.
        -11    1    4    4    0    0  0.44526137363E-01  0.35051045161E-01 -0.16122565294E-01  0.58918171289E-01  0.51100000000E-03 0. -1.
         11    1    4    4    0    0  0.65123876938E-01  0.38812362951E-01  0.24559644076E-03  0.75814512488E-01  0.51100000000E-03 0.  1.
</event>
<event>
 8    1  0.1061722E+005  0.1043930E+01  0.7957747E-01            NaN
         13   -1    0    0    0    0  0.00000000000E+00  0.00000000000E+00  0.74505805969E-08  0.10566000000E+00  0.10566000000E+00 0. -1.
     999900   -1    0    0    0    0 -0.00000000000E+00 -0.00000000000E+00 -0.74505805969E-08  0.93827000000E+00  0.93827000000E+00 0. -1.
     999902    2    1    2    0    0  0.50053855337E-02 -0.22293308340E-01 -0.65591202872E-02  0.10201588507E+01  0.10198818623E+01 0.  0.
     999903    2    3    3    0    0 -0.18252226635E-02 -0.12674650873E+00  0.34964770060E-01  0.13298279050E+00  0.19846372745E-01 0.  0.
         14    1    1    2    0    0 -0.50053855337E-02  0.22293308340E-01  0.65591202872E-02  0.23771149321E-01  0.00000000000E+00 0. -1.
     999901    1    3    3    0    0  0.68306081972E-02  0.10445320039E+00 -0.41523890348E-01  0.88717606018E+00  0.88000000000E+00 0. -1.
        -11    1    4    4    0    0 -0.78200755295E-02 -0.25108892192E-01  0.10093052419E-01  0.28173407258E-01  0.51100000000E-03 0.  1.
         11    1    4    4    0    0  0.59948528660E-02 -0.10163761654E+00  0.24871717642E-01  0.10480938324E+00  0.51100000000E-03 0. -1.
</event>
<event>
 8    1  0.1061722E+005  0.1043930E+01  0.7957747E-01            NaN
         13   -1    0    0    0    0  0.00000000000E+00  0.00000000000E+00  0.74505805969E-08  0.10566000000E+00  0.10566000000E+00 0.  1.
     999900   -1    0    0    0    0 -0.00000000000E+00 -0.00000000000E+00 -0.74505805969E-08  0.93827000000E+00  0.93827000000E+00 0.  1.
     999902    2    1    2    0    0 -0.20303531783E-01 -0.74867074351E-02 -0.71223657814E-02  0.10211481589E+01  0.10208939955E+01 0.  0.
     999903    2    3    3    0    0  0.12148731689E+00  0.95748667417E-02 -0.37478654216E-01  0.12911831277E+00  0.20397130476E-01 0.  0.
         14    1    1    2    0    0  0.20303531783E-01  0.74867074351E-02  0.71223657814E-02  0.22781841133E-01  0.00000000000E+00 0.  1.
     999901    1    3    3    0    0 -0.14179084868E+00 -0.17061574177E-01  0.30356288434E-01  0.89202984610E+00  0.88000000000E+00 0.  1.
        -11    1    4    4    0    0  0.80771037713E-01  0.15029599026E-01 -0.29311576143E-01  0.87231181335E-01  0.51100000000E-03 0.  1.
         11    1    4    4    0    0  0.40716279180E-01 -0.54547322843E-02 -0.81670780721E-02  0.41887131435E-01  0.51100000000E-03 0. -1.
</event>
<event>
 8    1  0.1061722E+005  0.1043930E+01  0.7957747E-01            NaN
         13   -1    0    0    0    0  0.00000000000E+00  0.00000000000E+00  0.74505805969E-08  0.10566000000E+00  0.10566000000E+00 0.  1.
     999900   -1    0    0    0    0 -0.00000000000E+00 -0.00000000000E+00 -0.74505805969E-08  0.93827000000E+00  0.93827000000E+00 0. -1.
     999902    2    1    2    0    0  0.18409417843E-01 -0.14031360008E-01 -0.71900861026E-02  0.10196919500E+01  0.10194038404E+01 0.  0.
     999903    2    3    3    0    0 -0.32603844563E-01 -0.63182618808E-01  0.10634397629E+00  0.12957500123E+00  0.20629727366E-01 0.  0.
         14    1    1    2    0    0 -0.18409417843E-01  0.14031360008E-01  0.71900861026E-02  0.24238049987E-01  0.00000000000E+00 0.  1.
     999901    1    3    3    0    0  0.51013262406E-01  0.49151258800E-01 -0.11353406239E+00  0.89011694878E+00  0.88000000000E+00 0. -1.
        -11    1    4    4    0    0 -0.94797245528E-03 -0.21955801567E-01  0.29101673941E-01  0.36470870862E-01  0.51100000000E-03 0.  1.
         11    1    4    4    0    0 -0.31655872108E-01 -0.41226817241E-01  0.77242302351E-01  0.93104130371E-01  0.51100000000E-03 0. -1.
</event>
<event>
 8    1  0.1061722E+005  0.1043930E+01  0.7957747E-01            NaN
         13   -1    0    0    0    0  0.00000000000E+00  0.00000000000E+00  0.74505805969E-08  0.10566000000E+00  0.10566000000E+00 0. -1.
     999900   -1    0    0    0    0 -0.00000000000E+00 -0.00000000000E+00 -0.74505805969E-08  0.93827000000E+00  0.93827000000E+00 0.  1.
     999902    2    1    2    0    0  0.54783053089E-02  0.13372916012E-01  0.19159990231E-01  0.10199310013E+01  0.10196486138E+01 0.  0.
     999903    2    3    3    0    0 -0.72508327873E-01 -0.10351450603E+00  0.16511696038E-01  0.12877916362E+00  0.18404518617E-01 0.  0.
         14    1    1    2    0    0 -0.54783053089E-02 -0.13372916012E-01 -0.19159990231E-01  0.23998998675E-01  0.00000000000E+00 0.  1.
     999901    1    3    3    0    0  0.77986633181E-01  0.11688742205E+00  0.26482941931E-02  0.89115183771E+00  0.88000000000E+00 0. -1.
        -11    1    4    4    0    0 -0.45570641557E-01 -0.62860313869E-01  0.19036962249E-01  0.79942288461E-01  0.51100000000E-03 0. -1.
         11    1    4    4    0    0 -0.26937686315E-01 -0.40654192166E-01 -0.25252662109E-02  0.48836875157E-01  0.51100000000E-03 0.  1.
</event>
<event>
 8    1  0.1061722E+005  0.1043930E+01  0.7957747E-01            NaN
         13   -1    0    0    0    0  0.00000000000E+00  0.00000000000E+00  0.74505805969E-08  0.10566000000E+00  0.10566000000E+00 0. -1.
     999900   -1    0    0    0    0 -0.00000000000E+00 -0.00000000000E+00 -0.74505805969E-08  0.93827000000E+00  0.93827000000E+00 0.  1.
     999902    2    1    2    0    0 -0.32904889241E-02 -0.19035778243E-01 -0.11664849358E-01  0.10213632793E+01  0.10211139464E+01 0.  0.
     999903    2    3    3    0    0 -0.71617462442E-02  0.43039696165E-01  0.12010188566E+00  0.12938187617E+00  0.20285484588E-01 0.  0.
         14    1    1    2    0    0  0.32904889241E-02  0.19035778243E-01  0.11664849358E-01  0.22566720657E-01  0.00000000000E+00 0. -1.
     999901    1    3    3    0    0  0.38712573200E-02 -0.62075474408E-01 -0.13176673502E+00  0.89198140318E+00  0.88000000000E+00 0.  1.
        -11    1    4    4    0    0 -0.59976785260E-02  0.28973243528E-01  0.51996503307E-01  0.59827405638E-01  0.51100000000E-03 0. -1.
         11    1    4    4    0    0 -0.11640677182E-02  0.14066452637E-01  0.68105382356E-01  0.69554470527E-01  0.51100000000E-03 0.  1.
</event>
<event>
 8    1  0.1061722E+005  0.1043930E+01  0.7957747E-01            NaN
         13   -1    0    0    0    0  0.00000000000E+00  0.00000000000E+00  0.74505805969E-08  0.10566000000E+00  0.10566000000E+00 0. -1.
     999900   -1    0    0    0    0 -0.00000000000E+00 -0.00000000000E+00 -0.74505805969E-08  0.93827000000E+00  0.93827000000E+00 0. -1.
     999902    2    1    2    0    0  0.20815232975E-01 -0.10711379570E-01  0.76751539014E-02  0.10192943437E+01  0.10189965866E+01 0.  0.
     999903    2    3    3    0    0  0.73510288169E-01 -0.24374392451E-01 -0.10318317874E+00  0.13067011673E+00  0.20737346928E-01 0.  0.
         14    1    1    2    0    0 -0.20815232975E-01  0.10711379570E-01 -0.76751539014E-02  0.24635656344E-01  0.00000000000E+00 0.  1.
     999901    1    3    3    0    0 -0.52695055194E-01  0.13663012881E-01  0.11085833264E+00  0.88862422693E+00  0.88000000000E+00 0.  1.
        -11    1    4    4    0    0  0.11832034940E-01 -0.10437810913E-02 -0.62497243741E-02  0.13431556334E-01  0.51100000000E-03 0.  1.
         11    1    4    4    0    0  0.61678253229E-01 -0.23330611360E-01 -0.96933454364E-01  0.11723856040E+00  0.51100000000E-03 0. -1.
</event>
<event>
 8    1  0.1061722E+005  0.1043930E+01  0.7957747E-01            NaN
         13   -1    0    0    0    0  0.00000000000E+00  0.00000000000E+00  0.74505805969E-08  0.10566000000E+00  0.10566000000E+00 0.  1.
     999900   -1    0    0    0    0 -0.00000000000E+00 -0.00000000000E+00 -0.74505805969E-08  0.93827000000E+00  0.93827000000E+00 0.  1.
     999902    2    1    2    0    0  0.21607909240E-01  0.75718194215E-03  0.11429683854E-01  0.10194736565E+01  0.10191802704E+01 0.  0.
     999903    2    3    3    0    0 -0.72539567240E-01 -0.52971607974E-01  0.90756751130E-01  0.12928080444E+00  0.20217775686E-01 0.  0.
         14    1    1    2    0    0 -0.21607909240E-01 -0.75718194215E-03 -0.11429683854E-01  0.24456343538E-01  0.00000000000E+00 0.  1.
     999901    1    3    3    0    0  0.94147476480E-01  0.53728789916E-01 -0.79327067275E-01  0.89019285202E+00  0.88000000000E+00 0.  1.
        -11    1    4    4    0    0 -0.52089742176E-01 -0.31512311432E-01  0.49440969342E-01  0.78428550810E-01  0.51100000000E-03 0.  1.
         11    1    4    4    0    0 -0.20449825064E-01 -0.21459296542E-01  0.41315781788E-01  0.50852253627E-01  0.51100000000E-03 0. -1.
</event>
<event>
 8    1  0.1061722E+005  0.1043930E+01  0.7957747E-01            NaN
         13   -1    0    0    0    0  0.00000000000E+00  0.00000000000E+00  0.74505805969E-08  0.10566000000E+00  0.10566000000E+00 0. -1.
     999900   -1    0    0    0    0 -0.00000000000E+00 -0.00000000000E+00 -0.74505805969E-08  0.93827000000E+00  0.93827000000E+00 0.  1.
     999902    2    1    2    0    0  0.98511452273E-02 -0.18802304435E-01 -0.96277054282E-02  0.10206219665E+01  0.10203557880E+01 0.  0.
     999903    2    3    3    0    0  0.80980217505E-01  0.65151154210E-01  0.74934038116E-01  0.12974699400E+00  0.20413325563E-01 0.  0.
         14    1    1    2    0    0 -0.98511452273E-02  0.18802304435E-01  0.96277054282E-02  0.23308033512E-01  0.00000000000E+00 0. -1.
     999901    1    3    3    0    0 -0.71129072277E-01 -0.83953458646E-01 -0.84561743545E-01  0.89087497249E+00  0.88000000000E+00 0. -1.
        -11    1    4    4    0    0  0.41961488793E-01  0.32985060157E-01  0.50901681907E-01  0.73756512100E-01  0.51100000000E-03 0.  1.
         11    1    4    4    0    0  0.39018728712E-01  0.32166094054E-01  0.24032356210E-01  0.55990481896E-01  0.51100000000E-03 0. -1.
</event>
<event>
 8    1  0.1061722E+005  0.1043930E+01  0.7957747E-01            NaN
         13   -1    0    0    0    0  0.00000000000E+00  0.00000000000E+00  0.74505805969E-08  0.10566000000E+00  0.10566000000E+00 0.  1.
     999900   -1    0    0    0    0 -0.00000000000E+00 -0.00000000000E+00 -0.74505805969E-08  0.93827000000E+00  0.93827000000E+00 0. -1.
     999902    2    1    2    0    0 -0.27596065886E-02  0.21246840173E-01  0.98132278995E-02  0.10203642815E+01  0.10200921154E+01 0.  0.
     999903    2    3    3    0    0 -0.30756080295E-02 -0.83084984984E-01 -0.94985727083E-01  0.12802575239E+00  0.21347853077E-01 0.  0.
         14    1    1    2    0    0  0.27596065886E-02 -0.21246840173E-01 -0.98132278995E-02  0.23565718484E-01  0.00000000000E+00 0.  1.
     999901    1    3    3    0    0  0.31600144089E-03  0.10433182516E+00  0.10479895498E+00  0.89233852913E+00  0.88000000000E+00 0.  1.
        -11    1    4    4    0    0  0.31134749013E-02 -0.69542218093E-02 -0.24135853236E-02  0.80088352492E-02  0.51100000000E-03 0. -1.
         11    1    4    4    0    0 -0.61890829309E-02 -0.76130763174E-01 -0.92572141759E-01  0.12001691714E+00  0.51100000000E-03 0.  1.
</event>
<event>
 8    1  0.1061722E+005  0.1043930E+01  0.7957747E-01            NaN
         13   -1    0    0    0    0  0.00000000000E+00  0.00000000000E+00  0.74505805969E-08  0.10566000000E+00  0.10566000000E+00 0. -1.
     999900   -1    0    0    0    0 -0.00000000000E+00 -0.00000000000E+00 -0.74505805969E-08  0.93827000000E+00  0.93827000000E+00 0.  1.
     999902    2    1    2    0    0 -0.53797579607E-02 -0.11436088284E-01  0.21713837019E-01  0.10188059751E+01  0.10184961454E+01 0.  0.
     999903    2    3    3    0    0 -0.56609567202E-01 -0.11418940656E+00  0.24279760893E-01  0.13134368193E+00  0.20439968787E-01 0.  0.
         14    1    1    2    0    0  0.53797579607E-02  0.11436088284E-01 -0.21713837019E-01  0.25124024937E-01  0.00000000000E+00 0.  1.
     999901    1    3    3    0    0  0.51229809241E-01  0.10275331828E+00 -0.25659238744E-02  0.88746229314E+00  0.88000000000E+00 0. -1.
        -11    1    4    4    0    0 -0.48465717865E-01 -0.80008500495E-01  0.13041845356E-01  0.94449122870E-01  0.51100000000E-03 0. -1.
         11    1    4    4    0    0 -0.81438493367E-02 -0.34180906065E-01  0.11237915537E-01  0.36894559057E-01  0.51100000000E-03 0.  1.
</event>
<event>
 8    1  0.1061722E+005  0.1043930E+01  0.7957747E-01            NaN
         13   -1    0    0    0    0  0.00000000000E+00  0.00000000000E+00  0.74505805969E-08  0.10566000000E+00  0.10566000000E+00 0.  1.
     999900   -1    0    0    0    0 -0.00000000000E+00 -0.00000000000E+00 -0.74505805969E-08  0.93827000000E+00  0.93827000000E+00 0.  1.
     999902    2    1    2    0    0 -0.16678740295E-01  0.24084829554E-01  0.67668695622E-02  0.10138625772E+01  0.10134166347E+01 0.  0.
     999903    2    3    3    0    0 -0.49691969833E-01  0.10927907602E+00  0.41073258953E-01  0.12846726358E+00  0.20139932719E-01 0.  0.
         14    1    1    2    0    0  0.16678740295E-01 -0.24084829554E-01 -0.67668695622E-02  0.30067422838E-01  0.00000000000E+00 0. -1.
     999901    1    3    3    0    0  0.33013229537E-01 -0.85194246465E-01 -0.34306389391E-01  0.88539531358E+00  0.88000000000E+00 0.  1.
        -11    1    4    4    0    0 -0.11378253238E-01  0.15680352926E-01  0.19778436462E-03  0.19381391959E-01  0.51100000000E-03 0. -1.
         11    1    4    4    0    0 -0.38313716595E-01  0.93598723093E-01  0.40875474589E-01  0.10908587162E+00  0.51100000000E-03 0.  1.
</event>
<event>
 8    1  0.1061722E+005  0.1043930E+01  0.7957747E-01            NaN
         13   -1    0    0    0    0  0.00000000000E+00  0.00000000000E+00  0.74505805969E-08  0.10566000000E+00  0.10566000000E+00 0.  1.
     999900   -1    0    0    0    0 -0.00000000000E+00 -0.00000000000E+00 -0.74505805969E-08  0.93827000000E+00  0.93827000000E+00 0.  1.
     999902    2    1    2    0    0 -0.11560004869E-01  0.14684178253E-01  0.14353360149E-01  0.10203656678E+01  0.10200935341E+01 0.  0.
     999903    2    3    3    0    0  0.85026013384E-01  0.82795556875E-01 -0.49702218271E-01  0.13015718890E+00  0.19648311133E-01 0.  0.
         14    1    1    2    0    0  0.11560004869E-01 -0.14684178253E-01 -0.14353360149E-01  0.23564332180E-01  0.00000000000E+00 0. -1.
     999901    1    3    3    0    0 -0.96586018253E-01 -0.68111378622E-01  0.64055578419E-01  0.89020847892E+00  0.88000000000E+00 0. -1.
        -11    1    4    4    0    0  0.62433858125E-02  0.13853152843E-01 -0.99695574042E-02  0.18180838978E-01  0.51100000000E-03 0.  1.
         11    1    4    4    0    0  0.78782627572E-01  0.68942404031E-01 -0.39732660867E-01  0.11197634992E+00  0.51100000000E-03 0. -1.
</event>
<event>
 8    1  0.1061722E+005  0.1043930E+01  0.7957747E-01            NaN
         13   -1    0    0    0    0  0.00000000000E+00  0.00000000000E+00  0.74505805969E-08  0.10566000000E+00  0.10566000000E+00 0. -1.
     999900   -1    0    0    0    0 -0.00000000000E+00 -0.00000000000E+00 -0.74505805969E-08  0.93827000000E+00  0.93827000000E+00 0. -1.
     999902    2    1    2    0    0 -0.20312595578E-01 -0.57113646287E-02 -0.11792573810E-01  0.10197579909E+01  0.10194714680E+01 0.  0.
     999903    2    3    3    0    0  0.29100683010E-01  0.12258345896E+00  0.14982574601E-01  0.12868103442E+00  0.21465714893E-01 0.  0.
         14    1    1    2    0    0  0.20312595578E-01  0.57113646287E-02  0.11792573810E-01  0.24172009062E-01  0.00000000000E+00 0. -1.
     999901    1    3    3    0    0 -0.49413278589E-01 -0.12829482359E+00 -0.26775148411E-01  0.89107695652E+00  0.88000000000E+00 0. -1.
        -11    1    4    4    0    0  0.12688808476E-01  0.81512466970E-01  0.17570190913E-02  0.82514461576E-01  0.51100000000E-03 0. -1.
         11    1    4    4    0    0  0.16411874535E-01  0.41070991991E-01  0.13225555510E-01  0.46166572846E-01  0.51100000000E-03 0.  1.
</event>
<event>
 7    1  0.1061722E+005  0.1043930E+01  0.7957747E-01            NaN
         13   -1    0    0    0    0  0.00000000000E+00  0.00000000000E+00  0.74505805969E-08  0.10566000000E+00  0.10566000000E+00 0.  1.
     999900   -1    0    0    0    0 -0.00000000000E+00 -0.00000000000E+00 -0.74505805969E-08  0.93827000000E+00  0.93827000000E+00 0.  1.
     999903    2    1    2    0    0  0.64792077279E-01 -0.63591048453E-01  0.55905391226E-01  0.10843037498E+00  0.19745853474E-01 0.  0.
         14    1    1    2    0    0 -0.38701023731E-01  0.23252732686E-01 -0.29230842875E-01  0.53785695035E-01  0.00000000000E+00 0. -1.
     999901    1    1    2    0    0 -0.26091053548E-01  0.40338315767E-01 -0.26674548351E-01  0.88171392998E+00  0.88000000000E+00 0.  1.
        -11    1    3    3    0    0  0.53091878974E-01 -0.52081681888E-01  0.53978171044E-01  0.91897515046E-01  0.51100000000E-03 0. -1.
         11    1    3    3    0    0  0.11700198305E-01 -0.11509366564E-01  0.19272201823E-02  0.16532859938E-01  0.51100000000E-03 0.  1.
</event>
<event>
 8    1  0.1061722E+005  0.1043930E+01  0.7957747E-01            NaN
         13   -1    0    0    0    0  0.00000000000E+00  0.00000000000E+00  0.74505805969E-08  0.10566000000E+00  0.10566000000E+00 0. -1.
     999900   -1    0    0    0    0 -0.00000000000E+00 -0.00000000000E+00 -0.74505805969E-08  0.93827000000E+00  0.93827000000E+00 0.  1.
     999902    2    1    2    0    0  0.45805760961E-02  0.22209057445E-01 -0.80627596907E-03  0.10212391650E+01  0.10209870510E+01 0.  0.
     999903    2    3    3    0    0 -0.79062494096E-01 -0.99773472882E-01  0.21252938934E-02  0.12889142173E+00  0.20071319299E-01 0.  0.
         14    1    1    2    0    0 -0.45805760961E-02 -0.22209057445E-01  0.80627596907E-03  0.22690834954E-01  0.00000000000E+00 0. -1.
     999901    1    3    3    0    0  0.83643070192E-01  0.12198253033E+00 -0.29315698625E-02  0.89234774331E+00  0.88000000000E+00 0.  1.
        -11    1    4    4    0    0 -0.43843814461E-01 -0.52653409614E-01  0.10998001142E-01  0.69396532770E-01  0.51100000000E-03 0. -1.
         11    1    4    4    0    0 -0.35218679635E-01 -0.47120063268E-01 -0.88727072489E-02  0.59494888962E-01  0.51100000000E-03 0.  1.
</event>
<event>
 8    1  0.1061722E+005  0.1043930E+01  0.7957747E-01            NaN
         13   -1    0    0    0    0  0.00000000000E+00  0.00000000000E+00  0.74505805969E-08  0.10566000000E+00  0.10566000000E+00 0.  1.
     999900   -1    0    0    0    0 -0.00000000000E+00 -0.00000000000E+00 -0.74505805969E-08  0.93827000000E+00  0.93827000000E+00 0. -1.
     999902    2    1    2    0    0 -0.15321295978E-01 -0.13884877099E-01  0.11448983859E-01  0.10202950438E+01  0.10200212573E+01 0.  0.
     999903    2    3    3    0    0 -0.44245055350E-01  0.10473856077E+00 -0.57881250425E-01  0.12916386085E+00  0.20131387540E-01 0.  0.
         14    1    1    2    0    0  0.15321295978E-01  0.13884877099E-01 -0.11448983859E-01  0.23634956186E-01  0.00000000000E+00 0. -1.
     999901    1    3    3    0    0  0.28923759372E-01 -0.11862343786E+00  0.69330234284E-01  0.89113118297E+00  0.88000000000E+00 0.  1.
        -11    1    4    4    0    0 -0.35602980198E-01  0.64031687203E-01 -0.30584725127E-01  0.79393423514E-01  0.51100000000E-03 0.  1.
         11    1    4    4    0    0 -0.86420751520E-02  0.40706873563E-01 -0.27296525298E-01  0.49770437335E-01  0.51100000000E-03 0. -1.
</event>
<event>
 8    1  0.1061722E+005  0.1043930E+01  0.7957747E-01            NaN
         13   -1    0    0    0    0  0.00000000000E+00  0.00000000000E+00  0.74505805969E-08  0.10566000000E+00  0.10566000000E+00 0. -1.
     999900   -1    0    0    0    0 -0.00000000000E+00 -0.00000000000E+00 -0.74505805969E-08  0.93827000000E+00  0.93827000000E+00 0.  1.
     999902    2    1    2    0    0 -0.12583287847E-01  0.78465751487E-02  0.18886650946E-01  0.10199172230E+01  0.10196345072E+01 0.  0.
     999903    2    3    3    0    0 -0.12856103848E+00 -0.15501638774E-01 -0.13010063799E-01  0.13142784314E+00  0.18324158174E-01 0.  0.
         14    1    1    2    0    0  0.12583287847E-01 -0.78465751487E-02 -0.18886650946E-01  0.24012776986E-01  0.00000000000E+00 0.  1.
     999901    1    3    3    0    0  0.11597775063E+00  0.23348213922E-01  0.31896714746E-01  0.88848937987E+00  0.88000000000E+00 0.  1.
        -11    1    4    4    0    0 -0.32561900025E-01  0.36909415983E-02 -0.95601758998E-03  0.32788343565E-01  0.51100000000E-03 0.  1.
         11    1    4    4    0    0 -0.95999138455E-01 -0.19192580372E-01 -0.12054046209E-01  0.98639499576E-01  0.51100000000E-03 0. -1.
</event>
<event>
 8    1  0.1061722E+005  0.1043930E+01  0.7957747E-01            NaN
         13   -1    0    0    0    0  0.00000000000E+00  0.00000000000E+00  0.74505805969E-08  0.10566000000E+00  0.10566000000E+00 0. -1.
     999900   -1    0    0    0    0 -0.00000000000E+00 -0.00000000000E+00 -0.74505805969E-08  0.93827000000E+00  0.93827000000E+00 0.  1.
     999902    2    1    2    0    0  0.61296624536E-02  0.21896735938E-01  0.20253416908E-02  0.10211014693E+01  0.10208462513E+01 0.  0.
     999903    2    3    3    0    0 -0.42753439834E-02  0.45690055607E-01  0.12300627422E+00  0.13244474575E+00  0.17470186903E-01 0.  0.
         14    1    1    2    0    0 -0.61296624536E-02 -0.21896735938E-01 -0.20253416908E-02  0.22828530734E-01  0.00000000000E+00 0. -1.
     999901    1    3    3    0    0  0.10405006437E-01 -0.23793319670E-01 -0.12098093253E+00  0.88865672352E+00  0.88000000000E+00 0.  1.
        -11    1    4    4    0    0  0.31594724893E-02  0.80229146745E-02  0.40921805864E-01  0.41823495101E-01  0.51100000000E-03 0.  1.
         11    1    4    4    0    0 -0.74348164727E-02  0.37667140933E-01  0.82084468358E-01  0.90621250646E-01  0.51100000000E-03 0. -1.
</event>
<event>
 8    1  0.1061722E+005  0.1043930E+01  0.7957747E-01            NaN
         13   -1    0    0    0    0  0.00000000000E+00  0.00000000000E+00  0.74505805969E-08  0.10566000000E+00  0.10566000000E+00 0.  1.
     999900   -1    0    0    0    0 -0.00000000000E+00 -0.00000000000E+00 -0.74505805969E-08  0.93827000000E+00  0.93827000000E+00 0. -1.
     999902    2    1    2    0    0 -0.22773463581E-01 -0.63138462493E-02 -0.36271158674E-03  0.10202947116E+01  0.10200209173E+01 0.  0.
     999903    2    3    3    0    0 -0.50094068225E-01 -0.53047746876E-01 -0.10825788256E+00  0.13205384291E+00  0.19873831304E-01 0.  0.
         14    1    1    2    0    0  0.22773463581E-01  0.63138462493E-02  0.36271158674E-03  0.23635288397E-01  0.00000000000E+00 0. -1.
     999901    1    3    3    0    0  0.27320604644E-01  0.46733900627E-01  0.10789517097E+00  0.88824086870E+00  0.88000000000E+00 0.  1.
        -11    1    4    4    0    0 -0.25843251160E-01 -0.32039680029E-01 -0.76688538223E-01  0.87039116164E-01  0.51100000000E-03 0. -1.
         11    1    4    4    0    0 -0.24250817066E-01 -0.21008066847E-01 -0.31569344332E-01  0.45014726741E-01  0.51100000000E-03 0.  1.
</event>
<event>
 8    1  0.1061722E+005  0.1043930E+01  0.7957747E-01            NaN
         13   -1    0    0    0    0  0.00000000000E+00  0.00000000000E+00  0.74505805969E-08  0.10566000000E+00  0.10566000000E+00 0.  1.
     999900   -1    0    0    0    0 -0.00000000000E+00 -0.00000000000E+00 -0.74505805969E-08  0.93827000000E+00  0.93827000000E+00 0. -1.
     999902    2    1    2    0    0 -0.68035057882E-02  0.62219047194E-02  0.22519099359E-01  0.10195966972E+01  0.10193062912E+01 0.  0.
     999903    2    3    3    0    0 -0.10176092296E+00  0.32025150985E-01  0.75709688619E-01  0.13251611609E+00  0.21158174173E-01 0.  0.
         14    1    1    2    0    0  0.68035057882E-02 -0.62219047194E-02 -0.22519099359E-01  0.24333302803E-01  0.00000000000E+00 0. -1.
     999901    1    3    3    0    0  0.94957417176E-01 -0.25803246265E-01 -0.53190589260E-01  0.88708058111E+00  0.88000000000E+00 0. -1.
        -11    1    4    4    0    0 -0.33779621539E-01  0.10286427812E-01  0.37681008989E-01  0.51642937444E-01  0.51100000000E-03 0. -1.
         11    1    4    4    0    0 -0.67981301425E-01  0.21738723173E-01  0.38028679630E-01  0.80873178644E-01  0.51100000000E-03 0.  1.
</event>
<event>
 8    1  0.1061722E+005  0.1043930E+01  0.7957747E-01            NaN
         13   -1    0    0    0    0  0.00000000000E+00  0.00000000000E+00  0.74505805969E-08  0.10566000000E+00  0.10566000000E+00 0. -1.
     999900   -1    0    0    0    0 -0.00000000000E+00 -0.00000000000E+00 -0.74505805969E-08  0.93827000000E+00  0.93827000000E+00 0. -1.
     999902    2    1    2    0    0  0.10582432919E-01 -0.11691367869E-01 -0.17473385271E-01  0.10203928982E+01  0.10201214004E+01 0.  0.
     999903    2    3    3    0    0 -0.60274576559E-01 -0.77981609247E-01 -0.86086665493E-01  0.13240478221E+00  0.20148360108E-01 0.  0.
         14    1    1    2    0    0 -0.10582432919E-01  0.11691367869E-01  0.17473385271E-01  0.23537101818E-01  0.00000000000E+00 0. -1.
     999901    1    3    3    0    0  0.70857009478E-01  0.66290241378E-01  0.68613280222E-01  0.88798811598E+00  0.88000000000E+00 0. -1.
        -11    1    4    4    0    0 -0.18863820675E-01 -0.17427738799E-01 -0.33154214155E-01  0.41940825544E-01  0.51100000000E-03 0. -1.
         11    1    4    4    0    0 -0.41410755884E-01 -0.60553870448E-01 -0.52932451338E-01  0.90463956661E-01  0.51100000000E-03 0.  1.
</event>
<event>
 8    1  0.1061722E+005  0.1043930E+01  0.7957747E-01            NaN
         13   -1    0    0    0    0  0.00000000000E+00  0.00000000000E+00  0.74505805969E-08  0.10566000000E+00  0.10566000000E+00 0. -1.
     999900   -1    0    0    0    0 -0.00000000000E+00 -0.00000000000E+00 -0.74505805969E-08  0.93827000000E+00  0.93827000000E+00 0.  1.
     999902    2    1    2    0    0  0.77041497868E-02 -0.16789849864E-01 -0.13852704356E-01  0.10208399502E+01  0.10205787836E+01 0.  0.
     999903    2    3    3    0    0  0.10400435602E+00 -0.63175513169E-01 -0.51311667538E-01  0.13358095001E+00  0.20073152298E-01 0.  0.
         14    1    1    2    0    0 -0.77041497868E-02  0.16789849864E-01  0.13852704356E-01  0.23090049813E-01  0.00000000000E+00 0. -1.
     999901    1    3    3    0    0 -0.96300206235E-01  0.46385663305E-01  0.37458963182E-01  0.88725900018E+00  0.88000000000E+00 0.  1.
        -11    1    4    4    0    0  0.67452883919E-01 -0.51649290048E-01 -0.37040547880E-01  0.92681195610E-01  0.51100000000E-03 0.  1.
         11    1    4    4    0    0  0.36551472103E-01 -0.11526223121E-01 -0.14271119658E-01  0.40899754395E-01  0.51100000000E-03 0. -1.
</event>
<event>
 8    1  0.1061722E+005  0.1043930E+01  0.7957747E-01            NaN
         13   -1    0    0    0    0  0.00000000000E+00  0.00000000000E+00  0.74505805969E-08  0.10566000000E+00  0.10566000000E+00 0.  1.
     999900   -1    0    0    0    0 -0.00000000000E+00 -0.00000000000E+00 -0.74505805969E-08  0.93827000000E+00  0.93827000000E+00 0.  1.
     999902    2    1    2    0    0 -0.13262080965E-01 -0.15906897959E-01  0.42968446926E-02  0.10227787573E+01  0.10225600282E+01 0.  0.
     999903    2    3    3    0    0  0.56067436932E-01 -0.10344611924E+00 -0.59880620469E-01  0.13340344598E+00  0.19134618455E-01 0.  0.
         14    1    1    2    0    0  0.13262080965E-01  0.15906897959E-01 -0.42968446926E-02  0.21151242718E-01  0.00000000000E+00 0. -1.
     999901    1    3    3    0    0 -0.69329517898E-01  0.87539221276E-01  0.64177465162E-01  0.88937531130E+00  0.88000000000E+00 0. -1.
        -11    1    4    4    0    0  0.36157910942E-01 -0.73607562430E-01 -0.32258508961E-01  0.88126842063E-01  0.51100000000E-03 0.  1.
         11    1    4    4    0    0  0.19909525990E-01 -0.29838556805E-01 -0.27622111509E-01  0.45276603920E-01  0.51100000000E-03 0. -1.
</event>
<event>
 8    1  0.1061722E+005  0.1043930E+01  0.7957747E-01            NaN
         13   -1    0    0    0    0  0.00000000000E+00  0.00000000000E+00  0.74505805969E-08  0.10566000000E+00  0.10566000000E+00 0. -1.
     999900   -1    0    0    0    0 -0.00000000000E+00 -0.00000000000E+00 -0.74505805969E-08  0.93827000000E+00  0.93827000000E+00 0. -1.
     999902    2    1    2    0    0  0.76583346275E-02  0.24327614471E-01  0.68483222205E-02  0.10175220006E+01  0.10171792562E+01 0.  0.
     999903    2    3    3    0    0 -0.47727381193E-01  0.59221592114E-01 -0.10135668555E+00  0.12848123050E+00  0.21193135593E-01 0.  0.
         14    1    1    2    0    0 -0.76583346275E-02 -0.24327614471E-01 -0.68483222205E-02  0.26407999401E-01  0.00000000000E+00 0. -1.
     999901    1    3    3    0    0  0.55385715820E-01 -0.34893977642E-01  0.10820500777E+00  0.88904077010E+00  0.88000000000E+00 0.  1.
        -11    1    4    4    0    0 -0.95327023915E-02  0.17522817918E-02 -0.93932528699E-02  0.13506932547E-01  0.51100000000E-03 0. -1.
         11    1    4    4    0    0 -0.38194678801E-01  0.57469310322E-01 -0.91963432683E-01  0.11497429795E+00  0.51100000000E-03 0.  1.
</event>
<event>
 8    1  0.1061722E+005  0.1043930E+01  0.7957747E-01            NaN
         13   -1    0    0    0    0  0.00000000000E+00  0.00000000000E+00  0.74505805969E-08  0.10566000000E+00  0.10566000000E+00 0.  1.
     999900   -1    0    0    0    0 -0.00000000000E+00 -0.00000000000E+00 -0.74505805969E-08  0.93827000000E+00  0.93827000000E+00 0.  1.
     999902    2    1    2    0    0 -0.13039279763E-02  0.19092363117E-01 -0.12547513226E-01  0.10210464110E+01  0.10207899464E+01 0.  0.
     999903    2    3    3    0    0 -0.84560405535E-01  0.64503372092E-01 -0.79076337882E-01  0.13345422688E+00  0.15678528762E-01 0.  0.
         14    1    1    2    0    0  0.13039279763E-02 -0.19092363117E-01  0.12547513226E-01  0.22883589004E-01  0.00000000000E+00 0. -1.
     999901    1    3    3    0    0  0.83256477559E-01 -0.45411008975E-01  0.66528824656E-01  0.88759218411E+00  0.88000000000E+00 0.  1.
        -11    1    4    4    0    0 -0.68129086005E-01  0.43688681309E-01 -0.61194826543E-01  0.10146596055E+00  0.51100000000E-03 0. -1.
         11    1    4    4    0    0 -0.16431319530E-01  0.20814690783E-01 -0.17881511339E-01  0.31988266328E-01  0.51100000000E-03 0.  1.
</event>
<event>
 8    1  0.1061722E+005  0.1043930E+01  0.7957747E-01            NaN
         13   -1    0    0    0    0  0.00000000000E+00  0.00000000000E+00  0.74505805969E-08  0.10566000000E+00  0.10566000000E+00 0.  1.
     999900   -1    0    0    0    0 -0.00000000000E+00 -0.00000000000E+00 -0.74505805969E-08  0.93827000000E+00  0.93827000000E+00 0. -1.
     999902    2    1    2    0    0 -0.11881226321E-02  0.18405837224E-01 -0.13387355997E-01  0.10211394805E+01  0.10208851213E+01 0.  0.
     999903    2    3    3    0    0 -0.10331601531E+00 -0.62693776955E-01  0.40272919393E-01  0.12991185578E+00  0.25504382909E-01 0.  0.
         14    1    1    2    0    0  0.11881226321E-02 -0.18405837224E-01  0.13387355997E-01  0.22790519518E-01  0.00000000000E+00 0.  1.
     999901    1    3    3    0    0  0.10212789267E+00  0.81099614179E-01 -0.53660275391E-01  0.89122762470E+00  0.88000000000E+00 0.  1.
        -11    1    4    4    0    0 -0.73004071930E-01 -0.40513165262E-01  0.15514906126E-01  0.84922815020E-01  0.51100000000E-03 0. -1.
         11    1    4    4    0    0 -0.30311943375E-01 -0.22180611693E-01  0.24758013267E-01  0.44989040756E-01  0.51100000000E-03 0.  1.
</event>
<event>
 7    1  0.1061722E+005  0.1043930E+01  0.7957747E-01            NaN
         13   -1    0    0    0    0  0.00000000000E+00  0.00000000000E+00  0.74505805969E-08  0.10566000000E+00  0.10566000000E+00 0.  1.
     999900   -1    0    0    0    0 -0.00000000000E+00 -0.00000000000E+00 -0.74505805969E-08  0.93827000000E+00  0.93827000000E+00 0.  1.
     999903    2    1    2    0    0  0.48323514794E-01  0.57373249411E-01  0.83188341959E-01  0.11376393360E+00  0.19876632542E-01 0.  0.
         14    1    1    2    0    0  0.37223776710E-01 -0.18140786381E-01 -0.27662045669E-02  0.41501199631E-01  0.00000000000E+00 0. -1.
     999901    1    1    2    0    0 -0.85547291505E-01 -0.39232463030E-01 -0.80422137392E-01  0.88866486676E+00  0.88000000000E+00 0.  1.
        -11    1    3    3    0    0  0.30238473865E-01  0.20751016269E-01  0.41878099054E-01  0.55668719037E-01  0.51100000000E-03 0.  1.
         11    1    3    3    0    0  0.18085040929E-01  0.36622233142E-01  0.41310242905E-01  0.58095214567E-01  0.51100000000E-03 0. -1.
</event>
<event>
 8    1  0.1061722E+005  0.1043930E+01  0.7957747E-01            NaN
         13   -1    0    0    0    0  0.00000000000E+00  0.00000000000E+00  0.74505805969E-08  0.10566000000E+00  0.10566000000E+00 0. -1.
     999900   -1    0    0    0    0 -0.00000000000E+00 -0.00000000000E+00 -0.74505805969E-08  0.93827000000E+00  0.93827000000E+00 0. -1.
     999902    2    1    2    0    0 -0.44531253527E-02 -0.24324653403E-01  0.36997377917E-02  0.10189258574E+01  0.10186190140E+01 0.  0.
     999903    2    3    3    0    0  0.64114608813E-01 -0.75717361017E-01 -0.82359732857E-01  0.13058528245E+00  0.20629798228E-01 0.  0.
         14    1    1    2    0    0  0.44531253527E-02  0.24324653403E-01 -0.36997377917E-02  0.25004142623E-01  0.00000000000E+00 0.  1.
     999901    1    3    3    0    0 -0.68567734165E-01  0.51392707614E-01  0.86059470649E-01  0.88834057492E+00  0.88000000000E+00 0.  1.
        -11    1    4    4    0    0  0.16243312136E-01 -0.73578664876E-02 -0.15965375871E-01  0.23940295238E-01  0.51100000000E-03 0.  1.
         11    1    4    4    0    0  0.47871296677E-01 -0.68359494529E-01 -0.66394356986E-01  0.10664498722E+00  0.51100000000E-03 0. -1.
</event>
<event>
 8    1  0.1061722E+005  0.1043930E+01  0.7957747E-01            NaN
         13   -1    0    0    0    0  0.00000000000E+00  0.00000000000E+00  0.74505805969E-08  0.10566000000E+00  0.10566000000E+00 0. -1.
     999900   -1    0    0    0    0 -0.00000000000E+00 -0.00000000000E+00 -0.74505805969E-08  0.93827000000E+00  0.93827000000E+00 0. -1.
     999902    2    1    2    0    0 -0.35037958516E-02  0.13811845074E-01  0.18760270282E-01  0.10203717447E+01  0.10200997530E+01 0.  0.
     999903    2    3    3    0    0 -0.35745301129E-03  0.19807844492E-01 -0.12514405065E+00  0.12865749395E+00  0.22343653665E-01 0.  0.
         14    1    1    2    0    0  0.35037958516E-02 -0.13811845074E-01 -0.18760270282E-01  0.23558255258E-01  0.00000000000E+00 0.  1.
     999901    1    3    3    0    0 -0.31463428403E-02 -0.59959994178E-02  0.14390432094E+00  0.89171425079E+00  0.88000000000E+00 0.  1.
        -11    1    4    4    0    0  0.10854527935E-01  0.90204629786E-02 -0.52681209243E-01  0.54541364645E-01  0.51100000000E-03 0.  1.
         11    1    4    4    0    0 -0.11211980946E-01  0.10787381514E-01 -0.72462841411E-01  0.74116129304E-01  0.51100000000E-03 0. -1.
</event>
<event>
 8    1  0.1061722E+005  0.1043930E+01  0.7957747E-01            NaN
         13   -1    0    0    0    0  0.00000000000E+00  0.00000000000E+00  0.74505805969E-08  0.10566000000E+00  0.10566000000E+00 0. -1.
     999900   -1    0    0    0    0 -0.00000000000E+00 -0.00000000000E+00 -0.74505805969E-08  0.93827000000E+00  0.93827000000E+00 0.  1.
     999902    2    1    2    0    0  0.11913462885E-01 -0.15737690951E-01  0.11590838675E-01  0.10210399791E+01  0.10207833688E+01 0.  0.
     999903    2    3    3    0    0  0.11311067375E+00  0.29573010599E-01  0.59605111944E-01  0.13278365036E+00  0.20251937174E-01 0.  0.
         14    1    1    2    0    0 -0.11913462885E-01  0.15737690951E-01 -0.11590838675E-01  0.22890020873E-01  0.00000000000E+00 0. -1.
     999901    1    3    3    0    0 -0.10119721087E+00 -0.45310701550E-01 -0.48014273269E-01  0.88825632877E+00  0.88000000000E+00 0.  1.
        -11    1    4    4    0    0  0.37917246865E-01  0.12956882582E-01  0.10413557185E-01  0.41404126731E-01  0.51100000000E-03 0. -1.
         11    1    4    4    0    0  0.75193426889E-01  0.16616128018E-01  0.49191554759E-01  0.91379523626E-01  0.51100000000E-03 0.  1.
</event>
<event>
 8    1  0.1061722E+005  0.1043930E+01  0.7957747E-01            NaN
         13   -1    0    0    0    0  0.00000000000E+00  0.00000000000E+00  0.74505805969E-08  0.10566000000E+00  0.10566000000E+00 0. -1.
     999900   -1    0    0    0    0 -0.00000000000E+00 -0.00000000000E+00 -0.74505805969E-08  0.93827000000E+00  0.93827000000E+00 0. -1.
     999902    2    1    2    0    0  0.20483869898E-01  0.80125710194E-02 -0.90806252927E-02  0.10201340345E+01  0.10198564606E+01 0.  0.
     999903    2    3    3    0    0  0.98068042501E-01  0.86278809741E-01  0.14395278461E-01  0.13294970974E+00  0.20174917811E-01 0.  0.
         14    1    1    2    0    0 -0.20483869898E-01 -0.80125710194E-02  0.90806252927E-02  0.23795965541E-01  0.00000000000E+00 0. -1.
     999901    1    3    3    0    0 -0.77584172603E-01 -0.78266238722E-01 -0.23475903754E-01  0.88718432471E+00  0.88000000000E+00 0.  1.
        -11    1    4    4    0    0  0.68434241836E-02  0.86773098283E-02 -0.40287051233E-02  0.11773688733E-01  0.51100000000E-03 0. -1.
         11    1    4    4    0    0  0.91224618318E-01  0.77601499913E-01  0.18423983585E-01  0.12117602101E+00  0.51100000000E-03 0.  1.
</event>
<event>
 8    1  0.1061722E+005  0.1043930E+01  0.7957747E-01            NaN
         13   -1    0    0    0    0  0.00000000000E+00  0.00000000000E+00  0.74505805969E-08  0.10566000000E+00  0.10566000000E+00 0.  1.
     999900   -1    0    0    0    0 -0.00000000000E+00 -0.00000000000E+00 -0.74505805969E-08  0.93827000000E+00  0.93827000000E+00 0.  1.
     999902    2    1    2    0    0 -0.18346561381E-01 -0.19185444188E-01  0.28696652586E-02  0.10172295775E+01  0.10168790984E+01 0.  0.
     999903    2    3    3    0    0 -0.20134099865E-02 -0.12823380814E+00  0.11969489580E-01  0.13030166367E+00  0.19679723183E-01 0.  0.
         14    1    1    2    0    0  0.18346561381E-01  0.19185444188E-01 -0.28696652586E-02  0.26700422504E-01  0.00000000000E+00 0. -1.
     999901    1    3    3    0    0 -0.16333151394E-01  0.10904836395E+00 -0.90998243209E-02  0.88692791382E+00  0.88000000000E+00 0.  1.
        -11    1    4    4    0    0  0.52863799535E-03 -0.23664740142E-01  0.99472889658E-02  0.25680908529E-01  0.51100000000E-03 0. -1.
         11    1    4    4    0    0 -0.25420479818E-02 -0.10456906800E+00  0.20222006137E-02  0.10462075514E+00  0.51100000000E-03 0.  1.
</event>
<event>
 8    1  0.1061722E+005  0.1043930E+01  0.7957747E-01            NaN
         13   -1    0    0    0    0  0.00000000000E+00  0.00000000000E+00  0.74505805969E-08  0.10566000000E+00  0.10566000000E+00 0. -1.
     999900   -1    0    0    0    0 -0.00000000000E+00 -0.00000000000E+00 -0.74505805969E-08  0.93827000000E+00  0.93827000000E+00 0. -1.
     999902    2    1    2    0    0  0.97803846043E-02 -0.90661147149E-02 -0.17581074599E-01  0.10218631800E+01  0.10216248892E+01 0.  0.
     999903    2    3    3    0    0  0.10096491843E+00 -0.83884788163E-01  0.13827312157E-01  0.13343820298E+00  0.19595586613E-01 0.  0.
         14    1    1    2    0    0 -0.97803846043E-02  0.90661147149E-02  0.17581074599E-01  0.22066819959E-01  0.00000000000E+00 0.  1.
     999901    1    3    3    0    0 -0.91184533825E-01  0.74818673448E-01 -0.31408386756E-01  0.88842497706E+00  0.88000000000E+00 0. -1.
        -11    1    4    4    0    0  0.45615941373E-01 -0.27933778008E-01 -0.21110111420E-03  0.53492202664E-01  0.51100000000E-03 0. -1.
         11    1    4    4    0    0  0.55348977057E-01 -0.55951010155E-01  0.14038413271E-01  0.79946000317E-01  0.51100000000E-03 0.  1.
</event>
<event>
 8    1  0.1061722E+005  0.1043930E+01  0.7957747E-01            NaN
         13   -1    0    0    0    0  0.00000000000E+00  0.00000000000E+00  0.74505805969E-08  0.10566000000E+00  0.10566000000E+00 0.  1.
     999900   -1    0    0    0    0 -0.00000000000E+00 -0.00000000000E+00 -0.74505805969E-08  0.93827000000E+00  0.93827000000E+00 0.  1.
     999902    2    1    2    0    0  0.19796845756E-01  0.12834253460E-01 -0.86073672104E-03  0.10203212298E+01  0.10200480567E+01 0.  0.
     999903    2    3    3    0    0  0.78590874387E-01  0.10387727687E+00 -0.21558484720E-01  0.13343117645E+00  0.19289800363E-01 0.  0.
         14    1    1    2    0    0 -0.19796845756E-01 -0.12834253460E-01  0.86073672104E-03  0.23608770223E-01  0.00000000000E+00 0.  1.
     999901    1    3    3    0    0 -0.58794028631E-01 -0.91043023415E-01  0.20697747999E-01  0.88689005333E+00  0.88000000000E+00 0. -1.
        -11    1    4    4    0    0  0.57051153723E-01  0.86772518192E-01 -0.20797244071E-01  0.10591076686E+00  0.51100000000E-03 0.  1.
         11    1    4    4    0    0  0.21539720664E-01  0.17104758683E-01 -0.76124064852E-03  0.27520409594E-01  0.51100000000E-03 0. -1.
</event>
<event>
 8    1  0.1061722E+005  0.1043930E+01  0.7957747E-01            NaN
         13   -1    0    0    0    0  0.00000000000E+00  0.00000000000E+00  0.74505805969E-08  0.10566000000E+00  0.10566000000E+00 0. -1.
     999900   -1    0    0    0    0 -0.00000000000E+00 -0.00000000000E+00 -0.74505805969E-08  0.93827000000E+00  0.93827000000E+00 0. -1.
     999902    2    1    2    0    0  0.13753937140E-01  0.18216434528E-01 -0.54552378505E-03  0.10210978545E+01  0.10208425547E+01 0.  0.
     999903    2    3    3    0    0 -0.71913884916E-01  0.10318457465E+00  0.35430200579E-01  0.13213620550E+00  0.19647249262E-01 0.  0.
         14    1    1    2    0    0 -0.13753937140E-01 -0.18216434528E-01  0.54552378505E-03  0.22832145540E-01  0.00000000000E+00 0. -1.
     999901    1    3    3    0    0  0.85667822056E-01 -0.84968140118E-01 -0.35975724364E-01  0.88896164896E+00  0.88000000000E+00 0. -1.
        -11    1    4    4    0    0 -0.49586519316E-01  0.85371310985E-01  0.27768396027E-01  0.10255939048E+00  0.51100000000E-03 0.  1.
         11    1    4    4    0    0 -0.22327365600E-01  0.17813263661E-01  0.76618045518E-02  0.29576815022E-01  0.51100000000E-03 0. -1.
</event>
<event>
 8    1  0.1061722E+005  0.1043930E+01  0.7957747E-01            NaN
         13   -1    0    0    0    0  0.00000000000E+00  0.00000000000E+00  0.74505805969E-08  0.10566000000E+00  0.10566000000E+00 0. -1.
     999900   -1    0    0    0    0 -0.00000000000E+00 -0.00000000000E+00 -0.74505805969E-08  0.93827000000E+00  0.93827000000E+00 0. -1.
     999902    2    1    2    0    0  0.43086259372E-02 -0.90822525019E-02 -0.19515038172E-01  0.10219780460E+01  0.10217422563E+01 0.  0.
     999903    2    3    3    0    0 -0.41608110047E-01  0.90688347963E-01 -0.85155694345E-01  0.13272486774E+00  0.20218480663E-01 0.  0.
         14    1    1    2    0    0 -0.43086259372E-02  0.90822525019E-02  0.19515038172E-01  0.21951953964E-01  0.00000000000E+00 0. -1.
     999901    1    3    3    0    0  0.45916735984E-01 -0.99770600465E-01  0.65640656173E-01  0.88925317829E+00  0.88000000000E+00 0.  1.
        -11    1    4    4    0    0 -0.29733363343E-01  0.57854012504E-01 -0.42964278573E-01  0.77957360222E-01  0.51100000000E-03 0. -1.
         11    1    4    4    0    0 -0.11874746704E-01  0.32834335459E-01 -0.42191415771E-01  0.54767507521E-01  0.51100000000E-03 0.  1.
</event>
<event>
 8    1  0.1061722E+005  0.1043930E+01  0.7957747E-01            NaN
         13   -1    0    0    0    0  0.00000000000E+00  0.00000000000E+00  0.74505805969E-08  0.10566000000E+00  0.10566000000E+00 0.  1.
     999900   -1    0    0    0    0 -0.00000000000E+00 -0.00000000000E+00 -0.74505805969E-08  0.93827000000E+00  0.93827000000E+00 0. -1.
     999902    2    1    2    0    0 -0.15648891998E-02 -0.12748119431E-01 -0.19046885437E-01  0.10209572494E+01  0.10206987595E+01 0.  0.
     999903    2    3    3    0    0  0.68168423643E-01 -0.76138308665E-01 -0.83776034187E-01  0.13356167031E+00  0.19398965029E-01 0.  0.
         14    1    1    2    0    0  0.15648891998E-02  0.12748119431E-01  0.19046885437E-01  0.22972750643E-01  0.00000000000E+00 0.  1.
     999901    1    3    3    0    0 -0.69733312842E-01  0.63390189234E-01  0.64729148749E-01  0.88739557905E+00  0.88000000000E+00 0.  1.
        -11    1    4    4    0    0  0.45880978169E-01 -0.38773679435E-01 -0.42484745896E-01  0.73577694510E-01  0.51100000000E-03 0. -1.
         11    1    4    4    0    0  0.22287445474E-01 -0.37364629230E-01 -0.41291288291E-01  0.59983975802E-01  0.51100000000E-03 0.  1.
</event>
<event>
 8    1  0.1061722E+005  0.1043930E+01  0.7957747E-01            NaN
         13   -1    0    0    0    0  0.00000000000E+00  0.00000000000E+00  0.74505805969E-08  0.10566000000E+00  0.10566000000E+00 0.  1.
     999900   -1    0    0    0    0 -0.00000000000E+00 -0.00000000000E+00 -0.74505805969E-08  0.93827000000E+00  0.93827000000E+00 0. -1.
     999902    2    1    2    0    0 -0.13610618463E-01  0.17697850878E-01 -0.71442305717E-02  0.10204885220E+01  0.10202192513E+01 0.  0.
     999903    2    3    3    0    0 -0.59961191224E-01  0.99284451070E-01 -0.63562350329E-01  0.13370345606E+00  0.19588136865E-01 0.  0.
         14    1    1    2    0    0  0.13610618463E-01 -0.17697850878E-01  0.71442305717E-02  0.23441478006E-01  0.00000000000E+00 0.  1.
     999901    1    3    3    0    0  0.46350572761E-01 -0.81586600192E-01  0.56418119757E-01  0.88678506593E+00  0.88000000000E+00 0.  1.
        -11    1    4    4    0    0 -0.45832155299E-01  0.78312701443E-01 -0.40104198545E-01  0.99207225184E-01  0.51100000000E-03 0.  1.
         11    1    4    4    0    0 -0.14129035925E-01  0.20971749626E-01 -0.23458151784E-01  0.34496230876E-01  0.51100000000E-03 0. -1.
</event>
<event>
 8    1  0.1061722E+005  0.1043930E+01  0.7957747E-01            NaN
         13   -1    0    0    0    0  0.00000000000E+00  0.00000000000E+00  0.74505805969E-08  0.10566000000E+00  0.10566000000E+00 0. -1.
     999900   -1    0    0    0    0 -0.00000000000E+00 -0.00000000000E+00 -0.74505805969E-08  0.93827000000E+00  0.93827000000E+00 0.  1.
     999902    2    1    2    0    0  0.11504806098E-01  0.39780483513E-02 -0.20358779121E-01  0.10202094326E+01  0.10199336356E+01 0.  0.
     999903    2    3    3    0    0 -0.81384848652E-01 -0.71885062988E-01 -0.69949964456E-01  0.13069103181E+00  0.19904582319E-01 0.  0.
         14    1    1    2    0    0 -0.11504806098E-01 -0.39780483513E-02  0.20358779121E-01  0.23720567433E-01  0.00000000000E+00 0.  1.
     999901    1    3    3    0    0  0.92889654750E-01  0.75863111340E-01  0.49591185335E-01  0.88951840076E+00  0.88000000000E+00 0.  1.
        -11    1    4    4    0    0 -0.23147613036E-01 -0.26076459437E-01 -0.12918982019E-01  0.37188102176E-01  0.51100000000E-03 0.  1.
         11    1    4    4    0    0 -0.58237235617E-01 -0.45808603552E-01 -0.57030982436E-01  0.93502929635E-01  0.51100000000E-03 0. -1.
</event>
<event>
 8    1  0.1061722E+005  0.1043930E+01  0.7957747E-01            NaN
         13   -1    0    0    0    0  0.00000000000E+00  0.00000000000E+00  0.74505805969E-08  0.10566000000E+00  0.10566000000E+00 0. -1.
     999900   -1    0    0    0    0 -0.00000000000E+00 -0.00000000000E+00 -0.74505805969E-08  0.93827000000E+00  0.93827000000E+00 0.  1.
     999902    2    1    2    0    0  0.20123386718E-01  0.47725512448E-02 -0.35946329825E-02  0.10229383511E+01  0.10227229443E+01 0.  0.
     999903    2    3    3    0    0  0.78588744342E-01 -0.10164074620E+00 -0.30357379938E-01  0.13419866335E+00  0.24097275837E-01 0.  0.
         14    1    1    2    0    0 -0.20123386718E-01 -0.47725512448E-02  0.35946329825E-02  0.20991648927E-01  0.00000000000E+00 0. -1.
     999901    1    3    3    0    0 -0.58465357624E-01  0.10641329744E+00  0.26762746955E-01  0.88873968773E+00  0.88000000000E+00 0.  1.
        -11    1    4    4    0    0  0.93429272765E-02 -0.27605166277E-01 -0.98897581934E-02  0.30779927443E-01  0.51100000000E-03 0. -1.
         11    1    4    4    0    0  0.69245817066E-01 -0.74035579920E-01 -0.20467621744E-01  0.10341873590E+00  0.51100000000E-03 0.  1.
</event>
<event>
 8    1  0.1061722E+005  0.1043930E+01  0.7957747E-01            NaN
         13   -1    0    0    0    0  0.00000000000E+00  0.00000000000E+00  0.74505805969E-08  0.10566000000E+00  0.10566000000E+00 0. -1.
     999900   -1    0    0    0    0 -0.00000000000E+00 -0.00000000000E+00 -0.74505805969E-08  0.93827000000E+00  0.93827000000E+00 0. -1.
     999902    2    1    2    0    0  0.12490934980E-01 -0.17101082576E-01  0.99990096180E-02  0.10205109762E+01  0.10202422271E+01 0.  0.
     999903    2    3    3    0    0  0.11765413223E+00  0.15044984971E-01 -0.52560617863E-01  0.13146296024E+00  0.21237819125E-01 0.  0.
         14    1    1    2    0    0 -0.12490934980E-01  0.17101082576E-01 -0.99990096180E-02  0.23419023790E-01  0.00000000000E+00 0.  1.
     999901    1    3    3    0    0 -0.10516319725E+00 -0.32146067547E-01  0.62559627481E-01  0.88904801597E+00  0.88000000000E+00 0. -1.
        -11    1    4    4    0    0  0.22679283787E-01 -0.46492737030E-02 -0.62925581495E-02  0.23996313636E-01  0.51100000000E-03 0. -1.
         11    1    4    4    0    0  0.94974848441E-01  0.19694258674E-01 -0.46268059714E-01  0.10746664660E+00  0.51100000000E-03 0.  1.
</event>
<event>
 8    1  0.1061722E+005  0.1043930E+01  0.7957747E-01            NaN
         13   -1    0    0    0    0  0.00000000000E+00  0.00000000000E+00  0.74505805969E-08  0.10566000000E+00  0.10566000000E+00 0. -1.
     999900   -1    0    0    0    0 -0.00000000000E+00 -0.00000000000E+00 -0.74505805969E-08  0.93827000000E+00  0.93827000000E+00 0. -1.
     999902    2    1    2    0    0 -0.92592289597E-02  0.17131836277E-01 -0.10468253001E-02  0.10244279750E+01  0.10242423283E+01 0.  0.
     999903    2    3    3    0    0  0.52098947948E-01 -0.93812795552E-01  0.74716811862E-01  0.13211991951E+00  0.18919042543E-01 0.  0.
         14    1    1    2    0    0  0.92592289597E-02 -0.17131836277E-01  0.10468253001E-02  0.19502024981E-01  0.00000000000E+00 0.  1.
     999901    1    3    3    0    0 -0.61358176908E-01  0.11094463183E+00 -0.75763637162E-01  0.89230805551E+00  0.88000000000E+00 0.  1.
        -11    1    4    4    0    0  0.30516019259E-01 -0.38924714941E-01  0.27695110010E-01  0.56688985740E-01  0.51100000000E-03 0. -1.
         11    1    4    4    0    0  0.21582928688E-01 -0.54888080611E-01  0.47021701852E-01  0.75430933773E-01  0.51100000000E-03 0.  1.
</event>
<event>
 8    1  0.1061722E+005  0.1043930E+01  0.7957747E-01            NaN
         13   -1    0    0    0    0  0.00000000000E+00  0.00000000000E+00  0.74505805969E-08  0.10566000000E+00  0.10566000000E+00 0.  1.
     999900   -1    0    0    0    0 -0.00000000000E+00 -0.00000000000E+00 -0.74505805969E-08  0.93827000000E+00  0.93827000000E+00 0.  1.
     999902    2    1    2    0    0  0.18386677372E-01 -0.11192726235E-01  0.48657220089E-02  0.10218614188E+01  0.10216230895E+01 0.  0.
     999903    2    3    3    0    0  0.26757825121E-01 -0.12824391248E+00  0.43537840201E-02  0.13407128685E+00  0.28172188913E-01 0.  0.
         14    1    1    2    0    0 -0.18386677372E-01  0.11192726235E-01 -0.48657220089E-02  0.22068581197E-01  0.00000000000E+00 0. -1.
     999901    1    3    3    0    0 -0.83711477488E-02  0.11705118625E+00  0.51193798877E-03  0.88779013196E+00  0.88000000000E+00 0.  1.
        -11    1    4    4    0    0  0.43417539900E-02 -0.82125110411E-01  0.81863041988E-02  0.82647814763E-01  0.51100000000E-03 0.  1.
         11    1    4    4    0    0  0.22416071131E-01 -0.46118802071E-01 -0.38325201787E-02  0.51423472085E-01  0.51100000000E-03 0. -1.
</event>
<event>
 8    1  0.1061722E+005  0.1043930E+01  0.7957747E-01            NaN
         13   -1    0    0    0    0  0.00000000000E+00  0.00000000000E+00  0.74505805969E-08  0.10566000000E+00  0.10566000000E+00 0.  1.
     999900   -1    0    0    0    0 -0.00000000000E+00 -0.00000000000E+00 -0.74505805969E-08  0.93827000000E+00  0.93827000000E+00 0. -1.
     999902    2    1    2    0    0 -0.15638208670E-01 -0.17256955944E-01  0.35330859339E-02  0.10203749837E+01  0.10201030676E+01 0.  0.
     999903    2    3    3    0    0  0.68974871293E-01 -0.12827540582E-01  0.10779180763E+00  0.13017900856E+00  0.20135089035E-01 0.  0.
         14    1    1    2    0    0  0.15638208670E-01  0.17256955944E-01 -0.35330859339E-02  0.23555016346E-01  0.00000000000E+00 0. -1.
     999901    1    3    3    0    0 -0.84613079963E-01 -0.44294153620E-02 -0.10425872170E+00  0.89019597509E+00  0.88000000000E+00 0. -1.
        -11    1    4    4    0    0  0.36789514217E-01 -0.16590661386E-01  0.54724702291E-01  0.67998327651E-01  0.51100000000E-03 0.  1.
         11    1    4    4    0    0  0.32185357077E-01  0.37631208041E-02  0.53067105340E-01  0.62180680910E-01  0.51100000000E-03 0. -1.
</event>
<event>
 8    1  0.1061722E+005  0.1043930E+01  0.7957747E-01            NaN
         13   -1    0    0    0    0  0.00000000000E+00  0.00000000000E+00  0.74505805969E-08  0.10566000000E+00  0.10566000000E+00 0.  1.
     999900   -1    0    0    0    0 -0.00000000000E+00 -0.00000000000E+00 -0.74505805969E-08  0.93827000000E+00  0.93827000000E+00 0. -1.
     999902    2    1    2    0    0  0.10437334710E-01  0.17527432500E-01  0.10261076945E-01  0.10210949711E+01  0.10208396061E+01 0.  0.
     999903    2    3    3    0    0 -0.28574407262E-01  0.64586076465E-02  0.12753890642E+00  0.13238887557E+00  0.20060691979E-01 0.  0.
         14    1    1    2    0    0 -0.10437334710E-01 -0.17527432500E-01 -0.10261076945E-01  0.22835028924E-01  0.00000000000E+00 0.  1.
     999901    1    3    3    0    0  0.39011741972E-01  0.11068824853E-01 -0.11727782947E+00  0.88870609550E+00  0.88000000000E+00 0. -1.
        -11    1    4    4    0    0 -0.79440026107E-02  0.97071974127E-02  0.71267235648E-01  0.72364472340E-01  0.51100000000E-03 0.  1.
         11    1    4    4    0    0 -0.20630404651E-01 -0.32485897662E-02  0.56271670769E-01  0.60024403235E-01  0.51100000000E-03 0. -1.
</event>
<event>
 8    1  0.1061722E+005  0.1043930E+01  0.7957747E-01            NaN
         13   -1    0    0    0    0  0.00000000000E+00  0.00000000000E+00  0.74505805969E-08  0.10566000000E+00  0.10566000000E+00 0.  1.
     999900   -1    0    0    0    0 -0.00000000000E+00 -0.00000000000E+00 -0.74505805969E-08  0.93827000000E+00  0.93827000000E+00 0. -1.
     999902    2    1    2    0    0 -0.53240970910E-02  0.12603541010E-01  0.19837141304E-01  0.10198321281E+01  0.10195473810E+01 0.  0.
     999903    2    3    3    0    0 -0.46645160988E-02 -0.12654289634E+00 -0.74033053298E-02  0.12848247278E+00  0.20446871611E-01 0.  0.
         14    1    1    2    0    0  0.53240970910E-02 -0.12603541010E-01 -0.19837141304E-01  0.24097871917E-01  0.00000000000E+00 0. -1.
     999901    1    3    3    0    0 -0.65958099220E-03  0.13914643735E+00  0.27240446634E-01  0.89134965530E+00  0.88000000000E+00 0.  1.
        -11    1    4    4    0    0  0.74988970420E-02 -0.62643033460E-01 -0.78278015397E-03  0.63097202503E-01  0.51100000000E-03 0. -1.
         11    1    4    4    0    0 -0.12163413141E-01 -0.63899862875E-01 -0.66205251759E-02  0.65385270278E-01  0.51100000000E-03 0.  1.
</event>
<event>
 8    1  0.1061722E+005  0.1043930E+01  0.7957747E-01            NaN
         13   -1    0    0    0    0  0.00000000000E+00  0.00000000000E+00  0.74505805969E-08  0.10566000000E+00  0.10566000000E+00 0.  1.
     999900   -1    0    0    0    0 -0.00000000000E+00 -0.00000000000E+00 -0.74505805969E-08  0.93827000000E+00  0.93827000000E+00 0.  1.
     999902    2    1    2    0    0 -0.16194590680E-01 -0.17535624510E-01  0.16579592585E-02  0.10200027828E+01  0.10197221019E+01 0.  0.
     999903    2    3    3    0    0  0.30346012850E-01 -0.41308733293E-01 -0.11804462062E+00  0.13036246440E+00  0.20797781730E-01 0.  0.
         14    1    1    2    0    0  0.16194590680E-01  0.17535624510E-01 -0.16579592585E-02  0.23927217205E-01  0.00000000000E+00 0.  1.
     999901    1    3    3    0    0 -0.46540603531E-01  0.23773108783E-01  0.11970257988E+00  0.88964031839E+00  0.88000000000E+00 0.  1.
        -11    1    4    4    0    0  0.12246443156E-01 -0.11047131748E-01 -0.61898056035E-01  0.64059698342E-01  0.51100000000E-03 0. -1.
         11    1    4    4    0    0  0.18099569694E-01 -0.30261601545E-01 -0.56146564589E-01  0.66302766061E-01  0.51100000000E-03 0.  1.
</event>
<event>
 8    1  0.1061722E+005  0.1043930E+01  0.7957747E-01            NaN
         13   -1    0    0    0    0  0.00000000000E+00  0.00000000000E+00  0.74505805969E-08  0.10566000000E+00  0.10566000000E+00 0. -1.
     999900   -1    0    0    0    0 -0.00000000000E+00 -0.00000000000E+00 -0.74505805969E-08  0.93827000000E+00  0.93827000000E+00 0. -1.
     999902    2    1    2    0    0  0.20471067340E-01 -0.52632011495E-02  0.37180559821E-02  0.10224686435E+01  0.10222433844E+01 0.  0.
     999903    2    3    3    0    0 -0.45038710023E-01 -0.12158494178E+00  0.18014460314E-01  0.13228514246E+00  0.19064487071E-01 0.  0.
         14    1    1    2    0    0 -0.20471067340E-01  0.52632011495E-02 -0.37180559821E-02  0.21461356543E-01  0.00000000000E+00 0.  1.
     999901    1    3    3    0    0  0.65509777362E-01  0.11632174063E+00 -0.14296404332E-01  0.89018350100E+00  0.88000000000E+00 0.  1.
        -11    1    4    4    0    0 -0.21069042964E-01 -0.48504615630E-01 -0.16048379489E-02  0.52909724387E-01  0.51100000000E-03 0.  1.
         11    1    4    4    0    0 -0.23969667059E-01 -0.73080326148E-01  0.19619298263E-01  0.79375418072E-01  0.51100000000E-03 0. -1.
</event>
<event>
 8    1  0.1061722E+005  0.1043930E+01  0.7957747E-01            NaN
         13   -1    0    0    0    0  0.00000000000E+00  0.00000000000E+00  0.74505805969E-08  0.10566000000E+00  0.10566000000E+00 0. -1.
     999900   -1    0    0    0    0 -0.00000000000E+00 -0.00000000000E+00 -0.74505805969E-08  0.93827000000E+00  0.93827000000E+00 0.  1.
     999902    2    1    2    0    0  0.49640449625E-02 -0.33094967984E-02 -0.25301617612E-01  0.10179344934E+01  0.10176025090E+01 0.  0.
     999903    2    3    3    0    0  0.44846620089E-01 -0.89767718622E-01  0.75756223987E-01  0.12704823167E+00  0.18242397293E-01 0.  0.
         14    1    1    2    0    0 -0.49640449625E-02  0.33094967984E-02  0.25301617612E-01  0.25995506635E-01  0.00000000000E+00 0. -1.
     999901    1    3    3    0    0 -0.39882575127E-01  0.86458221823E-01 -0.10105784160E+00  0.89088626169E+00  0.88000000000E+00 0.  1.
        -11    1    4    4    0    0  0.26864318050E-01 -0.41104177225E-01  0.45737288436E-01  0.67107418697E-01  0.51100000000E-03 0.  1.
         11    1    4    4    0    0  0.17982302039E-01 -0.48663541396E-01  0.30018935551E-01  0.59940812978E-01  0.51100000000E-03 0. -1.
</event>
<event>
 8    1  0.1061722E+005  0.1043930E+01  0.7957747E-01            NaN
         13   -1    0    0    0    0  0.00000000000E+00  0.00000000000E+00  0.74505805969E-08  0.10566000000E+00  0.10566000000E+00 0. -1.
     999900   -1    0    0    0    0 -0.00000000000E+00 -0.00000000000E+00 -0.74505805969E-08  0.93827000000E+00  0.93827000000E+00 0.  1.
     999902    2    1    2    0    0 -0.39925911542E-02 -0.11679669442E-01 -0.18782786255E-01  0.10214544906E+01  0.10212071915E+01 0.  0.
     999903    2    3    3    0    0  0.33915917863E-01  0.71274969975E-01 -0.10468074863E+00  0.13258049100E+00  0.19726039403E-01 0.  0.
         14    1    1    2    0    0  0.39925911542E-02  0.11679669442E-01  0.18782786255E-01  0.22475509380E-01  0.00000000000E+00 0. -1.
     999901    1    3    3    0    0 -0.37908509017E-01 -0.82954639417E-01  0.85897962378E-01  0.88887399962E+00  0.88000000000E+00 0. -1.
        -11    1    4    4    0    0  0.34780630200E-01  0.66261488589E-01 -0.10275105010E+00  0.12711536699E+00  0.51100000000E-03 0. -1.
         11    1    4    4    0    0 -0.86471233763E-03  0.50134813860E-02 -0.19296985310E-02  0.54651240110E-02  0.51100000000E-03 0.  1.
</event>
<event>
 8    1  0.1061722E+005  0.1043930E+01  0.7957747E-01            NaN
         13   -1    0    0    0    0  0.00000000000E+00  0.00000000000E+00  0.74505805969E-08  0.10566000000E+00  0.10566000000E+00 0.  1.
     999900   -1    0    0    0    0 -0.00000000000E+00 -0.00000000000E+00 -0.74505805969E-08  0.93827000000E+00  0.93827000000E+00 0. -1.
     999902    2    1    2    0    0  0.16892771655E-01 -0.12615739336E-01  0.10308468902E-01  0.10204611452E+01  0.10201912378E+01 0.  0.
     999903    2    3    3    0    0 -0.52997989232E-01  0.45831694235E-02 -0.11535856510E+00  0.12862443128E+00  0.20170609167E-01 0.  0.
         14    1    1    2    0    0 -0.16892771655E-01  0.12615739336E-01 -0.10308468902E-01  0.23468854771E-01  0.00000000000E+00 0.  1.
     999901    1    3    3    0    0  0.69890760887E-01 -0.17198908759E-01  0.12566703400E+00  0.89183671395E+00  0.88000000000E+00 0.  1.
        -11    1    4    4    0    0 -0.41336866289E-01  0.62211480741E-02 -0.68014972941E-01  0.79835686652E-01  0.51100000000E-03 0.  1.
         11    1    4    4    0    0 -0.11661122942E-01 -0.16379786506E-02 -0.47343592160E-01  0.48788744624E-01  0.51100000000E-03 0. -1.
</event>
<event>
 8    1  0.1061722E+005  0.1043930E+01  0.7957747E-01            NaN
         13   -1    0    0    0    0  0.00000000000E+00  0.00000000000E+00  0.74505805969E-08  0.10566000000E+00  0.10566000000E+00 0.  1.
     999900   -1    0    0    0    0 -0.00000000000E+00 -0.00000000000E+00 -0.74505805969E-08  0.93827000000E+00  0.93827000000E+00 0. -1.
     999902    2    1    2    0    0  0.72630363682E-02 -0.60350791667E-02  0.20547188650E-01  0.10213167110E+01  0.10210663364E+01 0.  0.
     999903    2    3    3    0    0 -0.70113896787E-01  0.86754237924E-01 -0.62310734030E-01  0.12920546093E+00  0.19213725280E-01 0.  0.
         14    1    1    2    0    0 -0.72630363682E-02  0.60350791667E-02 -0.20547188650E-01  0.22613288997E-01  0.00000000000E+00 0. -1.
     999901    1    3    3    0    0  0.77376933155E-01 -0.92789317091E-01  0.82857922680E-01  0.89211125007E+00  0.88000000000E+00 0.  1.
        -11    1    4    4    0    0 -0.60329946271E-02  0.55960460678E-02 -0.11056360352E-01  0.13791917234E-01  0.51100000000E-03 0.  1.
         11    1    4    4    0    0 -0.64080902160E-01  0.81158191856E-01 -0.51254373678E-01  0.11541354370E+00  0.51100000000E-03 0. -1.
</event>
<event>
 8    1  0.1061722E+005  0.1043930E+01  0.7957747E-01            NaN
         13   -1    0    0    0    0  0.00000000000E+00  0.00000000000E+00  0.74505805969E-08  0.10566000000E+00  0.10566000000E+00 0. -1.
     999900   -1    0    0    0    0 -0.00000000000E+00 -0.00000000000E+00 -0.74505805969E-08  0.93827000000E+00  0.93827000000E+00 0.  1.
     999902    2    1    2    0    0 -0.38261674045E-02 -0.19645089988E-01 -0.12398387047E-01  0.10203866545E+01  0.10201150109E+01 0.  0.
     999903    2    3    3    0    0 -0.11964958095E+00 -0.15383770450E-01 -0.50737142922E-01  0.13195934614E+00  0.16921251366E-01 0.  0.
         14    1    1    2    0    0  0.38261674045E-02  0.19645089988E-01  0.12398387047E-01  0.23543345536E-01  0.00000000000E+00 0. -1.
     999901    1    3    3    0    0  0.11582341355E+00 -0.42613195382E-02  0.38338755875E-01  0.88842730832E+00  0.88000000000E+00 0. -1.
        -11    1    4    4    0    0 -0.41637787879E-01  0.99549196025E-03 -0.12099153739E-01  0.43374497414E-01  0.51100000000E-03 0.  1.
         11    1    4    4    0    0 -0.78011793070E-01 -0.16379262411E-01 -0.38637989182E-01  0.88584848728E-01  0.51100000000E-03 0. -1.
</event>
<event>
 8    1  0.1061722E+005  0.1043930E+01  0.7957747E-01            NaN
         13   -1    0    0    0    0  0.00000000000E+00  0.00000000000E+00  0.74505805969E-08  0.10566000000E+00  0.10566000000E+00 0.  1.
     999900   -1    0    0    0    0 -0.00000000000E+00 -0.00000000000E+00 -0.74505805969E-08  0.93827000000E+00  0.93827000000E+00 0. -1.
     999902    2    1    2    0    0 -0.90528195962E-02  0.82923934020E-02  0.18714686379E-01  0.10215479354E+01  0.10213027110E+01 0.  0.
     999903    2    3    3    0    0  0.56379274522E-01  0.11479646102E+00  0.28905227715E-01  0.13265630953E+00  0.20132913600E-01 0.  0.
         14    1    1    2    0    0  0.90528195962E-02 -0.82923934020E-02 -0.18714686379E-01  0.22382064633E-01  0.00000000000E+00 0. -1.
     999901    1    3    3    0    0 -0.65432094118E-01 -0.10650406761E+00 -0.10190541336E-01  0.88889162584E+00  0.88000000000E+00 0. -1.
        -11    1    4    4    0    0  0.46360449165E-01  0.97935737602E-01  0.16928444584E-01  0.10967011126E+00  0.51100000000E-03 0.  1.
         11    1    4    4    0    0  0.10018825356E-01  0.16860723415E-01  0.11976783130E-01  0.22986198266E-01  0.51100000000E-03 0. -1.
</event>
<event>
 8    1  0.1061722E+005  0.1043930E+01  0.7957747E-01            NaN
         13   -1    0    0    0    0  0.00000000000E+00  0.00000000000E+00  0.74505805969E-08  0.10566000000E+00  0.10566000000E+00 0.  1.
     999900   -1    0    0    0    0 -0.00000000000E+00 -0.00000000000E+00 -0.74505805969E-08  0.93827000000E+00  0.93827000000E+00 0. -1.
     999902    2    1    2    0    0  0.19643085474E-01  0.84152200341E-02 -0.10529150775E-01  0.10201071171E+01  0.10198289075E+01 0.  0.
     999903    2    3    3    0    0  0.11426834355E+00 -0.61351102335E-01 -0.14676768100E-01  0.13227915967E+00  0.21474553942E-01 0.  0.
         14    1    1    2    0    0 -0.19643085474E-01 -0.84152200341E-02  0.10529150775E-01  0.23822882932E-01  0.00000000000E+00 0.  1.
     999901    1    3    3    0    0 -0.94625258074E-01  0.69766322369E-01  0.41476173242E-02  0.88782795739E+00  0.88000000000E+00 0. -1.
        -11    1    4    4    0    0  0.79974583637E-01 -0.38335326568E-01 -0.19150276719E-01  0.90733265732E-01  0.51100000000E-03 0.  1.
         11    1    4    4    0    0  0.34293759911E-01 -0.23015775766E-01  0.44735086195E-02  0.41545893941E-01  0.51100000000E-03 0. -1.
</event>
<event>
 8    1  0.1061722E+005  0.1043930E+01  0.7957747E-01            NaN
         13   -1    0    0    0    0  0.00000000000E+00  0.00000000000E+00  0.74505805969E-08  0.10566000000E+00  0.10566000000E+00 0. -1.
     999900   -1    0    0    0    0 -0.00000000000E+00 -0.00000000000E+00 -0.74505805969E-08  0.93827000000E+00  0.93827000000E+00 0.  1.
     999902    2    1    2    0    0  0.29817122565E-02  0.16199337011E-01 -0.16700810564E-01  0.10204730991E+01  0.10202034698E+01 0.  0.
     999903    2    3    3    0    0 -0.49544225360E-01 -0.87308304952E-02 -0.12079891634E+00  0.13243205104E+00  0.20371850335E-01 0.  0.
         14    1    1    2    0    0 -0.29817122565E-02 -0.16199337011E-01  0.16700810564E-01  0.23456900926E-01  0.00000000000E+00 0. -1.
     999901    1    3    3    0    0  0.52525937617E-01  0.24930167506E-01  0.10409810577E+00  0.88804104804E+00  0.88000000000E+00 0. -1.
        -11    1    4    4    0    0 -0.13749036314E-01  0.35020019811E-02 -0.52163655884E-01  0.54061151797E-01  0.51100000000E-03 0.  1.
         11    1    4    4    0    0 -0.35795189047E-01 -0.12232832476E-01 -0.68635260451E-01  0.78370899239E-01  0.51100000000E-03 0. -1.
</event>
<event>
 8    1  0.1061722E+005  0.1043930E+01  0.7957747E-01            NaN
         13   -1    0    0    0    0  0.00000000000E+00  0.00000000000E+00  0.74505805969E-08  0.10566000000E+00  0.10566000000E+00 0.  1.
     999900   -1    0    0    0    0 -0.00000000000E+00 -0.00000000000E+00 -0.74505805969E-08  0.93827000000E+00  0.93827000000E+00 0.  1.
     999902    2    1    2    0    0  0.20545590292E-01 -0.39456800251E-02 -0.10117281399E-01  0.10206910445E+01  0.10204264595E+01 0.  0.
     999903    2    3    3    0    0 -0.52478523893E-01  0.16493024868E-01 -0.11700934783E+00  0.13098537641E+00  0.20975366853E-01 0.  0.
         14    1    1    2    0    0 -0.20545590292E-01  0.39456800251E-02  0.10117281399E-01  0.23238955532E-01  0.00000000000E+00 0.  1.
     999901    1    3    3    0    0  0.73024114185E-01 -0.20438704893E-01  0.10689206643E+00  0.88970566806E+00  0.88000000000E+00 0. -1.
        -11    1    4    4    0    0 -0.17627499415E-01  0.14991685013E-01 -0.57802205312E-01  0.62264238654E-01  0.51100000000E-03 0.  1.
         11    1    4    4    0    0 -0.34851024478E-01  0.15013398542E-02 -0.59207142516E-01  0.68721137756E-01  0.51100000000E-03 0. -1.
</event>
<event>
 8    1  0.1061722E+005  0.1043930E+01  0.7957747E-01            NaN
         13   -1    0    0    0    0  0.00000000000E+00  0.00000000000E+00  0.74505805969E-08  0.10566000000E+00  0.10566000000E+00 0. -1.
     999900   -1    0    0    0    0 -0.00000000000E+00 -0.00000000000E+00 -0.74505805969E-08  0.93827000000E+00  0.93827000000E+00 0. -1.
     999902    2    1    2    0    0  0.55979789430E-02 -0.20614171788E-01 -0.10456214208E-01  0.10201473622E+01  0.10198701028E+01 0.  0.
     999903    2    3    3    0    0  0.57580329522E-01  0.51034610041E-01 -0.10384402587E+00  0.13078973102E+00  0.20058570805E-01 0.  0.
         14    1    1    2    0    0 -0.55979789430E-02  0.20614171788E-01  0.10456214208E-01  0.23782637833E-01  0.00000000000E+00 0.  1.
     999901    1    3    3    0    0 -0.51982350579E-01 -0.71648781828E-01  0.93387811659E-01  0.88935763114E+00  0.88000000000E+00 0.  1.
        -11    1    4    4    0    0  0.30919571151E-01  0.33402168568E-01 -0.74999369525E-01  0.87731928597E-01  0.51100000000E-03 0.  1.
         11    1    4    4    0    0  0.26660758371E-01  0.17632441472E-01 -0.28844656342E-01  0.43057802425E-01  0.51100000000E-03 0. -1.
</event>
<event>
 8    1  0.1061722E+005  0.1043930E+01  0.7957747E-01            NaN
         13   -1    0    0    0    0  0.00000000000E+00  0.00000000000E+00  0.74505805969E-08  0.10566000000E+00  0.10566000000E+00 0.  1.
     999900   -1    0    0    0    0 -0.00000000000E+00 -0.00000000000E+00 -0.74505805969E-08  0.93827000000E+00  0.93827000000E+00 0.  1.
     999902    2    1    2    0    0  0.15187275472E-01  0.12508700605E-01  0.14399773559E-01  0.10195481542E+01  0.10192565743E+01 0.  0.
     999903    2    3    3    0    0 -0.72669596831E-01  0.94582735730E-01  0.49554384333E-01  0.13067762147E+00  0.19855466397E-01 0.  0.
         14    1    1    2    0    0 -0.15187275472E-01 -0.12508700605E-01 -0.14399773559E-01  0.24381845821E-01  0.00000000000E+00 0. -1.
     999901    1    3    3    0    0  0.87856872302E-01 -0.82074035125E-01 -0.35154610774E-01  0.88887053270E+00  0.88000000000E+00 0. -1.
        -11    1    4    4    0    0 -0.10364291591E-01  0.86456078432E-02  0.12044972063E-01  0.18097169617E-01  0.51100000000E-03 0. -1.
         11    1    4    4    0    0 -0.62305305240E-01  0.85937127887E-01  0.37509412270E-01  0.11258045186E+00  0.51100000000E-03 0.  1.
</event>
<event>
 8    1  0.1061722E+005  0.1043930E+01  0.7957747E-01            NaN
         13   -1    0    0    0    0  0.00000000000E+00  0.00000000000E+00  0.74505805969E-08  0.10566000000E+00  0.10566000000E+00 0. -1.
     999900   -1    0    0    0    0 -0.00000000000E+00 -0.00000000000E+00 -0.74505805969E-08  0.93827000000E+00  0.93827000000E+00 0.  1.
     999902    2    1    2    0    0 -0.22165894082E-01  0.35176552297E-02 -0.96361025442E-02  0.10195055198E+01  0.10192129070E+01 0.  0.
     999903    2    3    3    0    0 -0.96702633612E-01  0.73353792688E-02 -0.88481316898E-01  0.13283372691E+00  0.20264462191E-01 0.  0.
         14    1    1    2    0    0  0.22165894082E-01 -0.35176552297E-02  0.96361025442E-02  0.24424480158E-01  0.00000000000E+00 0. -1.
     999901    1    3    3    0    0  0.74536739531E-01 -0.38177240391E-02  0.78845214354E-01  0.88667179293E+00  0.88000000000E+00 0. -1.
        -11    1    4    4    0    0 -0.54635814612E-01  0.13787338263E-01 -0.46624751442E-01  0.73138850844E-01  0.51100000000E-03 0.  1.
         11    1    4    4    0    0 -0.42066819000E-01 -0.64519589941E-02 -0.41856565456E-01  0.59694876065E-01  0.51100000000E-03 0. -1.
</event>
<event>
 8    1  0.1061722E+005  0.1043930E+01  0.7957747E-01            NaN
         13   -1    0    0    0    0  0.00000000000E+00  0.00000000000E+00  0.74505805969E-08  0.10566000000E+00  0.10566000000E+00 0. -1.
     999900   -1    0    0    0    0 -0.00000000000E+00 -0.00000000000E+00 -0.74505805969E-08  0.93827000000E+00  0.93827000000E+00 0.  1.
     999902    2    1    2    0    0 -0.20567879324E-01  0.75102549879E-02  0.92029900497E-02  0.10201784397E+01  0.10199019131E+01 0.  0.
     999903    2    3    3    0    0 -0.85217046722E-01 -0.97620809136E-01  0.12431000478E-01  0.13156014397E+00  0.19020364889E-01 0.  0.
         14    1    1    2    0    0  0.20567879324E-01 -0.75102549879E-02 -0.92029900497E-02  0.23751560279E-01  0.00000000000E+00 0.  1.
     999901    1    3    3    0    0  0.64649167398E-01  0.10513106412E+00 -0.32280104285E-02  0.88861829575E+00  0.88000000000E+00 0.  1.
        -11    1    4    4    0    0 -0.77606766294E-01 -0.78918428668E-01  0.87588330637E-02  0.11103110751E+00  0.51100000000E-03 0.  1.
         11    1    4    4    0    0 -0.76102804272E-02 -0.18702380468E-01  0.36721674145E-02  0.20529036457E-01  0.51100000000E-03 0. -1.
</event>
<event>
 8    1  0.1061722E+005  0.1043930E+01  0.7957747E-01            NaN
         13   -1    0    0    0    0  0.00000000000E+00  0.00000000000E+00  0.74505805969E-08  0.10566000000E+00  0.10566000000E+00 0. -1.
     999900   -1    0    0    0    0 -0.00000000000E+00 -0.00000000000E+00 -0.74505805969E-08  0.93827000000E+00  0.93827000000E+00 0. -1.
     999902    2    1    2    0    0 -0.15500853489E-01  0.13141765508E-01 -0.12635278509E-01  0.10200002544E+01  0.10197195136E+01 0.  0.
     999903    2    3    3    0    0 -0.41693622262E-02  0.13041584298E+00 -0.28030792366E-02  0.13209356785E+00  0.20375910610E-01 0.  0.
         14    1    1    2    0    0  0.15500853489E-01 -0.13141765508E-01  0.12635278509E-01  0.23929745560E-01  0.00000000000E+00 0.  1.
     999901    1    3    3    0    0 -0.11331491262E-01 -0.11727407747E+00 -0.98321992725E-02  0.88790668659E+00  0.88000000000E+00 0.  1.
        -11    1    4    4    0    0 -0.82638563504E-02  0.10897107451E+00 -0.82192512040E-02  0.10959381192E+00  0.51100000000E-03 0. -1.
         11    1    4    4    0    0  0.40944941242E-02  0.21444768477E-01  0.54161719675E-02  0.22499755931E-01  0.51100000000E-03 0.  1.
</event>
<event>
 8    1  0.1061722E+005  0.1043930E+01  0.7957747E-01            NaN
         13   -1    0    0    0    0  0.00000000000E+00  0.00000000000E+00  0.74505805969E-08  0.10566000000E+00  0.10566000000E+00 0.  1.
     999900   -1    0    0    0    0 -0.00000000000E+00 -0.00000000000E+00 -0.74505805969E-08  0.93827000000E+00  0.93827000000E+00 0.  1.
     999902    2    1    2    0    0 -0.12830353286E-01  0.49059865731E-03  0.19427654935E-01  0.10206428269E+01  0.10203771302E+01 0.  0.
     999903    2    3    3    0    0 -0.73564690373E-01 -0.10726743409E+00 -0.33091212975E-02  0.13170108852E+00  0.20400008548E-01 0.  0.
         14    1    1    2    0    0  0.12830353286E-01 -0.49059865731E-03 -0.19427654935E-01  0.23287173052E-01  0.00000000000E+00 0. -1.
     999901    1    3    3    0    0  0.60734337088E-01  0.10775803274E+00  0.22736776233E-01  0.88894173843E+00  0.88000000000E+00 0.  1.
        -11    1    4    4    0    0 -0.30936027779E-01 -0.54126368215E-01 -0.10392510398E-01  0.63205750879E-01  0.51100000000E-03 0.  1.
         11    1    4    4    0    0 -0.42628662595E-01 -0.53141065872E-01  0.70833891001E-02  0.68495337643E-01  0.51100000000E-03 0. -1.
</event>
<event>
 8    1  0.1061722E+005  0.1043930E+01  0.7957747E-01            NaN
         13   -1    0    0    0    0  0.00000000000E+00  0.00000000000E+00  0.74505805969E-08  0.10566000000E+00  0.10566000000E+00 0. -1.
     999900   -1    0    0    0    0 -0.00000000000E+00 -0.00000000000E+00 -0.74505805969E-08  0.93827000000E+00  0.93827000000E+00 0. -1.
     999902    2    1    2    0    0  0.45629725317E-02 -0.11911221190E-01  0.20339884467E-01  0.10199214847E+01  0.10196388704E+01 0.  0.
     999903    2    3    3    0    0  0.83909419554E-01 -0.85735500736E-02 -0.95478462849E-01  0.12878687739E+00  0.18858061125E-01 0.  0.
         14    1    1    2    0    0 -0.45629725317E-02  0.11911221190E-01 -0.20339884467E-01  0.24008515337E-01  0.00000000000E+00 0.  1.
     999901    1    3    3    0    0 -0.79346447022E-01 -0.33376711161E-02  0.11581834732E+00  0.89113460727E+00  0.88000000000E+00 0.  1.
        -11    1    4    4    0    0  0.60459815835E-01 -0.13760882502E-01 -0.74173043801E-01  0.96678088343E-01  0.51100000000E-03 0. -1.
         11    1    4    4    0    0  0.23449603719E-01  0.51873324282E-02 -0.21305419047E-01  0.32108789047E-01  0.51100000000E-03 0.  1.
</event>
<event>
 8    1  0.1061722E+005  0.1043930E+01  0.7957747E-01            NaN
         13   -1    0    0    0    0  0.00000000000E+00  0.00000000000E+00  0.74505805969E-08  0.10566000000E+00  0.10566000000E+00 0.  1.
     999900   -1    0    0    0    0 -0.00000000000E+00 -0.00000000000E+00 -0.74505805969E-08  0.93827000000E+00  0.93827000000E+00 0.  1.
     999902    2    1    2    0    0 -0.70025300837E-02 -0.12332121316E-01  0.18601288055E-01  0.10205393061E+01  0.10202712143E+01 0.  0.
     999903    2    3    3    0    0  0.12204511382E+00 -0.38895180883E-01  0.18556968191E-01  0.13073096017E+00  0.18395052998E-01 0.  0.
         14    1    1    2    0    0  0.70025300837E-02  0.12332121316E-01 -0.18601288055E-01  0.23390693898E-01  0.00000000000E+00 0. -1.
     999901    1    3    3    0    0 -0.12904764390E+00  0.26563059567E-01  0.44319864645E-04  0.88980834593E+00  0.88000000000E+00 0.  1.
        -11    1    4    4    0    0  0.43814930192E-01 -0.17347044023E-01  0.15196158579E-01  0.49516183219E-01  0.51100000000E-03 0. -1.
         11    1    4    4    0    0  0.78230183627E-01 -0.21548136859E-01  0.33608096123E-02  0.81214776948E-01  0.51100000000E-03 0.  1.
</event>
<event>
 8    1  0.1061722E+005  0.1043930E+01  0.7957747E-01            NaN
         13   -1    0    0    0    0  0.00000000000E+00  0.00000000000E+00  0.74505805969E-08  0.10566000000E+00  0.10566000000E+00 0. -1.
     999900   -1    0    0    0    0 -0.00000000000E+00 -0.00000000000E+00 -0.74505805969E-08  0.93827000000E+00  0.93827000000E+00 0.  1.
     999902    2    1    2    0    0 -0.19922981437E-01 -0.34135580502E-02 -0.12273013756E-01  0.10202824962E+01  0.10200084155E+01 0.  0.
     999903    2    3    3    0    0  0.12647032108E+00 -0.59500467596E-02 -0.29074897577E-02  0.12813612604E+00  0.19500464877E-01 0.  0.
         14    1    1    2    0    0  0.19922981437E-01  0.34135580502E-02  0.12273013756E-01  0.23647503770E-01  0.00000000000E+00 0.  1.
     999901    1    3    3    0    0 -0.14639330252E+00  0.25364887093E-02 -0.93655239985E-02  0.89214637019E+00  0.88000000000E+00 0. -1.
        -11    1    4    4    0    0  0.85248328380E-01  0.10617222011E-02  0.56829955762E-02  0.85445668734E-01  0.51100000000E-03 0. -1.
         11    1    4    4    0    0  0.41221992699E-01 -0.70117689607E-02 -0.85904853338E-02  0.42690457310E-01  0.51100000000E-03 0.  1.
</event>
<event>
 8    1  0.1444238E+005  0.1043930E+01  0.7957747E-01            NaN
         13   -1    0    0    0    0  0.00000000000E+00  0.00000000000E+00  0.74505805969E-08  0.10566000000E+00  0.10566000000E+00 0. -1.
     999900   -1    0    0    0    0 -0.00000000000E+00 -0.00000000000E+00 -0.74505805969E-08  0.93827000000E+00  0.93827000000E+00 0. -1.
     999902    2    1    2    0    0 -0.40465226126E-02 -0.23338366835E-01  0.53985024643E-02  0.10196360184E+01  0.10193465615E+01 0.  0.
     999903    2    3    3    0    0  0.88840346678E-01  0.88751434665E-01  0.66962640078E-02  0.12767538125E+00  0.22062154763E-01 0.  0.
         14    1    1    2    0    0  0.40465226126E-02  0.23338366835E-01 -0.53985024643E-02  0.24293981573E-01  0.00000000000E+00 0.  1.
     999901    1    3    3    0    0 -0.92886869291E-01 -0.11208980150E+00 -0.12977615435E-02  0.89196063718E+00  0.88000000000E+00 0.  1.
        -11    1    4    4    0    0  0.22690981641E-01  0.22777846511E-01  0.11436566960E-01  0.34128684773E-01  0.51100000000E-03 0.  1.
         11    1    4    4    0    0  0.66149365037E-01  0.65973588155E-01 -0.47403029523E-02  0.93546696478E-01  0.51100000000E-03 0. -1.
</event>
<event>
 8    1  0.1061722E+005  0.1043930E+01  0.7957747E-01            NaN
         13   -1    0    0    0    0  0.00000000000E+00  0.00000000000E+00  0.74505805969E-08  0.10566000000E+00  0.10566000000E+00 0.  1.
     999900   -1    0    0    0    0 -0.00000000000E+00 -0.00000000000E+00 -0.74505805969E-08  0.93827000000E+00  0.93827000000E+00 0. -1.
     999902    2    1    2    0    0 -0.12105374696E-01 -0.11533292938E-01 -0.15240824877E-01  0.10213061258E+01  0.10210555141E+01 0.  0.
     999903    2    3    3    0    0 -0.96038632766E-01 -0.90696171686E-01  0.22388175849E-02  0.13360285829E+00  0.19887103789E-01 0.  0.
         14    1    1    2    0    0  0.12105374696E-01  0.11533292938E-01  0.15240824877E-01  0.22623874236E-01  0.00000000000E+00 0.  1.
     999901    1    3    3    0    0  0.83933258070E-01  0.79162878748E-01 -0.17479642462E-01  0.88770326747E+00  0.88000000000E+00 0.  1.
        -11    1    4    4    0    0 -0.35206656189E-01 -0.46796742693E-01  0.12036441168E-02  0.58576050113E-01  0.51100000000E-03 0. -1.
         11    1    4    4    0    0 -0.60831976577E-01 -0.43899428993E-01  0.10351734681E-02  0.75026808178E-01  0.51100000000E-03 0.  1.
</event>
<event>
 8    1  0.1061722E+005  0.1043930E+01  0.7957747E-01            NaN
         13   -1    0    0    0    0  0.00000000000E+00  0.00000000000E+00  0.74505805969E-08  0.10566000000E+00  0.10566000000E+00 0. -1.
     999900   -1    0    0    0    0 -0.00000000000E+00 -0.00000000000E+00 -0.74505805969E-08  0.93827000000E+00  0.93827000000E+00 0.  1.
     999902    2    1    2    0    0 -0.60205111194E-02 -0.14920378503E-01  0.18373325151E-01  0.10195078108E+01  0.10192152535E+01 0.  0.
     999903    2    3    3    0    0 -0.11498991913E+00  0.54196259448E-01  0.17569589068E-01  0.13009672051E+00  0.21367035042E-01 0.  0.
         14    1    1    2    0    0  0.60205111194E-02  0.14920378503E-01 -0.18373325151E-01  0.24422189213E-01  0.00000000000E+00 0.  1.
     999901    1    3    3    0    0  0.10896940801E+00 -0.69116637951E-01  0.80373608306E-03  0.88941109028E+00  0.88000000000E+00 0. -1.
        -11    1    4    4    0    0 -0.17495854283E-01  0.40129484114E-02  0.90621247295E-02  0.20114469857E-01  0.51100000000E-03 0.  1.
         11    1    4    4    0    0 -0.97494064848E-01  0.50183311037E-01  0.85074643386E-02  0.10998225065E+00  0.51100000000E-03 0. -1.
</event>
<event>
 8    1  0.1061722E+005  0.1043930E+01  0.7957747E-01            NaN
         13   -1    0    0    0    0  0.00000000000E+00  0.00000000000E+00  0.74505805969E-08  0.10566000000E+00  0.10566000000E+00 0.  1.
     999900   -1    0    0    0    0 -0.00000000000E+00 -0.00000000000E+00 -0.74505805969E-08  0.93827000000E+00  0.93827000000E+00 0. -1.
     999902    2    1    2    0    0  0.23525236023E-02  0.99758709620E-02 -0.20751994226E-01  0.10207848572E+01  0.10205224285E+01 0.  0.
     999903    2    3    3    0    0 -0.87863799726E-01 -0.89954295467E-01 -0.28339572829E-01  0.13051377802E+00  0.20466858324E-01 0.  0.
         14    1    1    2    0    0 -0.23525236023E-02 -0.99758709620E-02  0.20751994226E-01  0.23145142754E-01  0.00000000000E+00 0.  1.
     999901    1    3    3    0    0  0.90216323328E-01  0.99930166429E-01  0.75875786033E-02  0.89027107923E+00  0.88000000000E+00 0. -1.
        -11    1    4    4    0    0 -0.24608909223E-01 -0.18485189924E-01  0.57387238224E-03  0.30787840297E-01  0.51100000000E-03 0.  1.
         11    1    4    4    0    0 -0.63254890504E-01 -0.71469105543E-01 -0.28913445211E-01  0.99725937723E-01  0.51100000000E-03 0. -1.
</event>
<event>
 7    1  0.1061722E+005  0.1043930E+01  0.7957747E-01            NaN
         13   -1    0    0    0    0  0.00000000000E+00  0.00000000000E+00  0.74505805969E-08  0.10566000000E+00  0.10566000000E+00 0. -1.
     999900   -1    0    0    0    0 -0.00000000000E+00 -0.00000000000E+00 -0.74505805969E-08  0.93827000000E+00  0.93827000000E+00 0.  1.
     999903    2    1    2    0    0  0.11434519558E+00 -0.20197680575E-02  0.44645451566E-02  0.11715717904E+00  0.25039353471E-01 0.  0.
         14    1    1    2    0    0  0.15743229232E-03  0.17432672375E-01 -0.34562925597E-01  0.38710704939E-01  0.00000000000E+00 0.  1.
     999901    1    1    2    0    0 -0.11450262787E+00 -0.15412904318E-01  0.30098380440E-01  0.88806211602E+00  0.88000000000E+00 0.  1.
        -11    1    3    3    0    0  0.90266990932E-01  0.83838980775E-02  0.61736680576E-02  0.90866906502E-01  0.51100000000E-03 0.  1.
         11    1    3    3    0    0  0.24078204645E-01 -0.10403666135E-01 -0.17091229010E-02  0.26290272537E-01  0.51100000000E-03 0. -1.
</event>
<event>
 8    1  0.1061722E+005  0.1043930E+01  0.7957747E-01            NaN
         13   -1    0    0    0    0  0.00000000000E+00  0.00000000000E+00  0.74505805969E-08  0.10566000000E+00  0.10566000000E+00 0. -1.
     999900   -1    0    0    0    0 -0.00000000000E+00 -0.00000000000E+00 -0.74505805969E-08  0.93827000000E+00  0.93827000000E+00 0.  1.
     999902    2    1    2    0    0 -0.20971188612E-01 -0.92526190281E-02  0.15407643470E-01  0.10163112168E+01  0.10159358701E+01 0.  0.
     999903    2    3    3    0    0  0.26134963091E-01  0.24699874669E-01 -0.11749389109E+00  0.12443982510E+00  0.19680841563E-01 0.  0.
         14    1    1    2    0    0  0.20971188612E-01  0.92526190281E-02 -0.15407643470E-01  0.27618783246E-01  0.00000000000E+00 0. -1.
     999901    1    3    3    0    0 -0.47106151704E-01 -0.33952493697E-01  0.13290153456E+00  0.89187139165E+00  0.88000000000E+00 0. -1.
        -11    1    4    4    0    0  0.20914760316E-01  0.24761969541E-01 -0.76125129333E-01  0.82739825789E-01  0.51100000000E-03 0.  1.
         11    1    4    4    0    0  0.52202027756E-02 -0.62094871856E-04 -0.41368761754E-01  0.41699999315E-01  0.51100000000E-03 0. -1.
</event>
<event>
 8    1  0.1061722E+005  0.1043930E+01  0.7957747E-01            NaN
         13   -1    0    0    0    0  0.00000000000E+00  0.00000000000E+00  0.74505805969E-08  0.10566000000E+00  0.10566000000E+00 0. -1.
     999900   -1    0    0    0    0 -0.00000000000E+00 -0.00000000000E+00 -0.74505805969E-08  0.93827000000E+00  0.93827000000E+00 0. -1.
     999902    2    1    2    0    0 -0.14351507330E-01 -0.89670831160E-02  0.16601178922E-01  0.10202240201E+01  0.10199485662E+01 0.  0.
     999903    2    3    3    0    0  0.22605035943E-01  0.10240981345E+00 -0.71418756824E-01  0.12808159408E+00  0.17478511799E-01 0.  0.
         14    1    1    2    0    0  0.14351507330E-01  0.89670831160E-02 -0.16601178922E-01  0.23705979917E-01  0.00000000000E+00 0.  1.
     999901    1    3    3    0    0 -0.36956543274E-01 -0.11137689657E+00  0.88019935746E-01  0.89214242600E+00  0.88000000000E+00 0.  1.
        -11    1    4    4    0    0  0.15377254573E-01  0.87378183877E-01 -0.65852552517E-01  0.11049084473E+00  0.51100000000E-03 0.  1.
         11    1    4    4    0    0  0.72277813702E-02  0.15031629577E-01 -0.55662043071E-02  0.17590749349E-01  0.51100000000E-03 0. -1.
</event>
<event>
 8    1  0.1061722E+005  0.1043930E+01  0.7957747E-01            NaN
         13   -1    0    0    0    0  0.00000000000E+00  0.00000000000E+00  0.74505805969E-08  0.10566000000E+00  0.10566000000E+00 0.  1.
     999900   -1    0    0    0    0 -0.00000000000E+00 -0.00000000000E+00 -0.74505805969E-08  0.93827000000E+00  0.93827000000E+00 0. -1.
     999902    2    1    2    0    0 -0.50095474982E-02  0.56263264725E-03 -0.22209052461E-01  0.10211560207E+01  0.10209020347E+01 0.  0.
     999903    2    3    3    0    0 -0.61439558432E-01  0.11186703853E+00 -0.27962784833E-01  0.13233313490E+00  0.21002085763E-01 0.  0.
         14    1    1    2    0    0  0.50095474982E-02 -0.56263264725E-03  0.22209052461E-01  0.22773979293E-01  0.00000000000E+00 0.  1.
     999901    1    3    3    0    0  0.56430010933E-01 -0.11130440588E+00  0.57537323718E-02  0.88882288581E+00  0.88000000000E+00 0. -1.
        -11    1    4    4    0    0 -0.48066636282E-01  0.71874861367E-01 -0.25227229466E-01  0.90072589879E-01  0.51100000000E-03 0.  1.
         11    1    4    4    0    0 -0.13372922149E-01  0.39992177163E-01 -0.27355553661E-02  0.42260545018E-01  0.51100000000E-03 0. -1.
</event>
<event>
 7    1  0.1061722E+005  0.1043930E+01  0.7957747E-01            NaN
         13   -1    0    0    0    0  0.00000000000E+00  0.00000000000E+00  0.74505805969E-08  0.10566000000E+00  0.10566000000E+00 0.  1.
     999900   -1    0    0    0    0 -0.00000000000E+00 -0.00000000000E+00 -0.74505805969E-08  0.93827000000E+00  0.93827000000E+00 0.  1.
     999903    2    1    2    0    0 -0.96206760808E-01  0.18667921334E-01  0.25549749263E-01  0.10330447966E+00  0.20366485189E-01 0.  0.
         14    1    1    2    0    0 -0.40613384597E-01 -0.22567379566E-01  0.15826236711E-01  0.49083636757E-01  0.00000000000E+00 0. -1.
     999901    1    1    2    0    0  0.13682014540E+00  0.38994582319E-02 -0.41375985973E-01  0.89154188358E+00  0.88000000000E+00 0. -1.
        -11    1    3    3    0    0 -0.27466333032E-01  0.10077447803E-01 -0.57083420088E-03  0.29266728159E-01  0.51100000000E-03 0. -1.
         11    1    3    3    0    0 -0.68740427775E-01  0.85904735315E-02  0.26120583463E-01  0.74037751504E-01  0.51100000000E-03 0.  1.
</event>
<event>
 8    1  0.1061722E+005  0.1043930E+01  0.7957747E-01            NaN
         13   -1    0    0    0    0  0.00000000000E+00  0.00000000000E+00  0.74505805969E-08  0.10566000000E+00  0.10566000000E+00 0.  1.
     999900   -1    0    0    0    0 -0.00000000000E+00 -0.00000000000E+00 -0.74505805969E-08  0.93827000000E+00  0.93827000000E+00 0.  1.
     999902    2    1    2    0    0 -0.12295881585E-01  0.33699509434E-02  0.19949516775E-01  0.10202545171E+01  0.10199797797E+01 0.  0.
     999903    2    3    3    0    0 -0.88628925519E-01  0.57120627949E-01  0.79039963493E-01  0.13334553087E+00  0.20392699630E-01 0.  0.
         14    1    1    2    0    0  0.12295881585E-01 -0.33699509434E-02 -0.19949516775E-01  0.23675482948E-01  0.00000000000E+00 0. -1.
     999901    1    3    3    0    0  0.76333043935E-01 -0.53750677006E-01 -0.59090446719E-01  0.88690898618E+00  0.88000000000E+00 0.  1.
        -11    1    4    4    0    0 -0.40019954321E-01  0.29515569553E-01  0.49295862047E-01  0.70022201664E-01  0.51100000000E-03 0.  1.
         11    1    4    4    0    0 -0.48608971198E-01  0.27605058396E-01  0.29744101446E-01  0.63323329206E-01  0.51100000000E-03 0. -1.
</event>
<event>
 8    1  0.1061722E+005  0.1043930E+01  0.7957747E-01            NaN
         13   -1    0    0    0    0  0.00000000000E+00  0.00000000000E+00  0.74505805969E-08  0.10566000000E+00  0.10566000000E+00 0. -1.
     999900   -1    0    0    0    0 -0.00000000000E+00 -0.00000000000E+00 -0.74505805969E-08  0.93827000000E+00  0.93827000000E+00 0. -1.
     999902    2    1    2    0    0 -0.11018936113E-01  0.19239003565E-01  0.81508134087E-02  0.10203081463E+01  0.10200346668E+01 0.  0.
     999903    2    3    3    0    0 -0.93173073217E-01  0.86574125457E-01 -0.32301483172E-01  0.13299776706E+00  0.21649929679E-01 0.  0.
         14    1    1    2    0    0  0.11018936113E-01 -0.19239003565E-01 -0.81508134087E-02  0.23621853662E-01  0.00000000000E+00 0. -1.
     999901    1    3    3    0    0  0.82154137104E-01 -0.67335121893E-01  0.40452296581E-01  0.88731037928E+00  0.88000000000E+00 0. -1.
        -11    1    4    4    0    0 -0.65878028090E-01  0.72534591918E-01 -0.28609863959E-01  0.10207823983E+00  0.51100000000E-03 0. -1.
         11    1    4    4    0    0 -0.27295045127E-01  0.14039533539E-01 -0.36916192131E-02  0.30919527226E-01  0.51100000000E-03 0.  1.
</event>
<event>
 8    1  0.1061722E+005  0.1043930E+01  0.7957747E-01            NaN
         13   -1    0    0    0    0  0.00000000000E+00  0.00000000000E+00  0.74505805969E-08  0.10566000000E+00  0.10566000000E+00 0.  1.
     999900   -1    0    0    0    0 -0.00000000000E+00 -0.00000000000E+00 -0.74505805969E-08  0.93827000000E+00  0.93827000000E+00 0. -1.
     999902    2    1    2    0    0  0.19106802207E-01 -0.53483432703E-02  0.13039853418E-01  0.10201873708E+01  0.10199110545E+01 0.  0.
     999903    2    3    3    0    0 -0.11497152566E+00  0.47865892572E-01  0.27299648016E-01  0.12832858449E+00  0.14606828168E-01 0.  0.
         14    1    1    2    0    0 -0.19106802207E-01  0.53483432703E-02 -0.13039853418E-01  0.23742629246E-01  0.00000000000E+00 0.  1.
     999901    1    3    3    0    0  0.13407832787E+00 -0.53214235843E-01 -0.14259794598E-01  0.89185878627E+00  0.88000000000E+00 0. -1.
        -11    1    4    4    0    0 -0.44060918465E-01  0.15004093664E-01  0.37410378013E-02  0.46698435171E-01  0.51100000000E-03 0.  1.
         11    1    4    4    0    0 -0.70910607200E-01  0.32861798909E-01  0.23558610215E-01  0.81630149315E-01  0.51100000000E-03 0. -1.
</event>
<event>
 7    1  0.1061722E+005  0.1043930E+01  0.7957747E-01            NaN
         13   -1    0    0    0    0  0.00000000000E+00  0.00000000000E+00  0.74505805969E-08  0.10566000000E+00  0.10566000000E+00 0.  1.
     999900   -1    0    0    0    0 -0.00000000000E+00 -0.00000000000E+00 -0.74505805969E-08  0.93827000000E+00  0.93827000000E+00 0.  1.
     999903    2    1    2    0    0  0.10411326778E+00  0.18441344943E-01 -0.54381299224E-01  0.12042581339E+00  0.19115310473E-01 0.  0.
         14    1    1    2    0    0 -0.30547636700E-01 -0.23244989892E-01 -0.33796344707E-02  0.38534524678E-01  0.00000000000E+00 0.  1.
     999901    1    1    2    0    0 -0.73565631078E-01  0.48036449495E-02  0.57760933695E-01  0.88496966193E+00  0.88000000000E+00 0. -1.
        -11    1    3    3    0    0  0.74921652503E-01  0.15529316085E-01 -0.48227473729E-01  0.90446470440E-01  0.51100000000E-03 0.  1.
         11    1    3    3    0    0  0.29191615275E-01  0.29120288572E-02 -0.61538254957E-02  0.29979342949E-01  0.51100000000E-03 0. -1.
</event>
<event>
 8    1  0.1061722E+005  0.1043930E+01  0.7957747E-01            NaN
         13   -1    0    0    0    0  0.00000000000E+00  0.00000000000E+00  0.74505805969E-08  0.10566000000E+00  0.10566000000E+00 0.  1.
     999900   -1    0    0    0    0 -0.00000000000E+00 -0.00000000000E+00 -0.74505805969E-08  0.93827000000E+00  0.93827000000E+00 0. -1.
     999902    2    1    2    0    0 -0.19764966071E-01  0.25182276031E-01 -0.46648904842E-02  0.10115793877E+01  0.10110619643E+01 0.  0.
     999903    2    3    3    0    0 -0.78305390138E-02  0.11100121338E+00  0.54659455583E-01  0.12533636318E+00  0.18410897245E-01 0.  0.
         14    1    1    2    0    0  0.19764966071E-01 -0.25182276031E-01  0.46648904842E-02  0.32350612253E-01  0.00000000000E+00 0. -1.
     999901    1    3    3    0    0 -0.11934427057E-01 -0.85818937349E-01 -0.59324346067E-01  0.88624302457E+00  0.88000000000E+00 0. -1.
        -11    1    4    4    0    0  0.25073899577E-02  0.53276610759E-01  0.18580034900E-01  0.56481528629E-01  0.51100000000E-03 0. -1.
         11    1    4    4    0    0 -0.10337928972E-01  0.57724602621E-01  0.36079420683E-01  0.68854834551E-01  0.51100000000E-03 0.  1.
</event>
<event>
 8    1  0.1061722E+005  0.1043930E+01  0.7957747E-01            NaN
         13   -1    0    0    0    0  0.00000000000E+00  0.00000000000E+00  0.74505805969E-08  0.10566000000E+00  0.10566000000E+00 0. -1.
     999900   -1    0    0    0    0 -0.00000000000E+00 -0.00000000000E+00 -0.74505805969E-08  0.93827000000E+00  0.93827000000E+00 0.  1.
     999902    2    1    2    0    0 -0.16799373146E-01 -0.14372987860E-01  0.10410756535E-01  0.10194926194E+01  0.10191996936E+01 0.  0.
     999903    2    3    3    0    0 -0.62038475897E-01  0.81136560824E-01 -0.76286946239E-01  0.12893934085E+00  0.19332393989E-01 0.  0.
         14    1    1    2    0    0  0.16799373146E-01  0.14372987860E-01 -0.10410756535E-01  0.24437380583E-01  0.00000000000E+00 0. -1.
     999901    1    3    3    0    0  0.45239102751E-01 -0.95509548684E-01  0.86697702774E-01  0.89055327857E+00  0.88000000000E+00 0. -1.
        -11    1    4    4    0    0 -0.12013712381E-01  0.30050137854E-01 -0.21430978882E-01  0.38818655915E-01  0.51100000000E-03 0. -1.
         11    1    4    4    0    0 -0.50024763516E-01  0.51086422970E-01 -0.54855967357E-01  0.90120684931E-01  0.51100000000E-03 0.  1.
</event>
<event>
 8    1  0.1061722E+005  0.1043930E+01  0.7957747E-01            NaN
         13   -1    0    0    0    0  0.00000000000E+00  0.00000000000E+00  0.74505805969E-08  0.10566000000E+00  0.10566000000E+00 0. -1.
     999900   -1    0    0    0    0 -0.00000000000E+00 -0.00000000000E+00 -0.74505805969E-08  0.93827000000E+00  0.93827000000E+00 0.  1.
     999902    2    1    2    0    0  0.23939655172E-01  0.79266559652E-02  0.83012684979E-03  0.10186985102E+01  0.10183859910E+01 0.  0.
     999903    2    3    3    0    0  0.12114967393E-02 -0.15602127076E-01  0.12669347381E+00  0.12914145478E+00  0.19529079454E-01 0.  0.
         14    1    1    2    0    0 -0.23939655172E-01 -0.79266559652E-02 -0.83012684979E-03  0.25231489752E-01  0.00000000000E+00 0.  1.
     999901    1    3    3    0    0  0.22728158432E-01  0.23528783041E-01 -0.12586334696E+00  0.88955705546E+00  0.88000000000E+00 0. -1.
        -11    1    4    4    0    0 -0.78961581607E-02 -0.13460173229E-01  0.82737722810E-01  0.84198084740E-01  0.51100000000E-03 0. -1.
         11    1    4    4    0    0  0.91076549000E-02 -0.21419538466E-02  0.43955750999E-01  0.44943370044E-01  0.51100000000E-03 0.  1.
</event>
<event>
 8    1  0.1061722E+005  0.1043930E+01  0.7957747E-01            NaN
         13   -1    0    0    0    0  0.00000000000E+00  0.00000000000E+00  0.74505805969E-08  0.10566000000E+00  0.10566000000E+00 0.  1.
     999900   -1    0    0    0    0 -0.00000000000E+00 -0.00000000000E+00 -0.74505805969E-08  0.93827000000E+00  0.93827000000E+00 0. -1.
     999902    2    1    2    0    0 -0.21498803184E-01 -0.68961747993E-02  0.10521473120E-01  0.10190210225E+01  0.10187165391E+01 0.  0.
     999903    2    3    3    0    0  0.90658902297E-01  0.63965152219E-01 -0.57081377600E-01  0.12651285780E+00  0.20895986606E-01 0.  0.
         14    1    1    2    0    0  0.21498803184E-01  0.68961747993E-02 -0.10521473120E-01  0.24908977535E-01  0.00000000000E+00 0.  1.
     999901    1    3    3    0    0 -0.11215770548E+00 -0.70861327019E-01  0.67602850720E-01  0.89250816466E+00  0.88000000000E+00 0. -1.
        -11    1    4    4    0    0  0.41182726250E-01  0.23387310768E-01 -0.14061113372E-01  0.49406065180E-01  0.51100000000E-03 0. -1.
         11    1    4    4    0    0  0.49476176047E-01  0.40577841451E-01 -0.43020264228E-01  0.77106792621E-01  0.51100000000E-03 0.  1.
</event>
<event>
 8    1  0.1061722E+005  0.1043930E+01  0.7957747E-01            NaN
         13   -1    0    0    0    0  0.00000000000E+00  0.00000000000E+00  0.74505805969E-08  0.10566000000E+00  0.10566000000E+00 0. -1.
     999900   -1    0    0    0    0 -0.00000000000E+00 -0.00000000000E+00 -0.74505805969E-08  0.93827000000E+00  0.93827000000E+00 0.  1.
     999902    2    1    2    0    0  0.63016513904E-02  0.78773404689E-02  0.21604693451E-01  0.10200862150E+01  0.10198075112E+01 0.  0.
     999903    2    3    3    0    0  0.10352338126E+00 -0.61677644583E-01 -0.42999921453E-01  0.12965726391E+00  0.20995012028E-01 0.  0.
         14    1    1    2    0    0 -0.63016513904E-02 -0.78773404689E-02 -0.21604693451E-01  0.23843784981E-01  0.00000000000E+00 0.  1.
     999901    1    3    3    0    0 -0.97221729874E-01  0.69554985052E-01  0.64604614904E-01  0.89042895111E+00  0.88000000000E+00 0. -1.
        -11    1    4    4    0    0  0.40782355437E-01 -0.13389105222E-01 -0.11440725947E-01  0.44425442990E-01  0.51100000000E-03 0.  1.
         11    1    4    4    0    0  0.62741025828E-01 -0.48288539361E-01 -0.31559195506E-01  0.85231820921E-01  0.51100000000E-03 0. -1.
</event>
<event>
 8    1  0.1061722E+005  0.1043930E+01  0.7957747E-01            NaN
         13   -1    0    0    0    0  0.00000000000E+00  0.00000000000E+00  0.74505805969E-08  0.10566000000E+00  0.10566000000E+00 0. -1.
     999900   -1    0    0    0    0 -0.00000000000E+00 -0.00000000000E+00 -0.74505805969E-08  0.93827000000E+00  0.93827000000E+00 0. -1.
     999902    2    1    2    0    0 -0.13748578992E-01 -0.78374419250E-02  0.18236323174E-01  0.10197843502E+01  0.10194984593E+01 0.  0.
     999903    2    3    3    0    0  0.56755883121E-01  0.98156875510E-01  0.59519943646E-01  0.12966637387E+00  0.20365223852E-01 0.  0.
         14    1    1    2    0    0  0.13748578992E-01  0.78374419250E-02 -0.18236323174E-01  0.24145649777E-01  0.00000000000E+00 0.  1.
     999901    1    3    3    0    0 -0.70504462113E-01 -0.10599431743E+00 -0.41283620471E-01  0.89011797635E+00  0.88000000000E+00 0.  1.
        -11    1    4    4    0    0  0.33006072486E-01  0.38410672242E-01  0.30538512691E-01  0.59140869468E-01  0.51100000000E-03 0. -1.
         11    1    4    4    0    0  0.23749810635E-01  0.59746203268E-01  0.28981430954E-01  0.70525504403E-01  0.51100000000E-03 0.  1.
</event>
<event>
 8    1  0.1061722E+005  0.1043930E+01  0.7957747E-01            NaN
         13   -1    0    0    0    0  0.00000000000E+00  0.00000000000E+00  0.74505805969E-08  0.10566000000E+00  0.10566000000E+00 0. -1.
     999900   -1    0    0    0    0 -0.00000000000E+00 -0.00000000000E+00 -0.74505805969E-08  0.93827000000E+00  0.93827000000E+00 0.  1.
     999902    2    1    2    0    0  0.20626205169E-01 -0.89877694285E-03 -0.64603148014E-02  0.10222970666E+01  0.10220681526E+01 0.  0.
     999903    2    3    3    0    0  0.11638058094E+00 -0.18502910992E-01  0.61326885591E-01  0.13433653227E+00  0.19962957455E-01 0.  0.
         14    1    1    2    0    0 -0.20626205169E-01  0.89877694285E-03  0.64603148014E-02  0.21632933389E-01  0.00000000000E+00 0. -1.
     999901    1    3    3    0    0 -0.95754375771E-01  0.17604134049E-01 -0.67787200393E-01  0.88796053434E+00  0.88000000000E+00 0.  1.
        -11    1    4    4    0    0  0.69564474593E-01 -0.84424599079E-02  0.46900011298E-01  0.84322970984E-01  0.51100000000E-03 0.  1.
         11    1    4    4    0    0  0.46816106346E-01 -0.10060451084E-01  0.14426874293E-01  0.50013561284E-01  0.51100000000E-03 0. -1.
</event>
<event>
 8    1  0.1061722E+005  0.1043930E+01  0.7957747E-01            NaN
         13   -1    0    0    0    0  0.00000000000E+00  0.00000000000E+00  0.74505805969E-08  0.10566000000E+00  0.10566000000E+00 0.  1.
     999900   -1    0    0    0    0 -0.00000000000E+00 -0.00000000000E+00 -0.74505805969E-08  0.93827000000E+00  0.93827000000E+00 0. -1.
     999902    2    1    2    0    0  0.15231358814E-01  0.11658155398E-01  0.14110859047E-01  0.10201177506E+01  0.10198397923E+01 0.  0.
     999903    2    3    3    0    0 -0.64994105577E-01 -0.41351912561E-01  0.10361376551E+00  0.13036668277E+00  0.18040098105E-01 0.  0.
         14    1    1    2    0    0 -0.15231358814E-01 -0.11658155398E-01 -0.14110859047E-01  0.23812249403E-01  0.00000000000E+00 0. -1.
     999901    1    3    3    0    0  0.80225464391E-01  0.53010067958E-01 -0.89502906464E-01  0.88975106783E+00  0.88000000000E+00 0. -1.
        -11    1    4    4    0    0 -0.29333711633E-01 -0.15901061594E-01  0.30937380551E-01  0.45504868249E-01  0.51100000000E-03 0. -1.
         11    1    4    4    0    0 -0.35660393944E-01 -0.25450850966E-01  0.72676384960E-01  0.84861814516E-01  0.51100000000E-03 0.  1.
</event>
<event>
 8    1  0.1061722E+005  0.1043930E+01  0.7957747E-01            NaN
         13   -1    0    0    0    0  0.00000000000E+00  0.00000000000E+00  0.74505805969E-08  0.10566000000E+00  0.10566000000E+00 0. -1.
     999900   -1    0    0    0    0 -0.00000000000E+00 -0.00000000000E+00 -0.74505805969E-08  0.93827000000E+00  0.93827000000E+00 0.  1.
     999902    2    1    2    0    0 -0.51337975804E-02  0.18965262089E-01  0.12847106729E-01  0.10204547962E+01  0.10201847410E+01 0.  0.
     999903    2    3    3    0    0  0.63870801908E-01 -0.10831059967E+00 -0.14927069392E-01  0.12819239945E+00  0.19995212873E-01 0.  0.
         14    1    1    2    0    0  0.51337975804E-02 -0.18965262089E-01 -0.12847106729E-01  0.23475203833E-01  0.00000000000E+00 0.  1.
     999901    1    3    3    0    0 -0.69004599488E-01  0.12727586176E+00  0.27774176121E-01  0.89226239672E+00  0.88000000000E+00 0.  1.
        -11    1    4    4    0    0  0.27110782430E-01 -0.52792771241E-01 -0.16455076867E-01  0.61588163595E-01  0.51100000000E-03 0.  1.
         11    1    4    4    0    0  0.36760019478E-01 -0.55517828432E-01  0.15280074746E-02  0.66604235854E-01  0.51100000000E-03 0. -1.
</event>
<event>
 8    1  0.1061722E+005  0.1043930E+01  0.7957747E-01            NaN
         13   -1    0    0    0    0  0.00000000000E+00  0.00000000000E+00  0.74505805969E-08  0.10566000000E+00  0.10566000000E+00 0. -1.
     999900   -1    0    0    0    0 -0.00000000000E+00 -0.00000000000E+00 -0.74505805969E-08  0.93827000000E+00  0.93827000000E+00 0.  1.
     999902    2    1    2    0    0  0.10322014664E-01  0.10866833321E-03 -0.21912783336E-01  0.10197075751E+01  0.10194198413E+01 0.  0.
     999903    2    3    3    0    0  0.24281841476E-01  0.69407354653E-03  0.12401224465E+00  0.12758127614E+00  0.17545815338E-01 0.  0.
         14    1    1    2    0    0 -0.10322014664E-01 -0.10866833321E-03  0.21912783336E-01  0.24222424921E-01  0.00000000000E+00 0. -1.
     999901    1    3    3    0    0 -0.13959826812E-01 -0.58540521332E-03 -0.14592502798E+00  0.89212629894E+00  0.88000000000E+00 0.  1.
        -11    1    4    4    0    0  0.10662832371E-01  0.90331890679E-02  0.56822883578E-01  0.58518336596E-01  0.51100000000E-03 0.  1.
         11    1    4    4    0    0  0.13619009105E-01 -0.83391155213E-02  0.67189361069E-01  0.69062939545E-01  0.51100000000E-03 0. -1.
</event>
<event>
 8    1  0.1061722E+005  0.1043930E+01  0.7957747E-01            NaN
         13   -1    0    0    0    0  0.00000000000E+00  0.00000000000E+00  0.74505805969E-08  0.10566000000E+00  0.10566000000E+00 0. -1.
     999900   -1    0    0    0    0 -0.00000000000E+00 -0.00000000000E+00 -0.74505805969E-08  0.93827000000E+00  0.93827000000E+00 0. -1.
     999902    2    1    2    0    0  0.21542906524E-01  0.60742151351E-04  0.74249573457E-02  0.10211433701E+01  0.10208890987E+01 0.  0.
     999903    2    3    3    0    0 -0.91350701248E-01 -0.35507005346E-01 -0.81035797692E-01  0.12882317166E+00  0.20564800086E-01 0.  0.
         14    1    1    2    0    0 -0.21542906524E-01 -0.60742151351E-04 -0.74249573457E-02  0.22786629911E-01  0.00000000000E+00 0. -1.
     999901    1    3    3    0    0  0.11289360777E+00  0.35567747498E-01  0.88460755038E-01  0.89232019843E+00  0.88000000000E+00 0.  1.
        -11    1    4    4    0    0  0.16405149533E-03 -0.29599379575E-02 -0.22590040741E-02  0.37619630530E-02  0.51100000000E-03 0.  1.
         11    1    4    4    0    0 -0.91514752743E-01 -0.32547067389E-01 -0.78776793618E-01  0.12506120861E+00  0.51100000000E-03 0. -1.
</event>
<event>
 8    1  0.1061722E+005  0.1043930E+01  0.7957747E-01            NaN
         13   -1    0    0    0    0  0.00000000000E+00  0.00000000000E+00  0.74505805969E-08  0.10566000000E+00  0.10566000000E+00 0. -1.
     999900   -1    0    0    0    0 -0.00000000000E+00 -0.00000000000E+00 -0.74505805969E-08  0.93827000000E+00  0.93827000000E+00 0.  1.
     999902    2    1    2    0    0 -0.44912630885E-02  0.20781903442E-01 -0.90716786116E-02  0.10208138951E+01  0.10205521320E+01 0.  0.
     999903    2    3    3    0    0  0.91419718438E-01  0.14218393851E-01 -0.91621052887E-01  0.13173774802E+00  0.20017224561E-01 0.  0.
         14    1    1    2    0    0  0.44912630885E-02 -0.20781903442E-01  0.90716786116E-02  0.23116104941E-01  0.00000000000E+00 0. -1.
     999901    1    3    3    0    0 -0.95910981526E-01  0.65635095908E-02  0.82549374275E-01  0.88907614704E+00  0.88000000000E+00 0. -1.
        -11    1    4    4    0    0  0.49032456274E-01  0.15964638599E-01 -0.57959433484E-01  0.77579691316E-01  0.51100000000E-03 0.  1.
         11    1    4    4    0    0  0.42387262164E-01 -0.17462447481E-02 -0.33661619402E-01  0.54158056707E-01  0.51100000000E-03 0. -1.
</event>
<event>
 8    1  0.1061722E+005  0.1043930E+01  0.7957747E-01            NaN
         13   -1    0    0    0    0  0.00000000000E+00  0.00000000000E+00  0.74505805969E-08  0.10566000000E+00  0.10566000000E+00 0.  1.
     999900   -1    0    0    0    0 -0.00000000000E+00 -0.00000000000E+00 -0.74505805969E-08  0.93827000000E+00  0.93827000000E+00 0.  1.
     999902    2    1    2    0    0 -0.35379791763E-02  0.17955492232E-01 -0.15180959612E-01  0.10201523102E+01  0.10198751676E+01 0.  0.
     999903    2    3    3    0    0 -0.12731038340E+00 -0.72934586911E-02 -0.23891630846E-01  0.13108932403E+00  0.18774253305E-01 0.  0.
         14    1    1    2    0    0  0.35379791763E-02 -0.17955492232E-01  0.15180959612E-01  0.23777689810E-01  0.00000000000E+00 0.  1.
     999901    1    3    3    0    0  0.12377240423E+00  0.25248950923E-01  0.87106712334E-02  0.88906298616E+00  0.88000000000E+00 0.  1.
        -11    1    4    4    0    0 -0.88549752462E-01 -0.85172727721E-02 -0.85058384808E-02  0.89365614225E-01  0.51100000000E-03 0.  1.
         11    1    4    4    0    0 -0.38760630943E-01  0.12238140810E-02 -0.15385792365E-01  0.41723709803E-01  0.51100000000E-03 0. -1.
</event>
<event>
 8    1  0.1061722E+005  0.1043930E+01  0.7957747E-01            NaN
         13   -1    0    0    0    0  0.00000000000E+00  0.00000000000E+00  0.74505805969E-08  0.10566000000E+00  0.10566000000E+00 0. -1.
     999900   -1    0    0    0    0 -0.00000000000E+00 -0.00000000000E+00 -0.74505805969E-08  0.93827000000E+00  0.93827000000E+00 0. -1.
     999902    2    1    2    0    0  0.93981352667E-02 -0.21346157469E-01 -0.52521542852E-02  0.10200225010E+01  0.10197422880E+01 0.  0.
     999903    2    3    3    0    0 -0.11932025923E+00 -0.10202513263E-01 -0.45571499966E-01  0.12967523416E+00  0.19937131298E-01 0.  0.
         14    1    1    2    0    0 -0.93981352667E-02  0.21346157469E-01  0.52521542852E-02  0.23907499029E-01  0.00000000000E+00 0.  1.
     999901    1    3    3    0    0  0.12871839450E+00 -0.11143644206E-01  0.40319345681E-01  0.89034726681E+00  0.88000000000E+00 0.  1.
        -11    1    4    4    0    0 -0.87907820736E-01 -0.16276977409E-01 -0.33237674160E-01  0.95382016359E-01  0.51100000000E-03 0.  1.
         11    1    4    4    0    0 -0.31412438495E-01  0.60744641460E-02 -0.12333825806E-01  0.34293217797E-01  0.51100000000E-03 0. -1.
</event>
<event>
 8    1  0.1061722E+005  0.1043930E+01  0.7957747E-01            NaN
         13   -1    0    0    0    0  0.00000000000E+00  0.00000000000E+00  0.74505805969E-08  0.10566000000E+00  0.10566000000E+00 0.  1.
     999900   -1    0    0    0    0 -0.00000000000E+00 -0.00000000000E+00 -0.74505805969E-08  0.93827000000E+00  0.93827000000E+00 0.  1.
     999902    2    1    2    0    0  0.22512592482E-01  0.59952362159E-02  0.27744874417E-02  0.10204681702E+01  0.10201984262E+01 0.  0.
     999903    2    3    3    0    0  0.10641114927E+00 -0.10154487059E-01  0.76947919115E-01  0.13322441599E+00  0.20032884584E-01 0.  0.
         14    1    1    2    0    0 -0.22512592482E-01 -0.59952362159E-02 -0.27744874417E-02  0.23461829812E-01  0.00000000000E+00 0.  1.
     999901    1    3    3    0    0 -0.83898556784E-01  0.16149723274E-01 -0.74173431674E-01  0.88724375420E+00  0.88000000000E+00 0.  1.
        -11    1    4    4    0    0  0.10395257439E-01  0.49030980305E-02  0.68171402960E-02  0.13372967896E-01  0.51100000000E-03 0.  1.
         11    1    4    4    0    0  0.96015891828E-01 -0.15057585089E-01  0.70130778819E-01  0.11985144810E+00  0.51100000000E-03 0. -1.
</event>
<event>
 8    1  0.1061722E+005  0.1043930E+01  0.7957747E-01            NaN
         13   -1    0    0    0    0  0.00000000000E+00  0.00000000000E+00  0.74505805969E-08  0.10566000000E+00  0.10566000000E+00 0. -1.
     999900   -1    0    0    0    0 -0.00000000000E+00 -0.00000000000E+00 -0.74505805969E-08  0.93827000000E+00  0.93827000000E+00 0. -1.
     999902    2    1    2    0    0 -0.60586716430E-02  0.23544689912E-01  0.15176031661E-02  0.10195709556E+01  0.10192799274E+01 0.  0.
     999903    2    3    3    0    0  0.50132984985E-01  0.10340419328E+00 -0.61734525479E-01  0.13191343474E+00  0.19602531870E-01 0.  0.
         14    1    1    2    0    0  0.60586716430E-02 -0.23544689912E-01 -0.15176031661E-02  0.24359044408E-01  0.00000000000E+00 0.  1.
     999901    1    3    3    0    0 -0.56191656628E-01 -0.79859503372E-01  0.63252128645E-01  0.88765752086E+00  0.88000000000E+00 0. -1.
        -11    1    4    4    0    0  0.29914006266E-01  0.75771745713E-01 -0.35931768921E-01  0.89036837084E-01  0.51100000000E-03 0. -1.
         11    1    4    4    0    0  0.20218978719E-01  0.27632447570E-01 -0.25802756558E-01  0.42876597652E-01  0.51100000000E-03 0.  1.
</event>
<event>
 8    1  0.1061722E+005  0.1043930E+01  0.7957747E-01            NaN
         13   -1    0    0    0    0  0.00000000000E+00  0.00000000000E+00  0.74505805969E-08  0.10566000000E+00  0.10566000000E+00 0. -1.
     999900   -1    0    0    0    0 -0.00000000000E+00 -0.00000000000E+00 -0.74505805969E-08  0.93827000000E+00  0.93827000000E+00 0. -1.
     999902    2    1    2    0    0  0.19158649499E-01  0.81514559757E-02 -0.86621066900E-02  0.10213793420E+01  0.10211303678E+01 0.  0.
     999903    2    3    3    0    0  0.86772200790E-01  0.85335445218E-01  0.50882622146E-01  0.13341845587E+00  0.19997252066E-01 0.  0.
         14    1    1    2    0    0 -0.19158649499E-01 -0.81514559757E-02  0.86621066900E-02  0.22550658027E-01  0.00000000000E+00 0. -1.
     999901    1    3    3    0    0 -0.67613551291E-01 -0.77183989242E-01 -0.59544728836E-01  0.88796088610E+00  0.88000000000E+00 0. -1.
        -11    1    4    4    0    0  0.41630737433E-01  0.29836566747E-01  0.14937230081E-01  0.53354671566E-01  0.51100000000E-03 0.  1.
         11    1    4    4    0    0  0.45141463357E-01  0.55498878472E-01  0.35945392064E-01  0.80063784305E-01  0.51100000000E-03 0. -1.
</event>
<event>
 8    1  0.1061722E+005  0.1043930E+01  0.7957747E-01            NaN
         13   -1    0    0    0    0  0.00000000000E+00  0.00000000000E+00  0.74505805969E-08  0.10566000000E+00  0.10566000000E+00 0.  1.
     999900   -1    0    0    0    0 -0.00000000000E+00 -0.00000000000E+00 -0.74505805969E-08  0.93827000000E+00  0.93827000000E+00 0.  1.
     999902    2    1    2    0    0  0.11099831778E-01  0.10031436118E-02  0.21978277694E-01  0.10192874098E+01  0.10189894830E+01 0.  0.
     999903    2    3    3    0    0  0.12316689404E-01  0.12681111782E+00  0.16973969723E-01  0.13032499763E+00  0.21534365988E-01 0.  0.
         14    1    1    2    0    0 -0.11099831778E-01 -0.10031436118E-02 -0.21978277694E-01  0.24642590225E-01  0.00000000000E+00 0. -1.
     999901    1    3    3    0    0 -0.12168576258E-02 -0.12580797420E+00  0.50043079712E-02  0.88896241215E+00  0.88000000000E+00 0.  1.
        -11    1    4    4    0    0  0.54728796492E-02  0.75361040583E-01  0.20520847587E-01  0.78298181052E-01  0.51100000000E-03 0.  1.
         11    1    4    4    0    0  0.68438097547E-02  0.51450077233E-01 -0.35468778638E-02  0.52026816574E-01  0.51100000000E-03 0. -1.
</event>
<event>
 8    1  0.1061722E+005  0.1043930E+01  0.7957747E-01            NaN
         13   -1    0    0    0    0  0.00000000000E+00  0.00000000000E+00  0.74505805969E-08  0.10566000000E+00  0.10566000000E+00 0.  1.
     999900   -1    0    0    0    0 -0.00000000000E+00 -0.00000000000E+00 -0.74505805969E-08  0.93827000000E+00  0.93827000000E+00 0.  1.
     999902    2    1    2    0    0 -0.19901474290E-01 -0.30116266776E-02  0.13255085495E-01  0.10198294634E+01  0.10195446525E+01 0.  0.
     999903    2    3    3    0    0  0.11368700339E+00  0.38537043431E-01  0.40686749481E-01  0.12835614939E+00  0.20249717187E-01 0.  0.
         14    1    1    2    0    0  0.19901474290E-01  0.30116266776E-02 -0.13255085495E-01  0.24100536625E-01  0.00000000000E+00 0. -1.
     999901    1    3    3    0    0 -0.13358847768E+00 -0.41548670108E-01 -0.27431663986E-01  0.89147331398E+00  0.88000000000E+00 0. -1.
        -11    1    4    4    0    0  0.32720747116E-01  0.16691810224E-01  0.20613904285E-01  0.42124315914E-01  0.51100000000E-03 0. -1.
         11    1    4    4    0    0  0.80966256277E-01  0.21845233206E-01  0.20072845197E-01  0.86231833476E-01  0.51100000000E-03 0.  1.
</event>
<event>
 8    1  0.1061722E+005  0.1043930E+01  0.7957747E-01            NaN
         13   -1    0    0    0    0  0.00000000000E+00  0.00000000000E+00  0.74505805969E-08  0.10566000000E+00  0.10566000000E+00 0. -1.
     999900   -1    0    0    0    0 -0.00000000000E+00 -0.00000000000E+00 -0.74505805969E-08  0.93827000000E+00  0.93827000000E+00 0. -1.
     999902    2    1    2    0    0 -0.14607931393E-02 -0.17940300972E-01  0.15214360419E-01  0.10203616933E+01  0.10200894667E+01 0.  0.
     999903    2    3    3    0    0 -0.11557524334E+00  0.55449612957E-01  0.81016976823E-02  0.12993551607E+00  0.19629171684E-01 0.  0.
         14    1    1    2    0    0  0.14607931393E-02  0.17940300972E-01 -0.15214360419E-01  0.23568306653E-01  0.00000000000E+00 0.  1.
     999901    1    3    3    0    0  0.11411445020E+00 -0.73389913929E-01  0.71126627366E-02  0.89042617728E+00  0.88000000000E+00 0. -1.
        -11    1    4    4    0    0 -0.14204587151E-01  0.56606289589E-02 -0.53284362629E-02  0.16200813879E-01  0.51100000000E-03 0. -1.
         11    1    4    4    0    0 -0.10137065619E+00  0.49788983998E-01  0.13430133945E-01  0.11373470219E+00  0.51100000000E-03 0.  1.
</event>
<event>
 8    1  0.1061722E+005  0.1043930E+01  0.7957747E-01            NaN
         13   -1    0    0    0    0  0.00000000000E+00  0.00000000000E+00  0.74505805969E-08  0.10566000000E+00  0.10566000000E+00 0.  1.
     999900   -1    0    0    0    0 -0.00000000000E+00 -0.00000000000E+00 -0.74505805969E-08  0.93827000000E+00  0.93827000000E+00 0. -1.
     999902    2    1    2    0    0 -0.10894847229E-01  0.20819309347E-02  0.17763109985E-01  0.10229881708E+01  0.10227737958E+01 0.  0.
     999903    2    3    3    0    0  0.11523924820E-01 -0.12945240431E+00 -0.14920484873E-01  0.13232993107E+00  0.19946527603E-01 0.  0.
         14    1    1    2    0    0  0.10894847229E-01 -0.20819309347E-02 -0.17763109985E-01  0.20941829168E-01  0.00000000000E+00 0.  1.
     999901    1    3    3    0    0 -0.22418772050E-01  0.13153433524E+00  0.32683594858E-01  0.89065823976E+00  0.88000000000E+00 0. -1.
        -11    1    4    4    0    0  0.70331024020E-03 -0.98460417930E-01 -0.14269464281E-01  0.99492850376E-01  0.51100000000E-03 0.  1.
         11    1    4    4    0    0  0.10820614580E-01 -0.30991986377E-01 -0.65102059211E-03  0.32837080691E-01  0.51100000000E-03 0. -1.
</event>
<event>
 8    1  0.1061722E+005  0.1043930E+01  0.7957747E-01            NaN
         13   -1    0    0    0    0  0.00000000000E+00  0.00000000000E+00  0.74505805969E-08  0.10566000000E+00  0.10566000000E+00 0.  1.
     999900   -1    0    0    0    0 -0.00000000000E+00 -0.00000000000E+00 -0.74505805969E-08  0.93827000000E+00  0.93827000000E+00 0. -1.
     999902    2    1    2    0    0  0.20268254067E-01  0.99503806099E-02  0.14725874123E-02  0.10213030092E+01  0.10210523277E+01 0.  0.
     999903    2    3    3    0    0  0.24020727535E-02 -0.36229514843E-01 -0.12414122844E+00  0.13100496144E+00  0.20806432291E-01 0.  0.
         14    1    1    2    0    0 -0.20268254067E-01 -0.99503806099E-02 -0.14725874123E-02  0.22626990761E-01  0.00000000000E+00 0.  1.
     999901    1    3    3    0    0  0.17866181313E-01  0.46179895453E-01  0.12561381585E+00  0.89029804780E+00  0.88000000000E+00 0.  1.
        -11    1    4    4    0    0 -0.64063507206E-03 -0.10989568243E-01 -0.73675448678E-01  0.74495059449E-01  0.51100000000E-03 0.  1.
         11    1    4    4    0    0  0.30427078256E-02 -0.25239946600E-01 -0.50465779762E-01  0.56509901993E-01  0.51100000000E-03 0. -1.
</event>
<event>
 8    1  0.1061722E+005  0.1043930E+01  0.7957747E-01            NaN
         13   -1    0    0    0    0  0.00000000000E+00  0.00000000000E+00  0.74505805969E-08  0.10566000000E+00  0.10566000000E+00 0. -1.
     999900   -1    0    0    0    0 -0.00000000000E+00 -0.00000000000E+00 -0.74505805969E-08  0.93827000000E+00  0.93827000000E+00 0. -1.
     999902    2    1    2    0    0  0.17765417316E-01  0.19830585017E-01  0.22564517028E-02  0.10172100874E+01  0.10168590896E+01 0.  0.
     999903    2    3    3    0    0  0.47437660408E-01 -0.99210516734E-01 -0.59384141227E-01  0.12656381160E+00  0.19971577851E-01 0.  0.
         14    1    1    2    0    0 -0.17765417316E-01 -0.19830585017E-01 -0.22564517028E-02  0.26719912590E-01  0.00000000000E+00 0.  1.
     999901    1    3    3    0    0 -0.29672243092E-01  0.11904110175E+00  0.61640592930E-01  0.89064627581E+00  0.88000000000E+00 0. -1.
        -11    1    4    4    0    0  0.51438015229E-02 -0.10394235937E-01  0.90663018201E-04  0.11608969618E-01  0.51100000000E-03 0. -1.
         11    1    4    4    0    0  0.42293858885E-01 -0.88816280797E-01 -0.59474804245E-01  0.11495484198E+00  0.51100000000E-03 0.  1.
</event>
<event>
 8    1  0.1061722E+005  0.1043930E+01  0.7957747E-01            NaN
         13   -1    0    0    0    0  0.00000000000E+00  0.00000000000E+00  0.74505805969E-08  0.10566000000E+00  0.10566000000E+00 0.  1.
     999900   -1    0    0    0    0 -0.00000000000E+00 -0.00000000000E+00 -0.74505805969E-08  0.93827000000E+00  0.93827000000E+00 0. -1.
     999902    2    1    2    0    0  0.15592056901E-01  0.16421344098E-01 -0.47544801627E-02  0.10207917662E+01  0.10205294960E+01 0.  0.
     999903    2    3    3    0    0 -0.61665306406E-01  0.25388573169E-01 -0.11103023676E+00  0.13099198660E+00  0.19595852061E-01 0.  0.
         14    1    1    2    0    0 -0.15592056901E-01 -0.16421344098E-01  0.47544801627E-02  0.23138233770E-01  0.00000000000E+00 0.  1.
     999901    1    3    3    0    0  0.77257363307E-01 -0.89672290714E-02  0.10627575660E+00  0.88979977963E+00  0.88000000000E+00 0.  1.
        -11    1    4    4    0    0 -0.16761384889E-01  0.24026060973E-03 -0.39092419998E-01  0.42537985035E-01  0.51100000000E-03 0. -1.
         11    1    4    4    0    0 -0.44903921517E-01  0.25148312559E-01 -0.71937816761E-01  0.88454001569E-01  0.51100000000E-03 0.  1.
</event>
<event>
 8    1  0.1061722E+005  0.1043930E+01  0.7957747E-01            NaN
         13   -1    0    0    0    0  0.00000000000E+00  0.00000000000E+00  0.74505805969E-08  0.10566000000E+00  0.10566000000E+00 0. -1.
     999900   -1    0    0    0    0 -0.00000000000E+00 -0.00000000000E+00 -0.74505805969E-08  0.93827000000E+00  0.93827000000E+00 0. -1.
     999902    2    1    2    0    0 -0.62251515790E-02  0.18140181241E-01  0.11500051941E-01  0.10215677577E+01  0.10213229722E+01 0.  0.
     999903    2    3    3    0    0  0.11716022010E+00  0.46885230937E-01 -0.30737642107E-01  0.13149233916E+00  0.20510742601E-01 0.  0.
         14    1    1    2    0    0  0.62251515790E-02 -0.18140181241E-01 -0.11500051941E-01  0.22362242336E-01  0.00000000000E+00 0.  1.
     999901    1    3    3    0    0 -0.12338537168E+00 -0.28745049695E-01  0.42237694048E-01  0.89007541850E+00  0.88000000000E+00 0. -1.
        -11    1    4    4    0    0  0.52778801138E-01  0.12345785201E-01 -0.69234482171E-02  0.54646276342E-01  0.51100000000E-03 0.  1.
         11    1    4    4    0    0  0.64381418960E-01  0.34539445736E-01 -0.23814193890E-01  0.76846062818E-01  0.51100000000E-03 0. -1.
</event>
<event>
 8    1  0.1061722E+005  0.1043930E+01  0.7957747E-01            NaN
         13   -1    0    0    0    0  0.00000000000E+00  0.00000000000E+00  0.74505805969E-08  0.10566000000E+00  0.10566000000E+00 0. -1.
     999900   -1    0    0    0    0 -0.00000000000E+00 -0.00000000000E+00 -0.74505805969E-08  0.93827000000E+00  0.93827000000E+00 0. -1.
     999902    2    1    2    0    0 -0.19421419830E-01  0.36192939719E-02 -0.12502693740E-01  0.10205503467E+01  0.10202825109E+01 0.  0.
     999903    2    3    3    0    0 -0.11302537287E+00 -0.60924670859E-01  0.25312899809E-01  0.13243006064E+00  0.20259013583E-01 0.  0.
         14    1    1    2    0    0  0.19421419830E-01 -0.36192939719E-02  0.12502693740E-01  0.23379653287E-01  0.00000000000E+00 0. -1.
     999901    1    3    3    0    0  0.93603953045E-01  0.64543964830E-01 -0.37815593549E-01  0.88812028607E+00  0.88000000000E+00 0. -1.
        -11    1    4    4    0    0 -0.47049043180E-01 -0.32459826804E-01  0.19256686419E-01  0.60318603375E-01  0.51100000000E-03 0. -1.
         11    1    4    4    0    0 -0.65976329694E-01 -0.28464844054E-01  0.60562133898E-02  0.72111457263E-01  0.51100000000E-03 0.  1.
</event>
<event>
 8    1  0.1061722E+005  0.1043930E+01  0.7957747E-01            NaN
         13   -1    0    0    0    0  0.00000000000E+00  0.00000000000E+00  0.74505805969E-08  0.10566000000E+00  0.10566000000E+00 0. -1.
     999900   -1    0    0    0    0 -0.00000000000E+00 -0.00000000000E+00 -0.74505805969E-08  0.93827000000E+00  0.93827000000E+00 0.  1.
     999902    2    1    2    0    0 -0.11855493708E-01 -0.11646777282E-01 -0.10488722825E-01  0.10242776857E+01  0.10240891386E+01 0.  0.
     999903    2    3    3    0    0  0.10336872047E+00  0.55141601641E-01 -0.59439712087E-01  0.13291159565E+00  0.20167406395E-01 0.  0.
         14    1    1    2    0    0  0.11855493708E-01  0.11646777282E-01  0.10488722825E-01  0.19652314332E-01  0.00000000000E+00 0. -1.
     999901    1    3    3    0    0 -0.11522421418E+00 -0.66788378922E-01  0.48950989262E-01  0.89136609002E+00  0.88000000000E+00 0. -1.
        -11    1    4    4    0    0  0.23507258678E-01  0.17232286466E-01 -0.64952689157E-02  0.29866244269E-01  0.51100000000E-03 0.  1.
         11    1    4    4    0    0  0.79861461793E-01  0.37909315175E-01 -0.52944443172E-01  0.10304535138E+00  0.51100000000E-03 0. -1.
</event>
<event>
 8    1  0.1061722E+005  0.1043930E+01  0.7957747E-01            NaN
         13   -1    0    0    0    0  0.00000000000E+00  0.00000000000E+00  0.74505805969E-08  0.10566000000E+00  0.10566000000E+00 0.  1.
     999900   -1    0    0    0    0 -0.00000000000E+00 -0.00000000000E+00 -0.74505805969E-08  0.93827000000E+00  0.93827000000E+00 0.  1.
     999902    2    1    2    0    0  0.46566590660E-02 -0.13940008007E-01  0.18281850120E-01  0.10204729256E+01  0.10202032922E+01 0.  0.
     999903    2    3    3    0    0 -0.84090670921E-01 -0.16467680778E-01 -0.94968753782E-01  0.12878453998E+00  0.14965563735E-01 0.  0.
         14    1    1    2    0    0 -0.46566590660E-02  0.13940008007E-01 -0.18281850120E-01  0.23457074428E-01  0.00000000000E+00 0. -1.
     999901    1    3    3    0    0  0.88747329987E-01  0.25276727706E-02  0.11325060390E+00  0.89168838559E+00  0.88000000000E+00 0. -1.
        -11    1    4    4    0    0 -0.30839739853E-01 -0.82565596693E-02 -0.25466762682E-01  0.40842103940E-01  0.51100000000E-03 0.  1.
         11    1    4    4    0    0 -0.53250931067E-01 -0.82111211085E-02 -0.69501991100E-01  0.87942436043E-01  0.51100000000E-03 0. -1.
</event>
<event>
 8    1  0.1061722E+005  0.1043930E+01  0.7957747E-01            NaN
         13   -1    0    0    0    0  0.00000000000E+00  0.00000000000E+00  0.74505805969E-08  0.10566000000E+00  0.10566000000E+00 0. -1.
     999900   -1    0    0    0    0 -0.00000000000E+00 -0.00000000000E+00 -0.74505805969E-08  0.93827000000E+00  0.93827000000E+00 0. -1.
     999902    2    1    2    0    0 -0.58022036909E-02  0.18158860192E-01  0.13692066752E-01  0.10204591146E+01  0.10201891599E+01 0.  0.
     999903    2    3    3    0    0  0.58640523279E-01  0.11462410998E+00  0.25501482378E-01  0.13276667246E+00  0.19981645377E-01 0.  0.
         14    1    1    2    0    0  0.58022036909E-02 -0.18158860192E-01 -0.13692066752E-01  0.23470885434E-01  0.00000000000E+00 0.  1.
     999901    1    3    3    0    0 -0.64442726970E-01 -0.96465249793E-01 -0.11809415626E-01  0.88769244211E+00  0.88000000000E+00 0. -1.
        -11    1    4    4    0    0  0.11988269186E-01  0.43420543769E-01  0.61296945861E-02  0.45463133372E-01  0.51100000000E-03 0. -1.
         11    1    4    4    0    0  0.46652254093E-01  0.71203566216E-01  0.19371787792E-01  0.87303539087E-01  0.51100000000E-03 0.  1.
</event>
<event>
 8    1  0.1061722E+005  0.1043930E+01  0.7957747E-01            NaN
         13   -1    0    0    0    0  0.00000000000E+00  0.00000000000E+00  0.74505805969E-08  0.10566000000E+00  0.10566000000E+00 0.  1.
     999900   -1    0    0    0    0 -0.00000000000E+00 -0.00000000000E+00 -0.74505805969E-08  0.93827000000E+00  0.93827000000E+00 0.  1.
     999902    2    1    2    0    0 -0.11809608710E-01  0.19684625156E-01 -0.47295767099E-02  0.10204924186E+01  0.10202232384E+01 0.  0.
     999903    2    3    3    0    0 -0.30176617702E-01  0.39939435688E-01 -0.12101123225E+00  0.13242202288E+00  0.19649097485E-01 0.  0.
         14    1    1    2    0    0  0.11809608710E-01 -0.19684625156E-01  0.47295767099E-02  0.23437581387E-01  0.00000000000E+00 0.  1.
     999901    1    3    3    0    0  0.18367008992E-01 -0.20254810532E-01  0.11628165554E+00  0.88807039574E+00  0.88000000000E+00 0. -1.
        -11    1    4    4    0    0 -0.19161452779E-01  0.94852389326E-02 -0.47900119872E-01  0.52457731889E-01  0.51100000000E-03 0. -1.
         11    1    4    4    0    0 -0.11015164923E-01  0.30454196755E-01 -0.73111112382E-01  0.79964290987E-01  0.51100000000E-03 0.  1.
</event>
<event>
 8    1  0.1061722E+005  0.1043930E+01  0.7957747E-01            NaN
         13   -1    0    0    0    0  0.00000000000E+00  0.00000000000E+00  0.74505805969E-08  0.10566000000E+00  0.10566000000E+00 0. -1.
     999900   -1    0    0    0    0 -0.00000000000E+00 -0.00000000000E+00 -0.74505805969E-08  0.93827000000E+00  0.93827000000E+00 0.  1.
     999902    2    1    2    0    0 -0.45288677168E-02  0.81834186554E-03 -0.22747112931E-01  0.10207219955E+01  0.10204581229E+01 0.  0.
     999903    2    3    3    0    0 -0.66615316888E-01 -0.30731603554E-01  0.10393879338E+00  0.12892636584E+00  0.20897443319E-01 0.  0.
         14    1    1    2    0    0  0.45288677168E-02 -0.81834186554E-03  0.22747112931E-01  0.23208004500E-01  0.00000000000E+00 0. -1.
     999901    1    3    3    0    0  0.62086449172E-01  0.31549945419E-01 -0.12668590631E+00  0.89179562966E+00  0.88000000000E+00 0.  1.
        -11    1    4    4    0    0 -0.84212537310E-02 -0.12776052153E-01  0.23100267015E-01  0.27713326761E-01  0.51100000000E-03 0.  1.
         11    1    4    4    0    0 -0.58194063157E-01 -0.17955551401E-01  0.80838526367E-01  0.10121303908E+00  0.51100000000E-03 0. -1.
</event>
<event>
 8    1  0.1061722E+005  0.1043930E+01  0.7957747E-01            NaN
         13   -1    0    0    0    0  0.00000000000E+00  0.00000000000E+00  0.74505805969E-08  0.10566000000E+00  0.10566000000E+00 0. -1.
     999900   -1    0    0    0    0 -0.00000000000E+00 -0.00000000000E+00 -0.74505805969E-08  0.93827000000E+00  0.93827000000E+00 0. -1.
     999902    2    1    2    0    0  0.21096974184E-01 -0.42081495165E-02  0.95108231314E-02  0.10204088053E+01  0.10201376786E+01 0.  0.
     999903    2    3    3    0    0  0.13142830936E+00 -0.11897845337E-01 -0.19633918495E-02  0.13341174076E+00  0.19490470490E-01 0.  0.
         14    1    1    2    0    0 -0.21096974184E-01  0.42081495165E-02 -0.95108231314E-02  0.23521194670E-01  0.00000000000E+00 0.  1.
     999901    1    3    3    0    0 -0.11033133518E+00  0.76896958207E-02  0.11474214981E-01  0.88699706457E+00  0.88000000000E+00 0.  1.
        -11    1    4    4    0    0  0.48436795812E-01 -0.26564282526E-02 -0.99584731486E-02  0.49523853929E-01  0.51100000000E-03 0.  1.
         11    1    4    4    0    0  0.82991513551E-01 -0.92414170846E-02  0.79950812991E-02  0.83887886832E-01  0.51100000000E-03 0. -1.
</event>
<event>
 8    1  0.1128374E+005  0.1043930E+01  0.7957747E-01            NaN
         13   -1    0    0    0    0  0.00000000000E+00  0.00000000000E+00  0.74505805969E-08  0.10566000000E+00  0.10566000000E+00 0.  1.
     999900   -1    0    0    0    0 -0.00000000000E+00 -0.00000000000E+00 -0.74505805969E-08  0.93827000000E+00  0.93827000000E+00 0. -1.
     999902    2    1    2    0    0  0.15432984383E-01 -0.12374223556E-01  0.13404791073E-01  0.10200346691E+01  0.10197547447E+01 0.  0.
     999903    2    3    3    0    0  0.87617835765E-01 -0.56002698939E-01 -0.77683501535E-01  0.13132145681E+00  0.19935174311E-01 0.  0.
         14    1    1    2    0    0 -0.15432984383E-01  0.12374223556E-01 -0.13404791073E-01  0.23895330910E-01  0.00000000000E+00 0. -1.
     999901    1    3    3    0    0 -0.72184851382E-01  0.43628475384E-01  0.91088292609E-01  0.88871321228E+00  0.88000000000E+00 0.  1.
        -11    1    4    4    0    0  0.54106017921E-01 -0.25962268573E-01 -0.36047653751E-01  0.70008535384E-01  0.51100000000E-03 0.  1.
         11    1    4    4    0    0  0.33511817844E-01 -0.30040430366E-01 -0.41635847784E-01  0.61312921424E-01  0.51100000000E-03 0. -1.
</event>
<event>
 8    1  0.1061722E+005  0.1043930E+01  0.7957747E-01            NaN
         13   -1    0    0    0    0  0.00000000000E+00  0.00000000000E+00  0.74505805969E-08  0.10566000000E+00  0.10566000000E+00 0. -1.
     999900   -1    0    0    0    0 -0.00000000000E+00 -0.00000000000E+00 -0.74505805969E-08  0.93827000000E+00  0.93827000000E+00 0. -1.
     999902    2    1    2    0    0 -0.22812454977E-02 -0.13834889869E-02 -0.23544770401E-01  0.10202345503E+01  0.10199593439E+01 0.  0.
     999903    2    3    3    0    0 -0.46765186001E-01  0.76291516244E-01  0.89882901553E-01  0.12845090829E+00  0.20330316712E-01 0.  0.
         14    1    1    2    0    0  0.22812454977E-02  0.13834889869E-02  0.23544770401E-01  0.23695449690E-01  0.00000000000E+00 0. -1.
     999901    1    3    3    0    0  0.44483940503E-01 -0.77675005231E-01 -0.11342767195E+00  0.89178364201E+00  0.88000000000E+00 0.  1.
        -11    1    4    4    0    0 -0.80570297567E-02  0.24490673592E-01  0.16377816586E-01  0.30548368510E-01  0.51100000000E-03 0.  1.
         11    1    4    4    0    0 -0.38708156244E-01  0.51800842652E-01  0.73505084967E-01  0.97902539785E-01  0.51100000000E-03 0. -1.
</event>
<event>
 8    1  0.1061722E+005  0.1043930E+01  0.7957747E-01            NaN
         13   -1    0    0    0    0  0.00000000000E+00  0.00000000000E+00  0.74505805969E-08  0.10566000000E+00  0.10566000000E+00 0. -1.
     999900   -1    0    0    0    0 -0.00000000000E+00 -0.00000000000E+00 -0.74505805969E-08  0.93827000000E+00  0.93827000000E+00 0.  1.
     999902    2    1    2    0    0 -0.40294161043E-02  0.12348700077E-01 -0.20546501220E-01  0.10196218676E+01  0.10193320694E+01 0.  0.
     999903    2    3    3    0    0  0.98651152890E-01 -0.52052179691E-01  0.58677757862E-01  0.12778821957E+00  0.21101431582E-01 0.  0.
         14    1    1    2    0    0  0.40294161043E-02 -0.12348700077E-01  0.20546501220E-01  0.24308132387E-01  0.00000000000E+00 0. -1.
     999901    1    3    3    0    0 -0.10268056899E+00  0.64400879768E-01 -0.79224259082E-01  0.89183364805E+00  0.88000000000E+00 0.  1.
        -11    1    4    4    0    0  0.47461391612E-01 -0.30693145701E-01  0.19164156365E-01  0.59683991966E-01  0.51100000000E-03 0.  1.
         11    1    4    4    0    0  0.51189761278E-01 -0.21359033990E-01  0.39513601496E-01  0.68104227600E-01  0.51100000000E-03 0. -1.
</event>
<event>
 8    1  0.1061722E+005  0.1043930E+01  0.7957747E-01            NaN
         13   -1    0    0    0    0  0.00000000000E+00  0.00000000000E+00  0.74505805969E-08  0.10566000000E+00  0.10566000000E+00 0. -1.
     999900   -1    0    0    0    0 -0.00000000000E+00 -0.00000000000E+00 -0.74505805969E-08  0.93827000000E+00  0.93827000000E+00 0.  1.
     999902    2    1    2    0    0  0.10871577719E-01 -0.56802719689E-03 -0.22089696206E-01  0.10193034181E+01  0.10190058830E+01 0.  0.
     999903    2    3    3    0    0  0.57814353938E-01 -0.29919415353E-01 -0.11400510872E+00  0.13278575259E+00  0.19930387392E-01 0.  0.
         14    1    1    2    0    0 -0.10871577719E-01  0.56802719689E-03  0.22089696206E-01  0.24626581887E-01  0.00000000000E+00 0. -1.
     999901    1    3    3    0    0 -0.46942776219E-01  0.29351388156E-01  0.91915412509E-01  0.88651766552E+00  0.88000000000E+00 0. -1.
        -11    1    4    4    0    0  0.52529442227E-01 -0.19660816033E-01 -0.88366266188E-01  0.10466493256E+00  0.51100000000E-03 0. -1.
         11    1    4    4    0    0  0.52849117108E-02 -0.10258599320E-01 -0.25638842527E-01  0.28120820026E-01  0.51100000000E-03 0.  1.
</event>
<event>
 8    1  0.1061722E+005  0.1043930E+01  0.7957747E-01            NaN
         13   -1    0    0    0    0  0.00000000000E+00  0.00000000000E+00  0.74505805969E-08  0.10566000000E+00  0.10566000000E+00 0.  1.
     999900   -1    0    0    0    0 -0.00000000000E+00 -0.00000000000E+00 -0.74505805969E-08  0.93827000000E+00  0.93827000000E+00 0.  1.
     999902    2    1    2    0    0 -0.11201762585E-01  0.77824795016E-02 -0.19739725807E-01  0.10199361831E+01  0.10196539190E+01 0.  0.
     999903    2    3    3    0    0  0.24709126813E-01  0.98278883375E-01 -0.83279149700E-01  0.13228960400E+00  0.17200078062E-01 0.  0.
         14    1    1    2    0    0  0.11201762585E-01 -0.77824795016E-02  0.19739725807E-01  0.23993816852E-01  0.00000000000E+00 0.  1.
     999901    1    3    3    0    0 -0.35910889398E-01 -0.90496403873E-01  0.63539423892E-01  0.88764657915E+00  0.88000000000E+00 0. -1.
        -11    1    4    4    0    0  0.16315084806E-01  0.75140757121E-01 -0.53612776083E-01  0.93738499312E-01  0.51100000000E-03 0.  1.
         11    1    4    4    0    0  0.83940420074E-02  0.23138126254E-01 -0.29666373617E-01  0.38551104684E-01  0.51100000000E-03 0. -1.
</event>
<event>
 8    1  0.1061722E+005  0.1043930E+01  0.7957747E-01            NaN
         13   -1    0    0    0    0  0.00000000000E+00  0.00000000000E+00  0.74505805969E-08  0.10566000000E+00  0.10566000000E+00 0.  1.
     999900   -1    0    0    0    0 -0.00000000000E+00 -0.00000000000E+00 -0.74505805969E-08  0.93827000000E+00  0.93827000000E+00 0. -1.
     999902    2    1    2    0    0 -0.22329778215E-01  0.12329672402E-02 -0.89534451806E-02  0.10198405130E+01  0.10195559664E+01 0.  0.
     999903    2    3    3    0    0  0.11280944379E+00  0.28481844233E-01  0.47690923982E-01  0.12730833141E+00  0.19894746939E-01 0.  0.
         14    1    1    2    0    0  0.22329778215E-01 -0.12329672402E-02  0.89534451806E-02  0.24089487000E-01  0.00000000000E+00 0. -1.
     999901    1    3    3    0    0 -0.13513922201E+00 -0.27248876993E-01 -0.56644369163E-01  0.89253218159E+00  0.88000000000E+00 0.  1.
        -11    1    4    4    0    0  0.30835112033E-01 -0.67901759026E-03  0.93998682607E-02  0.32247230010E-01  0.51100000000E-03 0.  1.
         11    1    4    4    0    0  0.81974331758E-01  0.29160861823E-01  0.38291055721E-01  0.95061101397E-01  0.51100000000E-03 0. -1.
</event>
<event>
 8    1  0.1061722E+005  0.1043930E+01  0.7957747E-01            NaN
         13   -1    0    0    0    0  0.00000000000E+00  0.00000000000E+00  0.74505805969E-08  0.10566000000E+00  0.10566000000E+00 0.  1.
     999900   -1    0    0    0    0 -0.00000000000E+00 -0.00000000000E+00 -0.74505805969E-08  0.93827000000E+00  0.93827000000E+00 0. -1.
     999902    2    1    2    0    0  0.43460426711E-02 -0.22155170622E-01 -0.81438039826E-02  0.10199287247E+01  0.10196462829E+01 0.  0.
     999903    2    3    3    0    0  0.73672357744E-01 -0.94710643595E-03 -0.10664699059E+00  0.13147006066E+00  0.21960941331E-01 0.  0.
         14    1    1    2    0    0 -0.43460426711E-02  0.22155170622E-01  0.81438039826E-02  0.24001275289E-01  0.00000000000E+00 0.  1.
     999901    1    3    3    0    0 -0.69326315073E-01 -0.21208064186E-01  0.98503186603E-01  0.88845866405E+00  0.88000000000E+00 0.  1.
        -11    1    4    4    0    0  0.42820085825E-01 -0.72091180185E-02 -0.76000536543E-01  0.87532130150E-01  0.51100000000E-03 0.  1.
         11    1    4    4    0    0  0.30852271918E-01  0.62620115826E-02 -0.30646454042E-01  0.43937930515E-01  0.51100000000E-03 0. -1.
</event>
<event>
 8    1  0.1061722E+005  0.1043930E+01  0.7957747E-01            NaN
         13   -1    0    0    0    0  0.00000000000E+00  0.00000000000E+00  0.74505805969E-08  0.10566000000E+00  0.10566000000E+00 0. -1.
     999900   -1    0    0    0    0 -0.00000000000E+00 -0.00000000000E+00 -0.74505805969E-08  0.93827000000E+00  0.93827000000E+00 0.  1.
     999902    2    1    2    0    0  0.12722330899E-01 -0.18869104282E-01 -0.45014760555E-02  0.10207316361E+01  0.10204679852E+01 0.  0.
     999903    2    3    3    0    0 -0.11078886078E-01 -0.10556792056E+00  0.76886610587E-01  0.13241457374E+00  0.18834566197E-01 0.  0.
         14    1    1    2    0    0 -0.12722330899E-01  0.18869104282E-01  0.45014760555E-02  0.23198363877E-01  0.00000000000E+00 0. -1.
     999901    1    3    3    0    0  0.23801216977E-01  0.86698816275E-01 -0.81388086643E-01  0.88831706238E+00  0.88000000000E+00 0.  1.
        -11    1    4    4    0    0  0.23384548687E-02 -0.36891332213E-01  0.18821673666E-01  0.41484398082E-01  0.51100000000E-03 0. -1.
         11    1    4    4    0    0 -0.13417340947E-01 -0.68676588343E-01  0.58064936921E-01  0.90930175658E-01  0.51100000000E-03 0.  1.
</event>
<event>
 8    1  0.1061722E+005  0.1043930E+01  0.7957747E-01            NaN
         13   -1    0    0    0    0  0.00000000000E+00  0.00000000000E+00  0.74505805969E-08  0.10566000000E+00  0.10566000000E+00 0. -1.
     999900   -1    0    0    0    0 -0.00000000000E+00 -0.00000000000E+00 -0.74505805969E-08  0.93827000000E+00  0.93827000000E+00 0. -1.
     999902    2    1    2    0    0  0.11654124104E-01  0.11353180185E-01 -0.17641725138E-01  0.10199311714E+01  0.10196487879E+01 0.  0.
     999903    2    3    3    0    0  0.49577963244E-01  0.83062199977E-01 -0.89535686917E-01  0.13328065239E+00  0.19743089070E-01 0.  0.
         14    1    1    2    0    0 -0.11654124104E-01 -0.11353180185E-01  0.17641725138E-01  0.23998828613E-01  0.00000000000E+00 0. -1.
     999901    1    3    3    0    0 -0.37923839140E-01 -0.71709019792E-01  0.71893961779E-01  0.88665051900E+00  0.88000000000E+00 0.  1.
        -11    1    4    4    0    0  0.57246772101E-02  0.14402439759E-01 -0.24679104426E-01  0.29146552394E-01  0.51100000000E-03 0. -1.
         11    1    4    4    0    0  0.43853286034E-01  0.68659760217E-01 -0.64856582491E-01  0.10413410000E+00  0.51100000000E-03 0.  1.
</event>
<event>
 8    1  0.1061722E+005  0.1043930E+01  0.7957747E-01            NaN
         13   -1    0    0    0    0  0.00000000000E+00  0.00000000000E+00  0.74505805969E-08  0.10566000000E+00  0.10566000000E+00 0.  1.
     999900   -1    0    0    0    0 -0.00000000000E+00 -0.00000000000E+00 -0.74505805969E-08  0.93827000000E+00  0.93827000000E+00 0. -1.
     999902    2    1    2    0    0  0.10091186029E-01  0.21925259536E-01 -0.15542971018E-02  0.10197439528E+01  0.10194570929E+01 0.  0.
     999903    2    3    3    0    0 -0.65234266754E-01 -0.90533902102E-01  0.58231960432E-01  0.12739010845E+00  0.19631136679E-01 0.  0.
         14    1    1    2    0    0 -0.10091186029E-01 -0.21925259536E-01  0.15542971018E-02  0.24186047232E-01  0.00000000000E+00 0.  1.
     999901    1    3    3    0    0  0.75325452784E-01  0.11245916164E+00 -0.59786257534E-01  0.89235384431E+00  0.88000000000E+00 0.  1.
        -11    1    4    4    0    0 -0.32419856302E-01 -0.40031441882E-01  0.37400664515E-01  0.63660303557E-01  0.51100000000E-03 0. -1.
         11    1    4    4    0    0 -0.32814410452E-01 -0.50502460220E-01  0.20831295917E-01  0.63729804897E-01  0.51100000000E-03 0.  1.
</event>
<event>
 8    1  0.1061722E+005  0.1043930E+01  0.7957747E-01            NaN
         13   -1    0    0    0    0  0.00000000000E+00  0.00000000000E+00  0.74505805969E-08  0.10566000000E+00  0.10566000000E+00 0. -1.
     999900   -1    0    0    0    0 -0.00000000000E+00 -0.00000000000E+00 -0.74505805969E-08  0.93827000000E+00  0.93827000000E+00 0.  1.
     999902    2    1    2    0    0  0.22458882135E-03  0.89702989829E-03  0.23836166339E-01  0.10200759033E+01  0.10197969556E+01 0.  0.
     999903    2    3    3    0    0  0.26910761862E-01  0.32275178968E-01 -0.11895316045E+00  0.12761552217E+00  0.19235145860E-01 0.  0.
         14    1    1    2    0    0 -0.22458882135E-03 -0.89702989829E-03 -0.23836166339E-01  0.23854096682E-01  0.00000000000E+00 0.  1.
     999901    1    3    3    0    0 -0.26686173041E-01 -0.31378149069E-01  0.14278932679E+00  0.89246038115E+00  0.88000000000E+00 0. -1.
        -11    1    4    4    0    0  0.96119415597E-02  0.22668005327E-01 -0.82965196866E-01  0.86543127388E-01  0.51100000000E-03 0. -1.
         11    1    4    4    0    0  0.17298820303E-01  0.96071736410E-02 -0.35987963585E-01  0.41072394784E-01  0.51100000000E-03 0.  1.
</event>
<event>
 8    1  0.1061722E+005  0.1043930E+01  0.7957747E-01            NaN
         13   -1    0    0    0    0  0.00000000000E+00  0.00000000000E+00  0.74505805969E-08  0.10566000000E+00  0.10566000000E+00 0.  1.
     999900   -1    0    0    0    0 -0.00000000000E+00 -0.00000000000E+00 -0.74505805969E-08  0.93827000000E+00  0.93827000000E+00 0. -1.
     999902    2    1    2    0    0  0.20906096052E-01  0.87992481844E-02  0.68555618753E-02  0.10202342124E+01  0.10199589981E+01 0.  0.
     999903    2    3    3    0    0  0.10011868271E+00  0.80240542684E-01 -0.29332897466E-01  0.13305435633E+00  0.19512753476E-01 0.  0.
         14    1    1    2    0    0 -0.20906096052E-01 -0.87992481844E-02 -0.68555618753E-02  0.23695787587E-01  0.00000000000E+00 0. -1.
     999901    1    3    3    0    0 -0.79212586655E-01 -0.71441294500E-01  0.36188459342E-01  0.88717985608E+00  0.88000000000E+00 0.  1.
        -11    1    4    4    0    0  0.47656373136E-01  0.28318981624E-01 -0.18541777918E-01  0.58456421975E-01  0.51100000000E-03 0. -1.
         11    1    4    4    0    0  0.52462309571E-01  0.51921561060E-01 -0.10791119548E-01  0.74597934359E-01  0.51100000000E-03 0.  1.
</event>
<event>
 8    1  0.1061722E+005  0.1043930E+01  0.7957747E-01            NaN
         13   -1    0    0    0    0  0.00000000000E+00  0.00000000000E+00  0.74505805969E-08  0.10566000000E+00  0.10566000000E+00 0.  1.
     999900   -1    0    0    0    0 -0.00000000000E+00 -0.00000000000E+00 -0.74505805969E-08  0.93827000000E+00  0.93827000000E+00 0. -1.
     999902    2    1    2    0    0 -0.92038370353E-02  0.93026908728E-02 -0.18002670598E-01  0.10216736117E+01  0.10214311636E+01 0.  0.
     999903    2    3    3    0    0 -0.25284726797E-01  0.12762798082E+00  0.17802649551E-01  0.13288708486E+00  0.20342666817E-01 0.  0.
         14    1    1    2    0    0  0.92038370353E-02 -0.93026908728E-02  0.18002670598E-01  0.22256388348E-01  0.00000000000E+00 0.  1.
     999901    1    3    3    0    0  0.16080889762E-01 -0.11832528995E+00 -0.35805320148E-01  0.88878652679E+00  0.88000000000E+00 0. -1.
        -11    1    4    4    0    0 -0.17555625801E-01  0.67095754285E-01  0.13947765662E-03  0.69356476377E-01  0.51100000000E-03 0. -1.
         11    1    4    4    0    0 -0.77291009961E-02  0.60532226538E-01  0.17663171894E-01  0.63530608483E-01  0.51100000000E-03 0.  1.
</event>
<event>
 8    1  0.1061722E+005  0.1043930E+01  0.7957747E-01            NaN
         13   -1    0    0    0    0  0.00000000000E+00  0.00000000000E+00  0.74505805969E-08  0.10566000000E+00  0.10566000000E+00 0. -1.
     999900   -1    0    0    0    0 -0.00000000000E+00 -0.00000000000E+00 -0.74505805969E-08  0.93827000000E+00  0.93827000000E+00 0. -1.
     999902    2    1    2    0    0  0.11652798271E-01  0.18664782658E-01 -0.73399441751E-02  0.10207343840E+01  0.10204707963E+01 0.  0.
     999903    2    3    3    0    0  0.29892880597E-01 -0.97031255605E-01 -0.78701564274E-01  0.13011058316E+00  0.20644097375E-01 0.  0.
         14    1    1    2    0    0 -0.11652798271E-01 -0.18664782658E-01  0.73399441751E-02  0.23195615959E-01  0.00000000000E+00 0.  1.
     999901    1    3    3    0    0 -0.18240082326E-01  0.11569603826E+00  0.71361620099E-01  0.89062380088E+00  0.88000000000E+00 0.  1.
        -11    1    4    4    0    0  0.21633474418E-01 -0.39726630340E-01 -0.40720173285E-01  0.60865474671E-01  0.51100000000E-03 0.  1.
         11    1    4    4    0    0  0.82594061782E-02 -0.57304625265E-01 -0.37981390990E-01  0.69245108489E-01  0.51100000000E-03 0. -1.
</event>
<event>
 8    1  0.1061722E+005  0.1043930E+01  0.7957747E-01            NaN
         13   -1    0    0    0    0  0.00000000000E+00  0.00000000000E+00  0.74505805969E-08  0.10566000000E+00  0.10566000000E+00 0.  1.
     999900   -1    0    0    0    0 -0.00000000000E+00 -0.00000000000E+00 -0.74505805969E-08  0.93827000000E+00  0.93827000000E+00 0. -1.
     999902    2    1    2    0    0 -0.91081510319E-02  0.19579451231E-01  0.10147626570E-01  0.10200702504E+01  0.10197911689E+01 0.  0.
     999903    2    3    3    0    0 -0.56100090816E-01 -0.92457431628E-01 -0.66301217194E-01  0.12843976010E+00  0.20132653103E-01 0.  0.
         14    1    1    2    0    0  0.91081510319E-02 -0.19579451231E-01 -0.10147626570E-01  0.23859749594E-01  0.00000000000E+00 0. -1.
     999901    1    3    3    0    0  0.46991939784E-01  0.11203688286E+00  0.76448843764E-01  0.89163049030E+00  0.88000000000E+00 0.  1.
        -11    1    4    4    0    0 -0.28576176426E-01 -0.65524683346E-01 -0.42492308732E-01  0.83162127252E-01  0.51100000000E-03 0.  1.
         11    1    4    4    0    0 -0.27523914391E-01 -0.26932748282E-01 -0.23808908462E-01  0.45277632851E-01  0.51100000000E-03 0. -1.
</event>
<event>
 8    1  0.1546281E+005  0.1043930E+01  0.7957747E-01            NaN
         13   -1    0    0    0    0  0.00000000000E+00  0.00000000000E+00  0.74505805969E-08  0.10566000000E+00  0.10566000000E+00 0. -1.
     999900   -1    0    0    0    0 -0.00000000000E+00 -0.00000000000E+00 -0.74505805969E-08  0.93827000000E+00  0.93827000000E+00 0. -1.
     999902    2    1    2    0    0 -0.56342258152E-02  0.16932616860E-01  0.15417200129E-01  0.10203472081E+01  0.10200746429E+01 0.  0.
     999903    2    3    3    0    0 -0.11196077650E+00  0.67266364581E-02 -0.61820721287E-01  0.13052970213E+00  0.25213854210E-01 0.  0.
         14    1    1    2    0    0  0.56342258152E-02 -0.16932616860E-01 -0.15417200129E-01  0.23582791906E-01  0.00000000000E+00 0.  1.
     999901    1    3    3    0    0  0.10632655069E+00  0.10205980402E-01  0.77237921417E-01  0.88981750597E+00  0.88000000000E+00 0.  1.
        -11    1    4    4    0    0 -0.68645398447E-01  0.14013806344E-02 -0.23868713628E-01  0.72692029872E-01  0.51100000000E-03 0. -1.
         11    1    4    4    0    0 -0.43315378056E-01  0.53252558237E-02 -0.37952007659E-01  0.57837672257E-01  0.51100000000E-03 0.  1.
</event>
<event>
 8    1  0.1061722E+005  0.1043930E+01  0.7957747E-01            NaN
         13   -1    0    0    0    0  0.00000000000E+00  0.00000000000E+00  0.74505805969E-08  0.10566000000E+00  0.10566000000E+00 0. -1.
     999900   -1    0    0    0    0 -0.00000000000E+00 -0.00000000000E+00 -0.74505805969E-08  0.93827000000E+00  0.93827000000E+00 0. -1.
     999902    2    1    2    0    0  0.67979693929E-02 -0.17319026694E-01  0.14314976545E-01  0.10204549148E+01  0.10201848624E+01 0.  0.
     999903    2    3    3    0    0 -0.45661639435E-01  0.52814451467E-01 -0.10550484618E+00  0.12802704359E+00  0.19629053073E-01 0.  0.
         14    1    1    2    0    0 -0.67979693929E-02  0.17319026694E-01 -0.14314976545E-01  0.23475085239E-01  0.00000000000E+00 0.  1.
     999901    1    3    3    0    0  0.52459608828E-01 -0.70133478161E-01  0.11981982272E+00  0.89242787117E+00  0.88000000000E+00 0.  1.
        -11    1    4    4    0    0 -0.28504960031E-01  0.45854342031E-01 -0.79333876077E-01  0.95964985509E-01  0.51100000000E-03 0. -1.
         11    1    4    4    0    0 -0.17156679404E-01  0.69601094363E-02 -0.26170970102E-01  0.32062058085E-01  0.51100000000E-03 0.  1.
</event>
<event>
 8    1  0.1061722E+005  0.1043930E+01  0.7957747E-01            NaN
         13   -1    0    0    0    0  0.00000000000E+00  0.00000000000E+00  0.74505805969E-08  0.10566000000E+00  0.10566000000E+00 0. -1.
     999900   -1    0    0    0    0 -0.00000000000E+00 -0.00000000000E+00 -0.74505805969E-08  0.93827000000E+00  0.93827000000E+00 0. -1.
     999902    2    1    2    0    0 -0.13751508447E-01  0.64455426788E-02 -0.15859762805E-01  0.10219713780E+01  0.10217354434E+01 0.  0.
     999903    2    3    3    0    0  0.50375873391E-01 -0.30946844173E-01 -0.11765208924E+00  0.13299883092E+00  0.18741375061E-01 0.  0.
         14    1    1    2    0    0  0.13751508447E-01 -0.64455426788E-02  0.15859762805E-01  0.21958622025E-01  0.00000000000E+00 0. -1.
     999901    1    3    3    0    0 -0.64127381838E-01  0.37392386851E-01  0.10179232644E+00  0.88897254705E+00  0.88000000000E+00 0.  1.
        -11    1    4    4    0    0  0.15945795412E-01 -0.17251472043E-01 -0.60296182489E-01  0.64713000415E-01  0.51100000000E-03 0. -1.
         11    1    4    4    0    0  0.34430077979E-01 -0.13695372129E-01 -0.57355906752E-01  0.68285830505E-01  0.51100000000E-03 0.  1.
</event>
<event>
 8    1  0.1061722E+005  0.1043930E+01  0.7957747E-01            NaN
         13   -1    0    0    0    0  0.00000000000E+00  0.00000000000E+00  0.74505805969E-08  0.10566000000E+00  0.10566000000E+00 0. -1.
     999900   -1    0    0    0    0 -0.00000000000E+00 -0.00000000000E+00 -0.74505805969E-08  0.93827000000E+00  0.93827000000E+00 0. -1.
     999902    2    1    2    0    0 -0.10525106994E-01 -0.15011725055E-01 -0.14922177681E-01  0.10202910247E+01  0.10200171439E+01 0.  0.
     999903    2    3    3    0    0  0.29741708398E-01 -0.50715991757E-01 -0.11718278174E+00  0.13273627021E+00  0.20746856478E-01 0.  0.
         14    1    1    2    0    0  0.10525106994E-01  0.15011725055E-01  0.14922177681E-01  0.23638975297E-01  0.00000000000E+00 0. -1.
     999901    1    3    3    0    0 -0.40266815392E-01  0.35704266703E-01  0.10226060406E+00  0.88755475449E+00  0.88000000000E+00 0.  1.
        -11    1    4    4    0    0  0.88415304742E-02 -0.20302838517E-01 -0.66128335354E-01  0.69739485019E-01  0.51100000000E-03 0. -1.
         11    1    4    4    0    0  0.20900177924E-01 -0.30413153240E-01 -0.51054446388E-01  0.62996785190E-01  0.51100000000E-03 0.  1.
</event>
<event>
 8    1  0.1061722E+005  0.1043930E+01  0.7957747E-01            NaN
         13   -1    0    0    0    0  0.00000000000E+00  0.00000000000E+00  0.74505805969E-08  0.10566000000E+00  0.10566000000E+00 0. -1.
     999900   -1    0    0    0    0 -0.00000000000E+00 -0.00000000000E+00 -0.74505805969E-08  0.93827000000E+00  0.93827000000E+00 0.  1.
     999902    2    1    2    0    0  0.12725053463E-02  0.10215004989E-01  0.20668307891E-01  0.10208400769E+01  0.10205789132E+01 0.  0.
     999903    2    3    3    0    0  0.55337781775E-02 -0.11876618065E+00  0.51214468651E-01  0.13090335297E+00  0.19409730908E-01 0.  0.
         14    1    1    2    0    0 -0.12725053463E-02 -0.10215004989E-01 -0.20668307891E-01  0.23089923080E-01  0.00000000000E+00 0.  1.
     999901    1    3    3    0    0 -0.42612728312E-02  0.12898118563E+00 -0.30546160760E-01  0.88993672395E+00  0.88000000000E+00 0. -1.
        -11    1    4    4    0    0  0.10981875691E-01 -0.75391886919E-01  0.38556186078E-01  0.85389570867E-01  0.51100000000E-03 0.  1.
         11    1    4    4    0    0 -0.54480975140E-02 -0.43374293727E-01  0.12658282573E-01  0.45513782105E-01  0.51100000000E-03 0. -1.
</event>
<event>
 8    1  0.1061722E+005  0.1043930E+01  0.7957747E-01            NaN
         13   -1    0    0    0    0  0.00000000000E+00  0.00000000000E+00  0.74505805969E-08  0.10566000000E+00  0.10566000000E+00 0. -1.
     999900   -1    0    0    0    0 -0.00000000000E+00 -0.00000000000E+00 -0.74505805969E-08  0.93827000000E+00  0.93827000000E+00 0. -1.
     999902    2    1    2    0    0  0.55445060137E-02 -0.17046638369E-01 -0.15351289332E-01  0.10203293324E+01  0.10200563490E+01 0.  0.
     999903    2    3    3    0    0 -0.53344905519E-02 -0.90761626593E-01 -0.95726371833E-01  0.13353036650E+00  0.20017264078E-01 0.  0.
         14    1    1    2    0    0 -0.55445060137E-02  0.17046638369E-01  0.15351289332E-01  0.23600667592E-01  0.00000000000E+00 0. -1.
     999901    1    3    3    0    0  0.10878996566E-01  0.73714988223E-01  0.80375082501E-01  0.88679896591E+00  0.88000000000E+00 0.  1.
        -11    1    4    4    0    0 -0.84315182321E-02 -0.77032548407E-01 -0.88724798005E-01  0.11780260997E+00  0.51100000000E-03 0. -1.
         11    1    4    4    0    0  0.30970276802E-02 -0.13729078186E-01 -0.70015738282E-02  0.15727756526E-01  0.51100000000E-03 0.  1.
</event>
<event>
 8    1  0.1061722E+005  0.1043930E+01  0.7957747E-01            NaN
         13   -1    0    0    0    0  0.00000000000E+00  0.00000000000E+00  0.74505805969E-08  0.10566000000E+00  0.10566000000E+00 0. -1.
     999900   -1    0    0    0    0 -0.00000000000E+00 -0.00000000000E+00 -0.74505805969E-08  0.93827000000E+00  0.93827000000E+00 0.  1.
     999902    2    1    2    0    0 -0.14459711043E-01 -0.10607661840E-01 -0.14198938522E-01  0.10210560937E+01  0.10207998486E+01 0.  0.
     999903    2    3    3    0    0  0.20145169471E-01  0.11890578707E+00  0.42027615542E-01  0.12912971975E+00  0.19072231246E-01 0.  0.
         14    1    1    2    0    0  0.14459711043E-01  0.10607661840E-01  0.14198938522E-01  0.22873906276E-01  0.00000000000E+00 0.  1.
     999901    1    3    3    0    0 -0.34604880514E-01 -0.12951344891E+00 -0.56226554064E-01  0.89192637397E+00  0.88000000000E+00 0. -1.
        -11    1    4    4    0    0  0.76984741084E-02  0.19236243319E-01  0.13796359210E-02  0.20771713384E-01  0.51100000000E-03 0.  1.
         11    1    4    4    0    0  0.12446695363E-01  0.99669543747E-01  0.40647979621E-01  0.10835800637E+00  0.51100000000E-03 0. -1.
</event>
<event>
 8    1  0.1404242E+005  0.1043930E+01  0.7957747E-01            NaN
         13   -1    0    0    0    0  0.00000000000E+00  0.00000000000E+00  0.74505805969E-08  0.10566000000E+00  0.10566000000E+00 0.  1.
     999900   -1    0    0    0    0 -0.00000000000E+00 -0.00000000000E+00 -0.74505805969E-08  0.93827000000E+00  0.93827000000E+00 0.  1.
     999902    2    1    2    0    0  0.11940110629E-01 -0.20722309519E-01  0.54880865419E-02  0.10193922852E+01  0.10190969197E+01 0.  0.
     999903    2    3    3    0    0 -0.12105384111E+00  0.35154186968E-01  0.22833880440E-02  0.12764128624E+00  0.19930749663E-01 0.  0.
         14    1    1    2    0    0 -0.11940110629E-01  0.20722309519E-01 -0.54880865419E-02  0.24537714798E-01  0.00000000000E+00 0. -1.
     999901    1    3    3    0    0  0.13299395174E+00 -0.55876496487E-01  0.32046984979E-02  0.89175099896E+00  0.88000000000E+00 0. -1.
        -11    1    4    4    0    0 -0.60628836951E-01  0.27566327857E-01 -0.15216544558E-02  0.66620828986E-01  0.51100000000E-03 0. -1.
         11    1    4    4    0    0 -0.60425004162E-01  0.75878591113E-02  0.38050424998E-02  0.61020457253E-01  0.51100000000E-03 0.  1.
</event>
<event>
 8    1  0.1061722E+005  0.1043930E+01  0.7957747E-01            NaN
         13   -1    0    0    0    0  0.00000000000E+00  0.00000000000E+00  0.74505805969E-08  0.10566000000E+00  0.10566000000E+00 0.  1.
     999900   -1    0    0    0    0 -0.00000000000E+00 -0.00000000000E+00 -0.74505805969E-08  0.93827000000E+00  0.93827000000E+00 0.  1.
     999902    2    1    2    0    0 -0.12473927326E-01  0.19200727106E-01  0.38706330702E-02  0.10207082734E+01  0.10204440851E+01 0.  0.
     999903    2    3    3    0    0 -0.64879766012E-01 -0.59518335252E-01  0.94944347813E-01  0.13096815170E+00  0.19657347457E-01 0.  0.
         14    1    1    2    0    0  0.12473927326E-01 -0.19200727106E-01 -0.38706330702E-02  0.23221726566E-01  0.00000000000E+00 0.  1.
     999901    1    3    3    0    0  0.52405838686E-01  0.78719062358E-01 -0.91073714743E-01  0.88974012173E+00  0.88000000000E+00 0.  1.
        -11    1    4    4    0    0 -0.73811679602E-02 -0.94266560597E-02  0.23934141000E-01  0.26766540893E-01  0.51100000000E-03 0. -1.
         11    1    4    4    0    0 -0.57498598052E-01 -0.50091679192E-01  0.71010206813E-01  0.10420161081E+00  0.51100000000E-03 0.  1.
</event>
<event>
 8    1  0.1061722E+005  0.1043930E+01  0.7957747E-01            NaN
         13   -1    0    0    0    0  0.00000000000E+00  0.00000000000E+00  0.74505805969E-08  0.10566000000E+00  0.10566000000E+00 0. -1.
     999900   -1    0    0    0    0 -0.00000000000E+00 -0.00000000000E+00 -0.74505805969E-08  0.93827000000E+00  0.93827000000E+00 0.  1.
     999902    2    1    2    0    0 -0.83541289532E-02 -0.17760582818E-01 -0.10230427486E-01  0.10217965091E+01  0.10215567603E+01 0.  0.
     999903    2    3    3    0    0  0.46600934767E-01  0.11821973896E+00  0.85088565272E-02  0.12946144440E+00  0.23244593889E-01 0.  0.
         14    1    1    2    0    0  0.83541289532E-02  0.17760582818E-01  0.10230427486E-01  0.22133490894E-01  0.00000000000E+00 0. -1.
     999901    1    3    3    0    0 -0.54955063720E-01 -0.13598032178E+00 -0.18739284013E-01  0.89233506471E+00  0.88000000000E+00 0.  1.
        -11    1    4    4    0    0  0.45524122455E-01  0.89750189950E-01  0.81238962927E-02  0.10096435576E+00  0.51100000000E-03 0. -1.
         11    1    4    4    0    0  0.10768123114E-02  0.28469549012E-01  0.38496023450E-03  0.28497088643E-01  0.51100000000E-03 0.  1.
</event>
<event>
 8    1  0.1061722E+005  0.1043930E+01  0.7957747E-01            NaN
         13   -1    0    0    0    0  0.00000000000E+00  0.00000000000E+00  0.74505805969E-08  0.10566000000E+00  0.10566000000E+00 0.  1.
     999900   -1    0    0    0    0 -0.00000000000E+00 -0.00000000000E+00 -0.74505805969E-08  0.93827000000E+00  0.93827000000E+00 0. -1.
     999902    2    1    2    0    0 -0.57501553162E-02 -0.19954743486E-01  0.12379789914E-01  0.10197532493E+01  0.10194666126E+01 0.  0.
     999903    2    3    3    0    0  0.66771840477E-02  0.92810126292E-01  0.87688728422E-01  0.12928045873E+00  0.19126410717E-01 0.  0.
         14    1    1    2    0    0  0.57501553162E-02  0.19954743486E-01 -0.12379789914E-01  0.24176750652E-01  0.00000000000E+00 0. -1.
     999901    1    3    3    0    0 -0.12427339364E-01 -0.11276486978E+00 -0.75308938508E-01  0.89047279062E+00  0.88000000000E+00 0. -1.
        -11    1    4    4    0    0 -0.31267594136E-02  0.47376934141E-02  0.96090588685E-02  0.11172175108E-01  0.51100000000E-03 0.  1.
         11    1    4    4    0    0  0.98039434613E-02  0.88072432878E-01  0.78079669554E-01  0.11810828362E+00  0.51100000000E-03 0. -1.
</event>
<event>
 8    1  0.1061722E+005  0.1043930E+01  0.7957747E-01            NaN
         13   -1    0    0    0    0  0.00000000000E+00  0.00000000000E+00  0.74505805969E-08  0.10566000000E+00  0.10566000000E+00 0.  1.
     999900   -1    0    0    0    0 -0.00000000000E+00 -0.00000000000E+00 -0.74505805969E-08  0.93827000000E+00  0.93827000000E+00 0.  1.
     999902    2    1    2    0    0 -0.22358072761E-02  0.17263765909E-01 -0.15813089157E-01  0.10204121294E+01  0.10201410803E+01 0.  0.
     999903    2    3    3    0    0  0.94251458918E-01  0.82449910906E-01  0.34191748658E-01  0.13133423079E+00  0.19956933258E-01 0.  0.
         14    1    1    2    0    0  0.22358072761E-02 -0.17263765909E-01  0.15813089157E-01  0.23517870572E-01  0.00000000000E+00 0. -1.
     999901    1    3    3    0    0 -0.96487266194E-01 -0.65186144997E-01 -0.50004837815E-01  0.88907789864E+00  0.88000000000E+00 0.  1.
        -11    1    4    4    0    0  0.61919931107E-01  0.44216729136E-01  0.27051028885E-01  0.80754048125E-01  0.51100000000E-03 0. -1.
         11    1    4    4    0    0  0.32331527811E-01  0.38233181771E-01  0.71407197726E-02  0.50580182668E-01  0.51100000000E-03 0.  1.
</event>
<event>
 8    1  0.1061722E+005  0.1043930E+01  0.7957747E-01            NaN
         13   -1    0    0    0    0  0.00000000000E+00  0.00000000000E+00  0.74505805969E-08  0.10566000000E+00  0.10566000000E+00 0. -1.
     999900   -1    0    0    0    0 -0.00000000000E+00 -0.00000000000E+00 -0.74505805969E-08  0.93827000000E+00  0.93827000000E+00 0. -1.
     999902    2    1    2    0    0  0.25070694467E-02  0.29538422160E-02  0.23486441671E-01  0.10201261448E+01  0.10198483847E+01 0.  0.
     999903    2    3    3    0    0 -0.71574295850E-01  0.11301863003E-01  0.10916493845E+00  0.13282769277E+00  0.21808260918E-01 0.  0.
         14    1    1    2    0    0 -0.25070694467E-02 -0.29538422160E-02 -0.23486441671E-01  0.23803855221E-01  0.00000000000E+00 0.  1.
     999901    1    3    3    0    0  0.74081365297E-01 -0.83480207867E-02 -0.85678496781E-01  0.88729845201E+00  0.88000000000E+00 0. -1.
        -11    1    4    4    0    0 -0.47385425605E-01  0.16941846070E-01  0.80040741518E-01  0.94547269298E-01  0.51100000000E-03 0. -1.
         11    1    4    4    0    0 -0.24188870246E-01 -0.56399830670E-02  0.29124196934E-01  0.38280423467E-01  0.51100000000E-03 0.  1.
</event>
<event>
 8    1  0.1061722E+005  0.1043930E+01  0.7957747E-01            NaN
         13   -1    0    0    0    0  0.00000000000E+00  0.00000000000E+00  0.74505805969E-08  0.10566000000E+00  0.10566000000E+00 0.  1.
     999900   -1    0    0    0    0 -0.00000000000E+00 -0.00000000000E+00 -0.74505805969E-08  0.93827000000E+00  0.93827000000E+00 0. -1.
     999902    2    1    2    0    0 -0.18817796414E-01  0.12460582139E-01 -0.94057610053E-02  0.10194791532E+01  0.10191859006E+01 0.  0.
     999903    2    3    3    0    0 -0.12785776121E+00 -0.21241198289E-01  0.13303558920E-01  0.13181861159E+00  0.20009149771E-01 0.  0.
         14    1    1    2    0    0  0.18817796414E-01 -0.12460582139E-01  0.94057610053E-02  0.24450846800E-01  0.00000000000E+00 0. -1.
     999901    1    3    3    0    0  0.10903996479E+00  0.33701780428E-01 -0.22709319926E-01  0.88766054161E+00  0.88000000000E+00 0. -1.
        -11    1    4    4    0    0 -0.81374017521E-01 -0.21712242918E-01  0.34268922963E-02  0.84292092938E-01  0.51100000000E-03 0. -1.
         11    1    4    4    0    0 -0.46483743687E-01  0.47104462804E-03  0.98766666240E-02  0.47526518648E-01  0.51100000000E-03 0.  1.
</event>
<event>
 8    1  0.1061722E+005  0.1043930E+01  0.7957747E-01            NaN
         13   -1    0    0    0    0  0.00000000000E+00  0.00000000000E+00  0.74505805969E-08  0.10566000000E+00  0.10566000000E+00 0.  1.
     999900   -1    0    0    0    0 -0.00000000000E+00 -0.00000000000E+00 -0.74505805969E-08  0.93827000000E+00  0.93827000000E+00 0.  1.
     999902    2    1    2    0    0  0.12548958469E-01 -0.17205240473E-01 -0.98727256305E-02  0.10204573059E+01  0.10201873091E+01 0.  0.
     999903    2    3    3    0    0 -0.44801420118E-01 -0.12029697553E+00  0.23236404343E-01  0.13196803399E+00  0.19927416848E-01 0.  0.
         14    1    1    2    0    0 -0.12548958469E-01  0.17205240473E-01  0.98727256305E-02  0.23472694131E-01  0.00000000000E+00 0. -1.
     999901    1    3    3    0    0  0.57350378586E-01  0.10309173505E+00 -0.33109129974E-01  0.88848927188E+00  0.88000000000E+00 0. -1.
        -11    1    4    4    0    0 -0.19679300312E-01 -0.79126795771E-01  0.17500408218E-01  0.83395743767E-01  0.51100000000E-03 0.  1.
         11    1    4    4    0    0 -0.25122119806E-01 -0.41170179757E-01  0.57359961254E-02  0.48572290221E-01  0.51100000000E-03 0. -1.
</event>
<event>
 8    1  0.1061722E+005  0.1043930E+01  0.7957747E-01            NaN
         13   -1    0    0    0    0  0.00000000000E+00  0.00000000000E+00  0.74505805969E-08  0.10566000000E+00  0.10566000000E+00 0. -1.
     999900   -1    0    0    0    0 -0.00000000000E+00 -0.00000000000E+00 -0.74505805969E-08  0.93827000000E+00  0.93827000000E+00 0.  1.
     999902    2    1    2    0    0  0.14111057555E-01  0.18941770362E-01 -0.75791240046E-04  0.10203097046E+01  0.10200362616E+01 0.  0.
     999903    2    3    3    0    0  0.25444773248E-01 -0.12371843056E+00  0.14010346980E-01  0.12863778887E+00  0.19942526334E-01 0.  0.
         14    1    1    2    0    0 -0.14111057555E-01 -0.18941770362E-01  0.75791240046E-04  0.23620295385E-01  0.00000000000E+00 0. -1.
     999901    1    3    3    0    0 -0.11333715693E-01  0.14266020092E+00 -0.14086138220E-01  0.89167191575E+00  0.88000000000E+00 0.  1.
        -11    1    4    4    0    0  0.94027002131E-02 -0.74961885458E-01  0.16169692660E-01  0.77261990166E-01  0.51100000000E-03 0. -1.
         11    1    4    4    0    0  0.16042073035E-01 -0.48756545103E-01 -0.21593456796E-02  0.51375798703E-01  0.51100000000E-03 0.  1.
</event>
<event>
 8    1  0.1061722E+005  0.1043930E+01  0.7957747E-01            NaN
         13   -1    0    0    0    0  0.00000000000E+00  0.00000000000E+00  0.74505805969E-08  0.10566000000E+00  0.10566000000E+00 0.  1.
     999900   -1    0    0    0    0 -0.00000000000E+00 -0.00000000000E+00 -0.74505805969E-08  0.93827000000E+00  0.93827000000E+00 0. -1.
     999902    2    1    2    0    0  0.95283506007E-02 -0.19783823018E-01 -0.76710288217E-02  0.10206698667E+01  0.10204047937E+01 0.  0.
     999903    2    3    3    0    0 -0.75215118722E-01  0.10067006550E+00 -0.16389323567E-01  0.12838818274E+00  0.20570351670E-01 0.  0.
         14    1    1    2    0    0 -0.95283506007E-02  0.19783823018E-01  0.76710288217E-02  0.23260133309E-01  0.00000000000E+00 0.  1.
     999901    1    3    3    0    0  0.84743469323E-01 -0.12045388852E+00  0.87182947449E-02  0.89228168395E+00  0.88000000000E+00 0.  1.
        -11    1    4    4    0    0 -0.42031623923E-01  0.72382290329E-01 -0.12049382655E-01  0.84565371792E-01  0.51100000000E-03 0.  1.
         11    1    4    4    0    0 -0.33183494799E-01  0.28287775172E-01 -0.43399409117E-02  0.43822810948E-01  0.51100000000E-03 0. -1.
</event>
<event>
 8    1  0.1061722E+005  0.1043930E+01  0.7957747E-01            NaN
         13   -1    0    0    0    0  0.00000000000E+00  0.00000000000E+00  0.74505805969E-08  0.10566000000E+00  0.10566000000E+00 0. -1.
     999900   -1    0    0    0    0 -0.00000000000E+00 -0.00000000000E+00 -0.74505805969E-08  0.93827000000E+00  0.93827000000E+00 0. -1.
     999902    2    1    2    0    0  0.19839292438E-01 -0.12592355347E-01  0.15409237466E-02  0.10203813401E+01  0.10201095725E+01 0.  0.
     999903    2    3    3    0    0 -0.90547489235E-01 -0.45076912090E-01  0.78151941884E-01  0.12958970559E+00  0.21330493757E-01 0.  0.
         14    1    1    2    0    0 -0.19839292438E-01  0.12592355347E-01 -0.15409237466E-02  0.23548659912E-01  0.00000000000E+00 0.  1.
     999901    1    3    3    0    0  0.11038678167E+00  0.32484556743E-01 -0.76611018138E-01  0.89079163450E+00  0.88000000000E+00 0.  1.
        -11    1    4    4    0    0 -0.10193043628E-01 -0.13166797976E-01  0.94143585865E-02  0.19135150272E-01  0.51100000000E-03 0.  1.
         11    1    4    4    0    0 -0.80354445606E-01 -0.31910114115E-01  0.68737583298E-01  0.11045455532E+00  0.51100000000E-03 0. -1.
</event>
<event>
 7    1  0.1061722E+005  0.1043930E+01  0.7957747E-01            NaN
         13   -1    0    0    0    0  0.00000000000E+00  0.00000000000E+00  0.74505805969E-08  0.10566000000E+00  0.10566000000E+00 0. -1.
     999900   -1    0    0    0    0 -0.00000000000E+00 -0.00000000000E+00 -0.74505805969E-08  0.93827000000E+00  0.93827000000E+00 0.  1.
     999903    2    1    2    0    0  0.59924946700E-01  0.42985609873E-02 -0.37074105328E-01  0.73614341275E-01  0.20859172849E-01 0.  0.
         14    1    1    2    0    0  0.46516190457E-01  0.24774313591E-01 -0.57971415173E-01  0.78346713816E-01  0.00000000000E+00 0.  1.
     999901    1    1    2    0    0 -0.10644113716E+00 -0.29072874579E-01  0.95045520501E-01  0.89196894491E+00  0.88000000000E+00 0. -1.
        -11    1    3    3    0    0  0.29746975305E-01  0.10868730288E-01 -0.25370124192E-01  0.40582214829E-01  0.51100000000E-03 0. -1.
         11    1    3    3    0    0  0.30177971395E-01 -0.65701693008E-02 -0.11703981136E-01  0.33032126446E-01  0.51100000000E-03 0.  1.
</event>
<event>
 8    1  0.1061722E+005  0.1043930E+01  0.7957747E-01            NaN
         13   -1    0    0    0    0  0.00000000000E+00  0.00000000000E+00  0.74505805969E-08  0.10566000000E+00  0.10566000000E+00 0. -1.
     999900   -1    0    0    0    0 -0.00000000000E+00 -0.00000000000E+00 -0.74505805969E-08  0.93827000000E+00  0.93827000000E+00 0. -1.
     999902    2    1    2    0    0 -0.50235123172E-02  0.12392710984E-01 -0.19120132866E-01  0.10205977382E+01  0.10203309996E+01 0.  0.
     999903    2    3    3    0    0  0.12526256327E+00 -0.83173481841E-02  0.14930971323E-01  0.13011312531E+00  0.30766921112E-01 0.  0.
         14    1    1    2    0    0  0.50235123172E-02 -0.12392710984E-01  0.19120132866E-01  0.23332261835E-01  0.00000000000E+00 0. -1.
     999901    1    3    3    0    0 -0.13028607559E+00  0.20710059168E-01 -0.34051104189E-01  0.89048461286E+00  0.88000000000E+00 0. -1.
        -11    1    4    4    0    0  0.45474661001E-01 -0.49542975787E-02 -0.92494313371E-02  0.46672293266E-01  0.51100000000E-03 0. -1.
         11    1    4    4    0    0  0.79787902267E-01 -0.33630506054E-02  0.24180402660E-01  0.83440832039E-01  0.51100000000E-03 0.  1.
</event>
<event>
 8    1  0.1061722E+005  0.1043930E+01  0.7957747E-01            NaN
         13   -1    0    0    0    0  0.00000000000E+00  0.00000000000E+00  0.74505805969E-08  0.10566000000E+00  0.10566000000E+00 0.  1.
     999900   -1    0    0    0    0 -0.00000000000E+00 -0.00000000000E+00 -0.74505805969E-08  0.93827000000E+00  0.93827000000E+00 0. -1.
     999902    2    1    2    0    0 -0.15578927095E-01 -0.11693639734E-01 -0.15262352868E-01  0.10191836145E+01  0.10188831417E+01 0.  0.
     999903    2    3    3    0    0  0.30473443665E-01  0.34301926710E-01 -0.12069498303E+00  0.13050344005E+00  0.18937158990E-01 0.  0.
         14    1    1    2    0    0  0.15578927095E-01  0.11693639734E-01  0.15262352868E-01  0.24746385489E-01  0.00000000000E+00 0.  1.
     999901    1    3    3    0    0 -0.46052370760E-01 -0.45995566444E-01  0.10543263016E+00  0.88868017447E+00  0.88000000000E+00 0.  1.
        -11    1    4    4    0    0  0.90317646885E-02  0.24294698731E-01 -0.65882555831E-01  0.70799558216E-01  0.51100000000E-03 0.  1.
         11    1    4    4    0    0  0.21441678976E-01  0.10007227979E-01 -0.54812427198E-01  0.59703881829E-01  0.51100000000E-03 0. -1.
</event>
<event>
 8    1  0.1061722E+005  0.1043930E+01  0.7957747E-01            NaN
         13   -1    0    0    0    0  0.00000000000E+00  0.00000000000E+00  0.74505805969E-08  0.10566000000E+00  0.10566000000E+00 0.  1.
     999900   -1    0    0    0    0 -0.00000000000E+00 -0.00000000000E+00 -0.74505805969E-08  0.93827000000E+00  0.93827000000E+00 0. -1.
     999902    2    1    2    0    0 -0.16678904653E-01 -0.38629451023E-02  0.15190987996E-01  0.10210416990E+01  0.10207851276E+01 0.  0.
     999903    2    3    3    0    0  0.14122577423E-01 -0.63336011369E-01 -0.11041667915E+00  0.12960293895E+00  0.19853997649E-01 0.  0.
         14    1    1    2    0    0  0.16678904653E-01  0.38629451023E-02 -0.15190987996E-01  0.22888300976E-01  0.00000000000E+00 0. -1.
     999901    1    3    3    0    0 -0.30801482076E-01  0.59473066266E-01  0.12560766714E+00  0.89143876007E+00  0.88000000000E+00 0.  1.
        -11    1    4    4    0    0  0.49231955514E-02 -0.50363200408E-01 -0.71849562195E-01  0.87882367505E-01  0.51100000000E-03 0. -1.
         11    1    4    4    0    0  0.91993818719E-02 -0.12972810961E-01 -0.38567116952E-01  0.41720571449E-01  0.51100000000E-03 0.  1.
</event>
<event>
 8    1  0.1061722E+005  0.1043930E+01  0.7957747E-01            NaN
         13   -1    0    0    0    0  0.00000000000E+00  0.00000000000E+00  0.74505805969E-08  0.10566000000E+00  0.10566000000E+00 0.  1.
     999900   -1    0    0    0    0 -0.00000000000E+00 -0.00000000000E+00 -0.74505805969E-08  0.93827000000E+00  0.93827000000E+00 0. -1.
     999902    2    1    2    0    0 -0.44302409011E-02 -0.88518095474E-02 -0.21640807132E-01  0.10201328132E+01  0.10198552105E+01 0.  0.
     999903    2    3    3    0    0 -0.11730359320E+00  0.18181011794E-01  0.48149902714E-01  0.12977226248E+00  0.20778469824E-01 0.  0.
         14    1    1    2    0    0  0.44302409011E-02  0.88518095474E-02  0.21640807132E-01  0.23797186809E-01  0.00000000000E+00 0.  1.
     999901    1    3    3    0    0  0.11287335230E+00 -0.27032821341E-01 -0.69790709846E-01  0.89036055072E+00  0.88000000000E+00 0. -1.
        -11    1    4    4    0    0 -0.16180145785E-01 -0.36134715933E-02  0.27981392781E-02  0.16820969027E-01  0.51100000000E-03 0.  1.
         11    1    4    4    0    0 -0.10112344742E+00  0.21794483387E-01  0.45351763436E-01  0.11295129345E+00  0.51100000000E-03 0. -1.
</event>
<event>
 8    1  0.1061722E+005  0.1043930E+01  0.7957747E-01            NaN
         13   -1    0    0    0    0  0.00000000000E+00  0.00000000000E+00  0.74505805969E-08  0.10566000000E+00  0.10566000000E+00 0. -1.
     999900   -1    0    0    0    0 -0.00000000000E+00 -0.00000000000E+00 -0.74505805969E-08  0.93827000000E+00  0.93827000000E+00 0. -1.
     999902    2    1    2    0    0  0.17013066543E-01 -0.88578244143E-02 -0.14019338153E-01  0.10201718997E+01  0.10198952190E+01 0.  0.
     999903    2    3    3    0    0 -0.58075922033E-01 -0.84438643088E-01  0.76292152533E-01  0.12915731976E+00  0.18932077085E-01 0.  0.
         14    1    1    2    0    0 -0.17013066543E-01  0.88578244143E-02  0.14019338153E-01  0.23758100277E-01  0.00000000000E+00 0. -1.
     999901    1    3    3    0    0  0.75088988576E-01  0.75580818674E-01 -0.90311490687E-01  0.89101457996E+00  0.88000000000E+00 0. -1.
        -11    1    4    4    0    0 -0.39953740578E-01 -0.56105404198E-01  0.39902178548E-01  0.79602529736E-01  0.51100000000E-03 0. -1.
         11    1    4    4    0    0 -0.18122181455E-01 -0.28333238890E-01  0.36389973985E-01  0.49554790024E-01  0.51100000000E-03 0.  1.
</event>
<event>
 8    1  0.1061722E+005  0.1043930E+01  0.7957747E-01            NaN
         13   -1    0    0    0    0  0.00000000000E+00  0.00000000000E+00  0.74505805969E-08  0.10566000000E+00  0.10566000000E+00 0.  1.
     999900   -1    0    0    0    0 -0.00000000000E+00 -0.00000000000E+00 -0.74505805969E-08  0.93827000000E+00  0.93827000000E+00 0.  1.
     999902    2    1    2    0    0 -0.20647161994E-01  0.99823984155E-02 -0.69507136541E-02  0.10199661523E+01  0.10196846012E+01 0.  0.
     999903    2    3    3    0    0 -0.15455062871E-01  0.15363748623E-01 -0.12903892003E+00  0.13150599733E+00  0.12956878960E-01 0.  0.
         14    1    1    2    0    0  0.20647161994E-01 -0.99823984155E-02  0.69507136541E-02  0.23963847705E-01  0.00000000000E+00 0. -1.
     999901    1    3    3    0    0 -0.51920991225E-02 -0.53813502073E-02  0.12208820637E+00  0.88846015496E+00  0.88000000000E+00 0. -1.
        -11    1    4    4    0    0  0.16894596891E-02  0.10396174961E-02 -0.25543458447E-01  0.25625465245E-01  0.51100000000E-03 0.  1.
         11    1    4    4    0    0 -0.17144522560E-01  0.14324131127E-01 -0.10349546158E+00  0.10588053209E+00  0.51100000000E-03 0. -1.
</event>
<event>
 8    1  0.1061722E+005  0.1043930E+01  0.7957747E-01            NaN
         13   -1    0    0    0    0  0.00000000000E+00  0.00000000000E+00  0.74505805969E-08  0.10566000000E+00  0.10566000000E+00 0.  1.
     999900   -1    0    0    0    0 -0.00000000000E+00 -0.00000000000E+00 -0.74505805969E-08  0.93827000000E+00  0.93827000000E+00 0.  1.
     999902    2    1    2    0    0  0.10983377845E-01 -0.62462813073E-02  0.20787436031E-01  0.10196037155E+01  0.10193134791E+01 0.  0.
     999903    2    3    3    0    0  0.40045027007E-01 -0.85968443149E-01 -0.85654310497E-01  0.12913751857E+00  0.18591944213E-01 0.  0.
         14    1    1    2    0    0 -0.10983377845E-01  0.62462813073E-02 -0.20787436031E-01  0.24326284463E-01  0.00000000000E+00 0. -1.
     999901    1    3    3    0    0 -0.29061649161E-01  0.79722161842E-01  0.10644174653E+00  0.89046619697E+00  0.88000000000E+00 0. -1.
        -11    1    4    4    0    0  0.17265793270E-01 -0.18345633856E-01 -0.24792689308E-01  0.35349801455E-01  0.51100000000E-03 0.  1.
         11    1    4    4    0    0  0.22779233737E-01 -0.67622809294E-01 -0.60861621189E-01  0.93787717112E-01  0.51100000000E-03 0. -1.
</event>
<event>
 8    1  0.1061722E+005  0.1043930E+01  0.7957747E-01            NaN
         13   -1    0    0    0    0  0.00000000000E+00  0.00000000000E+00  0.74505805969E-08  0.10566000000E+00  0.10566000000E+00 0. -1.
     999900   -1    0    0    0    0 -0.00000000000E+00 -0.00000000000E+00 -0.74505805969E-08  0.93827000000E+00  0.93827000000E+00 0. -1.
     999902    2    1    2    0    0 -0.21642994932E-01  0.39616468333E-02  0.76805994975E-02  0.10206253763E+01  0.10203592766E+01 0.  0.
     999903    2    3    3    0    0  0.81051820983E-01 -0.45406402958E-01 -0.86283548387E-01  0.12831786733E+00  0.19735380378E-01 0.  0.
         14    1    1    2    0    0  0.21642994932E-01 -0.39616468333E-02 -0.76805994975E-02  0.23304623660E-01  0.00000000000E+00 0. -1.
     999901    1    3    3    0    0 -0.10269481592E+00  0.49368049791E-01  0.93964147884E-01  0.89230750901E+00  0.88000000000E+00 0.  1.
        -11    1    4    4    0    0  0.28530820842E-01 -0.74308258868E-02 -0.34301519073E-01  0.45233618504E-01  0.51100000000E-03 0. -1.
         11    1    4    4    0    0  0.52521000141E-01 -0.37975577071E-01 -0.51982029314E-01  0.83084248822E-01  0.51100000000E-03 0.  1.
</event>
<event>
 8    1  0.1061722E+005  0.1043930E+01  0.7957747E-01            NaN
         13   -1    0    0    0    0  0.00000000000E+00  0.00000000000E+00  0.74505805969E-08  0.10566000000E+00  0.10566000000E+00 0. -1.
     999900   -1    0    0    0    0 -0.00000000000E+00 -0.00000000000E+00 -0.74505805969E-08  0.93827000000E+00  0.93827000000E+00 0.  1.
     999902    2    1    2    0    0  0.64857968835E-02  0.22478959052E-01  0.95703772309E-03  0.10205145119E+01  0.10202458449E+01 0.  0.
     999903    2    3    3    0    0 -0.31012793844E-01 -0.12419360545E-01  0.12451768759E+00  0.13040706266E+00  0.19629405742E-01 0.  0.
         14    1    1    2    0    0 -0.64857968835E-02 -0.22478959052E-01 -0.95703772309E-03  0.23415488089E-01  0.00000000000E+00 0.  1.
     999901    1    3    3    0    0  0.37498590727E-01  0.34898319597E-01 -0.12356064987E+00  0.89010744925E+00  0.88000000000E+00 0.  1.
        -11    1    4    4    0    0 -0.51978442953E-04 -0.49413936510E-02  0.35812880669E-01  0.36155824092E-01  0.51100000000E-03 0.  1.
         11    1    4    4    0    0 -0.30960815401E-01 -0.74779668939E-02  0.88704806923E-01  0.94251238567E-01  0.51100000000E-03 0. -1.
</event>
<event>
 8    1  0.1061722E+005  0.1043930E+01  0.7957747E-01            NaN
         13   -1    0    0    0    0  0.00000000000E+00  0.00000000000E+00  0.74505805969E-08  0.10566000000E+00  0.10566000000E+00 0. -1.
     999900   -1    0    0    0    0 -0.00000000000E+00 -0.00000000000E+00 -0.74505805969E-08  0.93827000000E+00  0.93827000000E+00 0. -1.
     999902    2    1    2    0    0  0.15955591986E-01 -0.82244600696E-02  0.11891079530E-01  0.10223981531E+01  0.10221713961E+01 0.  0.
     999903    2    3    3    0    0  0.11623050257E+00 -0.60103926449E-01 -0.24374972374E-01  0.13444445877E+00  0.18951557018E-01 0.  0.
         14    1    1    2    0    0 -0.15955591986E-01  0.82244600696E-02 -0.11891079530E-01  0.21531846912E-01  0.00000000000E+00 0.  1.
     999901    1    3    3    0    0 -0.10027491059E+00  0.51879466380E-01  0.36266051904E-01  0.88795369431E+00  0.88000000000E+00 0. -1.
        -11    1    4    4    0    0  0.91081791215E-01 -0.54624789208E-01 -0.22966434211E-01  0.10866222208E+00  0.51100000000E-03 0.  1.
         11    1    4    4    0    0  0.25148711360E-01 -0.54791372415E-02 -0.14085381624E-02  0.25782236689E-01  0.51100000000E-03 0. -1.
</event>
<event>
 8    1  0.1061722E+005  0.1043930E+01  0.7957747E-01            NaN
         13   -1    0    0    0    0  0.00000000000E+00  0.00000000000E+00  0.74505805969E-08  0.10566000000E+00  0.10566000000E+00 0. -1.
     999900   -1    0    0    0    0 -0.00000000000E+00 -0.00000000000E+00 -0.74505805969E-08  0.93827000000E+00  0.93827000000E+00 0.  1.
     999902    2    1    2    0    0 -0.10784932088E-02 -0.23587103637E-01 -0.95347317688E-02  0.10184657954E+01  0.10181474111E+01 0.  0.
     999903    2    3    3    0    0 -0.24233729529E-02 -0.52170549199E-01 -0.11871938873E+00  0.13125662538E+00  0.20158608724E-01 0.  0.
         14    1    1    2    0    0  0.10784932088E-02  0.23587103637E-01  0.95347317688E-02  0.25464204591E-01  0.00000000000E+00 0. -1.
     999901    1    3    3    0    0  0.13448797441E-02  0.28583445562E-01  0.10918465696E+00  0.88720917003E+00  0.88000000000E+00 0. -1.
        -11    1    4    4    0    0  0.14964894049E-02 -0.41511021785E-01 -0.10765773292E+00  0.11539433690E+00  0.51100000000E-03 0.  1.
         11    1    4    4    0    0 -0.39198623578E-02 -0.10659527413E-01 -0.11061655812E-01  0.15862288482E-01  0.51100000000E-03 0. -1.
</event>
<event>
 8    1  0.1061722E+005  0.1043930E+01  0.7957747E-01            NaN
         13   -1    0    0    0    0  0.00000000000E+00  0.00000000000E+00  0.74505805969E-08  0.10566000000E+00  0.10566000000E+00 0. -1.
     999900   -1    0    0    0    0 -0.00000000000E+00 -0.00000000000E+00 -0.74505805969E-08  0.93827000000E+00  0.93827000000E+00 0.  1.
     999902    2    1    2    0    0  0.22083094482E-01  0.85911848253E-02  0.10293826885E-03  0.10202343862E+01  0.10199591759E+01 0.  0.
     999903    2    3    3    0    0  0.59996795677E-01 -0.70044207311E-01  0.91168312883E-01  0.13123839288E+00  0.20150633277E-01 0.  0.
         14    1    1    2    0    0 -0.22083094482E-01 -0.85911848253E-02 -0.10293826885E-03  0.23695613832E-01  0.00000000000E+00 0. -1.
     999901    1    3    3    0    0 -0.37913701196E-01  0.78635392136E-01 -0.91065374614E-01  0.88899599329E+00  0.88000000000E+00 0.  1.
        -11    1    4    4    0    0  0.50095387477E-01 -0.65558029964E-01  0.86040859189E-01  0.11920861424E+00  0.51100000000E-03 0. -1.
         11    1    4    4    0    0  0.99014082003E-02 -0.44861773468E-02  0.51274536946E-02  0.12029778632E-01  0.51100000000E-03 0.  1.
</event>
<event>
 8    1  0.1061722E+005  0.1043930E+01  0.7957747E-01            NaN
         13   -1    0    0    0    0  0.00000000000E+00  0.00000000000E+00  0.74505805969E-08  0.10566000000E+00  0.10566000000E+00 0.  1.
     999900   -1    0    0    0    0 -0.00000000000E+00 -0.00000000000E+00 -0.74505805969E-08  0.93827000000E+00  0.93827000000E+00 0. -1.
     999902    2    1    2    0    0  0.16342862214E-01 -0.17893036318E-01 -0.16816675375E-02  0.10196384809E+01  0.10193490834E+01 0.  0.
     999903    2    3    3    0    0  0.12231278625E+00 -0.45681307411E-01 -0.13578691575E-01  0.13276568733E+00  0.19878313347E-01 0.  0.
         14    1    1    2    0    0 -0.16342862214E-01  0.17893036318E-01  0.16816675375E-02  0.24291519090E-01  0.00000000000E+00 0.  1.
     999901    1    3    3    0    0 -0.10596992403E+00  0.27788271092E-01  0.11897024038E-01  0.88687279358E+00  0.88000000000E+00 0. -1.
        -11    1    4    4    0    0  0.94227300475E-01 -0.31073058388E-01 -0.25975033347E-02  0.99253852605E-01  0.51100000000E-03 0.  1.
         11    1    4    4    0    0  0.28085485771E-01 -0.14608249023E-01 -0.10981188241E-01  0.33511834726E-01  0.51100000000E-03 0. -1.
</event>
<event>
 8    1  0.1061722E+005  0.1043930E+01  0.7957747E-01            NaN
         13   -1    0    0    0    0  0.00000000000E+00  0.00000000000E+00  0.74505805969E-08  0.10566000000E+00  0.10566000000E+00 0. -1.
     999900   -1    0    0    0    0 -0.00000000000E+00 -0.00000000000E+00 -0.74505805969E-08  0.93827000000E+00  0.93827000000E+00 0.  1.
     999902    2    1    2    0    0  0.61824750103E-02  0.12936637528E-01  0.19097493976E-01  0.10200491737E+01  0.10197695931E+01 0.  0.
     999903    2    3    3    0    0  0.92516116857E-01  0.87918113609E-02 -0.87136498890E-01  0.12945592282E+00  0.23011707667E-01 0.  0.
         14    1    1    2    0    0 -0.61824750103E-02 -0.12936637528E-01 -0.19097493976E-01  0.23880826283E-01  0.00000000000E+00 0.  1.
     999901    1    3    3    0    0 -0.86333641847E-01  0.41448261676E-02  0.10623399287E+00  0.89059325089E+00  0.88000000000E+00 0. -1.
        -11    1    4    4    0    0  0.56076584289E-01  0.13797602504E-01 -0.43009177988E-01  0.72006997247E-01  0.51100000000E-03 0.  1.
         11    1    4    4    0    0  0.36439532568E-01 -0.50057911434E-02 -0.44127320902E-01  0.57448925575E-01  0.51100000000E-03 0. -1.
</event>
<event>
 8    1  0.1061722E+005  0.1043930E+01  0.7957747E-01            NaN
         13   -1    0    0    0    0  0.00000000000E+00  0.00000000000E+00  0.74505805969E-08  0.10566000000E+00  0.10566000000E+00 0.  1.
     999900   -1    0    0    0    0 -0.00000000000E+00 -0.00000000000E+00 -0.74505805969E-08  0.93827000000E+00  0.93827000000E+00 0.  1.
     999902    2    1    2    0    0 -0.10617941266E-01 -0.19272678265E-01 -0.17987978919E-01  0.10155091592E+01  0.10151113773E+01 0.  0.
     999903    2    3    3    0    0 -0.72664558289E-01  0.56860758150E-01  0.78918961028E-01  0.12475833109E+00  0.28690676511E-01 0.  0.
         14    1    1    2    0    0  0.10617941266E-01  0.19272678265E-01  0.17987978919E-01  0.28420840766E-01  0.00000000000E+00 0.  1.
     999901    1    3    3    0    0  0.62046617023E-01 -0.76133436415E-01 -0.96906939946E-01  0.89075082814E+00  0.88000000000E+00 0.  1.
        -11    1    4    4    0    0 -0.10296384214E-01  0.24676104637E-02  0.21688296350E-01  0.24140172924E-01  0.51100000000E-03 0. -1.
         11    1    4    4    0    0 -0.62368174076E-01  0.54393147687E-01  0.57230664678E-01  0.10061815817E+00  0.51100000000E-03 0.  1.
</event>
<event>
 8    1  0.1061722E+005  0.1043930E+01  0.7957747E-01            NaN
         13   -1    0    0    0    0  0.00000000000E+00  0.00000000000E+00  0.74505805969E-08  0.10566000000E+00  0.10566000000E+00 0. -1.
     999900   -1    0    0    0    0 -0.00000000000E+00 -0.00000000000E+00 -0.74505805969E-08  0.93827000000E+00  0.93827000000E+00 0.  1.
     999902    2    1    2    0    0 -0.87592449634E-02 -0.16241971637E-01  0.99341629262E-02  0.10229725763E+01  0.10227578786E+01 0.  0.
     999903    2    3    3    0    0 -0.66398292235E-01  0.77526813324E-01 -0.80508559444E-01  0.13151605418E+00  0.19892319317E-01 0.  0.
         14    1    1    2    0    0  0.87592449634E-02  0.16241971637E-01 -0.99341629262E-02  0.20957423697E-01  0.00000000000E+00 0. -1.
     999901    1    3    3    0    0  0.57639047271E-01 -0.93768784961E-01  0.90442722370E-01  0.89145652212E+00  0.88000000000E+00 0. -1.
        -11    1    4    4    0    0 -0.21427805711E-01  0.23169616635E-01 -0.36978717320E-01  0.48617575508E-01  0.51100000000E-03 0. -1.
         11    1    4    4    0    0 -0.44970486524E-01  0.54357196689E-01 -0.43529842123E-01  0.82898478673E-01  0.51100000000E-03 0.  1.
</event>
<event>
 8    1  0.1061722E+005  0.1043930E+01  0.7957747E-01            NaN
         13   -1    0    0    0    0  0.00000000000E+00  0.00000000000E+00  0.74505805969E-08  0.10566000000E+00  0.10566000000E+00 0.  1.
     999900   -1    0    0    0    0 -0.00000000000E+00 -0.00000000000E+00 -0.74505805969E-08  0.93827000000E+00  0.93827000000E+00 0.  1.
     999902    2    1    2    0    0  0.25745261789E-03  0.13955506541E-01 -0.19382386473E-01  0.10200448718E+01  0.10197651892E+01 0.  0.
     999903    2    3    3    0    0  0.23133038726E-01  0.12553635127E+00 -0.29902619503E-01  0.13264177699E+00  0.20128620886E-01 0.  0.
         14    1    1    2    0    0 -0.25745261789E-03 -0.13955506541E-01  0.19382386473E-01  0.23885128219E-01  0.00000000000E+00 0.  1.
     999901    1    3    3    0    0 -0.22875586108E-01 -0.11158084473E+00  0.10520233030E-01  0.88740309480E+00  0.88000000000E+00 0.  1.
        -11    1    4    4    0    0  0.22342401574E-02  0.13814463897E-01 -0.10107419760E-01  0.17269982543E-01  0.51100000000E-03 0. -1.
         11    1    4    4    0    0  0.20898798569E-01  0.11172188737E+00 -0.19795199743E-01  0.11537179444E+00  0.51100000000E-03 0.  1.
</event>
<event>
 8    1  0.1061722E+005  0.1043930E+01  0.7957747E-01            NaN
         13   -1    0    0    0    0  0.00000000000E+00  0.00000000000E+00  0.74505805969E-08  0.10566000000E+00  0.10566000000E+00 0. -1.
     999900   -1    0    0    0    0 -0.00000000000E+00 -0.00000000000E+00 -0.74505805969E-08  0.93827000000E+00  0.93827000000E+00 0. -1.
     999902    2    1    2    0    0 -0.11188310597E-01  0.37923055668E-02 -0.20657140286E-01  0.10201334179E+01  0.10198558295E+01 0.  0.
     999903    2    3    3    0    0 -0.13995659068E-01  0.40037266461E-02  0.12571819059E+00  0.12803832016E+00  0.19412359071E-01 0.  0.
         14    1    1    2    0    0  0.11188310597E-01 -0.37923055668E-02  0.20657140286E-01  0.23796582114E-01  0.00000000000E+00 0. -1.
     999901    1    3    3    0    0  0.28073484708E-02 -0.21142107933E-03 -0.14637533087E+00  0.89209509773E+00  0.88000000000E+00 0. -1.
        -11    1    4    4    0    0 -0.15340353641E-01 -0.38624654330E-02  0.71289309810E-01  0.73025145692E-01  0.51100000000E-03 0.  1.
         11    1    4    4    0    0  0.13446945729E-02  0.78661920791E-02  0.54428880775E-01  0.55013174465E-01  0.51100000000E-03 0. -1.
</event>
<event>
 8    1  0.1061722E+005  0.1043930E+01  0.7957747E-01            NaN
         13   -1    0    0    0    0  0.00000000000E+00  0.00000000000E+00  0.74505805969E-08  0.10566000000E+00  0.10566000000E+00 0.  1.
     999900   -1    0    0    0    0 -0.00000000000E+00 -0.00000000000E+00 -0.74505805969E-08  0.93827000000E+00  0.93827000000E+00 0. -1.
     999902    2    1    2    0    0 -0.14592722255E-01  0.83798589637E-02 -0.15899222922E-01  0.10207793009E+01  0.10205167447E+01 0.  0.
     999903    2    3    3    0    0 -0.25780556923E-01  0.12758736567E+00 -0.14674734200E-01  0.13267058196E+00  0.21046674285E-01 0.  0.
         14    1    1    2    0    0  0.14592722255E-01 -0.83798589637E-02  0.15899222922E-01  0.23150699094E-01  0.00000000000E+00 0.  1.
     999901    1    3    3    0    0  0.11187834668E-01 -0.11920750671E+00 -0.12244887212E-02  0.88810871895E+00  0.88000000000E+00 0.  1.
        -11    1    4    4    0    0 -0.17837241104E-01  0.38816673113E-01 -0.54279329724E-02  0.43065355672E-01  0.51100000000E-03 0.  1.
         11    1    4    4    0    0 -0.79433158186E-02  0.88770692559E-01 -0.92468012280E-02  0.89605226285E-01  0.51100000000E-03 0. -1.
</event>
<event>
 8    1  0.1061722E+005  0.1043930E+01  0.7957747E-01            NaN
         13   -1    0    0    0    0  0.00000000000E+00  0.00000000000E+00  0.74505805969E-08  0.10566000000E+00  0.10566000000E+00 0.  1.
     999900   -1    0    0    0    0 -0.00000000000E+00 -0.00000000000E+00 -0.74505805969E-08  0.93827000000E+00  0.93827000000E+00 0. -1.
     999902    2    1    2    0    0 -0.21192487308E-02 -0.18583655164E-01  0.14502494525E-01  0.10202621779E+01  0.10199876205E+01 0.  0.
     999903    2    3    3    0    0 -0.48794836264E-01 -0.11135533985E+00  0.50907310821E-01  0.13340790207E+00  0.20619560618E-01 0.  0.
         14    1    1    2    0    0  0.21192487308E-02  0.18583655164E-01 -0.14502494525E-01  0.23667822077E-01  0.00000000000E+00 0. -1.
     999901    1    3    3    0    0  0.46675587533E-01  0.92771684686E-01 -0.36404816296E-01  0.88685427585E+00  0.88000000000E+00 0. -1.
        -11    1    4    4    0    0 -0.24143783103E-01 -0.77091223293E-01  0.37917891578E-01  0.89241283014E-01  0.51100000000E-03 0.  1.
         11    1    4    4    0    0 -0.24651053161E-01 -0.34264116558E-01  0.12989419242E-01  0.44166619054E-01  0.51100000000E-03 0. -1.
</event>
<event>
 8    1  0.1061722E+005  0.1043930E+01  0.7957747E-01            NaN
         13   -1    0    0    0    0  0.00000000000E+00  0.00000000000E+00  0.74505805969E-08  0.10566000000E+00  0.10566000000E+00 0. -1.
     999900   -1    0    0    0    0 -0.00000000000E+00 -0.00000000000E+00 -0.74505805969E-08  0.93827000000E+00  0.93827000000E+00 0.  1.
     999902    2    1    2    0    0 -0.16673707285E-01  0.57491404649E-02 -0.19629695389E-01  0.10175407963E+01  0.10171985460E+01 0.  0.
     999903    2    3    3    0    0  0.25552645242E-01 -0.11291446141E+00 -0.50781234074E-01  0.12802714626E+00  0.20238655347E-01 0.  0.
         14    1    1    2    0    0  0.16673707285E-01 -0.57491404649E-02  0.19629695389E-01  0.26389203697E-01  0.00000000000E+00 0. -1.
     999901    1    3    3    0    0 -0.42226352527E-01  0.11866360187E+00  0.31151538685E-01  0.88951365005E+00  0.88000000000E+00 0. -1.
        -11    1    4    4    0    0  0.21316793197E-01 -0.92520887767E-01 -0.32636949948E-01  0.10039896398E+00  0.51100000000E-03 0.  1.
         11    1    4    4    0    0  0.42358520452E-02 -0.20393573642E-01 -0.18144284125E-01  0.27628182276E-01  0.51100000000E-03 0. -1.
</event>
<event>
 8    1  0.1061722E+005  0.1043930E+01  0.7957747E-01            NaN
         13   -1    0    0    0    0  0.00000000000E+00  0.00000000000E+00  0.74505805969E-08  0.10566000000E+00  0.10566000000E+00 0. -1.
     999900   -1    0    0    0    0 -0.00000000000E+00 -0.00000000000E+00 -0.74505805969E-08  0.93827000000E+00  0.93827000000E+00 0.  1.
     999902    2    1    2    0    0 -0.10802839194E-01 -0.16552581756E-01  0.19528039809E-01  0.10161445067E+01  0.10157645519E+01 0.  0.
     999903    2    3    3    0    0 -0.34413680751E-01 -0.23247936764E-01  0.12146727615E+00  0.12991998240E+00  0.20003366363E-01 0.  0.
         14    1    1    2    0    0  0.10802839194E-01  0.16552581756E-01 -0.19528039809E-01  0.27785493269E-01  0.00000000000E+00 0.  1.
     999901    1    3    3    0    0  0.23610841557E-01  0.66953550085E-02 -0.10193923634E+00  0.88622452433E+00  0.88000000000E+00 0.  1.
        -11    1    4    4    0    0 -0.23617267573E-01 -0.39117463121E-02  0.62920944647E-01  0.67322978864E-01  0.51100000000E-03 0. -1.
         11    1    4    4    0    0 -0.10796413178E-01 -0.19336190452E-01  0.58546331501E-01  0.62597003538E-01  0.51100000000E-03 0.  1.
</event>
<event>
 8    1  0.1061722E+005  0.1043930E+01  0.7957747E-01            NaN
         13   -1    0    0    0    0  0.00000000000E+00  0.00000000000E+00  0.74505805969E-08  0.10566000000E+00  0.10566000000E+00 0. -1.
     999900   -1    0    0    0    0 -0.00000000000E+00 -0.00000000000E+00 -0.74505805969E-08  0.93827000000E+00  0.93827000000E+00 0. -1.
     999902    2    1    2    0    0 -0.63991107219E-02 -0.71642084489E-02  0.22549213095E-01  0.10194199712E+01  0.10191252799E+01 0.  0.
     999903    2    3    3    0    0  0.78407202636E-01  0.86320685593E-01 -0.48225379181E-01  0.12760127936E+00  0.18906324614E-01 0.  0.
         14    1    1    2    0    0  0.63991107219E-02  0.71642084489E-02 -0.22549213095E-01  0.24510028803E-01  0.00000000000E+00 0.  1.
     999901    1    3    3    0    0 -0.84806313358E-01 -0.93484894042E-01  0.70774592276E-01  0.89181869184E+00  0.88000000000E+00 0. -1.
        -11    1    4    4    0    0  0.64036603284E-01  0.71617815909E-01 -0.31538956581E-01  0.10111758017E+00  0.51100000000E-03 0. -1.
         11    1    4    4    0    0  0.14370599353E-01  0.14702869685E-01 -0.16686422599E-01  0.26483699192E-01  0.51100000000E-03 0.  1.
</event>
<event>
 8    1  0.1061722E+005  0.1043930E+01  0.7957747E-01            NaN
         13   -1    0    0    0    0  0.00000000000E+00  0.00000000000E+00  0.74505805969E-08  0.10566000000E+00  0.10566000000E+00 0.  1.
     999900   -1    0    0    0    0 -0.00000000000E+00 -0.00000000000E+00 -0.74505805969E-08  0.93827000000E+00  0.93827000000E+00 0. -1.
     999902    2    1    2    0    0  0.46536161515E-02 -0.15709838332E-01 -0.90315165527E-02  0.10252210862E+01  0.10250503657E+01 0.  0.
     999903    2    3    3    0    0 -0.12384070970E+00  0.26883272297E-01 -0.39685804536E-01  0.13434250289E+00  0.20339943297E-01 0.  0.
         14    1    1    2    0    0 -0.46536161515E-02  0.15709838332E-01  0.90315165527E-02  0.18708913783E-01  0.00000000000E+00 0.  1.
     999901    1    3    3    0    0  0.12849432585E+00 -0.42593110629E-01  0.30654287983E-01  0.89087858332E+00  0.88000000000E+00 0.  1.
        -11    1    4    4    0    0 -0.85507850091E-01  0.14257896310E-01 -0.18055771189E-01  0.88550279665E-01  0.51100000000E-03 0. -1.
         11    1    4    4    0    0 -0.38332859611E-01  0.12625375986E-01 -0.21630033347E-01  0.45792223230E-01  0.51100000000E-03 0.  1.
</event>
<event>
 8    1  0.1061722E+005  0.1043930E+01  0.7957747E-01            NaN
         13   -1    0    0    0    0  0.00000000000E+00  0.00000000000E+00  0.74505805969E-08  0.10566000000E+00  0.10566000000E+00 0.  1.
     999900   -1    0    0    0    0 -0.00000000000E+00 -0.00000000000E+00 -0.74505805969E-08  0.93827000000E+00  0.93827000000E+00 0. -1.
     999902    2    1    2    0    0  0.74506832258E-02  0.10147044754E-01 -0.20756252318E-01  0.10196545555E+01  0.10193655454E+01 0.  0.
     999903    2    3    3    0    0 -0.11184361455E+00 -0.11207955379E-01 -0.59348212837E-01  0.13051086350E+00  0.29601735538E-01 0.  0.
         14    1    1    2    0    0 -0.74506832258E-02 -0.10147044754E-01  0.20756252318E-01  0.24275444549E-01  0.00000000000E+00 0.  1.
     999901    1    3    3    0    0  0.11929429777E+00  0.21355000133E-01  0.38591960519E-01  0.88914369195E+00  0.88000000000E+00 0. -1.
        -11    1    4    4    0    0 -0.15528551348E-01  0.39540920874E-02  0.61759932627E-03  0.16044104872E-01  0.51100000000E-03 0. -1.
         11    1    4    4    0    0 -0.96315063200E-01 -0.15162047466E-01 -0.59965812163E-01  0.11446675863E+00  0.51100000000E-03 0.  1.
</event>
<event>
 8    1  0.1061722E+005  0.1043930E+01  0.7957747E-01            NaN
         13   -1    0    0    0    0  0.00000000000E+00  0.00000000000E+00  0.74505805969E-08  0.10566000000E+00  0.10566000000E+00 0. -1.
     999900   -1    0    0    0    0 -0.00000000000E+00 -0.00000000000E+00 -0.74505805969E-08  0.93827000000E+00  0.93827000000E+00 0. -1.
     999902    2    1    2    0    0  0.11413328755E-01  0.22379566472E-01 -0.77304438765E-02  0.10176456162E+01  0.10173061149E+01 0.  0.
     999903    2    3    3    0    0  0.40891796178E-01 -0.11257100740E+00  0.33453877619E-01  0.12591876018E+00  0.19799028664E-01 0.  0.
         14    1    1    2    0    0 -0.11413328755E-01 -0.22379566472E-01  0.77304438765E-02  0.26284383791E-01  0.00000000000E+00 0. -1.
     999901    1    3    3    0    0 -0.29478467422E-01  0.13495057387E+00 -0.41184321496E-01  0.89172685603E+00  0.88000000000E+00 0.  1.
        -11    1    4    4    0    0  0.22352132234E-01 -0.44968309037E-01  0.57720762191E-02  0.50550416595E-01  0.51100000000E-03 0.  1.
         11    1    4    4    0    0  0.18539663944E-01 -0.67602698360E-01  0.27681801400E-01  0.75368343583E-01  0.51100000000E-03 0. -1.
</event>
<event>
 8    1  0.1061722E+005  0.1043930E+01  0.7957747E-01            NaN
         13   -1    0    0    0    0  0.00000000000E+00  0.00000000000E+00  0.74505805969E-08  0.10566000000E+00  0.10566000000E+00 0. -1.
     999900   -1    0    0    0    0 -0.00000000000E+00 -0.00000000000E+00 -0.74505805969E-08  0.93827000000E+00  0.93827000000E+00 0. -1.
     999902    2    1    2    0    0 -0.11786993612E-01 -0.93448989889E-02  0.18746303713E-01  0.10198949369E+01  0.10196116898E+01 0.  0.
     999903    2    3    3    0    0  0.92859312238E-01 -0.28522666194E-01  0.85414718752E-01  0.13098362881E+00  0.20606855169E-01 0.  0.
         14    1    1    2    0    0  0.11786993612E-01  0.93448989889E-02 -0.18746303713E-01  0.24035063105E-01  0.00000000000E+00 0.  1.
     999901    1    3    3    0    0 -0.10464630585E+00  0.19177767205E-01 -0.66668415038E-01  0.88891130809E+00  0.88000000000E+00 0. -1.
        -11    1    4    4    0    0  0.54684302194E-01 -0.22220088515E-01  0.62699583925E-01  0.86113902393E-01  0.51100000000E-03 0.  1.
         11    1    4    4    0    0  0.38175010044E-01 -0.63025776788E-02  0.22715134827E-01  0.44869726414E-01  0.51100000000E-03 0. -1.
</event>
<event>
 8    1  0.1061722E+005  0.1043930E+01  0.7957747E-01            NaN
         13   -1    0    0    0    0  0.00000000000E+00  0.00000000000E+00  0.74505805969E-08  0.10566000000E+00  0.10566000000E+00 0.  1.
     999900   -1    0    0    0    0 -0.00000000000E+00 -0.00000000000E+00 -0.74505805969E-08  0.93827000000E+00  0.93827000000E+00 0. -1.
     999902    2    1    2    0    0 -0.17800698946E-01  0.52714264385E-02 -0.15994799138E-01  0.10194251756E+01  0.10191306110E+01 0.  0.
     999903    2    3    3    0    0  0.16992550310E-01 -0.97160863457E-01 -0.82728566481E-01  0.13029282329E+00  0.20080436640E-01 0.  0.
         14    1    1    2    0    0  0.17800698946E-01 -0.52714264385E-02  0.15994799138E-01  0.24504824406E-01  0.00000000000E+00 0.  1.
     999901    1    3    3    0    0 -0.34793249256E-01  0.10243228990E+00  0.66733767342E-01  0.88913235230E+00  0.88000000000E+00 0.  1.
        -11    1    4    4    0    0  0.74714046589E-02 -0.62653294455E-01 -0.64057298013E-01  0.89915825878E-01  0.51100000000E-03 0. -1.
         11    1    4    4    0    0  0.95211456510E-02 -0.34507569002E-01 -0.18671268468E-01  0.40376997414E-01  0.51100000000E-03 0.  1.
</event>
<event>
 8    1  0.1061722E+005  0.1043930E+01  0.7957747E-01            NaN
         13   -1    0    0    0    0  0.00000000000E+00  0.00000000000E+00  0.74505805969E-08  0.10566000000E+00  0.10566000000E+00 0. -1.
     999900   -1    0    0    0    0 -0.00000000000E+00 -0.00000000000E+00 -0.74505805969E-08  0.93827000000E+00  0.93827000000E+00 0.  1.
     999902    2    1    2    0    0 -0.12278618430E-01  0.37610725020E-02  0.20266044440E-01  0.10199378618E+01  0.10196556376E+01 0.  0.
     999903    2    3    3    0    0 -0.10043786068E+00  0.67073996712E-01 -0.47618562701E-01  0.13067474089E+00  0.14888770974E-01 0.  0.
         14    1    1    2    0    0  0.12278618430E-01 -0.37610725020E-02 -0.20266044440E-01  0.23992138174E-01  0.00000000000E+00 0.  1.
     999901    1    3    3    0    0  0.88159242247E-01 -0.63312924210E-01  0.67884607142E-01  0.88926312093E+00  0.88000000000E+00 0. -1.
        -11    1    4    4    0    0 -0.49797420399E-01  0.24369098692E-01 -0.22038820840E-01  0.59662440400E-01  0.51100000000E-03 0. -1.
         11    1    4    4    0    0 -0.50640440278E-01  0.42704898021E-01 -0.25579741861E-01  0.71012300493E-01  0.51100000000E-03 0.  1.
</event>
<event>
 8    1  0.1061722E+005  0.1043930E+01  0.7957747E-01            NaN
         13   -1    0    0    0    0  0.00000000000E+00  0.00000000000E+00  0.74505805969E-08  0.10566000000E+00  0.10566000000E+00 0.  1.
     999900   -1    0    0    0    0 -0.00000000000E+00 -0.00000000000E+00 -0.74505805969E-08  0.93827000000E+00  0.93827000000E+00 0. -1.
     999902    2    1    2    0    0  0.33979310094E-02 -0.13325064950E-01  0.18935390102E-01  0.10205280281E+01  0.10202596747E+01 0.  0.
     999903    2    3    3    0    0 -0.15474961086E-03  0.12170925836E+00  0.41327608186E-01  0.12993928942E+00  0.19054663981E-01 0.  0.
         14    1    1    2    0    0 -0.33979310094E-02  0.13325064950E-01 -0.18935390102E-01  0.23401971912E-01  0.00000000000E+00 0.  1.
     999901    1    3    3    0    0  0.35526806203E-02 -0.13503432331E+00 -0.22392218084E-01  0.89058873867E+00  0.88000000000E+00 0.  1.
        -11    1    4    4    0    0 -0.65459320455E-02  0.58753180923E-01  0.12622330679E-01  0.60451384167E-01  0.51100000000E-03 0.  1.
         11    1    4    4    0    0  0.63911824346E-02  0.62956077434E-01  0.28705277506E-01  0.69487905253E-01  0.51100000000E-03 0. -1.
</event>
<event>
 8    1  0.1061722E+005  0.1043930E+01  0.7957747E-01            NaN
         13   -1    0    0    0    0  0.00000000000E+00  0.00000000000E+00  0.74505805969E-08  0.10566000000E+00  0.10566000000E+00 0.  1.
     999900   -1    0    0    0    0 -0.00000000000E+00 -0.00000000000E+00 -0.74505805969E-08  0.93827000000E+00  0.93827000000E+00 0.  1.
     999902    2    1    2    0    0 -0.82850119996E-02  0.21558717686E-01  0.66807577858E-02  0.10198872827E+01  0.10196038530E+01 0.  0.
     999903    2    3    3    0    0 -0.10098683821E+00 -0.74446088583E-01 -0.24184787233E-01  0.12929016091E+00  0.19760571325E-01 0.  0.
         14    1    1    2    0    0  0.82850119996E-02 -0.21558717686E-01 -0.66807577858E-02  0.24042717332E-01  0.00000000000E+00 0. -1.
     999901    1    3    3    0    0  0.92701826207E-01  0.96004806269E-01  0.30865545018E-01  0.89059712176E+00  0.88000000000E+00 0.  1.
        -11    1    4    4    0    0 -0.60450928217E-01 -0.44511736121E-01 -0.24265838512E-01  0.78896776959E-01  0.51100000000E-03 0. -1.
         11    1    4    4    0    0 -0.40535909990E-01 -0.29934352462E-01  0.81051279658E-04  0.50393383954E-01  0.51100000000E-03 0.  1.
</event>
<event>
 8    1  0.1061722E+005  0.1043930E+01  0.7957747E-01            NaN
         13   -1    0    0    0    0  0.00000000000E+00  0.00000000000E+00  0.74505805969E-08  0.10566000000E+00  0.10566000000E+00 0.  1.
     999900   -1    0    0    0    0 -0.00000000000E+00 -0.00000000000E+00 -0.74505805969E-08  0.93827000000E+00  0.93827000000E+00 0. -1.
     999902    2    1    2    0    0  0.12142924842E-01 -0.88424733638E-03  0.19873891592E-01  0.10206232610E+01  0.10203571124E+01 0.  0.
     999903    2    3    3    0    0  0.42213275868E-01  0.90617516717E-01  0.85213767528E-01  0.13295998122E+00  0.20578518748E-01 0.  0.
         14    1    1    2    0    0 -0.12142924842E-01  0.88424733638E-03 -0.19873891592E-01  0.23306739027E-01  0.00000000000E+00 0. -1.
     999901    1    3    3    0    0 -0.30070351026E-01 -0.91501764054E-01 -0.65339875937E-01  0.88766327975E+00  0.88000000000E+00 0. -1.
        -11    1    4    4    0    0  0.14325570108E-01  0.41490783550E-01  0.49333331776E-01  0.66035943422E-01  0.51100000000E-03 0. -1.
         11    1    4    4    0    0  0.27887705761E-01  0.49126733168E-01  0.35880435752E-01  0.66924037797E-01  0.51100000000E-03 0.  1.
</event>
<event>
 8    1  0.1061722E+005  0.1043930E+01  0.7957747E-01            NaN
         13   -1    0    0    0    0  0.00000000000E+00  0.00000000000E+00  0.74505805969E-08  0.10566000000E+00  0.10566000000E+00 0.  1.
     999900   -1    0    0    0    0 -0.00000000000E+00 -0.00000000000E+00 -0.74505805969E-08  0.93827000000E+00  0.93827000000E+00 0. -1.
     999902    2    1    2    0    0  0.81991103611E-02  0.29773030655E-01  0.25899206423E-02  0.10129402202E+01  0.10124660603E+01 0.  0.
     999903    2    3    3    0    0 -0.10062308436E+00  0.20678099721E-01 -0.67148672656E-01  0.12345246914E+00  0.13378302714E-01 0.  0.
         14    1    1    2    0    0 -0.81991103611E-02 -0.29773030655E-01 -0.25899206423E-02  0.30989779832E-01  0.00000000000E+00 0. -1.
     999901    1    3    3    0    0  0.10882219472E+00  0.90949309336E-02  0.69738593298E-01  0.88948775103E+00  0.88000000000E+00 0. -1.
        -11    1    4    4    0    0 -0.76325812550E-01  0.20782173975E-01 -0.48181871843E-01  0.92624415312E-01  0.51100000000E-03 0.  1.
         11    1    4    4    0    0 -0.24297271809E-01 -0.10407425392E-03 -0.18966800813E-01  0.30828053829E-01  0.51100000000E-03 0. -1.
</event>
<event>
 8    1  0.1061722E+005  0.1043930E+01  0.7957747E-01            NaN
         13   -1    0    0    0    0  0.00000000000E+00  0.00000000000E+00  0.74505805969E-08  0.10566000000E+00  0.10566000000E+00 0. -1.
     999900   -1    0    0    0    0 -0.00000000000E+00 -0.00000000000E+00 -0.74505805969E-08  0.93827000000E+00  0.93827000000E+00 0.  1.
     999902    2    1    2    0    0 -0.17402872868E-01 -0.16145330105E-02 -0.98529096470E-02  0.10238664378E+01  0.10236698373E+01 0.  0.
     999903    2    3    3    0    0 -0.79720968605E-01 -0.75193756955E-01  0.75903854737E-01  0.13445558226E+00  0.17532099635E-01 0.  0.
         14    1    1    2    0    0  0.17402872868E-01  0.16145330105E-02  0.98529096470E-02  0.20063562231E-01  0.00000000000E+00 0. -1.
     999901    1    3    3    0    0  0.62318095737E-01  0.73579223944E-01 -0.85756764384E-01  0.88941085551E+00  0.88000000000E+00 0.  1.
        -11    1    4    4    0    0 -0.38224596203E-01 -0.29952536420E-01  0.42659834243E-01  0.64640519580E-01  0.51100000000E-03 0. -1.
         11    1    4    4    0    0 -0.41496372401E-01 -0.45241220535E-01  0.33244020495E-01  0.69815062684E-01  0.51100000000E-03 0.  1.
</event>
<event>
 8    1  0.1061722E+005  0.1043930E+01  0.7957747E-01            NaN
         13   -1    0    0    0    0  0.00000000000E+00  0.00000000000E+00  0.74505805969E-08  0.10566000000E+00  0.10566000000E+00 0. -1.
     999900   -1    0    0    0    0 -0.00000000000E+00 -0.00000000000E+00 -0.74505805969E-08  0.93827000000E+00  0.93827000000E+00 0.  1.
     999902    2    1    2    0    0  0.11888098479E-01  0.17480568770E-01  0.11616635155E-01  0.10198085701E+01  0.10195232593E+01 0.  0.
     999903    2    3    3    0    0 -0.56994918511E-01 -0.10173841534E+00 -0.46568662366E-01  0.12720363783E+00  0.20322383457E-01 0.  0.
         14    1    1    2    0    0 -0.11888098479E-01 -0.17480568770E-01 -0.11616635155E-01  0.24121429939E-01  0.00000000000E+00 0.  1.
     999901    1    3    3    0    0  0.68883016990E-01  0.11921898411E+00  0.58185297521E-01  0.89260493223E+00  0.88000000000E+00 0.  1.
        -11    1    4    4    0    0 -0.15156288975E-01 -0.18385693937E-01 -0.17312883956E-01  0.29457493256E-01  0.51100000000E-03 0. -1.
         11    1    4    4    0    0 -0.41838629536E-01 -0.83352721405E-01 -0.29255778409E-01  0.97746144570E-01  0.51100000000E-03 0.  1.
</event>
<event>
 8    1  0.1061722E+005  0.1043930E+01  0.7957747E-01            NaN
         13   -1    0    0    0    0  0.00000000000E+00  0.00000000000E+00  0.74505805969E-08  0.10566000000E+00  0.10566000000E+00 0. -1.
     999900   -1    0    0    0    0 -0.00000000000E+00 -0.00000000000E+00 -0.74505805969E-08  0.93827000000E+00  0.93827000000E+00 0. -1.
     999902    2    1    2    0    0 -0.16601959818E-01  0.15509083648E-01 -0.38909160699E-02  0.10208801416E+01  0.10206198937E+01 0.  0.
     999903    2    3    3    0    0 -0.49048179619E-02  0.19697452860E-01 -0.12894770473E+00  0.13195181716E+00  0.19280160977E-01 0.  0.
         14    1    1    2    0    0  0.16601959818E-01 -0.15509083648E-01  0.38909160699E-02  0.23049858422E-01  0.00000000000E+00 0. -1.
     999901    1    3    3    0    0 -0.11697141856E-01 -0.41883692120E-02  0.12505678866E+00  0.88892832442E+00  0.88000000000E+00 0.  1.
        -11    1    4    4    0    0 -0.68360544597E-02  0.49137780592E-02 -0.87419085757E-01  0.87825022237E-01  0.51100000000E-03 0. -1.
         11    1    4    4    0    0  0.19312364978E-02  0.14783674801E-01 -0.41528618976E-01  0.44126794922E-01  0.51100000000E-03 0.  1.
</event>
<event>
 8    1  0.1061722E+005  0.1043930E+01  0.7957747E-01            NaN
         13   -1    0    0    0    0  0.00000000000E+00  0.00000000000E+00  0.74505805969E-08  0.10566000000E+00  0.10566000000E+00 0. -1.
     999900   -1    0    0    0    0 -0.00000000000E+00 -0.00000000000E+00 -0.74505805969E-08  0.93827000000E+00  0.93827000000E+00 0.  1.
     999902    2    1    2    0    0  0.35860965135E-02 -0.19773925342E-01 -0.10316694765E-01  0.10213401261E+01  0.10210902755E+01 0.  0.
     999903    2    3    3    0    0 -0.84335323037E-02  0.11053025470E+00 -0.64791710803E-01  0.12999777988E+00  0.20332125155E-01 0.  0.
         14    1    1    2    0    0 -0.35860965135E-02  0.19773925342E-01  0.10316694765E-01  0.22589873893E-01  0.00000000000E+00 0.  1.
     999901    1    3    3    0    0  0.12019628817E-01 -0.13030418004E+00  0.54475016038E-01  0.89134234623E+00  0.88000000000E+00 0. -1.
        -11    1    4    4    0    0 -0.10196120430E-01  0.29328677339E-01 -0.12986849734E-01  0.33660831441E-01  0.51100000000E-03 0.  1.
         11    1    4    4    0    0  0.17625881263E-02  0.81201577358E-01 -0.51804861069E-01  0.96336948435E-01  0.51100000000E-03 0. -1.
</event>
<event>
 8    1  0.1061722E+005  0.1043930E+01  0.7957747E-01            NaN
         13   -1    0    0    0    0  0.00000000000E+00  0.00000000000E+00  0.74505805969E-08  0.10566000000E+00  0.10566000000E+00 0. -1.
     999900   -1    0    0    0    0 -0.00000000000E+00 -0.00000000000E+00 -0.74505805969E-08  0.93827000000E+00  0.93827000000E+00 0. -1.
     999902    2    1    2    0    0 -0.15923082252E-01  0.15882393590E-01  0.60074409291E-02  0.10206515911E+01  0.10203860966E+01 0.  0.
     999903    2    3    3    0    0  0.10584650766E+00 -0.60858290957E-01 -0.32965628715E-01  0.12810698949E+00  0.20431674417E-01 0.  0.
         14    1    1    2    0    0  0.15923082252E-01 -0.15882393590E-01 -0.60074409291E-02  0.23278408903E-01  0.00000000000E+00 0. -1.
     999901    1    3    3    0    0 -0.12176958991E+00  0.76740684547E-01  0.38973069644E-01  0.89254460160E+00  0.88000000000E+00 0. -1.
        -11    1    4    4    0    0  0.75910762383E-01 -0.40676262604E-01 -0.13779365148E-01  0.87218886772E-01  0.51100000000E-03 0.  1.
         11    1    4    4    0    0  0.29935745274E-01 -0.20182028353E-01 -0.19186263567E-01  0.40888102722E-01  0.51100000000E-03 0. -1.
</event>
<event>
 8    1  0.1061722E+005  0.1043930E+01  0.7957747E-01            NaN
         13   -1    0    0    0    0  0.00000000000E+00  0.00000000000E+00  0.74505805969E-08  0.10566000000E+00  0.10566000000E+00 0.  1.
     999900   -1    0    0    0    0 -0.00000000000E+00 -0.00000000000E+00 -0.74505805969E-08  0.93827000000E+00  0.93827000000E+00 0. -1.
     999902    2    1    2    0    0 -0.10131732990E-01 -0.20744690793E-01 -0.58731024077E-02  0.10201080030E+01  0.10198298143E+01 0.  0.
     999903    2    3    3    0    0 -0.12496639715E+00  0.15085693417E-01 -0.32962996524E-01  0.13151097459E+00  0.19089230833E-01 0.  0.
         14    1    1    2    0    0  0.10131732990E-01  0.20744690793E-01  0.58731024077E-02  0.23821997006E-01  0.00000000000E+00 0.  1.
     999901    1    3    3    0    0  0.11483466416E+00 -0.35830384210E-01  0.27089894116E-01  0.88859702840E+00  0.88000000000E+00 0.  1.
        -11    1    4    4    0    0 -0.64292768843E-01  0.10873237685E-01 -0.77361740652E-02  0.65665035852E-01  0.51100000000E-03 0.  1.
         11    1    4    4    0    0 -0.60673628311E-01  0.42124557325E-02 -0.25226822459E-01  0.65845938737E-01  0.51100000000E-03 0. -1.
</event>
<event>
 8    1  0.1061722E+005  0.1043930E+01  0.7957747E-01            NaN
         13   -1    0    0    0    0  0.00000000000E+00  0.00000000000E+00  0.74505805969E-08  0.10566000000E+00  0.10566000000E+00 0.  1.
     999900   -1    0    0    0    0 -0.00000000000E+00 -0.00000000000E+00 -0.74505805969E-08  0.93827000000E+00  0.93827000000E+00 0. -1.
     999902    2    1    2    0    0 -0.17378103146E-01 -0.73266196409E-02 -0.17321827236E-01  0.10183229009E+01  0.10180008875E+01 0.  0.
     999903    2    3    3    0    0  0.49938749594E-01 -0.54025849493E-01  0.10102930676E+00  0.12662824038E+00  0.20374476946E-01 0.  0.
         14    1    1    2    0    0  0.17378103146E-01  0.73266196409E-02  0.17321827236E-01  0.25607099076E-01  0.00000000000E+00 0. -1.
     999901    1    3    3    0    0 -0.67316852740E-01  0.46699229853E-01 -0.11835113400E+00  0.89169466055E+00  0.88000000000E+00 0. -1.
        -11    1    4    4    0    0  0.34302242703E-01 -0.22265018964E-01  0.56116760937E-01  0.69438655683E-01  0.51100000000E-03 0.  1.
         11    1    4    4    0    0  0.15636506890E-01 -0.31760830529E-01  0.44912545827E-01  0.57189584692E-01  0.51100000000E-03 0. -1.
</event>
<event>
 8    1  0.1061722E+005  0.1043930E+01  0.7957747E-01            NaN
         13   -1    0    0    0    0  0.00000000000E+00  0.00000000000E+00  0.74505805969E-08  0.10566000000E+00  0.10566000000E+00 0.  1.
     999900   -1    0    0    0    0 -0.00000000000E+00 -0.00000000000E+00 -0.74505805969E-08  0.93827000000E+00  0.93827000000E+00 0.  1.
     999902    2    1    2    0    0  0.16285275948E-01  0.14785376843E-01 -0.53973382976E-02  0.10212816261E+01  0.10210304652E+01 0.  0.
     999903    2    3    3    0    0 -0.52484658776E-01 -0.45980594314E-01  0.10714734388E+00  0.12938022308E+00  0.19744223515E-01 0.  0.
         14    1    1    2    0    0 -0.16285275948E-01 -0.14785376843E-01  0.53973382976E-02  0.22648373933E-01  0.00000000000E+00 0. -1.
     999901    1    3    3    0    0  0.68769934724E-01  0.60765971158E-01 -0.11254468218E+00  0.89190140299E+00  0.88000000000E+00 0.  1.
        -11    1    4    4    0    0 -0.17780014002E-01 -0.52445966734E-02  0.34238090643E-01  0.38937676664E-01  0.51100000000E-03 0.  1.
         11    1    4    4    0    0 -0.34704644774E-01 -0.40735997641E-01  0.72909253237E-01  0.90442546411E-01  0.51100000000E-03 0. -1.
</event>
<event>
 8    1  0.1061722E+005  0.1043930E+01  0.7957747E-01            NaN
         13   -1    0    0    0    0  0.00000000000E+00  0.00000000000E+00  0.74505805969E-08  0.10566000000E+00  0.10566000000E+00 0. -1.
     999900   -1    0    0    0    0 -0.00000000000E+00 -0.00000000000E+00 -0.74505805969E-08  0.93827000000E+00  0.93827000000E+00 0.  1.
     999902    2    1    2    0    0 -0.15468465735E-01  0.14451376137E-01  0.36839424700E-03  0.10227580511E+01  0.10225388891E+01 0.  0.
     999903    2    3    3    0    0 -0.11305953267E+00  0.54674706259E-01  0.45711456391E-01  0.13529091038E+00  0.21031209071E-01 0.  0.
         14    1    1    2    0    0  0.15468465735E-01 -0.14451376137E-01 -0.36839424700E-03  0.21171948865E-01  0.00000000000E+00 0.  1.
     999901    1    3    3    0    0  0.97591066933E-01 -0.40223330122E-01 -0.45343062144E-01  0.88746714075E+00  0.88000000000E+00 0.  1.
        -11    1    4    4    0    0 -0.69679351656E-01  0.44519246485E-01  0.27271917925E-01  0.87070052159E-01  0.51100000000E-03 0. -1.
         11    1    4    4    0    0 -0.43380181012E-01  0.10155459774E-01  0.18439538466E-01  0.48220858223E-01  0.51100000000E-03 0.  1.
</event>
<event>
 8    1  0.1061722E+005  0.1043930E+01  0.7957747E-01            NaN
         13   -1    0    0    0    0  0.00000000000E+00  0.00000000000E+00  0.74505805969E-08  0.10566000000E+00  0.10566000000E+00 0.  1.
     999900   -1    0    0    0    0 -0.00000000000E+00 -0.00000000000E+00 -0.74505805969E-08  0.93827000000E+00  0.93827000000E+00 0. -1.
     999902    2    1    2    0    0  0.88179699538E-02 -0.23840439186E-01 -0.75142292171E-02  0.10174236465E+01  0.10170783105E+01 0.  0.
     999903    2    3    3    0    0 -0.24299297293E-01  0.48224024381E-01  0.11185378293E+00  0.12583026238E+00  0.20148791473E-01 0.  0.
         14    1    1    2    0    0 -0.88179699538E-02  0.23840439186E-01  0.75142292171E-02  0.26506353491E-01  0.00000000000E+00 0. -1.
     999901    1    3    3    0    0  0.33117267246E-01 -0.72064463567E-01 -0.11936801215E+00  0.89159338413E+00  0.88000000000E+00 0. -1.
        -11    1    4    4    0    0 -0.15902089616E-01  0.43765008474E-01  0.79813089179E-01  0.92404776642E-01  0.51100000000E-03 0. -1.
         11    1    4    4    0    0 -0.83972076767E-02  0.44590159069E-02  0.32040693753E-01  0.33425485737E-01  0.51100000000E-03 0.  1.
</event>
<event>
 8    1  0.1061722E+005  0.1043930E+01  0.7957747E-01            NaN
         13   -1    0    0    0    0  0.00000000000E+00  0.00000000000E+00  0.74505805969E-08  0.10566000000E+00  0.10566000000E+00 0. -1.
     999900   -1    0    0    0    0 -0.00000000000E+00 -0.00000000000E+00 -0.74505805969E-08  0.93827000000E+00  0.93827000000E+00 0. -1.
     999902    2    1    2    0    0 -0.24789913625E-02 -0.87108181201E-02 -0.21720788156E-01  0.10203966962E+01  0.10201252870E+01 0.  0.
     999903    2    3    3    0    0 -0.85602701067E-01 -0.15794581230E-02  0.94291119354E-01  0.12887038132E+00  0.19658150319E-01 0.  0.
         14    1    1    2    0    0  0.24789913625E-02  0.87108181201E-02  0.21720788156E-01  0.23533303818E-01  0.00000000000E+00 0. -1.
     999901    1    3    3    0    0  0.83123709704E-01 -0.71313599971E-02 -0.11601190751E+00  0.89152631486E+00  0.88000000000E+00 0. -1.
        -11    1    4    4    0    0 -0.30606616679E-01 -0.73936526672E-02  0.24961145333E-01  0.40183964235E-01  0.51100000000E-03 0.  1.
         11    1    4    4    0    0 -0.54996084388E-01  0.58141945442E-02  0.69329974021E-01  0.88686417083E-01  0.51100000000E-03 0. -1.
</event>
<event>
 8    1  0.1061722E+005  0.1043930E+01  0.7957747E-01            NaN
         13   -1    0    0    0    0  0.00000000000E+00  0.00000000000E+00  0.74505805969E-08  0.10566000000E+00  0.10566000000E+00 0.  1.
     999900   -1    0    0    0    0 -0.00000000000E+00 -0.00000000000E+00 -0.74505805969E-08  0.93827000000E+00  0.93827000000E+00 0.  1.
     999902    2    1    2    0    0  0.15811805754E-01  0.17266547591E-01  0.51624094900E-02  0.10199550685E+01  0.10196732538E+01 0.  0.
     999903    2    3    3    0    0 -0.11793607708E+00  0.48593858821E-01  0.55397688672E-02  0.12929798582E+00  0.20420546192E-01 0.  0.
         14    1    1    2    0    0 -0.15811805754E-01 -0.17266547591E-01 -0.51624094900E-02  0.23974931463E-01  0.00000000000E+00 0.  1.
     999901    1    3    3    0    0  0.13374788283E+00 -0.31327311230E-01 -0.37735937720E-03  0.89065708272E+00  0.88000000000E+00 0.  1.
        -11    1    4    4    0    0 -0.81869344622E-01  0.23322160391E-01  0.43708686789E-02  0.85240121822E-01  0.51100000000E-03 0.  1.
         11    1    4    4    0    0 -0.36066732455E-01  0.25271698430E-01  0.11689001883E-02  0.44057864000E-01  0.51100000000E-03 0. -1.
</event>
<event>
 8    1  0.1061722E+005  0.1043930E+01  0.7957747E-01            NaN
         13   -1    0    0    0    0  0.00000000000E+00  0.00000000000E+00  0.74505805969E-08  0.10566000000E+00  0.10566000000E+00 0. -1.
     999900   -1    0    0    0    0 -0.00000000000E+00 -0.00000000000E+00 -0.74505805969E-08  0.93827000000E+00  0.93827000000E+00 0.  1.
     999902    2    1    2    0    0 -0.15553657039E-01 -0.40074498107E-02 -0.17166056125E-01  0.10204215040E+01  0.10201506734E+01 0.  0.
     999903    2    3    3    0    0 -0.78421076377E-01 -0.29269840820E-01  0.97981533328E-01  0.13033753708E+00  0.19516759376E-01 0.  0.
         14    1    1    2    0    0  0.15553657039E-01  0.40074498107E-02  0.17166056125E-01  0.23508496000E-01  0.00000000000E+00 0. -1.
     999901    1    3    3    0    0  0.62867419338E-01  0.25262391010E-01 -0.11514758945E+00  0.89008396692E+00  0.88000000000E+00 0.  1.
        -11    1    4    4    0    0 -0.52014222954E-01 -0.19240186761E-01  0.50082753765E-01  0.74727555305E-01  0.51100000000E-03 0.  1.
         11    1    4    4    0    0 -0.26406853423E-01 -0.10029654060E-01  0.47898779563E-01  0.55609981774E-01  0.51100000000E-03 0. -1.
</event>
<event>
 8    1  0.1061722E+005  0.1043930E+01  0.7957747E-01            NaN
         13   -1    0    0    0    0  0.00000000000E+00  0.00000000000E+00  0.74505805969E-08  0.10566000000E+00  0.10566000000E+00 0. -1.
     999900   -1    0    0    0    0 -0.00000000000E+00 -0.00000000000E+00 -0.74505805969E-08  0.93827000000E+00  0.93827000000E+00 0.  1.
     999902    2    1    2    0    0  0.17611179162E-01  0.91902983548E-02 -0.12607064265E-01  0.10204022869E+01  0.10201310081E+01 0.  0.
     999903    2    3    3    0    0  0.46962620340E-01  0.11897788197E+00 -0.30121397436E-01  0.13292182372E+00  0.19992211778E-01 0.  0.
         14    1    1    2    0    0 -0.17611179162E-01 -0.91902983548E-02  0.12607064265E-01  0.23527713121E-01  0.00000000000E+00 0. -1.
     999901    1    3    3    0    0 -0.29351441178E-01 -0.10978758361E+00  0.17514333171E-01  0.88748046315E+00  0.88000000000E+00 0.  1.
        -11    1    4    4    0    0  0.88243132969E-02  0.47839638349E-01 -0.13815874932E-01  0.50573105735E-01  0.51100000000E-03 0. -1.
         11    1    4    4    0    0  0.38138307043E-01  0.71138243619E-01 -0.16305522504E-01  0.82348717989E-01  0.51100000000E-03 0.  1.
</event>
<event>
 8    1  0.1061722E+005  0.1043930E+01  0.7957747E-01            NaN
         13   -1    0    0    0    0  0.00000000000E+00  0.00000000000E+00  0.74505805969E-08  0.10566000000E+00  0.10566000000E+00 0. -1.
     999900   -1    0    0    0    0 -0.00000000000E+00 -0.00000000000E+00 -0.74505805969E-08  0.93827000000E+00  0.93827000000E+00 0. -1.
     999902    2    1    2    0    0  0.15305485921E-01  0.98728008201E-02 -0.16251114002E-01  0.10195203953E+01  0.10192281431E+01 0.  0.
     999903    2    3    3    0    0 -0.60176698918E-01  0.97514852040E-01  0.55940737489E-01  0.12902033758E+00  0.19659601687E-01 0.  0.
         14    1    1    2    0    0 -0.15305485921E-01 -0.98728008201E-02  0.16251114002E-01  0.24409604700E-01  0.00000000000E+00 0. -1.
     999901    1    3    3    0    0  0.75482184838E-01 -0.87642051220E-01 -0.72191851492E-01  0.89050005772E+00  0.88000000000E+00 0. -1.
        -11    1    4    4    0    0 -0.21861824445E-01  0.19382710892E-01  0.13076664963E-01  0.32013889754E-01  0.51100000000E-03 0.  1.
         11    1    4    4    0    0 -0.38314874473E-01  0.78132141148E-01  0.42864072527E-01  0.97006447831E-01  0.51100000000E-03 0. -1.
</event>
<event>
 8    1  0.1061722E+005  0.1043930E+01  0.7957747E-01            NaN
         13   -1    0    0    0    0  0.00000000000E+00  0.00000000000E+00  0.74505805969E-08  0.10566000000E+00  0.10566000000E+00 0. -1.
     999900   -1    0    0    0    0 -0.00000000000E+00 -0.00000000000E+00 -0.74505805969E-08  0.93827000000E+00  0.93827000000E+00 0.  1.
     999902    2    1    2    0    0 -0.15601037534E-01 -0.17385584185E-01 -0.28804985808E-02  0.10203938962E+01  0.10201224217E+01 0.  0.
     999903    2    3    3    0    0 -0.16241962020E-01 -0.22688037034E-01 -0.12711368494E+00  0.13165185749E+00  0.19894077725E-01 0.  0.
         14    1    1    2    0    0  0.15601037534E-01  0.17385584185E-01  0.28804985808E-02  0.23536103791E-01  0.00000000000E+00 0.  1.
     999901    1    3    3    0    0  0.64092448609E-03  0.53024528490E-02  0.12423318635E+00  0.88874203872E+00  0.88000000000E+00 0. -1.
        -11    1    4    4    0    0 -0.32162974878E-02 -0.19026505568E-01 -0.55283345925E-01  0.58556485049E-01  0.51100000000E-03 0. -1.
         11    1    4    4    0    0 -0.13025664533E-01 -0.36615314652E-02 -0.71830339011E-01  0.73095372443E-01  0.51100000000E-03 0.  1.
</event>
<event>
 8    1  0.1061722E+005  0.1043930E+01  0.7957747E-01            NaN
         13   -1    0    0    0    0  0.00000000000E+00  0.00000000000E+00  0.74505805969E-08  0.10566000000E+00  0.10566000000E+00 0.  1.
     999900   -1    0    0    0    0 -0.00000000000E+00 -0.00000000000E+00 -0.74505805969E-08  0.93827000000E+00  0.93827000000E+00 0.  1.
     999902    2    1    2    0    0  0.21149156787E-01 -0.87769278015E-02 -0.13210930543E-02  0.10209938586E+01  0.10207362014E+01 0.  0.
     999903    2    3    3    0    0 -0.26757421511E-01 -0.10853000774E+00  0.66285807503E-01  0.13149039589E+00  0.20029821520E-01 0.  0.
         14    1    1    2    0    0 -0.21149156787E-01  0.87769278015E-02  0.13210930543E-02  0.22936141378E-01  0.00000000000E+00 0.  1.
     999901    1    3    3    0    0  0.47906578298E-01  0.99753079940E-01 -0.67606900557E-01  0.88950346273E+00  0.88000000000E+00 0.  1.
        -11    1    4    4    0    0 -0.29685043202E-01 -0.10388144750E+00  0.62895739588E-01  0.12501476754E+00  0.51100000000E-03 0.  1.
         11    1    4    4    0    0  0.29276216917E-02 -0.46485602449E-02  0.33900679142E-02  0.64756283543E-02  0.51100000000E-03 0. -1.
</event>
<event>
 8    1  0.1061722E+005  0.1043930E+01  0.7957747E-01            NaN
         13   -1    0    0    0    0  0.00000000000E+00  0.00000000000E+00  0.74505805969E-08  0.10566000000E+00  0.10566000000E+00 0. -1.
     999900   -1    0    0    0    0 -0.00000000000E+00 -0.00000000000E+00 -0.74505805969E-08  0.93827000000E+00  0.93827000000E+00 0. -1.
     999902    2    1    2    0    0  0.21254158564E-01  0.65466929305E-02  0.33427094462E-02  0.10214406214E+01  0.10211930135E+01 0.  0.
     999903    2    3    3    0    0 -0.94040932830E-03 -0.12922775949E+00  0.19850962037E-02  0.13075035877E+00  0.19774162971E-01 0.  0.
         14    1    1    2    0    0 -0.21254158564E-01 -0.65466929305E-02 -0.33427094462E-02  0.22489378627E-01  0.00000000000E+00 0. -1.
     999901    1    3    3    0    0  0.22194567892E-01  0.13577445242E+00  0.13576132424E-02  0.89069026260E+00  0.88000000000E+00 0.  1.
        -11    1    4    4    0    0  0.17438371697E-02 -0.99930342693E-01  0.94530333536E-02  0.10039290473E+00  0.51100000000E-03 0.  1.
         11    1    4    4    0    0 -0.26842464980E-02 -0.29297416794E-01 -0.74679371498E-02  0.30357454049E-01  0.51100000000E-03 0. -1.
</event>
<event>
 8    1  0.1061722E+005  0.1043930E+01  0.7957747E-01            NaN
         13   -1    0    0    0    0  0.00000000000E+00  0.00000000000E+00  0.74505805969E-08  0.10566000000E+00  0.10566000000E+00 0.  1.
     999900   -1    0    0    0    0 -0.00000000000E+00 -0.00000000000E+00 -0.74505805969E-08  0.93827000000E+00  0.93827000000E+00 0. -1.
     999902    2    1    2    0    0  0.26372174719E-01  0.96028606607E-02 -0.42312868160E-02  0.10155467246E+01  0.10151500084E+01 0.  0.
     999903    2    3    3    0    0  0.11914854030E+00  0.71434161722E-02  0.45233291927E-01  0.12928477271E+00  0.20520689745E-01 0.  0.
         14    1    1    2    0    0 -0.26372174719E-01 -0.96028606607E-02  0.42312868160E-02  0.28383275364E-01  0.00000000000E+00 0. -1.
     999901    1    3    3    0    0 -0.92776365577E-01  0.24594444886E-02 -0.49464578743E-01  0.88626195192E+00  0.88000000000E+00 0.  1.
        -11    1    4    4    0    0  0.78544035825E-01  0.10489436991E-01  0.21403642483E-01  0.82082707586E-01  0.51100000000E-03 0. -1.
         11    1    4    4    0    0  0.40604504471E-01 -0.33460208190E-02  0.23829649444E-01  0.47202065127E-01  0.51100000000E-03 0.  1.
</event>
<event>
 8    1  0.1061722E+005  0.1043930E+01  0.7957747E-01            NaN
         13   -1    0    0    0    0  0.00000000000E+00  0.00000000000E+00  0.74505805969E-08  0.10566000000E+00  0.10566000000E+00 0. -1.
     999900   -1    0    0    0    0 -0.00000000000E+00 -0.00000000000E+00 -0.74505805969E-08  0.93827000000E+00  0.93827000000E+00 0.  1.
     999902    2    1    2    0    0 -0.17210748294E-01 -0.11192317571E-01 -0.11949145139E-01  0.10201758446E+01  0.10198992568E+01 0.  0.
     999903    2    3    3    0    0  0.11631497058E+00 -0.40433891955E-01 -0.34627504817E-01  0.12933439110E+00  0.19085298815E-01 0.  0.
         14    1    1    2    0    0  0.17210748294E-01  0.11192317571E-01  0.11949145139E-01  0.23754155404E-01  0.00000000000E+00 0. -1.
     999901    1    3    3    0    0 -0.13352571887E+00  0.29241574384E-01  0.22678359678E-01  0.89084145350E+00  0.88000000000E+00 0. -1.
        -11    1    4    4    0    0  0.64212496615E-01 -0.22149956790E-01 -0.92217110792E-02  0.68550465961E-01  0.51100000000E-03 0.  1.
         11    1    4    4    0    0  0.52102473966E-01 -0.18283935165E-01 -0.25405793738E-01  0.60783925136E-01  0.51100000000E-03 0. -1.
</event>
<event>
 8    1  0.1061722E+005  0.1043930E+01  0.7957747E-01            NaN
         13   -1    0    0    0    0  0.00000000000E+00  0.00000000000E+00  0.74505805969E-08  0.10566000000E+00  0.10566000000E+00 0. -1.
     999900   -1    0    0    0    0 -0.00000000000E+00 -0.00000000000E+00 -0.74505805969E-08  0.93827000000E+00  0.93827000000E+00 0.  1.
     999902    2    1    2    0    0 -0.29202958462E-02  0.18118914131E-01  0.15099962790E-01  0.10201638044E+01  0.10198869328E+01 0.  0.
     999903    2    3    3    0    0 -0.42070103739E-03 -0.52992468579E-01 -0.11452490949E+00  0.12782660119E+00  0.20379066752E-01 0.  0.
         14    1    1    2    0    0  0.29202958462E-02 -0.18118914131E-01 -0.15099962790E-01  0.23766195602E-01  0.00000000000E+00 0. -1.
     999901    1    3    3    0    0 -0.24995948088E-02  0.71111382710E-01  0.12962487228E+00  0.89233720321E+00  0.88000000000E+00 0. -1.
        -11    1    4    4    0    0  0.87995454131E-02 -0.14740421884E-01 -0.40531433632E-01  0.44020112109E-01  0.51100000000E-03 0. -1.
         11    1    4    4    0    0 -0.92202464505E-02 -0.38252046695E-01 -0.73993475857E-01  0.83806489077E-01  0.51100000000E-03 0.  1.
</event>
<event>
 8    1  0.1061722E+005  0.1043930E+01  0.7957747E-01            NaN
         13   -1    0    0    0    0  0.00000000000E+00  0.00000000000E+00  0.74505805969E-08  0.10566000000E+00  0.10566000000E+00 0. -1.
     999900   -1    0    0    0    0 -0.00000000000E+00 -0.00000000000E+00 -0.74505805969E-08  0.93827000000E+00  0.93827000000E+00 0. -1.
     999902    2    1    2    0    0 -0.16078231064E-03  0.25504231685E-01  0.24541982533E-03  0.10184240808E+01  0.10181046392E+01 0.  0.
     999903    2    3    3    0    0 -0.12208673526E+00 -0.33117728411E-01  0.22925900024E-02  0.12808332403E+00  0.19953121682E-01 0.  0.
         14    1    1    2    0    0  0.16078231064E-03 -0.25504231685E-01 -0.24541982533E-03  0.25505919228E-01  0.00000000000E+00 0.  1.
     999901    1    3    3    0    0  0.12192595295E+00  0.58621960096E-01 -0.20471701770E-02  0.89034075674E+00  0.88000000000E+00 0. -1.
        -11    1    4    4    0    0 -0.77134528858E-01 -0.15155509981E-01 -0.65049780950E-02  0.78879660787E-01  0.51100000000E-03 0. -1.
         11    1    4    4    0    0 -0.44952206401E-01 -0.17962218430E-01  0.87975680973E-02  0.49203663244E-01  0.51100000000E-03 0.  1.
</event>
<event>
 8    1  0.1061722E+005  0.1043930E+01  0.7957747E-01            NaN
         13   -1    0    0    0    0  0.00000000000E+00  0.00000000000E+00  0.74505805969E-08  0.10566000000E+00  0.10566000000E+00 0.  1.
     999900   -1    0    0    0    0 -0.00000000000E+00 -0.00000000000E+00 -0.74505805969E-08  0.93827000000E+00  0.93827000000E+00 0.  1.
     999902    2    1    2    0    0  0.82949170252E-02 -0.14583174236E-01  0.17585830776E-01  0.10196249375E+01  0.10193352133E+01 0.  0.
     999903    2    3    3    0    0 -0.12457206741E+00  0.20971001266E-01 -0.94429101284E-02  0.12853106602E+00  0.21750482948E-01 0.  0.
         14    1    1    2    0    0 -0.82949170252E-02  0.14583174236E-01 -0.17585830776E-01  0.24305062504E-01  0.00000000000E+00 0. -1.
     999901    1    3    3    0    0  0.13286698443E+00 -0.35554175502E-01  0.27028740904E-01  0.89109387148E+00  0.88000000000E+00 0. -1.
        -11    1    4    4    0    0 -0.62731784828E-01  0.89112215007E-02  0.60354536589E-02  0.63650408626E-01  0.51100000000E-03 0. -1.
         11    1    4    4    0    0 -0.61840282578E-01  0.12059779765E-01 -0.15478363787E-01  0.64880657394E-01  0.51100000000E-03 0.  1.
</event>
<event>
 8    1  0.1061722E+005  0.1043930E+01  0.7957747E-01            NaN
         13   -1    0    0    0    0  0.00000000000E+00  0.00000000000E+00  0.74505805969E-08  0.10566000000E+00  0.10566000000E+00 0. -1.
     999900   -1    0    0    0    0 -0.00000000000E+00 -0.00000000000E+00 -0.74505805969E-08  0.93827000000E+00  0.93827000000E+00 0.  1.
     999902    2    1    2    0    0 -0.20314929198E-02 -0.13479548506E-01  0.18674913350E-01  0.10208090662E+01  0.10205471925E+01 0.  0.
     999903    2    3    3    0    0  0.11366038643E+00 -0.30798720378E-01 -0.52034047647E-01  0.13025624809E+00  0.19796550998E-01 0.  0.
         14    1    1    2    0    0  0.20314929198E-02  0.13479548506E-01 -0.18674913350E-01  0.23120933805E-01  0.00000000000E+00 0.  1.
     999901    1    3    3    0    0 -0.11569187935E+00  0.17319171872E-01  0.70708960997E-01  0.89055281810E+00  0.88000000000E+00 0. -1.
        -11    1    4    4    0    0  0.47849993456E-01 -0.19356467149E-01 -0.31049413153E-01  0.60238043397E-01  0.51100000000E-03 0. -1.
         11    1    4    4    0    0  0.65810392979E-01 -0.11442253229E-01 -0.20984634494E-01  0.70018204696E-01  0.51100000000E-03 0.  1.
</event>
<event>
 8    1  0.1061722E+005  0.1043930E+01  0.7957747E-01            NaN
         13   -1    0    0    0    0  0.00000000000E+00  0.00000000000E+00  0.74505805969E-08  0.10566000000E+00  0.10566000000E+00 0.  1.
     999900   -1    0    0    0    0 -0.00000000000E+00 -0.00000000000E+00 -0.74505805969E-08  0.93827000000E+00  0.93827000000E+00 0. -1.
     999902    2    1    2    0    0 -0.63075527337E-02  0.17606985310E-01 -0.14125442947E-01  0.10204924384E+01  0.10202232587E+01 0.  0.
     999903    2    3    3    0    0 -0.64144433603E-01 -0.68840513423E-01 -0.88990365209E-01  0.13121012590E+00  0.21054391162E-01 0.  0.
         14    1    1    2    0    0  0.63075527337E-02 -0.17606985310E-01  0.14125442947E-01  0.23437561555E-01  0.00000000000E+00 0.  1.
     999901    1    3    3    0    0  0.57836880869E-01  0.86447498733E-01  0.74864922262E-01  0.88928231255E+00  0.88000000000E+00 0.  1.
        -11    1    4    4    0    0 -0.31868257441E-01 -0.20457387365E-01 -0.29450078569E-01  0.47975606081E-01  0.51100000000E-03 0. -1.
         11    1    4    4    0    0 -0.32276176162E-01 -0.48383126058E-01 -0.59540286640E-01  0.83234519815E-01  0.51100000000E-03 0.  1.
</event>
<event>
 8    1  0.1061722E+005  0.1043930E+01  0.7957747E-01            NaN
         13   -1    0    0    0    0  0.00000000000E+00  0.00000000000E+00  0.74505805969E-08  0.10566000000E+00  0.10566000000E+00 0.  1.
     999900   -1    0    0    0    0 -0.00000000000E+00 -0.00000000000E+00 -0.74505805969E-08  0.93827000000E+00  0.93827000000E+00 0. -1.
     999902    2    1    2    0    0  0.26557592585E-01  0.18718503410E-01  0.16200758139E-01  0.10076236279E+01  0.10069693256E+01 0.  0.
     999903    2    3    3    0    0 -0.11125933855E+00 -0.17423735300E-01 -0.16094605271E-01  0.11557948185E+00  0.20429227598E-01 0.  0.
         14    1    1    2    0    0 -0.26557592585E-01 -0.18718503410E-01 -0.16200758139E-01  0.36306372142E-01  0.00000000000E+00 0. -1.
     999901    1    3    3    0    0  0.13781693113E+00  0.36142238710E-01  0.32295363410E-01  0.89204414601E+00  0.88000000000E+00 0.  1.
        -11    1    4    4    0    0 -0.99637471786E-01 -0.14721977412E-01 -0.77660182293E-02  0.10101947616E+00  0.51100000000E-03 0.  1.
         11    1    4    4    0    0 -0.11621866762E-01 -0.27017578887E-02 -0.83285870417E-02  0.14560005695E-01  0.51100000000E-03 0. -1.
</event>
<event>
 8    1  0.1061722E+005  0.1043930E+01  0.7957747E-01            NaN
         13   -1    0    0    0    0  0.00000000000E+00  0.00000000000E+00  0.74505805969E-08  0.10566000000E+00  0.10566000000E+00 0.  1.
     999900   -1    0    0    0    0 -0.00000000000E+00 -0.00000000000E+00 -0.74505805969E-08  0.93827000000E+00  0.93827000000E+00 0. -1.
     999902    2    1    2    0    0  0.51479899530E-02 -0.12282672915E-01  0.21133981763E-01  0.10189497870E+01  0.10186435380E+01 0.  0.
     999903    2    3    3    0    0 -0.11530046142E-01  0.10593684507E+00 -0.65837228254E-01  0.12663930145E+00  0.18639070250E-01 0.  0.
         14    1    1    2    0    0 -0.51479899530E-02  0.12282672915E-01 -0.21133981763E-01  0.24980212963E-01  0.00000000000E+00 0. -1.
     999901    1    3    3    0    0  0.16678036095E-01 -0.11821951798E+00  0.86971210017E-01  0.89231048559E+00  0.88000000000E+00 0.  1.
        -11    1    4    4    0    0 -0.16039838011E-02  0.58421036035E-01 -0.45228062187E-01  0.73901481349E-01  0.51100000000E-03 0.  1.
         11    1    4    4    0    0 -0.99260623407E-02  0.47515809035E-01 -0.20609166067E-01  0.52737820099E-01  0.51100000000E-03 0. -1.
</event>
<event>
 8    1  0.1061722E+005  0.1043930E+01  0.7957747E-01            NaN
         13   -1    0    0    0    0  0.00000000000E+00  0.00000000000E+00  0.74505805969E-08  0.10566000000E+00  0.10566000000E+00 0.  1.
     999900   -1    0    0    0    0 -0.00000000000E+00 -0.00000000000E+00 -0.74505805969E-08  0.93827000000E+00  0.93827000000E+00 0.  1.
     999902    2    1    2    0    0  0.16037548132E-01 -0.96376928148E-02  0.15134052151E-01  0.10198649297E+01  0.10195809665E+01 0.  0.
     999903    2    3    3    0    0 -0.19030990516E-01 -0.18519377352E-01 -0.12383352704E+00  0.12822561095E+00  0.20047916247E-01 0.  0.
         14    1    1    2    0    0 -0.16037548132E-01  0.96376928148E-02 -0.15134052151E-01  0.24065070276E-01  0.00000000000E+00 0. -1.
     999901    1    3    3    0    0  0.35068538648E-01  0.88816845374E-02  0.13896757919E+00  0.89163931878E+00  0.88000000000E+00 0. -1.
        -11    1    4    4    0    0 -0.74073404782E-02 -0.13068793123E-01 -0.30400633125E-01  0.33913443677E-01  0.51100000000E-03 0.  1.
         11    1    4    4    0    0 -0.11623650038E-01 -0.54505842294E-02 -0.93432893916E-01  0.94312167270E-01  0.51100000000E-03 0. -1.
</event>
<event>
 8    1  0.1061722E+005  0.1043930E+01  0.7957747E-01            NaN
         13   -1    0    0    0    0  0.00000000000E+00  0.00000000000E+00  0.74505805969E-08  0.10566000000E+00  0.10566000000E+00 0. -1.
     999900   -1    0    0    0    0 -0.00000000000E+00 -0.00000000000E+00 -0.74505805969E-08  0.93827000000E+00  0.93827000000E+00 0. -1.
     999902    2    1    2    0    0  0.27659853060E-02 -0.16780490385E-01 -0.15938115210E-01  0.10206220818E+01  0.10203559060E+01 0.  0.
     999903    2    3    3    0    0 -0.10126313438E+00  0.63561456189E-01 -0.47824089042E-01  0.13028866034E+00  0.19842137536E-01 0.  0.
         14    1    1    2    0    0 -0.27659853060E-02  0.16780490385E-01  0.15938115210E-01  0.23307918155E-01  0.00000000000E+00 0. -1.
     999901    1    3    3    0    0  0.10402911969E+00 -0.80341946574E-01  0.31885973832E-01  0.89033342151E+00  0.88000000000E+00 0.  1.
        -11    1    4    4    0    0 -0.19709325688E-01  0.18523402304E-01 -0.40556734532E-02  0.27354772164E-01  0.51100000000E-03 0.  1.
         11    1    4    4    0    0 -0.81553808697E-01  0.45038053885E-01 -0.43768415589E-01  0.10293388818E+00  0.51100000000E-03 0. -1.
</event>
<event>
 8    1  0.1061722E+005  0.1043930E+01  0.7957747E-01            NaN
         13   -1    0    0    0    0  0.00000000000E+00  0.00000000000E+00  0.74505805969E-08  0.10566000000E+00  0.10566000000E+00 0.  1.
     999900   -1    0    0    0    0 -0.00000000000E+00 -0.00000000000E+00 -0.74505805969E-08  0.93827000000E+00  0.93827000000E+00 0.  1.
     999902    2    1    2    0    0  0.74061225616E-02 -0.17160121699E-01  0.14466807077E-01  0.10202950908E+01  0.10200213053E+01 0.  0.
     999903    2    3    3    0    0  0.87231380766E-01  0.89765615139E-01 -0.25023642873E-01  0.12936036773E+00  0.20993870191E-01 0.  0.
         14    1    1    2    0    0 -0.74061225616E-02  0.17160121699E-01 -0.14466807077E-01  0.23634909247E-01  0.00000000000E+00 0. -1.
     999901    1    3    3    0    0 -0.79825258205E-01 -0.10692573684E+00  0.39490449950E-01  0.89093472302E+00  0.88000000000E+00 0.  1.
        -11    1    4    4    0    0  0.29541403343E-01  0.23219112205E-01  0.77845616897E-03  0.37585752594E-01  0.51100000000E-03 0. -1.
         11    1    4    4    0    0  0.57689977424E-01  0.66546502934E-01 -0.25802099042E-01  0.91774615139E-01  0.51100000000E-03 0.  1.
</event>
<event>
 8    1  0.1061722E+005  0.1043930E+01  0.7957747E-01            NaN
         13   -1    0    0    0    0  0.00000000000E+00  0.00000000000E+00  0.74505805969E-08  0.10566000000E+00  0.10566000000E+00 0. -1.
     999900   -1    0    0    0    0 -0.00000000000E+00 -0.00000000000E+00 -0.74505805969E-08  0.93827000000E+00  0.93827000000E+00 0. -1.
     999902    2    1    2    0    0 -0.52651442998E-02 -0.23379815747E-01 -0.12529375396E-02  0.10199319296E+01  0.10196495642E+01 0.  0.
     999903    2    3    3    0    0 -0.99660055464E-01 -0.64725332308E-01  0.54352264140E-01  0.13217532479E+00  0.19865864388E-01 0.  0.
         14    1    1    2    0    0  0.52651442998E-02  0.23379815747E-01  0.12529375396E-02  0.23998070367E-01  0.00000000000E+00 0. -1.
     999901    1    3    3    0    0  0.94394911164E-01  0.41345516560E-01 -0.55605201680E-01  0.88775660485E+00  0.88000000000E+00 0. -1.
        -11    1    4    4    0    0 -0.62096387131E-01 -0.37491361002E-01  0.22700065183E-01  0.76007351782E-01  0.51100000000E-03 0.  1.
         11    1    4    4    0    0 -0.37563668333E-01 -0.27233971306E-01  0.31652198957E-01  0.56167973005E-01  0.51100000000E-03 0. -1.
</event>
<event>
 8    1  0.1061722E+005  0.1043930E+01  0.7957747E-01            NaN
         13   -1    0    0    0    0  0.00000000000E+00  0.00000000000E+00  0.74505805969E-08  0.10566000000E+00  0.10566000000E+00 0. -1.
     999900   -1    0    0    0    0 -0.00000000000E+00 -0.00000000000E+00 -0.74505805969E-08  0.93827000000E+00  0.93827000000E+00 0. -1.
     999902    2    1    2    0    0 -0.14684227508E-01 -0.39797180643E-02  0.18697622383E-01  0.10198246940E+01  0.10195397691E+01 0.  0.
     999903    2    3    3    0    0 -0.48121663219E-01 -0.10545438924E+00  0.60827108971E-01  0.13236198234E+00  0.19581483626E-01 0.  0.
         14    1    1    2    0    0  0.14684227508E-01  0.39797180643E-02 -0.18697622383E-01  0.24105305975E-01  0.00000000000E+00 0.  1.
     999901    1    3    3    0    0  0.33437435711E-01  0.10147467118E+00 -0.42129486588E-01  0.88746271169E+00  0.88000000000E+00 0. -1.
        -11    1    4    4    0    0 -0.42403890682E-01 -0.75984206464E-01  0.39673934186E-01  0.95634574039E-01  0.51100000000E-03 0. -1.
         11    1    4    4    0    0 -0.57177725371E-02 -0.29470182778E-01  0.21153174785E-01  0.36727408297E-01  0.51100000000E-03 0.  1.
</event>
<event>
 8    1  0.1061722E+005  0.1043930E+01  0.7957747E-01            NaN
         13   -1    0    0    0    0  0.00000000000E+00  0.00000000000E+00  0.74505805969E-08  0.10566000000E+00  0.10566000000E+00 0. -1.
     999900   -1    0    0    0    0 -0.00000000000E+00 -0.00000000000E+00 -0.74505805969E-08  0.93827000000E+00  0.93827000000E+00 0. -1.
     999902    2    1    2    0    0  0.21935314398E-01  0.96829560862E-02  0.49297139579E-02  0.10194510348E+01  0.10191570991E+01 0.  0.
     999903    2    3    3    0    0  0.70185830623E-01 -0.76601145688E-01 -0.76189628222E-01  0.13020786999E+00  0.18853212388E-01 0.  0.
         14    1    1    2    0    0 -0.21935314398E-01 -0.96829560862E-02 -0.49297139579E-02  0.24478965174E-01  0.00000000000E+00 0. -1.
     999901    1    3    3    0    0 -0.48250516225E-01  0.86284101774E-01  0.81119342180E-01  0.88924316484E+00  0.88000000000E+00 0.  1.
        -11    1    4    4    0    0  0.20897835051E-02 -0.37297331440E-02 -0.89205285369E-02  0.99053043771E-02  0.51100000000E-03 0. -1.
         11    1    4    4    0    0  0.68096047118E-01 -0.72871412544E-01 -0.67269099685E-01  0.12030256561E+00  0.51100000000E-03 0.  1.
</event>
<event>
 8    1  0.1061722E+005  0.1043930E+01  0.7957747E-01            NaN
         13   -1    0    0    0    0  0.00000000000E+00  0.00000000000E+00  0.74505805969E-08  0.10566000000E+00  0.10566000000E+00 0. -1.
     999900   -1    0    0    0    0 -0.00000000000E+00 -0.00000000000E+00 -0.74505805969E-08  0.93827000000E+00  0.93827000000E+00 0. -1.
     999902    2    1    2    0    0 -0.79712198820E-02 -0.19168672534E-01  0.92097641162E-02  0.10212188109E+01  0.10209662393E+01 0.  0.
     999903    2    3    3    0    0 -0.47554187927E-01  0.40924560721E-01  0.11510009487E+00  0.13195463749E+00  0.15092185263E-01 0.  0.
         14    1    1    2    0    0  0.79712198820E-02  0.19168672534E-01 -0.92097641162E-02  0.22711189053E-01  0.00000000000E+00 0. -1.
     999901    1    3    3    0    0  0.39582968045E-01 -0.60093233254E-01 -0.10589033076E+00  0.88926417345E+00  0.88000000000E+00 0. -1.
        -11    1    4    4    0    0 -0.36709278602E-01  0.22353817807E-01  0.78727467876E-01  0.89696932084E-01  0.51100000000E-03 0. -1.
         11    1    4    4    0    0 -0.10844909324E-01  0.18570742913E-01  0.36372626999E-01  0.42257705409E-01  0.51100000000E-03 0.  1.
</event>
<event>
 8    1  0.1061722E+005  0.1043930E+01  0.7957747E-01            NaN
         13   -1    0    0    0    0  0.00000000000E+00  0.00000000000E+00  0.74505805969E-08  0.10566000000E+00  0.10566000000E+00 0. -1.
     999900   -1    0    0    0    0 -0.00000000000E+00 -0.00000000000E+00 -0.74505805969E-08  0.93827000000E+00  0.93827000000E+00 0.  1.
     999902    2    1    2    0    0 -0.48965356695E-02  0.23113790480E-01 -0.30525250856E-02  0.10201068751E+01  0.10198286598E+01 0.  0.
     999903    2    3    3    0    0  0.80946828048E-01  0.75875407465E-01  0.67398721583E-01  0.13155960594E+00  0.21351248575E-01 0.  0.
         14    1    1    2    0    0  0.48965356695E-02 -0.23113790480E-01  0.30525250856E-02  0.23823124927E-01  0.00000000000E+00 0.  1.
     999901    1    3    3    0    0 -0.85843363718E-01 -0.52761616985E-01 -0.70451246669E-01  0.88854726913E+00  0.88000000000E+00 0.  1.
        -11    1    4    4    0    0  0.78588054680E-02  0.14589836869E-01  0.40857916408E-02  0.17075683810E-01  0.51100000000E-03 0.  1.
         11    1    4    4    0    0  0.73088022580E-01  0.61285570596E-01  0.63312929943E-01  0.11448392213E+00  0.51100000000E-03 0. -1.
</event>
<event>
 8    1  0.1061722E+005  0.1043930E+01  0.7957747E-01            NaN
         13   -1    0    0    0    0  0.00000000000E+00  0.00000000000E+00  0.74505805969E-08  0.10566000000E+00  0.10566000000E+00 0.  1.
     999900   -1    0    0    0    0 -0.00000000000E+00 -0.00000000000E+00 -0.74505805969E-08  0.93827000000E+00  0.93827000000E+00 0.  1.
     999902    2    1    2    0    0  0.19653830744E-01 -0.66243781809E-02  0.11084797463E-01  0.10204134487E+01  0.10201424303E+01 0.  0.
     999903    2    3    3    0    0 -0.46935193070E-02 -0.10388738538E+00 -0.76376097578E-01  0.13041215986E+00  0.18957984941E-01 0.  0.
         14    1    1    2    0    0 -0.19653830744E-01  0.66243781809E-02 -0.11084797463E-01  0.23516551277E-01  0.00000000000E+00 0. -1.
     999901    1    3    3    0    0  0.24347350051E-01  0.97263007196E-01  0.87460895041E-01  0.89000128887E+00  0.88000000000E+00 0. -1.
        -11    1    4    4    0    0  0.65969959043E-02 -0.53833705999E-01 -0.35719031054E-01  0.64943810767E-01  0.51100000000E-03 0.  1.
         11    1    4    4    0    0 -0.11290515211E-01 -0.50053679378E-01 -0.40657066524E-01  0.65468349089E-01  0.51100000000E-03 0. -1.
</event>
<event>
 8    1  0.1061722E+005  0.1043930E+01  0.7957747E-01            NaN
         13   -1    0    0    0    0  0.00000000000E+00  0.00000000000E+00  0.74505805969E-08  0.10566000000E+00  0.10566000000E+00 0.  1.
     999900   -1    0    0    0    0 -0.00000000000E+00 -0.00000000000E+00 -0.74505805969E-08  0.93827000000E+00  0.93827000000E+00 0. -1.
     999902    2    1    2    0    0  0.85836501034E-02  0.21434314799E-01 -0.74933484421E-02  0.10196553389E+01  0.10193663478E+01 0.  0.
     999903    2    3    3    0    0 -0.20188189391E-01  0.12945100124E+00 -0.29794430484E-02  0.13257259269E+00  0.20037228877E-01 0.  0.
         14    1    1    2    0    0 -0.85836501034E-02 -0.21434314799E-01  0.74933484421E-02  0.24274661086E-01  0.00000000000E+00 0. -1.
     999901    1    3    3    0    0  0.28771839494E-01 -0.10801668644E+00 -0.45139053937E-02  0.88708274622E+00  0.88000000000E+00 0.  1.
        -11    1    4    4    0    0 -0.43590791473E-02  0.48317291837E-01 -0.10254529594E-01  0.49588090906E-01  0.51100000000E-03 0.  1.
         11    1    4    4    0    0 -0.15829110244E-01  0.81133709399E-01  0.72750865457E-02  0.82984501789E-01  0.51100000000E-03 0. -1.
</event>
<event>
 8    1  0.1061722E+005  0.1043930E+01  0.7957747E-01            NaN
         13   -1    0    0    0    0  0.00000000000E+00  0.00000000000E+00  0.74505805969E-08  0.10566000000E+00  0.10566000000E+00 0.  1.
     999900   -1    0    0    0    0 -0.00000000000E+00 -0.00000000000E+00 -0.74505805969E-08  0.93827000000E+00  0.93827000000E+00 0. -1.
     999902    2    1    2    0    0  0.22359641156E-01  0.23164565005E-02  0.62927894698E-02  0.10205865058E+01  0.10203195073E+01 0.  0.
     999903    2    3    3    0    0  0.85156489107E-01 -0.47997911037E-01  0.88313620334E-01  0.13311684636E+00  0.19114710207E-01 0.  0.
         14    1    1    2    0    0 -0.22359641156E-01 -0.23164565005E-02 -0.62927894698E-02  0.23343494225E-01  0.00000000000E+00 0.  1.
     999901    1    3    3    0    0 -0.62796847951E-01  0.50314367537E-01 -0.82020830865E-01  0.88746965942E+00  0.88000000000E+00 0. -1.
        -11    1    4    4    0    0  0.60586596437E-01 -0.25734499041E-01  0.51570459727E-01  0.83622805180E-01  0.51100000000E-03 0.  1.
         11    1    4    4    0    0  0.24569892670E-01 -0.22263411996E-01  0.36743160607E-01  0.49494041176E-01  0.51100000000E-03 0. -1.
</event>
<event>
 8    1  0.1061722E+005  0.1043930E+01  0.7957747E-01            NaN
         13   -1    0    0    0    0  0.00000000000E+00  0.00000000000E+00  0.74505805969E-08  0.10566000000E+00  0.10566000000E+00 0. -1.
     999900   -1    0    0    0    0 -0.00000000000E+00 -0.00000000000E+00 -0.74505805969E-08  0.93827000000E+00  0.93827000000E+00 0.  1.
     999902    2    1    2    0    0 -0.81974726783E-02 -0.56186091650E-02  0.20701046633E-01  0.10209669719E+01  0.10207087033E+01 0.  0.
     999903    2    3    3    0    0 -0.94098428577E-01 -0.88359603947E-01 -0.20968400463E-01  0.13194425608E+00  0.17540781753E-01 0.  0.
         14    1    1    2    0    0  0.81974726783E-02  0.56186091650E-02 -0.20701046633E-01  0.22963028088E-01  0.00000000000E+00 0.  1.
     999901    1    3    3    0    0  0.85900955898E-01  0.82740994782E-01  0.41669447097E-01  0.88902271583E+00  0.88000000000E+00 0. -1.
        -11    1    4    4    0    0 -0.45803989524E-01 -0.36528471900E-01 -0.16922600703E-01  0.60983360446E-01  0.51100000000E-03 0.  1.
         11    1    4    4    0    0 -0.48294439052E-01 -0.51831132047E-01 -0.40457997600E-02  0.70960895635E-01  0.51100000000E-03 0. -1.
</event>
<event>
 8    1  0.1061722E+005  0.1043930E+01  0.7957747E-01            NaN
         13   -1    0    0    0    0  0.00000000000E+00  0.00000000000E+00  0.74505805969E-08  0.10566000000E+00  0.10566000000E+00 0. -1.
     999900   -1    0    0    0    0 -0.00000000000E+00 -0.00000000000E+00 -0.74505805969E-08  0.93827000000E+00  0.93827000000E+00 0.  1.
     999902    2    1    2    0    0  0.16751747236E-01 -0.32484445229E-02  0.16607743677E-01  0.10201184361E+01  0.10198404939E+01 0.  0.
     999903    2    3    3    0    0 -0.11833592648E+00 -0.57422831284E-02 -0.43572079697E-01  0.12777516693E+00  0.19788932332E-01 0.  0.
         14    1    1    2    0    0 -0.16751747236E-01  0.32484445229E-02 -0.16607743677E-01  0.23811563941E-01  0.00000000000E+00 0.  1.
     999901    1    3    3    0    0  0.13508767372E+00  0.24938386055E-02  0.60179823374E-01  0.89234326913E+00  0.88000000000E+00 0. -1.
        -11    1    4    4    0    0 -0.46882319654E-01 -0.63348853836E-02 -0.81078320626E-02  0.48000840938E-01  0.51100000000E-03 0.  1.
         11    1    4    4    0    0 -0.71453606827E-01  0.59260225521E-03 -0.35464247634E-01  0.79774325990E-01  0.51100000000E-03 0. -1.
</event>
<event>
 8    1  0.1061722E+005  0.1043930E+01  0.7957747E-01            NaN
         13   -1    0    0    0    0  0.00000000000E+00  0.00000000000E+00  0.74505805969E-08  0.10566000000E+00  0.10566000000E+00 0. -1.
     999900   -1    0    0    0    0 -0.00000000000E+00 -0.00000000000E+00 -0.74505805969E-08  0.93827000000E+00  0.93827000000E+00 0.  1.
     999902    2    1    2    0    0  0.54324973174E-03 -0.15529198324E-01 -0.18115456387E-01  0.10200632683E+01  0.10197840215E+01 0.  0.
     999903    2    3    3    0    0 -0.83626126891E-01 -0.98551994987E-01 -0.18754433142E-01  0.13215692359E+00  0.20196506511E-01 0.  0.
         14    1    1    2    0    0 -0.54324973174E-03  0.15529198324E-01  0.18115456387E-01  0.23866731677E-01  0.00000000000E+00 0. -1.
     999901    1    3    3    0    0  0.84169376623E-01  0.83022796663E-01  0.63897675550E-03  0.88790634473E+00  0.88000000000E+00 0.  1.
        -11    1    4    4    0    0 -0.56857456437E-01 -0.65942739353E-01 -0.30128537049E-02  0.87123783403E-01  0.51100000000E-03 0. -1.
         11    1    4    4    0    0 -0.26768670454E-01 -0.32609255634E-01 -0.15741579437E-01  0.45033140186E-01  0.51100000000E-03 0.  1.
</event>
<event>
 8    1  0.1061722E+005  0.1043930E+01  0.7957747E-01            NaN
         13   -1    0    0    0    0  0.00000000000E+00  0.00000000000E+00  0.74505805969E-08  0.10566000000E+00  0.10566000000E+00 0. -1.
     999900   -1    0    0    0    0 -0.00000000000E+00 -0.00000000000E+00 -0.74505805969E-08  0.93827000000E+00  0.93827000000E+00 0.  1.
     999902    2    1    2    0    0  0.86108830558E-02 -0.12319365938E-01  0.18580919875E-01  0.10200309484E+01  0.10197509358E+01 0.  0.
     999903    2    3    3    0    0  0.66137578609E-01  0.90934153663E-01 -0.59266374198E-01  0.12872246577E+00  0.20341348932E-01 0.  0.
         14    1    1    2    0    0 -0.86108830558E-02  0.12319365938E-01 -0.18580919875E-01  0.23899051603E-01  0.00000000000E+00 0.  1.
     999901    1    3    3    0    0 -0.57526695553E-01 -0.10325351960E+00  0.77847294073E-01  0.89130848263E+00  0.88000000000E+00 0. -1.
        -11    1    4    4    0    0  0.45030330383E-01  0.71097482626E-01 -0.51734612719E-01  0.98789240124E-01  0.51100000000E-03 0. -1.
         11    1    4    4    0    0  0.21107248226E-01  0.19836671037E-01 -0.75317614788E-02  0.29933225645E-01  0.51100000000E-03 0.  1.
</event>
<event>
 8    1  0.1061722E+005  0.1043930E+01  0.7957747E-01            NaN
         13   -1    0    0    0    0  0.00000000000E+00  0.00000000000E+00  0.74505805969E-08  0.10566000000E+00  0.10566000000E+00 0. -1.
     999900   -1    0    0    0    0 -0.00000000000E+00 -0.00000000000E+00 -0.74505805969E-08  0.93827000000E+00  0.93827000000E+00 0.  1.
     999902    2    1    2    0    0  0.18275455307E-01 -0.10226977625E-01  0.10810318641E-01  0.10203620912E+01  0.10200898739E+01 0.  0.
     999903    2    3    3    0    0 -0.90525817185E-01 -0.89878407150E-01 -0.12888300914E-01  0.12977594053E+00  0.20065761672E-01 0.  0.
         14    1    1    2    0    0 -0.18275455307E-01  0.10226977625E-01 -0.10810318641E-01  0.23567908841E-01  0.00000000000E+00 0.  1.
     999901    1    3    3    0    0  0.10880127249E+00  0.79651429525E-01  0.23698619555E-01  0.89058615063E+00  0.88000000000E+00 0.  1.
        -11    1    4    4    0    0 -0.46364267367E-01 -0.58408202898E-01 -0.28818617464E-02  0.74630621747E-01  0.51100000000E-03 0. -1.
         11    1    4    4    0    0 -0.44161549818E-01 -0.31470204252E-01 -0.10006439168E-01  0.55145318784E-01  0.51100000000E-03 0.  1.
</event>
<event>
 8    1  0.1061722E+005  0.1043930E+01  0.7957747E-01            NaN
         13   -1    0    0    0    0  0.00000000000E+00  0.00000000000E+00  0.74505805969E-08  0.10566000000E+00  0.10566000000E+00 0. -1.
     999900   -1    0    0    0    0 -0.00000000000E+00 -0.00000000000E+00 -0.74505805969E-08  0.93827000000E+00  0.93827000000E+00 0. -1.
     999902    2    1    2    0    0 -0.20767695077E-01 -0.60946820138E-02  0.84277690371E-02  0.10207035151E+01  0.10204392173E+01 0.  0.
     999903    2    3    3    0    0  0.14941173828E-01  0.17291138884E-01  0.12795700234E+00  0.13159763981E+00  0.20560209073E-01 0.  0.
         14    1    1    2    0    0  0.20767695077E-01  0.60946820138E-02 -0.84277690371E-02  0.23226484853E-01  0.00000000000E+00 0.  1.
     999901    1    3    3    0    0 -0.35708868906E-01 -0.23385820898E-01 -0.11952923330E+00  0.88910587533E+00  0.88000000000E+00 0. -1.
        -11    1    4    4    0    0  0.11107291395E-01  0.15695132096E-01  0.50677885348E-01  0.54205334406E-01  0.51100000000E-03 0. -1.
         11    1    4    4    0    0  0.38338824330E-02  0.15960067879E-02  0.77279116993E-01  0.77392305408E-01  0.51100000000E-03 0.  1.
</event>
<event>
 8    1  0.1061722E+005  0.1043930E+01  0.7957747E-01            NaN
         13   -1    0    0    0    0  0.00000000000E+00  0.00000000000E+00  0.74505805969E-08  0.10566000000E+00  0.10566000000E+00 0. -1.
     999900   -1    0    0    0    0 -0.00000000000E+00 -0.00000000000E+00 -0.74505805969E-08  0.93827000000E+00  0.93827000000E+00 0.  1.
     999902    2    1    2    0    0 -0.64629598305E-02  0.21763071507E-01  0.14235883106E-02  0.10211829621E+01  0.10209295834E+01 0.  0.
     999903    2    3    3    0    0  0.17591176933E-01  0.11218819178E+00 -0.68322039382E-01  0.13347819332E+00  0.15902425768E-01 0.  0.
         14    1    1    2    0    0  0.64629598305E-02 -0.21763071507E-01 -0.14235883106E-02  0.22747037936E-01  0.00000000000E+00 0.  1.
     999901    1    3    3    0    0 -0.24054136764E-01 -0.90425120274E-01  0.69745627692E-01  0.88770476875E+00  0.88000000000E+00 0. -1.
        -11    1    4    4    0    0  0.12987513843E-01  0.49758503199E-01 -0.23855627651E-01  0.56691588865E-01  0.51100000000E-03 0. -1.
         11    1    4    4    0    0  0.46036630903E-02  0.62429688582E-01 -0.44466411730E-01  0.76786604453E-01  0.51100000000E-03 0.  1.
</event>
<event>
 8    1  0.1061722E+005  0.1043930E+01  0.7957747E-01            NaN
         13   -1    0    0    0    0  0.00000000000E+00  0.00000000000E+00  0.74505805969E-08  0.10566000000E+00  0.10566000000E+00 0.  1.
     999900   -1    0    0    0    0 -0.00000000000E+00 -0.00000000000E+00 -0.74505805969E-08  0.93827000000E+00  0.93827000000E+00 0. -1.
     999902    2    1    2    0    0  0.97799132678E-03 -0.21579720922E-01 -0.15091475325E-01  0.10175786537E+01  0.10172373976E+01 0.  0.
     999903    2    3    3    0    0 -0.30473445564E-01  0.21921810510E-01  0.11852306118E+00  0.12587555266E+00  0.19691167165E-01 0.  0.
         14    1    1    2    0    0 -0.97799132678E-03  0.21579720922E-01  0.15091475325E-01  0.26351346258E-01  0.00000000000E+00 0.  1.
     999901    1    3    3    0    0  0.31451436891E-01 -0.43501531432E-01 -0.13361453651E+00  0.89170310109E+00  0.88000000000E+00 0. -1.
        -11    1    4    4    0    0 -0.57444641312E-03  0.99642439381E-02  0.23267282062E-01  0.25322789766E-01  0.51100000000E-03 0. -1.
         11    1    4    4    0    0 -0.29898999151E-01  0.11957566572E-01  0.95255779118E-01  0.10055276289E+00  0.51100000000E-03 0.  1.
</event>
<event>
 8    1  0.1061722E+005  0.1043930E+01  0.7957747E-01            NaN
         13   -1    0    0    0    0  0.00000000000E+00  0.00000000000E+00  0.74505805969E-08  0.10566000000E+00  0.10566000000E+00 0.  1.
     999900   -1    0    0    0    0 -0.00000000000E+00 -0.00000000000E+00 -0.74505805969E-08  0.93827000000E+00  0.93827000000E+00 0.  1.
     999902    2    1    2    0    0 -0.21226249526E-01 -0.12817184384E-01 -0.63496239811E-02  0.10183340705E+01  0.10180123415E+01 0.  0.
     999903    2    3    3    0    0 -0.10347934411E+00 -0.39696185059E-01  0.66987173071E-01  0.13105376635E+00  0.20100909287E-01 0.  0.
         14    1    1    2    0    0  0.21226249526E-01  0.12817184384E-01  0.63496239811E-02  0.25595929543E-01  0.00000000000E+00 0.  1.
     999901    1    3    3    0    0  0.82253094584E-01  0.26879000676E-01 -0.73336797052E-01  0.88728030410E+00  0.88000000000E+00 0.  1.
        -11    1    4    4    0    0 -0.83560510490E-01 -0.35321360208E-01  0.62501283329E-01  0.11016636937E+00  0.51100000000E-03 0.  1.
         11    1    4    4    0    0 -0.19918833619E-01 -0.43748248510E-02  0.44858897424E-02  0.20887396990E-01  0.51100000000E-03 0. -1.
</event>
<event>
 8    1  0.1061722E+005  0.1043930E+01  0.7957747E-01            NaN
         13   -1    0    0    0    0  0.00000000000E+00  0.00000000000E+00  0.74505805969E-08  0.10566000000E+00  0.10566000000E+00 0. -1.
     999900   -1    0    0    0    0 -0.00000000000E+00 -0.00000000000E+00 -0.74505805969E-08  0.93827000000E+00  0.93827000000E+00 0.  1.
     999902    2    1    2    0    0  0.82779558275E-02 -0.16871730006E-01 -0.14950302820E-01  0.10199156006E+01  0.10196328461E+01 0.  0.
     999903    2    3    3    0    0  0.59560030196E-01 -0.46716606618E-01  0.10389320488E+00  0.12994686676E+00  0.19040788623E-01 0.  0.
         14    1    1    2    0    0 -0.82779558275E-02  0.16871730006E-01  0.14950302820E-01  0.24014399441E-01  0.00000000000E+00 0. -1.
     999901    1    3    3    0    0 -0.51282074369E-01  0.29844876612E-01 -0.11884350770E+00  0.88996873380E+00  0.88000000000E+00 0.  1.
        -11    1    4    4    0    0  0.49964436890E-01 -0.38323090751E-01  0.96416867524E-01  0.11515892368E+00  0.51100000000E-03 0.  1.
         11    1    4    4    0    0  0.95955933065E-02 -0.83935158673E-02  0.74763373521E-02  0.14787943086E-01  0.51100000000E-03 0. -1.
</event>
<event>
 8    1  0.1061722E+005  0.1043930E+01  0.7957747E-01            NaN
         13   -1    0    0    0    0  0.00000000000E+00  0.00000000000E+00  0.74505805969E-08  0.10566000000E+00  0.10566000000E+00 0.  1.
     999900   -1    0    0    0    0 -0.00000000000E+00 -0.00000000000E+00 -0.74505805969E-08  0.93827000000E+00  0.93827000000E+00 0.  1.
     999902    2    1    2    0    0 -0.20160202689E-01  0.11394651414E-02  0.42754859050E-02  0.10232899435E+01  0.10230817643E+01 0.  0.
     999903    2    3    3    0    0  0.11127716648E+00  0.65777890925E-01 -0.74214022531E-02  0.13110682030E+00  0.20605397434E-01 0.  0.
         14    1    1    2    0    0  0.20160202689E-01 -0.11394651414E-02 -0.42754859050E-02  0.20640056517E-01  0.00000000000E+00 0. -1.
     999901    1    3    3    0    0 -0.13143736917E+00 -0.64638425783E-01  0.11696888158E-01  0.89218312318E+00  0.88000000000E+00 0. -1.
        -11    1    4    4    0    0  0.26393098520E-01  0.60462907027E-02 -0.61147274912E-03  0.27088527104E-01  0.51100000000E-03 0. -1.
         11    1    4    4    0    0  0.84884067960E-01  0.59731600222E-01 -0.68099295040E-02  0.10401829320E+00  0.51100000000E-03 0.  1.
</event>
<event>
 8    1  0.1061722E+005  0.1043930E+01  0.7957747E-01            NaN
         13   -1    0    0    0    0  0.00000000000E+00  0.00000000000E+00  0.74505805969E-08  0.10566000000E+00  0.10566000000E+00 0. -1.
     999900   -1    0    0    0    0 -0.00000000000E+00 -0.00000000000E+00 -0.74505805969E-08  0.93827000000E+00  0.93827000000E+00 0. -1.
     999902    2    1    2    0    0  0.16220461501E-01 -0.15108219273E-01  0.75544523824E-02  0.10205113875E+01  0.10202426479E+01 0.  0.
     999903    2    3    3    0    0  0.66930271214E-01  0.10394291763E+00  0.36162869489E-01  0.13058830119E+00  0.21488600418E-01 0.  0.
         14    1    1    2    0    0 -0.16220461501E-01  0.15108219273E-01 -0.75544523824E-02  0.23418612506E-01  0.00000000000E+00 0. -1.
     999901    1    3    3    0    0 -0.50709809713E-01 -0.11905113691E+00 -0.28608417106E-01  0.88992308630E+00  0.88000000000E+00 0.  1.
        -11    1    4    4    0    0  0.46441700492E-01  0.76783759011E-01  0.35651051732E-01  0.96560011408E-01  0.51100000000E-03 0. -1.
         11    1    4    4    0    0  0.20488570722E-01  0.27159158624E-01  0.51181775691E-03  0.34028289787E-01  0.51100000000E-03 0.  1.
</event>
<event>
 8    1  0.1061722E+005  0.1043930E+01  0.7957747E-01            NaN
         13   -1    0    0    0    0  0.00000000000E+00  0.00000000000E+00  0.74505805969E-08  0.10566000000E+00  0.10566000000E+00 0.  1.
     999900   -1    0    0    0    0 -0.00000000000E+00 -0.00000000000E+00 -0.74505805969E-08  0.93827000000E+00  0.93827000000E+00 0.  1.
     999902    2    1    2    0    0 -0.90118400265E-02  0.66074328598E-02 -0.20955603296E-01  0.10201811318E+01  0.10199046686E+01 0.  0.
     999903    2    3    3    0    0  0.74914066549E-01 -0.79280107037E-01  0.61992375649E-01  0.12816061945E+00  0.26165568986E-01 0.  0.
         14    1    1    2    0    0  0.90118400265E-02 -0.66074328598E-02  0.20955603296E-01  0.23748868166E-01  0.00000000000E+00 0.  1.
     999901    1    3    3    0    0 -0.83925906576E-01  0.85887539897E-01 -0.82947978945E-01  0.89202051238E+00  0.88000000000E+00 0.  1.
        -11    1    4    4    0    0  0.89850535514E-02 -0.15953028336E-01  0.11609817498E-02  0.18353182286E-01  0.51100000000E-03 0.  1.
         11    1    4    4    0    0  0.65929012998E-01 -0.63327078701E-01  0.60831393899E-01  0.10980743716E+00  0.51100000000E-03 0. -1.
</event>
<event>
 8    1  0.1061722E+005  0.1043930E+01  0.7957747E-01            NaN
         13   -1    0    0    0    0  0.00000000000E+00  0.00000000000E+00  0.74505805969E-08  0.10566000000E+00  0.10566000000E+00 0.  1.
     999900   -1    0    0    0    0 -0.00000000000E+00 -0.00000000000E+00 -0.74505805969E-08  0.93827000000E+00  0.93827000000E+00 0. -1.
     999902    2    1    2    0    0 -0.21298627377E-01  0.51416364903E-02  0.77600278703E-02  0.10206859473E+01  0.10204212449E+01 0.  0.
     999903    2    3    3    0    0  0.74656339630E-01 -0.78669368167E-01  0.67965206489E-01  0.12947536402E+00  0.19548965714E-01 0.  0.
         14    1    1    2    0    0  0.21298627377E-01 -0.51416364903E-02 -0.77600278703E-02  0.23244052712E-01  0.00000000000E+00 0.  1.
     999901    1    3    3    0    0 -0.95954967007E-01  0.83811004657E-01 -0.60205178618E-01  0.89121058327E+00  0.88000000000E+00 0. -1.
        -11    1    4    4    0    0  0.44853491124E-01 -0.33483911679E-01  0.31854657273E-01  0.64404878063E-01  0.51100000000E-03 0. -1.
         11    1    4    4    0    0  0.29802848506E-01 -0.45185456488E-01  0.36110549216E-01  0.65070485957E-01  0.51100000000E-03 0.  1.
</event>
<event>
 8    1  0.1061722E+005  0.1043930E+01  0.7957747E-01            NaN
         13   -1    0    0    0    0  0.00000000000E+00  0.00000000000E+00  0.74505805969E-08  0.10566000000E+00  0.10566000000E+00 0.  1.
     999900   -1    0    0    0    0 -0.00000000000E+00 -0.00000000000E+00 -0.74505805969E-08  0.93827000000E+00  0.93827000000E+00 0. -1.
     999902    2    1    2    0    0 -0.19386388163E-01 -0.27460753965E-02  0.88840427659E-02  0.10224288560E+01  0.10222027521E+01 0.  0.
     999903    2    3    3    0    0 -0.16159736055E-01 -0.13010170951E+00  0.12056582429E-01  0.13324949627E+00  0.20554201209E-01 0.  0.
         14    1    1    2    0    0  0.19386388163E-01  0.27460753965E-02 -0.88840427659E-02  0.21501143969E-01  0.00000000000E+00 0. -1.
     999901    1    3    3    0    0 -0.32266521082E-02  0.12735563412E+00 -0.31725396635E-02  0.88917935977E+00  0.88000000000E+00 0.  1.
        -11    1    4    4    0    0 -0.13791938548E-01 -0.73648372115E-01 -0.22392906590E-02  0.74963830130E-01  0.51100000000E-03 0. -1.
         11    1    4    4    0    0 -0.23677975071E-02 -0.56453337399E-01  0.14295873088E-01  0.58285666136E-01  0.51100000000E-03 0.  1.
</event>
<event>
 8    1  0.1061722E+005  0.1043930E+01  0.7957747E-01            NaN
         13   -1    0    0    0    0  0.00000000000E+00  0.00000000000E+00  0.74505805969E-08  0.10566000000E+00  0.10566000000E+00 0.  1.
     999900   -1    0    0    0    0 -0.00000000000E+00 -0.00000000000E+00 -0.74505805969E-08  0.93827000000E+00  0.93827000000E+00 0.  1.
     999902    2    1    2    0    0 -0.22839222114E-01  0.27112238160E-02 -0.49831103257E-02  0.10203967854E+01  0.10201253783E+01 0.  0.
     999903    2    3    3    0    0  0.11796064933E-01  0.86916576686E-01 -0.96424597098E-01  0.13098591854E+00  0.12882914297E-01 0.  0.
         14    1    1    2    0    0  0.22839222114E-01 -0.27112238160E-02  0.49831103257E-02  0.23533214609E-01  0.00000000000E+00 0.  1.
     999901    1    3    3    0    0 -0.34635287046E-01 -0.84205352870E-01  0.91441486772E-01  0.88941086685E+00  0.88000000000E+00 0. -1.
        -11    1    4    4    0    0  0.10523920994E-01  0.36221092216E-01 -0.36624182434E-01  0.52576727688E-01  0.51100000000E-03 0. -1.
         11    1    4    4    0    0  0.12721439393E-02  0.50695484470E-01 -0.59800414664E-01  0.78409190856E-01  0.51100000000E-03 0.  1.
</event>
<event>
 8    1  0.1061722E+005  0.1043930E+01  0.7957747E-01            NaN
         13   -1    0    0    0    0  0.00000000000E+00  0.00000000000E+00  0.74505805969E-08  0.10566000000E+00  0.10566000000E+00 0.  1.
     999900   -1    0    0    0    0 -0.00000000000E+00 -0.00000000000E+00 -0.74505805969E-08  0.93827000000E+00  0.93827000000E+00 0.  1.
     999902    2    1    2    0    0  0.23522239680E-01  0.43410538109E-02  0.48805270120E-02  0.10195177070E+01  0.10192253896E+01 0.  0.
     999903    2    3    3    0    0 -0.22233718966E-01 -0.12034686160E+00  0.35366209824E-01  0.12902904287E+00  0.20494383427E-01 0.  0.
         14    1    1    2    0    0 -0.23522239680E-01 -0.43410538109E-02 -0.48805270120E-02  0.24412293044E-01  0.00000000000E+00 0. -1.
     999901    1    3    3    0    0  0.45755958647E-01  0.12468791541E+00 -0.30485682812E-01  0.89048866408E+00  0.88000000000E+00 0.  1.
        -11    1    4    4    0    0 -0.10555532135E-02 -0.36801621171E-01  0.29238436097E-02  0.36936208466E-01  0.51100000000E-03 0. -1.
         11    1    4    4    0    0 -0.21178165753E-01 -0.83545240428E-01  0.32442366214E-01  0.92092834408E-01  0.51100000000E-03 0.  1.
</event>
<event>
 8    1  0.1061722E+005  0.1043930E+01  0.7957747E-01            NaN
         13   -1    0    0    0    0  0.00000000000E+00  0.00000000000E+00  0.74505805969E-08  0.10566000000E+00  0.10566000000E+00 0.  1.
     999900   -1    0    0    0    0 -0.00000000000E+00 -0.00000000000E+00 -0.74505805969E-08  0.93827000000E+00  0.93827000000E+00 0. -1.
     999902    2    1    2    0    0 -0.20538885536E-01  0.42043194557E-02 -0.11294473889E-01  0.10201164060E+01  0.10198384158E+01 0.  0.
     999903    2    3    3    0    0 -0.12964752740E-01 -0.11436807247E+00  0.54726762626E-01  0.12968079161E+00  0.23957219185E-01 0.  0.
         14    1    1    2    0    0  0.20538885536E-01 -0.42043194557E-02  0.11294473889E-01  0.23813594050E-01  0.00000000000E+00 0.  1.
     999901    1    3    3    0    0 -0.75741327956E-02  0.11857239193E+00 -0.66021236515E-01  0.89043561434E+00  0.88000000000E+00 0. -1.
        -11    1    4    4    0    0  0.23809953181E-02 -0.68847728031E-01  0.25559085972E-01  0.73479294978E-01  0.51100000000E-03 0. -1.
         11    1    4    4    0    0 -0.15345748058E-01 -0.45520344438E-01  0.29167676654E-01  0.56201496632E-01  0.51100000000E-03 0.  1.
</event>
<event>
 8    1  0.1061722E+005  0.1043930E+01  0.7957747E-01            NaN
         13   -1    0    0    0    0  0.00000000000E+00  0.00000000000E+00  0.74505805969E-08  0.10566000000E+00  0.10566000000E+00 0.  1.
     999900   -1    0    0    0    0 -0.00000000000E+00 -0.00000000000E+00 -0.74505805969E-08  0.93827000000E+00  0.93827000000E+00 0.  1.
     999902    2    1    2    0    0  0.60472320725E-03  0.10089751157E-01  0.21116424587E-01  0.10205190591E+01  0.10202504975E+01 0.  0.
     999903    2    3    3    0    0  0.26642726675E-02  0.12445889579E+00 -0.36404062248E-01  0.13125354786E+00  0.20127667246E-01 0.  0.
         14    1    1    2    0    0 -0.60472320725E-03 -0.10089751157E-01 -0.21116424587E-01  0.23410940944E-01  0.00000000000E+00 0. -1.
     999901    1    3    3    0    0 -0.20595494603E-02 -0.11436914463E+00  0.57520486834E-01  0.88926551119E+00  0.88000000000E+00 0.  1.
        -11    1    4    4    0    0 -0.43113445163E-02  0.21718626792E-01 -0.12885819145E-01  0.25624049198E-01  0.51100000000E-03 0.  1.
         11    1    4    4    0    0  0.69756171838E-02  0.10274026900E+00 -0.23518243103E-01  0.10562949867E+00  0.51100000000E-03 0. -1.
</event>
<event>
 8    1  0.1061722E+005  0.1043930E+01  0.7957747E-01            NaN
         13   -1    0    0    0    0  0.00000000000E+00  0.00000000000E+00  0.74505805969E-08  0.10566000000E+00  0.10566000000E+00 0. -1.
     999900   -1    0    0    0    0 -0.00000000000E+00 -0.00000000000E+00 -0.74505805969E-08  0.93827000000E+00  0.93827000000E+00 0.  1.
     999902    2    1    2    0    0 -0.13088964519E-02  0.23111394061E-01  0.64927286777E-02  0.10198882598E+01  0.10196048535E+01 0.  0.
     999903    2    3    3    0    0 -0.95574596699E-01 -0.78294794391E-01 -0.11843168895E-01  0.12887454363E+00  0.34695950517E-01 0.  0.
         14    1    1    2    0    0  0.13088964519E-02 -0.23111394061E-01 -0.64927286777E-02  0.24041740184E-01  0.00000000000E+00 0.  1.
     999901    1    3    3    0    0  0.94265700247E-01  0.10140618845E+00  0.18335897573E-01  0.89101371619E+00  0.88000000000E+00 0.  1.
        -11    1    4    4    0    0 -0.21881311550E-01 -0.16903541936E-01  0.11832730535E-01  0.30079829754E-01  0.51100000000E-03 0. -1.
         11    1    4    4    0    0 -0.73693285150E-01 -0.61391252455E-01 -0.23675899430E-01  0.98794713872E-01  0.51100000000E-03 0.  1.
</event>
<event>
 8    1  0.1061722E+005  0.1043930E+01  0.7957747E-01            NaN
         13   -1    0    0    0    0  0.00000000000E+00  0.00000000000E+00  0.74505805969E-08  0.10566000000E+00  0.10566000000E+00 0. -1.
     999900   -1    0    0    0    0 -0.00000000000E+00 -0.00000000000E+00 -0.74505805969E-08  0.93827000000E+00  0.93827000000E+00 0.  1.
     999902    2    1    2    0    0 -0.15186511152E-01 -0.16664462440E-01 -0.97227849756E-02  0.10193766504E+01  0.10190809037E+01 0.  0.
     999903    2    3    3    0    0  0.71008773675E-01  0.84080439025E-01 -0.62012175457E-01  0.12790968933E+00  0.20090110876E-01 0.  0.
         14    1    1    2    0    0  0.15186511152E-01  0.16664462440E-01  0.97227849756E-02  0.24553349610E-01  0.00000000000E+00 0.  1.
     999901    1    3    3    0    0 -0.86195284827E-01 -0.10074490147E+00  0.52289390481E-01  0.89146696106E+00  0.88000000000E+00 0. -1.
        -11    1    4    4    0    0  0.20697277153E-01  0.26280458925E-01 -0.29728119366E-01  0.44755580712E-01  0.51100000000E-03 0. -1.
         11    1    4    4    0    0  0.50311496523E-01  0.57799980100E-01 -0.32284056090E-01  0.83154108621E-01  0.51100000000E-03 0.  1.
</event>
<event>
 8    1  0.1061722E+005  0.1043930E+01  0.7957747E-01            NaN
         13   -1    0    0    0    0  0.00000000000E+00  0.00000000000E+00  0.74505805969E-08  0.10566000000E+00  0.10566000000E+00 0. -1.
     999900   -1    0    0    0    0 -0.00000000000E+00 -0.00000000000E+00 -0.74505805969E-08  0.93827000000E+00  0.93827000000E+00 0. -1.
     999902    2    1    2    0    0 -0.62471962215E-02 -0.50343985160E-02  0.26173421447E-01  0.10165544522E+01  0.10161857771E+01 0.  0.
     999903    2    3    3    0    0 -0.84848918662E-01  0.63281121663E-01 -0.65013682590E-01  0.12573442039E+00  0.19455749537E-01 0.  0.
         14    1    1    2    0    0  0.62471962215E-02  0.50343985160E-02 -0.26173421447E-01  0.27375547836E-01  0.00000000000E+00 0.  1.
     999901    1    3    3    0    0  0.78601722440E-01 -0.68315520179E-01  0.91187104037E-01  0.89082003177E+00  0.88000000000E+00 0.  1.
        -11    1    4    4    0    0 -0.33061929210E-01  0.36715537521E-01 -0.29216002292E-01  0.57401722705E-01  0.51100000000E-03 0. -1.
         11    1    4    4    0    0 -0.51786989452E-01  0.26565584141E-01 -0.35797680297E-01  0.68332697685E-01  0.51100000000E-03 0.  1.
</event>
<event>
 8    1  0.1061722E+005  0.1043930E+01  0.7957747E-01            NaN
         13   -1    0    0    0    0  0.00000000000E+00  0.00000000000E+00  0.74505805969E-08  0.10566000000E+00  0.10566000000E+00 0.  1.
     999900   -1    0    0    0    0 -0.00000000000E+00 -0.00000000000E+00 -0.74505805969E-08  0.93827000000E+00  0.93827000000E+00 0.  1.
     999902    2    1    2    0    0 -0.23040706824E-01 -0.13632873586E-02  0.43218547481E-03  0.10208449506E+01  0.10205838984E+01 0.  0.
     999903    2    3    3    0    0 -0.14791564202E-01  0.78958116405E-01 -0.10179679572E+00  0.13125496587E+00  0.20300343127E-01 0.  0.
         14    1    1    2    0    0  0.23040706824E-01  0.13632873586E-02 -0.43218547481E-03  0.23085049440E-01  0.00000000000E+00 0.  1.
     999901    1    3    3    0    0 -0.82491426217E-02 -0.80321403763E-01  0.10222898119E+00  0.88958998468E+00  0.88000000000E+00 0. -1.
        -11    1    4    4    0    0 -0.15735174991E-01  0.44439710030E-01 -0.47646298685E-01  0.67029206015E-01  0.51100000000E-03 0. -1.
         11    1    4    4    0    0  0.94361078909E-03  0.34518406375E-01 -0.54150497030E-01  0.64225759860E-01  0.51100000000E-03 0.  1.
</event>
<event>
 8    1  0.1061722E+005  0.1043930E+01  0.7957747E-01            NaN
         13   -1    0    0    0    0  0.00000000000E+00  0.00000000000E+00  0.74505805969E-08  0.10566000000E+00  0.10566000000E+00 0.  1.
     999900   -1    0    0    0    0 -0.00000000000E+00 -0.00000000000E+00 -0.74505805969E-08  0.93827000000E+00  0.93827000000E+00 0. -1.
     999902    2    1    2    0    0  0.46739521958E-02 -0.43850196576E-02  0.23451238596E-01  0.10196187923E+01  0.10193289199E+01 0.  0.
     999903    2    3    3    0    0  0.61932513861E-01 -0.24968586361E-01  0.11318998805E+00  0.13296481853E+00  0.20213930688E-01 0.  0.
         14    1    1    2    0    0 -0.46739521958E-02  0.43850196576E-02 -0.23451238596E-01  0.24311207666E-01  0.00000000000E+00 0. -1.
     999901    1    3    3    0    0 -0.57258561665E-01  0.20583566704E-01 -0.89738749458E-01  0.88665397380E+00  0.88000000000E+00 0. -1.
        -11    1    4    4    0    0  0.48421114069E-01 -0.26189189750E-01  0.99316191737E-01  0.11355370980E+00  0.51100000000E-03 0.  1.
         11    1    4    4    0    0  0.13511399791E-01  0.12206033884E-02  0.13873796317E-01  0.19411108732E-01  0.51100000000E-03 0. -1.
</event>
<event>
 8    1  0.1061722E+005  0.1043930E+01  0.7957747E-01            NaN
         13   -1    0    0    0    0  0.00000000000E+00  0.00000000000E+00  0.74505805969E-08  0.10566000000E+00  0.10566000000E+00 0. -1.
     999900   -1    0    0    0    0 -0.00000000000E+00 -0.00000000000E+00 -0.74505805969E-08  0.93827000000E+00  0.93827000000E+00 0. -1.
     999902    2    1    2    0    0 -0.11430134217E-01  0.10148507933E-01 -0.17433591181E-01  0.10207444380E+01  0.10204810814E+01 0.  0.
     999903    2    3    3    0    0 -0.55456029798E-01  0.89941084406E-01 -0.79918670554E-01  0.13383434120E+00  0.18970162821E-01 0.  0.
         14    1    1    2    0    0  0.11430134217E-01 -0.10148507933E-01  0.17433591181E-01  0.23185561951E-01  0.00000000000E+00 0. -1.
     999901    1    3    3    0    0  0.44025895581E-01 -0.79792576473E-01  0.62485079372E-01  0.88691009685E+00  0.88000000000E+00 0.  1.
        -11    1    4    4    0    0 -0.57891827015E-02  0.21796671957E-01 -0.11954941440E-01  0.25530203497E-01  0.51100000000E-03 0.  1.
         11    1    4    4    0    0 -0.49666847096E-01  0.68144412449E-01 -0.67963729114E-01  0.10830413771E+00  0.51100000000E-03 0. -1.
</event>
<event>
 8    1  0.1061722E+005  0.1043930E+01  0.7957747E-01            NaN
         13   -1    0    0    0    0  0.00000000000E+00  0.00000000000E+00  0.74505805969E-08  0.10566000000E+00  0.10566000000E+00 0.  1.
     999900   -1    0    0    0    0 -0.00000000000E+00 -0.00000000000E+00 -0.74505805969E-08  0.93827000000E+00  0.93827000000E+00 0.  1.
     999902    2    1    2    0    0  0.82606134309E-03 -0.14610792646E-01 -0.15925930775E-01  0.10223014792E+01  0.10220726596E+01 0.  0.
     999903    2    3    3    0    0 -0.54015504114E-01  0.10281284561E+00 -0.58905949130E-01  0.13177175481E+00  0.20142706251E-01 0.  0.
         14    1    1    2    0    0 -0.82606134309E-03  0.14610792646E-01  0.15925930775E-01  0.21628520757E-01  0.00000000000E+00 0. -1.
     999901    1    3    3    0    0  0.54841565457E-01 -0.11742363826E+00  0.42980018355E-01  0.89052972443E+00  0.88000000000E+00 0. -1.
        -11    1    4    4    0    0 -0.49716681055E-01  0.10100552495E+00 -0.58951540697E-01  0.12708032781E+00  0.51100000000E-03 0.  1.
         11    1    4    4    0    0 -0.42988230595E-02  0.18073206615E-02  0.45591566597E-04  0.46914269963E-02  0.51100000000E-03 0. -1.
</event>
<event>
 8    1  0.1061722E+005  0.1043930E+01  0.7957747E-01            NaN
         13   -1    0    0    0    0  0.00000000000E+00  0.00000000000E+00  0.74505805969E-08  0.10566000000E+00  0.10566000000E+00 0. -1.
     999900   -1    0    0    0    0 -0.00000000000E+00 -0.00000000000E+00 -0.74505805969E-08  0.93827000000E+00  0.93827000000E+00 0. -1.
     999902    2    1    2    0    0  0.78151737822E-02  0.45963476457E-02  0.20773050900E-01  0.10212645418E+01  0.10210129976E+01 0.  0.
     999903    2    3    3    0    0 -0.30948241209E-01 -0.10826459234E+00  0.66119318396E-01  0.13205338682E+00  0.19680373912E-01 0.  0.
         14    1    1    2    0    0 -0.78151737822E-02 -0.45963476457E-02 -0.20773050900E-01  0.22665458227E-01  0.00000000000E+00 0.  1.
     999901    1    3    3    0    0  0.38763414991E-01  0.11286093998E+00 -0.45346267496E-01  0.88921115495E+00  0.88000000000E+00 0. -1.
        -11    1    4    4    0    0 -0.19943127238E-01 -0.35773955922E-01  0.22390871415E-01  0.46681007810E-01  0.51100000000E-03 0.  1.
         11    1    4    4    0    0 -0.11005113970E-01 -0.72490636417E-01  0.43728446981E-01  0.85372379011E-01  0.51100000000E-03 0. -1.
</event>
<event>
 8    1  0.1061722E+005  0.1043930E+01  0.7957747E-01            NaN
         13   -1    0    0    0    0  0.00000000000E+00  0.00000000000E+00  0.74505805969E-08  0.10566000000E+00  0.10566000000E+00 0. -1.
     999900   -1    0    0    0    0 -0.00000000000E+00 -0.00000000000E+00 -0.74505805969E-08  0.93827000000E+00  0.93827000000E+00 0.  1.
     999902    2    1    2    0    0 -0.21765541641E-01 -0.46758260759E-02  0.69889118732E-02  0.10205966110E+01  0.10203298464E+01 0.  0.
     999903    2    3    3    0    0  0.68412796490E-01  0.61415086677E-01 -0.87566843945E-01  0.12849743919E+00  0.19786766382E-01 0.  0.
         14    1    1    2    0    0  0.21765541641E-01  0.46758260759E-02 -0.69889118732E-02  0.23333388986E-01  0.00000000000E+00 0. -1.
     999901    1    3    3    0    0 -0.90178338130E-01 -0.66090912753E-01  0.94555755818E-01  0.89209917183E+00  0.88000000000E+00 0. -1.
        -11    1    4    4    0    0  0.29766143334E-01  0.15459019047E-01 -0.25496431604E-01  0.42134709023E-01  0.51100000000E-03 0.  1.
         11    1    4    4    0    0  0.38646653155E-01  0.45956067630E-01 -0.62070412341E-01  0.86362730164E-01  0.51100000000E-03 0. -1.
</event>
<event>
 8    1  0.1061722E+005  0.1043930E+01  0.7957747E-01            NaN
         13   -1    0    0    0    0  0.00000000000E+00  0.00000000000E+00  0.74505805969E-08  0.10566000000E+00  0.10566000000E+00 0.  1.
     999900   -1    0    0    0    0 -0.00000000000E+00 -0.00000000000E+00 -0.74505805969E-08  0.93827000000E+00  0.93827000000E+00 0.  1.
     999902    2    1    2    0    0 -0.77673410613E-02  0.99039805769E-02 -0.19511686071E-01  0.10207109063E+01  0.10204467786E+01 0.  0.
     999903    2    3    3    0    0 -0.85191276454E-01 -0.14753242209E-01 -0.99229866346E-01  0.13337927007E+00  0.21639121278E-01 0.  0.
         14    1    1    2    0    0  0.77673410613E-02 -0.99039805769E-02  0.19511686071E-01  0.23219093690E-01  0.00000000000E+00 0. -1.
     999901    1    3    3    0    0  0.77423935392E-01  0.24657222786E-01  0.79718180275E-01  0.88733163624E+00  0.88000000000E+00 0. -1.
        -11    1    4    4    0    0 -0.53151283532E-01  0.14422586719E-02 -0.57064131758E-01  0.77998175014E-01  0.51100000000E-03 0.  1.
         11    1    4    4    0    0 -0.32039992922E-01 -0.16195500881E-01 -0.42165734588E-01  0.55381095056E-01  0.51100000000E-03 0. -1.
</event>
<event>
 8    1  0.1061722E+005  0.1043930E+01  0.7957747E-01            NaN
         13   -1    0    0    0    0  0.00000000000E+00  0.00000000000E+00  0.74505805969E-08  0.10566000000E+00  0.10566000000E+00 0. -1.
     999900   -1    0    0    0    0 -0.00000000000E+00 -0.00000000000E+00 -0.74505805969E-08  0.93827000000E+00  0.93827000000E+00 0.  1.
     999902    2    1    2    0    0  0.75935501789E-02  0.13904654974E-01  0.15531773256E-01  0.10217435759E+01  0.10215026664E+01 0.  0.
     999903    2    3    3    0    0 -0.22952540147E-01  0.12291125474E+00 -0.39443210086E-01  0.13279039871E+00  0.21060093220E-01 0.  0.
         14    1    1    2    0    0 -0.75935501789E-02 -0.13904654974E-01 -0.15531773256E-01  0.22186424108E-01  0.00000000000E+00 0.  1.
     999901    1    3    3    0    0  0.30546090326E-01 -0.10900659977E+00  0.54974983342E-01  0.88895317718E+00  0.88000000000E+00 0. -1.
        -11    1    4    4    0    0  0.14369394826E-02  0.46725454999E-01 -0.16364208108E-01  0.49531619880E-01  0.51100000000E-03 0.  1.
         11    1    4    4    0    0 -0.24389479630E-01  0.76185799742E-01 -0.23079001978E-01  0.83258778830E-01  0.51100000000E-03 0. -1.
</event>
<event>
 8    1  0.1061722E+005  0.1043930E+01  0.7957747E-01            NaN
         13   -1    0    0    0    0  0.00000000000E+00  0.00000000000E+00  0.74505805969E-08  0.10566000000E+00  0.10566000000E+00 0.  1.
     999900   -1    0    0    0    0 -0.00000000000E+00 -0.00000000000E+00 -0.74505805969E-08  0.93827000000E+00  0.93827000000E+00 0.  1.
     999902    2    1    2    0    0  0.15364921071E-01 -0.24404288244E-01 -0.92554447637E-02  0.10136428188E+01  0.10131902343E+01 0.  0.
     999903    2    3    3    0    0  0.10320796203E+00 -0.10427133714E-01  0.68312289298E-01  0.12576415931E+00  0.19734395199E-01 0.  0.
         14    1    1    2    0    0 -0.15364921071E-01  0.24404288244E-01  0.92554447637E-02  0.30287181150E-01  0.00000000000E+00 0.  1.
     999901    1    3    3    0    0 -0.87843040962E-01 -0.13977154531E-01 -0.77567734062E-01  0.88787865954E+00  0.88000000000E+00 0.  1.
        -11    1    4    4    0    0  0.44585103581E-01 -0.79856630870E-03  0.40193348593E-01  0.60035285971E-01  0.51100000000E-03 0.  1.
         11    1    4    4    0    0  0.58622858452E-01 -0.96285674052E-02  0.28118940705E-01  0.65728873342E-01  0.51100000000E-03 0. -1.
</event>
<event>
 8    1  0.1061722E+005  0.1043930E+01  0.7957747E-01            NaN
         13   -1    0    0    0    0  0.00000000000E+00  0.00000000000E+00  0.74505805969E-08  0.10566000000E+00  0.10566000000E+00 0. -1.
     999900   -1    0    0    0    0 -0.00000000000E+00 -0.00000000000E+00 -0.74505805969E-08  0.93827000000E+00  0.93827000000E+00 0.  1.
     999902    2    1    2    0    0 -0.64454288464E-02 -0.12133450023E-01 -0.17763619071E-01  0.10214731453E+01  0.10212262610E+01 0.  0.
     999903    2    3    3    0    0  0.32071830308E-01  0.68066735352E-01  0.10223306209E+00  0.12888429675E+00  0.22313229351E-01 0.  0.
         14    1    1    2    0    0  0.64454288464E-02  0.12133450023E-01  0.17763619071E-01  0.22456854743E-01  0.00000000000E+00 0.  1.
     999901    1    3    3    0    0 -0.38517259154E-01 -0.80200185375E-01 -0.11999668116E+00  0.89258884851E+00  0.88000000000E+00 0. -1.
        -11    1    4    4    0    0  0.12214710934E-01  0.20730215801E-01  0.17288556188E-01  0.29632689828E-01  0.51100000000E-03 0.  1.
         11    1    4    4    0    0  0.19857119374E-01  0.47336519551E-01  0.84944505901E-01  0.99251606923E-01  0.51100000000E-03 0. -1.
</event>
<event>
 8    1  0.1061722E+005  0.1043930E+01  0.7957747E-01            NaN
         13   -1    0    0    0    0  0.00000000000E+00  0.00000000000E+00  0.74505805969E-08  0.10566000000E+00  0.10566000000E+00 0. -1.
     999900   -1    0    0    0    0 -0.00000000000E+00 -0.00000000000E+00 -0.74505805969E-08  0.93827000000E+00  0.93827000000E+00 0.  1.
     999902    2    1    2    0    0 -0.19059885766E-01 -0.10302432767E-01  0.10349087482E-01  0.10199191071E+01  0.10196364362E+01 0.  0.
     999903    2    3    3    0    0  0.59766933432E-01 -0.94537903077E-01 -0.62481836049E-01  0.12940598237E+00  0.18232580382E-01 0.  0.
         14    1    1    2    0    0  0.19059885766E-01  0.10302432767E-01 -0.10349087482E-01  0.24010892904E-01  0.00000000000E+00 0.  1.
     999901    1    3    3    0    0 -0.78826819198E-01  0.84235470310E-01  0.72830923531E-01  0.89051312472E+00  0.88000000000E+00 0.  1.
        -11    1    4    4    0    0  0.36065390870E-01 -0.70033861706E-01 -0.48808365973E-01  0.92671311170E-01  0.51100000000E-03 0. -1.
         11    1    4    4    0    0  0.23701542562E-01 -0.24504041371E-01 -0.13673470076E-01  0.36734671201E-01  0.51100000000E-03 0.  1.
</event>
<event>
 8    1  0.1061722E+005  0.1043930E+01  0.7957747E-01            NaN
         13   -1    0    0    0    0  0.00000000000E+00  0.00000000000E+00  0.74505805969E-08  0.10566000000E+00  0.10566000000E+00 0. -1.
     999900   -1    0    0    0    0 -0.00000000000E+00 -0.00000000000E+00 -0.74505805969E-08  0.93827000000E+00  0.93827000000E+00 0. -1.
     999902    2    1    2    0    0 -0.16133928643E-01  0.18209520682E-01  0.24563257503E-03  0.10195999644E+01  0.10193096373E+01 0.  0.
     999903    2    3    3    0    0 -0.67258419889E-01  0.19111572794E-01  0.10942997500E+00  0.13137941300E+00  0.19916914147E-01 0.  0.
         14    1    1    2    0    0  0.16133928643E-01 -0.18209520682E-01 -0.24563257503E-03  0.24330035600E-01  0.00000000000E+00 0.  1.
     999901    1    3    3    0    0  0.51124491246E-01 -0.90205211113E-03 -0.10918434243E+00  0.88822055140E+00  0.88000000000E+00 0. -1.
        -11    1    4    4    0    0 -0.37422279917E-01  0.14768588666E-02  0.65115143098E-01  0.75118913251E-01  0.51100000000E-03 0.  1.
         11    1    4    4    0    0 -0.29836139972E-01  0.17634713927E-01  0.44314831907E-01  0.56260499746E-01  0.51100000000E-03 0. -1.
</event>
<event>
 8    1  0.1061722E+005  0.1043930E+01  0.7957747E-01            NaN
         13   -1    0    0    0    0  0.00000000000E+00  0.00000000000E+00  0.74505805969E-08  0.10566000000E+00  0.10566000000E+00 0.  1.
     999900   -1    0    0    0    0 -0.00000000000E+00 -0.00000000000E+00 -0.74505805969E-08  0.93827000000E+00  0.93827000000E+00 0.  1.
     999902    2    1    2    0    0 -0.16737588318E-01 -0.16476371327E-01 -0.77432747246E-03  0.10204306967E+01  0.10201600803E+01 0.  0.
     999903    2    3    3    0    0 -0.93070335205E-01  0.52810602504E-01  0.73240460466E-01  0.13132689966E+00  0.20773600879E-01 0.  0.
         14    1    1    2    0    0  0.16737588318E-01  0.16476371327E-01  0.77432747246E-03  0.23499303347E-01  0.00000000000E+00 0.  1.
     999901    1    3    3    0    0  0.76332746888E-01 -0.69286973830E-01 -0.74014787938E-01  0.88910379699E+00  0.88000000000E+00 0.  1.
        -11    1    4    4    0    0 -0.23286211335E-01  0.14861746559E-01  0.30380245197E-01  0.41065065060E-01  0.51100000000E-03 0.  1.
         11    1    4    4    0    0 -0.69784123870E-01  0.37948855944E-01  0.42860215269E-01  0.90261834602E-01  0.51100000000E-03 0. -1.
</event>
<event>
 8    1  0.1061722E+005  0.1043930E+01  0.7957747E-01            NaN
         13   -1    0    0    0    0  0.00000000000E+00  0.00000000000E+00  0.74505805969E-08  0.10566000000E+00  0.10566000000E+00 0.  1.
     999900   -1    0    0    0    0 -0.00000000000E+00 -0.00000000000E+00 -0.74505805969E-08  0.93827000000E+00  0.93827000000E+00 0. -1.
     999902    2    1    2    0    0  0.13101987326E-01  0.17851801241E-01  0.92450403164E-02  0.10199337576E+01  0.10196514356E+01 0.  0.
     999903    2    3    3    0    0  0.73672077131E-01  0.47375406803E-01  0.97946814822E-01  0.13291155727E+00  0.19997484907E-01 0.  0.
         14    1    1    2    0    0 -0.13101987326E-01 -0.17851801241E-01 -0.92450403164E-02  0.23996242412E-01  0.00000000000E+00 0. -1.
     999901    1    3    3    0    0 -0.60570089806E-01 -0.29523605562E-01 -0.88701774505E-01  0.88702220032E+00  0.88000000000E+00 0. -1.
        -11    1    4    4    0    0  0.50327280245E-01  0.23123906188E-01  0.69244092813E-01  0.88671053252E-01  0.51100000000E-03 0.  1.
         11    1    4    4    0    0  0.23344796886E-01  0.24251500615E-01  0.28702722008E-01  0.44240504014E-01  0.51100000000E-03 0. -1.
</event>
<event>
 8    1  0.1061722E+005  0.1043930E+01  0.7957747E-01            NaN
         13   -1    0    0    0    0  0.00000000000E+00  0.00000000000E+00  0.74505805969E-08  0.10566000000E+00  0.10566000000E+00 0.  1.
     999900   -1    0    0    0    0 -0.00000000000E+00 -0.00000000000E+00 -0.74505805969E-08  0.93827000000E+00  0.93827000000E+00 0.  1.
     999902    2    1    2    0    0  0.58075241867E-02  0.74336625661E-02  0.21774232855E-01  0.10202001898E+01  0.10199241753E+01 0.  0.
     999903    2    3    3    0    0  0.55460083203E-01 -0.11410452301E+00  0.23128980181E-01  0.13045936094E+00  0.19723897503E-01 0.  0.
         14    1    1    2    0    0 -0.58075241867E-02 -0.74336625661E-02 -0.21774232855E-01  0.23729810213E-01  0.00000000000E+00 0. -1.
     999901    1    3    3    0    0 -0.49652559016E-01  0.12153818558E+00 -0.13547473268E-02  0.88974082884E+00  0.88000000000E+00 0.  1.
        -11    1    4    4    0    0  0.31360914889E-01 -0.52102778937E-01  0.19392002647E-01  0.63831946887E-01  0.51100000000E-03 0. -1.
         11    1    4    4    0    0  0.24099168314E-01 -0.62001744076E-01  0.37369775347E-02  0.66627414057E-01  0.51100000000E-03 0.  1.
</event>
<event>
 8    1  0.1061722E+005  0.1043930E+01  0.7957747E-01            NaN
         13   -1    0    0    0    0  0.00000000000E+00  0.00000000000E+00  0.74505805969E-08  0.10566000000E+00  0.10566000000E+00 0.  1.
     999900   -1    0    0    0    0 -0.00000000000E+00 -0.00000000000E+00 -0.74505805969E-08  0.93827000000E+00  0.93827000000E+00 0. -1.
     999902    2    1    2    0    0  0.13921636780E-01 -0.21765477246E-01  0.67313561326E-02  0.10172305782E+01  0.10168801257E+01 0.  0.
     999903    2    3    3    0    0 -0.48128098236E-01  0.27667264318E-01 -0.11141197122E+00  0.12579824123E+00  0.18187325530E-01 0.  0.
         14    1    1    2    0    0 -0.13921636780E-01  0.21765477246E-01 -0.67313561326E-02  0.26699421825E-01  0.00000000000E+00 0. -1.
     999901    1    3    3    0    0  0.62049735016E-01 -0.49432741565E-01  0.11814332736E+00  0.89143233695E+00  0.88000000000E+00 0.  1.
        -11    1    4    4    0    0 -0.34513036551E-01  0.17182156285E-01 -0.57658345824E-01  0.69362253069E-01  0.51100000000E-03 0.  1.
         11    1    4    4    0    0 -0.13615061685E-01  0.10485108034E-01 -0.53753625399E-01  0.56435988161E-01  0.51100000000E-03 0. -1.
</event>
<event>
 8    1  0.1061722E+005  0.1043930E+01  0.7957747E-01            NaN
         13   -1    0    0    0    0  0.00000000000E+00  0.00000000000E+00  0.74505805969E-08  0.10566000000E+00  0.10566000000E+00 0.  1.
     999900   -1    0    0    0    0 -0.00000000000E+00 -0.00000000000E+00 -0.74505805969E-08  0.93827000000E+00  0.93827000000E+00 0.  1.
     999902    2    1    2    0    0  0.65590451849E-02  0.21391106420E-01  0.82169315185E-02  0.10200947641E+01  0.10198162625E+01 0.  0.
     999903    2    3    3    0    0 -0.63740849682E-01 -0.37558790219E-02 -0.11000439943E+00  0.12905563521E+00  0.21849177116E-01 0.  0.
         14    1    1    2    0    0 -0.65590451849E-02 -0.21391106420E-01 -0.82169315185E-02  0.23835235916E-01  0.00000000000E+00 0. -1.
     999901    1    3    3    0    0  0.70299894867E-01  0.25146985442E-01  0.11822133094E+00  0.89103912887E+00  0.88000000000E+00 0. -1.
        -11    1    4    4    0    0 -0.37147611894E-01  0.79979870536E-02 -0.55238621328E-01  0.67048335353E-01  0.51100000000E-03 0. -1.
         11    1    4    4    0    0 -0.26593237789E-01 -0.11753866075E-01 -0.54765778098E-01  0.62007299857E-01  0.51100000000E-03 0.  1.
</event>
<event>
 8    1  0.1061722E+005  0.1043930E+01  0.7957747E-01            NaN
         13   -1    0    0    0    0  0.00000000000E+00  0.00000000000E+00  0.74505805969E-08  0.10566000000E+00  0.10566000000E+00 0. -1.
     999900   -1    0    0    0    0 -0.00000000000E+00 -0.00000000000E+00 -0.74505805969E-08  0.93827000000E+00  0.93827000000E+00 0.  1.
     999902    2    1    2    0    0  0.80600294949E-02 -0.12138593010E-01 -0.18913177060E-01  0.10200549548E+01  0.10197755111E+01 0.  0.
     999903    2    3    3    0    0 -0.64651282300E-01  0.86496267285E-01 -0.70117892387E-01  0.13008995922E+00  0.18587256370E-01 0.  0.
         14    1    1    2    0    0 -0.80600294949E-02  0.12138593010E-01  0.18913177060E-01  0.23875045178E-01  0.00000000000E+00 0. -1.
     999901    1    3    3    0    0  0.72711311795E-01 -0.98634860295E-01  0.51204715327E-01  0.88996499560E+00  0.88000000000E+00 0. -1.
        -11    1    4    4    0    0 -0.22312825039E-01  0.21343887588E-01 -0.12319539515E-01  0.33248396554E-01  0.51100000000E-03 0.  1.
         11    1    4    4    0    0 -0.42338457261E-01  0.65152379697E-01 -0.57798352873E-01  0.96841562664E-01  0.51100000000E-03 0. -1.
</event>
<event>
 8    1  0.1061722E+005  0.1043930E+01  0.7957747E-01            NaN
         13   -1    0    0    0    0  0.00000000000E+00  0.00000000000E+00  0.74505805969E-08  0.10566000000E+00  0.10566000000E+00 0. -1.
     999900   -1    0    0    0    0 -0.00000000000E+00 -0.00000000000E+00 -0.74505805969E-08  0.93827000000E+00  0.93827000000E+00 0.  1.
     999902    2    1    2    0    0  0.85151068580E-02  0.22832160747E-01 -0.35720038035E-02  0.10193012806E+01  0.10190036932E+01 0.  0.
     999903    2    3    3    0    0 -0.11839886500E+00 -0.24267579746E-01 -0.37817568367E-01  0.12829157216E+00  0.20526868980E-01 0.  0.
         14    1    1    2    0    0 -0.85151068580E-02 -0.22832160747E-01  0.35720038035E-02  0.24628719421E-01  0.00000000000E+00 0.  1.
     999901    1    3    3    0    0  0.12691397186E+00  0.47099740493E-01  0.34245564564E-01  0.89100970842E+00  0.88000000000E+00 0.  1.
        -11    1    4    4    0    0 -0.10563261107E-01 -0.63454761210E-02 -0.89190958139E-02  0.15220346368E-01  0.51100000000E-03 0. -1.
         11    1    4    4    0    0 -0.10783560389E+00 -0.17922103625E-01 -0.28898472553E-01  0.11307122579E+00  0.51100000000E-03 0.  1.
</event>
<event>
 8    1  0.1061722E+005  0.1043930E+01  0.7957747E-01            NaN
         13   -1    0    0    0    0  0.00000000000E+00  0.00000000000E+00  0.74505805969E-08  0.10566000000E+00  0.10566000000E+00 0.  1.
     999900   -1    0    0    0    0 -0.00000000000E+00 -0.00000000000E+00 -0.74505805969E-08  0.93827000000E+00  0.93827000000E+00 0. -1.
     999902    2    1    2    0    0  0.30358372065E-04 -0.72918045541E-02  0.21420567990E-01  0.10213023163E+01  0.10210516193E+01 0.  0.
     999903    2    3    3    0    0 -0.11328581275E+00  0.54397926442E-01 -0.29176793098E-01  0.13045649886E+00  0.19359831303E-01 0.  0.
         14    1    1    2    0    0 -0.30358372065E-04  0.72918045541E-02 -0.21420567990E-01  0.22627683671E-01  0.00000000000E+00 0. -1.
     999901    1    3    3    0    0  0.11331617112E+00 -0.61689730997E-01  0.50597361089E-01  0.89084581747E+00  0.88000000000E+00 0. -1.
        -11    1    4    4    0    0 -0.50775848705E-01  0.34328715124E-01 -0.10400527153E-01  0.62169764193E-01  0.51100000000E-03 0. -1.
         11    1    4    4    0    0 -0.62509964046E-01  0.20069211319E-01 -0.18776265945E-01  0.68286734670E-01  0.51100000000E-03 0.  1.
</event>
<event>
 8    1  0.1061722E+005  0.1043930E+01  0.7957747E-01            NaN
         13   -1    0    0    0    0  0.00000000000E+00  0.00000000000E+00  0.74505805969E-08  0.10566000000E+00  0.10566000000E+00 0. -1.
     999900   -1    0    0    0    0 -0.00000000000E+00 -0.00000000000E+00 -0.74505805969E-08  0.93827000000E+00  0.93827000000E+00 0. -1.
     999902    2    1    2    0    0  0.15827540942E-01  0.16899344481E-01  0.63483388371E-02  0.10199216618E+01  0.10196390518E+01 0.  0.
     999903    2    3    3    0    0  0.91393731856E-01  0.86241037292E-01  0.39806811278E-01  0.13333382695E+00  0.20074771429E-01 0.  0.
         14    1    1    2    0    0 -0.15827540942E-01 -0.16899344481E-01 -0.63483388371E-02  0.24008338179E-01  0.00000000000E+00 0.  1.
     999901    1    3    3    0    0 -0.75566190914E-01 -0.69341692811E-01 -0.33458472441E-01  0.88658783488E+00  0.88000000000E+00 0. -1.
        -11    1    4    4    0    0  0.50824769838E-01  0.56841266680E-01  0.31696329999E-01  0.82577268563E-01  0.51100000000E-03 0. -1.
         11    1    4    4    0    0  0.40568962018E-01  0.29399770612E-01  0.81104812791E-02  0.50756558382E-01  0.51100000000E-03 0.  1.
</event>
<event>
 8    1  0.1061722E+005  0.1043930E+01  0.7957747E-01            NaN
         13   -1    0    0    0    0  0.00000000000E+00  0.00000000000E+00  0.74505805969E-08  0.10566000000E+00  0.10566000000E+00 0.  1.
     999900   -1    0    0    0    0 -0.00000000000E+00 -0.00000000000E+00 -0.74505805969E-08  0.93827000000E+00  0.93827000000E+00 0. -1.
     999902    2    1    2    0    0  0.11770497864E-01  0.73460242927E-02 -0.17566990536E-01  0.10215445617E+01  0.10212992625E+01 0.  0.
     999903    2    3    3    0    0 -0.30760998039E-01 -0.79922704233E-01  0.94999546467E-01  0.12907832456E+00  0.17390295856E-01 0.  0.
         14    1    1    2    0    0 -0.11770497864E-01 -0.73460242927E-02  0.17566990536E-01  0.22385438333E-01  0.00000000000E+00 0.  1.
     999901    1    3    3    0    0  0.42531495904E-01  0.87268728526E-01 -0.11256653700E+00  0.89246623711E+00  0.88000000000E+00 0. -1.
        -11    1    4    4    0    0 -0.95783973409E-02 -0.46704420296E-01  0.57355530810E-01  0.74585297521E-01  0.51100000000E-03 0.  1.
         11    1    4    4    0    0 -0.21182600699E-01 -0.33218283937E-01  0.37644015658E-01  0.54493027040E-01  0.51100000000E-03 0. -1.
</event>
<event>
 8    1  0.1061722E+005  0.1043930E+01  0.7957747E-01            NaN
         13   -1    0    0    0    0  0.00000000000E+00  0.00000000000E+00  0.74505805969E-08  0.10566000000E+00  0.10566000000E+00 0. -1.
     999900   -1    0    0    0    0 -0.00000000000E+00 -0.00000000000E+00 -0.74505805969E-08  0.93827000000E+00  0.93827000000E+00 0.  1.
     999902    2    1    2    0    0  0.36666488301E-02  0.16690147302E-01 -0.13458350071E-01  0.10221783905E+01  0.10219469308E+01 0.  0.
     999903    2    3    3    0    0  0.11246810443E+00 -0.29037355463E-01  0.58204398729E-01  0.13141225347E+00  0.19727792736E-01 0.  0.
         14    1    1    2    0    0 -0.36666488301E-02 -0.16690147302E-01  0.13458350071E-01  0.21751609532E-01  0.00000000000E+00 0. -1.
     999901    1    3    3    0    0 -0.10880145560E+00  0.45727502765E-01 -0.71662748801E-01  0.89076613699E+00  0.88000000000E+00 0.  1.
        -11    1    4    4    0    0  0.31801380689E-01  0.66396508849E-03  0.17336738294E-01  0.36229715414E-01  0.51100000000E-03 0. -1.
         11    1    4    4    0    0  0.80666723737E-01 -0.29701320551E-01  0.40867660436E-01  0.95182538060E-01  0.51100000000E-03 0.  1.
</event>
<event>
 8    1  0.1061722E+005  0.1043930E+01  0.7957747E-01            NaN
         13   -1    0    0    0    0  0.00000000000E+00  0.00000000000E+00  0.74505805969E-08  0.10566000000E+00  0.10566000000E+00 0.  1.
     999900   -1    0    0    0    0 -0.00000000000E+00 -0.00000000000E+00 -0.74505805969E-08  0.93827000000E+00  0.93827000000E+00 0.  1.
     999902    2    1    2    0    0  0.13207810229E-01 -0.14929149729E-01  0.20319559531E-02  0.10238936678E+01  0.10236976059E+01 0.  0.
     999903    2    3    3    0    0  0.12802084000E+00 -0.27437437975E-01  0.32804374737E-01  0.13581403690E+00  0.15072396643E-01 0.  0.
         14    1    1    2    0    0 -0.13207810229E-01  0.14929149729E-01 -0.20319559531E-02  0.20036332192E-01  0.00000000000E+00 0.  1.
     999901    1    3    3    0    0 -0.11481302977E+00  0.12508288245E-01 -0.30772418784E-01  0.88807963091E+00  0.88000000000E+00 0.  1.
        -11    1    4    4    0    0  0.45860070414E-01 -0.35730780724E-02  0.76386436363E-02  0.46631780396E-01  0.51100000000E-03 0. -1.
         11    1    4    4    0    0  0.82160769583E-01 -0.23864359902E-01  0.25165731100E-01  0.89182256502E-01  0.51100000000E-03 0.  1.
</event>
<event>
 8    1  0.1061722E+005  0.1043930E+01  0.7957747E-01            NaN
         13   -1    0    0    0    0  0.00000000000E+00  0.00000000000E+00  0.74505805969E-08  0.10566000000E+00  0.10566000000E+00 0. -1.
     999900   -1    0    0    0    0 -0.00000000000E+00 -0.00000000000E+00 -0.74505805969E-08  0.93827000000E+00  0.93827000000E+00 0.  1.
     999902    2    1    2    0    0  0.14745390081E-01 -0.11597725392E-01 -0.12799008653E-01  0.10212199056E+01  0.10209673586E+01 0.  0.
     999903    2    3    3    0    0  0.95030721658E-01  0.45638376843E-01 -0.79062337100E-01  0.13323762285E+00  0.19690390953E-01 0.  0.
         14    1    1    2    0    0 -0.14745390081E-01  0.11597725392E-01  0.12799008653E-01  0.22710094350E-01  0.00000000000E+00 0.  1.
     999901    1    3    3    0    0 -0.80285331577E-01 -0.57236102235E-01  0.66263328447E-01  0.88798228280E+00  0.88000000000E+00 0. -1.
        -11    1    4    4    0    0  0.79495569985E-01  0.39617951882E-01 -0.56816036755E-01  0.10543932337E+00  0.51100000000E-03 0.  1.
         11    1    4    4    0    0  0.15535151673E-01  0.60204249605E-02 -0.22246300346E-01  0.27798299486E-01  0.51100000000E-03 0. -1.
</event>
<event>
 8    1  0.1061722E+005  0.1043930E+01  0.7957747E-01            NaN
         13   -1    0    0    0    0  0.00000000000E+00  0.00000000000E+00  0.74505805969E-08  0.10566000000E+00  0.10566000000E+00 0.  1.
     999900   -1    0    0    0    0 -0.00000000000E+00 -0.00000000000E+00 -0.74505805969E-08  0.93827000000E+00  0.93827000000E+00 0.  1.
     999902    2    1    2    0    0 -0.18959819525E-01  0.12197829783E-01  0.79088430986E-02  0.10200383360E+01  0.10197584986E+01 0.  0.
     999903    2    3    3    0    0  0.10620715429E+00  0.70622452814E-01  0.10436076996E-02  0.12923682090E+00  0.20822494938E-01 0.  0.
         14    1    1    2    0    0  0.18959819525E-01 -0.12197829783E-01 -0.79088430986E-02  0.23891663965E-01  0.00000000000E+00 0. -1.
     999901    1    3    3    0    0 -0.12516697382E+00 -0.58424623030E-01  0.68652353990E-02  0.89080151514E+00  0.88000000000E+00 0. -1.
        -11    1    4    4    0    0  0.75624527039E-01  0.38668763922E-01  0.25602062931E-02  0.84977397997E-01  0.51100000000E-03 0.  1.
         11    1    4    4    0    0  0.30582627251E-01  0.31953688892E-01 -0.15165985935E-02  0.44259422902E-01  0.51100000000E-03 0. -1.
</event>
<event>
 8    1  0.1061722E+005  0.1043930E+01  0.7957747E-01            NaN
         13   -1    0    0    0    0  0.00000000000E+00  0.00000000000E+00  0.74505805969E-08  0.10566000000E+00  0.10566000000E+00 0. -1.
     999900   -1    0    0    0    0 -0.00000000000E+00 -0.00000000000E+00 -0.74505805969E-08  0.93827000000E+00  0.93827000000E+00 0. -1.
     999902    2    1    2    0    0  0.17443488524E-01  0.14396411251E-02  0.15583773452E-01  0.10204949439E+01  0.10202258224E+01 0.  0.
     999903    2    3    3    0    0  0.86035974188E-01 -0.78027443484E-01 -0.57605306710E-01  0.13123874457E+00  0.20365802812E-01 0.  0.
         14    1    1    2    0    0 -0.17443488524E-01 -0.14396411251E-02 -0.15583773452E-01  0.23435056080E-01  0.00000000000E+00 0.  1.
     999901    1    3    3    0    0 -0.68592485664E-01  0.79467084609E-01  0.73189080162E-01  0.88925619935E+00  0.88000000000E+00 0.  1.
        -11    1    4    4    0    0  0.38551734054E-01 -0.29385027483E-01 -0.13928111486E-01  0.50437777998E-01  0.51100000000E-03 0. -1.
         11    1    4    4    0    0  0.47484240134E-01 -0.48642416001E-01 -0.43677195224E-01  0.80800966573E-01  0.51100000000E-03 0.  1.
</event>
<event>
 8    1  0.1061722E+005  0.1043930E+01  0.7957747E-01            NaN
         13   -1    0    0    0    0  0.00000000000E+00  0.00000000000E+00  0.74505805969E-08  0.10566000000E+00  0.10566000000E+00 0. -1.
     999900   -1    0    0    0    0 -0.00000000000E+00 -0.00000000000E+00 -0.74505805969E-08  0.93827000000E+00  0.93827000000E+00 0.  1.
     999902    2    1    2    0    0 -0.60451089460E-02 -0.62566131785E-02 -0.22045972041E-01  0.10202295056E+01  0.10199541807E+01 0.  0.
     999903    2    3    3    0    0 -0.58735296582E-01  0.93283142999E-01  0.64085083456E-01  0.12888054048E+00  0.18754091842E-01 0.  0.
         14    1    1    2    0    0  0.60451089460E-02  0.62566131785E-02  0.22045972041E-01  0.23700494380E-01  0.00000000000E+00 0. -1.
     999901    1    3    3    0    0  0.52690187636E-01 -0.99539756177E-01 -0.86131055497E-01  0.89134896514E+00  0.88000000000E+00 0.  1.
        -11    1    4    4    0    0 -0.27743207154E-01  0.60579876532E-01  0.41233179045E-01  0.78358427492E-01  0.51100000000E-03 0.  1.
         11    1    4    4    0    0 -0.30992089428E-01  0.32703266467E-01  0.22851904411E-01  0.50522112989E-01  0.51100000000E-03 0. -1.
</event>
<event>
 8    1  0.1061722E+005  0.1043930E+01  0.7957747E-01            NaN
         13   -1    0    0    0    0  0.00000000000E+00  0.00000000000E+00  0.74505805969E-08  0.10566000000E+00  0.10566000000E+00 0.  1.
     999900   -1    0    0    0    0 -0.00000000000E+00 -0.00000000000E+00 -0.74505805969E-08  0.93827000000E+00  0.93827000000E+00 0.  1.
     999902    2    1    2    0    0 -0.74240954575E-02 -0.14945311292E-01  0.16774886605E-01  0.10202682937E+01  0.10199938798E+01 0.  0.
     999903    2    3    3    0    0 -0.39431657652E-01 -0.11820701673E+00 -0.39119987104E-01  0.13189241565E+00  0.18370669151E-01 0.  0.
         14    1    1    2    0    0  0.74240954575E-02  0.14945311292E-01 -0.16774886605E-01  0.23661706269E-01  0.00000000000E+00 0. -1.
     999901    1    3    3    0    0  0.32007562195E-01  0.10326170544E+00  0.55894873709E-01  0.88837587808E+00  0.88000000000E+00 0. -1.
        -11    1    4    4    0    0 -0.27794420476E-01 -0.55778645007E-01 -0.22363955606E-01  0.66213251542E-01  0.51100000000E-03 0. -1.
         11    1    4    4    0    0 -0.11637237176E-01 -0.62428371726E-01 -0.16756031498E-01  0.65679164108E-01  0.51100000000E-03 0.  1.
</event>
<event>
 8    1  0.1061722E+005  0.1043930E+01  0.7957747E-01            NaN
         13   -1    0    0    0    0  0.00000000000E+00  0.00000000000E+00  0.74505805969E-08  0.10566000000E+00  0.10566000000E+00 0.  1.
     999900   -1    0    0    0    0 -0.00000000000E+00 -0.00000000000E+00 -0.74505805969E-08  0.93827000000E+00  0.93827000000E+00 0.  1.
     999902    2    1    2    0    0 -0.23057492013E-01  0.17164591878E-02  0.28597390399E-02  0.10206325264E+01  0.10203665918E+01 0.  0.
     999903    2    3    3    0    0 -0.12835719285E+00 -0.28519202334E-01 -0.70940470301E-02  0.13378344108E+00  0.23638310979E-01 0.  0.
         14    1    1    2    0    0  0.23057492013E-01 -0.17164591878E-02 -0.28597390399E-02  0.23297473628E-01  0.00000000000E+00 0. -1.
     999901    1    3    3    0    0  0.10529970084E+00  0.30235661522E-01  0.99537860700E-02  0.88684908529E+00  0.88000000000E+00 0. -1.
        -11    1    4    4    0    0 -0.96612205299E-01 -0.10764418033E-01 -0.57936031851E-02  0.97383868619E-01  0.51100000000E-03 0.  1.
         11    1    4    4    0    0 -0.31744987551E-01 -0.17754784301E-01 -0.13004438450E-02  0.36399572462E-01  0.51100000000E-03 0. -1.
</event>
<event>
 8    1  0.1061722E+005  0.1043930E+01  0.7957747E-01            NaN
         13   -1    0    0    0    0  0.00000000000E+00  0.00000000000E+00  0.74505805969E-08  0.10566000000E+00  0.10566000000E+00 0.  1.
     999900   -1    0    0    0    0 -0.00000000000E+00 -0.00000000000E+00 -0.74505805969E-08  0.93827000000E+00  0.93827000000E+00 0. -1.
     999902    2    1    2    0    0  0.12629479016E-01 -0.20089286017E-01 -0.14180048200E-02  0.10201582964E+01  0.10198812950E+01 0.  0.
     999903    2    3    3    0    0 -0.11933794996E+00  0.34474692872E-01 -0.30789823128E-01  0.12816315417E+00  0.69086995347E-02 0.  0.
         14    1    1    2    0    0 -0.12629479016E-01  0.20089286017E-01  0.14180048200E-02  0.23771703568E-01  0.00000000000E+00 0.  1.
     999901    1    3    3    0    0  0.13196742898E+00 -0.54563978888E-01  0.29371818308E-01  0.89199514226E+00  0.88000000000E+00 0.  1.
        -11    1    4    4    0    0 -0.13275339591E-01  0.57518734200E-02 -0.24434144220E-02  0.14681624029E-01  0.51100000000E-03 0. -1.
         11    1    4    4    0    0 -0.10606261037E+00  0.28722819452E-01 -0.28346408706E-01  0.11348153014E+00  0.51100000000E-03 0.  1.
</event>
<event>
 8    1  0.1061722E+005  0.1043930E+01  0.7957747E-01            NaN
         13   -1    0    0    0    0  0.00000000000E+00  0.00000000000E+00  0.74505805969E-08  0.10566000000E+00  0.10566000000E+00 0.  1.
     999900   -1    0    0    0    0 -0.00000000000E+00 -0.00000000000E+00 -0.74505805969E-08  0.93827000000E+00  0.93827000000E+00 0.  1.
     999902    2    1    2    0    0 -0.15903263107E-01  0.18114981641E-01 -0.21777998840E-02  0.10197265054E+01  0.10194392266E+01 0.  0.
     999903    2    3    3    0    0  0.33783230565E-01 -0.10216756521E+00 -0.66238573018E-01  0.12785183857E+00  0.19468590608E-01 0.  0.
         14    1    1    2    0    0  0.15903263107E-01 -0.18114981641E-01  0.21777998840E-02  0.24203494575E-01  0.00000000000E+00 0. -1.
     999901    1    3    3    0    0 -0.49686493672E-01  0.12028254685E+00  0.64060773134E-01  0.89187466686E+00  0.88000000000E+00 0.  1.
        -11    1    4    4    0    0  0.58189752033E-02 -0.82814963478E-02 -0.12583670069E-01  0.16157150973E-01  0.51100000000E-03 0.  1.
         11    1    4    4    0    0  0.27964255361E-01 -0.93886068865E-01 -0.53654902949E-01  0.11169468759E+00  0.51100000000E-03 0. -1.
</event>
<event>
 8    1  0.1061722E+005  0.1043930E+01  0.7957747E-01            NaN
         13   -1    0    0    0    0  0.00000000000E+00  0.00000000000E+00  0.74505805969E-08  0.10566000000E+00  0.10566000000E+00 0. -1.
     999900   -1    0    0    0    0 -0.00000000000E+00 -0.00000000000E+00 -0.74505805969E-08  0.93827000000E+00  0.93827000000E+00 0. -1.
     999902    2    1    2    0    0 -0.54491261331E-02 -0.18343163772E-01  0.92150931747E-02  0.10226912954E+01  0.10224707346E+01 0.  0.
     999903    2    3    3    0    0 -0.12934642505E+00 -0.12187773623E-01 -0.20879692381E-01  0.13348146319E+00  0.22412049481E-01 0.  0.
         14    1    1    2    0    0  0.54491261331E-02  0.18343163772E-01 -0.92150931747E-02  0.21238704645E-01  0.00000000000E+00 0.  1.
     999901    1    3    3    0    0  0.12389729892E+00 -0.61553901491E-02  0.30094785556E-01  0.88920983217E+00  0.88000000000E+00 0.  1.
        -11    1    4    4    0    0 -0.31002874929E-01 -0.72351703665E-02 -0.13969692765E-01  0.34769805594E-01  0.51100000000E-03 0. -1.
         11    1    4    4    0    0 -0.98343550119E-01 -0.49526032568E-02 -0.69099996162E-02  0.98711657592E-01  0.51100000000E-03 0.  1.
</event>
<event>
 8    1  0.1061722E+005  0.1043930E+01  0.7957747E-01            NaN
         13   -1    0    0    0    0  0.00000000000E+00  0.00000000000E+00  0.74505805969E-08  0.10566000000E+00  0.10566000000E+00 0. -1.
     999900   -1    0    0    0    0 -0.00000000000E+00 -0.00000000000E+00 -0.74505805969E-08  0.93827000000E+00  0.93827000000E+00 0.  1.
     999902    2    1    2    0    0  0.22129249262E-03  0.65073698304E-02 -0.22716308615E-01  0.10202989715E+01  0.10200252770E+01 0.  0.
     999903    2    3    3    0    0 -0.29788296332E-01 -0.11064362543E+00  0.54857005441E-01  0.12864738583E+00  0.20285570918E-01 0.  0.
         14    1    1    2    0    0 -0.22129249262E-03 -0.65073698304E-02  0.22716308615E-01  0.23631028534E-01  0.00000000000E+00 0. -1.
     999901    1    3    3    0    0  0.30009588824E-01  0.11715099526E+00 -0.77573314056E-01  0.89165158564E+00  0.88000000000E+00 0.  1.
        -11    1    4    4    0    0 -0.19165609678E-01 -0.50674238544E-01  0.35360055894E-01  0.64697710316E-01  0.51100000000E-03 0.  1.
         11    1    4    4    0    0 -0.10622686653E-01 -0.59969386890E-01  0.19496949547E-01  0.63949675514E-01  0.51100000000E-03 0. -1.
</event>
<event>
 8    1  0.1061722E+005  0.1043930E+01  0.7957747E-01            NaN
         13   -1    0    0    0    0  0.00000000000E+00  0.00000000000E+00  0.74505805969E-08  0.10566000000E+00  0.10566000000E+00 0.  1.
     999900   -1    0    0    0    0 -0.00000000000E+00 -0.00000000000E+00 -0.74505805969E-08  0.93827000000E+00  0.93827000000E+00 0. -1.
     999902    2    1    2    0    0  0.13360189724E-01  0.17706847893E-01 -0.94754373863E-02  0.10198092404E+01  0.10195239456E+01 0.  0.
     999903    2    3    3    0    0 -0.80376384498E-01 -0.51735472627E-01 -0.84158044152E-01  0.12897464686E+00  0.20370587247E-01 0.  0.
         14    1    1    2    0    0 -0.13360189724E-01 -0.17706847893E-01  0.94754373863E-02  0.24120759636E-01  0.00000000000E+00 0.  1.
     999901    1    3    3    0    0  0.93736574222E-01  0.69442320520E-01  0.74682606766E-01  0.89083459350E+00  0.88000000000E+00 0.  1.
        -11    1    4    4    0    0 -0.36063300455E-01 -0.33307300374E-01 -0.49945584316E-01  0.70033994685E-01  0.51100000000E-03 0.  1.
         11    1    4    4    0    0 -0.44313084043E-01 -0.18428172253E-01 -0.34212459836E-01  0.58940652177E-01  0.51100000000E-03 0. -1.
</event>
<event>
 8    1  0.1061722E+005  0.1043930E+01  0.7957747E-01            NaN
         13   -1    0    0    0    0  0.00000000000E+00  0.00000000000E+00  0.74505805969E-08  0.10566000000E+00  0.10566000000E+00 0.  1.
     999900   -1    0    0    0    0 -0.00000000000E+00 -0.00000000000E+00 -0.74505805969E-08  0.93827000000E+00  0.93827000000E+00 0.  1.
     999902    2    1    2    0    0  0.68845572169E-02 -0.22779883864E-01 -0.24050502701E-03  0.10201313009E+01  0.10198536625E+01 0.  0.
     999903    2    3    3    0    0 -0.37645725586E-01  0.53484381336E-01  0.10937810671E+00  0.12894365270E+00  0.19624363496E-01 0.  0.
         14    1    1    2    0    0 -0.68845572169E-02  0.22779883864E-01  0.24050502701E-03  0.23798699116E-01  0.00000000000E+00 0.  1.
     999901    1    3    3    0    0  0.44530282803E-01 -0.76264265200E-01 -0.10961861174E+00  0.89118764818E+00  0.88000000000E+00 0.  1.
        -11    1    4    4    0    0 -0.26153452147E-01  0.42755202240E-01  0.95985352803E-01  0.10828416067E+00  0.51100000000E-03 0.  1.
         11    1    4    4    0    0 -0.11492273439E-01  0.10729179096E-01  0.13392753908E-01  0.20659492034E-01  0.51100000000E-03 0. -1.
</event>
<event>
 8    1  0.1061722E+005  0.1043930E+01  0.7957747E-01            NaN
         13   -1    0    0    0    0  0.00000000000E+00  0.00000000000E+00  0.74505805969E-08  0.10566000000E+00  0.10566000000E+00 0. -1.
     999900   -1    0    0    0    0 -0.00000000000E+00 -0.00000000000E+00 -0.74505805969E-08  0.93827000000E+00  0.93827000000E+00 0.  1.
     999902    2    1    2    0    0 -0.43573288954E-02 -0.17524339030E-01 -0.15338041046E-01  0.10202372949E+01  0.10199621530E+01 0.  0.
     999903    2    3    3    0    0 -0.52916643459E-01  0.76982981492E-01  0.85295754949E-01  0.12815164788E+00  0.20516540814E-01 0.  0.
         14    1    1    2    0    0  0.43573288954E-02  0.17524339030E-01  0.15338041046E-01  0.23692705136E-01  0.00000000000E+00 0. -1.
     999901    1    3    3    0    0  0.48559314563E-01 -0.94507320522E-01 -0.10063379600E+00  0.89208564699E+00  0.88000000000E+00 0.  1.
        -11    1    4    4    0    0 -0.18135567599E-01  0.20069993996E-01  0.13794141714E-01  0.30368453002E-01  0.51100000000E-03 0.  1.
         11    1    4    4    0    0 -0.34781075860E-01  0.56912987496E-01  0.71501613236E-01  0.97783194875E-01  0.51100000000E-03 0. -1.
</event>
<event>
 8    1  0.1061722E+005  0.1043930E+01  0.7957747E-01            NaN
         13   -1    0    0    0    0  0.00000000000E+00  0.00000000000E+00  0.74505805969E-08  0.10566000000E+00  0.10566000000E+00 0.  1.
     999900   -1    0    0    0    0 -0.00000000000E+00 -0.00000000000E+00 -0.74505805969E-08  0.93827000000E+00  0.93827000000E+00 0.  1.
     999902    2    1    2    0    0  0.11240867535E-01  0.19871430646E-01  0.46025118989E-02  0.10206402174E+01  0.10203744604E+01 0.  0.
     999903    2    3    3    0    0  0.76721359888E-01 -0.10035726801E+00  0.22338540943E-01  0.12987807091E+00  0.20286808171E-01 0.  0.
         14    1    1    2    0    0 -0.11240867535E-01 -0.19871430646E-01 -0.46025118989E-02  0.23289782623E-01  0.00000000000E+00 0. -1.
     999901    1    3    3    0    0 -0.65480492353E-01  0.12022869865E+00 -0.17736029044E-01  0.89076214647E+00  0.88000000000E+00 0.  1.
        -11    1    4    4    0    0  0.10276665858E-01 -0.23914805679E-01 -0.54625086498E-03  0.26040109501E-01  0.51100000000E-03 0. -1.
         11    1    4    4    0    0  0.66444694030E-01 -0.76442462328E-01  0.22884791808E-01  0.10383796140E+00  0.51100000000E-03 0.  1.
</event>
<event>
 8    1  0.1061722E+005  0.1043930E+01  0.7957747E-01            NaN
         13   -1    0    0    0    0  0.00000000000E+00  0.00000000000E+00  0.74505805969E-08  0.10566000000E+00  0.10566000000E+00 0. -1.
     999900   -1    0    0    0    0 -0.00000000000E+00 -0.00000000000E+00 -0.74505805969E-08  0.93827000000E+00  0.93827000000E+00 0.  1.
     999902    2    1    2    0    0 -0.22133607042E-01  0.77480614617E-02 -0.33184540142E-02  0.10202458037E+01  0.10199708618E+01 0.  0.
     999903    2    3    3    0    0  0.84733253324E-01  0.83920740118E-01 -0.46276946295E-01  0.12947746408E+00  0.20011074568E-01 0.  0.
         14    1    1    2    0    0  0.22133607042E-01 -0.77480614617E-02  0.33184540142E-02  0.23684196295E-01  0.00000000000E+00 0. -1.
     999901    1    3    3    0    0 -0.10686686037E+00 -0.76172678657E-01  0.42958492281E-01  0.89076833962E+00  0.88000000000E+00 0.  1.
        -11    1    4    4    0    0  0.31528945822E-01  0.29504739207E-01 -0.67141994580E-02  0.43702925024E-01  0.51100000000E-03 0. -1.
         11    1    4    4    0    0  0.53204307502E-01  0.54416000912E-01 -0.39562746837E-01  0.85774539056E-01  0.51100000000E-03 0.  1.
</event>
<event>
 8    1  0.1061722E+005  0.1043930E+01  0.7957747E-01            NaN
         13   -1    0    0    0    0  0.00000000000E+00  0.00000000000E+00  0.74505805969E-08  0.10566000000E+00  0.10566000000E+00 0. -1.
     999900   -1    0    0    0    0 -0.00000000000E+00 -0.00000000000E+00 -0.74505805969E-08  0.93827000000E+00  0.93827000000E+00 0. -1.
     999902    2    1    2    0    0  0.19336324857E-01  0.10599272607E-01  0.13346922765E-01  0.10181544615E+01  0.10178281432E+01 0.  0.
     999903    2    3    3    0    0 -0.33220960033E-01 -0.54973544314E-01 -0.10658338485E+00  0.12605281862E+00  0.20089111340E-01 0.  0.
         14    1    1    2    0    0 -0.19336324857E-01 -0.10599272607E-01 -0.13346922765E-01  0.25775538522E-01  0.00000000000E+00 0. -1.
     999901    1    3    3    0    0  0.52557284890E-01  0.65572816921E-01  0.11993030762E+00  0.89210164286E+00  0.88000000000E+00 0.  1.
        -11    1    4    4    0    0 -0.25599593056E-01 -0.47071383371E-01 -0.71909623848E-01  0.89678924057E-01  0.51100000000E-03 0.  1.
         11    1    4    4    0    0 -0.76213669773E-02 -0.79021609428E-02 -0.34673761004E-01  0.36373894558E-01  0.51100000000E-03 0. -1.
</event>
<event>
 8    1  0.1061722E+005  0.1043930E+01  0.7957747E-01            NaN
         13   -1    0    0    0    0  0.00000000000E+00  0.00000000000E+00  0.74505805969E-08  0.10566000000E+00  0.10566000000E+00 0.  1.
     999900   -1    0    0    0    0 -0.00000000000E+00 -0.00000000000E+00 -0.74505805969E-08  0.93827000000E+00  0.93827000000E+00 0.  1.
     999902    2    1    2    0    0  0.22719192049E-01 -0.73449754626E-02  0.27845894529E-02  0.10198911920E+01  0.10196078556E+01 0.  0.
     999903    2    3    3    0    0  0.52256171766E-03  0.66148250619E-01 -0.10938700613E+00  0.12945511257E+00  0.20426574117E-01 0.  0.
         14    1    1    2    0    0 -0.22719192049E-01  0.73449754626E-02 -0.27845894529E-02  0.24038808006E-01  0.00000000000E+00 0. -1.
     999901    1    3    3    0    0  0.22196630331E-01 -0.73493226081E-01  0.11217159559E+00  0.89043607942E+00  0.88000000000E+00 0. -1.
        -11    1    4    4    0    0  0.48654261185E-02  0.39308869476E-01 -0.47448323837E-01  0.61809903306E-01  0.51100000000E-03 0. -1.
         11    1    4    4    0    0 -0.43428644009E-02  0.26839381143E-01 -0.61938682295E-01  0.67645209267E-01  0.51100000000E-03 0.  1.
</event>
<event>
 8    1  0.1061722E+005  0.1043930E+01  0.7957747E-01            NaN
         13   -1    0    0    0    0  0.00000000000E+00  0.00000000000E+00  0.74505805969E-08  0.10566000000E+00  0.10566000000E+00 0. -1.
     999900   -1    0    0    0    0 -0.00000000000E+00 -0.00000000000E+00 -0.74505805969E-08  0.93827000000E+00  0.93827000000E+00 0. -1.
     999902    2    1    2    0    0  0.16115738608E-01  0.14596502033E-01 -0.11692349265E-01  0.10192422311E+01  0.10189431975E+01 0.  0.
     999903    2    3    3    0    0  0.12043465207E+00  0.28269677417E-01 -0.42979635306E-01  0.13242303548E+00  0.19619663443E-01 0.  0.
         14    1    1    2    0    0 -0.16115738608E-01 -0.14596502033E-01  0.11692349265E-01  0.24687768911E-01  0.00000000000E+00 0. -1.
     999901    1    3    3    0    0 -0.10431891347E+00 -0.13673175385E-01  0.31287286040E-01  0.88681919561E+00  0.88000000000E+00 0.  1.
        -11    1    4    4    0    0  0.70720674920E-01  0.25206848911E-01 -0.30746175969E-01  0.81131914502E-01  0.51100000000E-03 0.  1.
         11    1    4    4    0    0  0.49713977153E-01  0.30628285068E-02 -0.12233459337E-01  0.51291120978E-01  0.51100000000E-03 0. -1.
</event>
<event>
 8    1  0.1061722E+005  0.1043930E+01  0.7957747E-01            NaN
         13   -1    0    0    0    0  0.00000000000E+00  0.00000000000E+00  0.74505805969E-08  0.10566000000E+00  0.10566000000E+00 0.  1.
     999900   -1    0    0    0    0 -0.00000000000E+00 -0.00000000000E+00 -0.74505805969E-08  0.93827000000E+00  0.93827000000E+00 0.  1.
     999902    2    1    2    0    0 -0.13817525223E-01  0.67548360303E-02 -0.18650724763E-01  0.10197556055E+01  0.10194690254E+01 0.  0.
     999903    2    3    3    0    0  0.57059610615E-01  0.77355415298E-01  0.81780495738E-01  0.12841142947E+00  0.23702031455E-01 0.  0.
         14    1    1    2    0    0  0.13817525223E-01 -0.67548360303E-02  0.18650724763E-01  0.24174394455E-01  0.00000000000E+00 0.  1.
     999901    1    3    3    0    0 -0.70877135838E-01 -0.70600579267E-01 -0.10043122050E+00  0.89134417608E+00  0.88000000000E+00 0.  1.
        -11    1    4    4    0    0  0.25296387440E-01  0.25435332895E-01  0.43997242490E-01  0.56770431077E-01  0.51100000000E-03 0. -1.
         11    1    4    4    0    0  0.31763223175E-01  0.51920082403E-01  0.37783253248E-01  0.71640998389E-01  0.51100000000E-03 0.  1.
</event>
<event>
 8    1  0.1061722E+005  0.1043930E+01  0.7957747E-01            NaN
         13   -1    0    0    0    0  0.00000000000E+00  0.00000000000E+00  0.74505805969E-08  0.10566000000E+00  0.10566000000E+00 0. -1.
     999900   -1    0    0    0    0 -0.00000000000E+00 -0.00000000000E+00 -0.74505805969E-08  0.93827000000E+00  0.93827000000E+00 0. -1.
     999902    2    1    2    0    0 -0.15368891930E-01  0.41605802562E-02  0.17276260890E-01  0.10204356931E+01  0.10201651931E+01 0.  0.
     999903    2    3    3    0    0 -0.11534554088E+00 -0.40805492571E-01 -0.45815709536E-01  0.13139245748E+00  0.13971994010E-01 0.  0.
         14    1    1    2    0    0  0.15368891930E-01 -0.41605802562E-02 -0.17276260890E-01  0.23494306918E-01  0.00000000000E+00 0.  1.
     999901    1    3    3    0    0  0.99976648952E-01  0.44966072828E-01  0.63091970426E-01  0.88904323560E+00  0.88000000000E+00 0. -1.
        -11    1    4    4    0    0 -0.47671239931E-01 -0.16587499453E-01 -0.26266995460E-01  0.56902622314E-01  0.51100000000E-03 0.  1.
         11    1    4    4    0    0 -0.67674300951E-01 -0.24217993119E-01 -0.19548714076E-01  0.74489835165E-01  0.51100000000E-03 0. -1.
</event>
<event>
 8    1  0.1061722E+005  0.1043930E+01  0.7957747E-01            NaN
         13   -1    0    0    0    0  0.00000000000E+00  0.00000000000E+00  0.74505805969E-08  0.10566000000E+00  0.10566000000E+00 0. -1.
     999900   -1    0    0    0    0 -0.00000000000E+00 -0.00000000000E+00 -0.74505805969E-08  0.93827000000E+00  0.93827000000E+00 0. -1.
     999902    2    1    2    0    0  0.21759375296E-01 -0.12959770018E-01 -0.99303739759E-02  0.10167263536E+01  0.10163623565E+01 0.  0.
     999903    2    3    3    0    0  0.10648281565E+00  0.37140123837E-02  0.68081552103E-01  0.12906541774E+00  0.25892091526E-01 0.  0.
         14    1    1    2    0    0 -0.21759375296E-01  0.12959770018E-01  0.99303739759E-02  0.27203646438E-01  0.00000000000E+00 0.  1.
     999901    1    3    3    0    0 -0.84723440356E-01 -0.16673782402E-01 -0.78011926079E-01  0.88766093582E+00  0.88000000000E+00 0. -1.
        -11    1    4    4    0    0  0.28215483101E-01 -0.56853440274E-02  0.77943659831E-02  0.29823646413E-01  0.51100000000E-03 0.  1.
         11    1    4    4    0    0  0.78267332552E-01  0.93993564111E-02  0.60287186120E-01  0.99241771332E-01  0.51100000000E-03 0. -1.
</event>
<event>
 8    1  0.1061722E+005  0.1043930E+01  0.7957747E-01            NaN
         13   -1    0    0    0    0  0.00000000000E+00  0.00000000000E+00  0.74505805969E-08  0.10566000000E+00  0.10566000000E+00 0. -1.
     999900   -1    0    0    0    0 -0.00000000000E+00 -0.00000000000E+00 -0.74505805969E-08  0.93827000000E+00  0.93827000000E+00 0.  1.
     999902    2    1    2    0    0  0.10701073348E-01  0.19213089456E-01  0.51030078658E-02  0.10213535418E+01  0.10211039912E+01 0.  0.
     999903    2    3    3    0    0 -0.44617229053E-02 -0.93703622993E-01  0.87880968607E-01  0.13015643387E+00  0.20429309829E-01 0.  0.
         14    1    1    2    0    0 -0.10701073348E-01 -0.19213089456E-01 -0.51030078658E-02  0.22576458237E-01  0.00000000000E+00 0.  1.
     999901    1    3    3    0    0  0.15162796253E-01  0.11291671245E+00 -0.82777960741E-01  0.89119710790E+00  0.88000000000E+00 0.  1.
        -11    1    4    4    0    0 -0.89409576131E-02 -0.54034894507E-01  0.40048438295E-01  0.67851669679E-01  0.51100000000E-03 0.  1.
         11    1    4    4    0    0  0.44792347078E-02 -0.39668728486E-01  0.47832530312E-01  0.62304764186E-01  0.51100000000E-03 0. -1.
</event>
<event>
 8    1  0.1061722E+005  0.1043930E+01  0.7957747E-01            NaN
         13   -1    0    0    0    0  0.00000000000E+00  0.00000000000E+00  0.74505805969E-08  0.10566000000E+00  0.10566000000E+00 0.  1.
     999900   -1    0    0    0    0 -0.00000000000E+00 -0.00000000000E+00 -0.74505805969E-08  0.93827000000E+00  0.93827000000E+00 0.  1.
     999902    2    1    2    0    0 -0.80817925311E-02 -0.18632042607E-01 -0.11246949690E-01  0.10207144393E+01  0.10204503929E+01 0.  0.
     999903    2    3    3    0    0 -0.82467214408E-01 -0.58345262964E-01  0.82739063611E-01  0.13170167134E+00  0.17162937532E-01 0.  0.
         14    1    1    2    0    0  0.80817925311E-02  0.18632042607E-01  0.11246949690E-01  0.23215560720E-01  0.00000000000E+00 0.  1.
     999901    1    3    3    0    0  0.74385421877E-01  0.39713220356E-01 -0.93986013301E-01  0.88901276794E+00  0.88000000000E+00 0.  1.
        -11    1    4    4    0    0 -0.23931993519E-01 -0.20273056755E-01  0.35611902029E-01  0.47457410708E-01  0.51100000000E-03 0. -1.
         11    1    4    4    0    0 -0.58535220889E-01 -0.38072206208E-01  0.47127161582E-01  0.84244260634E-01  0.51100000000E-03 0.  1.
</event>
<event>
 8    1  0.1061722E+005  0.1043930E+01  0.7957747E-01            NaN
         13   -1    0    0    0    0  0.00000000000E+00  0.00000000000E+00  0.74505805969E-08  0.10566000000E+00  0.10566000000E+00 0. -1.
     999900   -1    0    0    0    0 -0.00000000000E+00 -0.00000000000E+00 -0.74505805969E-08  0.93827000000E+00  0.93827000000E+00 0.  1.
     999902    2    1    2    0    0 -0.13847413396E-01  0.95142338928E-02 -0.16680595175E-01  0.10202548282E+01  0.10199800982E+01 0.  0.
     999903    2    3    3    0    0  0.18649445160E-01  0.47561021077E-01  0.11666763465E+00  0.12880356524E+00  0.19213768829E-01 0.  0.
         14    1    1    2    0    0  0.13847413396E-01 -0.95142338928E-02  0.16680595175E-01  0.23675171799E-01  0.00000000000E+00 0. -1.
     999901    1    3    3    0    0 -0.32496858556E-01 -0.38046787185E-01 -0.13334822983E+00  0.89145126296E+00  0.88000000000E+00 0. -1.
        -11    1    4    4    0    0  0.22477081349E-02  0.26170880267E-01  0.71844459514E-01  0.76497415967E-01  0.51100000000E-03 0. -1.
         11    1    4    4    0    0  0.16401737025E-01  0.21390140811E-01  0.44823175141E-01  0.52306149276E-01  0.51100000000E-03 0.  1.
</event>
<event>
 8    1  0.1061722E+005  0.1043930E+01  0.7957747E-01            NaN
         13   -1    0    0    0    0  0.00000000000E+00  0.00000000000E+00  0.74505805969E-08  0.10566000000E+00  0.10566000000E+00 0.  1.
     999900   -1    0    0    0    0 -0.00000000000E+00 -0.00000000000E+00 -0.74505805969E-08  0.93827000000E+00  0.93827000000E+00 0. -1.
     999902    2    1    2    0    0  0.22298698036E-01 -0.56803724395E-02  0.61734535685E-02  0.10201054309E+01  0.10198271814E+01 0.  0.
     999903    2    3    3    0    0  0.69120976263E-02 -0.30528757893E-01  0.12607800628E+00  0.13149342809E+00  0.20373409389E-01 0.  0.
         14    1    1    2    0    0 -0.22298698036E-01  0.56803724395E-02 -0.61734535685E-02  0.23824569128E-01  0.00000000000E+00 0. -1.
     999901    1    3    3    0    0  0.15386600410E-01  0.24848385454E-01 -0.11990455271E+00  0.88861200278E+00  0.88000000000E+00 0. -1.
        -11    1    4    4    0    0  0.79255316010E-02 -0.28702852310E-01  0.79971124396E-01  0.85336449657E-01  0.51100000000E-03 0.  1.
         11    1    4    4    0    0 -0.10134339747E-02 -0.18259055830E-02  0.46106881886E-01  0.46156978430E-01  0.51100000000E-03 0. -1.
</event>
<event>
 7    1  0.1061722E+005  0.1043930E+01  0.7957747E-01            NaN
         13   -1    0    0    0    0  0.00000000000E+00  0.00000000000E+00  0.74505805969E-08  0.10566000000E+00  0.10566000000E+00 0. -1.
     999900   -1    0    0    0    0 -0.00000000000E+00 -0.00000000000E+00 -0.74505805969E-08  0.93827000000E+00  0.93827000000E+00 0.  1.
     999903    2    1    2    0    0  0.66083898664E-01  0.62162234604E-02 -0.90444741068E-01  0.11391950524E+00  0.19790891583E-01 0.  0.
         14    1    1    2    0    0 -0.90474955571E-02 -0.30485578816E-01 -0.24809963663E-01  0.40333137599E-01  0.00000000000E+00 0.  1.
     999901    1    1    2    0    0 -0.57036403107E-01  0.24269355356E-01  0.11525470473E+00  0.88967735716E+00  0.88000000000E+00 0. -1.
        -11    1    3    3    0    0  0.31607690799E-01  0.73792338953E-02 -0.29379488381E-01  0.43782584084E-01  0.51100000000E-03 0.  1.
         11    1    3    3    0    0  0.34476207865E-01 -0.11630104349E-02 -0.61065252687E-01  0.70136921152E-01  0.51100000000E-03 0. -1.
</event>
<event>
 8    1  0.1061722E+005  0.1043930E+01  0.7957747E-01            NaN
         13   -1    0    0    0    0  0.00000000000E+00  0.00000000000E+00  0.74505805969E-08  0.10566000000E+00  0.10566000000E+00 0.  1.
     999900   -1    0    0    0    0 -0.00000000000E+00 -0.00000000000E+00 -0.74505805969E-08  0.93827000000E+00  0.93827000000E+00 0. -1.
     999902    2    1    2    0    0  0.20221749559E-01  0.96675310197E-02  0.44672960923E-02  0.10210753058E+01  0.10208194959E+01 0.  0.
     999903    2    3    3    0    0  0.73617040287E-01 -0.25644952204E-01  0.10584647897E+00  0.13294481583E+00  0.19842246631E-01 0.  0.
         14    1    1    2    0    0 -0.20221749559E-01 -0.96675310197E-02 -0.44672960923E-02  0.22854694171E-01  0.00000000000E+00 0. -1.
     999901    1    3    3    0    0 -0.53395290727E-01  0.35312483224E-01 -0.10137918288E+00  0.88813049000E+00  0.88000000000E+00 0. -1.
        -11    1    4    4    0    0  0.49454813567E-01 -0.92456250224E-02  0.76329670972E-01  0.91420675772E-01  0.51100000000E-03 0.  1.
         11    1    4    4    0    0  0.24162226720E-01 -0.16399327182E-01  0.29516808001E-01  0.41524140059E-01  0.51100000000E-03 0. -1.
</event>
<event>
 8    1  0.1061722E+005  0.1043930E+01  0.7957747E-01            NaN
         13   -1    0    0    0    0  0.00000000000E+00  0.00000000000E+00  0.74505805969E-08  0.10566000000E+00  0.10566000000E+00 0. -1.
     999900   -1    0    0    0    0 -0.00000000000E+00 -0.00000000000E+00 -0.74505805969E-08  0.93827000000E+00  0.93827000000E+00 0. -1.
     999902    2    1    2    0    0 -0.37379064161E-02  0.45635506587E-02 -0.22799711416E-01  0.10203795270E+01  0.10201077170E+01 0.  0.
     999903    2    3    3    0    0  0.15409921963E-01  0.10993041679E+00 -0.69944944634E-01  0.13263435587E+00  0.19427167738E-01 0.  0.
         14    1    1    2    0    0  0.37379064161E-02 -0.45635506587E-02  0.22799711416E-01  0.23550473023E-01  0.00000000000E+00 0. -1.
     999901    1    3    3    0    0 -0.19147828379E-01 -0.10536686613E+00  0.47145233219E-01  0.88774517111E+00  0.88000000000E+00 0.  1.
        -11    1    4    4    0    0 -0.26509734986E-02  0.13924043522E-01 -0.14598023938E-01  0.20353625534E-01  0.51100000000E-03 0.  1.
         11    1    4    4    0    0  0.18060895461E-01  0.96006373268E-01 -0.55346920697E-01  0.11228073033E+00  0.51100000000E-03 0. -1.
</event>
<event>
 8    1  0.1061722E+005  0.1043930E+01  0.7957747E-01            NaN
         13   -1    0    0    0    0  0.00000000000E+00  0.00000000000E+00  0.74505805969E-08  0.10566000000E+00  0.10566000000E+00 0.  1.
     999900   -1    0    0    0    0 -0.00000000000E+00 -0.00000000000E+00 -0.74505805969E-08  0.93827000000E+00  0.93827000000E+00 0.  1.
     999902    2    1    2    0    0 -0.17083315057E-01  0.32920171973E-02  0.18496522935E-01  0.10185371193E+01  0.10182205385E+01 0.  0.
     999903    2    3    3    0    0 -0.43188026741E-01  0.18323777561E-01  0.12169438603E+00  0.13199484238E+00  0.20301437021E-01 0.  0.
         14    1    1    2    0    0  0.17083315057E-01 -0.32920171973E-02 -0.18496522935E-01  0.25392880720E-01  0.00000000000E+00 0. -1.
     999901    1    3    3    0    0  0.26104711684E-01 -0.15031760364E-01 -0.10319786309E+00  0.88654227690E+00  0.88000000000E+00 0.  1.
        -11    1    4    4    0    0 -0.21422530686E-01  0.29645975608E-02  0.33619514187E-01  0.39978075427E-01  0.51100000000E-03 0. -1.
         11    1    4    4    0    0 -0.21765496055E-01  0.15359180001E-01  0.88074871841E-01  0.92016766949E-01  0.51100000000E-03 0.  1.
</event>
<event>
 8    1  0.1061722E+005  0.1043930E+01  0.7957747E-01            NaN
         13   -1    0    0    0    0  0.00000000000E+00  0.00000000000E+00  0.74505805969E-08  0.10566000000E+00  0.10566000000E+00 0. -1.
     999900   -1    0    0    0    0 -0.00000000000E+00 -0.00000000000E+00 -0.74505805969E-08  0.93827000000E+00  0.93827000000E+00 0. -1.
     999902    2    1    2    0    0  0.14586370759E-02  0.73108206135E-02  0.22966175611E-01  0.10197841734E+01  0.10194982783E+01 0.  0.
     999903    2    3    3    0    0 -0.49187285619E-01  0.10934709208E+00  0.51476211723E-01  0.13198395244E+00  0.19844085129E-01 0.  0.
         14    1    1    2    0    0 -0.14586370759E-02 -0.73108206135E-02 -0.22966175611E-01  0.24145826603E-01  0.00000000000E+00 0.  1.
     999901    1    3    3    0    0  0.50645922694E-01 -0.10203627146E+00 -0.28510036112E-01  0.88780022096E+00  0.88000000000E+00 0. -1.
        -11    1    4    4    0    0 -0.49509540507E-02  0.29318186090E-01  0.17028987541E-01  0.34268287371E-01  0.51100000000E-03 0. -1.
         11    1    4    4    0    0 -0.44236331568E-01  0.80028905988E-01  0.34447224181E-01  0.97715665065E-01  0.51100000000E-03 0.  1.
</event>
<event>
 8    1  0.1061722E+005  0.1043930E+01  0.7957747E-01            NaN
         13   -1    0    0    0    0  0.00000000000E+00  0.00000000000E+00  0.74505805969E-08  0.10566000000E+00  0.10566000000E+00 0. -1.
     999900   -1    0    0    0    0 -0.00000000000E+00 -0.00000000000E+00 -0.74505805969E-08  0.93827000000E+00  0.93827000000E+00 0. -1.
     999902    2    1    2    0    0  0.15057117842E-01  0.43505160340E-03 -0.22060835750E-01  0.10172169593E+01  0.10168661445E+01 0.  0.
     999903    2    3    3    0    0 -0.63302996703E-01  0.63738853708E-01  0.85411854052E-01  0.12497368647E+00  0.15916238075E-01 0.  0.
         14    1    1    2    0    0 -0.15057117842E-01 -0.43505160340E-03  0.22060835750E-01  0.26713040665E-01  0.00000000000E+00 0. -1.
     999901    1    3    3    0    0  0.78360114545E-01 -0.63303802105E-01 -0.10747268980E+00  0.89224327286E+00  0.88000000000E+00 0. -1.
        -11    1    4    4    0    0 -0.17199631670E-01  0.89547193434E-02  0.14690958649E-01  0.24333099168E-01  0.51100000000E-03 0. -1.
         11    1    4    4    0    0 -0.46103365033E-01  0.54784134365E-01  0.70720895403E-01  0.10064058731E+00  0.51100000000E-03 0.  1.
</event>
<event>
 8    1  0.1061722E+005  0.1043930E+01  0.7957747E-01            NaN
         13   -1    0    0    0    0  0.00000000000E+00  0.00000000000E+00  0.74505805969E-08  0.10566000000E+00  0.10566000000E+00 0.  1.
     999900   -1    0    0    0    0 -0.00000000000E+00 -0.00000000000E+00 -0.74505805969E-08  0.93827000000E+00  0.93827000000E+00 0.  1.
     999902    2    1    2    0    0 -0.19468279366E-02 -0.14776444444E-01  0.18753702521E-01  0.10199751506E+01  0.10196938134E+01 0.  0.
     999903    2    3    3    0    0 -0.46425978241E-02  0.13828623038E-02  0.13102682147E+00  0.13269072972E+00  0.20379788731E-01 0.  0.
         14    1    1    2    0    0  0.19468279366E-02  0.14776444444E-01 -0.18753702521E-01  0.23954849356E-01  0.00000000000E+00 0. -1.
     999901    1    3    3    0    0  0.26957698875E-02 -0.16159306748E-01 -0.11227311894E+00  0.88728442092E+00  0.88000000000E+00 0.  1.
        -11    1    4    4    0    0  0.36566680215E-02 -0.76488402236E-02  0.45297942733E-01  0.46087316201E-01  0.51100000000E-03 0.  1.
         11    1    4    4    0    0 -0.82992658456E-02  0.90317025274E-02  0.85728878732E-01  0.86603413523E-01  0.51100000000E-03 0. -1.
</event>
<event>
 8    1  0.1061722E+005  0.1043930E+01  0.7957747E-01            NaN
         13   -1    0    0    0    0  0.00000000000E+00  0.00000000000E+00  0.74505805969E-08  0.10566000000E+00  0.10566000000E+00 0.  1.
     999900   -1    0    0    0    0 -0.00000000000E+00 -0.00000000000E+00 -0.74505805969E-08  0.93827000000E+00  0.93827000000E+00 0.  1.
     999902    2    1    2    0    0 -0.23691994698E-01  0.24994388695E-02  0.20450236779E-02  0.10200189162E+01  0.10197386182E+01 0.  0.
     999903    2    3    3    0    0 -0.33119419946E-01  0.82237394797E-01 -0.94417869510E-01  0.13111391129E+00  0.20401925657E-01 0.  0.
         14    1    1    2    0    0  0.23691994698E-01 -0.24994388695E-02 -0.20450236779E-02  0.23911083816E-01  0.00000000000E+00 0.  1.
     999901    1    3    3    0    0  0.94274252488E-02 -0.79737955927E-01  0.96462893188E-01  0.88890500489E+00  0.88000000000E+00 0. -1.
        -11    1    4    4    0    0 -0.94102200923E-02  0.73921843761E-02 -0.82622150847E-02  0.14550668409E-01  0.51100000000E-03 0.  1.
         11    1    4    4    0    0 -0.23709199854E-01  0.74845210420E-01 -0.86155654426E-01  0.11656324288E+00  0.51100000000E-03 0. -1.
</event>
<event>
 8    1  0.1061722E+005  0.1043930E+01  0.7957747E-01            NaN
         13   -1    0    0    0    0  0.00000000000E+00  0.00000000000E+00  0.74505805969E-08  0.10566000000E+00  0.10566000000E+00 0.  1.
     999900   -1    0    0    0    0 -0.00000000000E+00 -0.00000000000E+00 -0.74505805969E-08  0.93827000000E+00  0.93827000000E+00 0.  1.
     999902    2    1    2    0    0  0.83811745918E-02  0.18402251594E-01 -0.98131095792E-02  0.10214536998E+01  0.10212063830E+01 0.  0.
     999903    2    3    3    0    0  0.11929070822E+00  0.53716595289E-01  0.16061074026E-01  0.13341231512E+00  0.20618973017E-01 0.  0.
         14    1    1    2    0    0 -0.83811745918E-02 -0.18402251594E-01  0.98131095792E-02  0.22476300204E-01  0.00000000000E+00 0. -1.
     999901    1    3    3    0    0 -0.11090953363E+00 -0.35314343696E-01 -0.25874183605E-01  0.88804138468E+00  0.88000000000E+00 0.  1.
        -11    1    4    4    0    0  0.49474101604E-01  0.11551401415E-01  0.40319483137E-02  0.50967041628E-01  0.51100000000E-03 0.  1.
         11    1    4    4    0    0  0.69816606621E-01  0.42165193874E-01  0.12029125712E-01  0.82445273490E-01  0.51100000000E-03 0. -1.
</event>
<event>
 8    1  0.1061722E+005  0.1043930E+01  0.7957747E-01            NaN
         13   -1    0    0    0    0  0.00000000000E+00  0.00000000000E+00  0.74505805969E-08  0.10566000000E+00  0.10566000000E+00 0.  1.
     999900   -1    0    0    0    0 -0.00000000000E+00 -0.00000000000E+00 -0.74505805969E-08  0.93827000000E+00  0.93827000000E+00 0.  1.
     999902    2    1    2    0    0 -0.15453519319E-01  0.28028740516E-02 -0.17937323288E-01  0.10200885460E+01  0.10198098974E+01 0.  0.
     999903    2    3    3    0    0 -0.88087169256E-01 -0.93685503741E-01  0.16600006157E-01  0.13116870637E+00  0.19832960644E-01 0.  0.
         14    1    1    2    0    0  0.15453519319E-01 -0.28028740516E-02  0.17937323288E-01  0.23841454005E-01  0.00000000000E+00 0.  1.
     999901    1    3    3    0    0  0.72633649937E-01  0.96488377793E-01 -0.34537329446E-01  0.88891983962E+00  0.88000000000E+00 0.  1.
        -11    1    4    4    0    0 -0.59273676303E-01 -0.55989866109E-01  0.18766091652E-01  0.83669953545E-01  0.51100000000E-03 0.  1.
         11    1    4    4    0    0 -0.28813492953E-01 -0.37695637633E-01 -0.21660854947E-02  0.47498752826E-01  0.51100000000E-03 0. -1.
</event>
<event>
 8    1  0.1061722E+005  0.1043930E+01  0.7957747E-01            NaN
         13   -1    0    0    0    0  0.00000000000E+00  0.00000000000E+00  0.74505805969E-08  0.10566000000E+00  0.10566000000E+00 0. -1.
     999900   -1    0    0    0    0 -0.00000000000E+00 -0.00000000000E+00 -0.74505805969E-08  0.93827000000E+00  0.93827000000E+00 0.  1.
     999902    2    1    2    0    0  0.12835192167E-01  0.10972802631E-01  0.19512726468E-01  0.10181251352E+01  0.10177980643E+01 0.  0.
     999903    2    3    3    0    0 -0.11707074637E+00 -0.41388210411E-01  0.20812288363E-01  0.12704774378E+00  0.17012766880E-01 0.  0.
         14    1    1    2    0    0 -0.12835192167E-01 -0.10972802631E-01 -0.19512726468E-01  0.25804864846E-01  0.00000000000E+00 0.  1.
     999901    1    3    3    0    0  0.12990593853E+00  0.52361013042E-01 -0.12995618956E-02  0.89107739137E+00  0.88000000000E+00 0. -1.
        -11    1    4    4    0    0 -0.10474373263E+00 -0.31851939981E-01  0.15491340376E-01  0.11057141743E+00  0.51100000000E-03 0.  1.
         11    1    4    4    0    0 -0.12327013737E-01 -0.95362704304E-02  0.53209479870E-02  0.16476326347E-01  0.51100000000E-03 0. -1.
</event>
<event>
 8    1  0.1061722E+005  0.1043930E+01  0.7957747E-01            NaN
         13   -1    0    0    0    0  0.00000000000E+00  0.00000000000E+00  0.74505805969E-08  0.10566000000E+00  0.10566000000E+00 0.  1.
     999900   -1    0    0    0    0 -0.00000000000E+00 -0.00000000000E+00 -0.74505805969E-08  0.93827000000E+00  0.93827000000E+00 0.  1.
     999902    2    1    2    0    0  0.72782224281E-02 -0.14069142025E-01  0.18223813643E-01  0.10197841792E+01  0.10194982842E+01 0.  0.
     999903    2    3    3    0    0 -0.10741167514E+00 -0.41154597166E-01 -0.54686541324E-01  0.12894002090E+00  0.20098317430E-01 0.  0.
         14    1    1    2    0    0 -0.72782224281E-02  0.14069142025E-01 -0.18223813643E-01  0.24145820813E-01  0.00000000000E+00 0. -1.
     999901    1    3    3    0    0  0.11468989757E+00  0.27085455141E-01  0.72910354967E-01  0.89084415828E+00  0.88000000000E+00 0. -1.
        -11    1    4    4    0    0 -0.42966872491E-01 -0.61425565195E-02 -0.21446826338E-01  0.48416016082E-01  0.51100000000E-03 0.  1.
         11    1    4    4    0    0 -0.64444802654E-01 -0.35012040647E-01 -0.33239714985E-01  0.80524004822E-01  0.51100000000E-03 0. -1.
</event>
<event>
 8    1  0.1061722E+005  0.1043930E+01  0.7957747E-01            NaN
         13   -1    0    0    0    0  0.00000000000E+00  0.00000000000E+00  0.74505805969E-08  0.10566000000E+00  0.10566000000E+00 0. -1.
     999900   -1    0    0    0    0 -0.00000000000E+00 -0.00000000000E+00 -0.74505805969E-08  0.93827000000E+00  0.93827000000E+00 0.  1.
     999902    2    1    2    0    0 -0.18132901111E-01  0.44467848683E-02 -0.11430732200E-01  0.10220385031E+01  0.10218040243E+01 0.  0.
     999903    2    3    3    0    0 -0.64667105795E-01  0.34655102616E-01 -0.11105567696E+00  0.13468113185E+00  0.20562907930E-01 0.  0.
         14    1    1    2    0    0  0.18132901111E-01 -0.44467848683E-02  0.11430732200E-01  0.21891496911E-01  0.00000000000E+00 0. -1.
     999901    1    3    3    0    0  0.46534204684E-01 -0.30208317748E-01  0.99624944762E-01  0.88735737124E+00  0.88000000000E+00 0. -1.
        -11    1    4    4    0    0 -0.22274825556E-01  0.18794205292E-01 -0.58203883601E-01  0.65094878395E-01  0.51100000000E-03 0.  1.
         11    1    4    4    0    0 -0.42392280239E-01  0.15860897324E-01 -0.52851793362E-01  0.69586253458E-01  0.51100000000E-03 0. -1.
</event>
<event>
 8    1  0.1061722E+005  0.1043930E+01  0.7957747E-01            NaN
         13   -1    0    0    0    0  0.00000000000E+00  0.00000000000E+00  0.74505805969E-08  0.10566000000E+00  0.10566000000E+00 0.  1.
     999900   -1    0    0    0    0 -0.00000000000E+00 -0.00000000000E+00 -0.74505805969E-08  0.93827000000E+00  0.93827000000E+00 0.  1.
     999902    2    1    2    0    0 -0.78147257403E-02  0.21838585507E-01 -0.21851566091E-01  0.10120633294E+01  0.10115615147E+01 0.  0.
     999903    2    3    3    0    0  0.70764062888E-01 -0.95442215182E-01 -0.84613098157E-02  0.12071114804E+00  0.19565747151E-01 0.  0.
         14    1    1    2    0    0  0.78147257403E-02 -0.21838585507E-01  0.21851566091E-01  0.31866670613E-01  0.00000000000E+00 0.  1.
     999901    1    3    3    0    0 -0.78578788629E-01  0.11728080069E+00 -0.13390256275E-01  0.89135218135E+00  0.88000000000E+00 0.  1.
        -11    1    4    4    0    0  0.38300118474E-01 -0.66166813869E-01 -0.90650824389E-02  0.76989500410E-01  0.51100000000E-03 0.  1.
         11    1    4    4    0    0  0.32463944414E-01 -0.29275401313E-01  0.60377262315E-03  0.43721647628E-01  0.51100000000E-03 0. -1.
</event>
<event>
 8    1  0.1061722E+005  0.1043930E+01  0.7957747E-01            NaN
         13   -1    0    0    0    0  0.00000000000E+00  0.00000000000E+00  0.74505805969E-08  0.10566000000E+00  0.10566000000E+00 0.  1.
     999900   -1    0    0    0    0 -0.00000000000E+00 -0.00000000000E+00 -0.74505805969E-08  0.93827000000E+00  0.93827000000E+00 0. -1.
     999902    2    1    2    0    0  0.15844588317E-01 -0.17642055087E-01 -0.25205356401E-02  0.10200836966E+01  0.10198049332E+01 0.  0.
     999903    2    3    3    0    0 -0.44419516555E-01  0.49959097327E-01  0.10798828019E+00  0.12856035055E+00  0.19932140368E-01 0.  0.
         14    1    1    2    0    0 -0.15844588317E-01  0.17642055087E-01  0.25205356401E-02  0.23846303414E-01  0.00000000000E+00 0.  1.
     999901    1    3    3    0    0  0.60264104872E-01 -0.67601152414E-01 -0.11050881583E+00  0.89152334603E+00  0.88000000000E+00 0.  1.
        -11    1    4    4    0    0 -0.79703788741E-02  0.10013690953E-01  0.38083860948E-01  0.40180126078E-01  0.51100000000E-03 0. -1.
         11    1    4    4    0    0 -0.36449137681E-01  0.39945406374E-01  0.69904419241E-01  0.88380224476E-01  0.51100000000E-03 0.  1.
</event>
<event>
 8    1  0.1061722E+005  0.1043930E+01  0.7957747E-01            NaN
         13   -1    0    0    0    0  0.00000000000E+00  0.00000000000E+00  0.74505805969E-08  0.10566000000E+00  0.10566000000E+00 0. -1.
     999900   -1    0    0    0    0 -0.00000000000E+00 -0.00000000000E+00 -0.74505805969E-08  0.93827000000E+00  0.93827000000E+00 0.  1.
     999902    2    1    2    0    0 -0.23949203238E-01 -0.49786191843E-02  0.10316410940E-01  0.10173823199E+01  0.10170358919E+01 0.  0.
     999903    2    3    3    0    0 -0.11452336956E-02 -0.99419589970E-01  0.79924625002E-01  0.12930325727E+00  0.21114455461E-01 0.  0.
         14    1    1    2    0    0  0.23949203238E-01  0.49786191843E-02 -0.10316410940E-01  0.26547680113E-01  0.00000000000E+00 0.  1.
     999901    1    3    3    0    0 -0.22803969542E-01  0.94440970785E-01 -0.69608214062E-01  0.88807906261E+00  0.88000000000E+00 0.  1.
        -11    1    4    4    0    0 -0.34858210972E-02 -0.13855481353E-01  0.20923661730E-01  0.25341390124E-01  0.51100000000E-03 0. -1.
         11    1    4    4    0    0  0.23405874016E-02 -0.85564108617E-01  0.59000963272E-01  0.10396186715E+00  0.51100000000E-03 0.  1.
</event>
<event>
 8    1  0.1061722E+005  0.1043930E+01  0.7957747E-01            NaN
         13   -1    0    0    0    0  0.00000000000E+00  0.00000000000E+00  0.74505805969E-08  0.10566000000E+00  0.10566000000E+00 0. -1.
     999900   -1    0    0    0    0 -0.00000000000E+00 -0.00000000000E+00 -0.74505805969E-08  0.93827000000E+00  0.93827000000E+00 0.  1.
     999902    2    1    2    0    0  0.19432978054E-01  0.37667032910E-02 -0.12340087402E-01  0.10206039106E+01  0.10203373148E+01 0.  0.
     999903    2    3    3    0    0  0.10195177309E+00 -0.76115455578E-01  0.29629702165E-01  0.13214908672E+00  0.19943301042E-01 0.  0.
         14    1    1    2    0    0 -0.19432978054E-01 -0.37667032910E-02  0.12340087402E-01  0.23326089403E-01  0.00000000000E+00 0.  1.
     999901    1    3    3    0    0 -0.82518795033E-01  0.79882158869E-01 -0.41969789567E-01  0.88845482388E+00  0.88000000000E+00 0.  1.
        -11    1    4    4    0    0  0.52158311301E-01 -0.34426589708E-01  0.24055313286E-01  0.66967146684E-01  0.51100000000E-03 0. -1.
         11    1    4    4    0    0  0.49793461786E-01 -0.41688865870E-01  0.55743888782E-02  0.65181940034E-01  0.51100000000E-03 0.  1.
</event>
<event>
 8    1  0.1061722E+005  0.1043930E+01  0.7957747E-01            NaN
         13   -1    0    0    0    0  0.00000000000E+00  0.00000000000E+00  0.74505805969E-08  0.10566000000E+00  0.10566000000E+00 0.  1.
     999900   -1    0    0    0    0 -0.00000000000E+00 -0.00000000000E+00 -0.74505805969E-08  0.93827000000E+00  0.93827000000E+00 0.  1.
     999902    2    1    2    0    0 -0.29875679942E-02  0.22133306823E-02 -0.23375781944E-01  0.10202603659E+01  0.10199857659E+01 0.  0.
     999903    2    3    3    0    0 -0.64418635879E-01 -0.86303438501E-01 -0.74100853717E-01  0.13223895435E+00  0.19953956511E-01 0.  0.
         14    1    1    2    0    0  0.29875679942E-02 -0.22133306823E-02  0.23375781944E-01  0.23669634064E-01  0.00000000000E+00 0.  1.
     999901    1    3    3    0    0  0.61431067885E-01  0.88516769183E-01  0.50725071773E-01  0.88802141159E+00  0.88000000000E+00 0. -1.
        -11    1    4    4    0    0 -0.26238592383E-01 -0.40142356536E-01 -0.44472190981E-01  0.65405729185E-01  0.51100000000E-03 0.  1.
         11    1    4    4    0    0 -0.38180043497E-01 -0.46161081964E-01 -0.29628662737E-01  0.66833225166E-01  0.51100000000E-03 0. -1.
</event>
<event>
 8    1  0.1061722E+005  0.1043930E+01  0.7957747E-01            NaN
         13   -1    0    0    0    0  0.00000000000E+00  0.00000000000E+00  0.74505805969E-08  0.10566000000E+00  0.10566000000E+00 0.  1.
     999900   -1    0    0    0    0 -0.00000000000E+00 -0.00000000000E+00 -0.74505805969E-08  0.93827000000E+00  0.93827000000E+00 0. -1.
     999902    2    1    2    0    0  0.93719497294E-02  0.22438451897E-01  0.51388492611E-02  0.10190759191E+01  0.10187727929E+01 0.  0.
     999903    2    3    3    0    0 -0.20337960630E-01  0.73257861461E-01 -0.10427751096E+00  0.13034804678E+00  0.18343039549E-01 0.  0.
         14    1    1    2    0    0 -0.93719497294E-02 -0.22438451897E-01 -0.51388492611E-02  0.24854080892E-01  0.00000000000E+00 0.  1.
     999901    1    3    3    0    0  0.29709910360E-01 -0.50819409564E-01  0.10941636022E+00  0.88872787232E+00  0.88000000000E+00 0.  1.
        -11    1    4    4    0    0 -0.21231221494E-01  0.43246330268E-01 -0.63869716633E-01  0.80003822856E-01  0.51100000000E-03 0.  1.
         11    1    4    4    0    0  0.89326086392E-03  0.30011531192E-01 -0.40407794327E-01  0.50344223928E-01  0.51100000000E-03 0. -1.
</event>
<event>
 8    1  0.1061722E+005  0.1043930E+01  0.7957747E-01            NaN
         13   -1    0    0    0    0  0.00000000000E+00  0.00000000000E+00  0.74505805969E-08  0.10566000000E+00  0.10566000000E+00 0. -1.
     999900   -1    0    0    0    0 -0.00000000000E+00 -0.00000000000E+00 -0.74505805969E-08  0.93827000000E+00  0.93827000000E+00 0. -1.
     999902    2    1    2    0    0  0.67702586630E-02  0.19671790625E-01 -0.10302331229E-01  0.10207146220E+01  0.10204505797E+01 0.  0.
     999903    2    3    3    0    0  0.40296680300E-02 -0.15935973783E-01 -0.12951003052E+00  0.13195936921E+00  0.19241456107E-01 0.  0.
         14    1    1    2    0    0 -0.67702586630E-02 -0.19671790625E-01  0.10302331229E-01  0.23215378039E-01  0.00000000000E+00 0. -1.
     999901    1    3    3    0    0  0.27405906329E-02  0.35607764408E-01  0.11920769929E+00  0.88875525275E+00  0.88000000000E+00 0.  1.
        -11    1    4    4    0    0 -0.18969772343E-02  0.34165187175E-02 -0.10037274169E-01  0.10783279488E-01  0.51100000000E-03 0.  1.
         11    1    4    4    0    0  0.59266452643E-02 -0.19352492501E-01 -0.11947275635E+00  0.12117608972E+00  0.51100000000E-03 0. -1.
</event>
<event>
 8    1  0.1061722E+005  0.1043930E+01  0.7957747E-01            NaN
         13   -1    0    0    0    0  0.00000000000E+00  0.00000000000E+00  0.74505805969E-08  0.10566000000E+00  0.10566000000E+00 0. -1.
     999900   -1    0    0    0    0 -0.00000000000E+00 -0.00000000000E+00 -0.74505805969E-08  0.93827000000E+00  0.93827000000E+00 0.  1.
     999902    2    1    2    0    0 -0.80150465361E-02 -0.20896399556E-01 -0.17796769323E-02  0.10214785471E+01  0.10212317830E+01 0.  0.
     999903    2    3    3    0    0  0.13369668757E-01  0.12574865758E+00 -0.15580866341E-01  0.12898061904E+00  0.20044045652E-01 0.  0.
         14    1    1    2    0    0  0.80150465361E-02  0.20896399556E-01  0.17796769323E-02  0.22451452857E-01  0.00000000000E+00 0.  1.
     999901    1    3    3    0    0 -0.21384715293E-01 -0.14664505714E+00  0.13801189408E-01  0.89249792810E+00  0.88000000000E+00 0. -1.
        -11    1    4    4    0    0  0.19190660860E-02  0.99227551130E-02  0.41334634883E-02  0.10931172173E-01  0.51100000000E-03 0.  1.
         11    1    4    4    0    0  0.11450602671E-01  0.11582590247E+00 -0.19714329829E-01  0.11804944687E+00  0.51100000000E-03 0. -1.
</event>
<event>
 8    1  0.1061722E+005  0.1043930E+01  0.7957747E-01            NaN
         13   -1    0    0    0    0  0.00000000000E+00  0.00000000000E+00  0.74505805969E-08  0.10566000000E+00  0.10566000000E+00 0.  1.
     999900   -1    0    0    0    0 -0.00000000000E+00 -0.00000000000E+00 -0.74505805969E-08  0.93827000000E+00  0.93827000000E+00 0.  1.
     999902    2    1    2    0    0 -0.33794387705E-02 -0.55348350748E-04 -0.21203092971E-01  0.10224592100E+01  0.10222337509E+01 0.  0.
     999903    2    3    3    0    0  0.65774445298E-01  0.91288965882E-01 -0.69529086007E-01  0.13371771499E+00  0.19651477183E-01 0.  0.
         14    1    1    2    0    0  0.33794387705E-02  0.55348350748E-04  0.21203092971E-01  0.21470789957E-01  0.00000000000E+00 0.  1.
     999901    1    3    3    0    0 -0.69153884069E-01 -0.91344314233E-01  0.48325993037E-01  0.88874149505E+00  0.88000000000E+00 0. -1.
        -11    1    4    4    0    0  0.58376578446E-01  0.88655707418E-01 -0.66640948246E-01  0.12533529620E+00  0.51100000000E-03 0.  1.
         11    1    4    4    0    0  0.73978668525E-02  0.26332584634E-02 -0.28881377607E-02  0.83824187933E-02  0.51100000000E-03 0. -1.
</event>
<event>
 8    1  0.1061722E+005  0.1043930E+01  0.7957747E-01            NaN
         13   -1    0    0    0    0  0.00000000000E+00  0.00000000000E+00  0.74505805969E-08  0.10566000000E+00  0.10566000000E+00 0.  1.
     999900   -1    0    0    0    0 -0.00000000000E+00 -0.00000000000E+00 -0.74505805969E-08  0.93827000000E+00  0.93827000000E+00 0. -1.
     999902    2    1    2    0    0 -0.13023859367E-01  0.19186214504E-01 -0.29586080548E-02  0.10205529792E+01  0.10202852044E+01 0.  0.
     999903    2    3    3    0    0 -0.10016258677E+00 -0.75184928106E-01  0.31060095864E-01  0.13057750617E+00  0.20010955999E-01 0.  0.
         14    1    1    2    0    0  0.13023859367E-01 -0.19186214504E-01  0.29586080548E-02  0.23377020799E-01  0.00000000000E+00 0. -1.
     999901    1    3    3    0    0  0.87138727407E-01  0.94371142611E-01 -0.34018703919E-01  0.88997547303E+00  0.88000000000E+00 0.  1.
        -11    1    4    4    0    0 -0.71980659634E-01 -0.57211383749E-01  0.13876515522E-01  0.92990196235E-01  0.51100000000E-03 0.  1.
         11    1    4    4    0    0 -0.28181927140E-01 -0.17973544357E-01  0.17183580342E-01  0.37587309939E-01  0.51100000000E-03 0. -1.
</event>
<event>
 8    1  0.1061722E+005  0.1043930E+01  0.7957747E-01            NaN
         13   -1    0    0    0    0  0.00000000000E+00  0.00000000000E+00  0.74505805969E-08  0.10566000000E+00  0.10566000000E+00 0.  1.
     999900   -1    0    0    0    0 -0.00000000000E+00 -0.00000000000E+00 -0.74505805969E-08  0.93827000000E+00  0.93827000000E+00 0.  1.
     999902    2    1    2    0    0  0.23212569845E-02  0.10209797805E-01  0.20939357291E-01  0.10205187871E+01  0.10202502193E+01 0.  0.
     999903    2    3    3    0    0 -0.40322028285E-01 -0.75956556475E-01 -0.92628424395E-01  0.12802748103E+00  0.20389861623E-01 0.  0.
         14    1    1    2    0    0 -0.23212569845E-02 -0.10209797805E-01 -0.20939357291E-01  0.23411212889E-01  0.00000000000E+00 0. -1.
     999901    1    3    3    0    0  0.42643285270E-01  0.86166354280E-01  0.11356778169E+00  0.89249130608E+00  0.88000000000E+00 0. -1.
        -11    1    4    4    0    0 -0.18485990584E-01 -0.40352066989E-01 -0.33394450245E-01  0.55547021399E-01  0.51100000000E-03 0. -1.
         11    1    4    4    0    0 -0.21836037702E-01 -0.35604489486E-01 -0.59233974150E-01  0.72480459633E-01  0.51100000000E-03 0.  1.
</event>
<event>
 8    1  0.1061722E+005  0.1043930E+01  0.7957747E-01            NaN
         13   -1    0    0    0    0  0.00000000000E+00  0.00000000000E+00  0.74505805969E-08  0.10566000000E+00  0.10566000000E+00 0. -1.
     999900   -1    0    0    0    0 -0.00000000000E+00 -0.00000000000E+00 -0.74505805969E-08  0.93827000000E+00  0.93827000000E+00 0.  1.
     999902    2    1    2    0    0 -0.25782104620E-01 -0.11135540805E-01  0.17389220410E-01  0.10108981642E+01  0.10103583504E+01 0.  0.
     999903    2    3    3    0    0 -0.96516505916E-01 -0.59766723075E-01 -0.46886930647E-01  0.12438828216E+00  0.19661214925E-01 0.  0.
         14    1    1    2    0    0  0.25782104620E-01  0.11135540805E-01 -0.17389220410E-01  0.33031835767E-01  0.00000000000E+00 0.  1.
     999901    1    3    3    0    0  0.70734401296E-01  0.48631182270E-01  0.64276151057E-01  0.88650988207E+00  0.88000000000E+00 0.  1.
        -11    1    4    4    0    0 -0.67759916939E-01 -0.42710528412E-01 -0.23136245794E-01  0.83373512407E-01  0.51100000000E-03 0. -1.
         11    1    4    4    0    0 -0.28756588977E-01 -0.17056194664E-01 -0.23750684853E-01  0.41014769754E-01  0.51100000000E-03 0.  1.
</event>
<event>
 8    1  0.1061722E+005  0.1043930E+01  0.7957747E-01            NaN
         13   -1    0    0    0    0  0.00000000000E+00  0.00000000000E+00  0.74505805969E-08  0.10566000000E+00  0.10566000000E+00 0. -1.
     999900   -1    0    0    0    0 -0.00000000000E+00 -0.00000000000E+00 -0.74505805969E-08  0.93827000000E+00  0.93827000000E+00 0. -1.
     999902    2    1    2    0    0  0.19907066790E-01 -0.77496503069E-02  0.85450756085E-02  0.10209220295E+01  0.10206627375E+01 0.  0.
     999903    2    3    3    0    0 -0.31580210290E-01 -0.55740883410E-01  0.11360158958E+00  0.13188267760E+00  0.19579676438E-01 0.  0.
         14    1    1    2    0    0 -0.19907066790E-01  0.77496503069E-02 -0.85450756085E-02  0.23007970471E-01  0.00000000000E+00 0.  1.
     999901    1    3    3    0    0  0.51487277080E-01  0.47991233104E-01 -0.10505651397E+00  0.88903935193E+00  0.88000000000E+00 0. -1.
        -11    1    4    4    0    0 -0.20287738561E-01 -0.48415503488E-01  0.80052406041E-01  0.95730361682E-01  0.51100000000E-03 0. -1.
         11    1    4    4    0    0 -0.11292471729E-01 -0.73253799226E-02  0.33549183540E-01  0.36152315914E-01  0.51100000000E-03 0.  1.
</event>
<event>
 8    1  0.1061722E+005  0.1043930E+01  0.7957747E-01            NaN
         13   -1    0    0    0    0  0.00000000000E+00  0.00000000000E+00  0.74505805969E-08  0.10566000000E+00  0.10566000000E+00 0.  1.
     999900   -1    0    0    0    0 -0.00000000000E+00 -0.00000000000E+00 -0.74505805969E-08  0.93827000000E+00  0.93827000000E+00 0. -1.
     999902    2    1    2    0    0 -0.20584571660E-01 -0.13130203542E-01 -0.10259039198E-01  0.10174465199E+01  0.10171017875E+01 0.  0.
     999903    2    3    3    0    0 -0.15025679365E-01 -0.12251263396E+00 -0.36820449749E-01  0.13025943366E+00  0.19407679402E-01 0.  0.
         14    1    1    2    0    0  0.20584571660E-01  0.13130203542E-01  0.10259039198E-01  0.26483480148E-01  0.00000000000E+00 0.  1.
     999901    1    3    3    0    0 -0.55588922957E-02  0.10938243041E+00  0.26561410551E-01  0.88718708619E+00  0.88000000000E+00 0.  1.
        -11    1    4    4    0    0 -0.13672333537E-01 -0.93905515480E-01 -0.36324235853E-01  0.10161146477E+00  0.51100000000E-03 0.  1.
         11    1    4    4    0    0 -0.13533458273E-02 -0.28607118476E-01 -0.49621389612E-03  0.28647968892E-01  0.51100000000E-03 0. -1.
</event>
<event>
 8    1  0.1061722E+005  0.1043930E+01  0.7957747E-01            NaN
         13   -1    0    0    0    0  0.00000000000E+00  0.00000000000E+00  0.74505805969E-08  0.10566000000E+00  0.10566000000E+00 0. -1.
     999900   -1    0    0    0    0 -0.00000000000E+00 -0.00000000000E+00 -0.74505805969E-08  0.93827000000E+00  0.93827000000E+00 0.  1.
     999902    2    1    2    0    0  0.17740634581E-01  0.13046025300E-01 -0.10613545667E-01  0.10194846274E+01  0.10191915076E+01 0.  0.
     999903    2    3    3    0    0  0.10272424562E+00  0.48289071485E-01 -0.66146786762E-01  0.13294741590E+00  0.20384134324E-01 0.  0.
         14    1    1    2    0    0 -0.17740634581E-01 -0.13046025300E-01  0.10613545667E-01  0.24445372631E-01  0.00000000000E+00 0.  1.
     999901    1    3    3    0    0 -0.84983611042E-01 -0.35243046185E-01  0.55533241095E-01  0.88653721147E+00  0.88000000000E+00 0. -1.
        -11    1    4    4    0    0  0.28769841216E-01  0.66434638320E-02 -0.24667369687E-01  0.38478300684E-01  0.51100000000E-03 0.  1.
         11    1    4    4    0    0  0.73954404407E-01  0.41645607653E-01 -0.41479417076E-01  0.94469115217E-01  0.51100000000E-03 0. -1.
</event>
<event>
 8    1  0.1061722E+005  0.1043930E+01  0.7957747E-01            NaN
         13   -1    0    0    0    0  0.00000000000E+00  0.00000000000E+00  0.74505805969E-08  0.10566000000E+00  0.10566000000E+00 0. -1.
     999900   -1    0    0    0    0 -0.00000000000E+00 -0.00000000000E+00 -0.74505805969E-08  0.93827000000E+00  0.93827000000E+00 0.  1.
     999902    2    1    2    0    0  0.13677542924E-01  0.15621767603E-01  0.12196033497E-01  0.10198497584E+01  0.10195654327E+01 0.  0.
     999903    2    3    3    0    0  0.11304345311E+00  0.63985580570E-01  0.15349097727E-01  0.13293229642E+00  0.23715476329E-01 0.  0.
         14    1    1    2    0    0 -0.13677542924E-01 -0.15621767603E-01 -0.12196033497E-01  0.24080241621E-01  0.00000000000E+00 0.  1.
     999901    1    3    3    0    0 -0.99365910190E-01 -0.48363812967E-01 -0.31530642303E-02  0.88691746196E+00  0.88000000000E+00 0.  1.
        -11    1    4    4    0    0  0.86693972041E-01  0.39909090487E-01  0.18056726150E-01  0.97133345315E-01  0.51100000000E-03 0. -1.
         11    1    4    4    0    0  0.26349481073E-01  0.24076490084E-01 -0.27076284226E-02  0.35798951105E-01  0.51100000000E-03 0.  1.
</event>
<event>
 8    1  0.1061722E+005  0.1043930E+01  0.7957747E-01            NaN
         13   -1    0    0    0    0  0.00000000000E+00  0.00000000000E+00  0.74505805969E-08  0.10566000000E+00  0.10566000000E+00 0.  1.
     999900   -1    0    0    0    0 -0.00000000000E+00 -0.00000000000E+00 -0.74505805969E-08  0.93827000000E+00  0.93827000000E+00 0.  1.
     999902    2    1    2    0    0  0.23985243196E-02  0.92773255939E-02  0.21230033651E-01  0.10206375974E+01  0.10203717799E+01 0.  0.
     999903    2    3    3    0    0  0.12329877249E+00 -0.39091667385E-02 -0.37130718711E-01  0.13035857880E+00  0.19919837161E-01 0.  0.
         14    1    1    2    0    0 -0.23985243196E-02 -0.92773255939E-02 -0.21230033651E-01  0.23292402579E-01  0.00000000000E+00 0. -1.
     999901    1    3    3    0    0 -0.12090024817E+00  0.13186492332E-01  0.58360752363E-01  0.89027901862E+00  0.88000000000E+00 0. -1.
        -11    1    4    4    0    0  0.55431341963E-01 -0.10746085752E-01 -0.12481302479E-01  0.57828678555E-01  0.51100000000E-03 0. -1.
         11    1    4    4    0    0  0.67867430523E-01  0.68369190138E-02 -0.24649416232E-01  0.72529900241E-01  0.51100000000E-03 0.  1.
</event>
<event>
 8    1  0.1061722E+005  0.1043930E+01  0.7957747E-01            NaN
         13   -1    0    0    0    0  0.00000000000E+00  0.00000000000E+00  0.74505805969E-08  0.10566000000E+00  0.10566000000E+00 0. -1.
     999900   -1    0    0    0    0 -0.00000000000E+00 -0.00000000000E+00 -0.74505805969E-08  0.93827000000E+00  0.93827000000E+00 0.  1.
     999902    2    1    2    0    0  0.83051344622E-02  0.13133753971E-01  0.18378202981E-01  0.10198628212E+01  0.10195788076E+01 0.  0.
     999903    2    3    3    0    0 -0.44804752927E-01  0.10260149960E+00 -0.63226115142E-01  0.12998395167E+00  0.19072295381E-01 0.  0.
         14    1    1    2    0    0 -0.83051344622E-02 -0.13133753971E-01 -0.18378202981E-01  0.24067178826E-01  0.00000000000E+00 0.  1.
     999901    1    3    3    0    0  0.53109887389E-01 -0.89467745632E-01  0.81604318124E-01  0.88987886950E+00  0.88000000000E+00 0. -1.
        -11    1    4    4    0    0 -0.99135436439E-02  0.46130507444E-01 -0.25920136319E-01  0.53836945051E-01  0.51100000000E-03 0. -1.
         11    1    4    4    0    0 -0.34891209283E-01  0.56470992159E-01 -0.37305978823E-01  0.76147006623E-01  0.51100000000E-03 0.  1.
</event>
<event>
 8    1  0.1061722E+005  0.1043930E+01  0.7957747E-01            NaN
         13   -1    0    0    0    0  0.00000000000E+00  0.00000000000E+00  0.74505805969E-08  0.10566000000E+00  0.10566000000E+00 0.  1.
     999900   -1    0    0    0    0 -0.00000000000E+00 -0.00000000000E+00 -0.74505805969E-08  0.93827000000E+00  0.93827000000E+00 0.  1.
     999902    2    1    2    0    0  0.21103385913E-01  0.54586743534E-02  0.65332261816E-02  0.10211740542E+01  0.10209204749E+01 0.  0.
     999903    2    3    3    0    0 -0.11920135259E+00 -0.42474419900E-01  0.11269330618E-01  0.12875855021E+00  0.20945826149E-01 0.  0.
         14    1    1    2    0    0 -0.21103385913E-01 -0.54586743534E-02 -0.65332261816E-02  0.22755945751E-01  0.00000000000E+00 0. -1.
     999901    1    3    3    0    0  0.14030473850E+00  0.47933094253E-01 -0.47361044364E-02  0.89241550404E+00  0.88000000000E+00 0. -1.
        -11    1    4    4    0    0 -0.75787986665E-01 -0.16475957999E-01  0.43429501882E-02  0.77681390642E-01  0.51100000000E-03 0. -1.
         11    1    4    4    0    0 -0.43413365927E-01 -0.25998461900E-01  0.69263804297E-02  0.51077159564E-01  0.51100000000E-03 0.  1.
</event>
<event>
 8    1  0.1061722E+005  0.1043930E+01  0.7957747E-01            NaN
         13   -1    0    0    0    0  0.00000000000E+00  0.00000000000E+00  0.74505805969E-08  0.10566000000E+00  0.10566000000E+00 0. -1.
     999900   -1    0    0    0    0 -0.00000000000E+00 -0.00000000000E+00 -0.74505805969E-08  0.93827000000E+00  0.93827000000E+00 0.  1.
     999902    2    1    2    0    0  0.72582625792E-03  0.15995499149E-01  0.17543073656E-01  0.10201783211E+01  0.10199017917E+01 0.  0.
     999903    2    3    3    0    0 -0.10625128679E+00 -0.85349189214E-02 -0.70286342753E-01  0.12902185308E+00  0.18554994188E-01 0.  0.
         14    1    1    2    0    0 -0.72582625792E-03 -0.15995499149E-01 -0.17543073656E-01  0.23751678889E-01  0.00000000000E+00 0.  1.
     999901    1    3    3    0    0  0.10697711305E+00  0.24530418070E-01  0.87829416408E-01  0.89115646803E+00  0.88000000000E+00 0. -1.
        -11    1    4    4    0    0 -0.49707006497E-01 -0.80950497237E-02 -0.23266770185E-01  0.55479005406E-01  0.51100000000E-03 0. -1.
         11    1    4    4    0    0 -0.56544280292E-01 -0.43986919771E-03 -0.47019572567E-01  0.73542847674E-01  0.51100000000E-03 0.  1.
</event>
<event>
 8    1  0.1061722E+005  0.1043930E+01  0.7957747E-01            NaN
         13   -1    0    0    0    0  0.00000000000E+00  0.00000000000E+00  0.74505805969E-08  0.10566000000E+00  0.10566000000E+00 0.  1.
     999900   -1    0    0    0    0 -0.00000000000E+00 -0.00000000000E+00 -0.74505805969E-08  0.93827000000E+00  0.93827000000E+00 0.  1.
     999902    2    1    2    0    0  0.75116922849E-02  0.21320318878E-02 -0.22614427745E-01  0.10200054640E+01  0.10197248468E+01 0.  0.
     999903    2    3    3    0    0 -0.10888637160E+00  0.49856463804E-02 -0.69773056929E-01  0.13108443899E+00  0.20826715535E-01 0.  0.
         14    1    1    2    0    0 -0.75116922849E-02 -0.21320318878E-02  0.22614427745E-01  0.23924536008E-01  0.00000000000E+00 0.  1.
     999901    1    3    3    0    0  0.11639806389E+00 -0.28536144926E-02  0.47158629184E-01  0.88892102501E+00  0.88000000000E+00 0. -1.
        -11    1    4    4    0    0 -0.25299999185E-01 -0.93077140998E-03 -0.26947780912E-01  0.36978376266E-01  0.51100000000E-03 0. -1.
         11    1    4    4    0    0 -0.83586372419E-01  0.59164177904E-02 -0.42825276017E-01  0.94106062720E-01  0.51100000000E-03 0.  1.
</event>
<event>
 8    1  0.1061722E+005  0.1043930E+01  0.7957747E-01            NaN
         13   -1    0    0    0    0  0.00000000000E+00  0.00000000000E+00  0.74505805969E-08  0.10566000000E+00  0.10566000000E+00 0.  1.
     999900   -1    0    0    0    0 -0.00000000000E+00 -0.00000000000E+00 -0.74505805969E-08  0.93827000000E+00  0.93827000000E+00 0. -1.
     999902    2    1    2    0    0 -0.38725608446E-02 -0.19936381338E-01 -0.45303573744E-02  0.10231218245E+01  0.10229102051E+01 0.  0.
     999903    2    3    3    0    0  0.19624738251E-01 -0.91975935140E-01 -0.93784961934E-01  0.13536723862E+00  0.26152766769E-01 0.  0.
         14    1    1    2    0    0  0.38725608446E-02  0.19936381338E-01  0.45303573744E-02  0.20808175468E-01  0.00000000000E+00 0.  1.
     999901    1    3    3    0    0 -0.23497299096E-01  0.72039553801E-01  0.89254604560E-01  0.88775458591E+00  0.88000000000E+00 0.  1.
        -11    1    4    4    0    0  0.95912132352E-02 -0.29535824432E-01 -0.48463381616E-01  0.57561417415E-01  0.51100000000E-03 0. -1.
         11    1    4    4    0    0  0.10033525016E-01 -0.62440110708E-01 -0.45321580319E-01  0.77805821203E-01  0.51100000000E-03 0.  1.
</event>
<event>
 8    1  0.1061722E+005  0.1043930E+01  0.7957747E-01            NaN
         13   -1    0    0    0    0  0.00000000000E+00  0.00000000000E+00  0.74505805969E-08  0.10566000000E+00  0.10566000000E+00 0. -1.
     999900   -1    0    0    0    0 -0.00000000000E+00 -0.00000000000E+00 -0.74505805969E-08  0.93827000000E+00  0.93827000000E+00 0.  1.
     999902    2    1    2    0    0 -0.42647065016E-02 -0.11299064065E-01  0.20395329148E-01  0.10202271305E+01  0.10199517498E+01 0.  0.
     999903    2    3    3    0    0 -0.12249341756E+00  0.19314283228E-01 -0.34098708070E-01  0.13012331341E+00  0.19790803864E-01 0.  0.
         14    1    1    2    0    0  0.42647065016E-02  0.11299064065E-01 -0.20395329148E-01  0.23702869475E-01  0.00000000000E+00 0. -1.
     999901    1    3    3    0    0  0.11822871106E+00 -0.30613347292E-01  0.54494037218E-01  0.89010381712E+00  0.88000000000E+00 0. -1.
        -11    1    4    4    0    0 -0.69041736304E-01  0.11736770947E-01 -0.90824198546E-02  0.70620567936E-01  0.51100000000E-03 0. -1.
         11    1    4    4    0    0 -0.53451681259E-01  0.75775122803E-02 -0.25016288215E-01  0.59502745473E-01  0.51100000000E-03 0.  1.
</event>
<event>
 8    1  0.1061722E+005  0.1043930E+01  0.7957747E-01            NaN
         13   -1    0    0    0    0  0.00000000000E+00  0.00000000000E+00  0.74505805969E-08  0.10566000000E+00  0.10566000000E+00 0. -1.
     999900   -1    0    0    0    0 -0.00000000000E+00 -0.00000000000E+00 -0.74505805969E-08  0.93827000000E+00  0.93827000000E+00 0.  1.
     999902    2    1    2    0    0  0.13813685495E-01  0.52945128245E-02  0.19313087723E-01  0.10196021326E+01  0.10193118579E+01 0.  0.
     999903    2    3    3    0    0  0.50429367024E-01 -0.11807066540E+00  0.45597140169E-02  0.13012063347E+00  0.20658779647E-01 0.  0.
         14    1    1    2    0    0 -0.13813685495E-01 -0.52945128245E-02 -0.19313087723E-01  0.24327867362E-01  0.00000000000E+00 0. -1.
     999901    1    3    3    0    0 -0.36615681529E-01  0.12336517822E+00  0.14753373706E-01  0.88948149917E+00  0.88000000000E+00 0. -1.
        -11    1    4    4    0    0  0.41786368375E-01 -0.91964935396E-01  0.11741242884E-01  0.10169448279E+00  0.51100000000E-03 0.  1.
         11    1    4    4    0    0  0.86429986488E-02 -0.26105730000E-01 -0.71815288673E-02  0.28426150677E-01  0.51100000000E-03 0. -1.
</event>
<event>
 8    1  0.1061722E+005  0.1043930E+01  0.7957747E-01            NaN
         13   -1    0    0    0    0  0.00000000000E+00  0.00000000000E+00  0.74505805969E-08  0.10566000000E+00  0.10566000000E+00 0.  1.
     999900   -1    0    0    0    0 -0.00000000000E+00 -0.00000000000E+00 -0.74505805969E-08  0.93827000000E+00  0.93827000000E+00 0.  1.
     999902    2    1    2    0    0  0.15878485722E-01  0.13218937852E-01  0.12011768862E-01  0.10200312716E+01  0.10197512667E+01 0.  0.
     999903    2    3    3    0    0 -0.10295440525E+00  0.12216798976E-02  0.76558931426E-01  0.12962039660E+00  0.18413993872E-01 0.  0.
         14    1    1    2    0    0 -0.15878485722E-01 -0.13218937852E-01 -0.12011768862E-01  0.23898728375E-01  0.00000000000E+00 0.  1.
     999901    1    3    3    0    0  0.11883289097E+00  0.11997257954E-01 -0.64547162564E-01  0.89041087503E+00  0.88000000000E+00 0.  1.
        -11    1    4    4    0    0 -0.77493372941E-01  0.32189245952E-02  0.66499534486E-01  0.10216669483E+00  0.51100000000E-03 0.  1.
         11    1    4    4    0    0 -0.25461032310E-01 -0.19972446977E-02  0.10059396939E-01  0.27453701763E-01  0.51100000000E-03 0. -1.
</event>
<event>
 8    1  0.1061722E+005  0.1043930E+01  0.7957747E-01            NaN
         13   -1    0    0    0    0  0.00000000000E+00  0.00000000000E+00  0.74505805969E-08  0.10566000000E+00  0.10566000000E+00 0.  1.
     999900   -1    0    0    0    0 -0.00000000000E+00 -0.00000000000E+00 -0.74505805969E-08  0.93827000000E+00  0.93827000000E+00 0.  1.
     999902    2    1    2    0    0  0.94577640027E-02  0.22238625372E-01  0.36472854490E-02  0.10194901054E+01  0.10191971186E+01 0.  0.
     999903    2    3    3    0    0  0.87127425876E-01 -0.16127377332E-01 -0.92485893017E-01  0.13002615751E+00  0.22402691587E-01 0.  0.
         14    1    1    2    0    0 -0.94577640027E-02 -0.22238625372E-01 -0.36472854490E-02  0.24439894630E-01  0.00000000000E+00 0. -1.
     999901    1    3    3    0    0 -0.77669661874E-01  0.38366002704E-01  0.96133178466E-01  0.88946394786E+00  0.88000000000E+00 0. -1.
        -11    1    4    4    0    0  0.14966823489E-01 -0.11302409238E-01 -0.14898641447E-01  0.23957898445E-01  0.51100000000E-03 0.  1.
         11    1    4    4    0    0  0.72160602388E-01 -0.48249680937E-02 -0.77587251570E-01  0.10606825907E+00  0.51100000000E-03 0. -1.
</event>
<event>
 8    1  0.1061722E+005  0.1043930E+01  0.7957747E-01            NaN
         13   -1    0    0    0    0  0.00000000000E+00  0.00000000000E+00  0.74505805969E-08  0.10566000000E+00  0.10566000000E+00 0.  1.
     999900   -1    0    0    0    0 -0.00000000000E+00 -0.00000000000E+00 -0.74505805969E-08  0.93827000000E+00  0.93827000000E+00 0.  1.
     999902    2    1    2    0    0  0.66021012561E-03 -0.18156259251E-01 -0.15634512316E-01  0.10199607780E+01  0.10196790991E+01 0.  0.
     999903    2    3    3    0    0 -0.29327142417E-02  0.11292541317E+00  0.55374154333E-01  0.12741523593E+00  0.20188997683E-01 0.  0.
         14    1    1    2    0    0 -0.66021012561E-03  0.18156259251E-01  0.15634512316E-01  0.23969221989E-01  0.00000000000E+00 0. -1.
     999901    1    3    3    0    0  0.35929243673E-02 -0.13108167242E+00 -0.71008666649E-01  0.89254554208E+00  0.88000000000E+00 0.  1.
        -11    1    4    4    0    0  0.54696578067E-02  0.83668865485E-01  0.35471966805E-01  0.91043493772E-01  0.51100000000E-03 0. -1.
         11    1    4    4    0    0 -0.84023720484E-02  0.29256547681E-01  0.19902187528E-01  0.36371742159E-01  0.51100000000E-03 0.  1.
</event>
<event>
 8    1  0.1061722E+005  0.1043930E+01  0.7957747E-01            NaN
         13   -1    0    0    0    0  0.00000000000E+00  0.00000000000E+00  0.74505805969E-08  0.10566000000E+00  0.10566000000E+00 0.  1.
     999900   -1    0    0    0    0 -0.00000000000E+00 -0.00000000000E+00 -0.74505805969E-08  0.93827000000E+00  0.93827000000E+00 0. -1.
     999902    2    1    2    0    0  0.14464877331E-01  0.16472272651E-01  0.99304232527E-02  0.10198638049E+01  0.10195798148E+01 0.  0.
     999903    2    3    3    0    0 -0.50596420625E-01 -0.10750303489E+00 -0.41504160831E-01  0.12731220086E+00  0.19206791239E-01 0.  0.
         14    1    1    2    0    0 -0.14464877331E-01 -0.16472272651E-01 -0.99304232527E-02  0.24066195139E-01  0.00000000000E+00 0.  1.
     999901    1    3    3    0    0  0.65061297956E-01  0.12397530754E+00  0.51434584083E-01  0.89255160400E+00  0.88000000000E+00 0.  1.
        -11    1    4    4    0    0 -0.69216737499E-02 -0.24470097008E-01 -0.16139822427E-01  0.30123914155E-01  0.51100000000E-03 0. -1.
         11    1    4    4    0    0 -0.43674746875E-01 -0.83032937884E-01 -0.25364338403E-01  0.97188286701E-01  0.51100000000E-03 0.  1.
</event>
<event>
 8    1  0.1061722E+005  0.1043930E+01  0.7957747E-01            NaN
         13   -1    0    0    0    0  0.00000000000E+00  0.00000000000E+00  0.74505805969E-08  0.10566000000E+00  0.10566000000E+00 0.  1.
     999900   -1    0    0    0    0 -0.00000000000E+00 -0.00000000000E+00 -0.74505805969E-08  0.93827000000E+00  0.93827000000E+00 0.  1.
     999902    2    1    2    0    0  0.46613630327E-02  0.22657165238E-01 -0.68743037741E-02  0.10197984544E+01  0.10195129014E+01 0.  0.
     999903    2    3    3    0    0  0.11861425074E+00  0.52963457713E-01  0.10565970300E-01  0.13176247811E+00  0.19371179061E-01 0.  0.
         14    1    1    2    0    0 -0.46613630327E-02 -0.22657165238E-01  0.68743037741E-02  0.24131545627E-01  0.00000000000E+00 0.  1.
     999901    1    3    3    0    0 -0.11395288770E+00 -0.30306292475E-01 -0.17440274074E-01  0.88803597626E+00  0.88000000000E+00 0. -1.
        -11    1    4    4    0    0  0.83517212249E-01  0.27379149552E-01  0.78702811314E-02  0.88243668431E-01  0.51100000000E-03 0.  1.
         11    1    4    4    0    0  0.35097038488E-01  0.25584308161E-01  0.26956891682E-02  0.43518809678E-01  0.51100000000E-03 0. -1.
</event>
<event>
 8    1  0.1061722E+005  0.1043930E+01  0.7957747E-01            NaN
         13   -1    0    0    0    0  0.00000000000E+00  0.00000000000E+00  0.74505805969E-08  0.10566000000E+00  0.10566000000E+00 0.  1.
     999900   -1    0    0    0    0 -0.00000000000E+00 -0.00000000000E+00 -0.74505805969E-08  0.93827000000E+00  0.93827000000E+00 0.  1.
     999902    2    1    2    0    0 -0.13923071055E-01 -0.20537558576E-01  0.11617890586E-01  0.10165325804E+01  0.10161633079E+01 0.  0.
     999903    2    3    3    0    0  0.24472189492E-01 -0.11492347882E+00 -0.48726913815E-01  0.12859992900E+00  0.18903321585E-01 0.  0.
         14    1    1    2    0    0  0.13923071055E-01  0.20537558576E-01 -0.11617890586E-01  0.27397419614E-01  0.00000000000E+00 0.  1.
     999901    1    3    3    0    0 -0.38395260547E-01  0.94385920245E-01  0.60344804401E-01  0.88793265138E+00  0.88000000000E+00 0. -1.
        -11    1    4    4    0    0  0.22995880992E-01 -0.63060026566E-01 -0.27518058300E-01  0.72545724524E-01  0.51100000000E-03 0. -1.
         11    1    4    4    0    0  0.14763085001E-02 -0.51863452255E-01 -0.21208855515E-01  0.56054204480E-01  0.51100000000E-03 0.  1.
</event>
<event>
 8    1  0.1061722E+005  0.1043930E+01  0.7957747E-01            NaN
         13   -1    0    0    0    0  0.00000000000E+00  0.00000000000E+00  0.74505805969E-08  0.10566000000E+00  0.10566000000E+00 0. -1.
     999900   -1    0    0    0    0 -0.00000000000E+00 -0.00000000000E+00 -0.74505805969E-08  0.93827000000E+00  0.93827000000E+00 0. -1.
     999902    2    1    2    0    0 -0.10867342849E-01  0.20637413351E-01 -0.60487916286E-02  0.10198345678E+01  0.10195498791E+01 0.  0.
     999903    2    3    3    0    0  0.11680748115E+00 -0.48428281764E-01  0.10357606440E-02  0.12791466012E+00  0.19282150945E-01 0.  0.
         14    1    1    2    0    0  0.10867342849E-01 -0.20637413351E-01  0.60487916286E-02  0.24095432152E-01  0.00000000000E+00 0.  1.
     999901    1    3    3    0    0 -0.12767482400E+00  0.69065695115E-01 -0.70845522726E-02  0.89191990773E+00  0.88000000000E+00 0. -1.
        -11    1    4    4    0    0  0.61317358410E-01 -0.22373426893E-01  0.97356219923E-02  0.65995697814E-01  0.51100000000E-03 0. -1.
         11    1    4    4    0    0  0.55490122742E-01 -0.26054854871E-01 -0.86998613483E-02  0.61918962304E-01  0.51100000000E-03 0.  1.
</event>
<event>
 8    1  0.1061722E+005  0.1043930E+01  0.7957747E-01            NaN
         13   -1    0    0    0    0  0.00000000000E+00  0.00000000000E+00  0.74505805969E-08  0.10566000000E+00  0.10566000000E+00 0.  1.
     999900   -1    0    0    0    0 -0.00000000000E+00 -0.00000000000E+00 -0.74505805969E-08  0.93827000000E+00  0.93827000000E+00 0.  1.
     999902    2    1    2    0    0 -0.65739007728E-02 -0.22568918949E-01 -0.23613749957E-02  0.10203048362E+01  0.10200312791E+01 0.  0.
     999903    2    3    3    0    0 -0.83748528629E-01 -0.82300295968E-01  0.58941962876E-01  0.13279040822E+00  0.19286854716E-01 0.  0.
         14    1    1    2    0    0  0.65739007728E-02  0.22568918949E-01  0.23613749957E-02  0.23625163825E-01  0.00000000000E+00 0. -1.
     999901    1    3    3    0    0  0.77174627856E-01  0.59731377019E-01 -0.61303337872E-01  0.88751442795E+00  0.88000000000E+00 0. -1.
        -11    1    4    4    0    0 -0.17515167193E-01 -0.13878789343E-01  0.35802301899E-02  0.22638044187E-01  0.51100000000E-03 0.  1.
         11    1    4    4    0    0 -0.66233361436E-01 -0.68421506625E-01  0.55361732686E-01  0.11015236404E+00  0.51100000000E-03 0. -1.
</event>
<event>
 8    1  0.1061722E+005  0.1043930E+01  0.7957747E-01            NaN
         13   -1    0    0    0    0  0.00000000000E+00  0.00000000000E+00  0.74505805969E-08  0.10566000000E+00  0.10566000000E+00 0.  1.
     999900   -1    0    0    0    0 -0.00000000000E+00 -0.00000000000E+00 -0.74505805969E-08  0.93827000000E+00  0.93827000000E+00 0.  1.
     999902    2    1    2    0    0 -0.19997526957E-01 -0.52749991829E-02  0.12749686727E-01  0.10196342964E+01  0.10193447980E+01 0.  0.
     999903    2    3    3    0    0  0.99174066857E-01  0.74620767575E-01  0.23754185811E-01  0.12794696259E+00  0.20060144602E-01 0.  0.
         14    1    1    2    0    0  0.19997526957E-01  0.52749991829E-02 -0.12749686727E-01  0.24295703579E-01  0.00000000000E+00 0. -1.
     999901    1    3    3    0    0 -0.11917159381E+00 -0.79895766758E-01 -0.11004499084E-01  0.89168733383E+00  0.88000000000E+00 0. -1.
        -11    1    4    4    0    0  0.35623622005E-01  0.34409003086E-01  0.16419984596E-02  0.49557837100E-01  0.51100000000E-03 0. -1.
         11    1    4    4    0    0  0.63550444852E-01  0.40211764489E-01  0.22112187352E-01  0.78389125488E-01  0.51100000000E-03 0.  1.
</event>
<event>
 8    1  0.1061722E+005  0.1043930E+01  0.7957747E-01            NaN
         13   -1    0    0    0    0  0.00000000000E+00  0.00000000000E+00  0.74505805969E-08  0.10566000000E+00  0.10566000000E+00 0.  1.
     999900   -1    0    0    0    0 -0.00000000000E+00 -0.00000000000E+00 -0.74505805969E-08  0.93827000000E+00  0.93827000000E+00 0. -1.
     999902    2    1    2    0    0  0.23172703185E-01 -0.17388410533E-02  0.33791036340E-02  0.10204477496E+01  0.10201775305E+01 0.  0.
     999903    2    3    3    0    0 -0.50637968486E-01 -0.79142752214E-01 -0.86609069964E-01  0.12941618335E+00  0.20485078301E-01 0.  0.
         14    1    1    2    0    0 -0.23172703185E-01  0.17388410533E-02 -0.33791036340E-02  0.23482250371E-01  0.00000000000E+00 0. -1.
     999901    1    3    3    0    0  0.73810671671E-01  0.77403911161E-01  0.89988173598E-01  0.89103156628E+00  0.88000000000E+00 0.  1.
        -11    1    4    4    0    0 -0.52120172889E-01 -0.76658166767E-01 -0.85929625985E-01  0.12640074643E+00  0.51100000000E-03 0.  1.
         11    1    4    4    0    0  0.14822044032E-02 -0.24845854468E-02 -0.67944397893E-03  0.30154369261E-02  0.51100000000E-03 0. -1.
</event>
<event>
 8    1  0.1061722E+005  0.1043930E+01  0.7957747E-01            NaN
         13   -1    0    0    0    0  0.00000000000E+00  0.00000000000E+00  0.74505805969E-08  0.10566000000E+00  0.10566000000E+00 0.  1.
     999900   -1    0    0    0    0 -0.00000000000E+00 -0.00000000000E+00 -0.74505805969E-08  0.93827000000E+00  0.93827000000E+00 0. -1.
     999902    2    1    2    0    0  0.11638317649E-01  0.16365074362E-01 -0.20307014386E-01  0.10153705720E+01  0.10149688456E+01 0.  0.
     999903    2    3    3    0    0  0.80825245299E-01  0.91501634639E-01  0.32683163920E-01  0.12787956207E+00  0.19486502285E-01 0.  0.
         14    1    1    2    0    0 -0.11638317649E-01 -0.16365074362E-01  0.20307014386E-01  0.28559428038E-01  0.00000000000E+00 0.  1.
     999901    1    3    3    0    0 -0.69186927650E-01 -0.75136560276E-01 -0.52990178306E-01  0.88749100990E+00  0.88000000000E+00 0. -1.
        -11    1    4    4    0    0  0.48014236526E-01  0.48512465809E-01  0.27356998836E-01  0.73535656347E-01  0.51100000000E-03 0.  1.
         11    1    4    4    0    0  0.32811008773E-01  0.42989168830E-01  0.53261650842E-02  0.54343905720E-01  0.51100000000E-03 0. -1.
</event>
<event>
 8    1  0.1061722E+005  0.1043930E+01  0.7957747E-01            NaN
         13   -1    0    0    0    0  0.00000000000E+00  0.00000000000E+00  0.74505805969E-08  0.10566000000E+00  0.10566000000E+00 0. -1.
     999900   -1    0    0    0    0 -0.00000000000E+00 -0.00000000000E+00 -0.74505805969E-08  0.93827000000E+00  0.93827000000E+00 0. -1.
     999902    2    1    2    0    0  0.10197201271E-01  0.20911972243E-01  0.68655550962E-02  0.10196724374E+01  0.10193838581E+01 0.  0.
     999903    2    3    3    0    0  0.29762961159E-01  0.12258532372E+00 -0.34585688417E-01  0.13263326410E+00  0.21964003645E-01 0.  0.
         14    1    1    2    0    0 -0.10197201271E-01 -0.20911972243E-01 -0.68655550962E-02  0.24257562607E-01  0.00000000000E+00 0.  1.
     999901    1    3    3    0    0 -0.19565759888E-01 -0.10167335147E+00  0.41451243513E-01  0.88703917329E+00  0.88000000000E+00 0. -1.
        -11    1    4    4    0    0  0.24633367873E-01  0.63435199383E-01 -0.24952619016E-01  0.72482561008E-01  0.51100000000E-03 0.  1.
         11    1    4    4    0    0  0.51295932867E-02  0.59150124333E-01 -0.96330694011E-02  0.60150703097E-01  0.51100000000E-03 0. -1.
</event>
<event>
 8    1  0.1061722E+005  0.1043930E+01  0.7957747E-01            NaN
         13   -1    0    0    0    0  0.00000000000E+00  0.00000000000E+00  0.74505805969E-08  0.10566000000E+00  0.10566000000E+00 0.  1.
     999900   -1    0    0    0    0 -0.00000000000E+00 -0.00000000000E+00 -0.74505805969E-08  0.93827000000E+00  0.93827000000E+00 0.  1.
     999902    2    1    2    0    0 -0.63449449410E-02 -0.20034383495E-01 -0.11698822009E-01  0.10198780295E+01  0.10195943790E+01 0.  0.
     999903    2    3    3    0    0 -0.44853847567E-01  0.10073879448E+00  0.61385433028E-01  0.12779596801E+00  0.20086455549E-01 0.  0.
         14    1    1    2    0    0  0.63449449410E-02  0.20034383495E-01  0.11698822009E-01  0.24051970495E-01  0.00000000000E+00 0.  1.
     999901    1    3    3    0    0  0.38508902626E-01 -0.12077317798E+00 -0.73084255037E-01  0.89208206149E+00  0.88000000000E+00 0.  1.
        -11    1    4    4    0    0 -0.24114828947E-01  0.38922820521E-01  0.34195507211E-01  0.57149844855E-01  0.51100000000E-03 0.  1.
         11    1    4    4    0    0 -0.20739018620E-01  0.61815973963E-01  0.27189925817E-01  0.70646123158E-01  0.51100000000E-03 0. -1.
</event>
<event>
 8    1  0.1061722E+005  0.1043930E+01  0.7957747E-01            NaN
         13   -1    0    0    0    0  0.00000000000E+00  0.00000000000E+00  0.74505805969E-08  0.10566000000E+00  0.10566000000E+00 0.  1.
     999900   -1    0    0    0    0 -0.00000000000E+00 -0.00000000000E+00 -0.74505805969E-08  0.93827000000E+00  0.93827000000E+00 0.  1.
     999902    2    1    2    0    0 -0.13839425292E-01 -0.88460126389E-02  0.15277610698E-01  0.10214981695E+01  0.10212518412E+01 0.  0.
     999903    2    3    3    0    0  0.78186290804E-01  0.10155111190E+00  0.57519058953E-03  0.12971769274E+00  0.20015608100E-01 0.  0.
         14    1    1    2    0    0  0.13839425292E-01  0.88460126389E-02 -0.15277610698E-01  0.22431830524E-01  0.00000000000E+00 0.  1.
     999901    1    3    3    0    0 -0.92025716097E-01 -0.11039712454E+00  0.14702420109E-01  0.89178047674E+00  0.88000000000E+00 0.  1.
        -11    1    4    4    0    0  0.46796958600E-01  0.44522164444E-01  0.15132536638E-02  0.64612146835E-01  0.51100000000E-03 0. -1.
         11    1    4    4    0    0  0.31389332204E-01  0.57028947457E-01 -0.93806307423E-03  0.65105545905E-01  0.51100000000E-03 0.  1.
</event>
<event>
 8    1  0.1061722E+005  0.1043930E+01  0.7957747E-01            NaN
         13   -1    0    0    0    0  0.00000000000E+00  0.00000000000E+00  0.74505805969E-08  0.10566000000E+00  0.10566000000E+00 0. -1.
     999900   -1    0    0    0    0 -0.00000000000E+00 -0.00000000000E+00 -0.74505805969E-08  0.93827000000E+00  0.93827000000E+00 0.  1.
     999902    2    1    2    0    0 -0.15571793890E-01  0.13690517227E-01  0.18852257076E-02  0.10231101752E+01  0.10228983163E+01 0.  0.
     999903    2    3    3    0    0 -0.12224385028E+00  0.28215335362E-01  0.46822902892E-01  0.13541130018E+00  0.20104026958E-01 0.  0.
         14    1    1    2    0    0  0.15571793890E-01 -0.13690517227E-01 -0.18852257076E-02  0.20819824756E-01  0.00000000000E+00 0.  1.
     999901    1    3    3    0    0  0.10667205639E+00 -0.14524818135E-01 -0.44937677184E-01  0.88769887506E+00  0.88000000000E+00 0.  1.
        -11    1    4    4    0    0 -0.79110152642E-01  0.23060643846E-01  0.21647522435E-01  0.85200269332E-01  0.51100000000E-03 0. -1.
         11    1    4    4    0    0 -0.43133697641E-01  0.51546915154E-02  0.25175380456E-01  0.50211030849E-01  0.51100000000E-03 0.  1.
</event>
<event>
 8    1  0.1061722E+005  0.1043930E+01  0.7957747E-01            NaN
         13   -1    0    0    0    0  0.00000000000E+00  0.00000000000E+00  0.74505805969E-08  0.10566000000E+00  0.10566000000E+00 0. -1.
     999900   -1    0    0    0    0 -0.00000000000E+00 -0.00000000000E+00 -0.74505805969E-08  0.93827000000E+00  0.93827000000E+00 0.  1.
     999902    2    1    2    0    0 -0.17630390432E-01  0.11915950548E-01 -0.13263615167E-01  0.10188552312E+01  0.10185466303E+01 0.  0.
     999903    2    3    3    0    0  0.73085471622E-01 -0.76271024234E-01  0.66415022082E-01  0.12624389617E+00  0.19178395711E-01 0.  0.
         14    1    1    2    0    0  0.17630390432E-01 -0.11915950548E-01  0.13263615167E-01  0.25074768824E-01  0.00000000000E+00 0. -1.
     999901    1    3    3    0    0 -0.90715862054E-01  0.88186974782E-01 -0.79678637249E-01  0.89261133501E+00  0.88000000000E+00 0. -1.
        -11    1    4    4    0    0  0.12262010118E-01 -0.23664752524E-01  0.20603770669E-01  0.33692044921E-01  0.51100000000E-03 0.  1.
         11    1    4    4    0    0  0.60823461504E-01 -0.52606271709E-01  0.45811251413E-01  0.92551851248E-01  0.51100000000E-03 0. -1.
</event>
<event>
 8    1  0.1061722E+005  0.1043930E+01  0.7957747E-01            NaN
         13   -1    0    0    0    0  0.00000000000E+00  0.00000000000E+00  0.74505805969E-08  0.10566000000E+00  0.10566000000E+00 0. -1.
     999900   -1    0    0    0    0 -0.00000000000E+00 -0.00000000000E+00 -0.74505805969E-08  0.93827000000E+00  0.93827000000E+00 0.  1.
     999902    2    1    2    0    0 -0.56853285771E-02 -0.18578579873E-01  0.15816783862E-01  0.10188769115E+01  0.10185688507E+01 0.  0.
     999903    2    3    3    0    0  0.83356538301E-01 -0.47229292571E-01 -0.82959241887E-01  0.12842420605E+00  0.20775522412E-01 0.  0.
         14    1    1    2    0    0  0.56853285771E-02  0.18578579873E-01 -0.15816783862E-01  0.25053088490E-01  0.00000000000E+00 0.  1.
     999901    1    3    3    0    0 -0.89041866878E-01  0.28650712698E-01  0.98776025749E-01  0.89045270546E+00  0.88000000000E+00 0. -1.
        -11    1    4    4    0    0  0.60282675382E-01 -0.27812640626E-01 -0.46244628722E-01  0.80909645510E-01  0.51100000000E-03 0. -1.
         11    1    4    4    0    0  0.23073862918E-01 -0.19416651944E-01 -0.36714613165E-01  0.47514560543E-01  0.51100000000E-03 0.  1.
</event>
<event>
 8    1  0.1061722E+005  0.1043930E+01  0.7957747E-01            NaN
         13   -1    0    0    0    0  0.00000000000E+00  0.00000000000E+00  0.74505805969E-08  0.10566000000E+00  0.10566000000E+00 0. -1.
     999900   -1    0    0    0    0 -0.00000000000E+00 -0.00000000000E+00 -0.74505805969E-08  0.93827000000E+00  0.93827000000E+00 0.  1.
     999902    2    1    2    0    0 -0.89054362697E-02  0.52559683984E-02 -0.21457136310E-01  0.10201110853E+01  0.10198329695E+01 0.  0.
     999903    2    3    3    0    0  0.12192663889E+00 -0.13025091408E-01  0.32704951650E-01  0.12860406861E+00  0.20823888253E-01 0.  0.
         14    1    1    2    0    0  0.89054362697E-02 -0.52559683984E-02  0.21457136310E-01  0.23818914702E-01  0.00000000000E+00 0. -1.
     999901    1    3    3    0    0 -0.13083207516E+00  0.18281059807E-01 -0.54162087960E-01  0.89150701669E+00  0.88000000000E+00 0.  1.
        -11    1    4    4    0    0  0.58637148804E-01 -0.12935262296E-01  0.76532406309E-02  0.60534861392E-01  0.51100000000E-03 0. -1.
         11    1    4    4    0    0  0.63289490087E-01 -0.89829111986E-04  0.25051711019E-01  0.68069207214E-01  0.51100000000E-03 0.  1.
</event>
<event>
 8    1  0.1061722E+005  0.1043930E+01  0.7957747E-01            NaN
         13   -1    0    0    0    0  0.00000000000E+00  0.00000000000E+00  0.74505805969E-08  0.10566000000E+00  0.10566000000E+00 0. -1.
     999900   -1    0    0    0    0 -0.00000000000E+00 -0.00000000000E+00 -0.74505805969E-08  0.93827000000E+00  0.93827000000E+00 0.  1.
     999902    2    1    2    0    0 -0.16193403385E-01  0.19054686478E-02 -0.17105068267E-01  0.10202986546E+01  0.10200249527E+01 0.  0.
     999903    2    3    3    0    0  0.13684319459E-01  0.11647313964E+00 -0.55988932027E-01  0.13151837558E+00  0.20225472754E-01 0.  0.
         14    1    1    2    0    0  0.16193403385E-01 -0.19054686478E-02  0.17105068267E-01  0.23631345378E-01  0.00000000000E+00 0. -1.
     999901    1    3    3    0    0 -0.29877722844E-01 -0.11456767099E+00  0.38883863761E-01  0.88878027905E+00  0.88000000000E+00 0. -1.
        -11    1    4    4    0    0 -0.26316082595E-02  0.63740983070E-01 -0.30739039356E-01  0.70816579600E-01  0.51100000000E-03 0. -1.
         11    1    4    4    0    0  0.16315927719E-01  0.52732156570E-01 -0.25249892672E-01  0.60701795977E-01  0.51100000000E-03 0.  1.
</event>
<event>
 8    1  0.1061722E+005  0.1043930E+01  0.7957747E-01            NaN
         13   -1    0    0    0    0  0.00000000000E+00  0.00000000000E+00  0.74505805969E-08  0.10566000000E+00  0.10566000000E+00 0.  1.
     999900   -1    0    0    0    0 -0.00000000000E+00 -0.00000000000E+00 -0.74505805969E-08  0.93827000000E+00  0.93827000000E+00 0.  1.
     999902    2    1    2    0    0 -0.94756528182E-02 -0.10941092943E-01 -0.18457265384E-01  0.10204743790E+01  0.10202047795E+01 0.  0.
     999903    2    3    3    0    0 -0.26416215494E-01 -0.27614319167E-01 -0.12633313429E+00  0.13356841880E+00  0.20496209818E-01 0.  0.
         14    1    1    2    0    0  0.94756528182E-02  0.10941092943E-01  0.18457265384E-01  0.23455621001E-01  0.00000000000E+00 0.  1.
     999901    1    3    3    0    0  0.16940562676E-01  0.16673226224E-01  0.10787586891E+00  0.88690596020E+00  0.88000000000E+00 0. -1.
        -11    1    4    4    0    0 -0.64799215256E-02 -0.64599734062E-02 -0.65581636169E-01  0.66218824839E-01  0.51100000000E-03 0.  1.
         11    1    4    4    0    0 -0.19936293968E-01 -0.21154345761E-01 -0.60751498125E-01  0.67349593965E-01  0.51100000000E-03 0. -1.
</event>
<event>
 8    1  0.1061722E+005  0.1043930E+01  0.7957747E-01            NaN
         13   -1    0    0    0    0  0.00000000000E+00  0.00000000000E+00  0.74505805969E-08  0.10566000000E+00  0.10566000000E+00 0.  1.
     999900   -1    0    0    0    0 -0.00000000000E+00 -0.00000000000E+00 -0.74505805969E-08  0.93827000000E+00  0.93827000000E+00 0. -1.
     999902    2    1    2    0    0 -0.10645925609E-01  0.87511369274E-02  0.16392982726E-01  0.10225139310E+01  0.10222896317E+01 0.  0.
     999903    2    3    3    0    0  0.46645209743E-01  0.64606124279E-03  0.12411029493E+00  0.13405966328E+00  0.19809972882E-01 0.  0.
         14    1    1    2    0    0  0.10645925609E-01 -0.87511369274E-02 -0.16392982726E-01  0.21416069019E-01  0.00000000000E+00 0. -1.
     999901    1    3    3    0    0 -0.57291135352E-01  0.81050756846E-02 -0.10771731220E+00  0.88845426770E+00  0.88000000000E+00 0. -1.
        -11    1    4    4    0    0  0.13308689433E-01 -0.74201293519E-02  0.52305716026E-01  0.54482369479E-01  0.51100000000E-03 0.  1.
         11    1    4    4    0    0  0.33336520309E-01  0.80661905947E-02  0.71804578902E-01  0.79577293805E-01  0.51100000000E-03 0. -1.
</event>
<event>
 8    1  0.1061722E+005  0.1043930E+01  0.7957747E-01            NaN
         13   -1    0    0    0    0  0.00000000000E+00  0.00000000000E+00  0.74505805969E-08  0.10566000000E+00  0.10566000000E+00 0. -1.
     999900   -1    0    0    0    0 -0.00000000000E+00 -0.00000000000E+00 -0.74505805969E-08  0.93827000000E+00  0.93827000000E+00 0. -1.
     999902    2    1    2    0    0 -0.82367384578E-03 -0.23996551881E-01 -0.19935967027E-02  0.10198366945E+01  0.10195520566E+01 0.  0.
     999903    2    3    3    0    0  0.39792937409E-02 -0.12989578699E+00 -0.21492332420E-01  0.13326017939E+00  0.20189224910E-01 0.  0.
         14    1    1    2    0    0  0.82367384578E-03  0.23996551881E-01  0.19935967027E-02  0.24093305473E-01  0.00000000000E+00 0. -1.
     999901    1    3    3    0    0 -0.48029675867E-02  0.10589923511E+00  0.19498735717E-01  0.88657651513E+00  0.88000000000E+00 0. -1.
        -11    1    4    4    0    0  0.73679393797E-02 -0.90125305161E-01 -0.66476032450E-02  0.90671433819E-01  0.51100000000E-03 0.  1.
         11    1    4    4    0    0 -0.33886456388E-02 -0.39770481829E-01 -0.14844729175E-01  0.42588745573E-01  0.51100000000E-03 0. -1.
</event>
<event>
 8    1  0.1061722E+005  0.1043930E+01  0.7957747E-01            NaN
         13   -1    0    0    0    0  0.00000000000E+00  0.00000000000E+00  0.74505805969E-08  0.10566000000E+00  0.10566000000E+00 0.  1.
     999900   -1    0    0    0    0 -0.00000000000E+00 -0.00000000000E+00 -0.74505805969E-08  0.93827000000E+00  0.93827000000E+00 0.  1.
     999902    2    1    2    0    0 -0.23483560039E-01 -0.19638557771E-02  0.30312513480E-02  0.10201703113E+01  0.10198935931E+01 0.  0.
     999903    2    3    3    0    0  0.34233132152E-01  0.12286208187E+00 -0.10662363143E-01  0.12938400341E+00  0.18961430674E-01 0.  0.
         14    1    1    2    0    0  0.23483560039E-01  0.19638557771E-02 -0.30312513480E-02  0.23759688684E-01  0.00000000000E+00 0. -1.
     999901    1    3    3    0    0 -0.57716692191E-01 -0.12482593765E+00  0.13693614491E-01  0.89078630790E+00  0.88000000000E+00 0.  1.
        -11    1    4    4    0    0  0.20827608014E-01  0.69993508568E-01  0.32258281013E-02  0.73099573085E-01  0.51100000000E-03 0. -1.
         11    1    4    4    0    0  0.13405524139E-01  0.52868573303E-01 -0.13888191245E-01  0.56284430330E-01  0.51100000000E-03 0.  1.
</event>
<event>
 8    1  0.1061722E+005  0.1043930E+01  0.7957747E-01            NaN
         13   -1    0    0    0    0  0.00000000000E+00  0.00000000000E+00  0.74505805969E-08  0.10566000000E+00  0.10566000000E+00 0. -1.
     999900   -1    0    0    0    0 -0.00000000000E+00 -0.00000000000E+00 -0.74505805969E-08  0.93827000000E+00  0.93827000000E+00 0. -1.
     999902    2    1    2    0    0  0.68281383785E-03 -0.78147665774E-02 -0.22195888546E-01  0.10203886687E+01  0.10201170722E+01 0.  0.
     999903    2    3    3    0    0  0.71409072472E-01  0.10219733142E+00  0.26158517195E-01  0.12940998549E+00  0.22784339822E-01 0.  0.
         14    1    1    2    0    0 -0.68281383785E-03  0.78147665774E-02  0.22195888546E-01  0.23541331308E-01  0.00000000000E+00 0. -1.
     999901    1    3    3    0    0 -0.70726258634E-01 -0.11001209800E+00 -0.48354405741E-01  0.89097868320E+00  0.88000000000E+00 0. -1.
        -11    1    4    4    0    0  0.42125267216E-01  0.78256050700E-01  0.19737119257E-01  0.91040444895E-01  0.51100000000E-03 0. -1.
         11    1    4    4    0    0  0.29283805255E-01  0.23941280724E-01  0.64213979383E-02  0.38369540595E-01  0.51100000000E-03 0.  1.
</event>
<event>
 8    1  0.1061722E+005  0.1043930E+01  0.7957747E-01            NaN
         13   -1    0    0    0    0  0.00000000000E+00  0.00000000000E+00  0.74505805969E-08  0.10566000000E+00  0.10566000000E+00 0. -1.
     999900   -1    0    0    0    0 -0.00000000000E+00 -0.00000000000E+00 -0.74505805969E-08  0.93827000000E+00  0.93827000000E+00 0. -1.
     999902    2    1    2    0    0  0.19219875756E-02 -0.24155562854E-01  0.12966528613E-03  0.10196977474E+01  0.10194097773E+01 0.  0.
     999903    2    3    3    0    0 -0.66322392744E-01  0.82866011328E-01 -0.68599263769E-01  0.12793848702E+00  0.19923901685E-01 0.  0.
         14    1    1    2    0    0 -0.19219875756E-02  0.24155562854E-01 -0.12966528613E-03  0.24232252601E-01  0.00000000000E+00 0.  1.
     999901    1    3    3    0    0  0.68244380320E-01 -0.10702157418E+00  0.68728929055E-01  0.89175926038E+00  0.88000000000E+00 0.  1.
        -11    1    4    4    0    0 -0.43584307097E-01  0.48263020547E-01 -0.52239944254E-01  0.83415729177E-01  0.51100000000E-03 0.  1.
         11    1    4    4    0    0 -0.22738085647E-01  0.34602990781E-01 -0.16359319515E-01  0.44522757842E-01  0.51100000000E-03 0. -1.
</event>
<event>
 8    1  0.1061722E+005  0.1043930E+01  0.7957747E-01            NaN
         13   -1    0    0    0    0  0.00000000000E+00  0.00000000000E+00  0.74505805969E-08  0.10566000000E+00  0.10566000000E+00 0. -1.
     999900   -1    0    0    0    0 -0.00000000000E+00 -0.00000000000E+00 -0.74505805969E-08  0.93827000000E+00  0.93827000000E+00 0.  1.
     999902    2    1    2    0    0  0.10217579947E-01 -0.10535724660E-01 -0.16349498904E-01  0.10219594163E+01  0.10217232218E+01 0.  0.
     999903    2    3    3    0    0 -0.44225155429E-01 -0.51165709233E-01 -0.11388750833E+00  0.13396816050E+00  0.20082562084E-01 0.  0.
         14    1    1    2    0    0 -0.10217579947E-01  0.10535724660E-01  0.16349498904E-01  0.21970583709E-01  0.00000000000E+00 0. -1.
     999901    1    3    3    0    0  0.54442735376E-01  0.40629984573E-01  0.97538009425E-01  0.88799125579E+00  0.88000000000E+00 0. -1.
        -11    1    4    4    0    0 -0.33068200156E-01 -0.27967674136E-01 -0.57561443431E-01  0.72036640322E-01  0.51100000000E-03 0. -1.
         11    1    4    4    0    0 -0.11156955273E-01 -0.23198035097E-01 -0.56326064899E-01  0.61931520176E-01  0.51100000000E-03 0.  1.
</event>
<event>
 8    1  0.1061722E+005  0.1043930E+01  0.7957747E-01            NaN
         13   -1    0    0    0    0  0.00000000000E+00  0.00000000000E+00  0.74505805969E-08  0.10566000000E+00  0.10566000000E+00 0. -1.
     999900   -1    0    0    0    0 -0.00000000000E+00 -0.00000000000E+00 -0.74505805969E-08  0.93827000000E+00  0.93827000000E+00 0.  1.
     999902    2    1    2    0    0  0.13303756272E-01  0.42816308129E-02  0.19279223532E-01  0.10201180124E+01  0.10198400602E+01 0.  0.
     999903    2    3    3    0    0  0.11761562147E+00  0.40702689356E-01 -0.37152102784E-01  0.13141561378E+00  0.19991034709E-01 0.  0.
         14    1    1    2    0    0 -0.13303756272E-01 -0.42816308129E-02 -0.19279223532E-01  0.23811987598E-01  0.00000000000E+00 0.  1.
     999901    1    3    3    0    0 -0.10431186520E+00 -0.36421058543E-01  0.56431326316E-01  0.88870239862E+00  0.88000000000E+00 0. -1.
        -11    1    4    4    0    0  0.10306761802E+00  0.42143733334E-01 -0.34269483444E-01  0.11650616619E+00  0.51100000000E-03 0. -1.
         11    1    4    4    0    0  0.14548003448E-01 -0.14410439787E-02 -0.28826193398E-02  0.14909447587E-01  0.51100000000E-03 0.  1.
</event>
<event>
 8    1  0.1061722E+005  0.1043930E+01  0.7957747E-01            NaN
         13   -1    0    0    0    0  0.00000000000E+00  0.00000000000E+00  0.74505805969E-08  0.10566000000E+00  0.10566000000E+00 0. -1.
     999900   -1    0    0    0    0 -0.00000000000E+00 -0.00000000000E+00 -0.74505805969E-08  0.93827000000E+00  0.93827000000E+00 0.  1.
     999902    2    1    2    0    0  0.90122351149E-02 -0.50745860781E-02 -0.21375785921E-01  0.10201835049E+01  0.10199070976E+01 0.  0.
     999903    2    3    3    0    0 -0.10268461130E+00  0.31168074883E-01 -0.72780966149E-01  0.13089603253E+00  0.17919933267E-01 0.  0.
         14    1    1    2    0    0 -0.90122351149E-02  0.50745860781E-02  0.21375785921E-01  0.23746495096E-01  0.00000000000E+00 0. -1.
     999901    1    3    3    0    0  0.11169684641E+00 -0.36242660961E-01  0.51405180229E-01  0.88928747238E+00  0.88000000000E+00 0.  1.
        -11    1    4    4    0    0 -0.66211681071E-01  0.19499093946E-01 -0.36229350798E-01  0.77955297159E-01  0.51100000000E-03 0. -1.
         11    1    4    4    0    0 -0.36472930227E-01  0.11668980936E-01 -0.36551615351E-01  0.52940735368E-01  0.51100000000E-03 0.  1.
</event>
<event>
 8    1  0.1061722E+005  0.1043930E+01  0.7957747E-01            NaN
         13   -1    0    0    0    0  0.00000000000E+00  0.00000000000E+00  0.74505805969E-08  0.10566000000E+00  0.10566000000E+00 0.  1.
     999900   -1    0    0    0    0 -0.00000000000E+00 -0.00000000000E+00 -0.74505805969E-08  0.93827000000E+00  0.93827000000E+00 0. -1.
     999902    2    1    2    0    0 -0.26912203847E-01  0.68867219260E-03  0.38794364615E-02  0.10167309005E+01  0.10163670267E+01 0.  0.
     999903    2    3    3    0    0 -0.24553186459E-01  0.10939507766E+00  0.59019745069E-01  0.12832609347E+00  0.20349790551E-01 0.  0.
         14    1    1    2    0    0  0.26912203847E-01 -0.68867219260E-03 -0.38794364615E-02  0.27199099480E-01  0.00000000000E+00 0.  1.
     999901    1    3    3    0    0 -0.23590173873E-02 -0.10870640547E+00 -0.55140308608E-01  0.88840480705E+00  0.88000000000E+00 0.  1.
        -11    1    4    4    0    0 -0.26625526703E-01  0.79867036971E-01  0.40703600548E-01  0.93513135362E-01  0.51100000000E-03 0. -1.
         11    1    4    4    0    0  0.20723402437E-02  0.29528040692E-01  0.18316144522E-01  0.34812958110E-01  0.51100000000E-03 0.  1.
</event>
<event>
 8    1  0.1061722E+005  0.1043930E+01  0.7957747E-01            NaN
         13   -1    0    0    0    0  0.00000000000E+00  0.00000000000E+00  0.74505805969E-08  0.10566000000E+00  0.10566000000E+00 0.  1.
     999900   -1    0    0    0    0 -0.00000000000E+00 -0.00000000000E+00 -0.74505805969E-08  0.93827000000E+00  0.93827000000E+00 0.  1.
     999902    2    1    2    0    0 -0.28104776698E-02  0.24350107292E-01  0.23826551908E-02  0.10193027071E+01  0.10190051546E+01 0.  0.
     999903    2    3    3    0    0  0.11644297475E+00  0.46624486207E-01 -0.28793070466E-01  0.13043294176E+00  0.21234460347E-01 0.  0.
         14    1    1    2    0    0  0.28104776698E-02 -0.24350107292E-01 -0.23826551908E-02  0.24627292901E-01  0.00000000000E+00 0. -1.
     999901    1    3    3    0    0 -0.11925345242E+00 -0.22274378915E-01  0.31175725657E-01  0.88886976534E+00  0.88000000000E+00 0.  1.
        -11    1    4    4    0    0  0.18010077431E-01  0.13016961600E-02  0.85086030251E-03  0.18084313264E-01  0.51100000000E-03 0.  1.
         11    1    4    4    0    0  0.98432897316E-01  0.45322790047E-01 -0.29643930769E-01  0.11234862849E+00  0.51100000000E-03 0. -1.
</event>
<event>
 8    1  0.1061722E+005  0.1043930E+01  0.7957747E-01            NaN
         13   -1    0    0    0    0  0.00000000000E+00  0.00000000000E+00  0.74505805969E-08  0.10566000000E+00  0.10566000000E+00 0. -1.
     999900   -1    0    0    0    0 -0.00000000000E+00 -0.00000000000E+00 -0.74505805969E-08  0.93827000000E+00  0.93827000000E+00 0.  1.
     999902    2    1    2    0    0 -0.20142750059E-01 -0.81181427427E-02 -0.87837475623E-02  0.10205037574E+01  0.10202348406E+01 0.  0.
     999903    2    3    3    0    0 -0.62585006395E-01 -0.21206694541E-01  0.11154982643E+00  0.13120469389E+00  0.20117181830E-01 0.  0.
         14    1    1    2    0    0  0.20142750059E-01  0.81181427427E-02  0.87837475623E-02  0.23426242609E-01  0.00000000000E+00 0.  1.
     999901    1    3    3    0    0  0.42442256336E-01  0.13088551799E-01 -0.12033357399E+00  0.88929906350E+00  0.88000000000E+00 0.  1.
        -11    1    4    4    0    0 -0.25916755968E-01 -0.16284942825E-01  0.37360937981E-01  0.48300915214E-01  0.51100000000E-03 0.  1.
         11    1    4    4    0    0 -0.36668250428E-01 -0.49217517163E-02  0.74188888445E-01  0.82903778678E-01  0.51100000000E-03 0. -1.
</event>
<event>
 8    1  0.1061722E+005  0.1043930E+01  0.7957747E-01            NaN
         13   -1    0    0    0    0  0.00000000000E+00  0.00000000000E+00  0.74505805969E-08  0.10566000000E+00  0.10566000000E+00 0. -1.
     999900   -1    0    0    0    0 -0.00000000000E+00 -0.00000000000E+00 -0.74505805969E-08  0.93827000000E+00  0.93827000000E+00 0.  1.
     999902    2    1    2    0    0 -0.97890527620E-02 -0.66340940276E-02 -0.47903716488E-02  0.10311713003E+01  0.10310923655E+01 0.  0.
     999903    2    3    3    0    0 -0.11685127656E+00 -0.37354469530E-01 -0.68852882414E-01  0.14184005351E+00  0.18119164844E-01 0.  0.
         14    1    1    2    0    0  0.97890527620E-02  0.66340940276E-02  0.47903716488E-02  0.12758699702E-01  0.00000000000E+00 0. -1.
     999901    1    3    3    0    0  0.10706222380E+00  0.30720375503E-01  0.64062510765E-01  0.88933124679E+00  0.88000000000E+00 0. -1.
        -11    1    4    4    0    0 -0.91737679846E-01 -0.30797158880E-01 -0.45549764197E-01  0.10695470554E+00  0.51100000000E-03 0. -1.
         11    1    4    4    0    0 -0.25113596713E-01 -0.65573106498E-02 -0.23303118217E-01  0.34885347962E-01  0.51100000000E-03 0.  1.
</event>
<event>
 7    1  0.1061722E+005  0.1043930E+01  0.7957747E-01            NaN
         13   -1    0    0    0    0  0.00000000000E+00  0.00000000000E+00  0.74505805969E-08  0.10566000000E+00  0.10566000000E+00 0. -1.
     999900   -1    0    0    0    0 -0.00000000000E+00 -0.00000000000E+00 -0.74505805969E-08  0.93827000000E+00  0.93827000000E+00 0.  1.
     999903    2    1    2    0    0  0.84772624288E-01 -0.39343983889E-01  0.62053175532E-01  0.11434465826E+00  0.22130462750E-01 0.  0.
         14    1    1    2    0    0 -0.56191082550E-02 -0.23931778008E-01  0.30243986277E-01  0.38974390080E-01  0.00000000000E+00 0. -1.
     999901    1    1    2    0    0 -0.79153516033E-01  0.63275761897E-01 -0.92297161808E-01  0.89061095166E+00  0.88000000000E+00 0.  1.
        -11    1    3    3    0    0  0.43395145506E-01 -0.80188837934E-02  0.29312130905E-01  0.52980216024E-01  0.51100000000E-03 0.  1.
         11    1    3    3    0    0  0.41377478781E-01 -0.31325100096E-01  0.32741044627E-01  0.61364442233E-01  0.51100000000E-03 0. -1.
</event>
<event>
 8    1  0.1061722E+005  0.1043930E+01  0.7957747E-01            NaN
         13   -1    0    0    0    0  0.00000000000E+00  0.00000000000E+00  0.74505805969E-08  0.10566000000E+00  0.10566000000E+00 0.  1.
     999900   -1    0    0    0    0 -0.00000000000E+00 -0.00000000000E+00 -0.74505805969E-08  0.93827000000E+00  0.93827000000E+00 0. -1.
     999902    2    1    2    0    0  0.22883155541E-01 -0.35142772102E-02  0.13996429060E-02  0.10207362950E+01  0.10204727512E+01 0.  0.
     999903    2    3    3    0    0  0.33813358070E-01  0.61245085896E-01  0.10980942608E+00  0.13165478831E+00  0.19508190508E-01 0.  0.
         14    1    1    2    0    0 -0.22883155541E-01  0.35142772102E-02 -0.13996429060E-02  0.23193705010E-01  0.00000000000E+00 0. -1.
     999901    1    3    3    0    0 -0.10930202529E-01 -0.64759363106E-01 -0.10840978318E+00  0.88908150668E+00  0.88000000000E+00 0. -1.
        -11    1    4    4    0    0  0.24625413032E-01  0.26944811782E-01  0.47142921424E-01  0.59625078703E-01  0.51100000000E-03 0. -1.
         11    1    4    4    0    0  0.91879450382E-02  0.34300274115E-01  0.62666504660E-01  0.72029709604E-01  0.51100000000E-03 0.  1.
</event>
<event>
 8    1  0.1061722E+005  0.1043930E+01  0.7957747E-01            NaN
         13   -1    0    0    0    0  0.00000000000E+00  0.00000000000E+00  0.74505805969E-08  0.10566000000E+00  0.10566000000E+00 0. -1.
     999900   -1    0    0    0    0 -0.00000000000E+00 -0.00000000000E+00 -0.74505805969E-08  0.93827000000E+00  0.93827000000E+00 0.  1.
     999902    2    1    2    0    0  0.32853166578E-02  0.19792112662E-01  0.14769038099E-01  0.10190172419E+01  0.10187126650E+01 0.  0.
     999903    2    3    3    0    0 -0.86333006575E-01 -0.90477301556E-01 -0.92350802113E-02  0.12729588113E+00  0.21895765031E-01 0.  0.
         14    1    1    2    0    0 -0.32853166578E-02 -0.19792112662E-01 -0.14769038099E-01  0.24912758088E-01  0.00000000000E+00 0.  1.
     999901    1    3    3    0    0  0.89618323233E-01  0.11026941422E+00  0.24004118310E-01  0.89172136078E+00  0.88000000000E+00 0. -1.
        -11    1    4    4    0    0 -0.30268494209E-01 -0.40897989004E-01 -0.12446305615E-01  0.52383192827E-01  0.51100000000E-03 0.  1.
         11    1    4    4    0    0 -0.56064512366E-01 -0.49579312552E-01  0.32112254041E-02  0.74912688308E-01  0.51100000000E-03 0. -1.
</event>
<event>
 8    1  0.1061722E+005  0.1043930E+01  0.7957747E-01            NaN
         13   -1    0    0    0    0  0.00000000000E+00  0.00000000000E+00  0.74505805969E-08  0.10566000000E+00  0.10566000000E+00 0. -1.
     999900   -1    0    0    0    0 -0.00000000000E+00 -0.00000000000E+00 -0.74505805969E-08  0.93827000000E+00  0.93827000000E+00 0. -1.
     999902    2    1    2    0    0 -0.19903268338E-01 -0.52293638073E-02 -0.11065242440E-01  0.10205649422E+01  0.10202974445E+01 0.  0.
     999903    2    3    3    0    0  0.10155085686E+00  0.44589414341E-01 -0.63340156494E-01  0.12929299613E+00  0.20097537769E-01 0.  0.
         14    1    1    2    0    0  0.19903268338E-01  0.52293638073E-02  0.11065242440E-01  0.23365057813E-01  0.00000000000E+00 0. -1.
     999901    1    3    3    0    0 -0.12145412520E+00 -0.49818778149E-01  0.52274914054E-01  0.89127194605E+00  0.88000000000E+00 0. -1.
        -11    1    4    4    0    0  0.79413148442E-01  0.40973197957E-01 -0.43701309260E-01  0.99475206199E-01  0.51100000000E-03 0.  1.
         11    1    4    4    0    0  0.22137708416E-01  0.36162163848E-02 -0.19638847235E-01  0.29817789934E-01  0.51100000000E-03 0. -1.
</event>
<event>
 8    1  0.1061722E+005  0.1043930E+01  0.7957747E-01            NaN
         13   -1    0    0    0    0  0.00000000000E+00  0.00000000000E+00  0.74505805969E-08  0.10566000000E+00  0.10566000000E+00 0. -1.
     999900   -1    0    0    0    0 -0.00000000000E+00 -0.00000000000E+00 -0.74505805969E-08  0.93827000000E+00  0.93827000000E+00 0. -1.
     999902    2    1    2    0    0 -0.17569237254E-01 -0.16022768197E-02 -0.17727218368E-01  0.10189200088E+01  0.10186130201E+01 0.  0.
     999903    2    3    3    0    0  0.98949847756E-01 -0.10683015962E-01 -0.79482819861E-01  0.12904759586E+00  0.20750039607E-01 0.  0.
         14    1    1    2    0    0  0.17569237254E-01  0.16022768197E-02  0.17727218368E-01  0.25009991199E-01  0.00000000000E+00 0. -1.
     999901    1    3    3    0    0 -0.11651908501E+00  0.90807391423E-02  0.61755601493E-01  0.88987241294E+00  0.88000000000E+00 0. -1.
        -11    1    4    4    0    0  0.43725856004E-01 -0.34934594366E-02 -0.48186703133E-01  0.65164209671E-01  0.51100000000E-03 0. -1.
         11    1    4    4    0    0  0.55223991752E-01 -0.71895565254E-02 -0.31296116728E-01  0.63883386191E-01  0.51100000000E-03 0.  1.
</event>
<event>
 8    1  0.1061722E+005  0.1043930E+01  0.7957747E-01            NaN
         13   -1    0    0    0    0  0.00000000000E+00  0.00000000000E+00  0.74505805969E-08  0.10566000000E+00  0.10566000000E+00 0.  1.
     999900   -1    0    0    0    0 -0.00000000000E+00 -0.00000000000E+00 -0.74505805969E-08  0.93827000000E+00  0.93827000000E+00 0.  1.
     999902    2    1    2    0    0 -0.86749792608E-02 -0.21289674881E-01 -0.25871387513E-02  0.10207956358E+01  0.10205334542E+01 0.  0.
     999903    2    3    3    0    0 -0.45077794845E-01  0.11202269484E+00  0.39821236649E-01  0.12900203677E+00  0.21787676685E-01 0.  0.
         14    1    1    2    0    0  0.86749792608E-02  0.21289674881E-01  0.25871387513E-02  0.23134364236E-01  0.00000000000E+00 0. -1.
     999901    1    3    3    0    0  0.36402815584E-01 -0.13331236972E+00 -0.42408375400E-01  0.89179359899E+00  0.88000000000E+00 0. -1.
        -11    1    4    4    0    0 -0.42767235562E-01  0.11132410204E+00  0.36219633273E-01  0.12463633133E+00  0.51100000000E-03 0.  1.
         11    1    4    4    0    0 -0.23105592835E-02  0.69859280131E-03  0.36016033754E-02  0.43657054388E-02  0.51100000000E-03 0. -1.
</event>
<event>
 8    1  0.1061722E+005  0.1043930E+01  0.7957747E-01            NaN
         13   -1    0    0    0    0  0.00000000000E+00  0.00000000000E+00  0.74505805969E-08  0.10566000000E+00  0.10566000000E+00 0.  1.
     999900   -1    0    0    0    0 -0.00000000000E+00 -0.00000000000E+00 -0.74505805969E-08  0.93827000000E+00  0.93827000000E+00 0.  1.
     999902    2    1    2    0    0 -0.16977006522E-01  0.11752550304E-01  0.13290883357E-01  0.10193741704E+01  0.10190783632E+01 0.  0.
     999903    2    3    3    0    0 -0.11521801081E+00 -0.14892079579E-01  0.60113372578E-01  0.13227013095E+00  0.19616470897E-01 0.  0.
         14    1    1    2    0    0  0.16977006522E-01 -0.11752550304E-01 -0.13290883357E-01  0.24555829644E-01  0.00000000000E+00 0. -1.
     999901    1    3    3    0    0  0.98241004289E-01  0.26644629883E-01 -0.46822489221E-01  0.88710403940E+00  0.88000000000E+00 0.  1.
        -11    1    4    4    0    0 -0.78759241947E-01 -0.18983300136E-01  0.38665068734E-01  0.89769886584E-01  0.51100000000E-03 0.  1.
         11    1    4    4    0    0 -0.36458768864E-01  0.40912205568E-02  0.21448303843E-01  0.42500244370E-01  0.51100000000E-03 0. -1.
</event>
<event>
 8    1  0.1061722E+005  0.1043930E+01  0.7957747E-01            NaN
         13   -1    0    0    0    0  0.00000000000E+00  0.00000000000E+00  0.74505805969E-08  0.10566000000E+00  0.10566000000E+00 0. -1.
     999900   -1    0    0    0    0 -0.00000000000E+00 -0.00000000000E+00 -0.74505805969E-08  0.93827000000E+00  0.93827000000E+00 0.  1.
     999902    2    1    2    0    0 -0.26064304920E-03  0.82332562526E-02 -0.22318815698E-01  0.10201395822E+01  0.10198621393E+01 0.  0.
     999903    2    3    3    0    0 -0.28595251384E-01  0.28376340555E-02  0.12300592638E+00  0.12775443924E+00  0.19104927444E-01 0.  0.
         14    1    1    2    0    0  0.26064304920E-03 -0.82332562526E-02  0.22318815698E-01  0.23790417766E-01  0.00000000000E+00 0. -1.
     999901    1    3    3    0    0  0.28334608334E-01  0.53956221972E-02 -0.14532474208E+00  0.89238514299E+00  0.88000000000E+00 0.  1.
        -11    1    4    4    0    0 -0.19279828333E-01  0.22599874178E-02  0.42721184153E-01  0.46927390937E-01  0.51100000000E-03 0. -1.
         11    1    4    4    0    0 -0.93154230502E-02  0.57764663768E-03  0.80284742230E-01  0.80827048308E-01  0.51100000000E-03 0.  1.
</event>
<event>
 8    1  0.1061722E+005  0.1043930E+01  0.7957747E-01            NaN
         13   -1    0    0    0    0  0.00000000000E+00  0.00000000000E+00  0.74505805969E-08  0.10566000000E+00  0.10566000000E+00 0. -1.
     999900   -1    0    0    0    0 -0.00000000000E+00 -0.00000000000E+00 -0.74505805969E-08  0.93827000000E+00  0.93827000000E+00 0. -1.
     999902    2    1    2    0    0  0.15368700611E-01 -0.85062278720E-02 -0.17264646442E-01  0.10193003251E+01  0.10190027143E+01 0.  0.
     999903    2    3    3    0    0 -0.47226091338E-01 -0.24503607735E-01  0.11385933919E+00  0.12724229794E+00  0.19897808145E-01 0.  0.
         14    1    1    2    0    0 -0.15368700611E-01  0.85062278720E-02  0.17264646442E-01  0.24629674945E-01  0.00000000000E+00 0.  1.
     999901    1    3    3    0    0  0.62594791949E-01  0.15997379863E-01 -0.13112398563E+00  0.89205802712E+00  0.88000000000E+00 0. -1.
        -11    1    4    4    0    0 -0.20412665098E-01 -0.15570215611E-02  0.53991340899E-01  0.57744499527E-01  0.51100000000E-03 0.  1.
         11    1    4    4    0    0 -0.26813426240E-01 -0.22946586174E-01  0.59867998287E-01  0.69497798409E-01  0.51100000000E-03 0. -1.
</event>
<event>
 8    1  0.1061722E+005  0.1043930E+01  0.7957747E-01            NaN
         13   -1    0    0    0    0  0.00000000000E+00  0.00000000000E+00  0.74505805969E-08  0.10566000000E+00  0.10566000000E+00 0.  1.
     999900   -1    0    0    0    0 -0.00000000000E+00 -0.00000000000E+00 -0.74505805969E-08  0.93827000000E+00  0.93827000000E+00 0.  1.
     999902    2    1    2    0    0 -0.23840022162E-01 -0.41191743023E-02  0.98868206998E-02  0.10177945169E+01  0.10174589010E+01 0.  0.
     999903    2    3    3    0    0 -0.15618298288E-01 -0.11347422523E+00 -0.54977150147E-01  0.12861879825E+00  0.19999429805E-01 0.  0.
         14    1    1    2    0    0  0.23840022162E-01  0.41191743023E-02 -0.98868206998E-02  0.26135483106E-01  0.00000000000E+00 0. -1.
     999901    1    3    3    0    0 -0.82217238747E-02  0.10935505093E+00  0.64863970847E-01  0.88917571864E+00  0.88000000000E+00 0.  1.
        -11    1    4    4    0    0 -0.76706778457E-02 -0.78043414587E-01 -0.27584281812E-01  0.83131026597E-01  0.51100000000E-03 0.  1.
         11    1    4    4    0    0 -0.79476204418E-02 -0.35430810644E-01 -0.27392868335E-01  0.45487771656E-01  0.51100000000E-03 0. -1.
</event>
<event>
 8    1  0.1061722E+005  0.1043930E+01  0.7957747E-01            NaN
         13   -1    0    0    0    0  0.00000000000E+00  0.00000000000E+00  0.74505805969E-08  0.10566000000E+00  0.10566000000E+00 0. -1.
     999900   -1    0    0    0    0 -0.00000000000E+00 -0.00000000000E+00 -0.74505805969E-08  0.93827000000E+00  0.93827000000E+00 0.  1.
     999902    2    1    2    0    0  0.22506495893E-01  0.83494406450E-03 -0.63664871029E-02  0.10205254781E+01  0.10202570655E+01 0.  0.
     999903    2    3    3    0    0  0.55445850012E-01  0.80094967217E-01  0.86094415927E-01  0.13152819409E+00  0.19949218797E-01 0.  0.
         14    1    1    2    0    0 -0.22506495893E-01 -0.83494406450E-03  0.63664871029E-02  0.23404521935E-01  0.00000000000E+00 0.  1.
     999901    1    3    3    0    0 -0.32939354119E-01 -0.79260023153E-01 -0.92460903030E-01  0.88899728397E+00  0.88000000000E+00 0.  1.
        -11    1    4    4    0    0  0.60408873688E-02  0.16883076380E-01  0.82671109042E-02  0.19751881732E-01  0.51100000000E-03 0.  1.
         11    1    4    4    0    0  0.49404962643E-01  0.63211890837E-01  0.77827305022E-01  0.11177631236E+00  0.51100000000E-03 0. -1.
</event>
<event>
 8    1  0.1061722E+005  0.1043930E+01  0.7957747E-01            NaN
         13   -1    0    0    0    0  0.00000000000E+00  0.00000000000E+00  0.74505805969E-08  0.10566000000E+00  0.10566000000E+00 0.  1.
     999900   -1    0    0    0    0 -0.00000000000E+00 -0.00000000000E+00 -0.74505805969E-08  0.93827000000E+00  0.93827000000E+00 0. -1.
     999902    2    1    2    0    0  0.22835905255E-01  0.66357836178E-02 -0.41337635188E-02  0.10197928876E+01  0.10195072013E+01 0.  0.
     999903    2    3    3    0    0  0.14918358893E-01 -0.83916151454E-01  0.95460352142E-01  0.12952251950E+00  0.19973139950E-01 0.  0.
         14    1    1    2    0    0 -0.22835905255E-01 -0.66357836178E-02  0.41337635188E-02  0.24137112377E-01  0.00000000000E+00 0.  1.
     999901    1    3    3    0    0  0.79175463629E-02  0.90551935072E-01 -0.99594115660E-01  0.89027036812E+00  0.88000000000E+00 0. -1.
        -11    1    4    4    0    0  0.51110238800E-02 -0.58009580303E-01  0.52525672887E-01  0.78424749954E-01  0.51100000000E-03 0.  1.
         11    1    4    4    0    0  0.98073350126E-02 -0.25906571151E-01  0.42934679254E-01  0.51097769546E-01  0.51100000000E-03 0. -1.
</event>
<event>
 8    1  0.1061722E+005  0.1043930E+01  0.7957747E-01            NaN
         13   -1    0    0    0    0  0.00000000000E+00  0.00000000000E+00  0.74505805969E-08  0.10566000000E+00  0.10566000000E+00 0.  1.
     999900   -1    0    0    0    0 -0.00000000000E+00 -0.00000000000E+00 -0.74505805969E-08  0.93827000000E+00  0.93827000000E+00 0. -1.
     999902    2    1    2    0    0 -0.27491640057E-02 -0.31077848340E-02 -0.23288953491E-01  0.10202743118E+01  0.10200000391E+01 0.  0.
     999903    2    3    3    0    0 -0.25085364590E-01  0.91348627746E-01  0.84846636876E-01  0.12835826999E+00  0.17408227340E-01 0.  0.
         14    1    1    2    0    0  0.27491640057E-02  0.31077848340E-02  0.23288953491E-01  0.23655688195E-01  0.00000000000E+00 0.  1.
     999901    1    3    3    0    0  0.22336200584E-01 -0.94456412580E-01 -0.10813559037E+00  0.89191604181E+00  0.88000000000E+00 0.  1.
        -11    1    4    4    0    0 -0.15317811176E-01  0.40750186940E-01  0.49194061759E-01  0.65692692959E-01  0.51100000000E-03 0.  1.
         11    1    4    4    0    0 -0.97675534136E-02  0.50598440807E-01  0.35652575117E-01  0.62665577036E-01  0.51100000000E-03 0. -1.
</event>
<event>
 8    1  0.1061722E+005  0.1043930E+01  0.7957747E-01            NaN
         13   -1    0    0    0    0  0.00000000000E+00  0.00000000000E+00  0.74505805969E-08  0.10566000000E+00  0.10566000000E+00 0.  1.
     999900   -1    0    0    0    0 -0.00000000000E+00 -0.00000000000E+00 -0.74505805969E-08  0.93827000000E+00  0.93827000000E+00 0. -1.
     999902    2    1    2    0    0 -0.15134114720E-01  0.16770487805E-01 -0.10874150064E-01  0.10188593433E+01  0.10185508448E+01 0.  0.
     999903    2    3    3    0    0 -0.80817293273E-01  0.76563250622E-01 -0.68857486538E-01  0.13248948720E+00  0.20463248235E-01 0.  0.
         14    1    1    2    0    0  0.15134114720E-01 -0.16770487805E-01  0.10874150064E-01  0.25070656736E-01  0.00000000000E+00 0.  1.
     999901    1    3    3    0    0  0.65683178553E-01 -0.59792762817E-01  0.57983336474E-01  0.88636985606E+00  0.88000000000E+00 0. -1.
        -11    1    4    4    0    0 -0.50063729239E-01  0.40110467039E-01 -0.49441761617E-01  0.80993675458E-01  0.51100000000E-03 0.  1.
         11    1    4    4    0    0 -0.30753564034E-01  0.36452783583E-01 -0.19415724921E-01  0.51495811742E-01  0.51100000000E-03 0. -1.
</event>
<event>
 8    1  0.1061722E+005  0.1043930E+01  0.7957747E-01            NaN
         13   -1    0    0    0    0  0.00000000000E+00  0.00000000000E+00  0.74505805969E-08  0.10566000000E+00  0.10566000000E+00 0.  1.
     999900   -1    0    0    0    0 -0.00000000000E+00 -0.00000000000E+00 -0.74505805969E-08  0.93827000000E+00  0.93827000000E+00 0. -1.
     999902    2    1    2    0    0 -0.98233390533E-02  0.81154921933E-02  0.18803891509E-01  0.10212155654E+01  0.10209629207E+01 0.  0.
     999903    2    3    3    0    0 -0.56723864307E-01  0.28145615691E-01 -0.11175831687E+00  0.13012221710E+00  0.20786955744E-01 0.  0.
         14    1    1    2    0    0  0.98233390533E-02 -0.81154921933E-02 -0.18803891509E-01  0.22714434608E-01  0.00000000000E+00 0.  1.
     999901    1    3    3    0    0  0.46900525254E-01 -0.20030123497E-01  0.13056220838E+00  0.89109334829E+00  0.88000000000E+00 0.  1.
        -11    1    4    4    0    0 -0.27804919197E-01  0.24462571959E-02 -0.44655604838E-01  0.52663857343E-01  0.51100000000E-03 0.  1.
         11    1    4    4    0    0 -0.28918945110E-01  0.25699358495E-01 -0.67102712029E-01  0.77458359756E-01  0.51100000000E-03 0. -1.
</event>
<event>
 8    1  0.1061722E+005  0.1043930E+01  0.7957747E-01            NaN
         13   -1    0    0    0    0  0.00000000000E+00  0.00000000000E+00  0.74505805969E-08  0.10566000000E+00  0.10566000000E+00 0. -1.
     999900   -1    0    0    0    0 -0.00000000000E+00 -0.00000000000E+00 -0.74505805969E-08  0.93827000000E+00  0.93827000000E+00 0. -1.
     999902    2    1    2    0    0 -0.38070945171E-02 -0.13434049785E-02  0.23579283885E-01  0.10200075977E+01  0.10197270311E+01 0.  0.
     999903    2    3    3    0    0 -0.63511305617E-01  0.10303202873E+00  0.44598176280E-01  0.13158167625E+00  0.25989523116E-01 0.  0.
         14    1    1    2    0    0  0.38070945171E-02  0.13434049785E-02 -0.23579283885E-01  0.23922402349E-01  0.00000000000E+00 0.  1.
     999901    1    3    3    0    0  0.59704211100E-01 -0.10437543371E+00 -0.21018892395E-01  0.88842592140E+00  0.88000000000E+00 0.  1.
        -11    1    4    4    0    0 -0.27002279862E-01  0.26657470637E-01  0.55317174210E-02  0.38348466425E-01  0.51100000000E-03 0. -1.
         11    1    4    4    0    0 -0.36509025755E-01  0.76374558090E-01  0.39066458859E-01  0.93233209823E-01  0.51100000000E-03 0.  1.
</event>
<event>
 8    1  0.1061722E+005  0.1043930E+01  0.7957747E-01            NaN
         13   -1    0    0    0    0  0.00000000000E+00  0.00000000000E+00  0.74505805969E-08  0.10566000000E+00  0.10566000000E+00 0. -1.
     999900   -1    0    0    0    0 -0.00000000000E+00 -0.00000000000E+00 -0.74505805969E-08  0.93827000000E+00  0.93827000000E+00 0.  1.
     999902    2    1    2    0    0 -0.17451507177E-02 -0.61755443358E-02 -0.22300583345E-01  0.10207244206E+01  0.10204606038E+01 0.  0.
     999903    2    3    3    0    0 -0.68275977537E-01  0.27371638028E-01  0.10363370840E+00  0.12864190747E+00  0.19949415092E-01 0.  0.
         14    1    1    2    0    0  0.17451507177E-02  0.61755443358E-02  0.22300583345E-01  0.23205579424E-01  0.00000000000E+00 0. -1.
     999901    1    3    3    0    0  0.66530826820E-01 -0.33547182364E-01 -0.12593429174E+00  0.89208251311E+00  0.88000000000E+00 0. -1.
        -11    1    4    4    0    0 -0.48699062406E-01  0.18176125472E-01  0.56474320701E-01  0.76756629916E-01  0.51100000000E-03 0. -1.
         11    1    4    4    0    0 -0.19576915132E-01  0.91955125560E-02  0.47159387699E-01  0.51885277549E-01  0.51100000000E-03 0.  1.
</event>
<event>
 8    1  0.1061722E+005  0.1043930E+01  0.7957747E-01            NaN
         13   -1    0    0    0    0  0.00000000000E+00  0.00000000000E+00  0.74505805969E-08  0.10566000000E+00  0.10566000000E+00 0.  1.
     999900   -1    0    0    0    0 -0.00000000000E+00 -0.00000000000E+00 -0.74505805969E-08  0.93827000000E+00  0.93827000000E+00 0.  1.
     999902    2    1    2    0    0  0.11991445075E-01 -0.44981780307E-02  0.15614397837E-01  0.10237350061E+01  0.10235357956E+01 0.  0.
     999903    2    3    3    0    0 -0.84685133898E-01 -0.95727675299E-01 -0.28564912247E-01  0.13265644974E+00  0.21128646981E-01 0.  0.
         14    1    1    2    0    0 -0.11991445075E-01  0.44981780307E-02 -0.15614397837E-01  0.20194993944E-01  0.00000000000E+00 0.  1.
     999901    1    3    3    0    0  0.96676578973E-01  0.91229497269E-01  0.44179310085E-01  0.89107855632E+00  0.88000000000E+00 0. -1.
        -11    1    4    4    0    0 -0.76461429540E-01 -0.88396974874E-01 -0.19744983505E-01  0.11853480868E+00  0.51100000000E-03 0.  1.
         11    1    4    4    0    0 -0.82237043579E-02 -0.73307004253E-02 -0.88199287419E-02  0.14121641056E-01  0.51100000000E-03 0. -1.
</event>
<event>
 8    1  0.1061722E+005  0.1043930E+01  0.7957747E-01            NaN
         13   -1    0    0    0    0  0.00000000000E+00  0.00000000000E+00  0.74505805969E-08  0.10566000000E+00  0.10566000000E+00 0. -1.
     999900   -1    0    0    0    0 -0.00000000000E+00 -0.00000000000E+00 -0.74505805969E-08  0.93827000000E+00  0.93827000000E+00 0. -1.
     999902    2    1    2    0    0 -0.14936748195E-01  0.89679922999E-02 -0.14482115554E-01  0.10212746915E+01  0.10210233751E+01 0.  0.
     999903    2    3    3    0    0  0.99781555382E-01  0.81263448345E-01  0.92350058257E-02  0.13057304448E+00  0.20097954675E-01 0.  0.
         14    1    1    2    0    0  0.14936748195E-01 -0.89679922999E-02  0.14482115554E-01  0.22655308505E-01  0.00000000000E+00 0. -1.
     999901    1    3    3    0    0 -0.11471830358E+00 -0.72295456045E-01 -0.23717121379E-01  0.89070164701E+00  0.88000000000E+00 0. -1.
        -11    1    4    4    0    0  0.89392710617E-01  0.79549159436E-01  0.75940334461E-02  0.11990436165E+00  0.51100000000E-03 0. -1.
         11    1    4    4    0    0  0.10388844765E-01  0.17142889083E-02  0.16409723795E-02  0.10668682832E-01  0.51100000000E-03 0.  1.
</event>
<event>
 8    1  0.1061722E+005  0.1043930E+01  0.7957747E-01            NaN
         13   -1    0    0    0    0  0.00000000000E+00  0.00000000000E+00  0.74505805969E-08  0.10566000000E+00  0.10566000000E+00 0. -1.
     999900   -1    0    0    0    0 -0.00000000000E+00 -0.00000000000E+00 -0.74505805969E-08  0.93827000000E+00  0.93827000000E+00 0.  1.
     999902    2    1    2    0    0 -0.64480784942E-02 -0.21697174501E-01  0.75543396092E-02  0.10200676207E+01  0.10197884769E+01 0.  0.
     999903    2    3    3    0    0 -0.48376460510E-01 -0.28089523755E-01  0.11823572422E+00  0.13212098931E+00  0.18627024923E-01 0.  0.
         14    1    1    2    0    0  0.64480784942E-02  0.21697174501E-01 -0.75543396092E-02  0.23862379272E-01  0.00000000000E+00 0.  1.
     999901    1    3    3    0    0  0.41928382016E-01  0.63923492541E-02 -0.11068138461E+00  0.88794663142E+00  0.88000000000E+00 0.  1.
        -11    1    4    4    0    0 -0.24326414281E-01 -0.41121213820E-02  0.56629033110E-01  0.61772101195E-01  0.51100000000E-03 0.  1.
         11    1    4    4    0    0 -0.24050046230E-01 -0.23977402373E-01  0.61606691112E-01  0.70348888115E-01  0.51100000000E-03 0. -1.
</event>
<event>
 8    1  0.1061722E+005  0.1043930E+01  0.7957747E-01            NaN
         13   -1    0    0    0    0  0.00000000000E+00  0.00000000000E+00  0.74505805969E-08  0.10566000000E+00  0.10566000000E+00 0.  1.
     999900   -1    0    0    0    0 -0.00000000000E+00 -0.00000000000E+00 -0.74505805969E-08  0.93827000000E+00  0.93827000000E+00 0.  1.
     999902    2    1    2    0    0  0.12223738769E-01 -0.18204525638E-01 -0.43818491939E-02  0.10215687580E+01  0.10213239947E+01 0.  0.
     999903    2    3    3    0    0 -0.79299327245E-03  0.54128567027E-01  0.11555016907E+00  0.13039806690E+00  0.26856724905E-01 0.  0.
         14    1    1    2    0    0 -0.12223738769E-01  0.18204525638E-01  0.43818491939E-02  0.22361242039E-01  0.00000000000E+00 0.  1.
     999901    1    3    3    0    0  0.13016732042E-01 -0.72333092665E-01 -0.11993201826E+00  0.89117069106E+00  0.88000000000E+00 0.  1.
        -11    1    4    4    0    0  0.75309016757E-02  0.22505540111E-01  0.72804367573E-01  0.76576438115E-01  0.51100000000E-03 0. -1.
         11    1    4    4    0    0 -0.83238949481E-02  0.31623026917E-01  0.42745801492E-01  0.53821628782E-01  0.51100000000E-03 0.  1.
</event>
<event>
 8    1  0.1061722E+005  0.1043930E+01  0.7957747E-01            NaN
         13   -1    0    0    0    0  0.00000000000E+00  0.00000000000E+00  0.74505805969E-08  0.10566000000E+00  0.10566000000E+00 0.  1.
     999900   -1    0    0    0    0 -0.00000000000E+00 -0.00000000000E+00 -0.74505805969E-08  0.93827000000E+00  0.93827000000E+00 0.  1.
     999902    2    1    2    0    0 -0.12595611815E-01  0.18225298015E-01 -0.94471503279E-02  0.10198455740E+01  0.10195611484E+01 0.  0.
     999903    2    3    3    0    0 -0.11580059983E+00 -0.45890919334E-01  0.33650709944E-01  0.13045275619E+00  0.19230078507E-01 0.  0.
         14    1    1    2    0    0  0.12595611815E-01 -0.18225298015E-01  0.94471503279E-02  0.24084425965E-01  0.00000000000E+00 0. -1.
     999901    1    3    3    0    0  0.10320498801E+00  0.64116217349E-01 -0.43097860272E-01  0.88939281785E+00  0.88000000000E+00 0.  1.
        -11    1    4    4    0    0 -0.56198524498E-01 -0.18907116273E-01  0.66319962545E-02  0.59665716261E-01  0.51100000000E-03 0. -1.
         11    1    4    4    0    0 -0.59602075330E-01 -0.26983803061E-01  0.27018713689E-01  0.70787039928E-01  0.51100000000E-03 0.  1.
</event>
<event>
 8    1  0.1061722E+005  0.1043930E+01  0.7957747E-01            NaN
         13   -1    0    0    0    0  0.00000000000E+00  0.00000000000E+00  0.74505805969E-08  0.10566000000E+00  0.10566000000E+00 0.  1.
     999900   -1    0    0    0    0 -0.00000000000E+00 -0.00000000000E+00 -0.74505805969E-08  0.93827000000E+00  0.93827000000E+00 0. -1.
     999902    2    1    2    0    0  0.21540985579E-01  0.41995497763E-02  0.10185311114E-01  0.10197351485E+01  0.10194480772E+01 0.  0.
     999903    2    3    3    0    0  0.46225503503E-01  0.11835485653E+00  0.28755474163E-01  0.13182433626E+00  0.20152148733E-01 0.  0.
         14    1    1    2    0    0 -0.21540985579E-01 -0.41995497763E-02 -0.10185311114E-01  0.24194851530E-01  0.00000000000E+00 0. -1.
     999901    1    3    3    0    0 -0.24684517924E-01 -0.11415530675E+00 -0.18570163049E-01  0.88791081221E+00  0.88000000000E+00 0.  1.
        -11    1    4    4    0    0  0.30432069990E-01  0.77859208151E-01  0.90115481818E-02  0.84081129271E-01  0.51100000000E-03 0. -1.
         11    1    4    4    0    0  0.15793433513E-01  0.40495648375E-01  0.19743925981E-01  0.47743206989E-01  0.51100000000E-03 0.  1.
</event>
<event>
 8    1  0.1061722E+005  0.1043930E+01  0.7957747E-01            NaN
         13   -1    0    0    0    0  0.00000000000E+00  0.00000000000E+00  0.74505805969E-08  0.10566000000E+00  0.10566000000E+00 0.  1.
     999900   -1    0    0    0    0 -0.00000000000E+00 -0.00000000000E+00 -0.74505805969E-08  0.93827000000E+00  0.93827000000E+00 0. -1.
     999902    2    1    2    0    0  0.14515820728E-01  0.17470141958E-01 -0.55865817726E-02  0.10205393008E+01  0.10202712089E+01 0.  0.
     999903    2    3    3    0    0 -0.91894264304E-01  0.91294616479E-01 -0.11027890200E-01  0.13104350710E+00  0.16477972603E-01 0.  0.
         14    1    1    2    0    0 -0.14515820728E-01 -0.17470141958E-01  0.55865817726E-02  0.23390699163E-01  0.00000000000E+00 0. -1.
     999901    1    3    3    0    0  0.10641008503E+00 -0.73824474521E-01  0.54413084269E-02  0.88949579374E+00  0.88000000000E+00 0. -1.
        -11    1    4    4    0    0 -0.50812195532E-01  0.59536488230E-01 -0.17525369266E-02  0.78293072186E-01  0.51100000000E-03 0.  1.
         11    1    4    4    0    0 -0.41082068772E-01  0.31758128249E-01 -0.92753532730E-02  0.52750434916E-01  0.51100000000E-03 0. -1.
</event>
<event>
 8    1  0.1061722E+005  0.1043930E+01  0.7957747E-01            NaN
         13   -1    0    0    0    0  0.00000000000E+00  0.00000000000E+00  0.74505805969E-08  0.10566000000E+00  0.10566000000E+00 0. -1.
     999900   -1    0    0    0    0 -0.00000000000E+00 -0.00000000000E+00 -0.74505805969E-08  0.93827000000E+00  0.93827000000E+00 0. -1.
     999902    2    1    2    0    0  0.23813009138E-03 -0.20855970096E-01 -0.11786226729E-01  0.10199728855E+01  0.10196914944E+01 0.  0.
     999903    2    3    3    0    0  0.34309632319E-01 -0.11820516290E+00 -0.47031735446E-01  0.13324858873E+00  0.19839124315E-01 0.  0.
         14    1    1    2    0    0 -0.23813009138E-03  0.20855970096E-01  0.11786226729E-01  0.23957114498E-01  0.00000000000E+00 0. -1.
     999901    1    3    3    0    0 -0.34071502227E-01  0.97349192802E-01  0.35245508717E-01  0.88672429677E+00  0.88000000000E+00 0.  1.
        -11    1    4    4    0    0  0.15550696625E-01 -0.67661147059E-01 -0.16780028466E-01  0.71426083914E-01  0.51100000000E-03 0.  1.
         11    1    4    4    0    0  0.18758935693E-01 -0.50544015839E-01 -0.30251706979E-01  0.61822504815E-01  0.51100000000E-03 0. -1.
</event>
<event>
 8    1  0.1061722E+005  0.1043930E+01  0.7957747E-01            NaN
         13   -1    0    0    0    0  0.00000000000E+00  0.00000000000E+00  0.74505805969E-08  0.10566000000E+00  0.10566000000E+00 0. -1.
     999900   -1    0    0    0    0 -0.00000000000E+00 -0.00000000000E+00 -0.74505805969E-08  0.93827000000E+00  0.93827000000E+00 0. -1.
     999902    2    1    2    0    0 -0.71912498545E-02  0.11862079573E-01 -0.15742226828E-01  0.10229480861E+01  0.10227328811E+01 0.  0.
     999903    2    3    3    0    0 -0.11068198805E+00  0.51354114353E-01  0.50192292044E-01  0.13355654436E+00  0.20744561228E-01 0.  0.
         14    1    1    2    0    0  0.71912498545E-02 -0.11862079573E-01  0.15742226828E-01  0.20981913921E-01  0.00000000000E+00 0. -1.
     999901    1    3    3    0    0  0.10349073820E+00 -0.39492034780E-01 -0.65934518872E-01  0.88939154172E+00  0.88000000000E+00 0. -1.
        -11    1    4    4    0    0 -0.75899642307E-01  0.25854669258E-01  0.27147154799E-01  0.84654880305E-01  0.51100000000E-03 0. -1.
         11    1    4    4    0    0 -0.34782345745E-01  0.25499445095E-01  0.23045137245E-01  0.48901664054E-01  0.51100000000E-03 0.  1.
</event>
<event>
 8    1  0.1061722E+005  0.1043930E+01  0.7957747E-01            NaN
         13   -1    0    0    0    0  0.00000000000E+00  0.00000000000E+00  0.74505805969E-08  0.10566000000E+00  0.10566000000E+00 0.  1.
     999900   -1    0    0    0    0 -0.00000000000E+00 -0.00000000000E+00 -0.74505805969E-08  0.93827000000E+00  0.93827000000E+00 0.  1.
     999902    2    1    2    0    0 -0.39592668295E-02  0.13184058697E-01 -0.17191332036E-01  0.10219064423E+01  0.10216690950E+01 0.  0.
     999903    2    3    3    0    0 -0.25271762645E-01 -0.89891454579E-01 -0.91628161543E-01  0.13251360135E+00  0.21094998467E-01 0.  0.
         14    1    1    2    0    0  0.39592668295E-02 -0.13184058697E-01  0.17191332036E-01  0.22023557722E-01  0.00000000000E+00 0.  1.
     999901    1    3    3    0    0  0.21312495816E-01  0.10307551328E+00  0.74436829506E-01  0.88939284093E+00  0.88000000000E+00 0. -1.
        -11    1    4    4    0    0 -0.47798965014E-03 -0.34418564307E-01 -0.26523631904E-01  0.43458373341E-01  0.51100000000E-03 0.  1.
         11    1    4    4    0    0 -0.24793772995E-01 -0.55472890272E-01 -0.65104529638E-01  0.89055228004E-01  0.51100000000E-03 0. -1.
</event>
<event>
 8    1  0.1061722E+005  0.1043930E+01  0.7957747E-01            NaN
         13   -1    0    0    0    0  0.00000000000E+00  0.00000000000E+00  0.74505805969E-08  0.10566000000E+00  0.10566000000E+00 0. -1.
     999900   -1    0    0    0    0 -0.00000000000E+00 -0.00000000000E+00 -0.74505805969E-08  0.93827000000E+00  0.93827000000E+00 0. -1.
     999902    2    1    2    0    0  0.17833123422E-01  0.26637290597E-02 -0.66416581475E-02  0.10247147101E+01  0.10245345332E+01 0.  0.
     999903    2    3    3    0    0  0.81073580755E-01 -0.10670527711E+00 -0.57201461219E-02  0.13569177217E+00  0.20508420334E-01 0.  0.
         14    1    1    2    0    0 -0.17833123422E-01 -0.26637290597E-02  0.66416581475E-02  0.19215289913E-01  0.00000000000E+00 0. -1.
     999901    1    3    3    0    0 -0.63240457333E-01  0.10936900617E+00 -0.92151202554E-03  0.88902293791E+00  0.88000000000E+00 0.  1.
        -11    1    4    4    0    0  0.62336450860E-01 -0.68100626640E-01  0.52037082077E-03  0.92325837994E-01  0.51100000000E-03 0. -1.
         11    1    4    4    0    0  0.18737129895E-01 -0.38604650467E-01 -0.62405169427E-02  0.43365934178E-01  0.51100000000E-03 0.  1.
</event>
<event>
 8    1  0.1061722E+005  0.1043930E+01  0.7957747E-01            NaN
         13   -1    0    0    0    0  0.00000000000E+00  0.00000000000E+00  0.74505805969E-08  0.10566000000E+00  0.10566000000E+00 0. -1.
     999900   -1    0    0    0    0 -0.00000000000E+00 -0.00000000000E+00 -0.74505805969E-08  0.93827000000E+00  0.93827000000E+00 0.  1.
     999902    2    1    2    0    0  0.13559504967E-01 -0.21691988754E-01 -0.98870518890E-03  0.10183296076E+01  0.10180077651E+01 0.  0.
     999903    2    3    3    0    0  0.49470047715E-01 -0.40474501551E-01 -0.11201361928E+00  0.13042821592E+00  0.19467863436E-01 0.  0.
         14    1    1    2    0    0 -0.13559504967E-01  0.21691988754E-01  0.98870518890E-03  0.25600392361E-01  0.00000000000E+00 0. -1.
     999901    1    3    3    0    0 -0.35910542747E-01  0.18782512797E-01  0.11102491409E+00  0.88790139172E+00  0.88000000000E+00 0. -1.
        -11    1    4    4    0    0  0.47474387045E-01 -0.31303041422E-01 -0.89598056982E-01  0.10612149058E+00  0.51100000000E-03 0. -1.
         11    1    4    4    0    0  0.19956606699E-02 -0.91714601292E-02 -0.22415562299E-01  0.24306725337E-01  0.51100000000E-03 0.  1.
</event>
<event>
 8    1  0.1061722E+005  0.1043930E+01  0.7957747E-01            NaN
         13   -1    0    0    0    0  0.00000000000E+00  0.00000000000E+00  0.74505805969E-08  0.10566000000E+00  0.10566000000E+00 0. -1.
     999900   -1    0    0    0    0 -0.00000000000E+00 -0.00000000000E+00 -0.74505805969E-08  0.93827000000E+00  0.93827000000E+00 0. -1.
     999902    2    1    2    0    0  0.14312251818E-01  0.17281147428E-01 -0.16426486697E-01  0.10161215827E+01  0.10157409919E+01 0.  0.
     999903    2    3    3    0    0 -0.72804502087E-01 -0.91912566746E-01 -0.38040342775E-01  0.12484174178E+00  0.19747844486E-01 0.  0.
         14    1    1    2    0    0 -0.14312251818E-01 -0.17281147428E-01  0.16426486697E-01  0.27808417318E-01  0.00000000000E+00 0.  1.
     999901    1    3    3    0    0  0.87116753905E-01  0.10919371417E+00  0.21613856078E-01  0.89127984090E+00  0.88000000000E+00 0.  1.
        -11    1    4    4    0    0 -0.20289729638E-01 -0.33824402848E-01 -0.46806696329E-02  0.39723206643E-01  0.51100000000E-03 0. -1.
         11    1    4    4    0    0 -0.52514772448E-01 -0.58088163898E-01 -0.33359673142E-01  0.85118535135E-01  0.51100000000E-03 0.  1.
</event>
<event>
 8    1  0.1061722E+005  0.1043930E+01  0.7957747E-01            NaN
         13   -1    0    0    0    0  0.00000000000E+00  0.00000000000E+00  0.74505805969E-08  0.10566000000E+00  0.10566000000E+00 0. -1.
     999900   -1    0    0    0    0 -0.00000000000E+00 -0.00000000000E+00 -0.74505805969E-08  0.93827000000E+00  0.93827000000E+00 0.  1.
     999902    2    1    2    0    0 -0.40626938108E-02  0.21236987608E-01 -0.87382943963E-02  0.10206089170E+01  0.10203424369E+01 0.  0.
     999903    2    3    3    0    0 -0.11445980006E+00  0.61554036195E-01 -0.15469183353E-01  0.13276980412E+00  0.22328906171E-01 0.  0.
         14    1    1    2    0    0  0.40626938108E-02 -0.21236987608E-01  0.87382943963E-02  0.23321083007E-01  0.00000000000E+00 0.  1.
     999901    1    3    3    0    0  0.11039710625E+00 -0.40317048586E-01  0.67308889563E-02  0.88783911287E+00  0.88000000000E+00 0. -1.
        -11    1    4    4    0    0 -0.46252259584E-01  0.19372643128E-01  0.37903677619E-02  0.50291140643E-01  0.51100000000E-03 0.  1.
         11    1    4    4    0    0 -0.68207540479E-01  0.42181393067E-01 -0.19259551114E-01  0.82478663479E-01  0.51100000000E-03 0. -1.
</event>
<event>
 8    1  0.1061722E+005  0.1043930E+01  0.7957747E-01            NaN
         13   -1    0    0    0    0  0.00000000000E+00  0.00000000000E+00  0.74505805969E-08  0.10566000000E+00  0.10566000000E+00 0.  1.
     999900   -1    0    0    0    0 -0.00000000000E+00 -0.00000000000E+00 -0.74505805969E-08  0.93827000000E+00  0.93827000000E+00 0.  1.
     999902    2    1    2    0    0 -0.16163003225E-01 -0.11117619974E-01 -0.12148710586E-01  0.10208554401E+01  0.10205946278E+01 0.  0.
     999903    2    3    3    0    0 -0.13710603310E-01 -0.34512594876E-01  0.12332015522E+00  0.13017864531E+00  0.18960990539E-01 0.  0.
         14    1    1    2    0    0  0.16163003225E-01  0.11117619974E-01  0.12148710586E-01  0.23074559932E-01  0.00000000000E+00 0.  1.
     999901    1    3    3    0    0 -0.24523999149E-02  0.23394974902E-01 -0.13546886581E+00  0.89067679476E+00  0.88000000000E+00 0.  1.
        -11    1    4    4    0    0 -0.21607758553E-02 -0.68502532028E-02  0.56293759810E-01  0.56752475151E-01  0.51100000000E-03 0.  1.
         11    1    4    4    0    0 -0.11549827455E-01 -0.27662341673E-01  0.67026395415E-01  0.73426170160E-01  0.51100000000E-03 0. -1.
</event>
<event>
 8    1  0.1061722E+005  0.1043930E+01  0.7957747E-01            NaN
         13   -1    0    0    0    0  0.00000000000E+00  0.00000000000E+00  0.74505805969E-08  0.10566000000E+00  0.10566000000E+00 0.  1.
     999900   -1    0    0    0    0 -0.00000000000E+00 -0.00000000000E+00 -0.74505805969E-08  0.93827000000E+00  0.93827000000E+00 0.  1.
     999902    2    1    2    0    0 -0.85156215278E-02  0.20508242103E-01  0.77237912737E-02  0.10204191354E+01  0.10201482496E+01 0.  0.
     999903    2    3    3    0    0 -0.47840546780E-01 -0.33188680169E-03 -0.11951570869E+00  0.13015476392E+00  0.19168460607E-01 0.  0.
         14    1    1    2    0    0  0.85156215278E-02 -0.20508242103E-01 -0.77237912737E-02  0.23510864633E-01  0.00000000000E+00 0. -1.
     999901    1    3    3    0    0  0.39324925252E-01  0.20840128904E-01  0.12723949996E+00  0.89026437145E+00  0.88000000000E+00 0. -1.
        -11    1    4    4    0    0 -0.24204482331E-01 -0.96804602161E-02 -0.57868830765E-01  0.63471497305E-01  0.51100000000E-03 0. -1.
         11    1    4    4    0    0 -0.23636064448E-01  0.93485734144E-02 -0.61646877925E-01  0.66683266614E-01  0.51100000000E-03 0.  1.
</event>
<event>
 8    1  0.1061722E+005  0.1043930E+01  0.7957747E-01            NaN
         13   -1    0    0    0    0  0.00000000000E+00  0.00000000000E+00  0.74505805969E-08  0.10566000000E+00  0.10566000000E+00 0.  1.
     999900   -1    0    0    0    0 -0.00000000000E+00 -0.00000000000E+00 -0.74505805969E-08  0.93827000000E+00  0.93827000000E+00 0.  1.
     999902    2    1    2    0    0  0.77147381938E-02 -0.19727883280E-01 -0.11594880725E-01  0.10197815462E+01  0.10194955880E+01 0.  0.
     999903    2    3    3    0    0 -0.82745187968E-01 -0.35066017819E-01 -0.93173115507E-01  0.13125846542E+00  0.21706302147E-01 0.  0.
         14    1    1    2    0    0 -0.77147381938E-02  0.19727883280E-01  0.11594880725E-01  0.24148453846E-01  0.00000000000E+00 0. -1.
     999901    1    3    3    0    0  0.90459926162E-01  0.15338134539E-01  0.81578234781E-01  0.88852308074E+00  0.88000000000E+00 0. -1.
        -11    1    4    4    0    0 -0.57016209767E-01 -0.29279698034E-01 -0.52853870023E-01  0.83077924808E-01  0.51100000000E-03 0. -1.
         11    1    4    4    0    0 -0.25728978201E-01 -0.57863197854E-02 -0.40319245484E-01  0.48180540609E-01  0.51100000000E-03 0.  1.
</event>
<event>
 8    1  0.1061722E+005  0.1043930E+01  0.7957747E-01            NaN
         13   -1    0    0    0    0  0.00000000000E+00  0.00000000000E+00  0.74505805969E-08  0.10566000000E+00  0.10566000000E+00 0. -1.
     999900   -1    0    0    0    0 -0.00000000000E+00 -0.00000000000E+00 -0.74505805969E-08  0.93827000000E+00  0.93827000000E+00 0. -1.
     999902    2    1    2    0    0 -0.16032652334E-01 -0.15246625339E-01  0.76176240491E-02  0.10205305615E+01  0.10202622669E+01 0.  0.
     999903    2    3    3    0    0 -0.22853180290E-01 -0.52822686237E-01 -0.11604418978E+00  0.13106402243E+00  0.19975484086E-01 0.  0.
         14    1    1    2    0    0  0.16032652334E-01  0.15246625339E-01 -0.76176240491E-02  0.23399438482E-01  0.00000000000E+00 0.  1.
     999901    1    3    3    0    0  0.68205279554E-02  0.37576060898E-01  0.12366181383E+00  0.88946653909E+00  0.88000000000E+00 0.  1.
        -11    1    4    4    0    0 -0.94484093931E-02 -0.35608047752E-01 -0.54680848869E-01  0.65935285385E-01  0.51100000000E-03 0.  1.
         11    1    4    4    0    0 -0.13404770896E-01 -0.17214638485E-01 -0.61363340909E-01  0.65128737048E-01  0.51100000000E-03 0. -1.
</event>
<event>
 8    1  0.1061722E+005  0.1043930E+01  0.7957747E-01            NaN
         13   -1    0    0    0    0  0.00000000000E+00  0.00000000000E+00  0.74505805969E-08  0.10566000000E+00  0.10566000000E+00 0. -1.
     999900   -1    0    0    0    0 -0.00000000000E+00 -0.00000000000E+00 -0.74505805969E-08  0.93827000000E+00  0.93827000000E+00 0. -1.
     999902    2    1    2    0    0 -0.80419404062E-02  0.19960816867E-01 -0.10674213296E-01  0.10199082214E+01  0.10196252911E+01 0.  0.
     999903    2    3    3    0    0 -0.75975808901E-01  0.10573325059E+00 -0.18926557463E-01  0.13309368499E+00  0.20096531783E-01 0.  0.
         14    1    1    2    0    0  0.80419404062E-02 -0.19960816867E-01  0.10674213296E-01  0.24021778556E-01  0.00000000000E+00 0. -1.
     999901    1    3    3    0    0  0.67933868495E-01 -0.85772433721E-01  0.82523441662E-02  0.88681453645E+00  0.88000000000E+00 0. -1.
        -11    1    4    4    0    0 -0.58873102301E-01  0.78752417417E-01 -0.56297434605E-02  0.98488276237E-01  0.51100000000E-03 0. -1.
         11    1    4    4    0    0 -0.17102706600E-01  0.26980833171E-01 -0.13296814002E-01  0.34605408757E-01  0.51100000000E-03 0.  1.
</event>
<event>
 8    1  0.1061722E+005  0.1043930E+01  0.7957747E-01            NaN
         13   -1    0    0    0    0  0.00000000000E+00  0.00000000000E+00  0.74505805969E-08  0.10566000000E+00  0.10566000000E+00 0.  1.
     999900   -1    0    0    0    0 -0.00000000000E+00 -0.00000000000E+00 -0.74505805969E-08  0.93827000000E+00  0.93827000000E+00 0. -1.
     999902    2    1    2    0    0  0.18161200522E-01  0.11314232328E-01 -0.10369943194E-01  0.10201523471E+01  0.10198752053E+01 0.  0.
     999903    2    3    3    0    0  0.11046379351E+00  0.61282416457E-01 -0.38060138659E-01  0.13348254661E+00  0.20278852353E-01 0.  0.
         14    1    1    2    0    0 -0.18161200522E-01 -0.11314232328E-01  0.10369943194E-01  0.23777652941E-01  0.00000000000E+00 0.  1.
     999901    1    3    3    0    0 -0.92302592986E-01 -0.49968184129E-01  0.27690195465E-01  0.88666980045E+00  0.88000000000E+00 0.  1.
        -11    1    4    4    0    0  0.87566615297E-01  0.55827234533E-01 -0.26121389765E-01  0.10708492123E+00  0.51100000000E-03 0.  1.
         11    1    4    4    0    0  0.22897178210E-01  0.54551819238E-02 -0.11938748893E-01  0.26397625385E-01  0.51100000000E-03 0. -1.
</event>
<event>
 8    1  0.1061722E+005  0.1043930E+01  0.7957747E-01            NaN
         13   -1    0    0    0    0  0.00000000000E+00  0.00000000000E+00  0.74505805969E-08  0.10566000000E+00  0.10566000000E+00 0.  1.
     999900   -1    0    0    0    0 -0.00000000000E+00 -0.00000000000E+00 -0.74505805969E-08  0.93827000000E+00  0.93827000000E+00 0. -1.
     999902    2    1    2    0    0 -0.18133476385E-01 -0.13744718795E-01 -0.77127892505E-02  0.10199044432E+01  0.10196214228E+01 0.  0.
     999903    2    3    3    0    0 -0.82757355373E-01  0.91699481106E-01  0.35986202715E-01  0.13018295482E+00  0.19875115984E-01 0.  0.
         14    1    1    2    0    0  0.18133476385E-01  0.13744718795E-01  0.77127892505E-02  0.24025556780E-01  0.00000000000E+00 0.  1.
     999901    1    3    3    0    0  0.64623878987E-01 -0.10544419990E+00 -0.43698991965E-01  0.88972148840E+00  0.88000000000E+00 0. -1.
        -11    1    4    4    0    0 -0.42001165748E-01  0.37172684061E-01  0.24220072665E-01  0.61096476211E-01  0.51100000000E-03 0.  1.
         11    1    4    4    0    0 -0.40756189625E-01  0.54526797044E-01  0.11766130050E-01  0.69086478605E-01  0.51100000000E-03 0. -1.
</event>
<event>
 8    1  0.1061722E+005  0.1043930E+01  0.7957747E-01            NaN
         13   -1    0    0    0    0  0.00000000000E+00  0.00000000000E+00  0.74505805969E-08  0.10566000000E+00  0.10566000000E+00 0. -1.
     999900   -1    0    0    0    0 -0.00000000000E+00 -0.00000000000E+00 -0.74505805969E-08  0.93827000000E+00  0.93827000000E+00 0. -1.
     999902    2    1    2    0    0  0.12613140134E-01 -0.23837172042E-01  0.34024901058E-03  0.10169593151E+01  0.10166016086E+01 0.  0.
     999903    2    3    3    0    0  0.29229422466E-01  0.11594306781E+00 -0.31208406376E-01  0.12521387274E+00  0.20184033016E-01 0.  0.
         14    1    1    2    0    0 -0.12613140134E-01  0.23837172042E-01 -0.34024901058E-03  0.26970684907E-01  0.00000000000E+00 0.  1.
     999901    1    3    3    0    0 -0.16616282332E-01 -0.13978023985E+00  0.31548655387E-01  0.89174544235E+00  0.88000000000E+00 0.  1.
        -11    1    4    4    0    0  0.22304618903E-01  0.50288430048E-01 -0.10384013339E-01  0.55986704449E-01  0.51100000000E-03 0.  1.
         11    1    4    4    0    0  0.69248035627E-02  0.65654637761E-01 -0.20824393038E-01  0.69227168296E-01  0.51100000000E-03 0. -1.
</event>
<event>
 8    1  0.1061722E+005  0.1043930E+01  0.7957747E-01            NaN
         13   -1    0    0    0    0  0.00000000000E+00  0.00000000000E+00  0.74505805969E-08  0.10566000000E+00  0.10566000000E+00 0. -1.
     999900   -1    0    0    0    0 -0.00000000000E+00 -0.00000000000E+00 -0.74505805969E-08  0.93827000000E+00  0.93827000000E+00 0. -1.
     999902    2    1    2    0    0  0.73399686476E-02 -0.12433970402E-01 -0.19143519644E-01  0.10199518203E+01  0.10196699282E+01 0.  0.
     999903    2    3    3    0    0  0.85545811549E-02 -0.40664737825E-01 -0.12490351555E+00  0.13316908009E+00  0.20157230313E-01 0.  0.
         14    1    1    2    0    0 -0.73399686476E-02  0.12433970402E-01  0.19143519644E-01  0.23978179749E-01  0.00000000000E+00 0. -1.
     999901    1    3    3    0    0 -0.12146125073E-02  0.28230767423E-01  0.10575999591E+00  0.88678274016E+00  0.88000000000E+00 0.  1.
        -11    1    4    4    0    0 -0.11678709763E-02 -0.34746126533E-01 -0.92255392833E-01  0.98589937921E-01  0.51100000000E-03 0.  1.
         11    1    4    4    0    0  0.97224521312E-02 -0.59186112919E-02 -0.32648122719E-01  0.34579142169E-01  0.51100000000E-03 0. -1.
</event>
<event>
 8    1  0.1061722E+005  0.1043930E+01  0.7957747E-01            NaN
         13   -1    0    0    0    0  0.00000000000E+00  0.00000000000E+00  0.74505805969E-08  0.10566000000E+00  0.10566000000E+00 0.  1.
     999900   -1    0    0    0    0 -0.00000000000E+00 -0.00000000000E+00 -0.74505805969E-08  0.93827000000E+00  0.93827000000E+00 0. -1.
     999902    2    1    2    0    0  0.99660944958E-02  0.26847591821E-02 -0.21584151850E-01  0.10200049800E+01  0.10197243513E+01 0.  0.
     999903    2    3    3    0    0  0.36211959878E-01 -0.11898191885E+00  0.30705940260E-01  0.12970959096E+00  0.20340112345E-01 0.  0.
         14    1    1    2    0    0 -0.99660944958E-02 -0.26847591821E-02  0.21584151850E-01  0.23925020009E-01  0.00000000000E+00 0.  1.
     999901    1    3    3    0    0 -0.26245865382E-01  0.12166667803E+00 -0.52290092109E-01  0.89029538903E+00  0.88000000000E+00 0.  1.
        -11    1    4    4    0    0  0.35443583020E-01 -0.85910461410E-01  0.22300013340E-01  0.95574089967E-01  0.51100000000E-03 0. -1.
         11    1    4    4    0    0  0.76837685800E-03 -0.33071457435E-01  0.84059269191E-02  0.34135500996E-01  0.51100000000E-03 0.  1.
</event>
<event>
 8    1  0.1061722E+005  0.1043930E+01  0.7957747E-01            NaN
         13   -1    0    0    0    0  0.00000000000E+00  0.00000000000E+00  0.74505805969E-08  0.10566000000E+00  0.10566000000E+00 0.  1.
     999900   -1    0    0    0    0 -0.00000000000E+00 -0.00000000000E+00 -0.74505805969E-08  0.93827000000E+00  0.93827000000E+00 0. -1.
     999902    2    1    2    0    0  0.15333015718E-01  0.13365132234E-01 -0.13337001633E-01  0.10196070943E+01  0.10193169394E+01 0.  0.
     999903    2    3    3    0    0 -0.47020146439E-01  0.12818210872E-01  0.11645670673E+00  0.12790387981E+00  0.20543544649E-01 0.  0.
         14    1    1    2    0    0 -0.15333015718E-01 -0.13365132234E-01  0.13337001633E-01  0.24322905731E-01  0.00000000000E+00 0.  1.
     999901    1    3    3    0    0  0.62353162157E-01  0.54692136168E-03 -0.12979370836E+00  0.89170321446E+00  0.88000000000E+00 0. -1.
        -11    1    4    4    0    0 -0.39588747297E-01  0.18315738779E-01  0.95232232184E-01  0.10474814732E+00  0.51100000000E-03 0.  1.
         11    1    4    4    0    0 -0.74313991420E-02 -0.54975279062E-02  0.21224474543E-01  0.23155732485E-01  0.51100000000E-03 0. -1.
</event>
<event>
 8    1  0.1061722E+005  0.1043930E+01  0.7957747E-01            NaN
         13   -1    0    0    0    0  0.00000000000E+00  0.00000000000E+00  0.74505805969E-08  0.10566000000E+00  0.10566000000E+00 0.  1.
     999900   -1    0    0    0    0 -0.00000000000E+00 -0.00000000000E+00 -0.74505805969E-08  0.93827000000E+00  0.93827000000E+00 0. -1.
     999902    2    1    2    0    0 -0.54068532682E-02  0.19465895988E-01  0.10036478254E-01  0.10213714968E+01  0.10211223475E+01 0.  0.
     999903    2    3    3    0    0  0.95386269065E-01  0.28811407702E-01  0.84757186639E-01  0.13242280521E+00  0.20576226879E-01 0.  0.
         14    1    1    2    0    0  0.54068532682E-02 -0.19465895988E-01 -0.10036478254E-01  0.22558503155E-01  0.00000000000E+00 0.  1.
     999901    1    3    3    0    0 -0.10079312233E+00 -0.93455117146E-02 -0.74720708386E-01  0.88894869164E+00  0.88000000000E+00 0. -1.
        -11    1    4    4    0    0  0.14151239096E-01  0.47595247183E-02  0.23608940071E-01  0.27938393221E-01  0.51100000000E-03 0.  1.
         11    1    4    4    0    0  0.81235029970E-01  0.24051882984E-01  0.61148246568E-01  0.10448441199E+00  0.51100000000E-03 0. -1.
</event>
<event>
 8    1  0.1061722E+005  0.1043930E+01  0.7957747E-01            NaN
         13   -1    0    0    0    0  0.00000000000E+00  0.00000000000E+00  0.74505805969E-08  0.10566000000E+00  0.10566000000E+00 0. -1.
     999900   -1    0    0    0    0 -0.00000000000E+00 -0.00000000000E+00 -0.74505805969E-08  0.93827000000E+00  0.93827000000E+00 0. -1.
     999902    2    1    2    0    0  0.33721052233E-02  0.22740160854E-01 -0.35407010958E-02  0.10206701080E+01  0.10204050406E+01 0.  0.
     999903    2    3    3    0    0 -0.67270158874E-01 -0.61300904990E-01 -0.90116452584E-01  0.12963217902E+00  0.20011286392E-01 0.  0.
         14    1    1    2    0    0 -0.33721052233E-02 -0.22740160854E-01  0.35407010958E-02  0.23259891951E-01  0.00000000000E+00 0.  1.
     999901    1    3    3    0    0  0.70642264098E-01  0.84041065845E-01  0.86575751488E-01  0.89103792903E+00  0.88000000000E+00 0.  1.
        -11    1    4    4    0    0 -0.42000738070E-01 -0.36033133878E-01 -0.40930984209E-01  0.68833533432E-01  0.51100000000E-03 0.  1.
         11    1    4    4    0    0 -0.25269420804E-01 -0.25267771112E-01 -0.49185468376E-01  0.60798645586E-01  0.51100000000E-03 0. -1.
</event>
<event>
 8    1  0.1061722E+005  0.1043930E+01  0.7957747E-01            NaN
         13   -1    0    0    0    0  0.00000000000E+00  0.00000000000E+00  0.74505805969E-08  0.10566000000E+00  0.10566000000E+00 0. -1.
     999900   -1    0    0    0    0 -0.00000000000E+00 -0.00000000000E+00 -0.74505805969E-08  0.93827000000E+00  0.93827000000E+00 0.  1.
     999902    2    1    2    0    0 -0.10588121821E-02 -0.22180052693E-01  0.75635495030E-02  0.10204718862E+01  0.10202022287E+01 0.  0.
     999903    2    3    3    0    0 -0.31241648745E-01  0.65458297505E-01  0.10607824646E+00  0.13013676417E+00  0.20546378949E-01 0.  0.
         14    1    1    2    0    0  0.10588121821E-02  0.22180052693E-01 -0.75635495030E-02  0.23458113773E-01  0.00000000000E+00 0.  1.
     999901    1    3    3    0    0  0.30182836563E-01 -0.87638350198E-01 -0.98514696959E-01  0.89033512206E+00  0.88000000000E+00 0.  1.
        -11    1    4    4    0    0 -0.22276835049E-01  0.42343293245E-01  0.52118867684E-01  0.70752027196E-01  0.51100000000E-03 0.  1.
         11    1    4    4    0    0 -0.89648136962E-02  0.23115004260E-01  0.53959378778E-01  0.59384736976E-01  0.51100000000E-03 0. -1.
</event>
<event>
 8    1  0.1061722E+005  0.1043930E+01  0.7957747E-01            NaN
         13   -1    0    0    0    0  0.00000000000E+00  0.00000000000E+00  0.74505805969E-08  0.10566000000E+00  0.10566000000E+00 0. -1.
     999900   -1    0    0    0    0 -0.00000000000E+00 -0.00000000000E+00 -0.74505805969E-08  0.93827000000E+00  0.93827000000E+00 0.  1.
     999902    2    1    2    0    0 -0.22798142080E-01  0.24351695802E-03  0.63567394351E-02  0.10202609755E+01  0.10199863899E+01 0.  0.
     999903    2    3    3    0    0 -0.64866451368E-01 -0.11223919519E+00  0.14749565159E-01  0.13206474570E+00  0.20451257517E-01 0.  0.
         14    1    1    2    0    0  0.22798142080E-01 -0.24351695802E-03 -0.63567394351E-02  0.23669024464E-01  0.00000000000E+00 0. -1.
     999901    1    3    3    0    0  0.42068309288E-01  0.11248271215E+00 -0.83928257241E-02  0.88819622984E+00  0.88000000000E+00 0.  1.
        -11    1    4    4    0    0 -0.30476215984E-01 -0.56966184146E-01 -0.27061968456E-02  0.64664754691E-01  0.51100000000E-03 0. -1.
         11    1    4    4    0    0 -0.34390235383E-01 -0.55273011042E-01  0.17455762005E-01  0.67399991005E-01  0.51100000000E-03 0.  1.
</event>
<event>
 8    1  0.1061722E+005  0.1043930E+01  0.7957747E-01            NaN
         13   -1    0    0    0    0  0.00000000000E+00  0.00000000000E+00  0.74505805969E-08  0.10566000000E+00  0.10566000000E+00 0.  1.
     999900   -1    0    0    0    0 -0.00000000000E+00 -0.00000000000E+00 -0.74505805969E-08  0.93827000000E+00  0.93827000000E+00 0. -1.
     999902    2    1    2    0    0 -0.77332483540E-02  0.22585832575E-01  0.29829891413E-03  0.10200550771E+01  0.10197756362E+01 0.  0.
     999903    2    3    3    0    0  0.59279241911E-01 -0.30554019214E-01  0.10889184636E+00  0.12926493553E+00  0.20110015955E-01 0.  0.
         14    1    1    2    0    0  0.77332483540E-02 -0.22585832575E-01 -0.29829891413E-03  0.23874922941E-01  0.00000000000E+00 0.  1.
     999901    1    3    3    0    0 -0.67012490264E-01  0.53139851788E-01 -0.10859354745E+00  0.89079014153E+00  0.88000000000E+00 0. -1.
        -11    1    4    4    0    0  0.18278155539E-01 -0.20423541079E-01  0.43693048897E-01  0.51580574280E-01  0.51100000000E-03 0. -1.
         11    1    4    4    0    0  0.41001086372E-01 -0.10130478134E-01  0.65198797465E-01  0.77684361249E-01  0.51100000000E-03 0.  1.
</event>
<event>
 8    1  0.1061722E+005  0.1043930E+01  0.7957747E-01            NaN
         13   -1    0    0    0    0  0.00000000000E+00  0.00000000000E+00  0.74505805969E-08  0.10566000000E+00  0.10566000000E+00 0.  1.
     999900   -1    0    0    0    0 -0.00000000000E+00 -0.00000000000E+00 -0.74505805969E-08  0.93827000000E+00  0.93827000000E+00 0. -1.
     999902    2    1    2    0    0 -0.10023872443E-01  0.88923753843E-02 -0.19433824514E-01  0.10203243673E+01  0.10200512677E+01 0.  0.
     999903    2    3    3    0    0  0.30012764548E-01  0.97120061362E-01  0.77951543320E-01  0.12966676379E+00  0.20098611144E-01 0.  0.
         14    1    1    2    0    0  0.10023872443E-01 -0.88923753843E-02  0.19433824514E-01  0.23605632675E-01  0.00000000000E+00 0. -1.
     999901    1    3    3    0    0 -0.40036636991E-01 -0.88227685978E-01 -0.97385367834E-01  0.89065760354E+00  0.88000000000E+00 0.  1.
        -11    1    4    4    0    0  0.20763356400E-01  0.51997627517E-01  0.53823836553E-01  0.77666831651E-01  0.51100000000E-03 0.  1.
         11    1    4    4    0    0  0.92494081474E-02  0.45122433845E-01  0.24127706767E-01  0.51999932135E-01  0.51100000000E-03 0. -1.
</event>
<event>
 8    1  0.1061722E+005  0.1043930E+01  0.7957747E-01            NaN
         13   -1    0    0    0    0  0.00000000000E+00  0.00000000000E+00  0.74505805969E-08  0.10566000000E+00  0.10566000000E+00 0. -1.
     999900   -1    0    0    0    0 -0.00000000000E+00 -0.00000000000E+00 -0.74505805969E-08  0.93827000000E+00  0.93827000000E+00 0. -1.
     999902    2    1    2    0    0  0.15228454207E-01 -0.18266489045E-01 -0.23052328267E-02  0.10200368098E+01  0.10197569361E+01 0.  0.
     999903    2    3    3    0    0 -0.74344481248E-02 -0.10331169686E+00  0.79203315231E-01  0.13189834204E+00  0.19885415793E-01 0.  0.
         14    1    1    2    0    0 -0.15228454207E-01  0.18266489045E-01  0.23052328267E-02  0.23893190200E-01  0.00000000000E+00 0.  1.
     999901    1    3    3    0    0  0.22662902331E-01  0.85045207816E-01 -0.81508548058E-01  0.88813846776E+00  0.88000000000E+00 0. -1.
        -11    1    4    4    0    0 -0.90756614771E-02 -0.56023809372E-01  0.32451144580E-01  0.65378687302E-01  0.51100000000E-03 0.  1.
         11    1    4    4    0    0  0.16412133522E-02 -0.47287887489E-01  0.46752170651E-01  0.66519654734E-01  0.51100000000E-03 0. -1.
</event>
<event>
 8    1  0.1061722E+005  0.1043930E+01  0.7957747E-01            NaN
         13   -1    0    0    0    0  0.00000000000E+00  0.00000000000E+00  0.74505805969E-08  0.10566000000E+00  0.10566000000E+00 0. -1.
     999900   -1    0    0    0    0 -0.00000000000E+00 -0.00000000000E+00 -0.74505805969E-08  0.93827000000E+00  0.93827000000E+00 0. -1.
     999902    2    1    2    0    0 -0.17639547741E-01 -0.12624267471E-01  0.87692213310E-02  0.10205328844E+01  0.10202646437E+01 0.  0.
     999903    2    3    3    0    0 -0.71925289035E-01 -0.74018868337E-01  0.82436024570E-01  0.13366026866E+00  0.20428636737E-01 0.  0.
         14    1    1    2    0    0  0.17639547741E-01  0.12624267471E-01 -0.87692213310E-02  0.23397115558E-01  0.00000000000E+00 0. -1.
     999901    1    3    3    0    0  0.54285741294E-01  0.61394600866E-01 -0.73666803239E-01  0.88687261578E+00  0.88000000000E+00 0. -1.
        -11    1    4    4    0    0 -0.36339011632E-01 -0.29466219762E-01  0.26442399243E-01  0.53742380596E-01  0.51100000000E-03 0. -1.
         11    1    4    4    0    0 -0.35586277403E-01 -0.44552648575E-01  0.55993625326E-01  0.79917888064E-01  0.51100000000E-03 0.  1.
</event>
<event>
 8    1  0.1061722E+005  0.1043930E+01  0.7957747E-01            NaN
         13   -1    0    0    0    0  0.00000000000E+00  0.00000000000E+00  0.74505805969E-08  0.10566000000E+00  0.10566000000E+00 0. -1.
     999900   -1    0    0    0    0 -0.00000000000E+00 -0.00000000000E+00 -0.74505805969E-08  0.93827000000E+00  0.93827000000E+00 0.  1.
     999902    2    1    2    0    0  0.94433743097E-02 -0.21108670333E-01 -0.13967034032E-01  0.10169146095E+01  0.10165557003E+01 0.  0.
     999903    2    3    3    0    0 -0.26965897527E-01  0.11504944866E+00 -0.36542199620E-01  0.12541345613E+00  0.20728419108E-01 0.  0.
         14    1    1    2    0    0 -0.94433743097E-02  0.21108670333E-01  0.13967034032E-01  0.27015390451E-01  0.00000000000E+00 0. -1.
     999901    1    3    3    0    0  0.36409271837E-01 -0.13615811900E+00  0.22575165588E-01  0.89150115342E+00  0.88000000000E+00 0.  1.
        -11    1    4    4    0    0 -0.30379021273E-01  0.10279882002E+00 -0.31543853085E-01  0.11173968909E+00  0.51100000000E-03 0. -1.
         11    1    4    4    0    0  0.34131237453E-02  0.12250628648E-01 -0.49983465343E-02  0.13673767039E-01  0.51100000000E-03 0.  1.
</event>
<event>
 8    1  0.1061722E+005  0.1043930E+01  0.7957747E-01            NaN
         13   -1    0    0    0    0  0.00000000000E+00  0.00000000000E+00  0.74505805969E-08  0.10566000000E+00  0.10566000000E+00 0.  1.
     999900   -1    0    0    0    0 -0.00000000000E+00 -0.00000000000E+00 -0.74505805969E-08  0.93827000000E+00  0.93827000000E+00 0. -1.
     999902    2    1    2    0    0 -0.51798490533E-02 -0.11495442113E-01  0.20427848189E-01  0.10199243130E+01  0.10196417662E+01 0.  0.
     999903    2    3    3    0    0 -0.13259427266E-01  0.20539873610E-01 -0.12333237010E+00  0.12764714678E+00  0.22027749497E-01 0.  0.
         14    1    1    2    0    0  0.51798490533E-02  0.11495442113E-01 -0.20427848189E-01  0.24005686977E-01  0.00000000000E+00 0. -1.
     999901    1    3    3    0    0  0.80795782124E-02 -0.32035315723E-01  0.14376021829E+00  0.89227716624E+00  0.88000000000E+00 0.  1.
        -11    1    4    4    0    0  0.25693245249E-02  0.14455991775E-01 -0.40178601524E-01  0.42780349089E-01  0.51100000000E-03 0. -1.
         11    1    4    4    0    0 -0.15828751791E-01  0.60838818346E-02 -0.83153768573E-01  0.84866797691E-01  0.51100000000E-03 0.  1.
</event>
<event>
 8    1  0.1061722E+005  0.1043930E+01  0.7957747E-01            NaN
         13   -1    0    0    0    0  0.00000000000E+00  0.00000000000E+00  0.74505805969E-08  0.10566000000E+00  0.10566000000E+00 0. -1.
     999900   -1    0    0    0    0 -0.00000000000E+00 -0.00000000000E+00 -0.74505805969E-08  0.93827000000E+00  0.93827000000E+00 0. -1.
     999902    2    1    2    0    0  0.28869316645E-01 -0.66593423532E-02 -0.14191186829E-01  0.10110792151E+01  0.10105453999E+01 0.  0.
     999903    2    3    3    0    0  0.66484951322E-01 -0.10278171716E+00  0.12905348436E-01  0.12463199777E+00  0.19551386525E-01 0.  0.
         14    1    1    2    0    0 -0.28869316645E-01  0.66593423532E-02  0.14191186829E-01  0.32850784888E-01  0.00000000000E+00 0. -1.
     999901    1    3    3    0    0 -0.37615634677E-01  0.96122374808E-01 -0.27096535265E-01  0.88644721734E+00  0.88000000000E+00 0.  1.
        -11    1    4    4    0    0  0.55020625862E-01 -0.86235440773E-01  0.17989231676E-01  0.10386382476E+00  0.51100000000E-03 0.  1.
         11    1    4    4    0    0  0.11464325461E-01 -0.16546276388E-01 -0.50838832401E-02  0.20768173015E-01  0.51100000000E-03 0. -1.
</event>
<event>
 8    1  0.1061722E+005  0.1043930E+01  0.7957747E-01            NaN
         13   -1    0    0    0    0  0.00000000000E+00  0.00000000000E+00  0.74505805969E-08  0.10566000000E+00  0.10566000000E+00 0.  1.
     999900   -1    0    0    0    0 -0.00000000000E+00 -0.00000000000E+00 -0.74505805969E-08  0.93827000000E+00  0.93827000000E+00 0. -1.
     999902    2    1    2    0    0  0.16375582492E-01 -0.13048864954E-01  0.15479529267E-02  0.10229340781E+01  0.10227185827E+01 0.  0.
     999903    2    3    3    0    0  0.13062152889E+00  0.18827386872E-01  0.18618538001E-01  0.13481266940E+00  0.20281803846E-01 0.  0.
         14    1    1    2    0    0 -0.16375582492E-01  0.13048864954E-01 -0.15479529267E-02  0.20995921909E-01  0.00000000000E+00 0.  1.
     999901    1    3    3    0    0 -0.11424594640E+00 -0.31876251826E-01 -0.17070585075E-01  0.88812140869E+00  0.88000000000E+00 0.  1.
        -11    1    4    4    0    0  0.68486533469E-01  0.14687600769E-01  0.18848920620E-01  0.72537395959E-01  0.51100000000E-03 0. -1.
         11    1    4    4    0    0  0.62134995422E-01  0.41397861033E-02 -0.23038261829E-03  0.62275273442E-01  0.51100000000E-03 0.  1.
</event>
<event>
 8    1  0.1061722E+005  0.1043930E+01  0.7957747E-01            NaN
         13   -1    0    0    0    0  0.00000000000E+00  0.00000000000E+00  0.74505805969E-08  0.10566000000E+00  0.10566000000E+00 0. -1.
     999900   -1    0    0    0    0 -0.00000000000E+00 -0.00000000000E+00 -0.74505805969E-08  0.93827000000E+00  0.93827000000E+00 0. -1.
     999902    2    1    2    0    0 -0.12612723617E-01  0.12035648604E-01 -0.16021949894E-01  0.10202521514E+01  0.10199773586E+01 0.  0.
     999903    2    3    3    0    0 -0.54623016094E-01  0.11419083642E+00 -0.36069807992E-01  0.13312055822E+00  0.19920616522E-01 0.  0.
         14    1    1    2    0    0  0.12612723617E-01 -0.12035648604E-01  0.16021949894E-01  0.23677848567E-01  0.00000000000E+00 0. -1.
     999901    1    3    3    0    0  0.42010292477E-01 -0.10215518781E+00  0.20047858097E-01  0.88713159322E+00  0.88000000000E+00 0. -1.
        -11    1    4    4    0    0 -0.12226243668E-01  0.40721389261E-01 -0.19101461324E-01  0.46613726769E-01  0.51100000000E-03 0. -1.
         11    1    4    4    0    0 -0.42396772426E-01  0.73469447154E-01 -0.16968346668E-01  0.86506831446E-01  0.51100000000E-03 0.  1.
</event>
<event>
 8    1  0.1061722E+005  0.1043930E+01  0.7957747E-01            NaN
         13   -1    0    0    0    0  0.00000000000E+00  0.00000000000E+00  0.74505805969E-08  0.10566000000E+00  0.10566000000E+00 0. -1.
     999900   -1    0    0    0    0 -0.00000000000E+00 -0.00000000000E+00 -0.74505805969E-08  0.93827000000E+00  0.93827000000E+00 0.  1.
     999902    2    1    2    0    0  0.21196576941E-01 -0.80912422385E-02  0.76658790319E-02  0.10199815392E+01  0.10197003538E+01 0.  0.
     999903    2    3    3    0    0 -0.20876865693E-01 -0.14823466593E-03 -0.12551547920E+00  0.12893129360E+00  0.20815317817E-01 0.  0.
         14    1    1    2    0    0 -0.21196576941E-01  0.80912422385E-02 -0.76658790319E-02  0.23948460834E-01  0.00000000000E+00 0. -1.
     999901    1    3    3    0    0  0.42073442634E-01 -0.79430075726E-02  0.13318135823E+00  0.89105024557E+00  0.88000000000E+00 0. -1.
        -11    1    4    4    0    0 -0.12238510848E-01  0.99463550113E-02 -0.78599421456E-01  0.80167582600E-01  0.51100000000E-03 0.  1.
         11    1    4    4    0    0 -0.86383548453E-02 -0.10094589677E-01 -0.46916057744E-01  0.48763710999E-01  0.51100000000E-03 0. -1.
</event>
<event>
 8    1  0.1061722E+005  0.1043930E+01  0.7957747E-01            NaN
         13   -1    0    0    0    0  0.00000000000E+00  0.00000000000E+00  0.74505805969E-08  0.10566000000E+00  0.10566000000E+00 0.  1.
     999900   -1    0    0    0    0 -0.00000000000E+00 -0.00000000000E+00 -0.74505805969E-08  0.93827000000E+00  0.93827000000E+00 0.  1.
     999902    2    1    2    0    0  0.11661601335E-01  0.19673908156E-01 -0.55929592478E-02  0.10203856418E+01  0.10201139747E+01 0.  0.
     999903    2    3    3    0    0  0.11631980684E+00  0.50647067949E-01 -0.35495916289E-01  0.13313885349E+00  0.19250228016E-01 0.  0.
         14    1    1    2    0    0 -0.11661601335E-01 -0.19673908156E-01  0.55929592478E-02  0.23544358156E-01  0.00000000000E+00 0.  1.
     999901    1    3    3    0    0 -0.10465820551E+00 -0.30973159793E-01  0.29902957041E-01  0.88724678836E+00  0.88000000000E+00 0. -1.
        -11    1    4    4    0    0  0.66942551205E-01  0.21889170077E-01 -0.12455448318E-01  0.71525102183E-01  0.51100000000E-03 0.  1.
         11    1    4    4    0    0  0.49377255640E-01  0.28757897872E-01 -0.23040467971E-01  0.61613751305E-01  0.51100000000E-03 0. -1.
</event>
<event>
 8    1  0.1061722E+005  0.1043930E+01  0.7957747E-01            NaN
         13   -1    0    0    0    0  0.00000000000E+00  0.00000000000E+00  0.74505805969E-08  0.10566000000E+00  0.10566000000E+00 0.  1.
     999900   -1    0    0    0    0 -0.00000000000E+00 -0.00000000000E+00 -0.74505805969E-08  0.93827000000E+00  0.93827000000E+00 0. -1.
     999902    2    1    2    0    0  0.11391250297E-02 -0.10261898634E-01  0.21555142133E-01  0.10200296167E+01  0.10197495725E+01 0.  0.
     999903    2    3    3    0    0  0.40142056757E-01  0.73643993780E-01  0.99589635873E-01  0.13174429673E+00  0.20090833910E-01 0.  0.
         14    1    1    2    0    0 -0.11391250297E-02  0.10261898634E-01 -0.21555142133E-01  0.23900383297E-01  0.00000000000E+00 0. -1.
     999901    1    3    3    0    0 -0.39002931728E-01 -0.83905892413E-01 -0.78034493740E-01  0.88828531997E+00  0.88000000000E+00 0.  1.
        -11    1    4    4    0    0  0.57826520504E-02  0.30691117461E-01  0.35450944732E-01  0.47248432346E-01  0.51100000000E-03 0. -1.
         11    1    4    4    0    0  0.34359404707E-01  0.42952876318E-01  0.64138691140E-01  0.84495864384E-01  0.51100000000E-03 0.  1.
</event>
<event>
 8    1  0.1061722E+005  0.1043930E+01  0.7957747E-01            NaN
         13   -1    0    0    0    0  0.00000000000E+00  0.00000000000E+00  0.74505805969E-08  0.10566000000E+00  0.10566000000E+00 0.  1.
     999900   -1    0    0    0    0 -0.00000000000E+00 -0.00000000000E+00 -0.74505805969E-08  0.93827000000E+00  0.93827000000E+00 0.  1.
     999902    2    1    2    0    0 -0.82794071294E-02 -0.23875081156E-01 -0.30573669422E-02  0.10184758142E+01  0.10181576835E+01 0.  0.
     999903    2    3    3    0    0 -0.15116313238E-01 -0.39155169884E-01 -0.12191494022E+00  0.13032754553E+00  0.18983841068E-01 0.  0.
         14    1    1    2    0    0  0.82794071294E-02  0.23875081156E-01  0.30573669422E-02  0.25454185810E-01  0.00000000000E+00 0.  1.
     999901    1    3    3    0    0  0.68369061082E-02  0.15280088728E-01  0.11885757327E+00  0.88814826866E+00  0.88000000000E+00 0. -1.
        -11    1    4    4    0    0 -0.15873556037E-02 -0.13366203560E-01 -0.65130252383E-01  0.66508540744E-01  0.51100000000E-03 0. -1.
         11    1    4    4    0    0 -0.13528957634E-01 -0.25788966323E-01 -0.56784687835E-01  0.63819004788E-01  0.51100000000E-03 0.  1.
</event>
<event>
 8    1  0.1061722E+005  0.1043930E+01  0.7957747E-01            NaN
         13   -1    0    0    0    0  0.00000000000E+00  0.00000000000E+00  0.74505805969E-08  0.10566000000E+00  0.10566000000E+00 0. -1.
     999900   -1    0    0    0    0 -0.00000000000E+00 -0.00000000000E+00 -0.74505805969E-08  0.93827000000E+00  0.93827000000E+00 0. -1.
     999902    2    1    2    0    0  0.19459609605E-01 -0.87619073479E-02 -0.11431136188E-01  0.10197201198E+01  0.10194326875E+01 0.  0.
     999903    2    3    3    0    0 -0.54973269704E-02 -0.97746569677E-01  0.83450011220E-01  0.12980801683E+00  0.17366760619E-01 0.  0.
         14    1    1    2    0    0 -0.19459609605E-01  0.87619073479E-02  0.11431136188E-01  0.24209880233E-01  0.00000000000E+00 0. -1.
     999901    1    3    3    0    0  0.24956936575E-01  0.88984662329E-01 -0.94881147408E-01  0.88991210293E+00  0.88000000000E+00 0.  1.
        -11    1    4    4    0    0  0.53246641973E-02 -0.41279313411E-01  0.30047069819E-01  0.51336354469E-01  0.51100000000E-03 0.  1.
         11    1    4    4    0    0 -0.10821991168E-01 -0.56467256266E-01  0.53402941401E-01  0.78471662365E-01  0.51100000000E-03 0. -1.
</event>
<event>
 8    1  0.1061722E+005  0.1043930E+01  0.7957747E-01            NaN
         13   -1    0    0    0    0  0.00000000000E+00  0.00000000000E+00  0.74505805969E-08  0.10566000000E+00  0.10566000000E+00 0.  1.
     999900   -1    0    0    0    0 -0.00000000000E+00 -0.00000000000E+00 -0.74505805969E-08  0.93827000000E+00  0.93827000000E+00 0. -1.
     999902    2    1    2    0    0  0.10675371739E-01 -0.17213271321E-01 -0.79961127954E-02  0.10221539101E+01  0.10219219236E+01 0.  0.
     999903    2    3    3    0    0  0.85706728943E-01  0.96390849666E-01 -0.15685700630E-01  0.13165139431E+00  0.21194554368E-01 0.  0.
         14    1    1    2    0    0 -0.10675371739E-01  0.17213271321E-01  0.79961127954E-02  0.21776089896E-01  0.00000000000E+00 0. -1.
     999901    1    3    3    0    0 -0.75031357203E-01 -0.11360412099E+00  0.76895878341E-02  0.89050251579E+00  0.88000000000E+00 0.  1.
        -11    1    4    4    0    0  0.82857703849E-01  0.84253589748E-01 -0.12957873959E-01  0.11887907339E+00  0.51100000000E-03 0. -1.
         11    1    4    4    0    0  0.28490250939E-02  0.12137259918E-01 -0.27278266705E-02  0.12772320918E-01  0.51100000000E-03 0.  1.
</event>
<event>
 8    1  0.1061722E+005  0.1043930E+01  0.7957747E-01            NaN
         13   -1    0    0    0    0  0.00000000000E+00  0.00000000000E+00  0.74505805969E-08  0.10566000000E+00  0.10566000000E+00 0.  1.
     999900   -1    0    0    0    0 -0.00000000000E+00 -0.00000000000E+00 -0.74505805969E-08  0.93827000000E+00  0.93827000000E+00 0. -1.
     999902    2    1    2    0    0  0.15737258801E-01  0.18668656369E-02  0.16919122324E-01  0.10207480415E+01  0.10204847676E+01 0.  0.
     999903    2    3    3    0    0 -0.70361508985E-01  0.16099302741E-01 -0.10095880782E+00  0.12860973015E+00  0.33732066607E-01 0.  0.
         14    1    1    2    0    0 -0.15737258801E-01 -0.18668656369E-02 -0.16919122324E-01  0.23181958547E-01  0.00000000000E+00 0. -1.
     999901    1    3    3    0    0  0.86098767786E-01 -0.14232437105E-01  0.11787793014E+00  0.89213831130E+00  0.88000000000E+00 0.  1.
        -11    1    4    4    0    0 -0.68793812359E-01  0.64222052480E-02 -0.81751555896E-01  0.10703929816E+00  0.51100000000E-03 0.  1.
         11    1    4    4    0    0 -0.15676966262E-02  0.96770974934E-02 -0.19207251922E-01  0.21570431985E-01  0.51100000000E-03 0. -1.
</event>
<event>
 8    1  0.1061722E+005  0.1043930E+01  0.7957747E-01            NaN
         13   -1    0    0    0    0  0.00000000000E+00  0.00000000000E+00  0.74505805969E-08  0.10566000000E+00  0.10566000000E+00 0. -1.
     999900   -1    0    0    0    0 -0.00000000000E+00 -0.00000000000E+00 -0.74505805969E-08  0.93827000000E+00  0.93827000000E+00 0. -1.
     999902    2    1    2    0    0  0.10082707748E-01  0.85721332125E-03 -0.21407459978E-01  0.10202514200E+01  0.10199766099E+01 0.  0.
     999903    2    3    3    0    0  0.63048495563E-01  0.11336113549E+00 -0.33623549777E-02  0.13132615144E+00  0.20233457172E-01 0.  0.
         14    1    1    2    0    0 -0.10082707748E-01 -0.85721332125E-03  0.21407459978E-01  0.23678580045E-01  0.00000000000E+00 0. -1.
     999901    1    3    3    0    0 -0.52965787815E-01 -0.11250392217E+00 -0.18045105001E-01  0.88892526851E+00  0.88000000000E+00 0.  1.
        -11    1    4    4    0    0  0.31083692219E-01  0.40977553515E-01 -0.80348840362E-02  0.52059353593E-01  0.51100000000E-03 0. -1.
         11    1    4    4    0    0  0.31964803344E-01  0.72383581978E-01  0.46725290585E-02  0.79266797851E-01  0.51100000000E-03 0.  1.
</event>
<event>
 8    1  0.1061722E+005  0.1043930E+01  0.7957747E-01            NaN
         13   -1    0    0    0    0  0.00000000000E+00  0.00000000000E+00  0.74505805969E-08  0.10566000000E+00  0.10566000000E+00 0.  1.
     999900   -1    0    0    0    0 -0.00000000000E+00 -0.00000000000E+00 -0.74505805969E-08  0.93827000000E+00  0.93827000000E+00 0. -1.
     999902    2    1    2    0    0  0.10411562056E-01  0.22609042589E-02  0.21122660537E-01  0.10202724621E+01  0.10199981460E+01 0.  0.
     999903    2    3    3    0    0 -0.65309579880E-01  0.76986646834E-01 -0.76773126332E-01  0.12847584119E+00  0.20485209960E-01 0.  0.
         14    1    1    2    0    0 -0.10411562056E-01 -0.22609042589E-02 -0.21122660537E-01  0.23657537925E-01  0.00000000000E+00 0. -1.
     999901    1    3    3    0    0  0.75721141936E-01 -0.74725742575E-01  0.97895786869E-01  0.89179662089E+00  0.88000000000E+00 0.  1.
        -11    1    4    4    0    0 -0.28906316543E-01  0.45687864208E-01 -0.49248705663E-01  0.73134480257E-01  0.51100000000E-03 0. -1.
         11    1    4    4    0    0 -0.36403263337E-01  0.31298782626E-01 -0.27524420669E-01  0.55341360930E-01  0.51100000000E-03 0.  1.
</event>
<event>
 8    1  0.1061722E+005  0.1043930E+01  0.7957747E-01            NaN
         13   -1    0    0    0    0  0.00000000000E+00  0.00000000000E+00  0.74505805969E-08  0.10566000000E+00  0.10566000000E+00 0. -1.
     999900   -1    0    0    0    0 -0.00000000000E+00 -0.00000000000E+00 -0.74505805969E-08  0.93827000000E+00  0.93827000000E+00 0. -1.
     999902    2    1    2    0    0  0.15605293203E-01  0.17013948227E-01  0.61914464404E-02  0.10200274140E+01  0.10197473175E+01 0.  0.
     999903    2    3    3    0    0 -0.87202972516E-01  0.93190769629E-01 -0.16519933623E-01  0.13048356771E+00  0.21544727345E-01 0.  0.
         14    1    1    2    0    0 -0.15605293203E-01 -0.17013948227E-01 -0.61914464404E-02  0.23902586037E-01  0.00000000000E+00 0.  1.
     999901    1    3    3    0    0  0.10280826572E+00 -0.76176821402E-01  0.22711380064E-01  0.88954384625E+00  0.88000000000E+00 0.  1.
        -11    1    4    4    0    0 -0.30758618371E-01  0.35487674084E-01 -0.16449476429E-01  0.49762576418E-01  0.51100000000E-03 0.  1.
         11    1    4    4    0    0 -0.56444354145E-01  0.57703095545E-01 -0.70457194774E-04  0.80720991294E-01  0.51100000000E-03 0. -1.
</event>
<event>
 8    1  0.1061722E+005  0.1043930E+01  0.7957747E-01            NaN
         13   -1    0    0    0    0  0.00000000000E+00  0.00000000000E+00  0.74505805969E-08  0.10566000000E+00  0.10566000000E+00 0.  1.
     999900   -1    0    0    0    0 -0.00000000000E+00 -0.00000000000E+00 -0.74505805969E-08  0.93827000000E+00  0.93827000000E+00 0. -1.
     999902    2    1    2    0    0 -0.18987903683E-01  0.13406462264E-01  0.16435901651E-02  0.10206281738E+01  0.10203621387E+01 0.  0.
     999903    2    3    3    0    0  0.11857033643E+00  0.31245149320E-01 -0.34831152684E-01  0.12901677017E+00  0.19923196265E-01 0.  0.
         14    1    1    2    0    0  0.18987903683E-01 -0.13406462264E-01 -0.16435901651E-02  0.23301826224E-01  0.00000000000E+00 0.  1.
     999901    1    3    3    0    0 -0.13755824012E+00 -0.17838687056E-01  0.36474742849E-01  0.89161140361E+00  0.88000000000E+00 0.  1.
        -11    1    4    4    0    0  0.56855849339E-01  0.72279161278E-02 -0.22922222301E-01  0.61729407674E-01  0.51100000000E-03 0.  1.
         11    1    4    4    0    0  0.61714487093E-01  0.24017233192E-01 -0.11908930383E-01  0.67287362493E-01  0.51100000000E-03 0. -1.
</event>
<event>
 8    1  0.1061722E+005  0.1043930E+01  0.7957747E-01            NaN
         13   -1    0    0    0    0  0.00000000000E+00  0.00000000000E+00  0.74505805969E-08  0.10566000000E+00  0.10566000000E+00 0. -1.
     999900   -1    0    0    0    0 -0.00000000000E+00 -0.00000000000E+00 -0.74505805969E-08  0.93827000000E+00  0.93827000000E+00 0.  1.
     999902    2    1    2    0    0  0.11136693267E-01 -0.10007270917E-01 -0.17195072922E-01  0.10211299574E+01  0.10208753832E+01 0.  0.
     999903    2    3    3    0    0 -0.25578850736E-01  0.10656371468E+00  0.64733681234E-01  0.12891409420E+00  0.20452171157E-01 0.  0.
         14    1    1    2    0    0 -0.11136693267E-01  0.10007270917E-01  0.17195072922E-01  0.22800042564E-01  0.00000000000E+00 0. -1.
     999901    1    3    3    0    0  0.36715544003E-01 -0.11657098560E+00 -0.81928754156E-01  0.89221586324E+00  0.88000000000E+00 0.  1.
        -11    1    4    4    0    0 -0.24725173805E-01  0.60022839564E-01  0.36717351279E-01  0.74582172770E-01  0.51100000000E-03 0.  1.
         11    1    4    4    0    0 -0.85367693177E-03  0.46540875118E-01  0.28016329955E-01  0.54331921429E-01  0.51100000000E-03 0. -1.
</event>
<event>
 8    1  0.1061722E+005  0.1043930E+01  0.7957747E-01            NaN
         13   -1    0    0    0    0  0.00000000000E+00  0.00000000000E+00  0.74505805969E-08  0.10566000000E+00  0.10566000000E+00 0. -1.
     999900   -1    0    0    0    0 -0.00000000000E+00 -0.00000000000E+00 -0.74505805969E-08  0.93827000000E+00  0.93827000000E+00 0.  1.
     999902    2    1    2    0    0 -0.13012898075E-01  0.22400627965E-01 -0.10432345815E-01  0.10160022810E+01  0.10156183720E+01 0.  0.
     999903    2    3    3    0    0 -0.11405623716E-01  0.12543988270E+00  0.21098052781E-01  0.12942806674E+00  0.21005813600E-01 0.  0.
         14    1    1    2    0    0  0.13012898075E-01 -0.22400627965E-01  0.10432345815E-01  0.27927719004E-01  0.00000000000E+00 0.  1.
     999901    1    3    3    0    0 -0.16072743587E-02 -0.10303925473E+00 -0.31530398596E-01  0.88657421426E+00  0.88000000000E+00 0.  1.
        -11    1    4    4    0    0 -0.12731505848E-02  0.89129380882E-01  0.79241252878E-02  0.89491453957E-01  0.51100000000E-03 0.  1.
         11    1    4    4    0    0 -0.10132473132E-01  0.36310501818E-01  0.13173927493E-01  0.39936612784E-01  0.51100000000E-03 0. -1.
</event>
<event>
 8    1  0.1061722E+005  0.1043930E+01  0.7957747E-01            NaN
         13   -1    0    0    0    0  0.00000000000E+00  0.00000000000E+00  0.74505805969E-08  0.10566000000E+00  0.10566000000E+00 0. -1.
     999900   -1    0    0    0    0 -0.00000000000E+00 -0.00000000000E+00 -0.74505805969E-08  0.93827000000E+00  0.93827000000E+00 0. -1.
     999902    2    1    2    0    0  0.16651757292E-01 -0.42654537294E-02  0.19720930064E-01  0.10177691476E+01  0.10174328713E+01 0.  0.
     999903    2    3    3    0    0  0.11752238214E+00  0.38126632304E-01 -0.32731823781E-01  0.12944304569E+00  0.20468986174E-01 0.  0.
         14    1    1    2    0    0 -0.16651757292E-01  0.42654537294E-02 -0.19720930064E-01  0.26160852414E-01  0.00000000000E+00 0.  1.
     999901    1    3    3    0    0 -0.10087062485E+00 -0.42392086034E-01  0.52452753845E-01  0.88832610189E+00  0.88000000000E+00 0.  1.
        -11    1    4    4    0    0  0.15331264672E-01  0.80382023113E-02 -0.11581558658E-01  0.20833962533E-01  0.51100000000E-03 0.  1.
         11    1    4    4    0    0  0.10219111747E+00  0.30088429993E-01 -0.21150265123E-01  0.10860908316E+00  0.51100000000E-03 0. -1.
</event>
<event>
 8    1  0.1061722E+005  0.1043930E+01  0.7957747E-01            NaN
         13   -1    0    0    0    0  0.00000000000E+00  0.00000000000E+00  0.74505805969E-08  0.10566000000E+00  0.10566000000E+00 0.  1.
     999900   -1    0    0    0    0 -0.00000000000E+00 -0.00000000000E+00 -0.74505805969E-08  0.93827000000E+00  0.93827000000E+00 0.  1.
     999902    2    1    2    0    0  0.55186262464E-02 -0.22918917384E-01 -0.28769117057E-03  0.10203542757E+01  0.10200818757E+01 0.  0.
     999903    2    3    3    0    0  0.12173124864E+00 -0.79950420483E-03 -0.45343883633E-01  0.13129595224E+00  0.19063661484E-01 0.  0.
         14    1    1    2    0    0 -0.55186262464E-02  0.22918917384E-01  0.28769117057E-03  0.23575724292E-01  0.00000000000E+00 0.  1.
     999901    1    3    3    0    0 -0.11621262240E+00 -0.22119413179E-01  0.45056192462E-01  0.88905832347E+00  0.88000000000E+00 0.  1.
        -11    1    4    4    0    0  0.68697200578E-01 -0.70412289455E-02 -0.18332961035E-01  0.71450982174E-01  0.51100000000E-03 0. -1.
         11    1    4    4    0    0  0.53034048065E-01  0.62417247407E-02 -0.27010922598E-01  0.59844970069E-01  0.51100000000E-03 0.  1.
</event>
<event>
 8    1  0.1061722E+005  0.1043930E+01  0.7957747E-01            NaN
         13   -1    0    0    0    0  0.00000000000E+00  0.00000000000E+00  0.74505805969E-08  0.10566000000E+00  0.10566000000E+00 0. -1.
     999900   -1    0    0    0    0 -0.00000000000E+00 -0.00000000000E+00 -0.74505805969E-08  0.93827000000E+00  0.93827000000E+00 0.  1.
     999902    2    1    2    0    0 -0.20394011512E-01  0.42574571367E-03  0.12267551985E-01  0.10201268532E+01  0.10198491099E+01 0.  0.
     999903    2    3    3    0    0 -0.11962890441E+00 -0.52545370576E-01 -0.18341147014E-01  0.13243862215E+00  0.11467354617E-01 0.  0.
         14    1    1    2    0    0  0.20394011512E-01 -0.42574571367E-03 -0.12267551985E-01  0.23803146781E-01  0.00000000000E+00 0.  1.
     999901    1    3    3    0    0  0.99234892903E-01  0.52971116290E-01  0.30608699000E-01  0.88768823107E+00  0.88000000000E+00 0.  1.
        -11    1    4    4    0    0 -0.21094775676E-01 -0.71177093791E-02 -0.70057625002E-02  0.23345088924E-01  0.51100000000E-03 0. -1.
         11    1    4    4    0    0 -0.98534128738E-01 -0.45427661197E-01 -0.11335384514E-01  0.10909353322E+00  0.51100000000E-03 0.  1.
</event>
<event>
 8    1  0.1061722E+005  0.1043930E+01  0.7957747E-01            NaN
         13   -1    0    0    0    0  0.00000000000E+00  0.00000000000E+00  0.74505805969E-08  0.10566000000E+00  0.10566000000E+00 0.  1.
     999900   -1    0    0    0    0 -0.00000000000E+00 -0.00000000000E+00 -0.74505805969E-08  0.93827000000E+00  0.93827000000E+00 0. -1.
     999902    2    1    2    0    0  0.16979689379E-01 -0.15151579123E-01 -0.54502516218E-02  0.10205294563E+01  0.10202611361E+01 0.  0.
     999903    2    3    3    0    0 -0.75685973335E-01  0.66918960863E-01  0.75960948708E-01  0.12814485196E+00  0.21083725288E-01 0.  0.
         14    1    1    2    0    0 -0.16979689379E-01  0.15151579123E-01  0.54502516218E-02  0.23400543671E-01  0.00000000000E+00 0. -1.
     999901    1    3    3    0    0  0.92665662714E-01 -0.82070539986E-01 -0.81411200330E-01  0.89238460437E+00  0.88000000000E+00 0. -1.
        -11    1    4    4    0    0 -0.57294669524E-01  0.40019818001E-01  0.58680455519E-01  0.91257448845E-01  0.51100000000E-03 0.  1.
         11    1    4    4    0    0 -0.18391303811E-01  0.26899142862E-01  0.17280493189E-01  0.36887403113E-01  0.51100000000E-03 0. -1.
</event>
<event>
 8    1  0.1061722E+005  0.1043930E+01  0.7957747E-01            NaN
         13   -1    0    0    0    0  0.00000000000E+00  0.00000000000E+00  0.74505805969E-08  0.10566000000E+00  0.10566000000E+00 0. -1.
     999900   -1    0    0    0    0 -0.00000000000E+00 -0.00000000000E+00 -0.74505805969E-08  0.93827000000E+00  0.93827000000E+00 0.  1.
     999902    2    1    2    0    0 -0.13470073979E-01  0.46664161355E-02  0.18874271498E-01  0.10202771681E+01  0.10200029624E+01 0.  0.
     999903    2    3    3    0    0  0.12244645182E+00 -0.38743802742E-01  0.32123893625E-02  0.12864773630E+00  0.67605323181E-02 0.  0.
         14    1    1    2    0    0  0.13470073979E-01 -0.46664161355E-02 -0.18874271498E-01  0.23652831905E-01  0.00000000000E+00 0.  1.
     999901    1    3    3    0    0 -0.13591652579E+00  0.43410218877E-01  0.15661882136E-01  0.89162943179E+00  0.88000000000E+00 0.  1.
        -11    1    4    4    0    0  0.22935799248E-01 -0.83149722828E-02  0.30136703377E-02  0.24587252411E-01  0.51100000000E-03 0.  1.
         11    1    4    4    0    0  0.99510652567E-01 -0.30428830459E-01  0.19871902480E-03  0.10406048389E+00  0.51100000000E-03 0. -1.
</event>
<event>
 8    1  0.1061722E+005  0.1043930E+01  0.7957747E-01            NaN
         13   -1    0    0    0    0  0.00000000000E+00  0.00000000000E+00  0.74505805969E-08  0.10566000000E+00  0.10566000000E+00 0.  1.
     999900   -1    0    0    0    0 -0.00000000000E+00 -0.00000000000E+00 -0.74505805969E-08  0.93827000000E+00  0.93827000000E+00 0. -1.
     999902    2    1    2    0    0 -0.10280246661E-01  0.14762701990E-01 -0.14991017931E-01  0.10205130946E+01  0.10202443946E+01 0.  0.
     999903    2    3    3    0    0 -0.11408404351E+00 -0.57562510921E-01 -0.23193193045E-01  0.13142736173E+00  0.20164710774E-01 0.  0.
         14    1    1    2    0    0  0.10280246661E-01 -0.14762701990E-01  0.14991017931E-01  0.23416905433E-01  0.00000000000E+00 0. -1.
     999901    1    3    3    0    0  0.10380379685E+00  0.72325212911E-01  0.82021751138E-02  0.88908573284E+00  0.88000000000E+00 0. -1.
        -11    1    4    4    0    0 -0.10288451624E-01 -0.10541665166E-01 -0.70518759523E-02  0.16339186539E-01  0.51100000000E-03 0. -1.
         11    1    4    4    0    0 -0.10379559188E+00 -0.47020845754E-01 -0.16141317092E-01  0.11508817519E+00  0.51100000000E-03 0.  1.
</event>
<event>
 8    1  0.1061722E+005  0.1043930E+01  0.7957747E-01            NaN
         13   -1    0    0    0    0  0.00000000000E+00  0.00000000000E+00  0.74505805969E-08  0.10566000000E+00  0.10566000000E+00 0.  1.
     999900   -1    0    0    0    0 -0.00000000000E+00 -0.00000000000E+00 -0.74505805969E-08  0.93827000000E+00  0.93827000000E+00 0.  1.
     999902    2    1    2    0    0  0.89634846215E-02 -0.21000044322E-01  0.31947511602E-02  0.10208745808E+01  0.10206142060E+01 0.  0.
     999903    2    3    3    0    0 -0.39093147790E-01  0.10837184504E+00 -0.53040085222E-01  0.12834509533E+00  0.19659141718E-01 0.  0.
         14    1    1    2    0    0 -0.89634846215E-02  0.21000044322E-01 -0.31947511602E-02  0.23055419169E-01  0.00000000000E+00 0. -1.
     999901    1    3    3    0    0  0.48056632411E-01 -0.12937188936E+00  0.56234836382E-01  0.89252948551E+00  0.88000000000E+00 0. -1.
        -11    1    4    4    0    0 -0.29867290517E-01  0.78443384503E-01 -0.47778196419E-01  0.96583832960E-01  0.51100000000E-03 0. -1.
         11    1    4    4    0    0 -0.92258572730E-02  0.29928460533E-01 -0.52618888031E-02  0.31761262366E-01  0.51100000000E-03 0.  1.
</event>
<event>
 8    1  0.1061722E+005  0.1043930E+01  0.7957747E-01            NaN
         13   -1    0    0    0    0  0.00000000000E+00  0.00000000000E+00  0.74505805969E-08  0.10566000000E+00  0.10566000000E+00 0.  1.
     999900   -1    0    0    0    0 -0.00000000000E+00 -0.00000000000E+00 -0.74505805969E-08  0.93827000000E+00  0.93827000000E+00 0. -1.
     999902    2    1    2    0    0  0.41223197062E-03 -0.21867477304E-01  0.55750257065E-03  0.10220515332E+01  0.10218173366E+01 0.  0.
     999903    2    3    3    0    0  0.13072774928E+00 -0.35438440111E-02  0.25695494689E-02  0.13226395301E+00  0.19617528341E-01 0.  0.
         14    1    1    2    0    0 -0.41223197062E-03  0.21867477304E-01 -0.55750257065E-03  0.21878466764E-01  0.00000000000E+00 0.  1.
     999901    1    3    3    0    0 -0.13031551731E+00 -0.18323633293E-01 -0.20120468982E-02  0.88978758022E+00  0.88000000000E+00 0. -1.
        -11    1    4    4    0    0  0.93984499580E-01  0.58687846237E-02  0.45532039805E-02  0.94278956198E-01  0.51100000000E-03 0.  1.
         11    1    4    4    0    0  0.36743249704E-01 -0.94126286349E-02 -0.19836545116E-02  0.37984996813E-01  0.51100000000E-03 0. -1.
</event>
<event>
 8    1  0.1061722E+005  0.1043930E+01  0.7957747E-01            NaN
         13   -1    0    0    0    0  0.00000000000E+00  0.00000000000E+00  0.74505805969E-08  0.10566000000E+00  0.10566000000E+00 0. -1.
     999900   -1    0    0    0    0 -0.00000000000E+00 -0.00000000000E+00 -0.74505805969E-08  0.93827000000E+00  0.93827000000E+00 0. -1.
     999902    2    1    2    0    0  0.20902579918E-01 -0.73484630568E-02 -0.95920216255E-02  0.10197861678E+01  0.10195003204E+01 0.  0.
     999903    2    3    3    0    0 -0.30903731537E-01  0.11289596490E+00  0.48086312188E-01  0.12823167893E+00  0.20749230058E-01 0.  0.
         14    1    1    2    0    0 -0.20902579918E-01  0.73484630568E-02  0.95920216255E-02  0.24143832243E-01  0.00000000000E+00 0.  1.
     999901    1    3    3    0    0  0.51806311455E-01 -0.12024442795E+00 -0.57678333813E-01  0.89155448883E+00  0.88000000000E+00 0.  1.
        -11    1    4    4    0    0 -0.25178531684E-01  0.52968633356E-01  0.22518806442E-01  0.62825093250E-01  0.51100000000E-03 0. -1.
         11    1    4    4    0    0 -0.57251998532E-02  0.59927331540E-01  0.25567505746E-01  0.65406585677E-01  0.51100000000E-03 0.  1.
</event>
<event>
 8    1  0.1061722E+005  0.1043930E+01  0.7957747E-01            NaN
         13   -1    0    0    0    0  0.00000000000E+00  0.00000000000E+00  0.74505805969E-08  0.10566000000E+00  0.10566000000E+00 0.  1.
     999900   -1    0    0    0    0 -0.00000000000E+00 -0.00000000000E+00 -0.74505805969E-08  0.93827000000E+00  0.93827000000E+00 0.  1.
     999902    2    1    2    0    0  0.15467238402E-01 -0.10908437866E-01 -0.14961238369E-01  0.10198039118E+01  0.10195184894E+01 0.  0.
     999903    2    3    3    0    0  0.10208279647E+00  0.44628846512E-01  0.62960433044E-01  0.13038925495E+00  0.24994207379E-01 0.  0.
         14    1    1    2    0    0 -0.15467238402E-01  0.10908437866E-01  0.14961238369E-01  0.24126088245E-01  0.00000000000E+00 0.  1.
     999901    1    3    3    0    0 -0.86615558067E-01 -0.55537284379E-01 -0.77921671414E-01  0.88941465680E+00  0.88000000000E+00 0.  1.
        -11    1    4    4    0    0  0.56817240663E-01  0.14581788659E-01  0.42032578340E-01  0.72165269763E-01  0.51100000000E-03 0.  1.
         11    1    4    4    0    0  0.45265555806E-01  0.30047057853E-01  0.20927854704E-01  0.58223985191E-01  0.51100000000E-03 0. -1.
</event>
<event>
 8    1  0.1061722E+005  0.1043930E+01  0.7957747E-01            NaN
         13   -1    0    0    0    0  0.00000000000E+00  0.00000000000E+00  0.74505805969E-08  0.10566000000E+00  0.10566000000E+00 0.  1.
     999900   -1    0    0    0    0 -0.00000000000E+00 -0.00000000000E+00 -0.74505805969E-08  0.93827000000E+00  0.93827000000E+00 0.  1.
     999902    2    1    2    0    0  0.53086729316E-02 -0.96100168700E-02  0.21146128957E-01  0.10201036868E+01  0.10198253961E+01 0.  0.
     999903    2    3    3    0    0 -0.10391897746E+00 -0.68086574015E-01  0.37671226144E-01  0.13127115688E+00  0.19443762827E-01 0.  0.
         14    1    1    2    0    0 -0.53086729316E-02  0.96100168700E-02 -0.21146128957E-01  0.23826313235E-01  0.00000000000E+00 0. -1.
     999901    1    3    3    0    0  0.10922765039E+00  0.58476557145E-01 -0.16525097187E-01  0.88883252988E+00  0.88000000000E+00 0.  1.
        -11    1    4    4    0    0 -0.34707496725E-01 -0.12219252282E-01  0.10606504638E-01  0.38297252080E-01  0.51100000000E-03 0.  1.
         11    1    4    4    0    0 -0.69211480731E-01 -0.55867321733E-01  0.27064721506E-01  0.92973904800E-01  0.51100000000E-03 0. -1.
</event>
<event>
 8    1  0.1061722E+005  0.1043930E+01  0.7957747E-01            NaN
         13   -1    0    0    0    0  0.00000000000E+00  0.00000000000E+00  0.74505805969E-08  0.10566000000E+00  0.10566000000E+00 0.  1.
     999900   -1    0    0    0    0 -0.00000000000E+00 -0.00000000000E+00 -0.74505805969E-08  0.93827000000E+00  0.93827000000E+00 0. -1.
     999902    2    1    2    0    0 -0.46234263906E-02 -0.16297807707E-01  0.19528965115E-01  0.10180770488E+01  0.10177487422E+01 0.  0.
     999903    2    3    3    0    0 -0.11438692464E+00 -0.47442946094E-01  0.36826658021E-01  0.13054268023E+00  0.18707938380E-01 0.  0.
         14    1    1    2    0    0  0.46234263906E-02  0.16297807707E-01 -0.19528965115E-01  0.25852951207E-01  0.00000000000E+00 0. -1.
     999901    1    3    3    0    0  0.10976349825E+00  0.31145138387E-01 -0.17297692906E-01  0.88753436856E+00  0.88000000000E+00 0. -1.
        -11    1    4    4    0    0 -0.85410656965E-01 -0.39618508474E-01  0.35070463585E-01  0.10047290716E+00  0.51100000000E-03 0.  1.
         11    1    4    4    0    0 -0.28976267678E-01 -0.78244376204E-02  0.17561944357E-02  0.30069773071E-01  0.51100000000E-03 0. -1.
</event>
<event>
 8    1  0.1061722E+005  0.1043930E+01  0.7957747E-01            NaN
         13   -1    0    0    0    0  0.00000000000E+00  0.00000000000E+00  0.74505805969E-08  0.10566000000E+00  0.10566000000E+00 0.  1.
     999900   -1    0    0    0    0 -0.00000000000E+00 -0.00000000000E+00 -0.74505805969E-08  0.93827000000E+00  0.93827000000E+00 0.  1.
     999902    2    1    2    0    0 -0.19084293284E-01 -0.31168358843E-02  0.92151246738E-02  0.10225093689E+01  0.10222849730E+01 0.  0.
     999903    2    3    3    0    0  0.29200134199E-01 -0.11011437430E+00  0.65148767664E-01  0.13295418137E+00  0.21322034379E-01 0.  0.
         14    1    1    2    0    0  0.19084293284E-01  0.31168358843E-02 -0.92151246738E-02  0.21420631149E-01  0.00000000000E+00 0. -1.
     999901    1    3    3    0    0 -0.48284427483E-01  0.10699753841E+00 -0.55933642991E-01  0.88955518749E+00  0.88000000000E+00 0.  1.
        -11    1    4    4    0    0  0.13269032533E-01 -0.20608059041E-01  0.90948456463E-02  0.26148358651E-01  0.51100000000E-03 0.  1.
         11    1    4    4    0    0  0.15931101666E-01 -0.89506315257E-01  0.56053922018E-01  0.10680582271E+00  0.51100000000E-03 0. -1.
</event>
<event>
 8    1  0.1061722E+005  0.1043930E+01  0.7957747E-01            NaN
         13   -1    0    0    0    0  0.00000000000E+00  0.00000000000E+00  0.74505805969E-08  0.10566000000E+00  0.10566000000E+00 0. -1.
     999900   -1    0    0    0    0 -0.00000000000E+00 -0.00000000000E+00 -0.74505805969E-08  0.93827000000E+00  0.93827000000E+00 0.  1.
     999902    2    1    2    0    0  0.13985883475E-01 -0.48535668453E-02  0.17253944264E-01  0.10211954307E+01  0.10209423329E+01 0.  0.
     999903    2    3    3    0    0  0.72696419938E-01  0.35806161156E-01  0.10482036849E+00  0.13397053295E+00  0.19848007443E-01 0.  0.
         14    1    1    2    0    0 -0.13985883475E-01  0.48535668453E-02 -0.17253944264E-01  0.22734569280E-01  0.00000000000E+00 0.  1.
     999901    1    3    3    0    0 -0.58710536463E-01 -0.40659728001E-01 -0.87566424228E-01  0.88722489777E+00  0.88000000000E+00 0.  1.
        -11    1    4    4    0    0  0.39309006355E-01  0.84474695079E-02  0.48152425310E-01  0.62733363579E-01  0.51100000000E-03 0.  1.
         11    1    4    4    0    0  0.33387413583E-01  0.27358691648E-01  0.56667943181E-01  0.71237169370E-01  0.51100000000E-03 0. -1.
</event>
<event>
 8    1  0.1061722E+005  0.1043930E+01  0.7957747E-01            NaN
         13   -1    0    0    0    0  0.00000000000E+00  0.00000000000E+00  0.74505805969E-08  0.10566000000E+00  0.10566000000E+00 0.  1.
     999900   -1    0    0    0    0 -0.00000000000E+00 -0.00000000000E+00 -0.74505805969E-08  0.93827000000E+00  0.93827000000E+00 0. -1.
     999902    2    1    2    0    0  0.25649469023E-02  0.55722284728E-02  0.22883775214E-01  0.10202383168E+01  0.10199631990E+01 0.  0.
     999903    2    3    3    0    0  0.12644278893E+00 -0.21352785223E-01  0.19266312327E-01  0.13114677929E+00  0.19610370211E-01 0.  0.
         14    1    1    2    0    0 -0.25649469023E-02 -0.55722284728E-02 -0.22883775214E-01  0.23691683157E-01  0.00000000000E+00 0. -1.
     999901    1    3    3    0    0 -0.12387784202E+00  0.26925013695E-01  0.36174628867E-02  0.88909153755E+00  0.88000000000E+00 0.  1.
        -11    1    4    4    0    0  0.87188590535E-01 -0.23820484082E-01  0.12984656279E-01  0.91313351713E-01  0.51100000000E-03 0.  1.
         11    1    4    4    0    0  0.39254198391E-01  0.24676988593E-02  0.62816560479E-02  0.39833427579E-01  0.51100000000E-03 0. -1.
</event>
<event>
 8    1  0.1061722E+005  0.1043930E+01  0.7957747E-01            NaN
         13   -1    0    0    0    0  0.00000000000E+00  0.00000000000E+00  0.74505805969E-08  0.10566000000E+00  0.10566000000E+00 0.  1.
     999900   -1    0    0    0    0 -0.00000000000E+00 -0.00000000000E+00 -0.74505805969E-08  0.93827000000E+00  0.93827000000E+00 0.  1.
     999902    2    1    2    0    0 -0.23492931090E-01  0.72476860702E-02 -0.23374309727E-02  0.10192336369E+01  0.10189343926E+01 0.  0.
     999903    2    3    3    0    0  0.86004791615E-01 -0.23488813977E-01  0.88676991956E-01  0.12725936103E+00  0.19564956041E-01 0.  0.
         14    1    1    2    0    0  0.23492931090E-01 -0.72476860702E-02  0.23374309727E-02  0.24696363054E-01  0.00000000000E+00 0.  1.
     999901    1    3    3    0    0 -0.10949772270E+00  0.30736500048E-01 -0.91014422929E-01  0.89197427591E+00  0.88000000000E+00 0.  1.
        -11    1    4    4    0    0  0.74283910137E-01 -0.17741796579E-01  0.65323634725E-01  0.10050029366E+00  0.51100000000E-03 0. -1.
         11    1    4    4    0    0  0.11720881478E-01 -0.57470173983E-02  0.23353357231E-01  0.26759067371E-01  0.51100000000E-03 0.  1.
</event>
<event>
 8    1  0.1061722E+005  0.1043930E+01  0.7957747E-01            NaN
         13   -1    0    0    0    0  0.00000000000E+00  0.00000000000E+00  0.74505805969E-08  0.10566000000E+00  0.10566000000E+00 0.  1.
     999900   -1    0    0    0    0 -0.00000000000E+00 -0.00000000000E+00 -0.74505805969E-08  0.93827000000E+00  0.93827000000E+00 0.  1.
     999902    2    1    2    0    0 -0.16545424692E-01 -0.16585826455E-01  0.47911267587E-02  0.10200177518E+01  0.10197374262E+01 0.  0.
     999903    2    3    3    0    0 -0.96970775453E-01 -0.39461600712E-01 -0.78416029351E-01  0.13214672013E+00  0.18791826901E-01 0.  0.
         14    1    1    2    0    0  0.16545424692E-01  0.16585826455E-01 -0.47911267587E-02  0.23912248180E-01  0.00000000000E+00 0. -1.
     999901    1    3    3    0    0  0.80425350761E-01  0.22875774257E-01  0.83207156109E-01  0.88787103169E+00  0.88000000000E+00 0. -1.
        -11    1    4    4    0    0 -0.62233045090E-01 -0.17740698022E-01 -0.40639583338E-01  0.76416759433E-01  0.51100000000E-03 0. -1.
         11    1    4    4    0    0 -0.34737730363E-01 -0.21720902689E-01 -0.37776446013E-01  0.55729960693E-01  0.51100000000E-03 0.  1.
</event>
<event>
 8    1  0.1061722E+005  0.1043930E+01  0.7957747E-01            NaN
         13   -1    0    0    0    0  0.00000000000E+00  0.00000000000E+00  0.74505805969E-08  0.10566000000E+00  0.10566000000E+00 0. -1.
     999900   -1    0    0    0    0 -0.00000000000E+00 -0.00000000000E+00 -0.74505805969E-08  0.93827000000E+00  0.93827000000E+00 0. -1.
     999902    2    1    2    0    0  0.21414059834E-01  0.60323761184E-02  0.73713043269E-02  0.10204931135E+01  0.10202239495E+01 0.  0.
     999903    2    3    3    0    0  0.12238817632E+00  0.29842896959E-01  0.40157209802E-01  0.13379269698E+00  0.20455318701E-01 0.  0.
         14    1    1    2    0    0 -0.21414059834E-01 -0.60323761184E-02 -0.73713043269E-02  0.23436886476E-01  0.00000000000E+00 0. -1.
     999901    1    3    3    0    0 -0.10097411649E+00 -0.23810520841E-01 -0.32785905475E-01  0.88670041655E+00  0.88000000000E+00 0. -1.
        -11    1    4    4    0    0  0.50357418254E-01  0.21073057224E-01  0.11592966116E-01  0.55808613120E-01  0.51100000000E-03 0.  1.
         11    1    4    4    0    0  0.72030758069E-01  0.87698397353E-02  0.28564243686E-01  0.77984083859E-01  0.51100000000E-03 0. -1.
</event>
<event>
 8    1  0.1061722E+005  0.1043930E+01  0.7957747E-01            NaN
         13   -1    0    0    0    0  0.00000000000E+00  0.00000000000E+00  0.74505805969E-08  0.10566000000E+00  0.10566000000E+00 0. -1.
     999900   -1    0    0    0    0 -0.00000000000E+00 -0.00000000000E+00 -0.74505805969E-08  0.93827000000E+00  0.93827000000E+00 0.  1.
     999902    2    1    2    0    0 -0.73615374791E-02  0.21764442588E-01  0.14237465531E-01  0.10169005971E+01  0.10165413104E+01 0.  0.
     999903    2    3    3    0    0  0.73199718619E-01 -0.29760461476E-02  0.10372480385E+00  0.12835673693E+00  0.18696559196E-01 0.  0.
         14    1    1    2    0    0  0.73615374791E-02 -0.21764442588E-01 -0.14237465531E-01  0.27029402879E-01  0.00000000000E+00 0.  1.
     999901    1    3    3    0    0 -0.80561256098E-01  0.24740488736E-01 -0.89487338314E-01  0.88854386019E+00  0.88000000000E+00 0.  1.
        -11    1    4    4    0    0  0.51194640258E-01 -0.13521737670E-02  0.85804086390E-01  0.99926582686E-01  0.51100000000E-03 0.  1.
         11    1    4    4    0    0  0.22005078361E-01 -0.16238723806E-02  0.17920717455E-01  0.28430154243E-01  0.51100000000E-03 0. -1.
</event>
<event>
 8    1  0.1061722E+005  0.1043930E+01  0.7957747E-01            NaN
         13   -1    0    0    0    0  0.00000000000E+00  0.00000000000E+00  0.74505805969E-08  0.10566000000E+00  0.10566000000E+00 0.  1.
     999900   -1    0    0    0    0 -0.00000000000E+00 -0.00000000000E+00 -0.74505805969E-08  0.93827000000E+00  0.93827000000E+00 0.  1.
     999902    2    1    2    0    0 -0.14842840599E-01  0.72471853793E-02  0.17421823353E-01  0.10199226773E+01  0.10196400915E+01 0.  0.
     999903    2    3    3    0    0 -0.12126959258E-01  0.26686799381E-02 -0.12621374635E+00  0.12826157825E+00  0.19155617848E-01 0.  0.
         14    1    1    2    0    0  0.14842840599E-01 -0.72471853793E-02 -0.17421823353E-01  0.24007322673E-01  0.00000000000E+00 0. -1.
     999901    1    3    3    0    0 -0.27158813401E-02  0.45785054412E-02  0.14363556970E+00  0.89166109908E+00  0.88000000000E+00 0. -1.
        -11    1    4    4    0    0 -0.15135542901E-01 -0.24321238202E-02 -0.66174915852E-01  0.67929231515E-01  0.51100000000E-03 0. -1.
         11    1    4    4    0    0  0.30085836429E-02  0.51008037583E-02 -0.60038830494E-01  0.60332346736E-01  0.51100000000E-03 0.  1.
</event>
<event>
 8    1  0.1061722E+005  0.1043930E+01  0.7957747E-01            NaN
         13   -1    0    0    0    0  0.00000000000E+00  0.00000000000E+00  0.74505805969E-08  0.10566000000E+00  0.10566000000E+00 0.  1.
     999900   -1    0    0    0    0 -0.00000000000E+00 -0.00000000000E+00 -0.74505805969E-08  0.93827000000E+00  0.93827000000E+00 0.  1.
     999902    2    1    2    0    0 -0.20115639850E-03 -0.14259817441E-01 -0.19349142454E-01  0.10198931081E+01  0.10196098174E+01 0.  0.
     999903    2    3    3    0    0  0.12211838360E+00 -0.32039535890E-01 -0.29150183867E-01  0.13120067051E+00  0.20602214690E-01 0.  0.
         14    1    1    2    0    0  0.20115639850E-03  0.14259817441E-01  0.19349142454E-01  0.24036891876E-01  0.00000000000E+00 0.  1.
     999901    1    3    3    0    0 -0.12231954000E+00  0.17779718449E-01  0.98010414129E-02  0.88869243761E+00  0.88000000000E+00 0. -1.
        -11    1    4    4    0    0  0.86448294896E-01 -0.17949323672E-01 -0.11711519914E-01  0.89066866625E-01  0.51100000000E-03 0. -1.
         11    1    4    4    0    0  0.35670088705E-01 -0.14090212218E-01 -0.17438663953E-01  0.42133803888E-01  0.51100000000E-03 0.  1.
</event>
<event>
 8    1  0.1061722E+005  0.1043930E+01  0.7957747E-01            NaN
         13   -1    0    0    0    0  0.00000000000E+00  0.00000000000E+00  0.74505805969E-08  0.10566000000E+00  0.10566000000E+00 0.  1.
     999900   -1    0    0    0    0 -0.00000000000E+00 -0.00000000000E+00 -0.74505805969E-08  0.93827000000E+00  0.93827000000E+00 0.  1.
     999902    2    1    2    0    0  0.34036411971E-03  0.23663321690E-01  0.86660142239E-02  0.10187274516E+01  0.10184156579E+01 0.  0.
     999903    2    3    3    0    0 -0.24622891780E-01 -0.12000292420E-01 -0.12321517969E+00  0.12783592804E+00  0.20242286771E-01 0.  0.
         14    1    1    2    0    0 -0.34036411971E-03 -0.23663321690E-01 -0.86660142239E-02  0.25202548357E-01  0.00000000000E+00 0.  1.
     999901    1    3    3    0    0  0.24963255900E-01  0.35663614110E-01  0.13188119392E+00  0.89089152360E+00  0.88000000000E+00 0. -1.
        -11    1    4    4    0    0 -0.20664831521E-01 -0.49055379545E-02 -0.52230660832E-01  0.56386191717E-01  0.51100000000E-03 0. -1.
         11    1    4    4    0    0 -0.39580602595E-02 -0.70947544656E-02 -0.70984518861E-01  0.71449736325E-01  0.51100000000E-03 0.  1.
</event>
<event>
 8    1  0.1061722E+005  0.1043930E+01  0.7957747E-01            NaN
         13   -1    0    0    0    0  0.00000000000E+00  0.00000000000E+00  0.74505805969E-08  0.10566000000E+00  0.10566000000E+00 0. -1.
     999900   -1    0    0    0    0 -0.00000000000E+00 -0.00000000000E+00 -0.74505805969E-08  0.93827000000E+00  0.93827000000E+00 0.  1.
     999902    2    1    2    0    0  0.19086785207E-01  0.34203139341E-02 -0.12614810588E-01  0.10207969638E+01  0.10205348127E+01 0.  0.
     999903    2    3    3    0    0  0.68216173612E-02 -0.88643335954E-01  0.92266771540E-01  0.12971543206E+00  0.20217831503E-01 0.  0.
         14    1    1    2    0    0 -0.19086785207E-01 -0.34203139341E-02  0.12614810588E-01  0.23133036185E-01  0.00000000000E+00 0.  1.
     999901    1    3    3    0    0  0.12265167846E-01  0.92063649888E-01 -0.10488158213E+00  0.89108153176E+00  0.88000000000E+00 0.  1.
        -11    1    4    4    0    0  0.13267900269E-01 -0.42046756313E-01  0.42751404021E-01  0.61415881991E-01  0.51100000000E-03 0. -1.
         11    1    4    4    0    0 -0.64462829076E-02 -0.46596579641E-01  0.49515367519E-01  0.68299550065E-01  0.51100000000E-03 0.  1.
</event>
<event>
 8    1  0.1061722E+005  0.1043930E+01  0.7957747E-01            NaN
         13   -1    0    0    0    0  0.00000000000E+00  0.00000000000E+00  0.74505805969E-08  0.10566000000E+00  0.10566000000E+00 0. -1.
     999900   -1    0    0    0    0 -0.00000000000E+00 -0.00000000000E+00 -0.74505805969E-08  0.93827000000E+00  0.93827000000E+00 0. -1.
     999902    2    1    2    0    0 -0.16190505154E-01  0.16076971083E-01 -0.78820235395E-02  0.10197902454E+01  0.10195044958E+01 0.  0.
     999903    2    3    3    0    0 -0.29720202951E-01 -0.95368038188E-01  0.78425707300E-01  0.12846983882E+00  0.19379234991E-01 0.  0.
         14    1    1    2    0    0  0.16190505154E-01 -0.16076971083E-01  0.78820235395E-02  0.24139754585E-01  0.00000000000E+00 0.  1.
     999901    1    3    3    0    0  0.13529697797E-01  0.11144500927E+00 -0.86307730840E-01  0.89132040660E+00  0.88000000000E+00 0. -1.
        -11    1    4    4    0    0 -0.17578597752E-01 -0.28500399258E-01  0.30618539877E-01  0.45376601481E-01  0.51100000000E-03 0. -1.
         11    1    4    4    0    0 -0.12141605199E-01 -0.66867638930E-01  0.47807167424E-01  0.83093237336E-01  0.51100000000E-03 0.  1.
</event>
<event>
 8    1  0.1061722E+005  0.1043930E+01  0.7957747E-01            NaN
         13   -1    0    0    0    0  0.00000000000E+00  0.00000000000E+00  0.74505805969E-08  0.10566000000E+00  0.10566000000E+00 0.  1.
     999900   -1    0    0    0    0 -0.00000000000E+00 -0.00000000000E+00 -0.74505805969E-08  0.93827000000E+00  0.93827000000E+00 0. -1.
     999902    2    1    2    0    0  0.10020856012E-01 -0.17711743882E-01 -0.13140229120E-01  0.10197062710E+01  0.10194185058E+01 0.  0.
     999903    2    3    3    0    0  0.33247321947E-01  0.30213358208E-01  0.11855825051E+00  0.12831366742E+00  0.19751127891E-01 0.  0.
         14    1    1    2    0    0 -0.10020856012E-01  0.17711743882E-01  0.13140229120E-01  0.24223729025E-01  0.00000000000E+00 0.  1.
     999901    1    3    3    0    0 -0.23226465934E-01 -0.47925102089E-01 -0.13169847963E+00  0.89139260355E+00  0.88000000000E+00 0. -1.
        -11    1    4    4    0    0  0.23699308230E-01  0.18628294041E-01  0.52239151327E-01  0.60314679820E-01  0.51100000000E-03 0.  1.
         11    1    4    4    0    0  0.95480137168E-02  0.11585064167E-01  0.66319099182E-01  0.67998987603E-01  0.51100000000E-03 0. -1.
</event>
<event>
 8    1  0.1061722E+005  0.1043930E+01  0.7957747E-01            NaN
         13   -1    0    0    0    0  0.00000000000E+00  0.00000000000E+00  0.74505805969E-08  0.10566000000E+00  0.10566000000E+00 0.  1.
     999900   -1    0    0    0    0 -0.00000000000E+00 -0.00000000000E+00 -0.74505805969E-08  0.93827000000E+00  0.93827000000E+00 0.  1.
     999902    2    1    2    0    0  0.14803513833E-01 -0.12733987655E-01  0.13728646851E-01  0.10200600564E+01  0.10197807335E+01 0.  0.
     999903    2    3    3    0    0 -0.10745459650E+00 -0.52740323093E-01  0.46805093275E-01  0.13009286389E+00  0.20134658922E-01 0.  0.
         14    1    1    2    0    0 -0.14803513833E-01  0.12733987655E-01 -0.13728646851E-01  0.23869943606E-01  0.00000000000E+00 0. -1.
     999901    1    3    3    0    0  0.12225811034E+00  0.40006335438E-01 -0.33076446424E-01  0.88996719250E+00  0.88000000000E+00 0.  1.
        -11    1    4    4    0    0 -0.73063774581E-01 -0.41307624839E-01  0.24106981755E-01  0.87327216354E-01  0.51100000000E-03 0.  1.
         11    1    4    4    0    0 -0.34390821923E-01 -0.11432698253E-01  0.22698111520E-01  0.42765647540E-01  0.51100000000E-03 0. -1.
</event>
<event>
 8    1  0.1061722E+005  0.1043930E+01  0.7957747E-01            NaN
         13   -1    0    0    0    0  0.00000000000E+00  0.00000000000E+00  0.74505805969E-08  0.10566000000E+00  0.10566000000E+00 0. -1.
     999900   -1    0    0    0    0 -0.00000000000E+00 -0.00000000000E+00 -0.74505805969E-08  0.93827000000E+00  0.93827000000E+00 0. -1.
     999902    2    1    2    0    0 -0.93683444606E-02 -0.21242906722E-01 -0.22839208369E-02  0.10206009782E+01  0.10203343145E+01 0.  0.
     999903    2    3    3    0    0  0.88005790614E-01 -0.89141413522E-01 -0.36724456228E-01  0.13196264913E+00  0.19345394642E-01 0.  0.
         14    1    1    2    0    0  0.93683444606E-02  0.21242906722E-01  0.22839208369E-02  0.23329021804E-01  0.00000000000E+00 0.  1.
     999901    1    3    3    0    0 -0.97374135075E-01  0.67898506800E-01  0.34440535391E-01  0.88863832907E+00  0.88000000000E+00 0.  1.
        -11    1    4    4    0    0  0.52693062626E-01 -0.57094696146E-01 -0.13280223733E-01  0.78822513537E-01  0.51100000000E-03 0.  1.
         11    1    4    4    0    0  0.35312727989E-01 -0.32046717376E-01 -0.23444232495E-01  0.53140135593E-01  0.51100000000E-03 0. -1.
</event>
<event>
 8    1  0.1061722E+005  0.1043930E+01  0.7957747E-01            NaN
         13   -1    0    0    0    0  0.00000000000E+00  0.00000000000E+00  0.74505805969E-08  0.10566000000E+00  0.10566000000E+00 0.  1.
     999900   -1    0    0    0    0 -0.00000000000E+00 -0.00000000000E+00 -0.74505805969E-08  0.93827000000E+00  0.93827000000E+00 0.  1.
     999902    2    1    2    0    0  0.18733650735E-01  0.14953594538E-01  0.55042141499E-02  0.10193361790E+01  0.10190394446E+01 0.  0.
     999903    2    3    3    0    0  0.10913095149E+00 -0.60511223902E-01  0.34292992740E-01  0.13102575768E+00  0.20507731069E-01 0.  0.
         14    1    1    2    0    0 -0.18733650735E-01 -0.14953594538E-01 -0.55042141499E-02  0.24593821030E-01  0.00000000000E+00 0. -1.
     999901    1    3    3    0    0 -0.90397300750E-01  0.75464818439E-01 -0.28788778590E-01  0.88831042129E+00  0.88000000000E+00 0.  1.
        -11    1    4    4    0    0  0.77014902081E-01 -0.36112239517E-01  0.31076126177E-01  0.90561447231E-01  0.51100000000E-03 0.  1.
         11    1    4    4    0    0  0.32116049404E-01 -0.24398984385E-01  0.32168665630E-02  0.40464310446E-01  0.51100000000E-03 0. -1.
</event>
<event>
 8    1  0.1061722E+005  0.1043930E+01  0.7957747E-01            NaN
         13   -1    0    0    0    0  0.00000000000E+00  0.00000000000E+00  0.74505805969E-08  0.10566000000E+00  0.10566000000E+00 0. -1.
     999900   -1    0    0    0    0 -0.00000000000E+00 -0.00000000000E+00 -0.74505805969E-08  0.93827000000E+00  0.93827000000E+00 0.  1.
     999902    2    1    2    0    0  0.18095304901E-01 -0.59639169531E-02  0.14794350689E-01  0.10198077866E+01  0.10195224571E+01 0.  0.
     999903    2    3    3    0    0  0.12793583955E+00 -0.28667375890E-01  0.21178212046E-02  0.13259806820E+00  0.19706979556E-01 0.  0.
         14    1    1    2    0    0 -0.18095304901E-01  0.59639169531E-02 -0.14794350689E-01  0.24122213356E-01  0.00000000000E+00 0. -1.
     999901    1    3    3    0    0 -0.10984053465E+00  0.22703458937E-01  0.12676529485E-01  0.88720971844E+00  0.88000000000E+00 0. -1.
        -11    1    4    4    0    0  0.10129427739E+00 -0.25982161666E-01 -0.56068252695E-02  0.10472488228E+00  0.51100000000E-03 0. -1.
         11    1    4    4    0    0  0.26641562156E-01 -0.26852142236E-02  0.77246464742E-02  0.27873185926E-01  0.51100000000E-03 0.  1.
</event>
<event>
 8    1  0.1061722E+005  0.1043930E+01  0.7957747E-01            NaN
         13   -1    0    0    0    0  0.00000000000E+00  0.00000000000E+00  0.74505805969E-08  0.10566000000E+00  0.10566000000E+00 0.  1.
     999900   -1    0    0    0    0 -0.00000000000E+00 -0.00000000000E+00 -0.74505805969E-08  0.93827000000E+00  0.93827000000E+00 0.  1.
     999902    2    1    2    0    0 -0.71765778212E-02  0.30256650654E-01 -0.11579641057E-01  0.10107478321E+01  0.10102030112E+01 0.  0.
     999903    2    3    3    0    0  0.86536264822E-01 -0.78012728179E-01  0.12642221547E-01  0.11884478027E+00  0.19741964078E-01 0.  0.
         14    1    1    2    0    0  0.71765778212E-02 -0.30256650654E-01  0.11579641057E-01  0.33182167877E-01  0.00000000000E+00 0. -1.
     999901    1    3    3    0    0 -0.93712842643E-01  0.10826937883E+00 -0.24221862604E-01  0.89190305185E+00  0.88000000000E+00 0.  1.
        -11    1    4    4    0    0  0.58729505081E-01 -0.48661783959E-01 -0.67143356575E-03  0.76274739785E-01  0.51100000000E-03 0. -1.
         11    1    4    4    0    0  0.27806759741E-01 -0.29350944219E-01  0.13313655113E-01  0.42570040490E-01  0.51100000000E-03 0.  1.
</event>
<event>
 8    1  0.1061722E+005  0.1043930E+01  0.7957747E-01            NaN
         13   -1    0    0    0    0  0.00000000000E+00  0.00000000000E+00  0.74505805969E-08  0.10566000000E+00  0.10566000000E+00 0. -1.
     999900   -1    0    0    0    0 -0.00000000000E+00 -0.00000000000E+00 -0.74505805969E-08  0.93827000000E+00  0.93827000000E+00 0.  1.
     999902    2    1    2    0    0 -0.11951090916E-01 -0.13670578690E-01  0.14862750004E-01  0.10204648208E+01  0.10201949990E+01 0.  0.
     999903    2    3    3    0    0 -0.68297365230E-01  0.10873056760E+00  0.10286809775E-01  0.13019638801E+00  0.18931840033E-01 0.  0.
         14    1    1    2    0    0  0.11951090916E-01  0.13670578690E-01 -0.14862750004E-01  0.23465179170E-01  0.00000000000E+00 0.  1.
     999901    1    3    3    0    0  0.56346274314E-01 -0.12240114629E+00  0.45759402282E-02  0.89026843282E+00  0.88000000000E+00 0. -1.
        -11    1    4    4    0    0 -0.59532491767E-01  0.91925469969E-01  0.15301873280E-01  0.11058398642E+00  0.51100000000E-03 0. -1.
         11    1    4    4    0    0 -0.87648734632E-02  0.16805097636E-01 -0.50150635046E-02  0.19612401595E-01  0.51100000000E-03 0.  1.
</event>
<event>
 8    1  0.1061722E+005  0.1043930E+01  0.7957747E-01            NaN
         13   -1    0    0    0    0  0.00000000000E+00  0.00000000000E+00  0.74505805969E-08  0.10566000000E+00  0.10566000000E+00 0. -1.
     999900   -1    0    0    0    0 -0.00000000000E+00 -0.00000000000E+00 -0.74505805969E-08  0.93827000000E+00  0.93827000000E+00 0. -1.
     999902    2    1    2    0    0  0.11315821748E-01  0.16827376961E-02 -0.20768400997E-01  0.10202191184E+01  0.10199435492E+01 0.  0.
     999903    2    3    3    0    0  0.13855456574E-01  0.11692498377E+00 -0.57155151575E-01  0.13195608263E+00  0.16800919192E-01 0.  0.
         14    1    1    2    0    0 -0.11315821748E-01 -0.16827376961E-02  0.20768400997E-01  0.23710881636E-01  0.00000000000E+00 0. -1.
     999901    1    3    3    0    0 -0.25396348267E-02 -0.11524224608E+00  0.36386750579E-01  0.88826303573E+00  0.88000000000E+00 0. -1.
        -11    1    4    4    0    0 -0.32487388357E-02  0.83782456060E-02 -0.33554818466E-02  0.96057109513E-02  0.51100000000E-03 0. -1.
         11    1    4    4    0    0  0.17104195410E-01  0.10854673817E+00 -0.53799669729E-01  0.12235037168E+00  0.51100000000E-03 0.  1.
</event>
<event>
 8    1  0.1061722E+005  0.1043930E+01  0.7957747E-01            NaN
         13   -1    0    0    0    0  0.00000000000E+00  0.00000000000E+00  0.74505805969E-08  0.10566000000E+00  0.10566000000E+00 0.  1.
     999900   -1    0    0    0    0 -0.00000000000E+00 -0.00000000000E+00 -0.74505805969E-08  0.93827000000E+00  0.93827000000E+00 0.  1.
     999902    2    1    2    0    0  0.19090826949E-01  0.11743188465E-01 -0.56398427831E-02  0.10208178825E+01  0.10205562107E+01 0.  0.
     999903    2    3    3    0    0  0.10628675712E+00  0.54719352170E-02 -0.77978403635E-01  0.13353251338E+00  0.20578724016E-01 0.  0.
         14    1    1    2    0    0 -0.19090826949E-01 -0.11743188465E-01  0.56398427831E-02  0.23112117504E-01  0.00000000000E+00 0.  1.
     999901    1    3    3    0    0 -0.87195930174E-01  0.62712532479E-02  0.72338560852E-01  0.88728536911E+00  0.88000000000E+00 0. -1.
        -11    1    4    4    0    0  0.19385614242E-01  0.88792226457E-02 -0.13109099004E-01  0.25035020112E-01  0.51100000000E-03 0.  1.
         11    1    4    4    0    0  0.86901142880E-01 -0.34072874286E-02 -0.64869304632E-01  0.10849749327E+00  0.51100000000E-03 0. -1.
</event>
<event>
 8    1  0.1061722E+005  0.1043930E+01  0.7957747E-01            NaN
         13   -1    0    0    0    0  0.00000000000E+00  0.00000000000E+00  0.74505805969E-08  0.10566000000E+00  0.10566000000E+00 0.  1.
     999900   -1    0    0    0    0 -0.00000000000E+00 -0.00000000000E+00 -0.74505805969E-08  0.93827000000E+00  0.93827000000E+00 0. -1.
     999902    2    1    2    0    0  0.15649196499E-01 -0.11853389554E-01  0.13518885518E-01  0.10200938833E+01  0.10198153609E+01 0.  0.
     999903    2    3    3    0    0  0.70328800816E-01 -0.42083512264E-01 -0.99699207395E-01  0.13064345969E+00  0.20263745359E-01 0.  0.
         14    1    1    2    0    0 -0.15649196499E-01  0.11853389554E-01 -0.13518885518E-01  0.23836116727E-01  0.00000000000E+00 0. -1.
     999901    1    3    3    0    0 -0.54679604317E-01  0.30230122710E-01  0.11321809291E+00  0.88945042358E+00  0.88000000000E+00 0.  1.
        -11    1    4    4    0    0  0.41655800957E-01 -0.15242898315E-01 -0.43937466262E-01  0.62436477839E-01  0.51100000000E-03 0. -1.
         11    1    4    4    0    0  0.28672999859E-01 -0.26840613949E-01 -0.55761741134E-01  0.68206981852E-01  0.51100000000E-03 0.  1.
</event>
<event>
 8    1  0.1061722E+005  0.1043930E+01  0.7957747E-01            NaN
         13   -1    0    0    0    0  0.00000000000E+00  0.00000000000E+00  0.74505805969E-08  0.10566000000E+00  0.10566000000E+00 0. -1.
     999900   -1    0    0    0    0 -0.00000000000E+00 -0.00000000000E+00 -0.74505805969E-08  0.93827000000E+00  0.93827000000E+00 0.  1.
     999902    2    1    2    0    0 -0.16917746742E-01  0.16828846462E-01  0.20687422936E-02  0.10199779662E+01  0.10196966959E+01 0.  0.
     999903    2    3    3    0    0 -0.12558064677E+00 -0.22885749903E-01 -0.26738534229E-01  0.13193813929E+00  0.19961638108E-01 0.  0.
         14    1    1    2    0    0  0.16917746742E-01 -0.16828846462E-01 -0.20687422936E-02  0.23952033791E-01  0.00000000000E+00 0. -1.
     999901    1    3    3    0    0  0.10866290003E+00  0.39714596365E-01  0.28807276523E-01  0.88803982692E+00  0.88000000000E+00 0.  1.
        -11    1    4    4    0    0 -0.72689475615E-01 -0.21125099156E-01 -0.21854651131E-01  0.78790333015E-01  0.51100000000E-03 0. -1.
         11    1    4    4    0    0 -0.52891171154E-01 -0.17606507464E-02 -0.48838830976E-02  0.53147806278E-01  0.51100000000E-03 0.  1.
</event>
<event>
 8    1  0.1061722E+005  0.1043930E+01  0.7957747E-01            NaN
         13   -1    0    0    0    0  0.00000000000E+00  0.00000000000E+00  0.74505805969E-08  0.10566000000E+00  0.10566000000E+00 0. -1.
     999900   -1    0    0    0    0 -0.00000000000E+00 -0.00000000000E+00 -0.74505805969E-08  0.93827000000E+00  0.93827000000E+00 0.  1.
     999902    2    1    2    0    0 -0.46606266595E-02  0.92965264736E-02  0.23093927373E-01  0.10186026171E+01  0.10182876878E+01 0.  0.
     999903    2    3    3    0    0  0.34727598055E-01  0.61561283587E-01  0.10967120716E+00  0.13193545151E+00  0.19580397857E-01 0.  0.
         14    1    1    2    0    0  0.46606266595E-02 -0.92965264736E-02 -0.23093927373E-01  0.25327382945E-01  0.00000000000E+00 0.  1.
     999901    1    3    3    0    0 -0.39388224714E-01 -0.52264757113E-01 -0.86577279792E-01  0.88666716555E+00  0.88000000000E+00 0.  1.
        -11    1    4    4    0    0  0.32632278295E-01  0.47894348074E-01  0.76349122384E-01  0.95855014339E-01  0.51100000000E-03 0. -1.
         11    1    4    4    0    0  0.20953197604E-02  0.13666935513E-01  0.33322084780E-01  0.36080437170E-01  0.51100000000E-03 0.  1.
</event>
<event>
 8    1  0.1061722E+005  0.1043930E+01  0.7957747E-01            NaN
         13   -1    0    0    0    0  0.00000000000E+00  0.00000000000E+00  0.74505805969E-08  0.10566000000E+00  0.10566000000E+00 0.  1.
     999900   -1    0    0    0    0 -0.00000000000E+00 -0.00000000000E+00 -0.74505805969E-08  0.93827000000E+00  0.93827000000E+00 0.  1.
     999902    2    1    2    0    0  0.21201326036E-01 -0.77041860044E-02 -0.10990113269E-01  0.10188375052E+01  0.10185284624E+01 0.  0.
     999903    2    3    3    0    0  0.55352504636E-01 -0.11712706637E+00  0.52993505517E-02  0.13125369707E+00  0.20415690844E-01 0.  0.
         14    1    1    2    0    0 -0.21201326036E-01  0.77041860044E-02  0.10990113269E-01  0.25092494841E-01  0.00000000000E+00 0. -1.
     999901    1    3    3    0    0 -0.34151178600E-01  0.10942288037E+00 -0.16289463821E-01  0.88758380809E+00  0.88000000000E+00 0.  1.
        -11    1    4    4    0    0  0.11073107278E-01 -0.45635715298E-01 -0.42065755642E-03  0.46964564188E-01  0.51100000000E-03 0. -1.
         11    1    4    4    0    0  0.44279397358E-01 -0.71491351072E-01  0.57200081081E-02  0.84289132884E-01  0.51100000000E-03 0.  1.
</event>
<event>
 8    1  0.1061722E+005  0.1043930E+01  0.7957747E-01            NaN
         13   -1    0    0    0    0  0.00000000000E+00  0.00000000000E+00  0.74505805969E-08  0.10566000000E+00  0.10566000000E+00 0. -1.
     999900   -1    0    0    0    0 -0.00000000000E+00 -0.00000000000E+00 -0.74505805969E-08  0.93827000000E+00  0.93827000000E+00 0.  1.
     999902    2    1    2    0    0  0.22068578785E-01  0.69165224102E-02  0.60921928778E-02  0.10200139956E+01  0.10197335809E+01 0.  0.
     999903    2    3    3    0    0  0.33159032027E-01  0.47744823942E-01 -0.11536306129E+00  0.13066517365E+00  0.19638280917E-01 0.  0.
         14    1    1    2    0    0 -0.22068578785E-01 -0.69165224102E-02 -0.60921928778E-02  0.23916004388E-01  0.00000000000E+00 0.  1.
     999901    1    3    3    0    0 -0.11090453242E-01 -0.40828301531E-01  0.12145525417E+00  0.88934882196E+00  0.88000000000E+00 0. -1.
        -11    1    4    4    0    0  0.31166205477E-01  0.29258743729E-01 -0.81232857975E-01  0.91795668658E-01  0.51100000000E-03 0.  1.
         11    1    4    4    0    0  0.19928265493E-02  0.18486080212E-01 -0.34130203312E-01  0.38869504993E-01  0.51100000000E-03 0. -1.
</event>
<event>
 8    1  0.1061722E+005  0.1043930E+01  0.7957747E-01            NaN
         13   -1    0    0    0    0  0.00000000000E+00  0.00000000000E+00  0.74505805969E-08  0.10566000000E+00  0.10566000000E+00 0.  1.
     999900   -1    0    0    0    0 -0.00000000000E+00 -0.00000000000E+00 -0.74505805969E-08  0.93827000000E+00  0.93827000000E+00 0.  1.
     999902    2    1    2    0    0 -0.20408530203E-01  0.31349435397E-02  0.11801792259E-01  0.10201472694E+01  0.10198700078E+01 0.  0.
     999903    2    3    3    0    0 -0.43349645593E-01 -0.12180190574E+00 -0.43911416171E-02  0.13087918707E+00  0.19879221979E-01 0.  0.
         14    1    1    2    0    0  0.20408530203E-01 -0.31349435397E-02 -0.11801792259E-01  0.23782730638E-01  0.00000000000E+00 0. -1.
     999901    1    3    3    0    0  0.22941115390E-01  0.12493684928E+00  0.16192933877E-01  0.88926808230E+00  0.88000000000E+00 0.  1.
        -11    1    4    4    0    0 -0.33328162300E-01 -0.74249121825E-01  0.43304189243E-02  0.81502835185E-01  0.51100000000E-03 0. -1.
         11    1    4    4    0    0 -0.10021483292E-01 -0.47552783919E-01 -0.87215605415E-02  0.49376351881E-01  0.51100000000E-03 0.  1.
</event>
<event>
 8    1  0.1061722E+005  0.1043930E+01  0.7957747E-01            NaN
         13   -1    0    0    0    0  0.00000000000E+00  0.00000000000E+00  0.74505805969E-08  0.10566000000E+00  0.10566000000E+00 0.  1.
     999900   -1    0    0    0    0 -0.00000000000E+00 -0.00000000000E+00 -0.74505805969E-08  0.93827000000E+00  0.93827000000E+00 0. -1.
     999902    2    1    2    0    0  0.10304997663E-01 -0.11825936222E-01  0.18231472523E-01  0.10198793797E+01  0.10195957615E+01 0.  0.
     999903    2    3    3    0    0  0.64540561917E-01 -0.11085557395E+00  0.27066341695E-01  0.13262157026E+00  0.20036258026E-01 0.  0.
         14    1    1    2    0    0 -0.10304997663E-01  0.11825936222E-01 -0.18231472523E-01  0.24050620257E-01  0.00000000000E+00 0. -1.
     999901    1    3    3    0    0 -0.54235564253E-01  0.99029637732E-01 -0.88348691721E-02  0.88725780949E+00  0.88000000000E+00 0.  1.
        -11    1    4    4    0    0  0.13358492559E-01 -0.37219941565E-01  0.24349317271E-02  0.39622763496E-01  0.51100000000E-03 0. -1.
         11    1    4    4    0    0  0.51182069358E-01 -0.73635632389E-01  0.24631409968E-01  0.92998806762E-01  0.51100000000E-03 0.  1.
</event>
<event>
 8    1  0.1061722E+005  0.1043930E+01  0.7957747E-01            NaN
         13   -1    0    0    0    0  0.00000000000E+00  0.00000000000E+00  0.74505805969E-08  0.10566000000E+00  0.10566000000E+00 0. -1.
     999900   -1    0    0    0    0 -0.00000000000E+00 -0.00000000000E+00 -0.74505805969E-08  0.93827000000E+00  0.93827000000E+00 0.  1.
     999902    2    1    2    0    0 -0.17483572654E-01  0.32559961746E-02  0.14969303945E-01  0.10206844223E+01  0.10204196847E+01 0.  0.
     999903    2    3    3    0    0 -0.21526482440E-01 -0.10872206962E+00 -0.64728351318E-01  0.13000650708E+00  0.20689479194E-01 0.  0.
         14    1    1    2    0    0  0.17483572654E-01 -0.32559961746E-02 -0.14969303945E-01  0.23245577739E-01  0.00000000000E+00 0. -1.
     999901    1    3    3    0    0  0.40429097858E-02  0.11197806580E+00  0.79697655262E-01  0.89067791518E+00  0.88000000000E+00 0. -1.
        -11    1    4    4    0    0 -0.90407663420E-02 -0.75398804183E-01 -0.34926584781E-01  0.83587335008E-01  0.51100000000E-03 0.  1.
         11    1    4    4    0    0 -0.12485716098E-01 -0.33323265439E-01 -0.29801766537E-01  0.46419172071E-01  0.51100000000E-03 0. -1.
</event>
<event>
 8    1  0.1061722E+005  0.1043930E+01  0.7957747E-01            NaN
         13   -1    0    0    0    0  0.00000000000E+00  0.00000000000E+00  0.74505805969E-08  0.10566000000E+00  0.10566000000E+00 0. -1.
     999900   -1    0    0    0    0 -0.00000000000E+00 -0.00000000000E+00 -0.74505805969E-08  0.93827000000E+00  0.93827000000E+00 0.  1.
     999902    2    1    2    0    0  0.38258167703E-02 -0.17027484941E-01 -0.28057982943E-02  0.10262538969E+01  0.10261016598E+01 0.  0.
     999903    2    3    3    0    0  0.13134752073E+00  0.92550985199E-02 -0.29059979981E-01  0.13628657095E+00  0.19791890588E-01 0.  0.
         14    1    1    2    0    0 -0.38258167703E-02  0.17027484941E-01  0.28057982943E-02  0.17676103118E-01  0.00000000000E+00 0.  1.
     999901    1    3    3    0    0 -0.12752170396E+00 -0.26282583460E-01  0.26254181687E-01  0.88996732593E+00  0.88000000000E+00 0. -1.
        -11    1    4    4    0    0  0.91011670628E-01  0.85793283630E-02 -0.29117615717E-01  0.95941783033E-01  0.51100000000E-03 0. -1.
         11    1    4    4    0    0  0.40335850105E-01  0.67577015689E-03  0.57635735620E-04  0.40344787914E-01  0.51100000000E-03 0.  1.
</event>
<event>
 8    1  0.1061722E+005  0.1043930E+01  0.7957747E-01            NaN
         13   -1    0    0    0    0  0.00000000000E+00  0.00000000000E+00  0.74505805969E-08  0.10566000000E+00  0.10566000000E+00 0. -1.
     999900   -1    0    0    0    0 -0.00000000000E+00 -0.00000000000E+00 -0.74505805969E-08  0.93827000000E+00  0.93827000000E+00 0.  1.
     999902    2    1    2    0    0  0.22689186666E-01  0.47839825917E-02  0.51582939224E-02  0.10201751336E+01  0.10198985291E+01 0.  0.
     999903    2    3    3    0    0 -0.51551887322E-01 -0.42849833834E-01  0.10929060562E+00  0.12965604012E+00  0.19301474475E-01 0.  0.
         14    1    1    2    0    0 -0.22689186666E-01 -0.47839825917E-02 -0.51582939224E-02  0.23754866390E-01  0.00000000000E+00 0. -1.
     999901    1    3    3    0    0  0.74241073988E-01  0.47633816426E-01 -0.10413231170E+00  0.89051909349E+00  0.88000000000E+00 0. -1.
        -11    1    4    4    0    0 -0.10663682436E-02  0.11664550303E-03  0.11200321479E-01  0.11263173161E-01  0.51100000000E-03 0. -1.
         11    1    4    4    0    0 -0.50485519078E-01 -0.42966479337E-01  0.98090284138E-01  0.11839286696E+00  0.51100000000E-03 0.  1.
</event>
<event>
 8    1  0.1061722E+005  0.1043930E+01  0.7957747E-01            NaN
         13   -1    0    0    0    0  0.00000000000E+00  0.00000000000E+00  0.74505805969E-08  0.10566000000E+00  0.10566000000E+00 0.  1.
     999900   -1    0    0    0    0 -0.00000000000E+00 -0.00000000000E+00 -0.74505805969E-08  0.93827000000E+00  0.93827000000E+00 0. -1.
     999902    2    1    2    0    0 -0.29847974865E-02  0.81816824918E-02  0.21615742244E-01  0.10206257245E+01  0.10203596328E+01 0.  0.
     999903    2    3    3    0    0 -0.68212318978E-01  0.99078960995E-01 -0.47321351169E-01  0.13086774186E+00  0.20432684871E-01 0.  0.
         14    1    1    2    0    0  0.29847974865E-02 -0.81816824918E-02 -0.21615742244E-01  0.23304275513E-01  0.00000000000E+00 0. -1.
     999901    1    3    3    0    0  0.65227521491E-01 -0.90897278503E-01  0.68937093413E-01  0.88975798263E+00  0.88000000000E+00 0. -1.
        -11    1    4    4    0    0 -0.37746558071E-01  0.37305231353E-01 -0.18566077502E-01  0.56226713290E-01  0.51100000000E-03 0. -1.
         11    1    4    4    0    0 -0.30465760907E-01  0.61773729642E-01 -0.28755273667E-01  0.74641028571E-01  0.51100000000E-03 0.  1.
</event>
<event>
 8    1  0.1061722E+005  0.1043930E+01  0.7957747E-01            NaN
         13   -1    0    0    0    0  0.00000000000E+00  0.00000000000E+00  0.74505805969E-08  0.10566000000E+00  0.10566000000E+00 0.  1.
     999900   -1    0    0    0    0 -0.00000000000E+00 -0.00000000000E+00 -0.74505805969E-08  0.93827000000E+00  0.93827000000E+00 0.  1.
     999902    2    1    2    0    0 -0.37948809671E-02 -0.22846907909E-01 -0.15858554299E-02  0.10207158392E+01  0.10204518250E+01 0.  0.
     999903    2    3    3    0    0  0.61569107931E-01  0.10107272483E+00  0.45880106012E-01  0.12836974947E+00  0.19166577560E-01 0.  0.
         14    1    1    2    0    0  0.37948809671E-02  0.22846907909E-01  0.15858554299E-02  0.23214160764E-01  0.00000000000E+00 0.  1.
     999901    1    3    3    0    0 -0.65363988898E-01 -0.12391963274E+00 -0.47465961442E-01  0.89234608976E+00  0.88000000000E+00 0.  1.
        -11    1    4    4    0    0  0.30926438613E-01  0.43787693832E-01  0.11361109307E-01  0.54800936690E-01  0.51100000000E-03 0.  1.
         11    1    4    4    0    0  0.30642669318E-01  0.57285030998E-01  0.34518996705E-01  0.73568812781E-01  0.51100000000E-03 0. -1.
</event>
<event>
 8    1  0.1061722E+005  0.1043930E+01  0.7957747E-01            NaN
         13   -1    0    0    0    0  0.00000000000E+00  0.00000000000E+00  0.74505805969E-08  0.10566000000E+00  0.10566000000E+00 0. -1.
     999900   -1    0    0    0    0 -0.00000000000E+00 -0.00000000000E+00 -0.74505805969E-08  0.93827000000E+00  0.93827000000E+00 0. -1.
     999902    2    1    2    0    0 -0.12762551211E-01 -0.19381515219E-01  0.60223020260E-02  0.10199551388E+01  0.10196733258E+01 0.  0.
     999903    2    3    3    0    0 -0.11296122117E+00 -0.64358857496E-01  0.19869826211E-01  0.13301969097E+00  0.19928074777E-01 0.  0.
         14    1    1    2    0    0  0.12762551211E-01  0.19381515219E-01 -0.60223020260E-02  0.23974861153E-01  0.00000000000E+00 0.  1.
     999901    1    3    3    0    0  0.10019866996E+00  0.44977342277E-01 -0.13847524185E-01  0.88693544788E+00  0.88000000000E+00 0. -1.
        -11    1    4    4    0    0 -0.68295895163E-01 -0.48990537297E-01  0.88740022221E-02  0.84518702529E-01  0.51100000000E-03 0.  1.
         11    1    4    4    0    0 -0.44665326009E-01 -0.15368320200E-01  0.10995823988E-01  0.48500988438E-01  0.51100000000E-03 0. -1.
</event>
<event>
 8    1  0.1061722E+005  0.1043930E+01  0.7957747E-01            NaN
         13   -1    0    0    0    0  0.00000000000E+00  0.00000000000E+00  0.74505805969E-08  0.10566000000E+00  0.10566000000E+00 0. -1.
     999900   -1    0    0    0    0 -0.00000000000E+00 -0.00000000000E+00 -0.74505805969E-08  0.93827000000E+00  0.93827000000E+00 0. -1.
     999902    2    1    2    0    0 -0.97817189667E-02 -0.21535684183E-01 -0.38286265056E-02  0.10199690714E+01  0.10196875896E+01 0.  0.
     999903    2    3    3    0    0 -0.35831478483E-02  0.75657212857E-01 -0.10231526427E+00  0.12913547338E+00  0.21695722551E-01 0.  0.
         14    1    1    2    0    0  0.97817189667E-02  0.21535684183E-01  0.38286265056E-02  0.23960928615E-01  0.00000000000E+00 0. -1.
     999901    1    3    3    0    0 -0.61985711184E-02 -0.97192897040E-01  0.98486637761E-01  0.89083359801E+00  0.88000000000E+00 0.  1.
        -11    1    4    4    0    0 -0.74392559276E-02  0.44660664603E-01 -0.75150186624E-01  0.87736703620E-01  0.51100000000E-03 0.  1.
         11    1    4    4    0    0  0.38561080794E-02  0.30996548254E-01 -0.27165077643E-01  0.41398769759E-01  0.51100000000E-03 0. -1.
</event>
<event>
 8    1  0.1061722E+005  0.1043930E+01  0.7957747E-01            NaN
         13   -1    0    0    0    0  0.00000000000E+00  0.00000000000E+00  0.74505805969E-08  0.10566000000E+00  0.10566000000E+00 0. -1.
     999900   -1    0    0    0    0 -0.00000000000E+00 -0.00000000000E+00 -0.74505805969E-08  0.93827000000E+00  0.93827000000E+00 0. -1.
     999902    2    1    2    0    0 -0.56451107814E-02  0.13501798817E-01  0.19229276932E-01  0.10197653370E+01  0.10194789903E+01 0.  0.
     999903    2    3    3    0    0  0.75359693017E-01 -0.52801207243E-01 -0.85586273191E-01  0.12738415924E+00  0.20848574278E-01 0.  0.
         14    1    1    2    0    0  0.56451107814E-02 -0.13501798817E-01 -0.19229276932E-01  0.24164663009E-01  0.00000000000E+00 0.  1.
     999901    1    3    3    0    0 -0.81004803798E-01  0.66303006060E-01  0.10481555012E+00  0.89238117775E+00  0.88000000000E+00 0.  1.
        -11    1    4    4    0    0  0.51368108447E-01 -0.34127120907E-01 -0.69732122299E-01  0.93092281893E-01  0.51100000000E-03 0. -1.
         11    1    4    4    0    0  0.23991584569E-01 -0.18674086336E-01 -0.15854150893E-01  0.34291877350E-01  0.51100000000E-03 0.  1.
</event>
<event>
 8    1  0.1061722E+005  0.1043930E+01  0.7957747E-01            NaN
         13   -1    0    0    0    0  0.00000000000E+00  0.00000000000E+00  0.74505805969E-08  0.10566000000E+00  0.10566000000E+00 0. -1.
     999900   -1    0    0    0    0 -0.00000000000E+00 -0.00000000000E+00 -0.74505805969E-08  0.93827000000E+00  0.93827000000E+00 0. -1.
     999902    2    1    2    0    0 -0.11406265555E-01 -0.12186615209E-01  0.16779972461E-01  0.10202617943E+01  0.10199872279E+01 0.  0.
     999903    2    3    3    0    0  0.20145721645E-01 -0.99079417518E-01  0.83850365287E-01  0.13288119696E+00  0.20098449433E-01 0.  0.
         14    1    1    2    0    0  0.11406265555E-01  0.12186615209E-01 -0.16779972461E-01  0.23668205677E-01  0.00000000000E+00 0.  1.
     999901    1    3    3    0    0 -0.31551987200E-01  0.86892802309E-01 -0.67070392825E-01  0.88738059737E+00  0.88000000000E+00 0. -1.
        -11    1    4    4    0    0  0.41234442372E-02 -0.62016232811E-01  0.44043675514E-01  0.76178227849E-01  0.51100000000E-03 0.  1.
         11    1    4    4    0    0  0.16022277407E-01 -0.37063184707E-01  0.39806689772E-01  0.56702969107E-01  0.51100000000E-03 0. -1.
</event>
<event>
 8    1  0.1061722E+005  0.1043930E+01  0.7957747E-01            NaN
         13   -1    0    0    0    0  0.00000000000E+00  0.00000000000E+00  0.74505805969E-08  0.10566000000E+00  0.10566000000E+00 0.  1.
     999900   -1    0    0    0    0 -0.00000000000E+00 -0.00000000000E+00 -0.74505805969E-08  0.93827000000E+00  0.93827000000E+00 0. -1.
     999902    2    1    2    0    0 -0.13003866712E-01  0.11279489482E-01 -0.14248875040E-01  0.10215836832E+01  0.10213392502E+01 0.  0.
     999903    2    3    3    0    0 -0.54638691362E-01 -0.26344800120E-01 -0.11749302687E+00  0.13377266694E+00  0.20275107141E-01 0.  0.
         14    1    1    2    0    0  0.13003866712E-01 -0.11279489482E-01  0.14248875040E-01  0.22346316751E-01  0.00000000000E+00 0. -1.
     999901    1    3    3    0    0  0.41634824650E-01  0.37624289602E-01  0.10324415183E+00  0.88781101631E+00  0.88000000000E+00 0.  1.
        -11    1    4    4    0    0 -0.36441602373E-01 -0.14555527852E-01 -0.93654408807E-01  0.10154439022E+00  0.51100000000E-03 0.  1.
         11    1    4    4    0    0 -0.18197088988E-01 -0.11789272268E-01 -0.23838618065E-01  0.32228276723E-01  0.51100000000E-03 0. -1.
</event>
<event>
 8    1  0.1061722E+005  0.1043930E+01  0.7957747E-01            NaN
         13   -1    0    0    0    0  0.00000000000E+00  0.00000000000E+00  0.74505805969E-08  0.10566000000E+00  0.10566000000E+00 0. -1.
     999900   -1    0    0    0    0 -0.00000000000E+00 -0.00000000000E+00 -0.74505805969E-08  0.93827000000E+00  0.93827000000E+00 0. -1.
     999902    2    1    2    0    0 -0.16791415497E-01 -0.15753601545E-01 -0.74267767219E-03  0.10208935253E+01  0.10206335831E+01 0.  0.
     999903    2    3    3    0    0  0.41139195632E-01  0.10765719054E+00 -0.53070151117E-01  0.12885970096E+00  0.22491720686E-01 0.  0.
         14    1    1    2    0    0  0.16791415497E-01  0.15753601545E-01  0.74267767219E-03  0.23036474690E-01  0.00000000000E+00 0. -1.
     999901    1    3    3    0    0 -0.57930611129E-01 -0.12341079209E+00  0.52327473444E-01  0.89203382435E+00  0.88000000000E+00 0. -1.
        -11    1    4    4    0    0  0.16195402293E-02  0.24205949312E-01 -0.17458021081E-01  0.29893051261E-01  0.51100000000E-03 0. -1.
         11    1    4    4    0    0  0.39519655402E-01  0.83451241228E-01 -0.35612130035E-01  0.98966649698E-01  0.51100000000E-03 0.  1.
</event>
<event>
 8    1  0.1061722E+005  0.1043930E+01  0.7957747E-01            NaN
         13   -1    0    0    0    0  0.00000000000E+00  0.00000000000E+00  0.74505805969E-08  0.10566000000E+00  0.10566000000E+00 0. -1.
     999900   -1    0    0    0    0 -0.00000000000E+00 -0.00000000000E+00 -0.74505805969E-08  0.93827000000E+00  0.93827000000E+00 0. -1.
     999902    2    1    2    0    0 -0.23290230820E-01  0.14631461737E-02 -0.21067173975E-02  0.10204989542E+01  0.10202299259E+01 0.  0.
     999903    2    3    3    0    0  0.26551055699E-01  0.35325375032E-01  0.12046733354E+00  0.12996248537E+00  0.20616218705E-01 0.  0.
         14    1    1    2    0    0  0.23290230820E-01 -0.14631461737E-02  0.21067173975E-02  0.23431045785E-01  0.00000000000E+00 0.  1.
     999901    1    3    3    0    0 -0.49841286519E-01 -0.33862228858E-01 -0.12257405093E+00  0.89053646885E+00  0.88000000000E+00 0. -1.
        -11    1    4    4    0    0  0.83241077395E-02  0.60585032976E-02  0.55117721728E-01  0.56073350188E-01  0.51100000000E-03 0.  1.
         11    1    4    4    0    0  0.18226947959E-01  0.29266871734E-01  0.65349611808E-01  0.73889135179E-01  0.51100000000E-03 0. -1.
</event>
<event>
 8    1  0.1061722E+005  0.1043930E+01  0.7957747E-01            NaN
         13   -1    0    0    0    0  0.00000000000E+00  0.00000000000E+00  0.74505805969E-08  0.10566000000E+00  0.10566000000E+00 0.  1.
     999900   -1    0    0    0    0 -0.00000000000E+00 -0.00000000000E+00 -0.74505805969E-08  0.93827000000E+00  0.93827000000E+00 0. -1.
     999902    2    1    2    0    0 -0.33768867272E-02  0.23091608857E-01 -0.53500872102E-02  0.10199873770E+01  0.10197063303E+01 0.  0.
     999903    2    3    3    0    0 -0.85363527371E-01 -0.60296263131E-01  0.72753164358E-01  0.12882214857E+00  0.19482091387E-01 0.  0.
         14    1    1    2    0    0  0.33768867272E-02 -0.23091608857E-01  0.53500872102E-02  0.23942623012E-01  0.00000000000E+00 0. -1.
     999901    1    3    3    0    0  0.81986640644E-01  0.83387871987E-01 -0.78103251569E-01  0.89116522842E+00  0.88000000000E+00 0. -1.
        -11    1    4    4    0    0 -0.19975192906E-01 -0.17767984435E-01  0.28752934542E-01  0.39264512837E-01  0.51100000000E-03 0.  1.
         11    1    4    4    0    0 -0.65388334465E-01 -0.42528278695E-01  0.44000229816E-01  0.89557635731E-01  0.51100000000E-03 0. -1.
</event>
