<event>
 8    1  0.1197213E+005  0.1043930E+01  0.7957747E-01            NaN
         13   -1    0    0    0    0  0.00000000000E+00  0.00000000000E+00  0.74505805969E-08  0.10566000000E+00  0.10566000000E+00 0. -1.
     999900   -1    0    0    0    0 -0.00000000000E+00 -0.00000000000E+00 -0.74505805969E-08  0.93827000000E+00  0.93827000000E+00 0. -1.
     999902    2    1    2    0    0 -0.20633234858E-01 -0.51158990263E-02  0.92268992165E-02  0.10207559095E+01  0.10204928163E+01 0.  0.
     999903    2    3    3    0    0  0.64495135575E-01  0.33419177933E-01  0.10658379402E+00  0.13046935077E+00  0.19638797736E-01 0.  0.
         14    1    1    2    0    0  0.20633234858E-01  0.51158990263E-02 -0.92268992165E-02  0.23174090548E-01  0.00000000000E+00 0. -1.
     999901    1    3    3    0    0 -0.85128370434E-01 -0.38535076959E-01 -0.97356894799E-01  0.89028655868E+00  0.88000000000E+00 0. -1.
        -11    1    4    4    0    0  0.41384222911E-01  0.14304067956E-01  0.50292398363E-01  0.66684681300E-01  0.51100000000E-03 0. -1.
         11    1    4    4    0    0  0.23110912665E-01  0.19115109976E-01  0.56291395653E-01  0.63784669468E-01  0.51100000000E-03 0.  1.
</event>
<event>
 8    1  0.1197213E+005  0.1043930E+01  0.7957747E-01            NaN
         13   -1    0    0    0    0  0.00000000000E+00  0.00000000000E+00  0.74505805969E-08  0.10566000000E+00  0.10566000000E+00 0. -1.
     999900   -1    0    0    0    0 -0.00000000000E+00 -0.00000000000E+00 -0.74505805969E-08  0.93827000000E+00  0.93827000000E+00 0. -1.
     999902    2    1    2    0    0  0.22098787468E-02 -0.23496404320E-01  0.40923073201E-02  0.10199777233E+01  0.10196964472E+01 0.  0.
     999903    2    3    3    0    0 -0.12206867067E+00  0.69069609560E-02 -0.37930316288E-01  0.12973313704E+00  0.21059712324E-01 0.  0.
         14    1    1    2    0    0 -0.22098787468E-02  0.23496404320E-01 -0.40923073201E-02  0.23952276703E-01  0.00000000000E+00 0.  1.
     999901    1    3    3    0    0  0.12427854942E+00 -0.30403365276E-01  0.42022623608E-01  0.89024458626E+00  0.88000000000E+00 0.  1.
        -11    1    4    4    0    0 -0.36188742092E-01 -0.65287135316E-02 -0.67932070778E-02  0.37398635510E-01  0.51100000000E-03 0.  1.
         11    1    4    4    0    0 -0.85879928580E-01  0.13435674488E-01 -0.31137109210E-01  0.92334501530E-01  0.51100000000E-03 0. -1.
</event>
<event>
 8    1  0.1197213E+005  0.1043930E+01  0.7957747E-01            NaN
         13   -1    0    0    0    0  0.00000000000E+00  0.00000000000E+00  0.74505805969E-08  0.10566000000E+00  0.10566000000E+00 0.  1.
     999900   -1    0    0    0    0 -0.00000000000E+00 -0.00000000000E+00 -0.74505805969E-08  0.93827000000E+00  0.93827000000E+00 0. -1.
     999902    2    1    2    0    0 -0.82937913059E-02 -0.12482896227E-01  0.17812739650E-01  0.10206511820E+01  0.10203856781E+01 0.  0.
     999903    2    3    3    0    0 -0.90958262813E-02 -0.35799521874E-01 -0.12228495298E+00  0.12926368393E+00  0.19777523492E-01 0.  0.
         14    1    1    2    0    0  0.82937913059E-02  0.12482896227E-01 -0.17812739650E-01  0.23278817974E-01  0.00000000000E+00 0. -1.
     999901    1    3    3    0    0  0.80203497543E-03  0.23316625647E-01  0.14009769263E+00  0.89138749810E+00  0.88000000000E+00 0.  1.
        -11    1    4    4    0    0 -0.14128094389E-01 -0.26764944488E-01 -0.10324228296E+00  0.10758808213E+00  0.51100000000E-03 0.  1.
         11    1    4    4    0    0  0.50322681081E-02 -0.90345773862E-02 -0.19042670011E-01  0.21675601791E-01  0.51100000000E-03 0. -1.
</event>
<event>
 8    1  0.1197213E+005  0.1043930E+01  0.7957747E-01            NaN
         13   -1    0    0    0    0  0.00000000000E+00  0.00000000000E+00  0.74505805969E-08  0.10566000000E+00  0.10566000000E+00 0. -1.
     999900   -1    0    0    0    0 -0.00000000000E+00 -0.00000000000E+00 -0.74505805969E-08  0.93827000000E+00  0.93827000000E+00 0. -1.
     999902    2    1    2    0    0  0.80334136749E-02 -0.10942899069E-01 -0.20536594617E-01  0.10193122322E+01  0.10190149126E+01 0.  0.
     999903    2    3    3    0    0  0.12290239855E+00  0.38184901776E-01  0.43679321921E-02  0.13013921189E+00  0.18816199086E-01 0.  0.
         14    1    1    2    0    0 -0.80334136749E-02  0.10942899069E-01  0.20536594617E-01  0.24617767847E-01  0.00000000000E+00 0. -1.
     999901    1    3    3    0    0 -0.11486898487E+00 -0.49127800845E-01 -0.24904526809E-01  0.88917302026E+00  0.88000000000E+00 0. -1.
        -11    1    4    4    0    0  0.71271769349E-01  0.28636047933E-01 -0.42471939931E-02  0.76928461086E-01  0.51100000000E-03 0.  1.
         11    1    4    4    0    0  0.51630629200E-01  0.95488538434E-02  0.86151261852E-02  0.53210750807E-01  0.51100000000E-03 0. -1.
</event>
<event>
 8    1  0.1197213E+005  0.1043930E+01  0.7957747E-01            NaN
         13   -1    0    0    0    0  0.00000000000E+00  0.00000000000E+00  0.74505805969E-08  0.10566000000E+00  0.10566000000E+00 0.  1.
     999900   -1    0    0    0    0 -0.00000000000E+00 -0.00000000000E+00 -0.74505805969E-08  0.93827000000E+00  0.93827000000E+00 0. -1.
     999902    2    1    2    0    0 -0.18961465947E-01 -0.16900507903E-01 -0.18728116944E-02  0.10184609643E+01  0.10181424576E+01 0.  0.
     999903    2    3    3    0    0  0.65897110184E-01  0.19042139982E-01 -0.10572131598E+00  0.12757524559E+00  0.19834676943E-01 0.  0.
         14    1    1    2    0    0  0.18961465947E-01  0.16900507903E-01  0.18728116944E-02  0.25469035747E-01  0.00000000000E+00 0.  1.
     999901    1    3    3    0    0 -0.84858576131E-01 -0.35942647884E-01  0.10384850428E+00  0.89088571867E+00  0.88000000000E+00 0.  1.
        -11    1    4    4    0    0  0.18035166269E-01  0.11612860771E-01 -0.21231012591E-01  0.30185141614E-01  0.51100000000E-03 0. -1.
         11    1    4    4    0    0  0.47861943915E-01  0.74292792109E-02 -0.84490303385E-01  0.97390103974E-01  0.51100000000E-03 0.  1.
</event>
<event>
 8    1  0.1197213E+005  0.1043930E+01  0.7957747E-01            NaN
         13   -1    0    0    0    0  0.00000000000E+00  0.00000000000E+00  0.74505805969E-08  0.10566000000E+00  0.10566000000E+00 0. -1.
     999900   -1    0    0    0    0 -0.00000000000E+00 -0.00000000000E+00 -0.74505805969E-08  0.93827000000E+00  0.93827000000E+00 0.  1.
     999902    2    1    2    0    0  0.21803197799E-01 -0.54563191954E-02 -0.96837715912E-02  0.10194570295E+01  0.10191632395E+01 0.  0.
     999903    2    3    3    0    0 -0.32266503076E-01 -0.12212562121E+00  0.21565112071E-01  0.12956279346E+00  0.19122468835E-01 0.  0.
         14    1    1    2    0    0 -0.21803197799E-01  0.54563191954E-02  0.96837715912E-02  0.24472970512E-01  0.00000000000E+00 0. -1.
     999901    1    3    3    0    0  0.54069700876E-01  0.11666930201E+00 -0.31248883662E-01  0.88989423603E+00  0.88000000000E+00 0. -1.
        -11    1    4    4    0    0 -0.64255409645E-02 -0.59877758617E-01  0.13110057012E-01  0.61634148567E-01  0.51100000000E-03 0.  1.
         11    1    4    4    0    0 -0.25840962112E-01 -0.62247862591E-01  0.84550550585E-02  0.67928644894E-01  0.51100000000E-03 0. -1.
</event>
<event>
 8    1  0.1197213E+005  0.1043930E+01  0.7957747E-01            NaN
         13   -1    0    0    0    0  0.00000000000E+00  0.00000000000E+00  0.74505805969E-08  0.10566000000E+00  0.10566000000E+00 0.  1.
     999900   -1    0    0    0    0 -0.00000000000E+00 -0.00000000000E+00 -0.74505805969E-08  0.93827000000E+00  0.93827000000E+00 0. -1.
     999902    2    1    2    0    0  0.14815030828E-01 -0.16998273016E-01  0.83754421546E-02  0.10198764253E+01  0.10195927366E+01 0.  0.
     999903    2    3    3    0    0  0.66336778634E-01 -0.89564883644E-01  0.70247080914E-01  0.13322626704E+00  0.19802759199E-01 0.  0.
         14    1    1    2    0    0 -0.14815030828E-01  0.16998273016E-01 -0.83754421546E-02  0.24053574688E-01  0.00000000000E+00 0.  1.
     999901    1    3    3    0    0 -0.51521747806E-01  0.72566610628E-01 -0.61871638759E-01  0.88665015827E+00  0.88000000000E+00 0.  1.
        -11    1    4    4    0    0  0.18753818381E-02 -0.11965982603E-01  0.10069781521E-01  0.15759550044E-01  0.51100000000E-03 0. -1.
         11    1    4    4    0    0  0.64461396796E-01 -0.77598901040E-01  0.60177299393E-01  0.11746671700E+00  0.51100000000E-03 0.  1.
</event>
<event>
 8    1  0.1197213E+005  0.1043930E+01  0.7957747E-01            NaN
         13   -1    0    0    0    0  0.00000000000E+00  0.00000000000E+00  0.74505805969E-08  0.10566000000E+00  0.10566000000E+00 0. -1.
     999900   -1    0    0    0    0 -0.00000000000E+00 -0.00000000000E+00 -0.74505805969E-08  0.93827000000E+00  0.93827000000E+00 0. -1.
     999902    2    1    2    0    0 -0.15504247416E-01 -0.40380153364E-02  0.18774367627E-01  0.10192487493E+01  0.10189498755E+01 0.  0.
     999903    2    3    3    0    0  0.94388226595E-01  0.78867226030E-01 -0.25367331013E-01  0.12745386008E+00  0.21721148826E-01 0.  0.
         14    1    1    2    0    0  0.15504247416E-01  0.40380153364E-02 -0.18774367627E-01  0.24681250690E-01  0.00000000000E+00 0.  1.
     999901    1    3    3    0    0 -0.10989247401E+00 -0.82905241367E-01  0.44141698640E-01  0.89179488923E+00  0.88000000000E+00 0.  1.
        -11    1    4    4    0    0  0.41769328302E-01  0.21267312788E-01 -0.10359847006E-01  0.48005863507E-01  0.51100000000E-03 0. -1.
         11    1    4    4    0    0  0.52618898293E-01  0.57599913242E-01 -0.15007484007E-01  0.79447996578E-01  0.51100000000E-03 0.  1.
</event>
<event>
 8    1  0.1197213E+005  0.1043930E+01  0.7957747E-01            NaN
         13   -1    0    0    0    0  0.00000000000E+00  0.00000000000E+00  0.74505805969E-08  0.10566000000E+00  0.10566000000E+00 0.  1.
     999900   -1    0    0    0    0 -0.00000000000E+00 -0.00000000000E+00 -0.74505805969E-08  0.93827000000E+00  0.93827000000E+00 0. -1.
     999902    2    1    2    0    0 -0.29372307679E-02  0.16406017261E-01  0.16138438544E-01  0.10207301309E+01  0.10204664454E+01 0.  0.
     999903    2    3    3    0    0  0.10654214926E+00  0.72838802032E-01  0.13385677431E-01  0.13214813045E+00  0.25044587674E-01 0.  0.
         14    1    1    2    0    0  0.29372307679E-02 -0.16406017261E-01 -0.16138438544E-01  0.23199869086E-01  0.00000000000E+00 0. -1.
     999901    1    3    3    0    0 -0.10947938003E+00 -0.56432784771E-01  0.27527611127E-02  0.88858200046E+00  0.88000000000E+00 0. -1.
        -11    1    4    4    0    0  0.80708341983E-01  0.42828725203E-01  0.40383128853E-02  0.91458762620E-01  0.51100000000E-03 0.  1.
         11    1    4    4    0    0  0.25833807277E-01  0.30010076829E-01  0.93473645457E-02  0.40689367834E-01  0.51100000000E-03 0. -1.
</event>
<event>
 7    1  0.1197213E+005  0.1043930E+01  0.7957747E-01            NaN
         13   -1    0    0    0    0  0.00000000000E+00  0.00000000000E+00  0.74505805969E-08  0.10566000000E+00  0.10566000000E+00 0. -1.
     999900   -1    0    0    0    0 -0.00000000000E+00 -0.00000000000E+00 -0.74505805969E-08  0.93827000000E+00  0.93827000000E+00 0.  1.
     999902    2    1    2    0    0 -0.78962143143E-02  0.10256058444E-01  0.19725660434E-01  0.10203368100E+01  0.10200640015E+01 0.  0.
         14    1    1    2    0    0  0.78962143143E-02 -0.10256058444E-01 -0.19725660434E-01  0.23593190010E-01  0.00000000000E+00 0.  1.
     999901    1    3    3    0    0  0.81262515351E-02 -0.21330598328E-01 -0.10036231690E+00  0.88599865973E+00  0.88000000000E+00 0.  1.
        -11    1    3    3    0    0 -0.81482939286E-02  0.44320154244E-01  0.94293028227E-01  0.10450888507E+00  0.51100000000E-03 0.  1.
         11    1    3    3    0    0 -0.78741719209E-02 -0.12733497471E-01  0.25794949104E-01  0.29829265187E-01  0.51100000000E-03 0. -1.
</event>
<event>
 8    1  0.1197213E+005  0.1043930E+01  0.7957747E-01            NaN
         13   -1    0    0    0    0  0.00000000000E+00  0.00000000000E+00  0.74505805969E-08  0.10566000000E+00  0.10566000000E+00 0.  1.
     999900   -1    0    0    0    0 -0.00000000000E+00 -0.00000000000E+00 -0.74505805969E-08  0.93827000000E+00  0.93827000000E+00 0. -1.
     999902    2    1    2    0    0  0.18116346586E-01  0.11392916184E-01 -0.10009557238E-01  0.10203039172E+01  0.10200303386E+01 0.  0.
     999903    2    3    3    0    0 -0.97374087663E-01 -0.69492121057E-01  0.40087926467E-01  0.12767286937E+00  0.19556377187E-01 0.  0.
         14    1    1    2    0    0 -0.18116346586E-01 -0.11392916184E-01  0.10009557238E-01  0.23626082809E-01  0.00000000000E+00 0. -1.
     999901    1    3    3    0    0  0.11549043425E+00  0.80885037241E-01 -0.50097483705E-01  0.89263104782E+00  0.88000000000E+00 0. -1.
        -11    1    4    4    0    0 -0.25407729458E-01 -0.91106995589E-02  0.54091438600E-02  0.27533207604E-01  0.51100000000E-03 0.  1.
         11    1    4    4    0    0 -0.71966358206E-01 -0.60381421498E-01  0.34678782607E-01  0.10013966177E+00  0.51100000000E-03 0. -1.
</event>
<event>
 8    1  0.1197213E+005  0.1043930E+01  0.7957747E-01            NaN
         13   -1    0    0    0    0  0.00000000000E+00  0.00000000000E+00  0.74505805969E-08  0.10566000000E+00  0.10566000000E+00 0. -1.
     999900   -1    0    0    0    0 -0.00000000000E+00 -0.00000000000E+00 -0.74505805969E-08  0.93827000000E+00  0.93827000000E+00 0.  1.
     999902    2    1    2    0    0  0.20625673456E-02 -0.42588988653E-02  0.23570812128E-01  0.10198888771E+01  0.10196054855E+01 0.  0.
     999903    2    3    3    0    0  0.40906549686E-01 -0.46013990393E-01  0.11606399504E+00  0.13320554499E+00  0.21959807662E-01 0.  0.
         14    1    1    2    0    0 -0.20625673456E-02  0.42588988653E-02 -0.23570812128E-01  0.24041122852E-01  0.00000000000E+00 0.  1.
     999901    1    3    3    0    0 -0.38843982340E-01  0.41755091527E-01 -0.92493182917E-01  0.88668333215E+00  0.88000000000E+00 0.  1.
        -11    1    4    4    0    0  0.19368529247E-01 -0.24970284660E-01  0.37355401289E-01  0.48932015773E-01  0.51100000000E-03 0. -1.
         11    1    4    4    0    0  0.21538020439E-01 -0.21043705732E-01  0.78708593756E-01  0.84273529221E-01  0.51100000000E-03 0.  1.
</event>
<event>
 8    1  0.1197213E+005  0.1043930E+01  0.7957747E-01            NaN
         13   -1    0    0    0    0  0.00000000000E+00  0.00000000000E+00  0.74505805969E-08  0.10566000000E+00  0.10566000000E+00 0. -1.
     999900   -1    0    0    0    0 -0.00000000000E+00 -0.00000000000E+00 -0.74505805969E-08  0.93827000000E+00  0.93827000000E+00 0.  1.
     999902    2    1    2    0    0 -0.16794736376E-01  0.37161785647E-02  0.16938768533E-01  0.10197888519E+01  0.10195030688E+01 0.  0.
     999903    2    3    3    0    0 -0.39188840165E-01 -0.12265867947E+00 -0.51193095213E-03  0.13030775172E+00  0.19973263192E-01 0.  0.
         14    1    1    2    0    0  0.16794736376E-01 -0.37161785647E-02 -0.16938768533E-01  0.24141148119E-01  0.00000000000E+00 0.  1.
     999901    1    3    3    0    0  0.22394103789E-01  0.12637485804E+00  0.17450699485E-01  0.88948110016E+00  0.88000000000E+00 0. -1.
        -11    1    4    4    0    0 -0.82554777485E-02 -0.55416383982E-01  0.38420726077E-02  0.56161830182E-01  0.51100000000E-03 0.  1.
         11    1    4    4    0    0 -0.30933362416E-01 -0.67242295489E-01 -0.43540035598E-02  0.74145921540E-01  0.51100000000E-03 0. -1.
</event>
<event>
 8    1  0.1197213E+005  0.1043930E+01  0.7957747E-01            NaN
         13   -1    0    0    0    0  0.00000000000E+00  0.00000000000E+00  0.74505805969E-08  0.10566000000E+00  0.10566000000E+00 0.  1.
     999900   -1    0    0    0    0 -0.00000000000E+00 -0.00000000000E+00 -0.74505805969E-08  0.93827000000E+00  0.93827000000E+00 0.  1.
     999902    2    1    2    0    0 -0.68901793108E-02 -0.22099711868E-01  0.69904787163E-02  0.10197486306E+01  0.10194618830E+01 0.  0.
     999903    2    3    3    0    0 -0.11145804294E+00 -0.21329373393E-01  0.63865689354E-01  0.13173409176E+00  0.19930056441E-01 0.  0.
         14    1    1    2    0    0  0.68901793108E-02  0.22099711868E-01 -0.69904787163E-02  0.24181369446E-01  0.00000000000E+00 0. -1.
     999901    1    3    3    0    0  0.10456786363E+00 -0.77033847589E-03 -0.56875210637E-01  0.88801453879E+00  0.88000000000E+00 0.  1.
        -11    1    4    4    0    0 -0.48405253711E-01 -0.19086143892E-01  0.31430723509E-01  0.60790632311E-01  0.51100000000E-03 0.  1.
         11    1    4    4    0    0 -0.63052789229E-01 -0.22432295006E-02  0.32434965845E-01  0.70943459448E-01  0.51100000000E-03 0. -1.
</event>
<event>
 8    1  0.1197213E+005  0.1043930E+01  0.7957747E-01            NaN
         13   -1    0    0    0    0  0.00000000000E+00  0.00000000000E+00  0.74505805969E-08  0.10566000000E+00  0.10566000000E+00 0. -1.
     999900   -1    0    0    0    0 -0.00000000000E+00 -0.00000000000E+00 -0.74505805969E-08  0.93827000000E+00  0.93827000000E+00 0.  1.
     999902    2    1    2    0    0  0.15843008035E-01 -0.18097103232E-01 -0.37768230971E-02  0.10195831225E+01  0.10192923885E+01 0.  0.
     999903    2    3    3    0    0 -0.56882403206E-01 -0.59097344379E-01  0.98473002091E-01  0.12973761238E+00  0.20169581508E-01 0.  0.
         14    1    1    2    0    0 -0.15843008035E-01  0.18097103232E-01  0.37768230971E-02  0.24346877453E-01  0.00000000000E+00 0. -1.
     999901    1    3    3    0    0  0.72725411241E-01  0.41000241147E-01 -0.10224982519E+00  0.88984551017E+00  0.88000000000E+00 0. -1.
        -11    1    4    4    0    0 -0.21828900066E-01 -0.15101716615E-01  0.20264755108E-01  0.33398864402E-01  0.51100000000E-03 0.  1.
         11    1    4    4    0    0 -0.35053503140E-01 -0.43995627764E-01  0.78208246983E-01  0.96338747978E-01  0.51100000000E-03 0. -1.
</event>
<event>
 8    1  0.1197213E+005  0.1043930E+01  0.7957747E-01            NaN
         13   -1    0    0    0    0  0.00000000000E+00  0.00000000000E+00  0.74505805969E-08  0.10566000000E+00  0.10566000000E+00 0.  1.
     999900   -1    0    0    0    0 -0.00000000000E+00 -0.00000000000E+00 -0.74505805969E-08  0.93827000000E+00  0.93827000000E+00 0.  1.
     999902    2    1    2    0    0  0.11869889843E-01 -0.17677372096E-01  0.80596316133E-02  0.10211628871E+01  0.10209090559E+01 0.  0.
     999903    2    3    3    0    0 -0.70581992530E-03 -0.41746594098E-01 -0.12264460892E+00  0.13109487034E+00  0.20022203500E-01 0.  0.
         14    1    1    2    0    0 -0.11869889843E-01  0.17677372096E-01 -0.80596316133E-02  0.22767112923E-01  0.00000000000E+00 0. -1.
     999901    1    3    3    0    0  0.12575709768E-01  0.24069222002E-01  0.13070424053E+00  0.89006801674E+00  0.88000000000E+00 0. -1.
        -11    1    4    4    0    0 -0.83048555019E-02 -0.10426947866E-01 -0.47303472280E-01  0.49148463632E-01  0.51100000000E-03 0.  1.
         11    1    4    4    0    0  0.75990355766E-02 -0.31319646232E-01 -0.75341136637E-01  0.81946406709E-01  0.51100000000E-03 0. -1.
</event>
<event>
 8    1  0.1197213E+005  0.1043930E+01  0.7957747E-01            NaN
         13   -1    0    0    0    0  0.00000000000E+00  0.00000000000E+00  0.74505805969E-08  0.10566000000E+00  0.10566000000E+00 0. -1.
     999900   -1    0    0    0    0 -0.00000000000E+00 -0.00000000000E+00 -0.74505805969E-08  0.93827000000E+00  0.93827000000E+00 0. -1.
     999902    2    1    2    0    0 -0.19675706399E-01 -0.91069914591E-02  0.10057033059E-01  0.10200299031E+01  0.10197498657E+01 0.  0.
     999903    2    3    3    0    0  0.32100563300E-01 -0.42587473652E-01  0.11834250957E+00  0.13125126410E+00  0.19437224097E-01 0.  0.
         14    1    1    2    0    0  0.19675706399E-01  0.91069914591E-02 -0.10057033059E-01  0.23900096855E-01  0.00000000000E+00 0.  1.
     999901    1    3    3    0    0 -0.51776269699E-01  0.33480482193E-01 -0.10828547651E+00  0.88877863904E+00  0.88000000000E+00 0. -1.
        -11    1    4    4    0    0  0.15408511797E-01 -0.95745019718E-02  0.54755214670E-01  0.57684382448E-01  0.51100000000E-03 0.  1.
         11    1    4    4    0    0  0.16692051502E-01 -0.33012971680E-01  0.63587294903E-01  0.73566881656E-01  0.51100000000E-03 0. -1.
</event>
<event>
 8    1  0.1197213E+005  0.1043930E+01  0.7957747E-01            NaN
         13   -1    0    0    0    0  0.00000000000E+00  0.00000000000E+00  0.74505805969E-08  0.10566000000E+00  0.10566000000E+00 0.  1.
     999900   -1    0    0    0    0 -0.00000000000E+00 -0.00000000000E+00 -0.74505805969E-08  0.93827000000E+00  0.93827000000E+00 0. -1.
     999902    2    1    2    0    0 -0.79285985863E-02 -0.20746559077E-01 -0.73312990192E-02  0.10205413204E+01  0.10202732753E+01 0.  0.
     999903    2    3    3    0    0  0.86191644923E-01 -0.53847057308E-01  0.79597356150E-01  0.13064758835E+00  0.20113378624E-01 0.  0.
         14    1    1    2    0    0  0.79285985863E-02  0.20746559077E-01  0.73312990192E-02  0.23388679620E-01  0.00000000000E+00 0.  1.
     999901    1    3    3    0    0 -0.94120243509E-01  0.33100498231E-01 -0.86928655169E-01  0.88989373203E+00  0.88000000000E+00 0. -1.
        -11    1    4    4    0    0  0.71388993023E-01 -0.42891064878E-01  0.73952748618E-01  0.11137909104E+00  0.51100000000E-03 0.  1.
         11    1    4    4    0    0  0.14802651900E-01 -0.10955992430E-01  0.56446075322E-02  0.19268497310E-01  0.51100000000E-03 0. -1.
</event>
<event>
 8    1  0.1197213E+005  0.1043930E+01  0.7957747E-01            NaN
         13   -1    0    0    0    0  0.00000000000E+00  0.00000000000E+00  0.74505805969E-08  0.10566000000E+00  0.10566000000E+00 0. -1.
     999900   -1    0    0    0    0 -0.00000000000E+00 -0.00000000000E+00 -0.74505805969E-08  0.93827000000E+00  0.93827000000E+00 0. -1.
     999902    2    1    2    0    0 -0.58729084122E-02  0.24685601720E-03  0.24062513954E-01  0.10191599259E+01  0.10188588705E+01 0.  0.
     999903    2    3    3    0    0 -0.37813756666E-01  0.39365044520E-01 -0.11300629980E+00  0.12711827323E+00  0.20227324889E-01 0.  0.
         14    1    1    2    0    0  0.58729084122E-02 -0.24685601720E-03 -0.24062513954E-01  0.24770074060E-01  0.00000000000E+00 0.  1.
     999901    1    3    3    0    0  0.31940848254E-01 -0.39118188503E-01  0.13706881375E+00  0.89204165271E+00  0.88000000000E+00 0.  1.
        -11    1    4    4    0    0 -0.11759205630E-01  0.15865499094E-01 -0.63028445181E-01  0.66051790297E-01  0.51100000000E-03 0. -1.
         11    1    4    4    0    0 -0.26054551036E-01  0.23499545426E-01 -0.49977854619E-01  0.61066482937E-01  0.51100000000E-03 0.  1.
</event>
<event>
 8    1  0.1197213E+005  0.1043930E+01  0.7957747E-01            NaN
         13   -1    0    0    0    0  0.00000000000E+00  0.00000000000E+00  0.74505805969E-08  0.10566000000E+00  0.10566000000E+00 0. -1.
     999900   -1    0    0    0    0 -0.00000000000E+00 -0.00000000000E+00 -0.74505805969E-08  0.93827000000E+00  0.93827000000E+00 0. -1.
     999902    2    1    2    0    0  0.21100449263E-01 -0.56102727841E-02  0.86167465924E-02  0.10204576239E+01  0.10201876345E+01 0.  0.
     999903    2    3    3    0    0  0.85263363977E-01 -0.67773133705E-01  0.75058681636E-01  0.13344261179E+00  0.17609260747E-01 0.  0.
         14    1    1    2    0    0 -0.21100449263E-01  0.56102727841E-02 -0.86167465924E-02  0.23472376140E-01  0.00000000000E+00 0.  1.
     999901    1    3    3    0    0 -0.64162914714E-01  0.62162860921E-01 -0.66441935043E-01  0.88701501207E+00  0.88000000000E+00 0.  1.
        -11    1    4    4    0    0  0.83038673303E-01 -0.64607656317E-01  0.75522550372E-01  0.12951249845E+00  0.51100000000E-03 0.  1.
         11    1    4    4    0    0  0.22246906744E-02 -0.31654773877E-02 -0.46386873593E-03  0.39301133436E-02  0.51100000000E-03 0. -1.
</event>
<event>
 8    1  0.1197213E+005  0.1043930E+01  0.7957747E-01            NaN
         13   -1    0    0    0    0  0.00000000000E+00  0.00000000000E+00  0.74505805969E-08  0.10566000000E+00  0.10566000000E+00 0. -1.
     999900   -1    0    0    0    0 -0.00000000000E+00 -0.00000000000E+00 -0.74505805969E-08  0.93827000000E+00  0.93827000000E+00 0.  1.
     999902    2    1    2    0    0  0.99396605260E-02  0.16449487216E-01  0.10480257244E-01  0.10220389454E+01  0.10218044762E+01 0.  0.
     999903    2    3    3    0    0  0.56734627004E-01 -0.10051652938E+00 -0.57461603855E-01  0.13047463786E+00  0.19985110124E-01 0.  0.
         14    1    1    2    0    0 -0.99396605260E-02 -0.16449487216E-01 -0.10480257244E-01  0.21891054634E-01  0.00000000000E+00 0.  1.
     999901    1    3    3    0    0 -0.46794966478E-01  0.11696601660E+00  0.67941861099E-01  0.89156430751E+00  0.88000000000E+00 0.  1.
        -11    1    4    4    0    0  0.29332841565E-01 -0.70414990541E-01 -0.40579245251E-01  0.86403835293E-01  0.51100000000E-03 0. -1.
         11    1    4    4    0    0  0.27401785439E-01 -0.30101538844E-01 -0.16882358604E-01  0.44070802569E-01  0.51100000000E-03 0.  1.
</event>
<event>
 8    1  0.1197213E+005  0.1043930E+01  0.7957747E-01            NaN
         13   -1    0    0    0    0  0.00000000000E+00  0.00000000000E+00  0.74505805969E-08  0.10566000000E+00  0.10566000000E+00 0.  1.
     999900   -1    0    0    0    0 -0.00000000000E+00 -0.00000000000E+00 -0.74505805969E-08  0.93827000000E+00  0.93827000000E+00 0. -1.
     999902    2    1    2    0    0 -0.21828288284E-01 -0.28025111858E-02  0.96757579243E-03  0.10219012814E+01  0.10216638217E+01 0.  0.
     999903    2    3    3    0    0  0.85626403902E-01  0.84010420067E-01  0.44509036073E-01  0.13006113059E+00  0.23349768175E-01 0.  0.
         14    1    1    2    0    0  0.21828288284E-01  0.28025111858E-02 -0.96757579243E-03  0.22028718558E-01  0.00000000000E+00 0.  1.
     999901    1    3    3    0    0 -0.10745469219E+00 -0.86812931253E-01 -0.43541460280E-01  0.89184015085E+00  0.88000000000E+00 0. -1.
        -11    1    4    4    0    0  0.57192066913E-01  0.68656693044E-01  0.27241665982E-01  0.93418646447E-01  0.51100000000E-03 0. -1.
         11    1    4    4    0    0  0.28434336989E-01  0.15353727023E-01  0.17267370091E-01  0.36642484145E-01  0.51100000000E-03 0.  1.
</event>
<event>
 8    1  0.1197213E+005  0.1043930E+01  0.7957747E-01            NaN
         13   -1    0    0    0    0  0.00000000000E+00  0.00000000000E+00  0.74505805969E-08  0.10566000000E+00  0.10566000000E+00 0. -1.
     999900   -1    0    0    0    0 -0.00000000000E+00 -0.00000000000E+00 -0.74505805969E-08  0.93827000000E+00  0.93827000000E+00 0. -1.
     999902    2    1    2    0    0  0.18801178727E-01  0.34244296750E-02 -0.13979711889E-01  0.10202520908E+01  0.10199772965E+01 0.  0.
     999903    2    3    3    0    0  0.98480938133E-01 -0.67936417566E-01 -0.53795780092E-01  0.13288150650E+00  0.21205112733E-01 0.  0.
         14    1    1    2    0    0 -0.18801178727E-01 -0.34244296750E-02  0.13979711889E-01  0.23677909211E-01  0.00000000000E+00 0. -1.
     999901    1    3    3    0    0 -0.79679759407E-01  0.71360847241E-01  0.39816068203E-01  0.88737058429E+00  0.88000000000E+00 0.  1.
        -11    1    4    4    0    0  0.57463054689E-01 -0.47480229528E-01 -0.41953239781E-01  0.85537771185E-01  0.51100000000E-03 0. -1.
         11    1    4    4    0    0  0.41017883444E-01 -0.20456188038E-01 -0.11842540311E-01  0.47343735312E-01  0.51100000000E-03 0.  1.
</event>
<event>
 8    1  0.1197213E+005  0.1043930E+01  0.7957747E-01            NaN
         13   -1    0    0    0    0  0.00000000000E+00  0.00000000000E+00  0.74505805969E-08  0.10566000000E+00  0.10566000000E+00 0. -1.
     999900   -1    0    0    0    0 -0.00000000000E+00 -0.00000000000E+00 -0.74505805969E-08  0.93827000000E+00  0.93827000000E+00 0.  1.
     999902    2    1    2    0    0  0.67120114777E-02 -0.24223357863E-02  0.21318407519E-01  0.10214490457E+01  0.10212016253E+01 0.  0.
     999903    2    3    3    0    0  0.10021814919E+00 -0.17909915452E-01 -0.79376968840E-01  0.13065006624E+00  0.20107066652E-01 0.  0.
         14    1    1    2    0    0 -0.67120114777E-02  0.24223357863E-02 -0.21318407519E-01  0.22480954336E-01  0.00000000000E+00 0.  1.
     999901    1    3    3    0    0 -0.93506137711E-01  0.15487579666E-01  0.10069537636E+00  0.89079897942E+00  0.88000000000E+00 0. -1.
        -11    1    4    4    0    0  0.34865715010E-01 -0.85477003152E-02 -0.16625893285E-01  0.39564664947E-01  0.51100000000E-03 0.  1.
         11    1    4    4    0    0  0.65352434178E-01 -0.93622151370E-02 -0.62751075555E-01  0.91085401298E-01  0.51100000000E-03 0. -1.
</event>
<event>
 8    1  0.1197213E+005  0.1043930E+01  0.7957747E-01            NaN
         13   -1    0    0    0    0  0.00000000000E+00  0.00000000000E+00  0.74505805969E-08  0.10566000000E+00  0.10566000000E+00 0.  1.
     999900   -1    0    0    0    0 -0.00000000000E+00 -0.00000000000E+00 -0.74505805969E-08  0.93827000000E+00  0.93827000000E+00 0.  1.
     999902    2    1    2    0    0 -0.14152930708E-01 -0.10946853631E-01  0.14152458360E-01  0.10211170403E+01  0.10208621743E+01 0.  0.
     999903    2    3    3    0    0  0.38415740841E-01  0.47479335240E-02  0.12516046211E+00  0.13244805331E+00  0.19468783514E-01 0.  0.
         14    1    1    2    0    0  0.14152930708E-01  0.10946853631E-01 -0.14152458360E-01  0.22812959687E-01  0.00000000000E+00 0.  1.
     999901    1    3    3    0    0 -0.52568671549E-01 -0.15694787155E-01 -0.11100800375E+00  0.88866898701E+00  0.88000000000E+00 0.  1.
        -11    1    4    4    0    0  0.25570639157E-01  0.10541940393E-01  0.64712669666E-01  0.70377417049E-01  0.51100000000E-03 0.  1.
         11    1    4    4    0    0  0.12845101684E-01 -0.57940068691E-02  0.60447792444E-01  0.62070636256E-01  0.51100000000E-03 0. -1.
</event>
<event>
 8    1  0.1197213E+005  0.1043930E+01  0.7957747E-01            NaN
         13   -1    0    0    0    0  0.00000000000E+00  0.00000000000E+00  0.74505805969E-08  0.10566000000E+00  0.10566000000E+00 0.  1.
     999900   -1    0    0    0    0 -0.00000000000E+00 -0.00000000000E+00 -0.74505805969E-08  0.93827000000E+00  0.93827000000E+00 0.  1.
     999902    2    1    2    0    0  0.17569005673E-01 -0.77458159789E-02 -0.11031773265E-01  0.10217857536E+01  0.10215457693E+01 0.  0.
     999903    2    3    3    0    0  0.33157107353E-01 -0.11741559852E-01  0.12497164567E+00  0.13119275746E+00  0.18877748630E-01 0.  0.
         14    1    1    2    0    0 -0.17569005673E-01  0.77458159789E-02  0.11031773265E-01  0.22144246361E-01  0.00000000000E+00 0. -1.
     999901    1    3    3    0    0 -0.15588101680E-01  0.39957438730E-02 -0.13600341893E+00  0.89059299618E+00  0.88000000000E+00 0.  1.
        -11    1    4    4    0    0  0.46187275348E-02  0.35263541234E-02  0.36953134643E-01  0.37410735069E-01  0.51100000000E-03 0. -1.
         11    1    4    4    0    0  0.28538379818E-01 -0.15267913975E-01  0.88018511024E-01  0.93782022390E-01  0.51100000000E-03 0.  1.
</event>
<event>
 8    1  0.1197213E+005  0.1043930E+01  0.7957747E-01            NaN
         13   -1    0    0    0    0  0.00000000000E+00  0.00000000000E+00  0.74505805969E-08  0.10566000000E+00  0.10566000000E+00 0. -1.
     999900   -1    0    0    0    0 -0.00000000000E+00 -0.00000000000E+00 -0.74505805969E-08  0.93827000000E+00  0.93827000000E+00 0.  1.
     999902    2    1    2    0    0  0.10264570797E-01  0.19170473019E-01  0.96332098043E-02  0.10201462412E+01  0.10198689555E+01 0.  0.
     999903    2    3    3    0    0  0.71984178666E-01 -0.77422367527E-01 -0.71298662710E-01  0.12902927090E+00  0.19725832657E-01 0.  0.
         14    1    1    2    0    0 -0.10264570797E-01 -0.19170473019E-01 -0.96332098043E-02  0.23783758756E-01  0.00000000000E+00 0. -1.
     999901    1    3    3    0    0 -0.61719607869E-01  0.96592840546E-01  0.80931872514E-01  0.89111697034E+00  0.88000000000E+00 0. -1.
        -11    1    4    4    0    0  0.55964498325E-02 -0.10160058673E-01 -0.15193670683E-01  0.19122128354E-01  0.51100000000E-03 0.  1.
         11    1    4    4    0    0  0.66387728834E-01 -0.67262308854E-01 -0.56104992027E-01  0.10990714255E+00  0.51100000000E-03 0. -1.
</event>
<event>
 8    1  0.1197213E+005  0.1043930E+01  0.7957747E-01            NaN
         13   -1    0    0    0    0  0.00000000000E+00  0.00000000000E+00  0.74505805969E-08  0.10566000000E+00  0.10566000000E+00 0. -1.
     999900   -1    0    0    0    0 -0.00000000000E+00 -0.00000000000E+00 -0.74505805969E-08  0.93827000000E+00  0.93827000000E+00 0.  1.
     999902    2    1    2    0    0 -0.11188020231E-01  0.76064302519E-02  0.19513773608E-01  0.10201851703E+01  0.10199088022E+01 0.  0.
     999903    2    3    3    0    0  0.11149257736E+00  0.34126701353E-01 -0.50219063647E-01  0.12854818003E+00  0.20185481968E-01 0.  0.
         14    1    1    2    0    0  0.11188020231E-01 -0.76064302519E-02 -0.19513773608E-01  0.23744829717E-01  0.00000000000E+00 0.  1.
     999901    1    3    3    0    0 -0.12268059759E+00 -0.26520271101E-01  0.69732837255E-01  0.89163699026E+00  0.88000000000E+00 0. -1.
        -11    1    4    4    0    0  0.34594650707E-01  0.61516623073E-02 -0.63821224143E-02  0.35715898619E-01  0.51100000000E-03 0.  1.
         11    1    4    4    0    0  0.76897926654E-01  0.27975039046E-01 -0.43836941232E-01  0.92832281406E-01  0.51100000000E-03 0. -1.
</event>
<event>
 8    1  0.1197213E+005  0.1043930E+01  0.7957747E-01            NaN
         13   -1    0    0    0    0  0.00000000000E+00  0.00000000000E+00  0.74505805969E-08  0.10566000000E+00  0.10566000000E+00 0. -1.
     999900   -1    0    0    0    0 -0.00000000000E+00 -0.00000000000E+00 -0.74505805969E-08  0.93827000000E+00  0.93827000000E+00 0.  1.
     999902    2    1    2    0    0 -0.17753533025E-01  0.84430243915E-02 -0.12226647366E-01  0.10207791145E+01  0.10205165540E+01 0.  0.
     999903    2    3    3    0    0 -0.61402938397E-01 -0.10911365484E+00 -0.34556541481E-01  0.13160901397E+00  0.21228930307E-01 0.  0.
         14    1    1    2    0    0  0.17753533025E-01 -0.84430243915E-02  0.12226647366E-01  0.23150885546E-01  0.00000000000E+00 0.  1.
     999901    1    3    3    0    0  0.43649405372E-01  0.11755667924E+00  0.22329894115E-01  0.88917010048E+00  0.88000000000E+00 0.  1.
        -11    1    4    4    0    0 -0.29711366971E-01 -0.71223771515E-01 -0.15838700934E-01  0.78782717168E-01  0.51100000000E-03 0.  1.
         11    1    4    4    0    0 -0.31691571426E-01 -0.37889883329E-01 -0.18717840547E-01  0.52826296803E-01  0.51100000000E-03 0. -1.
</event>
<event>
 8    1  0.1197213E+005  0.1043930E+01  0.7957747E-01            NaN
         13   -1    0    0    0    0  0.00000000000E+00  0.00000000000E+00  0.74505805969E-08  0.10566000000E+00  0.10566000000E+00 0.  1.
     999900   -1    0    0    0    0 -0.00000000000E+00 -0.00000000000E+00 -0.74505805969E-08  0.93827000000E+00  0.93827000000E+00 0. -1.
     999902    2    1    2    0    0  0.14115863724E-01  0.26358709943E-02  0.19454023827E-01  0.10197501640E+01  0.10194634533E+01 0.  0.
     999903    2    3    3    0    0  0.14286315835E-01  0.12815371037E+00  0.55704822477E-02  0.13073525426E+00  0.20813556487E-01 0.  0.
         14    1    1    2    0    0 -0.14115863724E-01 -0.26358709943E-02 -0.19454023827E-01  0.24179835972E-01  0.00000000000E+00 0. -1.
     999901    1    3    3    0    0 -0.17045211099E-03 -0.12551783937E+00  0.13883541579E-01  0.88901490976E+00  0.88000000000E+00 0. -1.
        -11    1    4    4    0    0  0.13139371911E-01  0.80609422339E-01  0.12655619158E-01  0.82649548585E-01  0.51100000000E-03 0.  1.
         11    1    4    4    0    0  0.11469439238E-02  0.47544288030E-01 -0.70851369104E-02  0.48085705680E-01  0.51100000000E-03 0. -1.
</event>
<event>
 8    1  0.1197213E+005  0.1043930E+01  0.7957747E-01            NaN
         13   -1    0    0    0    0  0.00000000000E+00  0.00000000000E+00  0.74505805969E-08  0.10566000000E+00  0.10566000000E+00 0. -1.
     999900   -1    0    0    0    0 -0.00000000000E+00 -0.00000000000E+00 -0.74505805969E-08  0.93827000000E+00  0.93827000000E+00 0. -1.
     999902    2    1    2    0    0 -0.53196944885E-02 -0.15946070104E-01  0.30512575643E-01  0.10090933300E+01  0.10084918221E+01 0.  0.
     999903    2    3    3    0    0 -0.45672203476E-01  0.10741392144E+00  0.15137101204E-01  0.11944035404E+00  0.20326476586E-01 0.  0.
         14    1    1    2    0    0  0.53196944885E-02  0.15946070104E-01 -0.30512575643E-01  0.34836669955E-01  0.00000000000E+00 0.  1.
     999901    1    3    3    0    0  0.40352508988E-01 -0.12335999155E+00  0.15375474438E-01  0.88965297600E+00  0.88000000000E+00 0.  1.
        -11    1    4    4    0    0 -0.18298563959E-01  0.67641897984E-01  0.11574717600E-01  0.71024636672E-01  0.51100000000E-03 0. -1.
         11    1    4    4    0    0 -0.27373639517E-01  0.39772023460E-01  0.35623836043E-02  0.48415717370E-01  0.51100000000E-03 0.  1.
</event>
<event>
 8    1  0.1197213E+005  0.1043930E+01  0.7957747E-01            NaN
         13   -1    0    0    0    0  0.00000000000E+00  0.00000000000E+00  0.74505805969E-08  0.10566000000E+00  0.10566000000E+00 0. -1.
     999900   -1    0    0    0    0 -0.00000000000E+00 -0.00000000000E+00 -0.74505805969E-08  0.93827000000E+00  0.93827000000E+00 0. -1.
     999902    2    1    2    0    0  0.13354117365E-01  0.81873031117E-02  0.15763010406E-01  0.10217075591E+01  0.10214658582E+01 0.  0.
     999903    2    3    3    0    0  0.20035463419E-01  0.91252497783E-01 -0.90131297458E-01  0.13145025281E+00  0.20665914845E-01 0.  0.
         14    1    1    2    0    0 -0.13354117365E-01 -0.81873031117E-02 -0.15763010406E-01  0.22222440908E-01  0.00000000000E+00 0.  1.
     999901    1    3    3    0    0 -0.66813460537E-02 -0.83065194671E-01  0.10589430786E+00  0.89025730628E+00  0.88000000000E+00 0.  1.
        -11    1    4    4    0    0  0.19589558747E-01  0.69706100704E-01 -0.58078862675E-01  0.92822985828E-01  0.51100000000E-03 0.  1.
         11    1    4    4    0    0  0.44590467169E-03  0.21546397079E-01 -0.32052434783E-01  0.38627266982E-01  0.51100000000E-03 0. -1.
</event>
<event>
 8    1  0.1197213E+005  0.1043930E+01  0.7957747E-01            NaN
         13   -1    0    0    0    0  0.00000000000E+00  0.00000000000E+00  0.74505805969E-08  0.10566000000E+00  0.10566000000E+00 0.  1.
     999900   -1    0    0    0    0 -0.00000000000E+00 -0.00000000000E+00 -0.74505805969E-08  0.93827000000E+00  0.93827000000E+00 0.  1.
     999902    2    1    2    0    0  0.14727932633E-01  0.16177325198E-01 -0.10067205572E-01  0.10198475068E+01  0.10195631274E+01 0.  0.
     999903    2    3    3    0    0 -0.74947266317E-01  0.14635875546E-01 -0.10371999100E+00  0.13034491458E+00  0.20016459270E-01 0.  0.
         14    1    1    2    0    0 -0.14727932633E-01 -0.16177325198E-01  0.10067205572E-01  0.24082493190E-01  0.00000000000E+00 0. -1.
     999901    1    3    3    0    0  0.89675198950E-01  0.15414496528E-02  0.93652785426E-01  0.88950259223E+00  0.88000000000E+00 0.  1.
        -11    1    4    4    0    0 -0.35515151151E-01  0.12622054341E-01 -0.37023434100E-01  0.52835953768E-01  0.51100000000E-03 0.  1.
         11    1    4    4    0    0 -0.39432115166E-01  0.20138212042E-02 -0.66696556898E-01  0.77508960807E-01  0.51100000000E-03 0. -1.
</event>
<event>
 8    1  0.1197213E+005  0.1043930E+01  0.7957747E-01            NaN
         13   -1    0    0    0    0  0.00000000000E+00  0.00000000000E+00  0.74505805969E-08  0.10566000000E+00  0.10566000000E+00 0.  1.
     999900   -1    0    0    0    0 -0.00000000000E+00 -0.00000000000E+00 -0.74505805969E-08  0.93827000000E+00  0.93827000000E+00 0. -1.
     999902    2    1    2    0    0  0.11433234484E-01 -0.36328411400E-02 -0.19900195971E-01  0.10206935161E+01  0.10204289880E+01 0.  0.
     999903    2    3    3    0    0  0.67347370509E-01  0.97859387985E-01  0.49912670725E-01  0.13035599607E+00  0.19730252920E-01 0.  0.
         14    1    1    2    0    0 -0.11433234484E-01  0.36328411400E-02  0.19900195971E-01  0.23236483925E-01  0.00000000000E+00 0.  1.
     999901    1    3    3    0    0 -0.55914136025E-01 -0.10149222912E+00 -0.69812866695E-01  0.89033752001E+00  0.88000000000E+00 0.  1.
        -11    1    4    4    0    0  0.27732089823E-01  0.36066616213E-01  0.92034432133E-02  0.46420190639E-01  0.51100000000E-03 0. -1.
         11    1    4    4    0    0  0.39615280686E-01  0.61792771772E-01  0.40709227512E-01  0.83935805427E-01  0.51100000000E-03 0.  1.
</event>
<event>
 8    1  0.1197213E+005  0.1043930E+01  0.7957747E-01            NaN
         13   -1    0    0    0    0  0.00000000000E+00  0.00000000000E+00  0.74505805969E-08  0.10566000000E+00  0.10566000000E+00 0.  1.
     999900   -1    0    0    0    0 -0.00000000000E+00 -0.00000000000E+00 -0.74505805969E-08  0.93827000000E+00  0.93827000000E+00 0. -1.
     999902    2    1    2    0    0  0.63708580513E-02 -0.21579239709E-01 -0.64469753629E-02  0.10205245538E+01  0.10202561198E+01 0.  0.
     999903    2    3    3    0    0 -0.68453811863E-01  0.10588046177E+00  0.10242796253E-01  0.12804303851E+00  0.19837043407E-01 0.  0.
         14    1    1    2    0    0 -0.63708580513E-02  0.21579239709E-01  0.64469753629E-02  0.23405446163E-01  0.00000000000E+00 0.  1.
     999901    1    3    3    0    0  0.74824669914E-01 -0.12745970148E+00 -0.16689771616E-01  0.89248151533E+00  0.88000000000E+00 0. -1.
        -11    1    4    4    0    0 -0.45406019350E-01  0.55758113270E-01  0.11695359379E-01  0.72854075662E-01  0.51100000000E-03 0. -1.
         11    1    4    4    0    0 -0.23047792513E-01  0.50122348504E-01 -0.14525631263E-02  0.55188962845E-01  0.51100000000E-03 0.  1.
</event>
<event>
 8    1  0.1197213E+005  0.1043930E+01  0.7957747E-01            NaN
         13   -1    0    0    0    0  0.00000000000E+00  0.00000000000E+00  0.74505805969E-08  0.10566000000E+00  0.10566000000E+00 0. -1.
     999900   -1    0    0    0    0 -0.00000000000E+00 -0.00000000000E+00 -0.74505805969E-08  0.93827000000E+00  0.93827000000E+00 0.  1.
     999902    2    1    2    0    0 -0.85211001952E-02  0.13661881518E-01  0.18133383120E-01  0.10196797270E+01  0.10193913233E+01 0.  0.
     999903    2    3    3    0    0  0.29346046899E-01 -0.32417311763E-01 -0.11781641715E+00  0.12724510138E+00  0.19963344065E-01 0.  0.
         14    1    1    2    0    0  0.85211001952E-02 -0.13661881518E-01 -0.18133383120E-01  0.24250272958E-01  0.00000000000E+00 0.  1.
     999901    1    3    3    0    0 -0.37867147094E-01  0.46079193281E-01  0.13594980027E+00  0.89243462566E+00  0.88000000000E+00 0. -1.
        -11    1    4    4    0    0  0.15655980065E-01 -0.25838602292E-01 -0.96106565154E-01  0.10074460813E+00  0.51100000000E-03 0. -1.
         11    1    4    4    0    0  0.13690066834E-01 -0.65787094702E-02 -0.21709851993E-01  0.26500493255E-01  0.51100000000E-03 0.  1.
</event>
<event>
 8    1  0.1197213E+005  0.1043930E+01  0.7957747E-01            NaN
         13   -1    0    0    0    0  0.00000000000E+00  0.00000000000E+00  0.74505805969E-08  0.10566000000E+00  0.10566000000E+00 0. -1.
     999900   -1    0    0    0    0 -0.00000000000E+00 -0.00000000000E+00 -0.74505805969E-08  0.93827000000E+00  0.93827000000E+00 0.  1.
     999902    2    1    2    0    0  0.97747761228E-02  0.17115103021E-01 -0.13059317621E-01  0.10202864221E+01  0.10200124334E+01 0.  0.
     999903    2    3    3    0    0 -0.89743259796E-02  0.13023751797E+00  0.71274885363E-02  0.13261772447E+00  0.22233086537E-01 0.  0.
         14    1    1    2    0    0 -0.97747761228E-02 -0.17115103021E-01  0.13059317621E-01  0.23643577910E-01  0.00000000000E+00 0. -1.
     999901    1    3    3    0    0  0.18749102102E-01 -0.11312241495E+00 -0.20186806157E-01  0.88766869762E+00  0.88000000000E+00 0.  1.
        -11    1    4    4    0    0  0.40079190869E-02  0.56549183396E-01  0.10756929665E-01  0.57704819686E-01  0.51100000000E-03 0.  1.
         11    1    4    4    0    0 -0.12982245067E-01  0.73688334573E-01 -0.36294411291E-02  0.74912904783E-01  0.51100000000E-03 0. -1.
</event>
<event>
 8    1  0.1197213E+005  0.1043930E+01  0.7957747E-01            NaN
         13   -1    0    0    0    0  0.00000000000E+00  0.00000000000E+00  0.74505805969E-08  0.10566000000E+00  0.10566000000E+00 0.  1.
     999900   -1    0    0    0    0 -0.00000000000E+00 -0.00000000000E+00 -0.74505805969E-08  0.93827000000E+00  0.93827000000E+00 0.  1.
     999902    2    1    2    0    0  0.15545765220E-01 -0.13756685144E-03 -0.86564196647E-02  0.10261360869E+01  0.10259817959E+01 0.  0.
     999903    2    3    3    0    0  0.38797055939E-01 -0.62592426325E-01 -0.11399269154E+00  0.13735210746E+00  0.21171781108E-01 0.  0.
         14    1    1    2    0    0 -0.15545765220E-01  0.13756685144E-03  0.86564196647E-02  0.17793913070E-01  0.00000000000E+00 0.  1.
     999901    1    3    3    0    0 -0.23251290719E-01  0.62454859473E-01  0.10533627188E+00  0.88878397947E+00  0.88000000000E+00 0. -1.
        -11    1    4    4    0    0  0.22401715960E-01 -0.31254412444E-01 -0.40840627110E-01  0.56097175677E-01  0.51100000000E-03 0.  1.
         11    1    4    4    0    0  0.16395339980E-01 -0.31338013880E-01 -0.73152064434E-01  0.81254931782E-01  0.51100000000E-03 0. -1.
</event>
<event>
 8    1  0.1197213E+005  0.1043930E+01  0.7957747E-01            NaN
         13   -1    0    0    0    0  0.00000000000E+00  0.00000000000E+00  0.74505805969E-08  0.10566000000E+00  0.10566000000E+00 0.  1.
     999900   -1    0    0    0    0 -0.00000000000E+00 -0.00000000000E+00 -0.74505805969E-08  0.93827000000E+00  0.93827000000E+00 0. -1.
     999902    2    1    2    0    0 -0.10663175912E-01  0.28187293215E-02 -0.21281205533E-01  0.10199604722E+01  0.10196787860E+01 0.  0.
     999903    2    3    3    0    0  0.16882408294E-02 -0.10973690712E-01  0.12550448229E+00  0.12761030183E+00  0.20242085239E-01 0.  0.
         14    1    1    2    0    0  0.10663175912E-01 -0.28187293215E-02  0.21281205533E-01  0.23969527831E-01  0.00000000000E+00 0.  1.
     999901    1    3    3    0    0 -0.12351416742E-01  0.13792420033E-01 -0.14678568782E+00  0.89235017033E+00  0.88000000000E+00 0. -1.
        -11    1    4    4    0    0  0.85985143108E-02 -0.13226059050E-01  0.88135042640E-01  0.89537198685E-01  0.51100000000E-03 0. -1.
         11    1    4    4    0    0 -0.69102734814E-02  0.22523683379E-02  0.37369439649E-01  0.38073103149E-01  0.51100000000E-03 0.  1.
</event>
<event>
 8    1  0.1197213E+005  0.1043930E+01  0.7957747E-01            NaN
         13   -1    0    0    0    0  0.00000000000E+00  0.00000000000E+00  0.74505805969E-08  0.10566000000E+00  0.10566000000E+00 0. -1.
     999900   -1    0    0    0    0 -0.00000000000E+00 -0.00000000000E+00 -0.74505805969E-08  0.93827000000E+00  0.93827000000E+00 0. -1.
     999902    2    1    2    0    0 -0.18015858937E-01 -0.13706340740E-01 -0.87007889788E-02  0.10196784294E+01  0.10193899944E+01 0.  0.
     999903    2    3    3    0    0  0.81532274504E-01  0.48853624593E-01 -0.83690580451E-01  0.12869748177E+00  0.22907207100E-01 0.  0.
         14    1    1    2    0    0  0.18015858937E-01  0.13706340740E-01  0.87007889788E-02  0.24251570642E-01  0.00000000000E+00 0. -1.
     999901    1    3    3    0    0 -0.99548133441E-01 -0.62559965333E-01  0.74989791472E-01  0.89098094758E+00  0.88000000000E+00 0. -1.
        -11    1    4    4    0    0  0.72240314098E-01  0.33320413451E-01 -0.65784993782E-01  0.10323196918E+00  0.51100000000E-03 0.  1.
         11    1    4    4    0    0  0.92919604054E-02  0.15533211142E-01 -0.17905586668E-01  0.25465512590E-01  0.51100000000E-03 0. -1.
</event>
<event>
 8    1  0.1197213E+005  0.1043930E+01  0.7957747E-01            NaN
         13   -1    0    0    0    0  0.00000000000E+00  0.00000000000E+00  0.74505805969E-08  0.10566000000E+00  0.10566000000E+00 0. -1.
     999900   -1    0    0    0    0 -0.00000000000E+00 -0.00000000000E+00 -0.74505805969E-08  0.93827000000E+00  0.93827000000E+00 0. -1.
     999902    2    1    2    0    0  0.17548327200E-01  0.36154154331E-02  0.12106742434E-01  0.10223062115E+01  0.10220774931E+01 0.  0.
     999903    2    3    3    0    0 -0.31500091250E-01  0.95326901455E-01 -0.82212201262E-01  0.13117613842E+00  0.19205711800E-01 0.  0.
         14    1    1    2    0    0 -0.17548327200E-01 -0.36154154331E-02 -0.12106742434E-01  0.21623788489E-01  0.00000000000E+00 0.  1.
     999901    1    3    3    0    0  0.49048418450E-01 -0.91711486022E-01  0.94318943695E-01  0.89113007309E+00  0.88000000000E+00 0.  1.
        -11    1    4    4    0    0 -0.15741786387E-01  0.60451047138E-01 -0.61477853054E-01  0.87646565682E-01  0.51100000000E-03 0. -1.
         11    1    4    4    0    0 -0.15758304863E-01  0.34875854316E-01 -0.20734348208E-01  0.43529572741E-01  0.51100000000E-03 0.  1.
</event>
<event>
 8    1  0.1197213E+005  0.1043930E+01  0.7957747E-01            NaN
         13   -1    0    0    0    0  0.00000000000E+00  0.00000000000E+00  0.74505805969E-08  0.10566000000E+00  0.10566000000E+00 0. -1.
     999900   -1    0    0    0    0 -0.00000000000E+00 -0.00000000000E+00 -0.74505805969E-08  0.93827000000E+00  0.93827000000E+00 0. -1.
     999902    2    1    2    0    0 -0.15105606504E-01 -0.13962092246E-01  0.90055336942E-02  0.10214751786E+01  0.10212283395E+01 0.  0.
     999903    2    3    3    0    0  0.47050484597E-01 -0.10231942446E+00 -0.65031837691E-01  0.13178313626E+00  0.21322344264E-01 0.  0.
         14    1    1    2    0    0  0.15105606504E-01  0.13962092246E-01 -0.90055336942E-02  0.22454821417E-01  0.00000000000E+00 0.  1.
     999901    1    3    3    0    0 -0.62156091102E-01  0.88357332216E-01  0.74037371385E-01  0.88969204233E+00  0.88000000000E+00 0.  1.
        -11    1    4    4    0    0  0.11750270927E-01 -0.31680036300E-01 -0.90519217712E-02  0.34984167499E-01  0.51100000000E-03 0. -1.
         11    1    4    4    0    0  0.35300213670E-01 -0.70639388162E-01 -0.55979915920E-01  0.96798968757E-01  0.51100000000E-03 0.  1.
</event>
<event>
 8    1  0.1197213E+005  0.1043930E+01  0.7957747E-01            NaN
         13   -1    0    0    0    0  0.00000000000E+00  0.00000000000E+00  0.74505805969E-08  0.10566000000E+00  0.10566000000E+00 0. -1.
     999900   -1    0    0    0    0 -0.00000000000E+00 -0.00000000000E+00 -0.74505805969E-08  0.93827000000E+00  0.93827000000E+00 0. -1.
     999902    2    1    2    0    0  0.12735783912E-01 -0.16327269208E-01 -0.10400584137E-01  0.10207577739E+01  0.10204947236E+01 0.  0.
     999903    2    3    3    0    0 -0.79444133157E-01  0.94229461235E-01 -0.30950163823E-01  0.12882604279E+00  0.21158331727E-01 0.  0.
         14    1    1    2    0    0 -0.12735783912E-01  0.16327269208E-01  0.10400584137E-01  0.23172226092E-01  0.00000000000E+00 0.  1.
     999901    1    3    3    0    0  0.92179917070E-01 -0.11055673044E+00  0.20549579686E-01  0.89193173112E+00  0.88000000000E+00 0.  1.
        -11    1    4    4    0    0 -0.29045920671E-01  0.27772831761E-01 -0.99350351068E-03  0.40202535516E-01  0.51100000000E-03 0.  1.
         11    1    4    4    0    0 -0.50398212486E-01  0.66456629474E-01 -0.29956660312E-01  0.88623507271E-01  0.51100000000E-03 0. -1.
</event>
<event>
 8    1  0.1197213E+005  0.1043930E+01  0.7957747E-01            NaN
         13   -1    0    0    0    0  0.00000000000E+00  0.00000000000E+00  0.74505805969E-08  0.10566000000E+00  0.10566000000E+00 0. -1.
     999900   -1    0    0    0    0 -0.00000000000E+00 -0.00000000000E+00 -0.74505805969E-08  0.93827000000E+00  0.93827000000E+00 0. -1.
     999902    2    1    2    0    0  0.42843745553E-02  0.22738312464E-01 -0.43712693415E-02  0.10203822885E+01  0.10201105431E+01 0.  0.
     999903    2    3    3    0    0 -0.27243827626E-01  0.12245711641E+00  0.39517960724E-01  0.13310322765E+00  0.20416377937E-01 0.  0.
         14    1    1    2    0    0 -0.42843745553E-02 -0.22738312464E-01  0.43712693415E-02  0.23547711453E-01  0.00000000000E+00 0. -1.
     999901    1    3    3    0    0  0.31528202181E-01 -0.99718803944E-01 -0.43889230066E-01  0.88727906090E+00  0.88000000000E+00 0. -1.
        -11    1    4    4    0    0 -0.15059007550E-01  0.64806588468E-01  0.10289123550E-01  0.67326033611E-01  0.51100000000E-03 0. -1.
         11    1    4    4    0    0 -0.12184820076E-01  0.57650527939E-01  0.29228837174E-01  0.65777194038E-01  0.51100000000E-03 0.  1.
</event>
<event>
 8    1  0.1197213E+005  0.1043930E+01  0.7957747E-01            NaN
         13   -1    0    0    0    0  0.00000000000E+00  0.00000000000E+00  0.74505805969E-08  0.10566000000E+00  0.10566000000E+00 0.  1.
     999900   -1    0    0    0    0 -0.00000000000E+00 -0.00000000000E+00 -0.74505805969E-08  0.93827000000E+00  0.93827000000E+00 0. -1.
     999902    2    1    2    0    0 -0.10633012285E-01 -0.14767979090E-01 -0.13317094676E-01  0.10213800739E+01  0.10211311161E+01 0.  0.
     999903    2    3    3    0    0  0.36075870576E-01 -0.63796784338E-01 -0.10977228762E+00  0.13352358339E+00  0.20176572169E-01 0.  0.
         14    1    1    2    0    0  0.10633012285E-01  0.14767979090E-01  0.13317094676E-01  0.22549926103E-01  0.00000000000E+00 0. -1.
     999901    1    3    3    0    0 -0.46708882860E-01  0.49028805248E-01  0.96455192940E-01  0.88785649050E+00  0.88000000000E+00 0.  1.
        -11    1    4    4    0    0  0.20321683203E-01 -0.16741264731E-01 -0.40548304367E-01  0.48349424619E-01  0.51100000000E-03 0.  1.
         11    1    4    4    0    0  0.15754187373E-01 -0.47055519606E-01 -0.69223983249E-01  0.85174158775E-01  0.51100000000E-03 0. -1.
</event>
<event>
 8    1  0.1197213E+005  0.1043930E+01  0.7957747E-01            NaN
         13   -1    0    0    0    0  0.00000000000E+00  0.00000000000E+00  0.74505805969E-08  0.10566000000E+00  0.10566000000E+00 0. -1.
     999900   -1    0    0    0    0 -0.00000000000E+00 -0.00000000000E+00 -0.74505805969E-08  0.93827000000E+00  0.93827000000E+00 0.  1.
     999902    2    1    2    0    0 -0.20375393624E-01  0.86551733608E-02  0.81367566782E-02  0.10203445066E+01  0.10200718781E+01 0.  0.
     999903    2    3    3    0    0 -0.20597669530E-02 -0.11418581592E+00  0.59291037394E-01  0.13015231874E+00  0.19533452372E-01 0.  0.
         14    1    1    2    0    0  0.20375393624E-01 -0.86551733608E-02 -0.81367566782E-02  0.23585493433E-01  0.00000000000E+00 0. -1.
     999901    1    3    3    0    0 -0.18315626671E-01  0.12284098928E+00 -0.51154280716E-01  0.89019218782E+00  0.88000000000E+00 0. -1.
        -11    1    4    4    0    0  0.26361786953E-02 -0.79132668996E-01  0.49777098475E-01  0.93525127073E-01  0.51100000000E-03 0. -1.
         11    1    4    4    0    0 -0.46959456483E-02 -0.35053146924E-01  0.95139389197E-02  0.36627191670E-01  0.51100000000E-03 0.  1.
</event>
<event>
 8    1  0.1197213E+005  0.1043930E+01  0.7957747E-01            NaN
         13   -1    0    0    0    0  0.00000000000E+00  0.00000000000E+00  0.74505805969E-08  0.10566000000E+00  0.10566000000E+00 0. -1.
     999900   -1    0    0    0    0 -0.00000000000E+00 -0.00000000000E+00 -0.74505805969E-08  0.93827000000E+00  0.93827000000E+00 0. -1.
     999902    2    1    2    0    0 -0.20513822138E-01  0.28324829063E-02  0.12118602837E-01  0.10199362426E+01  0.10196539799E+01 0.  0.
     999903    2    3    3    0    0  0.88960718507E-01 -0.75495027126E-01 -0.48221360875E-01  0.12765781910E+00  0.18913238062E-01 0.  0.
         14    1    1    2    0    0  0.20513822138E-01 -0.28324829063E-02 -0.12118602837E-01  0.23993757373E-01  0.00000000000E+00 0.  1.
     999901    1    3    3    0    0 -0.10947454065E+00  0.78327510032E-01  0.60339963712E-01  0.89227842353E+00  0.88000000000E+00 0.  1.
        -11    1    4    4    0    0  0.83904648009E-01 -0.64817801195E-01 -0.40310556471E-01  0.11343076916E+00  0.51100000000E-03 0.  1.
         11    1    4    4    0    0  0.50560704973E-02 -0.10677225931E-01 -0.79108044036E-02  0.14227049932E-01  0.51100000000E-03 0. -1.
</event>
<event>
 8    1  0.1197213E+005  0.1043930E+01  0.7957747E-01            NaN
         13   -1    0    0    0    0  0.00000000000E+00  0.00000000000E+00  0.74505805969E-08  0.10566000000E+00  0.10566000000E+00 0.  1.
     999900   -1    0    0    0    0 -0.00000000000E+00 -0.00000000000E+00 -0.74505805969E-08  0.93827000000E+00  0.93827000000E+00 0. -1.
     999902    2    1    2    0    0 -0.14094331623E-01 -0.12781242834E-01 -0.13804406315E-01  0.10204231502E+01  0.10201523580E+01 0.  0.
     999903    2    3    3    0    0 -0.10026875265E+00 -0.81288510871E-01  0.24708440539E-01  0.13272809224E+00  0.18563261518E-01 0.  0.
         14    1    1    2    0    0  0.14094331623E-01  0.12781242834E-01  0.13804406315E-01  0.23506849767E-01  0.00000000000E+00 0.  1.
     999901    1    3    3    0    0  0.86174421027E-01  0.68507268036E-01 -0.38512846853E-01  0.88769505799E+00  0.88000000000E+00 0.  1.
        -11    1    4    4    0    0 -0.34076083479E-01 -0.29084971285E-01  0.17563065956E-01  0.48123148553E-01  0.51100000000E-03 0.  1.
         11    1    4    4    0    0 -0.66192669170E-01 -0.52203539585E-01  0.71453745829E-02  0.84604943686E-01  0.51100000000E-03 0. -1.
</event>
<event>
 8    1  0.1197213E+005  0.1043930E+01  0.7957747E-01            NaN
         13   -1    0    0    0    0  0.00000000000E+00  0.00000000000E+00  0.74505805969E-08  0.10566000000E+00  0.10566000000E+00 0. -1.
     999900   -1    0    0    0    0 -0.00000000000E+00 -0.00000000000E+00 -0.74505805969E-08  0.93827000000E+00  0.93827000000E+00 0.  1.
     999902    2    1    2    0    0  0.15723979817E-01  0.47162397754E-02 -0.16691061393E-01  0.10205189345E+01  0.10202503701E+01 0.  0.
     999903    2    3    3    0    0  0.12081433444E+00 -0.13761345944E-01  0.46579661301E-01  0.13181842915E+00  0.20517196845E-01 0.  0.
         14    1    1    2    0    0 -0.15723979817E-01 -0.47162397754E-02  0.16691061393E-01  0.23411065532E-01  0.00000000000E+00 0. -1.
     999901    1    3    3    0    0 -0.10509035463E+00  0.18477585719E-01 -0.63270722694E-01  0.88870050532E+00  0.88000000000E+00 0.  1.
        -11    1    4    4    0    0  0.50362053799E-01 -0.15809153702E-01  0.21669478123E-01  0.57062187189E-01  0.51100000000E-03 0. -1.
         11    1    4    4    0    0  0.70452280644E-01  0.20478077581E-02  0.24910183178E-01  0.74756241957E-01  0.51100000000E-03 0.  1.
</event>
<event>
 8    1  0.1197213E+005  0.1043930E+01  0.7957747E-01            NaN
         13   -1    0    0    0    0  0.00000000000E+00  0.00000000000E+00  0.74505805969E-08  0.10566000000E+00  0.10566000000E+00 0.  1.
     999900   -1    0    0    0    0 -0.00000000000E+00 -0.00000000000E+00 -0.74505805969E-08  0.93827000000E+00  0.93827000000E+00 0. -1.
     999902    2    1    2    0    0 -0.21425380066E-01 -0.35492356267E-02  0.68096678288E-02  0.10211700448E+01  0.10209163751E+01 0.  0.
     999903    2    3    3    0    0 -0.12356553662E+00  0.50924877687E-02 -0.46164407867E-01  0.13363776727E+00  0.20821263563E-01 0.  0.
         14    1    1    2    0    0  0.21425380066E-01  0.35492356267E-02 -0.68096678288E-02  0.22759955194E-01  0.00000000000E+00 0. -1.
     999901    1    3    3    0    0  0.10214015655E+00 -0.86417233954E-02  0.52974075696E-01  0.88753227753E+00  0.88000000000E+00 0. -1.
        -11    1    4    4    0    0 -0.92814760903E-01 -0.45234941173E-02 -0.38004177625E-01  0.10039731310E+00  0.51100000000E-03 0.  1.
         11    1    4    4    0    0 -0.30750775718E-01  0.96159818860E-02 -0.81602302427E-02  0.33240454171E-01  0.51100000000E-03 0. -1.
</event>
<event>
 8    1  0.1197213E+005  0.1043930E+01  0.7957747E-01            NaN
         13   -1    0    0    0    0  0.00000000000E+00  0.00000000000E+00  0.74505805969E-08  0.10566000000E+00  0.10566000000E+00 0. -1.
     999900   -1    0    0    0    0 -0.00000000000E+00 -0.00000000000E+00 -0.74505805969E-08  0.93827000000E+00  0.93827000000E+00 0. -1.
     999902    2    1    2    0    0  0.12800815074E-01 -0.13429950547E-01  0.15426432754E-01  0.10198011943E+01  0.10195157069E+01 0.  0.
     999903    2    3    3    0    0  0.98095951647E-01 -0.86457635559E-01 -0.72427907580E-02  0.13237672042E+00  0.19323550789E-01 0.  0.
         14    1    1    2    0    0 -0.12800815074E-01  0.13429950547E-01 -0.15426432754E-01  0.24128805726E-01  0.00000000000E+00 0. -1.
     999901    1    3    3    0    0 -0.85295136573E-01  0.73027685012E-01  0.22669223512E-01  0.88742447385E+00  0.88000000000E+00 0.  1.
        -11    1    4    4    0    0  0.38068125073E-01 -0.27615198798E-01  0.55142736652E-02  0.47354510728E-01  0.51100000000E-03 0.  1.
         11    1    4    4    0    0  0.60027826574E-01 -0.58842436761E-01 -0.12757064423E-01  0.85022209692E-01  0.51100000000E-03 0. -1.
</event>
<event>
 8    1  0.1197213E+005  0.1043930E+01  0.7957747E-01            NaN
         13   -1    0    0    0    0  0.00000000000E+00  0.00000000000E+00  0.74505805969E-08  0.10566000000E+00  0.10566000000E+00 0. -1.
     999900   -1    0    0    0    0 -0.00000000000E+00 -0.00000000000E+00 -0.74505805969E-08  0.93827000000E+00  0.93827000000E+00 0. -1.
     999902    2    1    2    0    0  0.53108142890E-02  0.17569350124E-01 -0.15855537239E-01  0.10196754154E+01  0.10193869079E+01 0.  0.
     999903    2    3    3    0    0 -0.10039999021E+00  0.80616494131E-01 -0.14745739556E-01  0.13110862096E+00  0.19820607848E-01 0.  0.
         14    1    1    2    0    0 -0.53108142890E-02 -0.17569350124E-01  0.15855537239E-01  0.24254584584E-01  0.00000000000E+00 0. -1.
     999901    1    3    3    0    0  0.10571080450E+00 -0.63047144006E-01 -0.11097976832E-02  0.88856679445E+00  0.88000000000E+00 0. -1.
        -11    1    4    4    0    0 -0.31734576741E-01  0.37020603574E-01 -0.22357940815E-02  0.48814632500E-01  0.51100000000E-03 0.  1.
         11    1    4    4    0    0 -0.68665413469E-01  0.43595890557E-01 -0.12509945474E-01  0.82293988462E-01  0.51100000000E-03 0. -1.
</event>
<event>
 8    1  0.1197213E+005  0.1043930E+01  0.7957747E-01            NaN
         13   -1    0    0    0    0  0.00000000000E+00  0.00000000000E+00  0.74505805969E-08  0.10566000000E+00  0.10566000000E+00 0.  1.
     999900   -1    0    0    0    0 -0.00000000000E+00 -0.00000000000E+00 -0.74505805969E-08  0.93827000000E+00  0.93827000000E+00 0. -1.
     999902    2    1    2    0    0  0.56519142738E-02  0.70794428408E-02 -0.22185873156E-01  0.10199659516E+01  0.10196843957E+01 0.  0.
     999903    2    3    3    0    0  0.12266743774E+00 -0.14303802102E-01 -0.40911425535E-01  0.13176522984E+00  0.20890955445E-01 0.  0.
         14    1    1    2    0    0 -0.56519142738E-02 -0.70794428408E-02  0.22185873156E-01  0.23964048355E-01  0.00000000000E+00 0.  1.
     999901    1    3    3    0    0 -0.11701552347E+00  0.21383244943E-01  0.18725552379E-01  0.88820072180E+00  0.88000000000E+00 0.  1.
        -11    1    4    4    0    0  0.54162304315E-01 -0.24920199550E-02 -0.28121389722E-01  0.61080594734E-01  0.51100000000E-03 0. -1.
         11    1    4    4    0    0  0.68505133428E-01 -0.11811782147E-01 -0.12790035813E-01  0.70684635109E-01  0.51100000000E-03 0.  1.
</event>
<event>
 8    1  0.1197213E+005  0.1043930E+01  0.7957747E-01            NaN
         13   -1    0    0    0    0  0.00000000000E+00  0.00000000000E+00  0.74505805969E-08  0.10566000000E+00  0.10566000000E+00 0.  1.
     999900   -1    0    0    0    0 -0.00000000000E+00 -0.00000000000E+00 -0.74505805969E-08  0.93827000000E+00  0.93827000000E+00 0.  1.
     999902    2    1    2    0    0 -0.96665257952E-02  0.16235218908E-01  0.13112136974E-01  0.10209310394E+01  0.10206719527E+01 0.  0.
     999903    2    3    3    0    0  0.58603645657E-01 -0.47105682381E-01 -0.10237021158E+00  0.12851350317E+00  0.19563427161E-01 0.  0.
         14    1    1    2    0    0  0.96665257952E-02 -0.16235218908E-01 -0.13112136974E-01  0.22998960628E-01  0.00000000000E+00 0. -1.
     999901    1    3    3    0    0 -0.68270171453E-01  0.63340901288E-01  0.11548234855E+00  0.89241753620E+00  0.88000000000E+00 0. -1.
        -11    1    4    4    0    0  0.28155603571E-01 -0.25126913337E-01 -0.35468761554E-01  0.51791832884E-01  0.51100000000E-03 0. -1.
         11    1    4    4    0    0  0.30448042087E-01 -0.21978769044E-01 -0.66901450026E-01  0.76721670291E-01  0.51100000000E-03 0.  1.
</event>
<event>
 8    1  0.1197213E+005  0.1043930E+01  0.7957747E-01            NaN
         13   -1    0    0    0    0  0.00000000000E+00  0.00000000000E+00  0.74505805969E-08  0.10566000000E+00  0.10566000000E+00 0.  1.
     999900   -1    0    0    0    0 -0.00000000000E+00 -0.00000000000E+00 -0.74505805969E-08  0.93827000000E+00  0.93827000000E+00 0.  1.
     999902    2    1    2    0    0  0.12154360702E-01 -0.33376771888E-02 -0.20481171702E-01  0.10198811546E+01  0.10195975787E+01 0.  0.
     999903    2    3    3    0    0 -0.11580450023E+00  0.19929587941E-01 -0.51410850324E-01  0.12978482227E+00  0.19828106599E-01 0.  0.
         14    1    1    2    0    0 -0.12154360702E-01  0.33376771888E-02  0.20481171702E-01  0.24048845448E-01  0.00000000000E+00 0.  1.
     999901    1    3    3    0    0  0.12795886094E+00 -0.23267265129E-01  0.30929678622E-01  0.89009633228E+00  0.88000000000E+00 0. -1.
        -11    1    4    4    0    0 -0.71571292598E-01  0.56503729395E-02 -0.23395522171E-01  0.75511510495E-01  0.51100000000E-03 0.  1.
         11    1    4    4    0    0 -0.44233207636E-01  0.14279215001E-01 -0.28015328153E-01  0.54273311777E-01  0.51100000000E-03 0. -1.
</event>
<event>
 8    1  0.1197213E+005  0.1043930E+01  0.7957747E-01            NaN
         13   -1    0    0    0    0  0.00000000000E+00  0.00000000000E+00  0.74505805969E-08  0.10566000000E+00  0.10566000000E+00 0. -1.
     999900   -1    0    0    0    0 -0.00000000000E+00 -0.00000000000E+00 -0.74505805969E-08  0.93827000000E+00  0.93827000000E+00 0.  1.
     999902    2    1    2    0    0 -0.80817080937E-02  0.21765156183E-01  0.34627180410E-02  0.10204560475E+01  0.10201860215E+01 0.  0.
     999903    2    3    3    0    0 -0.87835957813E-01  0.96362144446E-01  0.20596662289E-01  0.13354059322E+00  0.20200227064E-01 0.  0.
         14    1    1    2    0    0  0.80817080937E-02 -0.21765156183E-01 -0.34627180410E-02  0.23473952493E-01  0.00000000000E+00 0.  1.
     999901    1    3    3    0    0  0.79754249719E-01 -0.74596988262E-01 -0.17133944248E-01  0.88691545429E+00  0.88000000000E+00 0.  1.
        -11    1    4    4    0    0 -0.89970998306E-02  0.51207962027E-02 -0.27331528642E-02  0.10719216608E-01  0.51100000000E-03 0.  1.
         11    1    4    4    0    0 -0.78838857982E-01  0.91241348243E-01  0.23329815153E-01  0.12282137661E+00  0.51100000000E-03 0. -1.
</event>
<event>
 8    1  0.1197213E+005  0.1043930E+01  0.7957747E-01            NaN
         13   -1    0    0    0    0  0.00000000000E+00  0.00000000000E+00  0.74505805969E-08  0.10566000000E+00  0.10566000000E+00 0.  1.
     999900   -1    0    0    0    0 -0.00000000000E+00 -0.00000000000E+00 -0.74505805969E-08  0.93827000000E+00  0.93827000000E+00 0.  1.
     999902    2    1    2    0    0  0.70413744547E-02 -0.20486059637E-02 -0.29787689627E-01  0.10132529044E+01  0.10127884103E+01 0.  0.
     999903    2    3    3    0    0 -0.19437294412E-01 -0.93678172747E-01 -0.80617442203E-01  0.12664094805E+00  0.19630315128E-01 0.  0.
         14    1    1    2    0    0 -0.70413744547E-02  0.20486059637E-02  0.29787689627E-01  0.30677095591E-01  0.00000000000E+00 0.  1.
     999901    1    3    3    0    0  0.26478668867E-01  0.91629566783E-01  0.50829752576E-01  0.88661195636E+00  0.88000000000E+00 0. -1.
        -11    1    4    4    0    0  0.77455000467E-03 -0.43000450541E-01 -0.32786265295E-01  0.54081780550E-01  0.51100000000E-03 0.  1.
         11    1    4    4    0    0 -0.20211844417E-01 -0.50677722205E-01 -0.47831176908E-01  0.72559167499E-01  0.51100000000E-03 0. -1.
</event>
<event>
 8    1  0.1197213E+005  0.1043930E+01  0.7957747E-01            NaN
         13   -1    0    0    0    0  0.00000000000E+00  0.00000000000E+00  0.74505805969E-08  0.10566000000E+00  0.10566000000E+00 0. -1.
     999900   -1    0    0    0    0 -0.00000000000E+00 -0.00000000000E+00 -0.74505805969E-08  0.93827000000E+00  0.93827000000E+00 0. -1.
     999902    2    1    2    0    0 -0.12900057313E-01 -0.10768688415E-01 -0.14001722748E-01  0.10220570860E+01  0.10218230094E+01 0.  0.
     999903    2    3    3    0    0  0.79689242797E-01 -0.49866514492E-01  0.88022400805E-01  0.13047964104E+00  0.20974961186E-01 0.  0.
         14    1    1    2    0    0  0.12900057313E-01  0.10768688415E-01  0.14001722748E-01  0.21872914044E-01  0.00000000000E+00 0. -1.
     999901    1    3    3    0    0 -0.92589300111E-01  0.39097826077E-01 -0.10202412355E+00  0.89157744492E+00  0.88000000000E+00 0.  1.
        -11    1    4    4    0    0  0.44266293514E-01 -0.39046643279E-01  0.49493503653E-01  0.77032545834E-01  0.51100000000E-03 0. -1.
         11    1    4    4    0    0  0.35422949284E-01 -0.10819871213E-01  0.38528897152E-01  0.53447095204E-01  0.51100000000E-03 0.  1.
</event>
<event>
 8    1  0.1197213E+005  0.1043930E+01  0.7957747E-01            NaN
         13   -1    0    0    0    0  0.00000000000E+00  0.00000000000E+00  0.74505805969E-08  0.10566000000E+00  0.10566000000E+00 0. -1.
     999900   -1    0    0    0    0 -0.00000000000E+00 -0.00000000000E+00 -0.74505805969E-08  0.93827000000E+00  0.93827000000E+00 0. -1.
     999902    2    1    2    0    0  0.13016367540E-01 -0.41108382789E-02  0.19469408563E-01  0.10201522229E+01  0.10198750782E+01 0.  0.
     999903    2    3    3    0    0 -0.10902491199E+00  0.21881048974E-01 -0.59525717515E-01  0.12784628764E+00  0.20884216028E-01 0.  0.
         14    1    1    2    0    0 -0.13016367540E-01  0.41108382789E-02 -0.19469408563E-01  0.23777777126E-01  0.00000000000E+00 0.  1.
     999901    1    3    3    0    0  0.12204127953E+00 -0.25991887252E-01  0.78995126078E-01  0.89230593524E+00  0.88000000000E+00 0.  1.
        -11    1    4    4    0    0 -0.66459253464E-01  0.28920951104E-02 -0.34300052143E-01  0.74846184159E-01  0.51100000000E-03 0. -1.
         11    1    4    4    0    0 -0.42565658524E-01  0.18988953863E-01 -0.25225665372E-01  0.53000103480E-01  0.51100000000E-03 0.  1.
</event>
<event>
 8    1  0.1197213E+005  0.1043930E+01  0.7957747E-01            NaN
         13   -1    0    0    0    0  0.00000000000E+00  0.00000000000E+00  0.74505805969E-08  0.10566000000E+00  0.10566000000E+00 0.  1.
     999900   -1    0    0    0    0 -0.00000000000E+00 -0.00000000000E+00 -0.74505805969E-08  0.93827000000E+00  0.93827000000E+00 0. -1.
     999902    2    1    2    0    0  0.11782393554E-01 -0.83227675387E-02 -0.18106353384E-01  0.10207797670E+01  0.10205172215E+01 0.  0.
     999903    2    3    3    0    0 -0.60412035862E-01 -0.57048416553E-01  0.96690269908E-01  0.12905980574E+00  0.20082062981E-01 0.  0.
         14    1    1    2    0    0 -0.11782393554E-01  0.83227675387E-02  0.18106353384E-01  0.23150233049E-01  0.00000000000E+00 0.  1.
     999901    1    3    3    0    0  0.72194429416E-01  0.48725649014E-01 -0.11479662329E+00  0.89171996122E+00  0.88000000000E+00 0. -1.
        -11    1    4    4    0    0 -0.42111149665E-01 -0.26311653749E-01  0.58355344527E-01  0.76624143747E-01  0.51100000000E-03 0.  1.
         11    1    4    4    0    0 -0.18300886197E-01 -0.30736762803E-01  0.38334925381E-01  0.52435661989E-01  0.51100000000E-03 0. -1.
</event>
<event>
 8    1  0.1197213E+005  0.1043930E+01  0.7957747E-01            NaN
         13   -1    0    0    0    0  0.00000000000E+00  0.00000000000E+00  0.74505805969E-08  0.10566000000E+00  0.10566000000E+00 0.  1.
     999900   -1    0    0    0    0 -0.00000000000E+00 -0.00000000000E+00 -0.74505805969E-08  0.93827000000E+00  0.93827000000E+00 0. -1.
     999902    2    1    2    0    0 -0.22948673441E-01  0.13554919815E-01  0.15618844049E-01  0.10130378367E+01  0.10125667054E+01 0.  0.
     999903    2    3    3    0    0 -0.24871561664E-01  0.11304771509E+00 -0.43974431557E-01  0.12542650717E+00  0.19991938453E-01 0.  0.
         14    1    1    2    0    0  0.22948673441E-01 -0.13554919815E-01 -0.15618844049E-01  0.30892163299E-01  0.00000000000E+00 0. -1.
     999901    1    3    3    0    0  0.19228882229E-02 -0.99492795279E-01  0.59593275606E-01  0.88761132953E+00  0.88000000000E+00 0.  1.
        -11    1    4    4    0    0 -0.13841476714E-01  0.75709906378E-01 -0.38656379867E-01  0.86128701528E-01  0.51100000000E-03 0. -1.
         11    1    4    4    0    0 -0.11030084950E-01  0.37337808715E-01 -0.53180516895E-02  0.39297805644E-01  0.51100000000E-03 0.  1.
</event>
<event>
 8    1  0.1197213E+005  0.1043930E+01  0.7957747E-01            NaN
         13   -1    0    0    0    0  0.00000000000E+00  0.00000000000E+00  0.74505805969E-08  0.10566000000E+00  0.10566000000E+00 0. -1.
     999900   -1    0    0    0    0 -0.00000000000E+00 -0.00000000000E+00 -0.74505805969E-08  0.93827000000E+00  0.93827000000E+00 0.  1.
     999902    2    1    2    0    0 -0.17061895686E-01 -0.69706371568E-02 -0.16908450470E-01  0.10189181275E+01  0.10186110921E+01 0.  0.
     999903    2    3    3    0    0  0.85479063454E-01  0.46379191673E-01  0.78093536977E-01  0.12628929641E+00  0.19816310495E-01 0.  0.
         14    1    1    2    0    0  0.17061895686E-01  0.69706371568E-02  0.16908450470E-01  0.25011872462E-01  0.00000000000E+00 0. -1.
     999901    1    3    3    0    0 -0.10254095914E+00 -0.53349828830E-01 -0.95001987447E-01  0.89262883113E+00  0.88000000000E+00 0.  1.
        -11    1    4    4    0    0  0.22987326853E-01  0.22440839003E-01  0.21648579275E-01  0.38741845034E-01  0.51100000000E-03 0.  1.
         11    1    4    4    0    0  0.62491736600E-01  0.23938352670E-01  0.56444957702E-01  0.87547451378E-01  0.51100000000E-03 0. -1.
</event>
<event>
 8    1  0.1197213E+005  0.1043930E+01  0.7957747E-01            NaN
         13   -1    0    0    0    0  0.00000000000E+00  0.00000000000E+00  0.74505805969E-08  0.10566000000E+00  0.10566000000E+00 0.  1.
     999900   -1    0    0    0    0 -0.00000000000E+00 -0.00000000000E+00 -0.74505805969E-08  0.93827000000E+00  0.93827000000E+00 0. -1.
     999902    2    1    2    0    0 -0.12060539184E-01 -0.92040070853E-02  0.16553612100E-01  0.10214757704E+01  0.10212289445E+01 0.  0.
     999903    2    3    3    0    0 -0.26198430364E-01 -0.10826305940E+00 -0.67269419992E-01  0.13184726565E+00  0.21243323904E-01 0.  0.
         14    1    1    2    0    0  0.12060539184E-01  0.92040070853E-02 -0.16553612100E-01  0.22454229566E-01  0.00000000000E+00 0. -1.
     999901    1    3    3    0    0  0.14137891180E-01  0.99059052311E-01  0.83823032093E-01  0.88962850478E+00  0.88000000000E+00 0.  1.
        -11    1    4    4    0    0 -0.81420708489E-02 -0.36752567591E-01 -0.11451271042E-01  0.39350187696E-01  0.51100000000E-03 0.  1.
         11    1    4    4    0    0 -0.18056359515E-01 -0.71510491805E-01 -0.55818148950E-01  0.92497077956E-01  0.51100000000E-03 0. -1.
</event>
<event>
 8    1  0.1197213E+005  0.1043930E+01  0.7957747E-01            NaN
         13   -1    0    0    0    0  0.00000000000E+00  0.00000000000E+00  0.74505805969E-08  0.10566000000E+00  0.10566000000E+00 0.  1.
     999900   -1    0    0    0    0 -0.00000000000E+00 -0.00000000000E+00 -0.74505805969E-08  0.93827000000E+00  0.93827000000E+00 0. -1.
     999902    2    1    2    0    0 -0.10665044997E-01 -0.19519192864E-01  0.13156602177E-01  0.10180874333E+01  0.10177593937E+01 0.  0.
     999903    2    3    3    0    0 -0.59544325060E-01  0.81072199348E-01  0.77801433811E-01  0.12865684774E+00  0.19526730725E-01 0.  0.
         14    1    1    2    0    0  0.10665044997E-01  0.19519192864E-01 -0.13156602177E-01  0.25842566740E-01  0.00000000000E+00 0.  1.
     999901    1    3    3    0    0  0.48879280063E-01 -0.10059139221E+00 -0.64644831634E-01  0.88943058552E+00  0.88000000000E+00 0. -1.
        -11    1    4    4    0    0 -0.57874041317E-01  0.69138886901E-01  0.71337123732E-01  0.11497319985E+00  0.51100000000E-03 0.  1.
         11    1    4    4    0    0 -0.16702837436E-02  0.11933312447E-01  0.64643100788E-02  0.13683647888E-01  0.51100000000E-03 0. -1.
</event>
<event>
 8    1  0.1197213E+005  0.1043930E+01  0.7957747E-01            NaN
         13   -1    0    0    0    0  0.00000000000E+00  0.00000000000E+00  0.74505805969E-08  0.10566000000E+00  0.10566000000E+00 0. -1.
     999900   -1    0    0    0    0 -0.00000000000E+00 -0.00000000000E+00 -0.74505805969E-08  0.93827000000E+00  0.93827000000E+00 0.  1.
     999902    2    1    2    0    0 -0.23888029082E-01  0.53367275601E-02  0.20073870418E-02  0.10193709243E+01  0.10190750381E+01 0.  0.
     999903    2    3    3    0    0  0.10808924781E+00 -0.23971667606E-01  0.59136640439E-01  0.12721581718E+00  0.20707379346E-01 0.  0.
         14    1    1    2    0    0  0.23888029082E-01 -0.53367275601E-02 -0.20073870418E-02  0.24559075658E-01  0.00000000000E+00 0. -1.
     999901    1    3    3    0    0 -0.13197727689E+00  0.29308395166E-01 -0.57129253397E-01  0.89215510716E+00  0.88000000000E+00 0.  1.
        -11    1    4    4    0    0  0.33896050754E-01 -0.10536119276E-01  0.29652627547E-01  0.46254637687E-01  0.51100000000E-03 0. -1.
         11    1    4    4    0    0  0.74193197051E-01 -0.13435548330E-01  0.29484012892E-01  0.80961179493E-01  0.51100000000E-03 0.  1.
</event>
<event>
 8    1  0.1197213E+005  0.1043930E+01  0.7957747E-01            NaN
         13   -1    0    0    0    0  0.00000000000E+00  0.00000000000E+00  0.74505805969E-08  0.10566000000E+00  0.10566000000E+00 0. -1.
     999900   -1    0    0    0    0 -0.00000000000E+00 -0.00000000000E+00 -0.74505805969E-08  0.93827000000E+00  0.93827000000E+00 0. -1.
     999902    2    1    2    0    0 -0.26964076388E-02  0.22499141727E-01 -0.64964323684E-02  0.10203570149E+01  0.10200846790E+01 0.  0.
     999903    2    3    3    0    0  0.60995188487E-01 -0.10572079362E+00  0.32621736783E-01  0.12792931341E+00  0.20110502152E-01 0.  0.
         14    1    1    2    0    0  0.26964076388E-02 -0.22499141727E-01  0.64964323684E-02  0.23572985092E-01  0.00000000000E+00 0.  1.
     999901    1    3    3    0    0 -0.63691596126E-01  0.12821993535E+00 -0.39118169151E-01  0.89242770150E+00  0.88000000000E+00 0.  1.
        -11    1    4    4    0    0  0.57822333144E-01 -0.87260003460E-01  0.24516339282E-01  0.10751298725E+00  0.51100000000E-03 0.  1.
         11    1    4    4    0    0  0.31728553433E-02 -0.18460790163E-01  0.81053975004E-02  0.20416326166E-01  0.51100000000E-03 0. -1.
</event>
<event>
 8    1  0.1197213E+005  0.1043930E+01  0.7957747E-01            NaN
         13   -1    0    0    0    0  0.00000000000E+00  0.00000000000E+00  0.74505805969E-08  0.10566000000E+00  0.10566000000E+00 0. -1.
     999900   -1    0    0    0    0 -0.00000000000E+00 -0.00000000000E+00 -0.74505805969E-08  0.93827000000E+00  0.93827000000E+00 0.  1.
     999902    2    1    2    0    0  0.52346923775E-02 -0.49735539040E-02  0.21661956606E-01  0.10210962836E+01  0.10208409483E+01 0.  0.
     999903    2    3    3    0    0 -0.81735423900E-01  0.76877546555E-01  0.65990367602E-01  0.13192340284E+00  0.21406048604E-01 0.  0.
         14    1    1    2    0    0 -0.52346923775E-02  0.49735539040E-02 -0.21661956606E-01  0.22833716445E-01  0.00000000000E+00 0.  1.
     999901    1    3    3    0    0  0.86970116278E-01 -0.81851100459E-01 -0.44328410997E-01  0.88917288071E+00  0.88000000000E+00 0.  1.
        -11    1    4    4    0    0 -0.36230436084E-01  0.24685591370E-01  0.16657064183E-01  0.46901405398E-01  0.51100000000E-03 0. -1.
         11    1    4    4    0    0 -0.45504987816E-01  0.52191955185E-01  0.49333303420E-01  0.85021997445E-01  0.51100000000E-03 0.  1.
</event>
<event>
 8    1  0.1197213E+005  0.1043930E+01  0.7957747E-01            NaN
         13   -1    0    0    0    0  0.00000000000E+00  0.00000000000E+00  0.74505805969E-08  0.10566000000E+00  0.10566000000E+00 0.  1.
     999900   -1    0    0    0    0 -0.00000000000E+00 -0.00000000000E+00 -0.74505805969E-08  0.93827000000E+00  0.93827000000E+00 0. -1.
     999902    2    1    2    0    0 -0.16005166266E-01  0.72209100185E-03 -0.16608063460E-01  0.10208537236E+01  0.10205928720E+01 0.  0.
     999903    2    3    3    0    0  0.45974564273E-01 -0.55965543983E-01  0.10433685361E+00  0.12861908630E+00  0.20270364202E-01 0.  0.
         14    1    1    2    0    0  0.16005166266E-01 -0.72209100185E-03  0.16608063460E-01  0.23076276444E-01  0.00000000000E+00 0.  1.
     999901    1    3    3    0    0 -0.61979730539E-01  0.56687634985E-01 -0.12094491707E+00  0.89223463726E+00  0.88000000000E+00 0. -1.
        -11    1    4    4    0    0  0.15221007233E-01 -0.13297415334E-01  0.44953104793E-01  0.49290395284E-01  0.51100000000E-03 0.  1.
         11    1    4    4    0    0  0.30753557040E-01 -0.42668128650E-01  0.59383748820E-01  0.79328691014E-01  0.51100000000E-03 0. -1.
</event>
<event>
 8    1  0.1197213E+005  0.1043930E+01  0.7957747E-01            NaN
         13   -1    0    0    0    0  0.00000000000E+00  0.00000000000E+00  0.74505805969E-08  0.10566000000E+00  0.10566000000E+00 0.  1.
     999900   -1    0    0    0    0 -0.00000000000E+00 -0.00000000000E+00 -0.74505805969E-08  0.93827000000E+00  0.93827000000E+00 0.  1.
     999902    2    1    2    0    0 -0.10650852917E-02 -0.94719585444E-02  0.19790513148E-01  0.10219637346E+01  0.10217276340E+01 0.  0.
     999903    2    3    3    0    0  0.71327119532E-01 -0.21135142228E-01 -0.10483426048E+00  0.13016331108E+00  0.20445370185E-01 0.  0.
         14    1    1    2    0    0  0.10650852917E-02  0.94719585444E-02 -0.19790513148E-01  0.21966265409E-01  0.00000000000E+00 0. -1.
     999901    1    3    3    0    0 -0.72392204824E-01  0.11663183684E-01  0.12462477363E+00  0.89180042351E+00  0.88000000000E+00 0. -1.
        -11    1    4    4    0    0  0.50106291944E-01 -0.80113445279E-02 -0.57775947671E-01  0.76896966025E-01  0.51100000000E-03 0. -1.
         11    1    4    4    0    0  0.21220827588E-01 -0.13123797700E-01 -0.47058312814E-01  0.53266345055E-01  0.51100000000E-03 0.  1.
</event>
<event>
 8    1  0.1197213E+005  0.1043930E+01  0.7957747E-01            NaN
         13   -1    0    0    0    0  0.00000000000E+00  0.00000000000E+00  0.74505805969E-08  0.10566000000E+00  0.10566000000E+00 0.  1.
     999900   -1    0    0    0    0 -0.00000000000E+00 -0.00000000000E+00 -0.74505805969E-08  0.93827000000E+00  0.93827000000E+00 0.  1.
     999902    2    1    2    0    0 -0.17395757778E-01 -0.13047097197E-01 -0.10476734126E-01  0.10197928690E+01  0.10195071822E+01 0.  0.
     999903    2    3    3    0    0  0.70793740539E-02 -0.80097294789E-01 -0.10272672276E+00  0.13209651245E+00  0.20760897436E-01 0.  0.
         14    1    1    2    0    0  0.17395757778E-01  0.13047097197E-01  0.10476734126E-01  0.24137130979E-01  0.00000000000E+00 0. -1.
     999901    1    3    3    0    0 -0.24475131832E-01  0.67050197592E-01  0.92249988630E-01  0.88769635658E+00  0.88000000000E+00 0. -1.
        -11    1    4    4    0    0  0.14481333568E-01 -0.54470641541E-01 -0.70176159198E-01  0.90009523122E-01  0.51100000000E-03 0. -1.
         11    1    4    4    0    0 -0.74019595139E-02 -0.25626653248E-01 -0.32550563558E-01  0.42086989324E-01  0.51100000000E-03 0.  1.
</event>
<event>
 8    1  0.1197213E+005  0.1043930E+01  0.7957747E-01            NaN
         13   -1    0    0    0    0  0.00000000000E+00  0.00000000000E+00  0.74505805969E-08  0.10566000000E+00  0.10566000000E+00 0. -1.
     999900   -1    0    0    0    0 -0.00000000000E+00 -0.00000000000E+00 -0.74505805969E-08  0.93827000000E+00  0.93827000000E+00 0. -1.
     999902    2    1    2    0    0  0.97022363311E-02  0.98445756090E-02  0.19412190512E-01  0.10200997210E+01  0.10198213366E+01 0.  0.
     999903    2    3    3    0    0 -0.34888339502E-01  0.27534474653E-01 -0.11839569327E+00  0.12808387759E+00  0.20312458904E-01 0.  0.
         14    1    1    2    0    0 -0.97022363311E-02 -0.98445756090E-02 -0.19412190512E-01  0.23830279042E-01  0.00000000000E+00 0.  1.
     999901    1    3    3    0    0  0.44590575833E-01 -0.17689899044E-01  0.13780788378E+00  0.89201584336E+00  0.88000000000E+00 0.  1.
        -11    1    4    4    0    0 -0.20974250560E-01  0.11978504326E-01 -0.87660898730E-01  0.90929082474E-01  0.51100000000E-03 0. -1.
         11    1    4    4    0    0 -0.13914088943E-01  0.15555970327E-01 -0.30734794541E-01  0.37154795120E-01  0.51100000000E-03 0.  1.
</event>
<event>
 8    1  0.1197213E+005  0.1043930E+01  0.7957747E-01            NaN
         13   -1    0    0    0    0  0.00000000000E+00  0.00000000000E+00  0.74505805969E-08  0.10566000000E+00  0.10566000000E+00 0.  1.
     999900   -1    0    0    0    0 -0.00000000000E+00 -0.00000000000E+00 -0.74505805969E-08  0.93827000000E+00  0.93827000000E+00 0.  1.
     999902    2    1    2    0    0  0.14125192403E-01  0.18007660934E-01  0.32572340811E-02  0.10208127665E+01  0.10205509775E+01 0.  0.
     999903    2    3    3    0    0  0.18598585068E-02 -0.10908149991E+00  0.67068892877E-01  0.12931177318E+00  0.17918303318E-01 0.  0.
         14    1    1    2    0    0 -0.14125192403E-01 -0.18007660934E-01 -0.32572340811E-02  0.23117233541E-01  0.00000000000E+00 0.  1.
     999901    1    3    3    0    0  0.12265333896E-01  0.12708916085E+00 -0.63811658796E-01  0.89150099328E+00  0.88000000000E+00 0.  1.
        -11    1    4    4    0    0  0.49060768045E-02 -0.22126731427E-01  0.75552263477E-02  0.23895698345E-01  0.51100000000E-03 0. -1.
         11    1    4    4    0    0 -0.30462182978E-02 -0.86954768488E-01  0.59513666529E-01  0.10541607483E+00  0.51100000000E-03 0.  1.
</event>
<event>
 8    1  0.1197213E+005  0.1043930E+01  0.7957747E-01            NaN
         13   -1    0    0    0    0  0.00000000000E+00  0.00000000000E+00  0.74505805969E-08  0.10566000000E+00  0.10566000000E+00 0. -1.
     999900   -1    0    0    0    0 -0.00000000000E+00 -0.00000000000E+00 -0.74505805969E-08  0.93827000000E+00  0.93827000000E+00 0. -1.
     999902    2    1    2    0    0  0.16665667831E-01 -0.14279741021E-01  0.20270183874E-01  0.10140546616E+01  0.10136144834E+01 0.  0.
     999903    2    3    3    0    0 -0.11480109952E+00  0.97732180143E-02 -0.35304367330E-01  0.12223035916E+00  0.20470811074E-01 0.  0.
         14    1    1    2    0    0 -0.16665667831E-01  0.14279741021E-01 -0.20270183874E-01  0.29875338360E-01  0.00000000000E+00 0.  1.
     999901    1    3    3    0    0  0.13146676735E+00 -0.24052959035E-01  0.55574551203E-01  0.89182430248E+00  0.88000000000E+00 0.  1.
        -11    1    4    4    0    0 -0.10587715843E+00  0.13358589225E-01 -0.28561589025E-01  0.11047375286E+00  0.51100000000E-03 0. -1.
         11    1    4    4    0    0 -0.89239410933E-02 -0.35853712111E-02 -0.67427783043E-02  0.11756606297E-01  0.51100000000E-03 0.  1.
</event>
<event>
 8    1  0.1197213E+005  0.1043930E+01  0.7957747E-01            NaN
         13   -1    0    0    0    0  0.00000000000E+00  0.00000000000E+00  0.74505805969E-08  0.10566000000E+00  0.10566000000E+00 0.  1.
     999900   -1    0    0    0    0 -0.00000000000E+00 -0.00000000000E+00 -0.74505805969E-08  0.93827000000E+00  0.93827000000E+00 0.  1.
     999902    2    1    2    0    0  0.16440755835E-01 -0.18337837414E-02 -0.16802747823E-01  0.10203504845E+01  0.10200779959E+01 0.  0.
     999903    2    3    3    0    0 -0.74984966037E-04  0.96030108860E-01 -0.88154308642E-01  0.13190174859E+00  0.20127138850E-01 0.  0.
         14    1    1    2    0    0 -0.16440755835E-01  0.18337837414E-02  0.16802747823E-01  0.23579515467E-01  0.00000000000E+00 0. -1.
     999901    1    3    3    0    0  0.16515740802E-01 -0.97863892602E-01  0.71351560819E-01  0.88844873594E+00  0.88000000000E+00 0. -1.
        -11    1    4    4    0    0 -0.74597243293E-02  0.21082292690E-01 -0.15174585280E-01  0.27030347973E-01  0.51100000000E-03 0.  1.
         11    1    4    4    0    0  0.73847393633E-02  0.74947816170E-01 -0.72979723362E-01  0.10487140062E+00  0.51100000000E-03 0. -1.
</event>
<event>
 8    1  0.1197213E+005  0.1043930E+01  0.7957747E-01            NaN
         13   -1    0    0    0    0  0.00000000000E+00  0.00000000000E+00  0.74505805969E-08  0.10566000000E+00  0.10566000000E+00 0.  1.
     999900   -1    0    0    0    0 -0.00000000000E+00 -0.00000000000E+00 -0.74505805969E-08  0.93827000000E+00  0.93827000000E+00 0. -1.
     999902    2    1    2    0    0 -0.21385123408E-01  0.10568135533E-01  0.28532261200E-02  0.10199060559E+01  0.10196230739E+01 0.  0.
     999903    2    3    3    0    0  0.62822592462E-02 -0.97434570654E-01 -0.81617007086E-01  0.12885875696E+00  0.20255395844E-01 0.  0.
         14    1    1    2    0    0  0.21385123408E-01 -0.10568135533E-01 -0.28532261200E-02  0.24023944121E-01  0.00000000000E+00 0. -1.
     999901    1    3    3    0    0 -0.27667382655E-01  0.10800270619E+00  0.84470233206E-01  0.89104729892E+00  0.88000000000E+00 0. -1.
        -11    1    4    4    0    0  0.78826820966E-02 -0.13013085537E-01 -0.14033329362E-01  0.20704408376E-01  0.51100000000E-03 0. -1.
         11    1    4    4    0    0 -0.16004228505E-02 -0.84421485117E-01 -0.67583677724E-01  0.10815434859E+00  0.51100000000E-03 0.  1.
</event>
<event>
 8    1  0.1197213E+005  0.1043930E+01  0.7957747E-01            NaN
         13   -1    0    0    0    0  0.00000000000E+00  0.00000000000E+00  0.74505805969E-08  0.10566000000E+00  0.10566000000E+00 0.  1.
     999900   -1    0    0    0    0 -0.00000000000E+00 -0.00000000000E+00 -0.74505805969E-08  0.93827000000E+00  0.93827000000E+00 0.  1.
     999902    2    1    2    0    0 -0.14692412422E-01  0.10079369329E-01 -0.13967207138E-01  0.10212905754E+01  0.10210396153E+01 0.  0.
     999903    2    3    3    0    0  0.61702912157E-01  0.50427666092E-01 -0.10410964894E+00  0.13247682078E+00  0.19002372604E-01 0.  0.
         14    1    1    2    0    0  0.14692412422E-01 -0.10079369329E-01  0.13967207138E-01  0.22639424553E-01  0.00000000000E+00 0.  1.
     999901    1    3    3    0    0 -0.76395324579E-01 -0.40348296763E-01  0.90142441806E-01  0.88881375467E+00  0.88000000000E+00 0. -1.
        -11    1    4    4    0    0  0.49685971578E-01  0.29506168422E-01 -0.73149983555E-01  0.93222802799E-01  0.51100000000E-03 0. -1.
         11    1    4    4    0    0  0.12016940578E-01  0.20921497670E-01 -0.30959665390E-01  0.39254017982E-01  0.51100000000E-03 0.  1.
</event>
<event>
 8    1  0.1197213E+005  0.1043930E+01  0.7957747E-01            NaN
         13   -1    0    0    0    0  0.00000000000E+00  0.00000000000E+00  0.74505805969E-08  0.10566000000E+00  0.10566000000E+00 0. -1.
     999900   -1    0    0    0    0 -0.00000000000E+00 -0.00000000000E+00 -0.74505805969E-08  0.93827000000E+00  0.93827000000E+00 0.  1.
     999902    2    1    2    0    0  0.22997237180E-01  0.53540785904E-02  0.11520511868E-02  0.10202896468E+01  0.10200157338E+01 0.  0.
     999903    2    3    3    0    0  0.95244516277E-01  0.84856829938E-01  0.33618583557E-01  0.13316258011E+00  0.18162161565E-01 0.  0.
         14    1    1    2    0    0 -0.22997237180E-01 -0.53540785904E-02 -0.11520511868E-02  0.23640353157E-01  0.00000000000E+00 0. -1.
     999901    1    3    3    0    0 -0.72247279097E-01 -0.79502751347E-01 -0.32466532370E-01  0.88712706673E+00  0.88000000000E+00 0.  1.
        -11    1    4    4    0    0  0.72031077448E-01  0.64737763631E-01  0.33376033243E-01  0.10243863956E+00  0.51100000000E-03 0.  1.
         11    1    4    4    0    0  0.23213438829E-01  0.20119066307E-01  0.24255031419E-03  0.30723940551E-01  0.51100000000E-03 0. -1.
</event>
<event>
 8    1  0.1197213E+005  0.1043930E+01  0.7957747E-01            NaN
         13   -1    0    0    0    0  0.00000000000E+00  0.00000000000E+00  0.74505805969E-08  0.10566000000E+00  0.10566000000E+00 0. -1.
     999900   -1    0    0    0    0 -0.00000000000E+00 -0.00000000000E+00 -0.74505805969E-08  0.93827000000E+00  0.93827000000E+00 0.  1.
     999902    2    1    2    0    0 -0.19520958837E-01 -0.29815389033E-02 -0.12202689432E-01  0.10207165764E+01  0.10204525791E+01 0.  0.
     999903    2    3    3    0    0 -0.26799615988E-01  0.94014391243E-01  0.83412720835E-01  0.13020913899E+00  0.20971711932E-01 0.  0.
         14    1    1    2    0    0  0.19520958837E-01  0.29815389033E-02  0.12202689432E-01  0.23213423649E-01  0.00000000000E+00 0. -1.
     999901    1    3    3    0    0  0.72786571517E-02 -0.96995930147E-01 -0.95615410267E-01  0.89050743736E+00  0.88000000000E+00 0.  1.
        -11    1    4    4    0    0 -0.18044213996E-01  0.27556042786E-01  0.28206233547E-01  0.43367982252E-01  0.51100000000E-03 0. -1.
         11    1    4    4    0    0 -0.87554019920E-02  0.66458348458E-01  0.55206487288E-01  0.86841156737E-01  0.51100000000E-03 0.  1.
</event>
<event>
 8    1  0.1197213E+005  0.1043930E+01  0.7957747E-01            NaN
         13   -1    0    0    0    0  0.00000000000E+00  0.00000000000E+00  0.74505805969E-08  0.10566000000E+00  0.10566000000E+00 0.  1.
     999900   -1    0    0    0    0 -0.00000000000E+00 -0.00000000000E+00 -0.74505805969E-08  0.93827000000E+00  0.93827000000E+00 0. -1.
     999902    2    1    2    0    0 -0.18371217362E-01 -0.63051250785E-02 -0.11319351022E-01  0.10214492541E+01  0.10212018384E+01 0.  0.
     999903    2    3    3    0    0  0.30893425577E-01 -0.93249381752E-01 -0.86684613526E-01  0.13259255494E+00  0.20413536254E-01 0.  0.
         14    1    1    2    0    0  0.18371217362E-01  0.63051250785E-02  0.11319351022E-01  0.22480745921E-01  0.00000000000E+00 0.  1.
     999901    1    3    3    0    0 -0.49264642938E-01  0.86944256673E-01  0.75365262504E-01  0.88885669914E+00  0.88000000000E+00 0. -1.
        -11    1    4    4    0    0  0.28422343072E-01 -0.63894415368E-01 -0.68929867071E-01  0.98193246185E-01  0.51100000000E-03 0. -1.
         11    1    4    4    0    0  0.24710825046E-02 -0.29354966384E-01 -0.17754746455E-01  0.34399308755E-01  0.51100000000E-03 0.  1.
</event>
<event>
 8    1  0.1197213E+005  0.1043930E+01  0.7957747E-01            NaN
         13   -1    0    0    0    0  0.00000000000E+00  0.00000000000E+00  0.74505805969E-08  0.10566000000E+00  0.10566000000E+00 0.  1.
     999900   -1    0    0    0    0 -0.00000000000E+00 -0.00000000000E+00 -0.74505805969E-08  0.93827000000E+00  0.93827000000E+00 0. -1.
     999902    2    1    2    0    0  0.12821573428E-01  0.19149517242E-01  0.11806896123E-02  0.10208542382E+01  0.10205933984E+01 0.  0.
     999903    2    3    3    0    0  0.12104412812E+00  0.38979026899E-01 -0.34680181834E-01  0.13327813840E+00  0.19730729131E-01 0.  0.
         14    1    1    2    0    0 -0.12821573428E-01 -0.19149517242E-01 -0.11806896123E-02  0.23075761824E-01  0.00000000000E+00 0.  1.
     999901    1    3    3    0    0 -0.10822255469E+00 -0.19829509656E-01  0.35860871447E-01  0.88757609978E+00  0.88000000000E+00 0.  1.
        -11    1    4    4    0    0  0.70617876817E-01  0.14796606256E-01 -0.13105268436E-01  0.73333711651E-01  0.51100000000E-03 0. -1.
         11    1    4    4    0    0  0.50426251305E-01  0.24182420643E-01 -0.21574913399E-01  0.59944426746E-01  0.51100000000E-03 0.  1.
</event>
<event>
 8    1  0.1197213E+005  0.1043930E+01  0.7957747E-01            NaN
         13   -1    0    0    0    0  0.00000000000E+00  0.00000000000E+00  0.74505805969E-08  0.10566000000E+00  0.10566000000E+00 0.  1.
     999900   -1    0    0    0    0 -0.00000000000E+00 -0.00000000000E+00 -0.74505805969E-08  0.93827000000E+00  0.93827000000E+00 0. -1.
     999902    2    1    2    0    0  0.50928746952E-02  0.11050305293E-01  0.19973667806E-01  0.10205420966E+01  0.10202740695E+01 0.  0.
     999903    2    3    3    0    0  0.70533643547E-01  0.12466466697E-01 -0.10572595064E+00  0.12920327560E+00  0.19624019089E-01 0.  0.
         14    1    1    2    0    0 -0.50928746952E-02 -0.11050305293E-01 -0.19973667806E-01  0.23387903397E-01  0.00000000000E+00 0. -1.
     999901    1    3    3    0    0 -0.65440768852E-01 -0.14161614046E-02  0.12569961844E+00  0.89133882100E+00  0.88000000000E+00 0.  1.
        -11    1    4    4    0    0  0.42938945979E-01  0.95187258501E-02 -0.80322036597E-01  0.91576470273E-01  0.51100000000E-03 0.  1.
         11    1    4    4    0    0  0.27594697568E-01  0.29477408471E-02 -0.25403914039E-01  0.37626805332E-01  0.51100000000E-03 0. -1.
</event>
<event>
 8    1  0.1197213E+005  0.1043930E+01  0.7957747E-01            NaN
         13   -1    0    0    0    0  0.00000000000E+00  0.00000000000E+00  0.74505805969E-08  0.10566000000E+00  0.10566000000E+00 0. -1.
     999900   -1    0    0    0    0 -0.00000000000E+00 -0.00000000000E+00 -0.74505805969E-08  0.93827000000E+00  0.93827000000E+00 0. -1.
     999902    2    1    2    0    0 -0.24282019849E-02 -0.18735741270E-01 -0.13781908331E-01  0.10205448517E+01  0.10202768884E+01 0.  0.
     999903    2    3    3    0    0  0.49838588190E-01  0.11515260140E+00  0.18039418730E-01  0.12831702060E+00  0.19895493597E-01 0.  0.
         14    1    1    2    0    0  0.24282019849E-02  0.18735741270E-01  0.13781908331E-01  0.23385148344E-01  0.00000000000E+00 0. -1.
     999901    1    3    3    0    0 -0.52266790175E-01 -0.13388834267E+00 -0.31821327061E-01  0.89222783106E+00  0.88000000000E+00 0. -1.
        -11    1    4    4    0    0  0.44143054998E-01  0.11226445010E+00  0.17348669893E-01  0.12187351447E+00  0.51100000000E-03 0.  1.
         11    1    4    4    0    0  0.56955331923E-02  0.28881512947E-02  0.69074883634E-03  0.64435061264E-02  0.51100000000E-03 0. -1.
</event>
<event>
 8    1  0.1197213E+005  0.1043930E+01  0.7957747E-01            NaN
         13   -1    0    0    0    0  0.00000000000E+00  0.00000000000E+00  0.74505805969E-08  0.10566000000E+00  0.10566000000E+00 0. -1.
     999900   -1    0    0    0    0 -0.00000000000E+00 -0.00000000000E+00 -0.74505805969E-08  0.93827000000E+00  0.93827000000E+00 0.  1.
     999902    2    1    2    0    0 -0.70730320077E-02 -0.97298970187E-02 -0.20770412642E-01  0.10199277351E+01  0.10196452698E+01 0.  0.
     999903    2    3    3    0    0  0.48314838350E-01 -0.37846888867E-01 -0.11579229211E+00  0.13263548395E+00  0.20435412642E-01 0.  0.
         14    1    1    2    0    0  0.70730320077E-02  0.97298970187E-02  0.20770412642E-01  0.24002264875E-01  0.00000000000E+00 0. -1.
     999901    1    3    3    0    0 -0.55387870357E-01  0.28116991849E-01  0.95021879466E-01  0.88729225117E+00  0.88000000000E+00 0. -1.
        -11    1    4    4    0    0  0.22222172412E-01 -0.21378964383E-01 -0.37962039908E-01  0.48910762208E-01  0.51100000000E-03 0.  1.
         11    1    4    4    0    0  0.26092665938E-01 -0.16467924484E-01 -0.77830252201E-01  0.83724721745E-01  0.51100000000E-03 0. -1.
</event>
<event>
 8    1  0.1197213E+005  0.1043930E+01  0.7957747E-01            NaN
         13   -1    0    0    0    0  0.00000000000E+00  0.00000000000E+00  0.74505805969E-08  0.10566000000E+00  0.10566000000E+00 0.  1.
     999900   -1    0    0    0    0 -0.00000000000E+00 -0.00000000000E+00 -0.74505805969E-08  0.93827000000E+00  0.93827000000E+00 0. -1.
     999902    2    1    2    0    0  0.12616069466E-01 -0.10235257726E-01  0.20118364282E-01  0.10180712628E+01  0.10177428073E+01 0.  0.
     999903    2    3    3    0    0 -0.65141670326E-01  0.47414714190E-01 -0.93995956097E-01  0.12543927619E+00  0.20203462917E-01 0.  0.
         14    1    1    2    0    0 -0.12616069466E-01  0.10235257726E-01 -0.20118364282E-01  0.25858737225E-01  0.00000000000E+00 0. -1.
     999901    1    3    3    0    0  0.77757739792E-01 -0.57649971916E-01  0.11411432038E+00  0.89263198659E+00  0.88000000000E+00 0.  1.
        -11    1    4    4    0    0 -0.52197433933E-01  0.41607608984E-01 -0.65087284608E-01  0.93232939315E-01  0.51100000000E-03 0. -1.
         11    1    4    4    0    0 -0.12944236393E-01  0.58071052055E-02 -0.28908671488E-01  0.32206336875E-01  0.51100000000E-03 0.  1.
</event>
<event>
 8    1  0.1197213E+005  0.1043930E+01  0.7957747E-01            NaN
         13   -1    0    0    0    0  0.00000000000E+00  0.00000000000E+00  0.74505805969E-08  0.10566000000E+00  0.10566000000E+00 0.  1.
     999900   -1    0    0    0    0 -0.00000000000E+00 -0.00000000000E+00 -0.74505805969E-08  0.93827000000E+00  0.93827000000E+00 0. -1.
     999902    2    1    2    0    0  0.17449587871E-01 -0.14390066001E-01 -0.67206370071E-02  0.10203348929E+01  0.10200620396E+01 0.  0.
     999903    2    3    3    0    0  0.74466136908E-01 -0.28110310470E-01  0.10209761090E+00  0.13169517793E+00  0.24172352752E-01 0.  0.
         14    1    1    2    0    0 -0.17449587871E-01  0.14390066001E-01  0.67206370071E-02  0.23595107081E-01  0.00000000000E+00 0. -1.
     999901    1    3    3    0    0 -0.57016549037E-01  0.13720244469E-01 -0.10881824791E+00  0.88863971499E+00  0.88000000000E+00 0. -1.
        -11    1    4    4    0    0  0.58508820239E-01 -0.11312852809E-01  0.67376536892E-01  0.89950661637E-01  0.51100000000E-03 0.  1.
         11    1    4    4    0    0  0.15957316670E-01 -0.16797457661E-01  0.34721074013E-01  0.41744516296E-01  0.51100000000E-03 0. -1.
</event>
<event>
 8    1  0.1197213E+005  0.1043930E+01  0.7957747E-01            NaN
         13   -1    0    0    0    0  0.00000000000E+00  0.00000000000E+00  0.74505805969E-08  0.10566000000E+00  0.10566000000E+00 0.  1.
     999900   -1    0    0    0    0 -0.00000000000E+00 -0.00000000000E+00 -0.74505805969E-08  0.93827000000E+00  0.93827000000E+00 0. -1.
     999902    2    1    2    0    0 -0.10747789974E-01  0.60712207981E-02  0.20311842111E-01  0.10201614148E+01  0.10198844869E+01 0.  0.
     999903    2    3    3    0    0  0.11537351417E+00  0.40716303568E-01  0.40297576242E-01  0.13027024469E+00  0.19431336837E-01 0.  0.
         14    1    1    2    0    0  0.10747789974E-01 -0.60712207981E-02 -0.20311842111E-01  0.23768585176E-01  0.00000000000E+00 0. -1.
     999901    1    3    3    0    0 -0.12612130415E+00 -0.34645082769E-01 -0.19985734132E-01  0.88989117014E+00  0.88000000000E+00 0. -1.
        -11    1    4    4    0    0  0.53094008407E-01  0.22669612856E-01  0.95947748026E-02  0.58525258652E-01  0.51100000000E-03 0.  1.
         11    1    4    4    0    0  0.62279505764E-01  0.18046690712E-01  0.30702801440E-01  0.71744986035E-01  0.51100000000E-03 0. -1.
</event>
<event>
 8    1  0.1197213E+005  0.1043930E+01  0.7957747E-01            NaN
         13   -1    0    0    0    0  0.00000000000E+00  0.00000000000E+00  0.74505805969E-08  0.10566000000E+00  0.10566000000E+00 0.  1.
     999900   -1    0    0    0    0 -0.00000000000E+00 -0.00000000000E+00 -0.74505805969E-08  0.93827000000E+00  0.93827000000E+00 0. -1.
     999902    2    1    2    0    0  0.14100282507E-01 -0.16266675249E-01  0.67306669749E-02  0.10213750766E+01  0.10211260072E+01 0.  0.
     999903    2    3    3    0    0  0.10418510303E+00 -0.43504062014E-01  0.69717737706E-01  0.13411833746E+00  0.19494265462E-01 0.  0.
         14    1    1    2    0    0 -0.14100282507E-01  0.16266675249E-01 -0.67306669749E-02  0.22554923373E-01  0.00000000000E+00 0. -1.
     999901    1    3    3    0    0 -0.90084820522E-01  0.27237386765E-01 -0.62987070731E-01  0.88725673917E+00  0.88000000000E+00 0.  1.
        -11    1    4    4    0    0  0.27889395164E-01 -0.91639156118E-02  0.28218743811E-01  0.40722896940E-01  0.51100000000E-03 0. -1.
         11    1    4    4    0    0  0.76295707866E-01 -0.34340146403E-01  0.41498993895E-01  0.93395440515E-01  0.51100000000E-03 0.  1.
</event>
<event>
 8    1  0.1197213E+005  0.1043930E+01  0.7957747E-01            NaN
         13   -1    0    0    0    0  0.00000000000E+00  0.00000000000E+00  0.74505805969E-08  0.10566000000E+00  0.10566000000E+00 0.  1.
     999900   -1    0    0    0    0 -0.00000000000E+00 -0.00000000000E+00 -0.74505805969E-08  0.93827000000E+00  0.93827000000E+00 0.  1.
     999902    2    1    2    0    0 -0.17550208591E-01 -0.27193095749E-02 -0.68364600546E-02  0.10248999802E+01  0.10247232933E+01 0.  0.
     999903    2    3    3    0    0  0.34049304867E-01 -0.12439830686E+00 -0.33297676725E-01  0.13463682579E+00  0.19597083317E-01 0.  0.
         14    1    1    2    0    0  0.17550208591E-01  0.27193095749E-02  0.68364600546E-02  0.19030019764E-01  0.00000000000E+00 0.  1.
     999901    1    3    3    0    0 -0.51599513457E-01  0.12167899728E+00  0.26461216670E-01  0.89026315444E+00  0.88000000000E+00 0. -1.
        -11    1    4    4    0    0  0.11023014519E-01 -0.34263381409E-01 -0.18379542639E-01  0.40417259472E-01  0.51100000000E-03 0.  1.
         11    1    4    4    0    0  0.23026290347E-01 -0.90134925446E-01 -0.14918134086E-01  0.94219566322E-01  0.51100000000E-03 0. -1.
</event>
<event>
 8    1  0.1197213E+005  0.1043930E+01  0.7957747E-01            NaN
         13   -1    0    0    0    0  0.00000000000E+00  0.00000000000E+00  0.74505805969E-08  0.10566000000E+00  0.10566000000E+00 0. -1.
     999900   -1    0    0    0    0 -0.00000000000E+00 -0.00000000000E+00 -0.74505805969E-08  0.93827000000E+00  0.93827000000E+00 0.  1.
     999902    2    1    2    0    0  0.17402253911E-01  0.33535086519E-02 -0.16355514379E-01  0.10198138786E+01  0.10195286949E+01 0.  0.
     999903    2    3    3    0    0 -0.60695299270E-01 -0.10160971773E-01  0.10991259527E+00  0.12727508138E+00  0.18193488979E-01 0.  0.
         14    1    1    2    0    0 -0.17402253911E-01 -0.33535086519E-02  0.16355514379E-01  0.24116121414E-01  0.00000000000E+00 0. -1.
     999901    1    3    3    0    0  0.78097553181E-01  0.13514480425E-01 -0.12626810965E+00  0.89253879720E+00  0.88000000000E+00 0.  1.
        -11    1    4    4    0    0 -0.41874871462E-01  0.17129154591E-02  0.71442207432E-01  0.82829276606E-01  0.51100000000E-03 0.  1.
         11    1    4    4    0    0 -0.18820427808E-01 -0.11873887232E-01  0.38470387840E-01  0.44445804778E-01  0.51100000000E-03 0. -1.
</event>
<event>
 8    1  0.1197213E+005  0.1043930E+01  0.7957747E-01            NaN
         13   -1    0    0    0    0  0.00000000000E+00  0.00000000000E+00  0.74505805969E-08  0.10566000000E+00  0.10566000000E+00 0.  1.
     999900   -1    0    0    0    0 -0.00000000000E+00 -0.00000000000E+00 -0.74505805969E-08  0.93827000000E+00  0.93827000000E+00 0.  1.
     999902    2    1    2    0    0 -0.54029776217E-02 -0.24671978249E-01  0.17548048837E-02  0.10186124563E+01  0.10182977748E+01 0.  0.
     999903    2    3    3    0    0 -0.70131375622E-01  0.53547433247E-01  0.91114678036E-01  0.12827924410E+00  0.19181826295E-01 0.  0.
         14    1    1    2    0    0  0.54029776217E-02  0.24671978249E-01 -0.17548048837E-02  0.25317543682E-01  0.00000000000E+00 0. -1.
     999901    1    3    3    0    0  0.64728398000E-01 -0.78219411497E-01 -0.89359873153E-01  0.89033321221E+00  0.88000000000E+00 0.  1.
        -11    1    4    4    0    0 -0.26437079212E-01  0.15225874694E-01  0.43557629654E-01  0.53181525359E-01  0.51100000000E-03 0. -1.
         11    1    4    4    0    0 -0.43694296410E-01  0.38321558553E-01  0.47557048382E-01  0.75097718744E-01  0.51100000000E-03 0.  1.
</event>
<event>
 8    1  0.1197213E+005  0.1043930E+01  0.7957747E-01            NaN
         13   -1    0    0    0    0  0.00000000000E+00  0.00000000000E+00  0.74505805969E-08  0.10566000000E+00  0.10566000000E+00 0.  1.
     999900   -1    0    0    0    0 -0.00000000000E+00 -0.00000000000E+00 -0.74505805969E-08  0.93827000000E+00  0.93827000000E+00 0. -1.
     999902    2    1    2    0    0  0.19982286853E-01 -0.31254568628E-02 -0.95289247762E-02  0.10215724358E+01  0.10213277539E+01 0.  0.
     999903    2    3    3    0    0 -0.93158015258E-01 -0.72728015826E-01 -0.52065655398E-01  0.13058724087E+00  0.19349803955E-01 0.  0.
         14    1    1    2    0    0 -0.19982286853E-01  0.31254568628E-02  0.95289247762E-02  0.22357564176E-01  0.00000000000E+00 0.  1.
     999901    1    3    3    0    0  0.11314030211E+00  0.69602558963E-01  0.42536730622E-01  0.89098519495E+00  0.88000000000E+00 0.  1.
        -11    1    4    4    0    0 -0.28646567530E-01 -0.16220436959E-01 -0.22476349573E-01  0.39864468107E-01  0.51100000000E-03 0. -1.
         11    1    4    4    0    0 -0.64511447729E-01 -0.56507578867E-01 -0.29589305825E-01  0.90722772762E-01  0.51100000000E-03 0.  1.
</event>
<event>
 8    1  0.1197213E+005  0.1043930E+01  0.7957747E-01            NaN
         13   -1    0    0    0    0  0.00000000000E+00  0.00000000000E+00  0.74505805969E-08  0.10566000000E+00  0.10566000000E+00 0.  1.
     999900   -1    0    0    0    0 -0.00000000000E+00 -0.00000000000E+00 -0.74505805969E-08  0.93827000000E+00  0.93827000000E+00 0. -1.
     999902    2    1    2    0    0  0.16467908397E-01  0.17193595577E-01  0.35256871908E-02  0.10198625488E+01  0.10195785288E+01 0.  0.
     999903    2    3    3    0    0 -0.66819181957E-01  0.10256390687E+00 -0.39987801835E-01  0.13075161469E+00  0.22645140315E-01 0.  0.
         14    1    1    2    0    0 -0.16467908397E-01 -0.17193595577E-01 -0.35256871908E-02  0.24067451174E-01  0.00000000000E+00 0.  1.
     999901    1    3    3    0    0  0.83287090355E-01 -0.85370311289E-01  0.43513489025E-01  0.88911093413E+00  0.88000000000E+00 0.  1.
        -11    1    4    4    0    0 -0.12245749425E-01  0.37861299472E-01 -0.11152073455E-01  0.41328758027E-01  0.51100000000E-03 0. -1.
         11    1    4    4    0    0 -0.54573432532E-01  0.64702607394E-01 -0.28835728379E-01  0.89422856664E-01  0.51100000000E-03 0.  1.
</event>
<event>
 8    1  0.1197213E+005  0.1043930E+01  0.7957747E-01            NaN
         13   -1    0    0    0    0  0.00000000000E+00  0.00000000000E+00  0.74505805969E-08  0.10566000000E+00  0.10566000000E+00 0. -1.
     999900   -1    0    0    0    0 -0.00000000000E+00 -0.00000000000E+00 -0.74505805969E-08  0.93827000000E+00  0.93827000000E+00 0. -1.
     999902    2    1    2    0    0  0.96578960803E-02  0.18720390501E-01 -0.98780858298E-02  0.10206640473E+01  0.10203988401E+01 0.  0.
     999903    2    3    3    0    0 -0.12649015229E+00 -0.17372513050E-01  0.70097113357E-02  0.12930318518E+00  0.19199343946E-01 0.  0.
         14    1    1    2    0    0 -0.96578960803E-02 -0.18720390501E-01  0.98780858298E-02  0.23265952740E-01  0.00000000000E+00 0. -1.
     999901    1    3    3    0    0  0.13614804837E+00  0.36092903551E-01 -0.16887797166E-01  0.89136086208E+00  0.88000000000E+00 0. -1.
        -11    1    4    4    0    0 -0.38602017240E-01 -0.65505034133E-02  0.10958802908E-01  0.40661791797E-01  0.51100000000E-03 0. -1.
         11    1    4    4    0    0 -0.87888135049E-01 -0.10822009637E-01 -0.39490915725E-02  0.88641393379E-01  0.51100000000E-03 0.  1.
</event>
<event>
 8    1  0.1197213E+005  0.1043930E+01  0.7957747E-01            NaN
         13   -1    0    0    0    0  0.00000000000E+00  0.00000000000E+00  0.74505805969E-08  0.10566000000E+00  0.10566000000E+00 0.  1.
     999900   -1    0    0    0    0 -0.00000000000E+00 -0.00000000000E+00 -0.74505805969E-08  0.93827000000E+00  0.93827000000E+00 0.  1.
     999902    2    1    2    0    0 -0.23923452375E-02 -0.10807882780E-01  0.17844946782E-01  0.10229305769E+01  0.10227150089E+01 0.  0.
     999903    2    3    3    0    0 -0.72277992811E-01 -0.93315476375E-01 -0.57925888444E-01  0.13308074336E+00  0.20571565937E-01 0.  0.
         14    1    1    2    0    0  0.23923452375E-02  0.10807882780E-01 -0.17844946782E-01  0.20999423125E-01  0.00000000000E+00 0. -1.
     999901    1    3    3    0    0  0.69885647574E-01  0.82507593595E-01  0.75770835226E-01  0.88984983352E+00  0.88000000000E+00 0. -1.
        -11    1    4    4    0    0 -0.58607289710E-01 -0.74008068502E-01 -0.36682190228E-01  0.10128105850E+00  0.51100000000E-03 0. -1.
         11    1    4    4    0    0 -0.13670703101E-01 -0.19307407873E-01 -0.21243698216E-01  0.31799684856E-01  0.51100000000E-03 0.  1.
</event>
<event>
 8    1  0.1197213E+005  0.1043930E+01  0.7957747E-01            NaN
         13   -1    0    0    0    0  0.00000000000E+00  0.00000000000E+00  0.74505805969E-08  0.10566000000E+00  0.10566000000E+00 0. -1.
     999900   -1    0    0    0    0 -0.00000000000E+00 -0.00000000000E+00 -0.74505805969E-08  0.93827000000E+00  0.93827000000E+00 0.  1.
     999902    2    1    2    0    0 -0.89509309854E-02 -0.63864633614E-02  0.16978916788E-01  0.10237015622E+01  0.10235016848E+01 0.  0.
     999903    2    3    3    0    0  0.28307040578E-01  0.12748420587E+00 -0.48762757887E-02  0.13252977072E+00  0.22064695072E-01 0.  0.
         14    1    1    2    0    0  0.89509309854E-02  0.63864633614E-02 -0.16978916788E-01  0.20228437782E-01  0.00000000000E+00 0.  1.
     999901    1    3    3    0    0 -0.37257971563E-01 -0.13387066923E+00  0.21855192577E-01  0.89117179150E+00  0.88000000000E+00 0. -1.
        -11    1    4    4    0    0  0.13826548914E-01  0.63504522999E-01 -0.13451749277E-01  0.66371745312E-01  0.51100000000E-03 0.  1.
         11    1    4    4    0    0  0.14480491664E-01  0.63979682869E-01  0.85754734886E-02  0.66158025405E-01  0.51100000000E-03 0. -1.
</event>
<event>
 8    1  0.1197213E+005  0.1043930E+01  0.7957747E-01            NaN
         13   -1    0    0    0    0  0.00000000000E+00  0.00000000000E+00  0.74505805969E-08  0.10566000000E+00  0.10566000000E+00 0.  1.
     999900   -1    0    0    0    0 -0.00000000000E+00 -0.00000000000E+00 -0.74505805969E-08  0.93827000000E+00  0.93827000000E+00 0. -1.
     999902    2    1    2    0    0  0.90255805388E-02 -0.18963940933E-01 -0.11519630650E-01  0.10199760014E+01  0.10196946844E+01 0.  0.
     999903    2    3    3    0    0 -0.89206961719E-01  0.78337926098E-01 -0.45013606693E-01  0.12855066400E+00  0.20108101421E-01 0.  0.
         14    1    1    2    0    0 -0.90255805388E-02  0.18963940933E-01  0.11519630650E-01  0.23953998624E-01  0.00000000000E+00 0.  1.
     999901    1    3    3    0    0  0.98232542258E-01 -0.97301867030E-01  0.33493976042E-01  0.89142533738E+00  0.88000000000E+00 0.  1.
        -11    1    4    4    0    0 -0.58955202915E-01  0.63305646526E-01 -0.34927650267E-01  0.93292672312E-01  0.51100000000E-03 0. -1.
         11    1    4    4    0    0 -0.30251758804E-01  0.15032279572E-01 -0.10085956426E-01  0.35257991688E-01  0.51100000000E-03 0.  1.
</event>
<event>
 8    1  0.1197213E+005  0.1043930E+01  0.7957747E-01            NaN
         13   -1    0    0    0    0  0.00000000000E+00  0.00000000000E+00  0.74505805969E-08  0.10566000000E+00  0.10566000000E+00 0.  1.
     999900   -1    0    0    0    0 -0.00000000000E+00 -0.00000000000E+00 -0.74505805969E-08  0.93827000000E+00  0.93827000000E+00 0. -1.
     999902    2    1    2    0    0  0.24049355238E-02  0.74799093523E-02 -0.20178306017E-01  0.10222759751E+01  0.10220466098E+01 0.  0.
     999903    2    3    3    0    0 -0.66669149427E-01 -0.10857120859E+00  0.23088879360E-01  0.13092243108E+00  0.19367596385E-01 0.  0.
         14    1    1    2    0    0 -0.24049355238E-02 -0.74799093523E-02  0.20178306017E-01  0.21654024857E-01  0.00000000000E+00 0.  1.
     999901    1    3    3    0    0  0.69074084950E-01  0.11605111794E+00 -0.43267185377E-01  0.89135354407E+00  0.88000000000E+00 0. -1.
        -11    1    4    4    0    0 -0.42987680869E-01 -0.66867789254E-01  0.49610330326E-02  0.79649952392E-01  0.51100000000E-03 0. -1.
         11    1    4    4    0    0 -0.23681468558E-01 -0.41703419334E-01  0.18127846327E-01  0.51272478686E-01  0.51100000000E-03 0.  1.
</event>
<event>
 8    1  0.1197213E+005  0.1043930E+01  0.7957747E-01            NaN
         13   -1    0    0    0    0  0.00000000000E+00  0.00000000000E+00  0.74505805969E-08  0.10566000000E+00  0.10566000000E+00 0. -1.
     999900   -1    0    0    0    0 -0.00000000000E+00 -0.00000000000E+00 -0.74505805969E-08  0.93827000000E+00  0.93827000000E+00 0. -1.
     999902    2    1    2    0    0  0.34670893043E-03 -0.15013988154E-01 -0.18772731491E-01  0.10198892950E+01  0.10196059134E+01 0.  0.
     999903    2    3    3    0    0  0.10157273949E+00 -0.73051966758E-01  0.32040154507E-01  0.13073404110E+00  0.20278233329E-01 0.  0.
         14    1    1    2    0    0 -0.34670893043E-03  0.15013988154E-01  0.18772731491E-01  0.24040704960E-01  0.00000000000E+00 0. -1.
     999901    1    3    3    0    0 -0.10122603056E+00  0.58037978604E-01 -0.50812885997E-01  0.88915525394E+00  0.88000000000E+00 0. -1.
        -11    1    4    4    0    0  0.22402827856E-01 -0.22850436723E-01  0.15421867969E-01  0.35526388601E-01  0.51100000000E-03 0.  1.
         11    1    4    4    0    0  0.79169911635E-01 -0.50201530035E-01  0.16618286537E-01  0.95207652500E-01  0.51100000000E-03 0. -1.
</event>
<event>
 8    1  0.1197213E+005  0.1043930E+01  0.7957747E-01            NaN
         13   -1    0    0    0    0  0.00000000000E+00  0.00000000000E+00  0.74505805969E-08  0.10566000000E+00  0.10566000000E+00 0. -1.
     999900   -1    0    0    0    0 -0.00000000000E+00 -0.00000000000E+00 -0.74505805969E-08  0.93827000000E+00  0.93827000000E+00 0.  1.
     999902    2    1    2    0    0 -0.13044243611E-01 -0.19872337465E-01 -0.64314210863E-03  0.10201502666E+01  0.10198730758E+01 0.  0.
     999903    2    3    3    0    0 -0.63538394559E-01  0.78827666436E-01  0.78894045286E-01  0.12963495837E+00  0.18166548150E-01 0.  0.
         14    1    1    2    0    0  0.13044243611E-01  0.19872337465E-01  0.64314210863E-03  0.23779733377E-01  0.00000000000E+00 0. -1.
     999901    1    3    3    0    0  0.50494150947E-01 -0.98700003901E-01 -0.79537187395E-01  0.89051530825E+00  0.88000000000E+00 0.  1.
        -11    1    4    4    0    0 -0.27769258930E-01  0.46495782319E-01  0.47994501273E-01  0.72365204266E-01  0.51100000000E-03 0. -1.
         11    1    4    4    0    0 -0.35769135629E-01  0.32331884117E-01  0.30899544013E-01  0.57269754107E-01  0.51100000000E-03 0.  1.
</event>
<event>
 8    1  0.1197213E+005  0.1043930E+01  0.7957747E-01            NaN
         13   -1    0    0    0    0  0.00000000000E+00  0.00000000000E+00  0.74505805969E-08  0.10566000000E+00  0.10566000000E+00 0.  1.
     999900   -1    0    0    0    0 -0.00000000000E+00 -0.00000000000E+00 -0.74505805969E-08  0.93827000000E+00  0.93827000000E+00 0.  1.
     999902    2    1    2    0    0 -0.44264028009E-04  0.34656458525E-02 -0.22899769068E-01  0.10207694282E+01  0.10205066455E+01 0.  0.
     999903    2    3    3    0    0  0.55212688199E-01 -0.80694316303E-01  0.80981623726E-01  0.12895802791E+00  0.22630421123E-01 0.  0.
         14    1    1    2    0    0  0.44264028009E-04 -0.34656458525E-02  0.22899769068E-01  0.23160571751E-01  0.00000000000E+00 0.  1.
     999901    1    3    3    0    0 -0.55256952227E-01  0.84159962156E-01 -0.10388139279E+00  0.89181140034E+00  0.88000000000E+00 0.  1.
        -11    1    4    4    0    0  0.28598330192E-01 -0.29851386655E-01  0.22705515732E-01  0.47167481814E-01  0.51100000000E-03 0.  1.
         11    1    4    4    0    0  0.26614358007E-01 -0.50842929648E-01  0.58276107994E-01  0.81790546100E-01  0.51100000000E-03 0. -1.
</event>
<event>
 8    1  0.1197213E+005  0.1043930E+01  0.7957747E-01            NaN
         13   -1    0    0    0    0  0.00000000000E+00  0.00000000000E+00  0.74505805969E-08  0.10566000000E+00  0.10566000000E+00 0. -1.
     999900   -1    0    0    0    0 -0.00000000000E+00 -0.00000000000E+00 -0.74505805969E-08  0.93827000000E+00  0.93827000000E+00 0. -1.
     999902    2    1    2    0    0 -0.22161977451E-01 -0.36997636752E-02 -0.67821714782E-02  0.10204600331E+01  0.10201900999E+01 0.  0.
     999903    2    3    3    0    0 -0.11613145442E+00  0.47022423128E-01 -0.41134758603E-01  0.13333935187E+00  0.19740603115E-01 0.  0.
         14    1    1    2    0    0  0.22161977451E-01  0.36997636752E-02  0.67821714782E-02  0.23469966889E-01  0.00000000000E+00 0. -1.
     999901    1    3    3    0    0  0.93969476966E-01 -0.50722186803E-01  0.34352587125E-01  0.88712068124E+00  0.88000000000E+00 0.  1.
        -11    1    4    4    0    0 -0.54008397021E-01  0.12292959519E-01 -0.22328982919E-01  0.59723265163E-01  0.51100000000E-03 0. -1.
         11    1    4    4    0    0 -0.62123057396E-01  0.34729463608E-01 -0.18805775684E-01  0.73616086712E-01  0.51100000000E-03 0.  1.
</event>
<event>
 8    1  0.1197213E+005  0.1043930E+01  0.7957747E-01            NaN
         13   -1    0    0    0    0  0.00000000000E+00  0.00000000000E+00  0.74505805969E-08  0.10566000000E+00  0.10566000000E+00 0.  1.
     999900   -1    0    0    0    0 -0.00000000000E+00 -0.00000000000E+00 -0.74505805969E-08  0.93827000000E+00  0.93827000000E+00 0.  1.
     999902    2    1    2    0    0  0.21633860789E-01  0.90454437405E-02 -0.39218464110E-02  0.10201555418E+01  0.10198784754E+01 0.  0.
     999903    2    3    3    0    0  0.18227592929E-01 -0.90982303000E-01 -0.89366782238E-01  0.13037018010E+00  0.19998437139E-01 0.  0.
         14    1    1    2    0    0 -0.21633860789E-01 -0.90454437405E-02  0.39218464110E-02  0.23774458235E-01  0.00000000000E+00 0.  1.
     999901    1    3    3    0    0  0.34062678601E-02  0.10002774674E+00  0.85444935827E-01  0.88978536167E+00  0.88000000000E+00 0.  1.
        -11    1    4    4    0    0  0.19042658891E-01 -0.58629411834E-01 -0.49782800768E-01  0.79237738250E-01  0.51100000000E-03 0. -1.
         11    1    4    4    0    0 -0.81506596204E-03 -0.32352891166E-01 -0.39583981470E-01  0.51132441847E-01  0.51100000000E-03 0.  1.
</event>
<event>
 8    1  0.1197213E+005  0.1043930E+01  0.7957747E-01            NaN
         13   -1    0    0    0    0  0.00000000000E+00  0.00000000000E+00  0.74505805969E-08  0.10566000000E+00  0.10566000000E+00 0. -1.
     999900   -1    0    0    0    0 -0.00000000000E+00 -0.00000000000E+00 -0.74505805969E-08  0.93827000000E+00  0.93827000000E+00 0. -1.
     999902    2    1    2    0    0 -0.17158503915E-01 -0.13921146394E-01  0.91335677787E-02  0.10200211181E+01  0.10197408723E+01 0.  0.
     999903    2    3    3    0    0 -0.11110629808E+00 -0.49336131272E-01  0.50860964925E-01  0.13332974853E+00  0.20281044591E-01 0.  0.
         14    1    1    2    0    0  0.17158503915E-01  0.13921146394E-01 -0.91335677787E-02  0.23908881904E-01  0.00000000000E+00 0.  1.
     999901    1    3    3    0    0  0.93947794164E-01  0.35414984878E-01 -0.41727397146E-01  0.88669136956E+00  0.88000000000E+00 0. -1.
        -11    1    4    4    0    0 -0.19221109686E-01 -0.13779710178E-01  0.17064466414E-01  0.29168280805E-01  0.51100000000E-03 0.  1.
         11    1    4    4    0    0 -0.91885188393E-01 -0.35556421094E-01  0.33796498510E-01  0.10416146773E+00  0.51100000000E-03 0. -1.
</event>
<event>
 8    1  0.1197213E+005  0.1043930E+01  0.7957747E-01            NaN
         13   -1    0    0    0    0  0.00000000000E+00  0.00000000000E+00  0.74505805969E-08  0.10566000000E+00  0.10566000000E+00 0. -1.
     999900   -1    0    0    0    0 -0.00000000000E+00 -0.00000000000E+00 -0.74505805969E-08  0.93827000000E+00  0.93827000000E+00 0. -1.
     999902    2    1    2    0    0  0.23481206194E-01 -0.35595639021E-02  0.21492376754E-02  0.10200834748E+01  0.10198047062E+01 0.  0.
     999903    2    3    3    0    0 -0.25289526176E-01  0.71969548126E-01  0.10306064713E+00  0.12976536110E+00  0.19959357753E-01 0.  0.
         14    1    1    2    0    0 -0.23481206194E-01  0.35595639021E-02 -0.21492376754E-02  0.23846525158E-01  0.00000000000E+00 0. -1.
     999901    1    3    3    0    0  0.48770732370E-01 -0.75529112028E-01 -0.10091140946E+00  0.89031811374E+00  0.88000000000E+00 0. -1.
        -11    1    4    4    0    0 -0.85565761896E-02  0.52404990912E-01  0.69133461859E-01  0.87173360255E-01  0.51100000000E-03 0.  1.
         11    1    4    4    0    0 -0.16732949987E-01  0.19564557214E-01  0.33927185275E-01  0.42592000845E-01  0.51100000000E-03 0. -1.
</event>
<event>
 8    1  0.1197213E+005  0.1043930E+01  0.7957747E-01            NaN
         13   -1    0    0    0    0  0.00000000000E+00  0.00000000000E+00  0.74505805969E-08  0.10566000000E+00  0.10566000000E+00 0.  1.
     999900   -1    0    0    0    0 -0.00000000000E+00 -0.00000000000E+00 -0.74505805969E-08  0.93827000000E+00  0.93827000000E+00 0. -1.
     999902    2    1    2    0    0 -0.90944442576E-03 -0.17396278321E-01  0.15889883402E-01  0.10203514932E+01  0.10200790282E+01 0.  0.
     999903    2    3    3    0    0 -0.57442810656E-01 -0.37867566632E-01  0.11191725996E+00  0.13308808688E+00  0.21291704804E-01 0.  0.
         14    1    1    2    0    0  0.90944442576E-03  0.17396278321E-01 -0.15889883402E-01  0.23578506804E-01  0.00000000000E+00 0. -1.
     999901    1    3    3    0    0  0.56533366230E-01  0.20471288311E-01 -0.96027376557E-01  0.88726340632E+00  0.88000000000E+00 0. -1.
        -11    1    4    4    0    0 -0.79288776834E-02  0.19692734965E-02  0.16876648319E-01  0.18757065839E-01  0.51100000000E-03 0.  1.
         11    1    4    4    0    0 -0.49513932973E-01 -0.39836840128E-01  0.95040611640E-01  0.11433102104E+00  0.51100000000E-03 0. -1.
</event>
<event>
 8    1  0.1197213E+005  0.1043930E+01  0.7957747E-01            NaN
         13   -1    0    0    0    0  0.00000000000E+00  0.00000000000E+00  0.74505805969E-08  0.10566000000E+00  0.10566000000E+00 0. -1.
     999900   -1    0    0    0    0 -0.00000000000E+00 -0.00000000000E+00 -0.74505805969E-08  0.93827000000E+00  0.93827000000E+00 0. -1.
     999902    2    1    2    0    0  0.17211340633E-01  0.65065493071E-02  0.63284173556E-02  0.10244719863E+01  0.10242871846E+01 0.  0.
     999903    2    3    3    0    0  0.78434595872E-02  0.10516685635E+00 -0.81182523070E-01  0.13459571510E+00  0.20095196896E-01 0.  0.
         14    1    1    2    0    0 -0.17211340633E-01 -0.65065493071E-02 -0.63284173556E-02  0.19458013683E-01  0.00000000000E+00 0. -1.
     999901    1    3    3    0    0  0.93678810459E-02 -0.98660307043E-01  0.87510940426E-01  0.88987627122E+00  0.88000000000E+00 0.  1.
        -11    1    4    4    0    0  0.72922736475E-02  0.89006971363E-01 -0.58597260723E-01  0.10681441050E+00  0.51100000000E-03 0.  1.
         11    1    4    4    0    0  0.55118593971E-03  0.16159884987E-01 -0.22585262347E-01  0.27781304595E-01  0.51100000000E-03 0. -1.
</event>
<event>
 8    1  0.1197213E+005  0.1043930E+01  0.7957747E-01            NaN
         13   -1    0    0    0    0  0.00000000000E+00  0.00000000000E+00  0.74505805969E-08  0.10566000000E+00  0.10566000000E+00 0. -1.
     999900   -1    0    0    0    0 -0.00000000000E+00 -0.00000000000E+00 -0.74505805969E-08  0.93827000000E+00  0.93827000000E+00 0.  1.
     999902    2    1    2    0    0  0.20571552252E-01  0.12309172889E-01  0.13086791208E-02  0.10199213111E+01  0.10196386928E+01 0.  0.
     999903    2    3    3    0    0  0.18977211316E-01 -0.12409984379E+00 -0.22592891869E-01  0.12908953867E+00  0.19818285838E-01 0.  0.
         14    1    1    2    0    0 -0.20571552252E-01 -0.12309172889E-01 -0.13086791208E-02  0.24008688850E-01  0.00000000000E+00 0.  1.
     999901    1    3    3    0    0  0.15943409362E-02  0.13640901668E+00  0.23901570990E-01  0.89083177247E+00  0.88000000000E+00 0. -1.
        -11    1    4    4    0    0  0.11066485290E-01 -0.39502494929E-01 -0.15385195140E-01  0.43816430169E-01  0.51100000000E-03 0.  1.
         11    1    4    4    0    0  0.79107260260E-02 -0.84597348864E-01 -0.72076967290E-02  0.85273108505E-01  0.51100000000E-03 0. -1.
</event>
<event>
 8    1  0.1197213E+005  0.1043930E+01  0.7957747E-01            NaN
         13   -1    0    0    0    0  0.00000000000E+00  0.00000000000E+00  0.74505805969E-08  0.10566000000E+00  0.10566000000E+00 0.  1.
     999900   -1    0    0    0    0 -0.00000000000E+00 -0.00000000000E+00 -0.74505805969E-08  0.93827000000E+00  0.93827000000E+00 0. -1.
     999902    2    1    2    0    0  0.19968862756E-01  0.93062409767E-02 -0.46531564712E-02  0.10214130405E+01  0.10211648181E+01 0.  0.
     999903    2    3    3    0    0 -0.48477283355E-01  0.76781675655E-01  0.92063685800E-01  0.13091208215E+00  0.20415148610E-01 0.  0.
         14    1    1    2    0    0 -0.19968862756E-01 -0.93062409767E-02  0.46531564712E-02  0.22516959520E-01  0.00000000000E+00 0.  1.
     999901    1    3    3    0    0  0.68446146110E-01 -0.67475434678E-01 -0.96716842271E-01  0.89050095833E+00  0.88000000000E+00 0. -1.
        -11    1    4    4    0    0  0.11188960207E-02  0.89835147349E-02  0.90295544594E-02  0.12796462012E-01  0.51100000000E-03 0.  1.
         11    1    4    4    0    0 -0.49596179375E-01  0.67798160920E-01  0.83034131340E-01  0.11811562014E+00  0.51100000000E-03 0. -1.
</event>
<event>
 8    1  0.1197213E+005  0.1043930E+01  0.7957747E-01            NaN
         13   -1    0    0    0    0  0.00000000000E+00  0.00000000000E+00  0.74505805969E-08  0.10566000000E+00  0.10566000000E+00 0.  1.
     999900   -1    0    0    0    0 -0.00000000000E+00 -0.00000000000E+00 -0.74505805969E-08  0.93827000000E+00  0.93827000000E+00 0. -1.
     999902    2    1    2    0    0 -0.16388233210E-01 -0.15144649076E-01 -0.11226818109E-02  0.10215873279E+01  0.10213429754E+01 0.  0.
     999903    2    3    3    0    0 -0.90601113108E-01  0.36885690518E-01  0.87014164945E-01  0.13255256391E+00  0.20726828889E-01 0.  0.
         14    1    1    2    0    0  0.16388233210E-01  0.15144649076E-01  0.11226818109E-02  0.22342672128E-01  0.00000000000E+00 0.  1.
     999901    1    3    3    0    0  0.74212879898E-01 -0.52030339594E-01 -0.88136846756E-01  0.88903476396E+00  0.88000000000E+00 0. -1.
        -11    1    4    4    0    0 -0.43674204455E-01  0.12573517129E-01  0.28243109426E-01  0.53511342899E-01  0.51100000000E-03 0.  1.
         11    1    4    4    0    0 -0.46926908653E-01  0.24312173390E-01  0.58771055519E-01  0.79041221008E-01  0.51100000000E-03 0. -1.
</event>
<event>
 8    1  0.1197213E+005  0.1043930E+01  0.7957747E-01            NaN
         13   -1    0    0    0    0  0.00000000000E+00  0.00000000000E+00  0.74505805969E-08  0.10566000000E+00  0.10566000000E+00 0. -1.
     999900   -1    0    0    0    0 -0.00000000000E+00 -0.00000000000E+00 -0.74505805969E-08  0.93827000000E+00  0.93827000000E+00 0.  1.
     999902    2    1    2    0    0  0.12210377430E-01 -0.18136606029E-01 -0.66421465306E-02  0.10210794441E+01  0.10208237278E+01 0.  0.
     999903    2    3    3    0    0  0.49513230920E-01 -0.11440005447E+00 -0.45303482181E-01  0.13420129391E+00  0.20460921032E-01 0.  0.
         14    1    1    2    0    0 -0.12210377430E-01  0.18136606029E-01  0.66421465306E-02  0.22850555918E-01  0.00000000000E+00 0. -1.
     999901    1    3    3    0    0 -0.37302853490E-01  0.96263448442E-01  0.38661335650E-01  0.88687815018E+00  0.88000000000E+00 0.  1.
        -11    1    4    4    0    0  0.21349304118E-01 -0.54655236281E-01 -0.31946834550E-01  0.66812042313E-01  0.51100000000E-03 0. -1.
         11    1    4    4    0    0  0.28163926801E-01 -0.59744818190E-01 -0.13356647631E-01  0.67389251593E-01  0.51100000000E-03 0.  1.
</event>
<event>
 8    1  0.1197213E+005  0.1043930E+01  0.7957747E-01            NaN
         13   -1    0    0    0    0  0.00000000000E+00  0.00000000000E+00  0.74505805969E-08  0.10566000000E+00  0.10566000000E+00 0.  1.
     999900   -1    0    0    0    0 -0.00000000000E+00 -0.00000000000E+00 -0.74505805969E-08  0.93827000000E+00  0.93827000000E+00 0. -1.
     999902    2    1    2    0    0  0.17129322093E-01  0.35481257307E-02 -0.16140715170E-01  0.10201282026E+01  0.10198504911E+01 0.  0.
     999903    2    3    3    0    0 -0.98952114734E-01 -0.61098335913E-01 -0.54891433926E-01  0.12931077848E+00  0.13552868723E-01 0.  0.
         14    1    1    2    0    0 -0.17129322093E-01 -0.35481257307E-02  0.16140715170E-01  0.23801797364E-01  0.00000000000E+00 0.  1.
     999901    1    3    3    0    0  0.11608143683E+00  0.64646461644E-01  0.38750718757E-01  0.89081742416E+00  0.88000000000E+00 0. -1.
        -11    1    4    4    0    0 -0.53116636201E-01 -0.34370521424E-01 -0.37108906195E-01  0.73348768390E-01  0.51100000000E-03 0. -1.
         11    1    4    4    0    0 -0.45835478533E-01 -0.26727814489E-01 -0.17782527731E-01  0.55962010089E-01  0.51100000000E-03 0.  1.
</event>
<event>
 8    1  0.1197213E+005  0.1043930E+01  0.7957747E-01            NaN
         13   -1    0    0    0    0  0.00000000000E+00  0.00000000000E+00  0.74505805969E-08  0.10566000000E+00  0.10566000000E+00 0. -1.
     999900   -1    0    0    0    0 -0.00000000000E+00 -0.00000000000E+00 -0.74505805969E-08  0.93827000000E+00  0.93827000000E+00 0.  1.
     999902    2    1    2    0    0  0.66923616835E-02 -0.27455828319E-01 -0.53656216687E-02  0.10151654366E+01  0.10147578349E+01 0.  0.
     999903    2    3    3    0    0  0.34831430843E-03  0.11603137405E+00 -0.35493064524E-01  0.12301271030E+00  0.20222961646E-01 0.  0.
         14    1    1    2    0    0 -0.66923616835E-02  0.27455828319E-01  0.53656216687E-02  0.28764563433E-01  0.00000000000E+00 0.  1.
     999901    1    3    3    0    0  0.63440473751E-02 -0.14348720237E+00  0.30127442855E-01  0.89215272627E+00  0.88000000000E+00 0.  1.
        -11    1    4    4    0    0 -0.76633337797E-02  0.39392401594E-01 -0.18042568160E-01  0.44003220050E-01  0.51100000000E-03 0.  1.
         11    1    4    4    0    0  0.80116480881E-02  0.76638972459E-01 -0.17450496363E-01  0.79009490246E-01  0.51100000000E-03 0. -1.
</event>
<event>
 8    1  0.1197213E+005  0.1043930E+01  0.7957747E-01            NaN
         13   -1    0    0    0    0  0.00000000000E+00  0.00000000000E+00  0.74505805969E-08  0.10566000000E+00  0.10566000000E+00 0. -1.
     999900   -1    0    0    0    0 -0.00000000000E+00 -0.00000000000E+00 -0.74505805969E-08  0.93827000000E+00  0.93827000000E+00 0.  1.
     999902    2    1    2    0    0  0.22415827060E-01  0.53472340582E-02 -0.46822000770E-03  0.10208804567E+01  0.10206202161E+01 0.  0.
     999903    2    3    3    0    0 -0.12242716186E+00  0.55349222901E-02  0.31913313903E-01  0.12845225771E+00  0.21505291960E-01 0.  0.
         14    1    1    2    0    0 -0.22415827060E-01 -0.53472340582E-02  0.46822000770E-03  0.23049543267E-01  0.00000000000E+00 0.  1.
     999901    1    3    3    0    0  0.14484298892E+00 -0.18768823186E-03 -0.32381533911E-01  0.89242819902E+00  0.88000000000E+00 0. -1.
        -11    1    4    4    0    0 -0.56617920650E-01 -0.81520884859E-02  0.14960442591E-01  0.59128009006E-01  0.51100000000E-03 0.  1.
         11    1    4    4    0    0 -0.65809241207E-01  0.13687010776E-01  0.16952871313E-01  0.69324248709E-01  0.51100000000E-03 0. -1.
</event>
<event>
 8    1  0.1197213E+005  0.1043930E+01  0.7957747E-01            NaN
         13   -1    0    0    0    0  0.00000000000E+00  0.00000000000E+00  0.74505805969E-08  0.10566000000E+00  0.10566000000E+00 0. -1.
     999900   -1    0    0    0    0 -0.00000000000E+00 -0.00000000000E+00 -0.74505805969E-08  0.93827000000E+00  0.93827000000E+00 0.  1.
     999902    2    1    2    0    0  0.10877048702E-01 -0.18688084716E-01 -0.92928031388E-02  0.10203946885E+01  0.10201232324E+01 0.  0.
     999903    2    3    3    0    0 -0.82988127999E-01 -0.72376819820E-01  0.67048036415E-01  0.13049521355E+00  0.20202181468E-01 0.  0.
         14    1    1    2    0    0 -0.10877048702E-01  0.18688084716E-01  0.92928031388E-02  0.23535311534E-01  0.00000000000E+00 0.  1.
     999901    1    3    3    0    0  0.93865176701E-01  0.53688735105E-01 -0.76340839553E-01  0.88989947492E+00  0.88000000000E+00 0.  1.
        -11    1    4    4    0    0 -0.20227963722E-01 -0.29192542233E-01  0.17313997604E-01  0.39514689324E-01  0.51100000000E-03 0.  1.
         11    1    4    4    0    0 -0.62760164277E-01 -0.43184277588E-01  0.49734038811E-01  0.90980524225E-01  0.51100000000E-03 0. -1.
</event>
<event>
 8    1  0.1197213E+005  0.1043930E+01  0.7957747E-01            NaN
         13   -1    0    0    0    0  0.00000000000E+00  0.00000000000E+00  0.74505805969E-08  0.10566000000E+00  0.10566000000E+00 0.  1.
     999900   -1    0    0    0    0 -0.00000000000E+00 -0.00000000000E+00 -0.74505805969E-08  0.93827000000E+00  0.93827000000E+00 0. -1.
     999902    2    1    2    0    0 -0.11964505049E-01  0.16323007928E-01 -0.71207350386E-02  0.10224755171E+01  0.10222504039E+01 0.  0.
     999903    2    3    3    0    0 -0.92883508585E-01  0.94595713829E-01  0.17623312027E-01  0.13495832319E+00  0.18096204851E-01 0.  0.
         14    1    1    2    0    0  0.11964505049E-01 -0.16323007928E-01  0.71207350386E-02  0.21454482897E-01  0.00000000000E+00 0.  1.
     999901    1    3    3    0    0  0.80919003536E-01 -0.78272705902E-01 -0.24744047065E-01  0.88751719391E+00  0.88000000000E+00 0. -1.
        -11    1    4    4    0    0 -0.53386927954E-01  0.65898493510E-01  0.14425496228E-01  0.86029829627E-01  0.51100000000E-03 0.  1.
         11    1    4    4    0    0 -0.39496580632E-01  0.28697220319E-01  0.31978157984E-02  0.48928493565E-01  0.51100000000E-03 0. -1.
</event>
<event>
 8    1  0.1197213E+005  0.1043930E+01  0.7957747E-01            NaN
         13   -1    0    0    0    0  0.00000000000E+00  0.00000000000E+00  0.74505805969E-08  0.10566000000E+00  0.10566000000E+00 0. -1.
     999900   -1    0    0    0    0 -0.00000000000E+00 -0.00000000000E+00 -0.74505805969E-08  0.93827000000E+00  0.93827000000E+00 0. -1.
     999902    2    1    2    0    0  0.11539175889E-01 -0.14492367149E-01 -0.13717654898E-01  0.10208788538E+01  0.10206185765E+01 0.  0.
     999903    2    3    3    0    0 -0.95691333797E-01 -0.34298520544E-01  0.77667021147E-01  0.12945200601E+00  0.19809992713E-01 0.  0.
         14    1    1    2    0    0 -0.11539175889E-01  0.14492367149E-01  0.13717654898E-01  0.23051146212E-01  0.00000000000E+00 0. -1.
     999901    1    3    3    0    0  0.10723050969E+00  0.19806153395E-01 -0.91384676045E-01  0.89142684778E+00  0.88000000000E+00 0.  1.
        -11    1    4    4    0    0 -0.58653749606E-01 -0.31022697120E-01  0.51118473576E-01  0.83761742706E-01  0.51100000000E-03 0.  1.
         11    1    4    4    0    0 -0.37037584192E-01 -0.32758234245E-02  0.26548547571E-01  0.45690263306E-01  0.51100000000E-03 0. -1.
</event>
<event>
 8    1  0.1197213E+005  0.1043930E+01  0.7957747E-01            NaN
         13   -1    0    0    0    0  0.00000000000E+00  0.00000000000E+00  0.74505805969E-08  0.10566000000E+00  0.10566000000E+00 0. -1.
     999900   -1    0    0    0    0 -0.00000000000E+00 -0.00000000000E+00 -0.74505805969E-08  0.93827000000E+00  0.93827000000E+00 0.  1.
     999902    2    1    2    0    0 -0.32382914843E-02  0.16843175425E-01  0.15796791375E-01  0.10206122448E+01  0.10203458416E+01 0.  0.
     999903    2    3    3    0    0  0.42201741784E-01 -0.49763500303E-01 -0.10910836042E+00  0.12814233336E+00  0.16075767898E-01 0.  0.
         14    1    1    2    0    0  0.32382914843E-02 -0.16843175425E-01 -0.15796791375E-01  0.23317755207E-01  0.00000000000E+00 0.  1.
     999901    1    3    3    0    0 -0.45440033268E-01  0.66606675728E-01  0.12490515179E+00  0.89246991144E+00  0.88000000000E+00 0. -1.
        -11    1    4    4    0    0  0.72909061696E-02 -0.12882261465E-01 -0.37792431909E-01  0.40591119766E-01  0.51100000000E-03 0. -1.
         11    1    4    4    0    0  0.34910835614E-01 -0.36881238838E-01 -0.71315928507E-01  0.87551213591E-01  0.51100000000E-03 0.  1.
</event>
<event>
 8    1  0.1197213E+005  0.1043930E+01  0.7957747E-01            NaN
         13   -1    0    0    0    0  0.00000000000E+00  0.00000000000E+00  0.74505805969E-08  0.10566000000E+00  0.10566000000E+00 0.  1.
     999900   -1    0    0    0    0 -0.00000000000E+00 -0.00000000000E+00 -0.74505805969E-08  0.93827000000E+00  0.93827000000E+00 0.  1.
     999902    2    1    2    0    0  0.22478505397E-01 -0.29719250585E-02  0.57247902987E-02  0.10205443470E+01  0.10202763721E+01 0.  0.
     999903    2    3    3    0    0 -0.37386698375E-02  0.31115277574E-01  0.12600344589E+00  0.13132208418E+00  0.19659177690E-01 0.  0.
         14    1    1    2    0    0 -0.22478505397E-01  0.29719250585E-02 -0.57247902987E-02  0.23385653025E-01  0.00000000000E+00 0.  1.
     999901    1    3    3    0    0  0.26217175235E-01 -0.34087202632E-01 -0.12027865559E+00  0.88922226280E+00  0.88000000000E+00 0.  1.
        -11    1    4    4    0    0 -0.19061851930E-02  0.14479896283E-01  0.25144746310E-01  0.29082990327E-01  0.51100000000E-03 0. -1.
         11    1    4    4    0    0 -0.18324846444E-02  0.16635381291E-01  0.10085869958E+00  0.10223909385E+00  0.51100000000E-03 0.  1.
</event>
<event>
 8    1  0.1197213E+005  0.1043930E+01  0.7957747E-01            NaN
         13   -1    0    0    0    0  0.00000000000E+00  0.00000000000E+00  0.74505805969E-08  0.10566000000E+00  0.10566000000E+00 0. -1.
     999900   -1    0    0    0    0 -0.00000000000E+00 -0.00000000000E+00 -0.74505805969E-08  0.93827000000E+00  0.93827000000E+00 0. -1.
     999902    2    1    2    0    0 -0.26038141395E-03 -0.13291681267E-01 -0.19376120222E-01  0.10204316889E+01  0.10201610957E+01 0.  0.
     999903    2    3    3    0    0  0.38244074910E-01 -0.11915405217E+00  0.34206707344E-01  0.13163443748E+00  0.22298629758E-01 0.  0.
         14    1    1    2    0    0  0.26038141395E-03  0.13291681267E-01  0.19376120222E-01  0.23498311093E-01  0.00000000000E+00 0. -1.
     999901    1    3    3    0    0 -0.38504456324E-01  0.10586237091E+00 -0.53582827566E-01  0.88879725142E+00  0.88000000000E+00 0.  1.
        -11    1    4    4    0    0  0.25944937976E-01 -0.96648376922E-01  0.19142110310E-01  0.10188586789E+00  0.51100000000E-03 0.  1.
         11    1    4    4    0    0  0.12299136934E-01 -0.22505675250E-01  0.15064597033E-01  0.29748569588E-01  0.51100000000E-03 0. -1.
</event>
<event>
 8    1  0.1197213E+005  0.1043930E+01  0.7957747E-01            NaN
         13   -1    0    0    0    0  0.00000000000E+00  0.00000000000E+00  0.74505805969E-08  0.10566000000E+00  0.10566000000E+00 0.  1.
     999900   -1    0    0    0    0 -0.00000000000E+00 -0.00000000000E+00 -0.74505805969E-08  0.93827000000E+00  0.93827000000E+00 0.  1.
     999902    2    1    2    0    0  0.17330706467E-01  0.15289915669E-01 -0.66851246653E-02  0.10198712012E+01  0.10195873877E+01 0.  0.
     999903    2    3    3    0    0 -0.11000475180E+00 -0.23968904347E-01 -0.58241182643E-01  0.12834800970E+00  0.20140070589E-01 0.  0.
         14    1    1    2    0    0 -0.17330706467E-01 -0.15289915669E-01  0.66851246653E-02  0.24058798798E-01  0.00000000000E+00 0.  1.
     999901    1    3    3    0    0  0.12733545826E+00  0.39258820016E-01  0.51556057977E-01  0.89152319151E+00  0.88000000000E+00 0. -1.
        -11    1    4    4    0    0 -0.10173404789E+00 -0.19523453619E-01 -0.58446526094E-01  0.11894216777E+00  0.51100000000E-03 0.  1.
         11    1    4    4    0    0 -0.82707039120E-02 -0.44454507287E-02  0.20534345116E-03  0.94058419248E-02  0.51100000000E-03 0. -1.
</event>
<event>
 8    1  0.1197213E+005  0.1043930E+01  0.7957747E-01            NaN
         13   -1    0    0    0    0  0.00000000000E+00  0.00000000000E+00  0.74505805969E-08  0.10566000000E+00  0.10566000000E+00 0.  1.
     999900   -1    0    0    0    0 -0.00000000000E+00 -0.00000000000E+00 -0.74505805969E-08  0.93827000000E+00  0.93827000000E+00 0.  1.
     999902    2    1    2    0    0 -0.18100141914E-01 -0.92892415014E-02 -0.12792422153E-01  0.10198977049E+01  0.10196145238E+01 0.  0.
     999903    2    3    3    0    0 -0.12952998172E+00 -0.17984705030E-01  0.88576023733E-02  0.13256409012E+00  0.19832173104E-01 0.  0.
         14    1    1    2    0    0  0.18100141914E-01  0.92892415014E-02  0.12792422153E-01  0.24032295137E-01  0.00000000000E+00 0.  1.
     999901    1    3    3    0    0  0.11142983981E+00  0.86954635290E-02 -0.21650024527E-01  0.88733361474E+00  0.88000000000E+00 0.  1.
        -11    1    4    4    0    0 -0.80217118777E-01 -0.19076352776E-01  0.46765408413E-04  0.82455786263E-01  0.51100000000E-03 0.  1.
         11    1    4    4    0    0 -0.49312862946E-01  0.10916477458E-02  0.88108369649E-02  0.50108303861E-01  0.51100000000E-03 0. -1.
</event>
<event>
 8    1  0.1197213E+005  0.1043930E+01  0.7957747E-01            NaN
         13   -1    0    0    0    0  0.00000000000E+00  0.00000000000E+00  0.74505805969E-08  0.10566000000E+00  0.10566000000E+00 0. -1.
     999900   -1    0    0    0    0 -0.00000000000E+00 -0.00000000000E+00 -0.74505805969E-08  0.93827000000E+00  0.93827000000E+00 0.  1.
     999902    2    1    2    0    0 -0.20152661483E-01 -0.86173452250E-02 -0.94760714811E-02  0.10200514671E+01  0.10197719408E+01 0.  0.
     999903    2    3    3    0    0  0.33205326771E-01  0.15531389619E-01  0.12142953265E+00  0.12844252057E+00  0.20212172121E-01 0.  0.
         14    1    1    2    0    0  0.20152661483E-01  0.86173452250E-02  0.94760714811E-02  0.23878532917E-01  0.00000000000E+00 0.  1.
     999901    1    3    3    0    0 -0.53357988254E-01 -0.24148734844E-01 -0.13090560413E+00  0.89160894651E+00  0.88000000000E+00 0.  1.
        -11    1    4    4    0    0  0.21761440605E-02  0.43121667673E-02  0.44095960459E-01  0.44362655861E-01  0.51100000000E-03 0. -1.
         11    1    4    4    0    0  0.31029182711E-01  0.11219222852E-01  0.77333572191E-01  0.84079864711E-01  0.51100000000E-03 0.  1.
</event>
<event>
 8    1  0.1197213E+005  0.1043930E+01  0.7957747E-01            NaN
         13   -1    0    0    0    0  0.00000000000E+00  0.00000000000E+00  0.74505805969E-08  0.10566000000E+00  0.10566000000E+00 0.  1.
     999900   -1    0    0    0    0 -0.00000000000E+00 -0.00000000000E+00 -0.74505805969E-08  0.93827000000E+00  0.93827000000E+00 0. -1.
     999902    2    1    2    0    0  0.98793536037E-03 -0.18319726105E-01 -0.15803675997E-01  0.10197154474E+01  0.10194279029E+01 0.  0.
     999903    2    3    3    0    0 -0.19274196855E-01  0.22122146701E-01 -0.12668391638E+00  0.13160479736E+00  0.20251517924E-01 0.  0.
         14    1    1    2    0    0 -0.98793536037E-03  0.18319726105E-01  0.15803675997E-01  0.24214552563E-01  0.00000000000E+00 0.  1.
     999901    1    3    3    0    0  0.20262132215E-01 -0.40441872805E-01  0.11088024039E+00  0.88811065008E+00  0.88000000000E+00 0.  1.
        -11    1    4    4    0    0 -0.12598857113E-01  0.12671847724E-02 -0.31944614207E-01  0.34366501941E-01  0.51100000000E-03 0. -1.
         11    1    4    4    0    0 -0.66753397417E-02  0.20854961929E-01 -0.94739302175E-01  0.97238295416E-01  0.51100000000E-03 0.  1.
</event>
<event>
 8    1  0.1197213E+005  0.1043930E+01  0.7957747E-01            NaN
         13   -1    0    0    0    0  0.00000000000E+00  0.00000000000E+00  0.74505805969E-08  0.10566000000E+00  0.10566000000E+00 0. -1.
     999900   -1    0    0    0    0 -0.00000000000E+00 -0.00000000000E+00 -0.74505805969E-08  0.93827000000E+00  0.93827000000E+00 0.  1.
     999902    2    1    2    0    0 -0.14334764842E-01 -0.15581505911E-01 -0.97572033432E-02  0.10206175178E+01  0.10203512365E+01 0.  0.
     999903    2    3    3    0    0  0.85266189841E-01 -0.67347788378E-01  0.68602451993E-01  0.13003325241E+00  0.19907349957E-01 0.  0.
         14    1    1    2    0    0  0.14334764842E-01  0.15581505911E-01  0.97572033432E-02  0.23312482206E-01  0.00000000000E+00 0. -1.
     999901    1    3    3    0    0 -0.99600954683E-01  0.51766282467E-01 -0.78359655336E-01  0.89058426539E+00  0.88000000000E+00 0.  1.
        -11    1    4    4    0    0  0.60554147548E-01 -0.35774322965E-01  0.42170121087E-01  0.82007238719E-01  0.51100000000E-03 0.  1.
         11    1    4    4    0    0  0.24712042293E-01 -0.31573465413E-01  0.26432330906E-01  0.48026013686E-01  0.51100000000E-03 0. -1.
</event>
<event>
 8    1  0.1197213E+005  0.1043930E+01  0.7957747E-01            NaN
         13   -1    0    0    0    0  0.00000000000E+00  0.00000000000E+00  0.74505805969E-08  0.10566000000E+00  0.10566000000E+00 0. -1.
     999900   -1    0    0    0    0 -0.00000000000E+00 -0.00000000000E+00 -0.74505805969E-08  0.93827000000E+00  0.93827000000E+00 0. -1.
     999902    2    1    2    0    0 -0.89125573624E-02 -0.58709273652E-03 -0.21942818888E-01  0.10202389541E+01  0.10199638512E+01 0.  0.
     999903    2    3    3    0    0  0.30202238124E-01 -0.11756012888E+00 -0.45249359733E-01  0.13133184235E+00  0.21633057338E-01 0.  0.
         14    1    1    2    0    0  0.89125573624E-02  0.58709273652E-03  0.21942818888E-01  0.23691045933E-01  0.00000000000E+00 0. -1.
     999901    1    3    3    0    0 -0.39114795486E-01  0.11697303614E+00  0.23306540844E-01  0.88890711171E+00  0.88000000000E+00 0.  1.
        -11    1    4    4    0    0  0.45271948223E-02 -0.21898902409E-01  0.16528453769E-03  0.22368412095E-01  0.51100000000E-03 0. -1.
         11    1    4    4    0    0  0.25675043302E-01 -0.95661226470E-01 -0.45414644270E-01  0.10896343026E+00  0.51100000000E-03 0.  1.
</event>
<event>
 8    1  0.1197213E+005  0.1043930E+01  0.7957747E-01            NaN
         13   -1    0    0    0    0  0.00000000000E+00  0.00000000000E+00  0.74505805969E-08  0.10566000000E+00  0.10566000000E+00 0. -1.
     999900   -1    0    0    0    0 -0.00000000000E+00 -0.00000000000E+00 -0.74505805969E-08  0.93827000000E+00  0.93827000000E+00 0. -1.
     999902    2    1    2    0    0 -0.17124924666E-01  0.51798723131E-02 -0.12575858019E-02  0.10259946817E+01  0.10258379069E+01 0.  0.
     999903    2    3    3    0    0  0.41183201780E-02 -0.13006200255E+00  0.28989199363E-01  0.13489619766E+00  0.20579732609E-01 0.  0.
         14    1    1    2    0    0  0.17124924666E-01 -0.51798723131E-02  0.12575858019E-02  0.17935318343E-01  0.00000000000E+00 0. -1.
     999901    1    3    3    0    0 -0.21243244844E-01  0.13524187487E+00 -0.30246785165E-01  0.89109848400E+00  0.88000000000E+00 0. -1.
        -11    1    4    4    0    0  0.17109688508E-02 -0.75141332727E-01  0.63125672844E-02  0.75427163045E-01  0.51100000000E-03 0.  1.
         11    1    4    4    0    0  0.24073513272E-02 -0.54920669827E-01  0.22676632078E-01  0.59469034615E-01  0.51100000000E-03 0. -1.
</event>
<event>
 8    1  0.1197213E+005  0.1043930E+01  0.7957747E-01            NaN
         13   -1    0    0    0    0  0.00000000000E+00  0.00000000000E+00  0.74505805969E-08  0.10566000000E+00  0.10566000000E+00 0. -1.
     999900   -1    0    0    0    0 -0.00000000000E+00 -0.00000000000E+00 -0.74505805969E-08  0.93827000000E+00  0.93827000000E+00 0.  1.
     999902    2    1    2    0    0 -0.17657592035E-01 -0.20546121909E-01 -0.73122827006E-02  0.10158692951E+01  0.10154816697E+01 0.  0.
     999903    2    3    3    0    0 -0.96794771721E-02 -0.41260210941E-01  0.11774850794E+00  0.12675011007E+00  0.20119194734E-01 0.  0.
         14    1    1    2    0    0  0.17657592035E-01  0.20546121909E-01  0.73122827006E-02  0.28060704914E-01  0.00000000000E+00 0.  1.
     999901    1    3    3    0    0 -0.79781148630E-02  0.20714089033E-01 -0.12506079064E+00  0.88911918501E+00  0.88000000000E+00 0.  1.
        -11    1    4    4    0    0  0.59138487328E-02 -0.16841778620E-01  0.48519054858E-01  0.51700859946E-01  0.51100000000E-03 0. -1.
         11    1    4    4    0    0 -0.15593325905E-01 -0.24418432321E-01  0.69229453081E-01  0.75049250128E-01  0.51100000000E-03 0.  1.
</event>
<event>
 8    1  0.1197213E+005  0.1043930E+01  0.7957747E-01            NaN
         13   -1    0    0    0    0  0.00000000000E+00  0.00000000000E+00  0.74505805969E-08  0.10566000000E+00  0.10566000000E+00 0.  1.
     999900   -1    0    0    0    0 -0.00000000000E+00 -0.00000000000E+00 -0.74505805969E-08  0.93827000000E+00  0.93827000000E+00 0.  1.
     999902    2    1    2    0    0 -0.16915110411E-01 -0.80061125937E-02  0.13280170379E-01  0.10209826314E+01  0.10207247190E+01 0.  0.
     999903    2    3    3    0    0 -0.16256491510E-01 -0.10226484067E+00  0.81342559415E-01  0.13333538708E+00  0.20960494321E-01 0.  0.
         14    1    1    2    0    0  0.16915110411E-01  0.80061125937E-02 -0.13280170379E-01  0.22947368572E-01  0.00000000000E+00 0. -1.
     999901    1    3    3    0    0 -0.65861890103E-03  0.94258728076E-01 -0.68062389037E-01  0.88764724435E+00  0.88000000000E+00 0. -1.
        -11    1    4    4    0    0 -0.52187682040E-02 -0.66843981233E-01  0.62754640872E-01  0.91835502071E-01  0.51100000000E-03 0. -1.
         11    1    4    4    0    0 -0.11037723306E-01 -0.35420859436E-01  0.18587918544E-01  0.41499885009E-01  0.51100000000E-03 0.  1.
</event>
<event>
 8    1  0.1197213E+005  0.1043930E+01  0.7957747E-01            NaN
         13   -1    0    0    0    0  0.00000000000E+00  0.00000000000E+00  0.74505805969E-08  0.10566000000E+00  0.10566000000E+00 0.  1.
     999900   -1    0    0    0    0 -0.00000000000E+00 -0.00000000000E+00 -0.74505805969E-08  0.93827000000E+00  0.93827000000E+00 0. -1.
     999902    2    1    2    0    0  0.19565004270E-02 -0.32430541346E-02 -0.23057251115E-01  0.10205637396E+01  0.10202962141E+01 0.  0.
     999903    2    3    3    0    0  0.10940942092E+00 -0.44116421991E-01 -0.56761037534E-01  0.13244623191E+00  0.20087530703E-01 0.  0.
         14    1    1    2    0    0 -0.19565004270E-02  0.32430541346E-02  0.23057251115E-01  0.23366260356E-01  0.00000000000E+00 0.  1.
     999901    1    3    3    0    0 -0.10745292050E+00  0.40873367856E-01  0.33703786420E-01  0.88811750773E+00  0.88000000000E+00 0. -1.
        -11    1    4    4    0    0  0.47858428978E-01 -0.87930748963E-02 -0.24694963221E-01  0.54569677659E-01  0.51100000000E-03 0.  1.
         11    1    4    4    0    0  0.61550991944E-01 -0.35323347095E-01 -0.32066074313E-01  0.77876554252E-01  0.51100000000E-03 0. -1.
</event>
<event>
 8    1  0.1197213E+005  0.1043930E+01  0.7957747E-01            NaN
         13   -1    0    0    0    0  0.00000000000E+00  0.00000000000E+00  0.74505805969E-08  0.10566000000E+00  0.10566000000E+00 0. -1.
     999900   -1    0    0    0    0 -0.00000000000E+00 -0.00000000000E+00 -0.74505805969E-08  0.93827000000E+00  0.93827000000E+00 0. -1.
     999902    2    1    2    0    0 -0.21286898973E-01 -0.68105030453E-02  0.35717038179E-02  0.10212965715E+01  0.10210457457E+01 0.  0.
     999903    2    3    3    0    0 -0.42993772193E-01 -0.12231613598E+00 -0.20987216677E-01  0.13314349897E+00  0.21840936037E-01 0.  0.
         14    1    1    2    0    0  0.21286898973E-01  0.68105030453E-02 -0.35717038179E-02  0.22633428547E-01  0.00000000000E+00 0.  1.
     999901    1    3    3    0    0  0.21706873220E-01  0.11550563293E+00  0.24558920495E-01  0.88815307248E+00  0.88000000000E+00 0.  1.
        -11    1    4    4    0    0 -0.28501001467E-01 -0.49045471236E-01 -0.11042117295E-01  0.57792342129E-01  0.51100000000E-03 0.  1.
         11    1    4    4    0    0 -0.14492770726E-01 -0.73270664740E-01 -0.99450993822E-02  0.75351156842E-01  0.51100000000E-03 0. -1.
</event>
<event>
 8    1  0.1197213E+005  0.1043930E+01  0.7957747E-01            NaN
         13   -1    0    0    0    0  0.00000000000E+00  0.00000000000E+00  0.74505805969E-08  0.10566000000E+00  0.10566000000E+00 0.  1.
     999900   -1    0    0    0    0 -0.00000000000E+00 -0.00000000000E+00 -0.74505805969E-08  0.93827000000E+00  0.93827000000E+00 0.  1.
     999902    2    1    2    0    0 -0.91606748271E-02  0.18070516630E-01 -0.97863707579E-02  0.10214303425E+01  0.10211825057E+01 0.  0.
     999903    2    3    3    0    0 -0.80714169432E-01  0.68472220234E-01 -0.80120710260E-01  0.13429610598E+00  0.20319787815E-01 0.  0.
         14    1    1    2    0    0  0.91606748271E-02 -0.18070516630E-01  0.97863707579E-02  0.22499657490E-01  0.00000000000E+00 0.  1.
     999901    1    3    3    0    0  0.71553494605E-01 -0.50401703604E-01  0.70334339502E-01  0.88713423653E+00  0.88000000000E+00 0. -1.
        -11    1    4    4    0    0 -0.19476221624E-01  0.62672384696E-02 -0.16252690718E-01  0.26134509051E-01  0.51100000000E-03 0. -1.
         11    1    4    4    0    0 -0.61237947808E-01  0.62204981765E-01 -0.63868019543E-01  0.10816159693E+00  0.51100000000E-03 0.  1.
</event>
<event>
 8    1  0.1197213E+005  0.1043930E+01  0.7957747E-01            NaN
         13   -1    0    0    0    0  0.00000000000E+00  0.00000000000E+00  0.74505805969E-08  0.10566000000E+00  0.10566000000E+00 0.  1.
     999900   -1    0    0    0    0 -0.00000000000E+00 -0.00000000000E+00 -0.74505805969E-08  0.93827000000E+00  0.93827000000E+00 0. -1.
     999902    2    1    2    0    0  0.10930164695E-01 -0.14494462499E-01 -0.14102257186E-01  0.10209423598E+01  0.10206835310E+01 0.  0.
     999903    2    3    3    0    0 -0.10604568881E+00  0.15272873573E-01  0.68743555499E-01  0.12884770493E+00  0.19927515177E-01 0.  0.
         14    1    1    2    0    0 -0.10930164695E-01  0.14494462499E-01  0.14102257186E-01  0.22987640182E-01  0.00000000000E+00 0. -1.
     999901    1    3    3    0    0  0.11697585350E+00 -0.29767336072E-01 -0.82845812685E-01  0.89209465489E+00  0.88000000000E+00 0.  1.
        -11    1    4    4    0    0 -0.91250017628E-01  0.14416232520E-01  0.50323985604E-01  0.10520056143E+00  0.51100000000E-03 0. -1.
         11    1    4    4    0    0 -0.14795671180E-01  0.85664105250E-03  0.18419569896E-01  0.23647143500E-01  0.51100000000E-03 0.  1.
</event>
<event>
 8    1  0.1197213E+005  0.1043930E+01  0.7957747E-01            NaN
         13   -1    0    0    0    0  0.00000000000E+00  0.00000000000E+00  0.74505805969E-08  0.10566000000E+00  0.10566000000E+00 0. -1.
     999900   -1    0    0    0    0 -0.00000000000E+00 -0.00000000000E+00 -0.74505805969E-08  0.93827000000E+00  0.93827000000E+00 0. -1.
     999902    2    1    2    0    0  0.54628696567E-02 -0.22163664110E-01  0.77213032789E-02  0.10198325006E+01  0.10195477624E+01 0.  0.
     999903    2    3    3    0    0 -0.10076419983E-01  0.75062651753E-01  0.10297610349E+00  0.12923275721E+00  0.19002413441E-01 0.  0.
         14    1    1    2    0    0 -0.54628696567E-02  0.22163664110E-01 -0.77213032789E-02  0.24097499373E-01  0.00000000000E+00 0.  1.
     999901    1    3    3    0    0  0.15539289640E-01 -0.97226315864E-01 -0.95254800214E-01  0.89059974342E+00  0.88000000000E+00 0. -1.
        -11    1    4    4    0    0 -0.65239100698E-03  0.39202597095E-01  0.39105895687E-01  0.55378709189E-01  0.51100000000E-03 0.  1.
         11    1    4    4    0    0 -0.94240289761E-02  0.35860054658E-01  0.63870207806E-01  0.73854048017E-01  0.51100000000E-03 0. -1.
</event>
<event>
 8    1  0.1197213E+005  0.1043930E+01  0.7957747E-01            NaN
         13   -1    0    0    0    0  0.00000000000E+00  0.00000000000E+00  0.74505805969E-08  0.10566000000E+00  0.10566000000E+00 0. -1.
     999900   -1    0    0    0    0 -0.00000000000E+00 -0.00000000000E+00 -0.74505805969E-08  0.93827000000E+00  0.93827000000E+00 0.  1.
     999902    2    1    2    0    0 -0.81952756811E-02  0.22656478180E-01  0.72732621071E-03  0.10198259018E+01  0.10195410058E+01 0.  0.
     999903    2    3    3    0    0 -0.51186095735E-01  0.68999583766E-02  0.11881089331E+00  0.13075885857E+00  0.17726390049E-01 0.  0.
         14    1    1    2    0    0  0.81952756811E-02 -0.22656478180E-01 -0.72732621071E-03  0.24104098208E-01  0.00000000000E+00 0.  1.
     999901    1    3    3    0    0  0.42990820054E-01  0.15756519803E-01 -0.11808356710E+00  0.88906704322E+00  0.88000000000E+00 0.  1.
        -11    1    4    4    0    0 -0.40308893378E-01  0.59926508543E-03  0.74654997346E-01  0.84845717357E-01  0.51100000000E-03 0.  1.
         11    1    4    4    0    0 -0.10877202357E-01  0.63006932911E-02  0.44155895960E-01  0.45913141214E-01  0.51100000000E-03 0. -1.
</event>
<event>
 8    1  0.1197213E+005  0.1043930E+01  0.7957747E-01            NaN
         13   -1    0    0    0    0  0.00000000000E+00  0.00000000000E+00  0.74505805969E-08  0.10566000000E+00  0.10566000000E+00 0.  1.
     999900   -1    0    0    0    0 -0.00000000000E+00 -0.00000000000E+00 -0.74505805969E-08  0.93827000000E+00  0.93827000000E+00 0. -1.
     999902    2    1    2    0    0 -0.18490263404E-01  0.15977670168E-01 -0.39275255394E-02  0.10191792174E+01  0.10188786365E+01 0.  0.
     999903    2    3    3    0    0  0.32377555053E-01  0.11003610977E+00 -0.59707088777E-01  0.13095295975E+00  0.20675823880E-01 0.  0.
         14    1    1    2    0    0  0.18490263404E-01 -0.15977670168E-01  0.39275255394E-02  0.24750782646E-01  0.00000000000E+00 0. -1.
     999901    1    3    3    0    0 -0.50867818457E-01 -0.94058439603E-01  0.55779563238E-01  0.88822625760E+00  0.88000000000E+00 0.  1.
        -11    1    4    4    0    0  0.11610518813E-01  0.18280150787E-01 -0.17469517930E-01  0.27828281255E-01  0.51100000000E-03 0. -1.
         11    1    4    4    0    0  0.20767036239E-01  0.91755958985E-01 -0.42237570847E-01  0.10312467850E+00  0.51100000000E-03 0.  1.
</event>
<event>
 8    1  0.1197213E+005  0.1043930E+01  0.7957747E-01            NaN
         13   -1    0    0    0    0  0.00000000000E+00  0.00000000000E+00  0.74505805969E-08  0.10566000000E+00  0.10566000000E+00 0.  1.
     999900   -1    0    0    0    0 -0.00000000000E+00 -0.00000000000E+00 -0.74505805969E-08  0.93827000000E+00  0.93827000000E+00 0. -1.
     999902    2    1    2    0    0  0.25118508385E-02 -0.14536488505E-01 -0.20159714478E-01  0.10189493479E+01  0.10186430879E+01 0.  0.
     999903    2    3    3    0    0 -0.11160202944E-01  0.17710459616E-01  0.12326936831E+00  0.12664968268E+00  0.20164187291E-01 0.  0.
         14    1    1    2    0    0 -0.25118508385E-02  0.14536488505E-01  0.20159714478E-01  0.24980652124E-01  0.00000000000E+00 0.  1.
     999901    1    3    3    0    0  0.13672053783E-01 -0.32246948121E-01 -0.14342908279E+00  0.89229966520E+00  0.88000000000E+00 0. -1.
        -11    1    4    4    0    0 -0.16534432320E-01  0.92508031004E-02  0.76114810604E-01  0.78439086713E-01  0.51100000000E-03 0. -1.
         11    1    4    4    0    0  0.53742293753E-02  0.84596565156E-02  0.47154557710E-01  0.48210595968E-01  0.51100000000E-03 0.  1.
</event>
<event>
 8    1  0.1197213E+005  0.1043930E+01  0.7957747E-01            NaN
         13   -1    0    0    0    0  0.00000000000E+00  0.00000000000E+00  0.74505805969E-08  0.10566000000E+00  0.10566000000E+00 0. -1.
     999900   -1    0    0    0    0 -0.00000000000E+00 -0.00000000000E+00 -0.74505805969E-08  0.93827000000E+00  0.93827000000E+00 0. -1.
     999902    2    1    2    0    0  0.84399520293E-02 -0.13155396950E-01  0.27432916940E-01  0.10123568755E+01  0.10118644085E+01 0.  0.
     999903    2    3    3    0    0 -0.52598878608E-01  0.67005753644E-01 -0.81963879308E-01  0.11987762759E+00  0.19903643722E-01 0.  0.
         14    1    1    2    0    0 -0.84399520293E-02  0.13155396950E-01 -0.27432916940E-01  0.31573124505E-01  0.00000000000E+00 0.  1.
     999901    1    3    3    0    0  0.61038830637E-01 -0.80161150595E-01  0.10939679625E+00  0.89247924790E+00  0.88000000000E+00 0.  1.
        -11    1    4    4    0    0 -0.79899094035E-02  0.18917541572E-01 -0.11234390375E-01  0.23413344048E-01  0.51100000000E-03 0.  1.
         11    1    4    4    0    0 -0.44608969204E-01  0.48088212072E-01 -0.70729488933E-01  0.96464283543E-01  0.51100000000E-03 0. -1.
</event>
<event>
 8    1  0.1197213E+005  0.1043930E+01  0.7957747E-01            NaN
         13   -1    0    0    0    0  0.00000000000E+00  0.00000000000E+00  0.74505805969E-08  0.10566000000E+00  0.10566000000E+00 0.  1.
     999900   -1    0    0    0    0 -0.00000000000E+00 -0.00000000000E+00 -0.74505805969E-08  0.93827000000E+00  0.93827000000E+00 0. -1.
     999902    2    1    2    0    0 -0.89724760904E-03 -0.32452772789E-02 -0.23521108971E-01  0.10201691194E+01  0.10198923731E+01 0.  0.
     999903    2    3    3    0    0  0.80335787609E-01 -0.99812387459E-01 -0.55907594905E-02  0.13098662399E+00  0.26643716171E-01 0.  0.
         14    1    1    2    0    0  0.89724760904E-03  0.32452772789E-02  0.23521108971E-01  0.23760880563E-01  0.00000000000E+00 0.  1.
     999901    1    3    3    0    0 -0.81233035218E-01  0.96567110180E-01 -0.17930349480E-01  0.88918249545E+00  0.88000000000E+00 0.  1.
        -11    1    4    4    0    0  0.75035830872E-01 -0.97313924092E-01 -0.18596442272E-04  0.12288464999E+00  0.51100000000E-03 0. -1.
         11    1    4    4    0    0  0.52999567375E-02 -0.24984633664E-02 -0.55721630482E-02  0.81019739970E-02  0.51100000000E-03 0.  1.
</event>
<event>
 8    1  0.1197213E+005  0.1043930E+01  0.7957747E-01            NaN
         13   -1    0    0    0    0  0.00000000000E+00  0.00000000000E+00  0.74505805969E-08  0.10566000000E+00  0.10566000000E+00 0.  1.
     999900   -1    0    0    0    0 -0.00000000000E+00 -0.00000000000E+00 -0.74505805969E-08  0.93827000000E+00  0.93827000000E+00 0. -1.
     999902    2    1    2    0    0 -0.20606023498E-01 -0.65045343071E-02 -0.10373818993E-01  0.10199605759E+01  0.10196788922E+01 0.  0.
     999903    2    3    3    0    0 -0.59381768312E-01 -0.92852369935E-01  0.68674151579E-01  0.13136162882E+00  0.19798520688E-01 0.  0.
         14    1    1    2    0    0  0.20606023498E-01  0.65045343071E-02  0.10373818993E-01  0.23969424095E-01  0.00000000000E+00 0.  1.
     999901    1    3    3    0    0  0.38775744814E-01  0.86347835628E-01 -0.79047970572E-01  0.88859894708E+00  0.88000000000E+00 0. -1.
        -11    1    4    4    0    0 -0.28942453778E-01 -0.35182795055E-01  0.37850815266E-01  0.59232086202E-01  0.51100000000E-03 0. -1.
         11    1    4    4    0    0 -0.30439314534E-01 -0.57669574881E-01  0.30823336313E-01  0.72129542621E-01  0.51100000000E-03 0.  1.
</event>
<event>
 8    1  0.1197213E+005  0.1043930E+01  0.7957747E-01            NaN
         13   -1    0    0    0    0  0.00000000000E+00  0.00000000000E+00  0.74505805969E-08  0.10566000000E+00  0.10566000000E+00 0. -1.
     999900   -1    0    0    0    0 -0.00000000000E+00 -0.00000000000E+00 -0.74505805969E-08  0.93827000000E+00  0.93827000000E+00 0.  1.
     999902    2    1    2    0    0 -0.63894338647E-02  0.20755584296E-01 -0.90194378353E-02  0.10204146985E+01  0.10201437093E+01 0.  0.
     999903    2    3    3    0    0 -0.58412475594E-01 -0.10915915048E+00  0.28182126591E-01  0.12858052583E+00  0.20272689177E-01 0.  0.
         14    1    1    2    0    0  0.63894338647E-02 -0.20755584296E-01  0.90194378353E-02  0.23515301475E-01  0.00000000000E+00 0. -1.
     999901    1    3    3    0    0  0.52023041729E-01  0.12991473478E+00 -0.37201564427E-01  0.89183417269E+00  0.88000000000E+00 0.  1.
        -11    1    4    4    0    0 -0.48451268648E-01 -0.95781575459E-01  0.30842010058E-01  0.11168315153E+00  0.51100000000E-03 0.  1.
         11    1    4    4    0    0 -0.99612069458E-02 -0.13377575020E-01 -0.26598834666E-02  0.16897374302E-01  0.51100000000E-03 0. -1.
</event>
<event>
 8    1  0.1197213E+005  0.1043930E+01  0.7957747E-01            NaN
         13   -1    0    0    0    0  0.00000000000E+00  0.00000000000E+00  0.74505805969E-08  0.10566000000E+00  0.10566000000E+00 0. -1.
     999900   -1    0    0    0    0 -0.00000000000E+00 -0.00000000000E+00 -0.74505805969E-08  0.93827000000E+00  0.93827000000E+00 0.  1.
     999902    2    1    2    0    0 -0.19530056513E-01 -0.90754386515E-02  0.64354960962E-02  0.10214532942E+01  0.10212059684E+01 0.  0.
     999903    2    3    3    0    0  0.62364631498E-02 -0.11706073524E+00  0.59236987738E-01  0.13290800253E+00  0.20332417738E-01 0.  0.
         14    1    1    2    0    0  0.19530056513E-01  0.90754386515E-02 -0.64354960962E-02  0.22476705811E-01  0.00000000000E+00 0.  1.
     999901    1    3    3    0    0 -0.25766519663E-01  0.10798529659E+00 -0.52801491642E-01  0.88854529166E+00  0.88000000000E+00 0.  1.
        -11    1    4    4    0    0  0.41616720284E-02 -0.10756745408E+00  0.59831574187E-01  0.12315906415E+00  0.51100000000E-03 0.  1.
         11    1    4    4    0    0  0.20747911214E-02 -0.94932811645E-02 -0.59458644961E-03  0.97489383787E-02  0.51100000000E-03 0. -1.
</event>
<event>
 8    1  0.1197213E+005  0.1043930E+01  0.7957747E-01            NaN
         13   -1    0    0    0    0  0.00000000000E+00  0.00000000000E+00  0.74505805969E-08  0.10566000000E+00  0.10566000000E+00 0.  1.
     999900   -1    0    0    0    0 -0.00000000000E+00 -0.00000000000E+00 -0.74505805969E-08  0.93827000000E+00  0.93827000000E+00 0. -1.
     999902    2    1    2    0    0  0.74519721698E-02 -0.17512574143E-01  0.11696418391E-01  0.10215910576E+01  0.10213467877E+01 0.  0.
     999903    2    3    3    0    0  0.18982756706E-01  0.92551630868E-01 -0.85951316523E-01  0.12930065181E+00  0.20121638036E-01 0.  0.
         14    1    1    2    0    0 -0.74519721698E-02  0.17512574143E-01 -0.11696418391E-01  0.22338942354E-01  0.00000000000E+00 0. -1.
     999901    1    3    3    0    0 -0.11530784536E-01 -0.11006420501E+00  0.97647734914E-01  0.89229040584E+00  0.88000000000E+00 0.  1.
        -11    1    4    4    0    0  0.37888269840E-02  0.11190250465E-01 -0.20954851645E-01  0.24061251917E-01  0.51100000000E-03 0.  1.
         11    1    4    4    0    0  0.15193929722E-01  0.81361380404E-01 -0.64996464879E-01  0.10523939989E+00  0.51100000000E-03 0. -1.
</event>
<event>
 8    1  0.1197213E+005  0.1043930E+01  0.7957747E-01            NaN
         13   -1    0    0    0    0  0.00000000000E+00  0.00000000000E+00  0.74505805969E-08  0.10566000000E+00  0.10566000000E+00 0.  1.
     999900   -1    0    0    0    0 -0.00000000000E+00 -0.00000000000E+00 -0.74505805969E-08  0.93827000000E+00  0.93827000000E+00 0. -1.
     999902    2    1    2    0    0  0.22965515263E-01  0.47692901620E-02 -0.50652282299E-02  0.10199338012E+01  0.10196514803E+01 0.  0.
     999903    2    3    3    0    0 -0.75013546037E-01  0.88811534293E-01 -0.53017332056E-01  0.12922487034E+00  0.19331552007E-01 0.  0.
         14    1    1    2    0    0 -0.22965515263E-01 -0.47692901620E-02  0.50652282299E-02  0.23996198802E-01  0.00000000000E+00 0. -1.
     999901    1    3    3    0    0  0.97979061300E-01 -0.84042244131E-01  0.47952103826E-01  0.89070893086E+00  0.88000000000E+00 0. -1.
        -11    1    4    4    0    0 -0.17041876028E-01  0.30881999601E-01 -0.10003524729E-01  0.36666811504E-01  0.51100000000E-03 0.  1.
         11    1    4    4    0    0 -0.57971670009E-01  0.57929534693E-01 -0.43013807327E-01  0.92558058834E-01  0.51100000000E-03 0. -1.
</event>
<event>
 7    1  0.1197213E+005  0.1043930E+01  0.7957747E-01            NaN
         13   -1    0    0    0    0  0.00000000000E+00  0.00000000000E+00  0.74505805969E-08  0.10566000000E+00  0.10566000000E+00 0.  1.
     999900   -1    0    0    0    0 -0.00000000000E+00 -0.00000000000E+00 -0.74505805969E-08  0.93827000000E+00  0.93827000000E+00 0. -1.
     999903    2    1    2    0    0 -0.32070953612E-01  0.74836178702E-01  0.12520545106E-01  0.84734424000E-01  0.19853434279E-01 0.  0.
         14    1    1    2    0    0 -0.24131727304E-01 -0.24345103123E-01  0.64049527692E-01  0.72645483730E-01  0.00000000000E+00 0.  1.
     999901    1    1    2    0    0  0.56202680916E-01 -0.50491075578E-01 -0.76570072798E-01  0.88655009227E+00  0.88000000000E+00 0. -1.
        -11    1    3    3    0    0 -0.73596068401E-02  0.29996162654E-01 -0.34948981483E-02  0.31087119855E-01  0.51100000000E-03 0.  1.
         11    1    3    3    0    0 -0.24711346772E-01  0.44840016047E-01  0.16015443254E-01  0.53647304145E-01  0.51100000000E-03 0. -1.
</event>
<event>
 7    1  0.1197213E+005  0.1043930E+01  0.7957747E-01            NaN
         13   -1    0    0    0    0  0.00000000000E+00  0.00000000000E+00  0.74505805969E-08  0.10566000000E+00  0.10566000000E+00 0. -1.
     999900   -1    0    0    0    0 -0.00000000000E+00 -0.00000000000E+00 -0.74505805969E-08  0.93827000000E+00  0.93827000000E+00 0.  1.
     999903    2    1    2    0    0  0.59133203909E-01  0.86477377426E-01 -0.32269676988E-01  0.11146331687E+00  0.20190748939E-01 0.  0.
         14    1    1    2    0    0  0.26776793472E-01  0.24272023324E-01 -0.17153395977E-01  0.40004584467E-01  0.00000000000E+00 0.  1.
     999901    1    1    2    0    0 -0.85909997381E-01 -0.11074940075E+00  0.49423072965E-01  0.89246209867E+00  0.88000000000E+00 0. -1.
        -11    1    3    3    0    0  0.53146108201E-01  0.68746544885E-01 -0.20276860499E-01  0.89230087097E-01  0.51100000000E-03 0. -1.
         11    1    3    3    0    0  0.59870957074E-02  0.17730832541E-01 -0.11992816489E-01  0.22233229769E-01  0.51100000000E-03 0.  1.
</event>
<event>
 8    1  0.1197213E+005  0.1043930E+01  0.7957747E-01            NaN
         13   -1    0    0    0    0  0.00000000000E+00  0.00000000000E+00  0.74505805969E-08  0.10566000000E+00  0.10566000000E+00 0.  1.
     999900   -1    0    0    0    0 -0.00000000000E+00 -0.00000000000E+00 -0.74505805969E-08  0.93827000000E+00  0.93827000000E+00 0.  1.
     999902    2    1    2    0    0 -0.35679772724E-02 -0.22821948158E-01 -0.35371756274E-02  0.10205615728E+01  0.10202939971E+01 0.  0.
     999903    2    3    3    0    0  0.75427027673E-01 -0.56264113982E-01  0.89204985881E-01  0.13153980826E+00  0.22142823326E-01 0.  0.
         14    1    1    2    0    0  0.35679772724E-02  0.22821948158E-01  0.35371756274E-02  0.23368427225E-01  0.00000000000E+00 0. -1.
     999901    1    3    3    0    0 -0.78995004946E-01  0.33442165824E-01 -0.92742161509E-01  0.88902176452E+00  0.88000000000E+00 0.  1.
        -11    1    4    4    0    0  0.31331822177E-01 -0.12218424575E-01  0.23865208005E-01  0.41240541390E-01  0.51100000000E-03 0.  1.
         11    1    4    4    0    0  0.44095205497E-01 -0.44045689407E-01  0.65339777877E-01  0.90299266869E-01  0.51100000000E-03 0. -1.
</event>
<event>
 8    1  0.1197213E+005  0.1043930E+01  0.7957747E-01            NaN
         13   -1    0    0    0    0  0.00000000000E+00  0.00000000000E+00  0.74505805969E-08  0.10566000000E+00  0.10566000000E+00 0.  1.
     999900   -1    0    0    0    0 -0.00000000000E+00 -0.00000000000E+00 -0.74505805969E-08  0.93827000000E+00  0.93827000000E+00 0.  1.
     999902    2    1    2    0    0 -0.16263549866E-02  0.19704248896E-02 -0.23763929903E-01  0.10200291220E+01  0.10197490661E+01 0.  0.
     999903    2    3    3    0    0 -0.49861892594E-01  0.68858888670E-01 -0.10014207837E+00  0.13287955443E+00  0.20019621433E-01 0.  0.
         14    1    1    2    0    0  0.16263549866E-02 -0.19704248896E-02  0.23763929903E-01  0.23900878002E-01  0.00000000000E+00 0.  1.
     999901    1    3    3    0    0  0.48235537607E-01 -0.66888463780E-01  0.76378148470E-01  0.88714956757E+00  0.88000000000E+00 0. -1.
        -11    1    4    4    0    0 -0.27072792689E-01  0.33998263574E-01 -0.65985068625E-01  0.79013343382E-01  0.51100000000E-03 0.  1.
         11    1    4    4    0    0 -0.22789099905E-01  0.34860625095E-01 -0.34157009749E-01  0.53866211047E-01  0.51100000000E-03 0. -1.
</event>
<event>
 8    1  0.1197213E+005  0.1043930E+01  0.7957747E-01            NaN
         13   -1    0    0    0    0  0.00000000000E+00  0.00000000000E+00  0.74505805969E-08  0.10566000000E+00  0.10566000000E+00 0.  1.
     999900   -1    0    0    0    0 -0.00000000000E+00 -0.00000000000E+00 -0.74505805969E-08  0.93827000000E+00  0.93827000000E+00 0. -1.
     999902    2    1    2    0    0  0.22021613307E-01 -0.10955377207E-01 -0.45968380173E-02  0.10189079565E+01  0.10186006681E+01 0.  0.
     999903    2    3    3    0    0  0.11790200175E-01 -0.59395569298E-01  0.11288598937E+00  0.12972105331E+00  0.20431901609E-01 0.  0.
         14    1    1    2    0    0 -0.22021613307E-01  0.10955377207E-01  0.45968380173E-02  0.25022043525E-01  0.00000000000E+00 0.  1.
     999901    1    3    3    0    0  0.10231413132E-01  0.48440192090E-01 -0.11748282739E+00  0.88918690316E+00  0.88000000000E+00 0. -1.
        -11    1    4    4    0    0 -0.31922511302E-02 -0.29552355281E-01  0.43137647508E-01  0.52389406595E-01  0.51100000000E-03 0.  1.
         11    1    4    4    0    0  0.14982451306E-01 -0.29843214017E-01  0.69748341866E-01  0.77331646717E-01  0.51100000000E-03 0. -1.
</event>
<event>
 8    1  0.1197213E+005  0.1043930E+01  0.7957747E-01            NaN
         13   -1    0    0    0    0  0.00000000000E+00  0.00000000000E+00  0.74505805969E-08  0.10566000000E+00  0.10566000000E+00 0. -1.
     999900   -1    0    0    0    0 -0.00000000000E+00 -0.00000000000E+00 -0.74505805969E-08  0.93827000000E+00  0.93827000000E+00 0.  1.
     999902    2    1    2    0    0  0.10862123275E-01 -0.17611166694E-01  0.11537723716E-01  0.10202391160E+01  0.10199640170E+01 0.  0.
     999903    2    3    3    0    0  0.40985781261E-02 -0.98982483726E-01 -0.84072293169E-01  0.13130249731E+00  0.18917317329E-01 0.  0.
         14    1    1    2    0    0 -0.10862123275E-01  0.17611166694E-01 -0.11537723716E-01  0.23690883962E-01  0.00000000000E+00 0.  1.
     999901    1    3    3    0    0  0.67635451487E-02  0.81371317032E-01  0.95610016885E-01  0.88893661872E+00  0.88000000000E+00 0. -1.
        -11    1    4    4    0    0 -0.10316815645E-02 -0.34623704920E-01 -0.41061467840E-01  0.53723091603E-01  0.51100000000E-03 0. -1.
         11    1    4    4    0    0  0.51302596906E-02 -0.64358778807E-01 -0.43010825329E-01  0.77579405711E-01  0.51100000000E-03 0.  1.
</event>
<event>
 8    1  0.1197213E+005  0.1043930E+01  0.7957747E-01            NaN
         13   -1    0    0    0    0  0.00000000000E+00  0.00000000000E+00  0.74505805969E-08  0.10566000000E+00  0.10566000000E+00 0.  1.
     999900   -1    0    0    0    0 -0.00000000000E+00 -0.00000000000E+00 -0.74505805969E-08  0.93827000000E+00  0.93827000000E+00 0.  1.
     999902    2    1    2    0    0 -0.17468368027E-01  0.24122798202E-02 -0.15549784203E-01  0.10204191777E+01  0.10201482929E+01 0.  0.
     999903    2    3    3    0    0 -0.84196978292E-01  0.41730761454E-01  0.89032172165E-01  0.13084847450E+00  0.19078993532E-01 0.  0.
         14    1    1    2    0    0  0.17468368027E-01 -0.24122798202E-02  0.15549784203E-01  0.23510822279E-01  0.00000000000E+00 0.  1.
     999901    1    3    3    0    0  0.66728610265E-01 -0.39318481634E-01 -0.10458195637E+00  0.88957070322E+00  0.88000000000E+00 0.  1.
        -11    1    4    4    0    0 -0.46048502759E-01  0.31447431430E-01  0.44747635374E-01  0.71498374404E-01  0.51100000000E-03 0.  1.
         11    1    4    4    0    0 -0.38148475534E-01  0.10283330024E-01  0.44284536792E-01  0.59350100099E-01  0.51100000000E-03 0. -1.
</event>
<event>
 8    1  0.1197213E+005  0.1043930E+01  0.7957747E-01            NaN
         13   -1    0    0    0    0  0.00000000000E+00  0.00000000000E+00  0.74505805969E-08  0.10566000000E+00  0.10566000000E+00 0.  1.
     999900   -1    0    0    0    0 -0.00000000000E+00 -0.00000000000E+00 -0.74505805969E-08  0.93827000000E+00  0.93827000000E+00 0.  1.
     999902    2    1    2    0    0 -0.14987863292E-01 -0.14592702179E-01 -0.13377406254E-01  0.10190998167E+01  0.10187972804E+01 0.  0.
     999903    2    3    3    0    0  0.13945511005E-01  0.12436193766E+00  0.10045682137E-01  0.12741928361E+00  0.21780479584E-01 0.  0.
         14    1    1    2    0    0  0.14987863292E-01  0.14592702179E-01  0.13377406254E-01  0.24830183266E-01  0.00000000000E+00 0.  1.
     999901    1    3    3    0    0 -0.28933374296E-01 -0.13895463984E+00 -0.23423088392E-01  0.89168053312E+00  0.88000000000E+00 0.  1.
        -11    1    4    4    0    0  0.16691887455E-01  0.94616363205E-01  0.58463986279E-03  0.96080581897E-01  0.51100000000E-03 0. -1.
         11    1    4    4    0    0 -0.27463764499E-02  0.29745574454E-01  0.94610422746E-02  0.31338701714E-01  0.51100000000E-03 0.  1.
</event>
<event>
 8    1  0.1197213E+005  0.1043930E+01  0.7957747E-01            NaN
         13   -1    0    0    0    0  0.00000000000E+00  0.00000000000E+00  0.74505805969E-08  0.10566000000E+00  0.10566000000E+00 0. -1.
     999900   -1    0    0    0    0 -0.00000000000E+00 -0.00000000000E+00 -0.74505805969E-08  0.93827000000E+00  0.93827000000E+00 0. -1.
     999902    2    1    2    0    0  0.59571122807E-02 -0.44063913568E-02 -0.17593896153E-01  0.10248394617E+01  0.10246616386E+01 0.  0.
     999903    2    3    3    0    0 -0.50601271291E-01 -0.10932250050E+00  0.54666411062E-01  0.13386932037E+00  0.20510501351E-01 0.  0.
         14    1    1    2    0    0 -0.59571122807E-02  0.44063913568E-02  0.17593896153E-01  0.19090538321E-01  0.00000000000E+00 0. -1.
     999901    1    3    3    0    0  0.56558383572E-01  0.10491610914E+00 -0.72260307215E-01  0.89097014131E+00  0.88000000000E+00 0. -1.
        -11    1    4    4    0    0 -0.55984839476E-02 -0.30542302991E-01  0.18835364445E-01  0.36320894390E-01  0.51100000000E-03 0.  1.
         11    1    4    4    0    0 -0.45002787343E-01 -0.78780197508E-01  0.35831046617E-01  0.97548425978E-01  0.51100000000E-03 0. -1.
</event>
<event>
 8    1  0.1197213E+005  0.1043930E+01  0.7957747E-01            NaN
         13   -1    0    0    0    0  0.00000000000E+00  0.00000000000E+00  0.74505805969E-08  0.10566000000E+00  0.10566000000E+00 0. -1.
     999900   -1    0    0    0    0 -0.00000000000E+00 -0.00000000000E+00 -0.74505805969E-08  0.93827000000E+00  0.93827000000E+00 0. -1.
     999902    2    1    2    0    0 -0.16768803699E-01  0.17848558610E-01 -0.70768341533E-02  0.10184379345E+01  0.10181188443E+01 0.  0.
     999903    2    3    3    0    0  0.25778420583E-01 -0.12192192420E+00 -0.46968655185E-02  0.12638876634E+00  0.20556681258E-01 0.  0.
         14    1    1    2    0    0  0.16768803699E-01 -0.17848558610E-01  0.70768341533E-02  0.25492065503E-01  0.00000000000E+00 0. -1.
     999901    1    3    3    0    0 -0.42547224282E-01  0.13977048281E+00 -0.23799686348E-02  0.89204916816E+00  0.88000000000E+00 0.  1.
        -11    1    4    4    0    0  0.21112905265E-01 -0.55085847259E-01  0.21826287631E-02  0.59035839337E-01  0.51100000000E-03 0. -1.
         11    1    4    4    0    0  0.46655153181E-02 -0.66836076936E-01 -0.68794942816E-02  0.67352927004E-01  0.51100000000E-03 0.  1.
</event>
<event>
 8    1  0.1197213E+005  0.1043930E+01  0.7957747E-01            NaN
         13   -1    0    0    0    0  0.00000000000E+00  0.00000000000E+00  0.74505805969E-08  0.10566000000E+00  0.10566000000E+00 0. -1.
     999900   -1    0    0    0    0 -0.00000000000E+00 -0.00000000000E+00 -0.74505805969E-08  0.93827000000E+00  0.93827000000E+00 0. -1.
     999902    2    1    2    0    0 -0.87229591526E-02 -0.16497613668E-01  0.16085690120E-01  0.10192924129E+01  0.10189946085E+01 0.  0.
     999903    2    3    3    0    0 -0.32674039964E-01  0.88966529514E-02 -0.12164810087E+00  0.12789512757E+00  0.20301721331E-01 0.  0.
         14    1    1    2    0    0  0.87229591526E-02  0.16497613668E-01 -0.16085690120E-01  0.24637587134E-01  0.00000000000E+00 0.  1.
     999901    1    3    3    0    0  0.23951080812E-01 -0.25394266620E-01  0.13773379099E+00  0.89139728529E+00  0.88000000000E+00 0.  1.
        -11    1    4    4    0    0 -0.78805265911E-02  0.98524016969E-02 -0.62307889649E-01  0.63574419007E-01  0.51100000000E-03 0.  1.
         11    1    4    4    0    0 -0.24793513373E-01 -0.95574874550E-03 -0.59340211225E-01  0.64320708565E-01  0.51100000000E-03 0. -1.
</event>
<event>
 8    1  0.1197213E+005  0.1043930E+01  0.7957747E-01            NaN
         13   -1    0    0    0    0  0.00000000000E+00  0.00000000000E+00  0.74505805969E-08  0.10566000000E+00  0.10566000000E+00 0.  1.
     999900   -1    0    0    0    0 -0.00000000000E+00 -0.00000000000E+00 -0.74505805969E-08  0.93827000000E+00  0.93827000000E+00 0. -1.
     999902    2    1    2    0    0 -0.10369612191E-01  0.58087460782E-02  0.19892808262E-01  0.10207568645E+01  0.10204937933E+01 0.  0.
     999903    2    3    3    0    0 -0.29346115143E-01 -0.40246768739E-01  0.12215548309E+00  0.13343568659E+00  0.20053018221E-01 0.  0.
         14    1    1    2    0    0  0.10369612191E-01 -0.58087460782E-02 -0.19892808262E-01  0.23173135492E-01  0.00000000000E+00 0. -1.
     999901    1    3    3    0    0  0.18976502953E-01  0.46055514817E-01 -0.10226267483E+00  0.88732117791E+00  0.88000000000E+00 0. -1.
        -11    1    4    4    0    0 -0.31043048680E-01 -0.31309654680E-01  0.93683171694E-01  0.10354111805E+00  0.51100000000E-03 0.  1.
         11    1    4    4    0    0  0.16969335366E-02 -0.89371140593E-02  0.28472311397E-01  0.29894568544E-01  0.51100000000E-03 0. -1.
</event>
<event>
 8    1  0.1197213E+005  0.1043930E+01  0.7957747E-01            NaN
         13   -1    0    0    0    0  0.00000000000E+00  0.00000000000E+00  0.74505805969E-08  0.10566000000E+00  0.10566000000E+00 0.  1.
     999900   -1    0    0    0    0 -0.00000000000E+00 -0.00000000000E+00 -0.74505805969E-08  0.93827000000E+00  0.93827000000E+00 0.  1.
     999902    2    1    2    0    0  0.65703984711E-02  0.15605721057E-01  0.14753784072E-01  0.10214715314E+01  0.10212246113E+01 0.  0.
     999903    2    3    3    0    0 -0.83802909892E-01  0.88120737930E-01 -0.46884509099E-01  0.13173840194E+00  0.19200447727E-01 0.  0.
         14    1    1    2    0    0 -0.65703984711E-02 -0.15605721057E-01 -0.14753784072E-01  0.22458468563E-01  0.00000000000E+00 0.  1.
     999901    1    3    3    0    0  0.90373308363E-01 -0.72515016873E-01  0.61638293171E-01  0.88973312950E+00  0.88000000000E+00 0. -1.
        -11    1    4    4    0    0 -0.48794027512E-02  0.13563334932E-03 -0.15767598363E-02  0.51550228123E-02  0.51100000000E-03 0. -1.
         11    1    4    4    0    0 -0.78923507140E-01  0.87985104581E-01 -0.45307749263E-01  0.12658337913E+00  0.51100000000E-03 0.  1.
</event>
<event>
 8    1  0.1197213E+005  0.1043930E+01  0.7957747E-01            NaN
         13   -1    0    0    0    0  0.00000000000E+00  0.00000000000E+00  0.74505805969E-08  0.10566000000E+00  0.10566000000E+00 0.  1.
     999900   -1    0    0    0    0 -0.00000000000E+00 -0.00000000000E+00 -0.74505805969E-08  0.93827000000E+00  0.93827000000E+00 0.  1.
     999902    2    1    2    0    0 -0.11855001502E-01 -0.64456992860E-02  0.19238376259E-01  0.10204309953E+01  0.10201603859E+01 0.  0.
     999903    2    3    3    0    0  0.10099105884E-01  0.11800181286E+00 -0.46932643258E-01  0.12894472513E+00  0.19941147359E-01 0.  0.
         14    1    1    2    0    0  0.11855001502E-01  0.64456992860E-02 -0.19238376259E-01  0.23499004681E-01  0.00000000000E+00 0. -1.
     999901    1    3    3    0    0 -0.21954107387E-01 -0.12444751215E+00  0.66171019518E-01  0.89148627019E+00  0.88000000000E+00 0. -1.
        -11    1    4    4    0    0  0.37185460044E-04  0.84280053123E-01 -0.27017067539E-01  0.88505998648E-01  0.51100000000E-03 0. -1.
         11    1    4    4    0    0  0.10061920424E-01  0.33721759736E-01 -0.19915575719E-01  0.40438726483E-01  0.51100000000E-03 0.  1.
</event>
<event>
 8    1  0.1197213E+005  0.1043930E+01  0.7957747E-01            NaN
         13   -1    0    0    0    0  0.00000000000E+00  0.00000000000E+00  0.74505805969E-08  0.10566000000E+00  0.10566000000E+00 0. -1.
     999900   -1    0    0    0    0 -0.00000000000E+00 -0.00000000000E+00 -0.74505805969E-08  0.93827000000E+00  0.93827000000E+00 0. -1.
     999902    2    1    2    0    0 -0.33357515673E-02  0.17597165572E-01 -0.16319611926E-01  0.10196994984E+01  0.10194115704E+01 0.  0.
     999903    2    3    3    0    0 -0.90411408567E-01  0.36164323233E-01  0.83058260143E-01  0.12964170766E+00  0.20645016670E-01 0.  0.
         14    1    1    2    0    0  0.33357515673E-02 -0.17597165572E-01  0.16319611926E-01  0.24230501607E-01  0.00000000000E+00 0. -1.
     999901    1    3    3    0    0  0.87075657000E-01 -0.18567157661E-01 -0.99377872069E-01  0.89005779073E+00  0.88000000000E+00 0. -1.
        -11    1    4    4    0    0 -0.33339484727E-01  0.36514915002E-02  0.33018132181E-01  0.47067109596E-01  0.51100000000E-03 0. -1.
         11    1    4    4    0    0 -0.57071923840E-01  0.32512831733E-01  0.50040127962E-01  0.82574598065E-01  0.51100000000E-03 0.  1.
</event>
<event>
 8    1  0.1197213E+005  0.1043930E+01  0.7957747E-01            NaN
         13   -1    0    0    0    0  0.00000000000E+00  0.00000000000E+00  0.74505805969E-08  0.10566000000E+00  0.10566000000E+00 0.  1.
     999900   -1    0    0    0    0 -0.00000000000E+00 -0.00000000000E+00 -0.74505805969E-08  0.93827000000E+00  0.93827000000E+00 0. -1.
     999902    2    1    2    0    0  0.67368677672E-02 -0.17618014862E-01  0.11727322879E-01  0.10217194184E+01  0.10214779782E+01 0.  0.
     999903    2    3    3    0    0 -0.33540320751E-01  0.12192506270E+00  0.35536133580E-02  0.12977696958E+00  0.28961347217E-01 0.  0.
         14    1    1    2    0    0 -0.67368677672E-02  0.17618014862E-01 -0.11727322879E-01  0.22210581643E-01  0.00000000000E+00 0. -1.
     999901    1    3    3    0    0  0.40277188518E-01 -0.13954307757E+00  0.81737095210E-02  0.89194244878E+00  0.88000000000E+00 0.  1.
        -11    1    4    4    0    0 -0.35033429627E-01  0.92333015681E-01  0.10576856727E-01  0.99321991499E-01  0.51100000000E-03 0. -1.
         11    1    4    4    0    0  0.14931088761E-02  0.29592047024E-01 -0.70232433695E-02  0.30454978076E-01  0.51100000000E-03 0.  1.
</event>
<event>
 8    1  0.1197213E+005  0.1043930E+01  0.7957747E-01            NaN
         13   -1    0    0    0    0  0.00000000000E+00  0.00000000000E+00  0.74505805969E-08  0.10566000000E+00  0.10566000000E+00 0. -1.
     999900   -1    0    0    0    0 -0.00000000000E+00 -0.00000000000E+00 -0.74505805969E-08  0.93827000000E+00  0.93827000000E+00 0. -1.
     999902    2    1    2    0    0 -0.11527996421E-01 -0.11174640078E-01 -0.17000166915E-01  0.10205468232E+01  0.10202789057E+01 0.  0.
     999903    2    3    3    0    0  0.11522543244E+00  0.10443029762E-01  0.52184670080E-01  0.12851526711E+00  0.20173669420E-01 0.  0.
         14    1    1    2    0    0  0.11527996421E-01  0.11174640078E-01  0.17000166915E-01  0.23383176805E-01  0.00000000000E+00 0. -1.
     999901    1    3    3    0    0 -0.12675342886E+00 -0.21617669840E-01 -0.69184836996E-01  0.89203155608E+00  0.88000000000E+00 0. -1.
        -11    1    4    4    0    0  0.44721159445E-01 -0.72631934118E-03  0.10852833432E-01  0.46027760714E-01  0.51100000000E-03 0. -1.
         11    1    4    4    0    0  0.70504272995E-01  0.11169349103E-01  0.41331836648E-01  0.82487506398E-01  0.51100000000E-03 0.  1.
</event>
<event>
 8    1  0.1197213E+005  0.1043930E+01  0.7957747E-01            NaN
         13   -1    0    0    0    0  0.00000000000E+00  0.00000000000E+00  0.74505805969E-08  0.10566000000E+00  0.10566000000E+00 0.  1.
     999900   -1    0    0    0    0 -0.00000000000E+00 -0.00000000000E+00 -0.74505805969E-08  0.93827000000E+00  0.93827000000E+00 0.  1.
     999902    2    1    2    0    0  0.42905077051E-04 -0.25032873545E-01 -0.78618986565E-02  0.10176915540E+01  0.10173532538E+01 0.  0.
     999903    2    3    3    0    0  0.12145780826E+00 -0.28736994860E-01  0.21675422533E-01  0.12885650035E+00  0.23587277901E-01 0.  0.
         14    1    1    2    0    0 -0.42905077051E-04  0.25032873545E-01  0.78618986565E-02  0.26238446015E-01  0.00000000000E+00 0. -1.
     999901    1    3    3    0    0 -0.12141490318E+00  0.37041213148E-02 -0.29537321190E-01  0.88883505364E+00  0.88000000000E+00 0. -1.
        -11    1    4    4    0    0  0.85389964027E-01 -0.91155736630E-02  0.12507086950E-01  0.86782647947E-01  0.51100000000E-03 0. -1.
         11    1    4    4    0    0  0.36067844234E-01 -0.19621421197E-01  0.91683355834E-02  0.42073852401E-01  0.51100000000E-03 0.  1.
</event>
<event>
 8    1  0.1197213E+005  0.1043930E+01  0.7957747E-01            NaN
         13   -1    0    0    0    0  0.00000000000E+00  0.00000000000E+00  0.74505805969E-08  0.10566000000E+00  0.10566000000E+00 0.  1.
     999900   -1    0    0    0    0 -0.00000000000E+00 -0.00000000000E+00 -0.74505805969E-08  0.93827000000E+00  0.93827000000E+00 0.  1.
     999902    2    1    2    0    0 -0.21022090365E-01  0.81407224132E-02 -0.46503849292E-02  0.10209120565E+01  0.10206525370E+01 0.  0.
     999903    2    3    3    0    0 -0.27920411302E-01 -0.78909713113E-01 -0.98751958408E-01  0.13159744886E+00  0.23656860888E-01 0.  0.
         14    1    1    2    0    0  0.21022090365E-01 -0.81407224132E-02  0.46503849292E-02  0.23017943538E-01  0.00000000000E+00 0.  1.
     999901    1    3    3    0    0  0.68983209375E-02  0.87050435526E-01  0.94101573479E-01  0.88931460760E+00  0.88000000000E+00 0. -1.
        -11    1    4    4    0    0 -0.21696732638E-01 -0.77614571455E-01 -0.90901230384E-01  0.12148277539E+00  0.51100000000E-03 0. -1.
         11    1    4    4    0    0 -0.62236786644E-02 -0.12951416576E-02 -0.78507280244E-02  0.10114673477E-01  0.51100000000E-03 0.  1.
</event>
<event>
 8    1  0.1197213E+005  0.1043930E+01  0.7957747E-01            NaN
         13   -1    0    0    0    0  0.00000000000E+00  0.00000000000E+00  0.74505805969E-08  0.10566000000E+00  0.10566000000E+00 0. -1.
     999900   -1    0    0    0    0 -0.00000000000E+00 -0.00000000000E+00 -0.74505805969E-08  0.93827000000E+00  0.93827000000E+00 0.  1.
     999902    2    1    2    0    0 -0.19662080626E-01 -0.63577073368E-02  0.12360563688E-01  0.10198509346E+01  0.10195666370E+01 0.  0.
     999903    2    3    3    0    0 -0.91072577178E-01  0.92623511712E-01  0.98712764937E-03  0.13135439784E+00  0.19485229660E-01 0.  0.
         14    1    1    2    0    0  0.19662080626E-01  0.63577073368E-02 -0.12360563688E-01  0.24079065426E-01  0.00000000000E+00 0.  1.
     999901    1    3    3    0    0  0.71410496552E-01 -0.98981219049E-01  0.11373436038E-01  0.88849653673E+00  0.88000000000E+00 0.  1.
        -11    1    4    4    0    0 -0.98745576465E-02  0.29748899359E-02 -0.10735368125E-02  0.10381255277E-01  0.51100000000E-03 0.  1.
         11    1    4    4    0    0 -0.81198019532E-01  0.89648621776E-01  0.20606644618E-02  0.12097314256E+00  0.51100000000E-03 0. -1.
</event>
<event>
 8    1  0.1197213E+005  0.1043930E+01  0.7957747E-01            NaN
         13   -1    0    0    0    0  0.00000000000E+00  0.00000000000E+00  0.74505805969E-08  0.10566000000E+00  0.10566000000E+00 0. -1.
     999900   -1    0    0    0    0 -0.00000000000E+00 -0.00000000000E+00 -0.74505805969E-08  0.93827000000E+00  0.93827000000E+00 0.  1.
     999902    2    1    2    0    0  0.11447767327E-01  0.57101942062E-02  0.19742027128E-01  0.10204054314E+01  0.10201342260E+01 0.  0.
     999903    2    3    3    0    0 -0.46804381381E-01  0.79627203484E-01  0.92603424762E-01  0.13239314521E+00  0.20528248081E-01 0.  0.
         14    1    1    2    0    0 -0.11447767327E-01 -0.57101942062E-02 -0.19742027128E-01  0.23524568641E-01  0.00000000000E+00 0.  1.
     999901    1    3    3    0    0  0.58252148708E-01 -0.73917009278E-01 -0.72861397634E-01  0.88801228615E+00  0.88000000000E+00 0.  1.
        -11    1    4    4    0    0 -0.20924049258E-01  0.28658304335E-01  0.48977258053E-01  0.60482618760E-01  0.51100000000E-03 0. -1.
         11    1    4    4    0    0 -0.25880332123E-01  0.50968899149E-01  0.43626166709E-01  0.71910526448E-01  0.51100000000E-03 0.  1.
</event>
<event>
 8    1  0.1197213E+005  0.1043930E+01  0.7957747E-01            NaN
         13   -1    0    0    0    0  0.00000000000E+00  0.00000000000E+00  0.74505805969E-08  0.10566000000E+00  0.10566000000E+00 0.  1.
     999900   -1    0    0    0    0 -0.00000000000E+00 -0.00000000000E+00 -0.74505805969E-08  0.93827000000E+00  0.93827000000E+00 0.  1.
     999902    2    1    2    0    0 -0.14153017399E-01  0.18207910712E-01 -0.75920502440E-02  0.10196508909E+01  0.10193617925E+01 0.  0.
     999903    2    3    3    0    0 -0.94761006075E-02 -0.86741307623E-01 -0.93493781881E-01  0.12924911667E+00  0.18718866891E-01 0.  0.
         14    1    1    2    0    0  0.14153017399E-01 -0.18207910712E-01  0.75920502440E-02  0.24279109145E-01  0.00000000000E+00 0.  1.
     999901    1    3    3    0    0 -0.46769167910E-02  0.10494921834E+00  0.85901731637E-01  0.89040177419E+00  0.88000000000E+00 0. -1.
        -11    1    4    4    0    0  0.31678511341E-02 -0.25586121467E-01 -0.36577060592E-01  0.44752959400E-01  0.51100000000E-03 0.  1.
         11    1    4    4    0    0 -0.12643951742E-01 -0.61155186156E-01 -0.56916721289E-01  0.84496157266E-01  0.51100000000E-03 0. -1.
</event>
<event>
 8    1  0.1197213E+005  0.1043930E+01  0.7957747E-01            NaN
         13   -1    0    0    0    0  0.00000000000E+00  0.00000000000E+00  0.74505805969E-08  0.10566000000E+00  0.10566000000E+00 0.  1.
     999900   -1    0    0    0    0 -0.00000000000E+00 -0.00000000000E+00 -0.74505805969E-08  0.93827000000E+00  0.93827000000E+00 0.  1.
     999902    2    1    2    0    0 -0.16675243295E-01 -0.11101655138E-01  0.11599548583E-01  0.10207813496E+01  0.10205188405E+01 0.  0.
     999903    2    3    3    0    0  0.87862802006E-01  0.70535318063E-01 -0.57638397139E-01  0.12815226014E+00  0.20142340574E-01 0.  0.
         14    1    1    2    0    0  0.16675243295E-01  0.11101655138E-01 -0.11599548583E-01  0.23148650351E-01  0.00000000000E+00 0. -1.
     999901    1    3    3    0    0 -0.10453804530E+00 -0.81636973200E-01  0.69237945722E-01  0.89262908951E+00  0.88000000000E+00 0. -1.
        -11    1    4    4    0    0  0.31138578324E-01  0.24544126509E-01 -0.97827100702E-02  0.40841005662E-01  0.51100000000E-03 0. -1.
         11    1    4    4    0    0  0.56724223682E-01  0.45991191554E-01 -0.47855687068E-01  0.87311254479E-01  0.51100000000E-03 0.  1.
</event>
<event>
 8    1  0.1197213E+005  0.1043930E+01  0.7957747E-01            NaN
         13   -1    0    0    0    0  0.00000000000E+00  0.00000000000E+00  0.74505805969E-08  0.10566000000E+00  0.10566000000E+00 0. -1.
     999900   -1    0    0    0    0 -0.00000000000E+00 -0.00000000000E+00 -0.74505805969E-08  0.93827000000E+00  0.93827000000E+00 0. -1.
     999902    2    1    2    0    0  0.14221710053E-01 -0.15766837782E-01  0.10047413341E-01  0.10204395610E+01  0.10201691511E+01 0.  0.
     999903    2    3    3    0    0  0.82384645439E-01  0.75628519271E-01 -0.63002011790E-01  0.13008260135E+00  0.21102771217E-01 0.  0.
         14    1    1    2    0    0 -0.14221710053E-01  0.15766837782E-01 -0.10047413341E-01  0.23490439019E-01  0.00000000000E+00 0. -1.
     999901    1    3    3    0    0 -0.68162935386E-01 -0.91395357053E-01  0.73049425131E-01  0.89035695963E+00  0.88000000000E+00 0.  1.
        -11    1    4    4    0    0  0.19583095469E-01  0.30673293676E-01 -0.16824915587E-01  0.40095978334E-01  0.51100000000E-03 0. -1.
         11    1    4    4    0    0  0.62801549970E-01  0.44955225595E-01 -0.46177096204E-01  0.89986623016E-01  0.51100000000E-03 0.  1.
</event>
<event>
 8    1  0.1197213E+005  0.1043930E+01  0.7957747E-01            NaN
         13   -1    0    0    0    0  0.00000000000E+00  0.00000000000E+00  0.74505805969E-08  0.10566000000E+00  0.10566000000E+00 0.  1.
     999900   -1    0    0    0    0 -0.00000000000E+00 -0.00000000000E+00 -0.74505805969E-08  0.93827000000E+00  0.93827000000E+00 0.  1.
     999902    2    1    2    0    0 -0.61036673371E-02  0.24274354067E-01 -0.15674753857E-01  0.10143970196E+01  0.10139670194E+01 0.  0.
     999903    2    3    3    0    0 -0.52747164310E-01  0.77977548857E-01  0.81423244922E-01  0.12620353267E+00  0.20852466887E-01 0.  0.
         14    1    1    2    0    0  0.61036673371E-02 -0.24274354067E-01  0.15674753857E-01  0.29532980358E-01  0.00000000000E+00 0. -1.
     999901    1    3    3    0    0  0.46643496973E-01 -0.53703194789E-01 -0.97097998779E-01  0.88819348698E+00  0.88000000000E+00 0.  1.
        -11    1    4    4    0    0 -0.34680869021E-01  0.54449085761E-01  0.42620121593E-01  0.77357620839E-01  0.51100000000E-03 0. -1.
         11    1    4    4    0    0 -0.18066295289E-01  0.23528463096E-01  0.38803123329E-01  0.48845911827E-01  0.51100000000E-03 0.  1.
</event>
<event>
 8    1  0.1197213E+005  0.1043930E+01  0.7957747E-01            NaN
         13   -1    0    0    0    0  0.00000000000E+00  0.00000000000E+00  0.74505805969E-08  0.10566000000E+00  0.10566000000E+00 0. -1.
     999900   -1    0    0    0    0 -0.00000000000E+00 -0.00000000000E+00 -0.74505805969E-08  0.93827000000E+00  0.93827000000E+00 0. -1.
     999902    2    1    2    0    0 -0.82671455040E-02 -0.21817403360E-02 -0.21570334257E-01  0.10207268751E+01  0.10204631147E+01 0.  0.
     999903    2    3    3    0    0  0.10432777888E+00 -0.74911170718E-01 -0.11813415029E-01  0.13052331156E+00  0.20020218324E-01 0.  0.
         14    1    1    2    0    0  0.82671455040E-02  0.21817403360E-02  0.21570334257E-01  0.23203124911E-01  0.00000000000E+00 0. -1.
     999901    1    3    3    0    0 -0.11259492439E+00  0.72729430382E-01 -0.97569192279E-02  0.89020356353E+00  0.88000000000E+00 0. -1.
        -11    1    4    4    0    0  0.49840603822E-01 -0.33277250083E-01  0.42860673497E-02  0.60084046607E-01  0.51100000000E-03 0. -1.
         11    1    4    4    0    0  0.54487175061E-01 -0.41633920636E-01 -0.16099482379E-01  0.70439264955E-01  0.51100000000E-03 0.  1.
</event>
<event>
 8    1  0.1197213E+005  0.1043930E+01  0.7957747E-01            NaN
         13   -1    0    0    0    0  0.00000000000E+00  0.00000000000E+00  0.74505805969E-08  0.10566000000E+00  0.10566000000E+00 0.  1.
     999900   -1    0    0    0    0 -0.00000000000E+00 -0.00000000000E+00 -0.74505805969E-08  0.93827000000E+00  0.93827000000E+00 0. -1.
     999902    2    1    2    0    0  0.48720970054E-02  0.18791982778E-01 -0.12917645311E-01  0.10206117345E+01  0.10203453195E+01 0.  0.
     999903    2    3    3    0    0  0.10966966506E+00 -0.60336561579E-01 -0.31470513923E-01  0.13067462113E+00  0.20433483872E-01 0.  0.
         14    1    1    2    0    0 -0.48720970054E-02 -0.18791982778E-01  0.12917645311E-01  0.23318265509E-01  0.00000000000E+00 0.  1.
     999901    1    3    3    0    0 -0.10479756806E+00  0.79128544358E-01  0.18552868612E-01  0.88993711336E+00  0.88000000000E+00 0.  1.
        -11    1    4    4    0    0  0.68268496188E-01 -0.39441633231E-01 -0.96935362062E-02  0.79438377179E-01  0.51100000000E-03 0.  1.
         11    1    4    4    0    0  0.41401168874E-01 -0.20894928348E-01 -0.21776977716E-01  0.51236243951E-01  0.51100000000E-03 0. -1.
</event>
<event>
 8    1  0.1197213E+005  0.1043930E+01  0.7957747E-01            NaN
         13   -1    0    0    0    0  0.00000000000E+00  0.00000000000E+00  0.74505805969E-08  0.10566000000E+00  0.10566000000E+00 0. -1.
     999900   -1    0    0    0    0 -0.00000000000E+00 -0.00000000000E+00 -0.74505805969E-08  0.93827000000E+00  0.93827000000E+00 0. -1.
     999902    2    1    2    0    0  0.95688974780E-02  0.66263651270E-02 -0.20563822310E-01  0.10203007109E+01  0.10200270572E+01 0.  0.
     999903    2    3    3    0    0 -0.33870562221E-01 -0.12321211365E+00 -0.13935519988E-01  0.12968915048E+00  0.17223155862E-01 0.  0.
         14    1    1    2    0    0 -0.95688974780E-02 -0.66263651270E-02  0.20563822310E-01  0.23629289065E-01  0.00000000000E+00 0. -1.
     999901    1    3    3    0    0  0.43439459699E-01  0.12983847878E+00 -0.66283023218E-02  0.89061156046E+00  0.88000000000E+00 0. -1.
        -11    1    4    4    0    0 -0.16400339857E-01 -0.85793717965E-01 -0.13514739686E-01  0.88388022376E-01  0.51100000000E-03 0.  1.
         11    1    4    4    0    0 -0.17470222364E-01 -0.37418395688E-01 -0.42078030224E-03  0.41301128100E-01  0.51100000000E-03 0. -1.
</event>
<event>
 8    1  0.1197213E+005  0.1043930E+01  0.7957747E-01            NaN
         13   -1    0    0    0    0  0.00000000000E+00  0.00000000000E+00  0.74505805969E-08  0.10566000000E+00  0.10566000000E+00 0. -1.
     999900   -1    0    0    0    0 -0.00000000000E+00 -0.00000000000E+00 -0.74505805969E-08  0.93827000000E+00  0.93827000000E+00 0. -1.
     999902    2    1    2    0    0 -0.19078798281E-01  0.40212839713E-02 -0.13758714174E-01  0.10200663564E+01  0.10197871827E+01 0.  0.
     999903    2    3    3    0    0 -0.10549839369E+00  0.77985326119E-01  0.57890671055E-02  0.13252979845E+00  0.17860907506E-01 0.  0.
         14    1    1    2    0    0  0.19078798281E-01 -0.40212839713E-02  0.13758714174E-01  0.23863643569E-01  0.00000000000E+00 0. -1.
     999901    1    3    3    0    0  0.86419595413E-01 -0.73964042148E-01 -0.19547781280E-01  0.88753655798E+00  0.88000000000E+00 0.  1.
        -11    1    4    4    0    0 -0.52302184720E-01  0.48921810384E-01  0.64343222088E-02  0.71906353551E-01  0.51100000000E-03 0. -1.
         11    1    4    4    0    0 -0.53196208974E-01  0.29063515735E-01 -0.64525510329E-03  0.60623444898E-01  0.51100000000E-03 0.  1.
</event>
<event>
 8    1  0.1197213E+005  0.1043930E+01  0.7957747E-01            NaN
         13   -1    0    0    0    0  0.00000000000E+00  0.00000000000E+00  0.74505805969E-08  0.10566000000E+00  0.10566000000E+00 0. -1.
     999900   -1    0    0    0    0 -0.00000000000E+00 -0.00000000000E+00 -0.74505805969E-08  0.93827000000E+00  0.93827000000E+00 0.  1.
     999902    2    1    2    0    0 -0.99934206689E-02  0.21546600352E-01 -0.19694971831E-02  0.10200971789E+01  0.10198187344E+01 0.  0.
     999903    2    3    3    0    0 -0.99851246051E-03  0.10803748438E+00  0.73644012374E-01  0.13258437096E+00  0.21956315839E-01 0.  0.
         14    1    1    2    0    0  0.99934206689E-02 -0.21546600352E-01  0.19694971831E-02  0.23832821120E-01  0.00000000000E+00 0.  1.
     999901    1    3    3    0    0 -0.89949082084E-02 -0.86490884031E-01 -0.75613509557E-01  0.88751280792E+00  0.88000000000E+00 0. -1.
        -11    1    4    4    0    0  0.10632230354E-02  0.26460740597E-01  0.30080876792E-01  0.40080188444E-01  0.51100000000E-03 0. -1.
         11    1    4    4    0    0 -0.20617354959E-02  0.81576743787E-01  0.43563135582E-01  0.92504182515E-01  0.51100000000E-03 0.  1.
</event>
<event>
 8    1  0.1197213E+005  0.1043930E+01  0.7957747E-01            NaN
         13   -1    0    0    0    0  0.00000000000E+00  0.00000000000E+00  0.74505805969E-08  0.10566000000E+00  0.10566000000E+00 0.  1.
     999900   -1    0    0    0    0 -0.00000000000E+00 -0.00000000000E+00 -0.74505805969E-08  0.93827000000E+00  0.93827000000E+00 0.  1.
     999902    2    1    2    0    0 -0.28423576284E-02  0.13445169301E-01  0.18365824413E-01  0.10209919294E+01  0.10207342283E+01 0.  0.
     999903    2    3    3    0    0  0.12371523471E-01 -0.10752378031E+00 -0.66586960631E-01  0.12853356928E+00  0.19303812566E-01 0.  0.
         14    1    1    2    0    0  0.28423576284E-02 -0.13445169301E-01 -0.18365824413E-01  0.22938070555E-01  0.00000000000E+00 0. -1.
     999901    1    3    3    0    0 -0.15213881099E-01  0.12096894961E+00  0.84952785044E-01  0.89245836017E+00  0.88000000000E+00 0. -1.
        -11    1    4    4    0    0  0.53551403870E-02 -0.67376846213E-01 -0.30736425296E-01  0.74251639007E-01  0.51100000000E-03 0. -1.
         11    1    4    4    0    0  0.70163830841E-02 -0.40146934097E-01 -0.35850535335E-01  0.54281930269E-01  0.51100000000E-03 0.  1.
</event>
<event>
 8    1  0.1197213E+005  0.1043930E+01  0.7957747E-01            NaN
         13   -1    0    0    0    0  0.00000000000E+00  0.00000000000E+00  0.74505805969E-08  0.10566000000E+00  0.10566000000E+00 0. -1.
     999900   -1    0    0    0    0 -0.00000000000E+00 -0.00000000000E+00 -0.74505805969E-08  0.93827000000E+00  0.93827000000E+00 0. -1.
     999902    2    1    2    0    0 -0.84674789051E-02 -0.31004052141E-02 -0.20573985152E-01  0.10214667060E+01  0.10212196786E+01 0.  0.
     999903    2    3    3    0    0  0.43878257634E-02  0.71370324950E-01  0.10570459597E+00  0.12924620157E+00  0.20448538148E-01 0.  0.
         14    1    1    2    0    0  0.84674789051E-02  0.31004052141E-02  0.20573985152E-01  0.22463293982E-01  0.00000000000E+00 0. -1.
     999901    1    3    3    0    0 -0.12855304668E-01 -0.74470730164E-01 -0.12627858112E+00  0.89222050445E+00  0.88000000000E+00 0. -1.
        -11    1    4    4    0    0 -0.44988903229E-02  0.50368888199E-01  0.62571781274E-01  0.80453426561E-01  0.51100000000E-03 0. -1.
         11    1    4    4    0    0  0.88867160863E-02  0.21001436751E-01  0.43132814696E-01  0.48792775008E-01  0.51100000000E-03 0.  1.
</event>
<event>
 8    1  0.1197213E+005  0.1043930E+01  0.7957747E-01            NaN
         13   -1    0    0    0    0  0.00000000000E+00  0.00000000000E+00  0.74505805969E-08  0.10566000000E+00  0.10566000000E+00 0. -1.
     999900   -1    0    0    0    0 -0.00000000000E+00 -0.00000000000E+00 -0.74505805969E-08  0.93827000000E+00  0.93827000000E+00 0. -1.
     999902    2    1    2    0    0 -0.82191989111E-02 -0.19795001453E-01 -0.99888801072E-02  0.10202831178E+01  0.10200090516E+01 0.  0.
     999903    2    3    3    0    0  0.71989485335E-01  0.21253982121E-01 -0.10504717326E+00  0.13058961371E+00  0.19609203039E-01 0.  0.
         14    1    1    2    0    0  0.82191989111E-02  0.19795001453E-01  0.99888801072E-02  0.23646882227E-01  0.00000000000E+00 0.  1.
     999901    1    3    3    0    0 -0.80208684246E-01 -0.41048983574E-01  0.95058293150E-01  0.88969350407E+00  0.88000000000E+00 0.  1.
        -11    1    4    4    0    0  0.57909756593E-01  0.13214232905E-01 -0.68906458351E-01  0.90975364706E-01  0.51100000000E-03 0.  1.
         11    1    4    4    0    0  0.14079728742E-01  0.80397492160E-02 -0.36140714907E-01  0.39614249001E-01  0.51100000000E-03 0. -1.
</event>
<event>
 8    1  0.1197213E+005  0.1043930E+01  0.7957747E-01            NaN
         13   -1    0    0    0    0  0.00000000000E+00  0.00000000000E+00  0.74505805969E-08  0.10566000000E+00  0.10566000000E+00 0.  1.
     999900   -1    0    0    0    0 -0.00000000000E+00 -0.00000000000E+00 -0.74505805969E-08  0.93827000000E+00  0.93827000000E+00 0. -1.
     999902    2    1    2    0    0  0.23294599114E-01  0.15190110165E-01 -0.48662478352E-02  0.10156977815E+01  0.10153053359E+01 0.  0.
     999903    2    3    3    0    0  0.57630386371E-01 -0.76038724152E-01 -0.81399837602E-01  0.12701390244E+00  0.20086036135E-01 0.  0.
         14    1    1    2    0    0 -0.23294599114E-01 -0.15190110165E-01  0.48662478352E-02  0.28232218522E-01  0.00000000000E+00 0. -1.
     999901    1    3    3    0    0 -0.34335787257E-01  0.91228834317E-01  0.76533589767E-01  0.88868387904E+00  0.88000000000E+00 0.  1.
        -11    1    4    4    0    0  0.48233754080E-02 -0.45231203714E-02 -0.13867789730E-01  0.15372061710E-01  0.51100000000E-03 0. -1.
         11    1    4    4    0    0  0.52807010963E-01 -0.71515603781E-01 -0.67532047873E-01  0.11164184073E+00  0.51100000000E-03 0.  1.
</event>
<event>
 8    1  0.1197213E+005  0.1043930E+01  0.7957747E-01            NaN
         13   -1    0    0    0    0  0.00000000000E+00  0.00000000000E+00  0.74505805969E-08  0.10566000000E+00  0.10566000000E+00 0. -1.
     999900   -1    0    0    0    0 -0.00000000000E+00 -0.00000000000E+00 -0.74505805969E-08  0.93827000000E+00  0.93827000000E+00 0.  1.
     999902    2    1    2    0    0 -0.13304148013E-01 -0.38916566720E-02 -0.20948053616E-01  0.10188109575E+01  0.10185012522E+01 0.  0.
     999903    2    3    3    0    0  0.29976488741E-01  0.11429101801E+00 -0.49091826566E-01  0.12941091811E+00  0.19394628505E-01 0.  0.
         14    1    1    2    0    0  0.13304148013E-01  0.38916566720E-02  0.20948053616E-01  0.25119042503E-01  0.00000000000E+00 0. -1.
     999901    1    3    3    0    0 -0.43280636754E-01 -0.11818267468E+00  0.28143772950E-01  0.88940003939E+00  0.88000000000E+00 0.  1.
        -11    1    4    4    0    0  0.82895672061E-02  0.58890675431E-01 -0.17222308787E-01  0.61916860532E-01  0.51100000000E-03 0. -1.
         11    1    4    4    0    0  0.21686921535E-01  0.55400342577E-01 -0.31869517779E-01  0.67494057574E-01  0.51100000000E-03 0.  1.
</event>
<event>
 8    1  0.1197213E+005  0.1043930E+01  0.7957747E-01            NaN
         13   -1    0    0    0    0  0.00000000000E+00  0.00000000000E+00  0.74505805969E-08  0.10566000000E+00  0.10566000000E+00 0.  1.
     999900   -1    0    0    0    0 -0.00000000000E+00 -0.00000000000E+00 -0.74505805969E-08  0.93827000000E+00  0.93827000000E+00 0. -1.
     999902    2    1    2    0    0  0.19373414788E-01  0.36795312320E-02  0.14591541036E-01  0.10193987705E+01  0.10191035630E+01 0.  0.
     999903    2    3    3    0    0 -0.12451258635E+00  0.10328588551E-01 -0.13538041192E-01  0.12724482377E+00  0.19947498966E-01 0.  0.
         14    1    1    2    0    0 -0.19373414788E-01 -0.36795312320E-02 -0.14591541036E-01  0.24531229493E-01  0.00000000000E+00 0.  1.
     999901    1    3    3    0    0  0.14388600114E+00 -0.66490573188E-02  0.28129582228E-01  0.89215394674E+00  0.88000000000E+00 0.  1.
        -11    1    4    4    0    0 -0.32747483430E-01  0.97221982431E-02 -0.91658363072E-02  0.35372199336E-01  0.51100000000E-03 0.  1.
         11    1    4    4    0    0 -0.91765102921E-01  0.60639030775E-03 -0.43722048851E-02  0.91872624431E-01  0.51100000000E-03 0. -1.
</event>
<event>
 8    1  0.1197213E+005  0.1043930E+01  0.7957747E-01            NaN
         13   -1    0    0    0    0  0.00000000000E+00  0.00000000000E+00  0.74505805969E-08  0.10566000000E+00  0.10566000000E+00 0.  1.
     999900   -1    0    0    0    0 -0.00000000000E+00 -0.00000000000E+00 -0.74505805969E-08  0.93827000000E+00  0.93827000000E+00 0.  1.
     999902    2    1    2    0    0  0.13038531785E-02 -0.61141605920E-02  0.22522021305E-01  0.10205564158E+01  0.10202887206E+01 0.  0.
     999903    2    3    3    0    0 -0.24537228686E-01 -0.12661539960E+00  0.20346184201E-01  0.13196593402E+00  0.19170433555E-01 0.  0.
         14    1    1    2    0    0 -0.13038531785E-02  0.61141605920E-02 -0.22522021305E-01  0.23373584160E-01  0.00000000000E+00 0. -1.
     999901    1    3    3    0    0  0.25841081865E-01  0.12050123901E+00  0.21758371031E-02  0.88859048182E+00  0.88000000000E+00 0. -1.
        -11    1    4    4    0    0 -0.16601399827E-01 -0.54320797330E-01  0.16421930421E-01  0.59129488570E-01  0.51100000000E-03 0.  1.
         11    1    4    4    0    0 -0.79358288597E-02 -0.72294602270E-01  0.39242537804E-02  0.72836445450E-01  0.51100000000E-03 0. -1.
</event>
<event>
 7    1  0.1197213E+005  0.1043930E+01  0.7957747E-01            NaN
         13   -1    0    0    0    0  0.00000000000E+00  0.00000000000E+00  0.74505805969E-08  0.10566000000E+00  0.10566000000E+00 0. -1.
     999900   -1    0    0    0    0 -0.00000000000E+00 -0.00000000000E+00 -0.74505805969E-08  0.93827000000E+00  0.93827000000E+00 0. -1.
     999903    2    1    2    0    0  0.40962883709E-01  0.51009866083E-01 -0.17502308158E-01  0.70597215521E-01  0.19941709279E-01 0.  0.
         14    1    1    2    0    0 -0.20332276528E-01  0.48997873235E-01  0.67698124088E-01  0.86007145374E-01  0.00000000000E+00 0.  1.
     999901    1    1    2    0    0 -0.20630607181E-01 -0.10000773932E+00 -0.50195815930E-01  0.88732563910E+00  0.88000000000E+00 0. -1.
        -11    1    3    3    0    0  0.25859704129E-01  0.16518748025E-01 -0.65559990335E-02  0.31382090088E-01  0.51100000000E-03 0.  1.
         11    1    3    3    0    0  0.15103179580E-01  0.34491118058E-01 -0.10946309124E-01  0.39215125433E-01  0.51100000000E-03 0. -1.
</event>
<event>
 8    1  0.1197213E+005  0.1043930E+01  0.7957747E-01            NaN
         13   -1    0    0    0    0  0.00000000000E+00  0.00000000000E+00  0.74505805969E-08  0.10566000000E+00  0.10566000000E+00 0.  1.
     999900   -1    0    0    0    0 -0.00000000000E+00 -0.00000000000E+00 -0.74505805969E-08  0.93827000000E+00  0.93827000000E+00 0.  1.
     999902    2    1    2    0    0  0.47095580458E-02 -0.21808673602E-01 -0.42221140128E-02  0.10212226349E+01  0.10209701493E+01 0.  0.
     999903    2    3    3    0    0  0.11741278565E+00 -0.15181914393E-01 -0.56169261498E-01  0.13249070821E+00  0.19558861581E-01 0.  0.
         14    1    1    2    0    0 -0.47095580458E-02  0.21808673602E-01  0.42221140128E-02  0.22707365061E-01  0.00000000000E+00 0. -1.
     999901    1    3    3    0    0 -0.11270322761E+00 -0.66267592087E-02  0.51947147485E-01  0.88873192673E+00  0.88000000000E+00 0. -1.
        -11    1    4    4    0    0  0.74526281443E-01 -0.10862718108E-03 -0.34259168873E-01  0.82025180271E-01  0.51100000000E-03 0. -1.
         11    1    4    4    0    0  0.42886504209E-01 -0.15073287212E-01 -0.21910092625E-01  0.50465527942E-01  0.51100000000E-03 0.  1.
</event>
<event>
 8    1  0.1197213E+005  0.1043930E+01  0.7957747E-01            NaN
         13   -1    0    0    0    0  0.00000000000E+00  0.00000000000E+00  0.74505805969E-08  0.10566000000E+00  0.10566000000E+00 0. -1.
     999900   -1    0    0    0    0 -0.00000000000E+00 -0.00000000000E+00 -0.74505805969E-08  0.93827000000E+00  0.93827000000E+00 0. -1.
     999902    2    1    2    0    0  0.15260864429E-01 -0.19320268590E-01 -0.10017294806E-02  0.10192891757E+01  0.10189912921E+01 0.  0.
     999903    2    3    3    0    0  0.89569735937E-02 -0.33371491353E-01  0.12413402494E+00  0.13030316176E+00  0.19384891144E-01 0.  0.
         14    1    1    2    0    0 -0.15260864429E-01  0.19320268590E-01  0.10017294806E-02  0.24640824326E-01  0.00000000000E+00 0.  1.
     999901    1    3    3    0    0  0.63038908350E-02  0.14051222762E-01 -0.12513575442E+00  0.88898601391E+00  0.88000000000E+00 0. -1.
        -11    1    4    4    0    0  0.98971641810E-02 -0.19003470471E-01  0.44693702848E-01  0.49566863367E-01  0.51100000000E-03 0. -1.
         11    1    4    4    0    0 -0.94019058738E-03 -0.14368020881E-01  0.79440322096E-01  0.80736298393E-01  0.51100000000E-03 0.  1.
</event>
<event>
 8    1  0.1197213E+005  0.1043930E+01  0.7957747E-01            NaN
         13   -1    0    0    0    0  0.00000000000E+00  0.00000000000E+00  0.74505805969E-08  0.10566000000E+00  0.10566000000E+00 0. -1.
     999900   -1    0    0    0    0 -0.00000000000E+00 -0.00000000000E+00 -0.74505805969E-08  0.93827000000E+00  0.93827000000E+00 0. -1.
     999902    2    1    2    0    0 -0.15341246148E-01  0.22563286877E-02  0.20008863959E-01  0.10186159824E+01  0.10183013896E+01 0.  0.
     999903    2    3    3    0    0 -0.17519965701E-01  0.65180386876E-01  0.11116254513E+00  0.13166999893E+00  0.20602066544E-01 0.  0.
         14    1    1    2    0    0  0.15341246148E-01 -0.22563286877E-02 -0.20008863959E-01  0.25314017647E-01  0.00000000000E+00 0.  1.
     999901    1    3    3    0    0  0.21787195529E-02 -0.62924058188E-01 -0.91153681176E-01  0.88694598342E+00  0.88000000000E+00 0. -1.
        -11    1    4    4    0    0 -0.91797863701E-02  0.58651167360E-01  0.99838477140E-01  0.11615597509E+00  0.51100000000E-03 0. -1.
         11    1    4    4    0    0 -0.83401793305E-02  0.65292195159E-02  0.11324067995E-01  0.15514023840E-01  0.51100000000E-03 0.  1.
</event>
<event>
 8    1  0.1197213E+005  0.1043930E+01  0.7957747E-01            NaN
         13   -1    0    0    0    0  0.00000000000E+00  0.00000000000E+00  0.74505805969E-08  0.10566000000E+00  0.10566000000E+00 0. -1.
     999900   -1    0    0    0    0 -0.00000000000E+00 -0.00000000000E+00 -0.74505805969E-08  0.93827000000E+00  0.93827000000E+00 0. -1.
     999902    2    1    2    0    0  0.12805477353E-02  0.24099532327E-01 -0.85422755191E-03  0.10197813569E+01  0.10194953942E+01 0.  0.
     999903    2    3    3    0    0 -0.44446177848E-01  0.59988967967E-01 -0.10650432199E+00  0.13155788978E+00  0.19752689880E-01 0.  0.
         14    1    1    2    0    0 -0.12805477353E-02 -0.24099532327E-01  0.85422755191E-03  0.24148643141E-01  0.00000000000E+00 0.  1.
     999901    1    3    3    0    0  0.45726725583E-01 -0.35889435640E-01  0.10565009443E+00  0.88822346708E+00  0.88000000000E+00 0.  1.
        -11    1    4    4    0    0 -0.24953802127E-02  0.16426017858E-01 -0.26155681618E-01  0.30990672580E-01  0.51100000000E-03 0.  1.
         11    1    4    4    0    0 -0.41950797635E-01  0.43562950109E-01 -0.80348640368E-01  0.10056721720E+00  0.51100000000E-03 0. -1.
</event>
<event>
 8    1  0.1197213E+005  0.1043930E+01  0.7957747E-01            NaN
         13   -1    0    0    0    0  0.00000000000E+00  0.00000000000E+00  0.74505805969E-08  0.10566000000E+00  0.10566000000E+00 0.  1.
     999900   -1    0    0    0    0 -0.00000000000E+00 -0.00000000000E+00 -0.74505805969E-08  0.93827000000E+00  0.93827000000E+00 0. -1.
     999902    2    1    2    0    0  0.44016577979E-02  0.57908126448E-02  0.22940551320E-01  0.10198639036E+01  0.10195799159E+01 0.  0.
     999903    2    3    3    0    0  0.40254074710E-01  0.11975437730E+00 -0.29281148429E-01  0.13025713888E+00  0.12166970084E-01 0.  0.
         14    1    1    2    0    0 -0.44016577979E-02 -0.57908126448E-02 -0.22940551320E-01  0.24066096428E-01  0.00000000000E+00 0. -1.
     999901    1    3    3    0    0 -0.35852416912E-01 -0.11396356466E+00  0.52221699749E-01  0.88960676470E+00  0.88000000000E+00 0. -1.
        -11    1    4    4    0    0  0.10038124013E-01  0.20929305099E-01 -0.92432511466E-02  0.24989969155E-01  0.51100000000E-03 0. -1.
         11    1    4    4    0    0  0.30215950697E-01  0.98825072203E-01 -0.20037897283E-01  0.10526716972E+00  0.51100000000E-03 0.  1.
</event>
<event>
 8    1  0.1197213E+005  0.1043930E+01  0.7957747E-01            NaN
         13   -1    0    0    0    0  0.00000000000E+00  0.00000000000E+00  0.74505805969E-08  0.10566000000E+00  0.10566000000E+00 0. -1.
     999900   -1    0    0    0    0 -0.00000000000E+00 -0.00000000000E+00 -0.74505805969E-08  0.93827000000E+00  0.93827000000E+00 0.  1.
     999902    2    1    2    0    0 -0.21538913972E-01  0.41335863880E-02 -0.91729822761E-02  0.10201570121E+01  0.10198799803E+01 0.  0.
     999903    2    3    3    0    0 -0.33267962965E-01 -0.82504776078E-01  0.92545317875E-01  0.12999388711E+00  0.20493398699E-01 0.  0.
         14    1    1    2    0    0  0.21538913972E-01 -0.41335863880E-02  0.91729822761E-02  0.23772987935E-01  0.00000000000E+00 0.  1.
     999901    1    3    3    0    0  0.11729048993E-01  0.86638362466E-01 -0.10171830015E+00  0.89016312495E+00  0.88000000000E+00 0.  1.
        -11    1    4    4    0    0 -0.12845417461E-01 -0.52746722315E-01  0.64342114208E-01  0.84186639358E-01  0.51100000000E-03 0.  1.
         11    1    4    4    0    0 -0.20422545504E-01 -0.29758053763E-01  0.28203203667E-01  0.45807247753E-01  0.51100000000E-03 0. -1.
</event>
<event>
 8    1  0.1197213E+005  0.1043930E+01  0.7957747E-01            NaN
         13   -1    0    0    0    0  0.00000000000E+00  0.00000000000E+00  0.74505805969E-08  0.10566000000E+00  0.10566000000E+00 0.  1.
     999900   -1    0    0    0    0 -0.00000000000E+00 -0.00000000000E+00 -0.74505805969E-08  0.93827000000E+00  0.93827000000E+00 0.  1.
     999902    2    1    2    0    0 -0.19850455725E-01  0.96630283922E-02 -0.87324866428E-02  0.10201882428E+01  0.10199119471E+01 0.  0.
     999903    2    3    3    0    0  0.11687063089E+00 -0.68639369291E-02  0.47136698041E-01  0.12772694849E+00  0.19658257139E-01 0.  0.
         14    1    1    2    0    0  0.19850455725E-01 -0.96630283922E-02  0.87324866428E-02  0.23741757163E-01  0.00000000000E+00 0. -1.
     999901    1    3    3    0    0 -0.13672108662E+00  0.16526965321E-01 -0.55869184684E-01  0.89246129435E+00  0.88000000000E+00 0.  1.
        -11    1    4    4    0    0  0.51048660224E-01 -0.12392303183E-01  0.18016020337E-01  0.55537131711E-01  0.51100000000E-03 0.  1.
         11    1    4    4    0    0  0.65821970667E-01  0.55283662543E-02  0.29120677704E-01  0.72189816781E-01  0.51100000000E-03 0. -1.
</event>
<event>
 8    1  0.1197213E+005  0.1043930E+01  0.7957747E-01            NaN
         13   -1    0    0    0    0  0.00000000000E+00  0.00000000000E+00  0.74505805969E-08  0.10566000000E+00  0.10566000000E+00 0.  1.
     999900   -1    0    0    0    0 -0.00000000000E+00 -0.00000000000E+00 -0.74505805969E-08  0.93827000000E+00  0.93827000000E+00 0. -1.
     999902    2    1    2    0    0 -0.56583613341E-03 -0.80893634959E-02 -0.24118481682E-01  0.10184847818E+01  0.10181668781E+01 0.  0.
     999903    2    3    3    0    0  0.22636711404E-01  0.96424908210E-01 -0.81940395812E-01  0.13011269477E+00  0.20122158132E-01 0.  0.
         14    1    1    2    0    0  0.56583613341E-03  0.80893634959E-02  0.24118481682E-01  0.25445218233E-01  0.00000000000E+00 0.  1.
     999901    1    3    3    0    0 -0.23202547538E-01 -0.10451427171E+00  0.57821914130E-01  0.88837208700E+00  0.88000000000E+00 0. -1.
        -11    1    4    4    0    0  0.99057113819E-02  0.77999377445E-01 -0.62224635857E-01  0.10027059603E+00  0.51100000000E-03 0. -1.
         11    1    4    4    0    0  0.12731000023E-01  0.18425530765E-01 -0.19715759954E-01  0.29842098738E-01  0.51100000000E-03 0.  1.
</event>
<event>
 8    1  0.1197213E+005  0.1043930E+01  0.7957747E-01            NaN
         13   -1    0    0    0    0  0.00000000000E+00  0.00000000000E+00  0.74505805969E-08  0.10566000000E+00  0.10566000000E+00 0. -1.
     999900   -1    0    0    0    0 -0.00000000000E+00 -0.00000000000E+00 -0.74505805969E-08  0.93827000000E+00  0.93827000000E+00 0. -1.
     999902    2    1    2    0    0 -0.31613373474E-02  0.20386378415E-01 -0.12137570805E-01  0.10199942714E+01  0.10197133884E+01 0.  0.
     999903    2    3    3    0    0 -0.96781631783E-01  0.11351285893E-02 -0.86998033145E-01  0.13165905372E+00  0.19936797313E-01 0.  0.
         14    1    1    2    0    0  0.31613373474E-02 -0.20386378415E-01  0.12137570805E-01  0.23935728603E-01  0.00000000000E+00 0. -1.
     999901    1    3    3    0    0  0.93620294435E-01  0.19251249825E-01  0.74860462339E-01  0.88833521768E+00  0.88000000000E+00 0.  1.
        -11    1    4    4    0    0 -0.57969197425E-01  0.10402772072E-01 -0.53020415442E-01  0.79246899570E-01  0.51100000000E-03 0.  1.
         11    1    4    4    0    0 -0.38812434358E-01 -0.92676434831E-02 -0.33977617703E-01  0.52412154146E-01  0.51100000000E-03 0. -1.
</event>
<event>
 8    1  0.1197213E+005  0.1043930E+01  0.7957747E-01            NaN
         13   -1    0    0    0    0  0.00000000000E+00  0.00000000000E+00  0.74505805969E-08  0.10566000000E+00  0.10566000000E+00 0. -1.
     999900   -1    0    0    0    0 -0.00000000000E+00 -0.00000000000E+00 -0.74505805969E-08  0.93827000000E+00  0.93827000000E+00 0. -1.
     999902    2    1    2    0    0 -0.15635790036E-02 -0.27803270204E-01  0.59720525943E-02  0.10154496203E+01  0.10150501463E+01 0.  0.
     999903    2    3    3    0    0  0.11250906993E+00 -0.48169482331E-01  0.29830338344E-01  0.12753263682E+00  0.19903128473E-01 0.  0.
         14    1    1    2    0    0  0.15635790036E-02  0.27803270204E-01 -0.59720525943E-02  0.28480379659E-01  0.00000000000E+00 0.  1.
     999901    1    3    3    0    0 -0.11407264893E+00  0.20366212127E-01 -0.23858285750E-01  0.88791698352E+00  0.88000000000E+00 0. -1.
        -11    1    4    4    0    0  0.90323554479E-01 -0.29689515256E-01  0.21557769708E-01  0.97492616980E-01  0.51100000000E-03 0.  1.
         11    1    4    4    0    0  0.22185515452E-01 -0.18479967075E-01  0.82725686355E-02  0.30040019837E-01  0.51100000000E-03 0. -1.
</event>
<event>
 8    1  0.1197213E+005  0.1043930E+01  0.7957747E-01            NaN
         13   -1    0    0    0    0  0.00000000000E+00  0.00000000000E+00  0.74505805969E-08  0.10566000000E+00  0.10566000000E+00 0.  1.
     999900   -1    0    0    0    0 -0.00000000000E+00 -0.00000000000E+00 -0.74505805969E-08  0.93827000000E+00  0.93827000000E+00 0. -1.
     999902    2    1    2    0    0  0.18242286977E-01 -0.13871562950E-01  0.77566859676E-02  0.10197356314E+01  0.10194485718E+01 0.  0.
     999903    2    3    3    0    0  0.16920845705E-01  0.12147755634E+00 -0.32407056168E-01  0.12848131505E+00  0.20349921715E-01 0.  0.
         14    1    1    2    0    0 -0.18242286977E-01  0.13871562950E-01 -0.77566859676E-02  0.24194368560E-01  0.00000000000E+00 0.  1.
     999901    1    3    3    0    0  0.13214412725E-02 -0.13534911929E+00  0.40163742136E-01  0.89125431639E+00  0.88000000000E+00 0.  1.
        -11    1    4    4    0    0  0.83101697573E-02  0.72682864364E-01 -0.90987850754E-02  0.73721819731E-01  0.51100000000E-03 0. -1.
         11    1    4    4    0    0  0.86106759475E-02  0.48794691976E-01 -0.23308271093E-01  0.54759495320E-01  0.51100000000E-03 0.  1.
</event>
<event>
 7    1  0.1197213E+005  0.1043930E+01  0.7957747E-01            NaN
         13   -1    0    0    0    0  0.00000000000E+00  0.00000000000E+00  0.74505805969E-08  0.10566000000E+00  0.10566000000E+00 0.  1.
     999900   -1    0    0    0    0 -0.00000000000E+00 -0.00000000000E+00 -0.74505805969E-08  0.93827000000E+00  0.93827000000E+00 0.  1.
     999902    2    1    2    0    0  0.12422579376E-01 -0.22062102102E-01  0.58824298189E-02  0.10179365430E+01  0.10176046117E+01 0.  0.
         14    1    1    2    0    0 -0.12422579376E-01  0.22062102102E-01 -0.58824298189E-02  0.25993457024E-01  0.00000000000E+00 0. -1.
     999901    1    3    3    0    0  0.73483910085E-01 -0.12448487448E+00  0.23871623890E-01  0.89211334675E+00  0.88000000000E+00 0. -1.
        -11    1    3    3    0    0 -0.33682433405E-01  0.27981731921E-01  0.26237943589E-02  0.43870594471E-01  0.51100000000E-03 0. -1.
         11    1    3    3    0    0 -0.27378897305E-01  0.74441040458E-01 -0.20612988430E-01  0.81952601759E-01  0.51100000000E-03 0.  1.
</event>
<event>
 8    1  0.1197213E+005  0.1043930E+01  0.7957747E-01            NaN
         13   -1    0    0    0    0  0.00000000000E+00  0.00000000000E+00  0.74505805969E-08  0.10566000000E+00  0.10566000000E+00 0. -1.
     999900   -1    0    0    0    0 -0.00000000000E+00 -0.00000000000E+00 -0.74505805969E-08  0.93827000000E+00  0.93827000000E+00 0.  1.
     999902    2    1    2    0    0  0.59607324635E-02 -0.13831798077E-01  0.19322192982E-01  0.10194310998E+01  0.10191366793E+01 0.  0.
     999903    2    3    3    0    0  0.58609440487E-01 -0.15137372556E-01  0.11555172363E+00  0.13262012019E+00  0.23910016359E-01 0.  0.
         14    1    1    2    0    0 -0.59607324635E-02  0.13831798077E-01 -0.19322192982E-01  0.24498900203E-01  0.00000000000E+00 0.  1.
     999901    1    3    3    0    0 -0.52648708023E-01  0.13055744795E-02 -0.96229530653E-01  0.88681097961E+00  0.88000000000E+00 0.  1.
        -11    1    4    4    0    0  0.32341908376E-01 -0.13704840994E-01  0.86836856809E-01  0.93673488915E-01  0.51100000000E-03 0.  1.
         11    1    4    4    0    0  0.26267532111E-01 -0.14325315618E-02  0.28714866826E-01  0.38946631275E-01  0.51100000000E-03 0. -1.
</event>
<event>
 8    1  0.1197213E+005  0.1043930E+01  0.7957747E-01            NaN
         13   -1    0    0    0    0  0.00000000000E+00  0.00000000000E+00  0.74505805969E-08  0.10566000000E+00  0.10566000000E+00 0. -1.
     999900   -1    0    0    0    0 -0.00000000000E+00 -0.00000000000E+00 -0.74505805969E-08  0.93827000000E+00  0.93827000000E+00 0.  1.
     999902    2    1    2    0    0 -0.15467447045E-01  0.73375109664E-02  0.15688764455E-01  0.10207089252E+01  0.10204447519E+01 0.  0.
     999903    2    3    3    0    0  0.83804119839E-01 -0.92329574450E-02 -0.94385598040E-01  0.12815876430E+00  0.20190337929E-01 0.  0.
         14    1    1    2    0    0  0.15467447045E-01 -0.73375109664E-02 -0.15688764455E-01  0.23221074811E-01  0.00000000000E+00 0. -1.
     999901    1    3    3    0    0 -0.99271566884E-01  0.16570468411E-01  0.11007436249E+00  0.89255016088E+00  0.88000000000E+00 0. -1.
        -11    1    4    4    0    0  0.74134145800E-01 -0.14229110307E-02 -0.78529689712E-01  0.10800495144E+00  0.51100000000E-03 0. -1.
         11    1    4    4    0    0  0.96699740385E-02 -0.78100464143E-02 -0.15855908328E-01  0.20153812860E-01  0.51100000000E-03 0.  1.
</event>
<event>
 8    1  0.1197213E+005  0.1043930E+01  0.7957747E-01            NaN
         13   -1    0    0    0    0  0.00000000000E+00  0.00000000000E+00  0.74505805969E-08  0.10566000000E+00  0.10566000000E+00 0. -1.
     999900   -1    0    0    0    0 -0.00000000000E+00 -0.00000000000E+00 -0.74505805969E-08  0.93827000000E+00  0.93827000000E+00 0. -1.
     999902    2    1    2    0    0 -0.31528018006E-01 -0.17838751718E-02 -0.10568019112E-01  0.10106301328E+01  0.10100813750E+01 0.  0.
     999903    2    3    3    0    0  0.64362751095E-01  0.98619946451E-01 -0.87061997424E-02  0.11974325253E+00  0.19854245056E-01 0.  0.
         14    1    1    2    0    0  0.31528018006E-01  0.17838751718E-02  0.10568019112E-01  0.33299867236E-01  0.00000000000E+00 0. -1.
     999901    1    3    3    0    0 -0.95890769101E-01 -0.10040382162E+00 -0.18618193693E-02  0.89088688023E+00  0.88000000000E+00 0. -1.
        -11    1    4    4    0    0  0.61340025253E-01  0.90292315121E-01 -0.12918641365E-01  0.10992021326E+00  0.51100000000E-03 0. -1.
         11    1    4    4    0    0  0.30227258413E-02  0.83276313300E-02  0.42124416228E-02  0.98230392703E-02  0.51100000000E-03 0.  1.
</event>
<event>
 8    1  0.1197213E+005  0.1043930E+01  0.7957747E-01            NaN
         13   -1    0    0    0    0  0.00000000000E+00  0.00000000000E+00  0.74505805969E-08  0.10566000000E+00  0.10566000000E+00 0.  1.
     999900   -1    0    0    0    0 -0.00000000000E+00 -0.00000000000E+00 -0.74505805969E-08  0.93827000000E+00  0.93827000000E+00 0.  1.
     999902    2    1    2    0    0  0.94319247416E-03 -0.15285509969E-01  0.18137901110E-01  0.10201914262E+01  0.10199152055E+01 0.  0.
     999903    2    3    3    0    0  0.10753833253E+00  0.58100817684E-01 -0.36383223893E-01  0.12905696387E+00  0.19793002861E-01 0.  0.
         14    1    1    2    0    0 -0.94319247416E-03  0.15285509969E-01 -0.18137901110E-01  0.23738573751E-01  0.00000000000E+00 0. -1.
     999901    1    3    3    0    0 -0.10659514006E+00 -0.73386327652E-01  0.54521125003E-01  0.89113446238E+00  0.88000000000E+00 0. -1.
        -11    1    4    4    0    0  0.69133961886E-01  0.32080748376E-01 -0.13781681027E-01  0.77452404452E-01  0.51100000000E-03 0. -1.
         11    1    4    4    0    0  0.38404370649E-01  0.26020069307E-01 -0.22601542866E-01  0.51604559417E-01  0.51100000000E-03 0.  1.
</event>
<event>
 8    1  0.1197213E+005  0.1043930E+01  0.7957747E-01            NaN
         13   -1    0    0    0    0  0.00000000000E+00  0.00000000000E+00  0.74505805969E-08  0.10566000000E+00  0.10566000000E+00 0. -1.
     999900   -1    0    0    0    0 -0.00000000000E+00 -0.00000000000E+00 -0.74505805969E-08  0.93827000000E+00  0.93827000000E+00 0. -1.
     999902    2    1    2    0    0  0.19253209483E-01 -0.72557641339E-02 -0.11579968794E-01  0.10203200897E+01  0.10200468899E+01 0.  0.
     999903    2    3    3    0    0 -0.61657813980E-01 -0.42230392229E-01  0.10273831107E+00  0.12855863758E+00  0.19674111954E-01 0.  0.
         14    1    1    2    0    0 -0.19253209483E-01  0.72557641339E-02  0.11579968794E-01  0.23609910331E-01  0.00000000000E+00 0. -1.
     999901    1    3    3    0    0  0.80911023463E-01  0.34974628096E-01 -0.11431827986E+00  0.89176145209E+00  0.88000000000E+00 0. -1.
        -11    1    4    4    0    0 -0.30961447711E-01 -0.32168418967E-01  0.53756080215E-01  0.69881297242E-01  0.51100000000E-03 0. -1.
         11    1    4    4    0    0 -0.30696366269E-01 -0.10061973262E-01  0.48982230856E-01  0.58677340334E-01  0.51100000000E-03 0.  1.
</event>
<event>
 8    1  0.1197213E+005  0.1043930E+01  0.7957747E-01            NaN
         13   -1    0    0    0    0  0.00000000000E+00  0.00000000000E+00  0.74505805969E-08  0.10566000000E+00  0.10566000000E+00 0. -1.
     999900   -1    0    0    0    0 -0.00000000000E+00 -0.00000000000E+00 -0.74505805969E-08  0.93827000000E+00  0.93827000000E+00 0.  1.
     999902    2    1    2    0    0 -0.13201423416E-01  0.17484266433E-01 -0.26668182126E-02  0.10218599055E+01  0.10216215431E+01 0.  0.
     999903    2    3    3    0    0 -0.10409915280E+00 -0.14017147993E-01  0.78738343679E-01  0.13288210108E+00  0.20610967251E-01 0.  0.
         14    1    1    2    0    0  0.13201423416E-01 -0.17484266433E-01  0.26668182126E-02  0.22070094524E-01  0.00000000000E+00 0. -1.
     999901    1    3    3    0    0  0.90897729388E-01  0.31501414426E-01 -0.81405161891E-01  0.88897780439E+00  0.88000000000E+00 0. -1.
        -11    1    4    4    0    0 -0.25631569900E-01 -0.11601609202E-02  0.30574246451E-01  0.39917026642E-01  0.51100000000E-03 0. -1.
         11    1    4    4    0    0 -0.78467582903E-01 -0.12856987073E-01  0.48164097228E-01  0.92965074442E-01  0.51100000000E-03 0.  1.
</event>
<event>
 8    1  0.1197213E+005  0.1043930E+01  0.7957747E-01            NaN
         13   -1    0    0    0    0  0.00000000000E+00  0.00000000000E+00  0.74505805969E-08  0.10566000000E+00  0.10566000000E+00 0.  1.
     999900   -1    0    0    0    0 -0.00000000000E+00 -0.00000000000E+00 -0.74505805969E-08  0.93827000000E+00  0.93827000000E+00 0.  1.
     999902    2    1    2    0    0 -0.39136284610E-02  0.23281273924E-01 -0.72291428895E-02  0.10192400281E+01  0.10189409405E+01 0.  0.
     999903    2    3    3    0    0 -0.53954964058E-02  0.11469405440E+00  0.61627846589E-01  0.13182818612E+00  0.19920885630E-01 0.  0.
         14    1    1    2    0    0  0.39136284610E-02 -0.23281273924E-01  0.72291428895E-02  0.24689971854E-01  0.00000000000E+00 0. -1.
     999901    1    3    3    0    0  0.14818679448E-02 -0.91412780476E-01 -0.68856989478E-01  0.88741184203E+00  0.88000000000E+00 0.  1.
        -11    1    4    4    0    0  0.74015369133E-02  0.44770931033E-01  0.21819863632E-01  0.50354608371E-01  0.51100000000E-03 0.  1.
         11    1    4    4    0    0 -0.12797033319E-01  0.69923123367E-01  0.39807982957E-01  0.81473577749E-01  0.51100000000E-03 0. -1.
</event>
<event>
 8    1  0.1197213E+005  0.1043930E+01  0.7957747E-01            NaN
         13   -1    0    0    0    0  0.00000000000E+00  0.00000000000E+00  0.74505805969E-08  0.10566000000E+00  0.10566000000E+00 0.  1.
     999900   -1    0    0    0    0 -0.00000000000E+00 -0.00000000000E+00 -0.74505805969E-08  0.93827000000E+00  0.93827000000E+00 0. -1.
     999902    2    1    2    0    0 -0.16734360048E-01  0.18968331078E-01 -0.90764623843E-03  0.10186187335E+01  0.10183042100E+01 0.  0.
     999903    2    3    3    0    0  0.19867609255E-01  0.12802920359E+00  0.33807823280E-02  0.13112092016E+00  0.19876296047E-01 0.  0.
         14    1    1    2    0    0  0.16734360048E-01 -0.18968331078E-01  0.90764623843E-03  0.25311266500E-01  0.00000000000E+00 0.  1.
     999901    1    3    3    0    0 -0.36601969304E-01 -0.10906087251E+00 -0.42884285664E-02  0.88749781334E+00  0.88000000000E+00 0. -1.
        -11    1    4    4    0    0  0.59794258285E-02  0.95021912321E-01  0.41077617472E-02  0.95299801584E-01  0.51100000000E-03 0. -1.
         11    1    4    4    0    0  0.13888183427E-01  0.33007291268E-01 -0.72697941924E-03  0.35821118573E-01  0.51100000000E-03 0.  1.
</event>
<event>
 8    1  0.1197213E+005  0.1043930E+01  0.7957747E-01            NaN
         13   -1    0    0    0    0  0.00000000000E+00  0.00000000000E+00  0.74505805969E-08  0.10566000000E+00  0.10566000000E+00 0.  1.
     999900   -1    0    0    0    0 -0.00000000000E+00 -0.00000000000E+00 -0.74505805969E-08  0.93827000000E+00  0.93827000000E+00 0.  1.
     999902    2    1    2    0    0  0.17670995185E-01  0.43792371068E-02 -0.11030880622E-01  0.10226433348E+01  0.10224217662E+01 0.  0.
     999903    2    3    3    0    0  0.12670168731E+00  0.37005105656E-01 -0.20452662774E-01  0.13526466190E+00  0.21342959762E-01 0.  0.
         14    1    1    2    0    0 -0.17670995185E-01 -0.43792371068E-02  0.11030880622E-01  0.21286665210E-01  0.00000000000E+00 0.  1.
     999901    1    3    3    0    0 -0.10903069213E+00 -0.32625868549E-01  0.94217821516E-02  0.88737867289E+00  0.88000000000E+00 0. -1.
        -11    1    4    4    0    0  0.36283755872E-01  0.71946098732E-02  0.32971142889E-02  0.37140347804E-01  0.51100000000E-03 0.  1.
         11    1    4    4    0    0  0.90417931440E-01  0.29810495782E-01 -0.23749777063E-01  0.98124314093E-01  0.51100000000E-03 0. -1.
</event>
<event>
 8    1  0.1197213E+005  0.1043930E+01  0.7957747E-01            NaN
         13   -1    0    0    0    0  0.00000000000E+00  0.00000000000E+00  0.74505805969E-08  0.10566000000E+00  0.10566000000E+00 0.  1.
     999900   -1    0    0    0    0 -0.00000000000E+00 -0.00000000000E+00 -0.74505805969E-08  0.93827000000E+00  0.93827000000E+00 0. -1.
     999902    2    1    2    0    0 -0.11095653649E-01 -0.15722569336E-01  0.13889246076E-01  0.10201976619E+01  0.10199215879E+01 0.  0.
     999903    2    3    3    0    0 -0.88553622123E-01 -0.66939833700E-01  0.69909272584E-01  0.13354035016E+00  0.24960637010E-01 0.  0.
         14    1    1    2    0    0  0.11095653649E-01  0.15722569336E-01 -0.13889246076E-01  0.23732338127E-01  0.00000000000E+00 0. -1.
     999901    1    3    3    0    0  0.77457968474E-01  0.51217264364E-01 -0.56020026508E-01  0.88665731172E+00  0.88000000000E+00 0. -1.
        -11    1    4    4    0    0 -0.30475456993E-02 -0.81863723501E-02  0.59861415627E-03  0.87706149700E-02  0.51100000000E-03 0. -1.
         11    1    4    4    0    0 -0.85506076423E-01 -0.58753461350E-01  0.69310658428E-01  0.12476973519E+00  0.51100000000E-03 0.  1.
</event>
<event>
 8    1  0.1197213E+005  0.1043930E+01  0.7957747E-01            NaN
         13   -1    0    0    0    0  0.00000000000E+00  0.00000000000E+00  0.74505805969E-08  0.10566000000E+00  0.10566000000E+00 0. -1.
     999900   -1    0    0    0    0 -0.00000000000E+00 -0.00000000000E+00 -0.74505805969E-08  0.93827000000E+00  0.93827000000E+00 0. -1.
     999902    2    1    2    0    0 -0.11029345351E-01 -0.21104814904E-01  0.18051996168E-03  0.10201163010E+01  0.10198383084E+01 0.  0.
     999903    2    3    3    0    0 -0.53908631592E-01 -0.11656316346E+00  0.30127421297E-01  0.13341017926E+00  0.19937471750E-01 0.  0.
         14    1    1    2    0    0  0.11029345351E-01  0.21104814904E-01 -0.18051996168E-03  0.23813698966E-01  0.00000000000E+00 0.  1.
     999901    1    3    3    0    0  0.42879286241E-01  0.95458348554E-01 -0.29946901335E-01  0.88670612178E+00  0.88000000000E+00 0. -1.
        -11    1    4    4    0    0 -0.39174002605E-01 -0.88679957614E-01  0.31216547971E-01  0.10185023982E+00  0.51100000000E-03 0. -1.
         11    1    4    4    0    0 -0.14734628987E-01 -0.27883205844E-01 -0.10891266741E-02  0.31559939440E-01  0.51100000000E-03 0.  1.
</event>
<event>
 8    1  0.1197213E+005  0.1043930E+01  0.7957747E-01            NaN
         13   -1    0    0    0    0  0.00000000000E+00  0.00000000000E+00  0.74505805969E-08  0.10566000000E+00  0.10566000000E+00 0. -1.
     999900   -1    0    0    0    0 -0.00000000000E+00 -0.00000000000E+00 -0.74505805969E-08  0.93827000000E+00  0.93827000000E+00 0.  1.
     999902    2    1    2    0    0  0.20146240565E-01  0.77342344857E-02 -0.10031225483E-01  0.10201326288E+01  0.10198550218E+01 0.  0.
     999903    2    3    3    0    0  0.68218312207E-01 -0.81474820835E-01  0.73017057502E-01  0.13043256869E+00  0.19730173318E-01 0.  0.
         14    1    1    2    0    0 -0.20146240565E-01 -0.77342344857E-02  0.10031225483E-01  0.23797371214E-01  0.00000000000E+00 0. -1.
     999901    1    3    3    0    0 -0.48072071642E-01  0.89209055320E-01 -0.83048282985E-01  0.88970006009E+00  0.88000000000E+00 0. -1.
        -11    1    4    4    0    0  0.31348484883E-01 -0.24370479701E-01  0.32369116069E-01  0.51231519413E-01  0.51100000000E-03 0.  1.
         11    1    4    4    0    0  0.36869827324E-01 -0.57104341134E-01  0.40647941434E-01  0.79201049280E-01  0.51100000000E-03 0. -1.
</event>
<event>
 8    1  0.1197213E+005  0.1043930E+01  0.7957747E-01            NaN
         13   -1    0    0    0    0  0.00000000000E+00  0.00000000000E+00  0.74505805969E-08  0.10566000000E+00  0.10566000000E+00 0.  1.
     999900   -1    0    0    0    0 -0.00000000000E+00 -0.00000000000E+00 -0.74505805969E-08  0.93827000000E+00  0.93827000000E+00 0.  1.
     999902    2    1    2    0    0 -0.14889171163E-01  0.44444659006E-02 -0.18627963582E-01  0.10196721822E+01  0.10193835968E+01 0.  0.
     999903    2    3    3    0    0  0.78564132283E-01 -0.92747802265E-01 -0.38787779197E-01  0.12917441409E+00  0.20175721420E-01 0.  0.
         14    1    1    2    0    0  0.14889171163E-01 -0.44444659006E-02  0.18627963582E-01  0.24257817756E-01  0.00000000000E+00 0.  1.
     999901    1    3    3    0    0 -0.93453303446E-01  0.97192268166E-01  0.20159815615E-01  0.89049776815E+00  0.88000000000E+00 0.  1.
        -11    1    4    4    0    0  0.48508711358E-01 -0.56746891913E-01 -0.33988036607E-01  0.82028973984E-01  0.51100000000E-03 0.  1.
         11    1    4    4    0    0  0.30055420925E-01 -0.36000910353E-01 -0.47997425897E-02  0.47145440110E-01  0.51100000000E-03 0. -1.
</event>
<event>
 8    1  0.1197213E+005  0.1043930E+01  0.7957747E-01            NaN
         13   -1    0    0    0    0  0.00000000000E+00  0.00000000000E+00  0.74505805969E-08  0.10566000000E+00  0.10566000000E+00 0. -1.
     999900   -1    0    0    0    0 -0.00000000000E+00 -0.00000000000E+00 -0.74505805969E-08  0.93827000000E+00  0.93827000000E+00 0. -1.
     999902    2    1    2    0    0  0.11286413530E-01 -0.20214314767E-01  0.45572762916E-02  0.10203340169E+01  0.10200611431E+01 0.  0.
     999903    2    3    3    0    0  0.47631683569E-01  0.91114120318E-01  0.76323297915E-01  0.12967956034E+00  0.20517854753E-01 0.  0.
         14    1    1    2    0    0 -0.11286413530E-01  0.20214314767E-01 -0.45572762916E-02  0.23595983113E-01  0.00000000000E+00 0.  1.
     999901    1    3    3    0    0 -0.36345270040E-01 -0.11132843508E+00 -0.71766021623E-01  0.89065445655E+00  0.88000000000E+00 0. -1.
        -11    1    4    4    0    0  0.87818590930E-02  0.33272630630E-01  0.18148674121E-01  0.38907897547E-01  0.51100000000E-03 0.  1.
         11    1    4    4    0    0  0.38849824476E-01  0.57841489688E-01  0.58174623794E-01  0.90771662791E-01  0.51100000000E-03 0. -1.
</event>
<event>
 8    1  0.1197213E+005  0.1043930E+01  0.7957747E-01            NaN
         13   -1    0    0    0    0  0.00000000000E+00  0.00000000000E+00  0.74505805969E-08  0.10566000000E+00  0.10566000000E+00 0.  1.
     999900   -1    0    0    0    0 -0.00000000000E+00 -0.00000000000E+00 -0.74505805969E-08  0.93827000000E+00  0.93827000000E+00 0.  1.
     999902    2    1    2    0    0  0.13288150730E-03  0.74660074227E-02 -0.22202708100E-01  0.10205052445E+01  0.10202363622E+01 0.  0.
     999903    2    3    3    0    0  0.51390365553E-01  0.47115581435E-01 -0.11205221081E+00  0.13355972669E+00  0.20534238716E-01 0.  0.
         14    1    1    2    0    0 -0.13288150730E-03 -0.74660074227E-02  0.22202708100E-01  0.23424755523E-01  0.00000000000E+00 0.  1.
     999901    1    3    3    0    0 -0.51257484045E-01 -0.39649574012E-01  0.89849502710E-01  0.88694551779E+00  0.88000000000E+00 0.  1.
        -11    1    4    4    0    0  0.35812860159E-01  0.43568781375E-01 -0.92055038018E-01  0.10795920900E+00  0.51100000000E-03 0.  1.
         11    1    4    4    0    0  0.15577505394E-01  0.35468000600E-02 -0.19997172793E-01  0.25600517684E-01  0.51100000000E-03 0. -1.
</event>
<event>
 8    1  0.1197213E+005  0.1043930E+01  0.7957747E-01            NaN
         13   -1    0    0    0    0  0.00000000000E+00  0.00000000000E+00  0.74505805969E-08  0.10566000000E+00  0.10566000000E+00 0. -1.
     999900   -1    0    0    0    0 -0.00000000000E+00 -0.00000000000E+00 -0.74505805969E-08  0.93827000000E+00  0.93827000000E+00 0. -1.
     999902    2    1    2    0    0 -0.85433925424E-02 -0.21801389765E-01 -0.32191802398E-03  0.10205121909E+01  0.10202434700E+01 0.  0.
     999903    2    3    3    0    0  0.69081607563E-01 -0.71004427126E-01  0.80747525085E-01  0.13201974066E+00  0.33093079967E-01 0.  0.
         14    1    1    2    0    0  0.85433925424E-02  0.21801389765E-01  0.32191802398E-03  0.23417809099E-01  0.00000000000E+00 0.  1.
     999901    1    3    3    0    0 -0.77625000106E-01  0.49203037362E-01 -0.81069443109E-01  0.88849245024E+00  0.88000000000E+00 0. -1.
        -11    1    4    4    0    0  0.47865971033E-01 -0.26982666891E-01  0.49917258954E-01  0.74237519880E-01  0.51100000000E-03 0.  1.
         11    1    4    4    0    0  0.21215636530E-01 -0.44021760235E-01  0.30830266131E-01  0.57782220780E-01  0.51100000000E-03 0. -1.
</event>
<event>
 8    1  0.1197213E+005  0.1043930E+01  0.7957747E-01            NaN
         13   -1    0    0    0    0  0.00000000000E+00  0.00000000000E+00  0.74505805969E-08  0.10566000000E+00  0.10566000000E+00 0. -1.
     999900   -1    0    0    0    0 -0.00000000000E+00 -0.00000000000E+00 -0.74505805969E-08  0.93827000000E+00  0.93827000000E+00 0. -1.
     999902    2    1    2    0    0 -0.20162783967E-01  0.14718316066E-01  0.78822842699E-02  0.10177518203E+01  0.10174150926E+01 0.  0.
     999903    2    3    3    0    0 -0.53983554896E-01  0.11756167866E+00  0.75619814950E-02  0.13111733851E+00  0.19990007638E-01 0.  0.
         14    1    1    2    0    0  0.20162783967E-01 -0.14718316066E-01 -0.78822842699E-02  0.26178179662E-01  0.00000000000E+00 0. -1.
     999901    1    3    3    0    0  0.33820770929E-01 -0.10284336259E+00  0.32030277490E-03  0.88663448183E+00  0.88000000000E+00 0. -1.
        -11    1    4    4    0    0 -0.39973908292E-01  0.63501773944E-01  0.52627514449E-02  0.75221980245E-01  0.51100000000E-03 0.  1.
         11    1    4    4    0    0 -0.14009646604E-01  0.54059904713E-01  0.22992300502E-02  0.55895358263E-01  0.51100000000E-03 0. -1.
</event>
<event>
 8    1  0.1197213E+005  0.1043930E+01  0.7957747E-01            NaN
         13   -1    0    0    0    0  0.00000000000E+00  0.00000000000E+00  0.74505805969E-08  0.10566000000E+00  0.10566000000E+00 0.  1.
     999900   -1    0    0    0    0 -0.00000000000E+00 -0.00000000000E+00 -0.74505805969E-08  0.93827000000E+00  0.93827000000E+00 0. -1.
     999902    2    1    2    0    0  0.13887957259E-01 -0.18850321766E-01 -0.11167424991E-01  0.10179892720E+01  0.10176587034E+01 0.  0.
     999903    2    3    3    0    0  0.12168158528E+00 -0.40077107916E-01 -0.19419464411E-01  0.13111941750E+00  0.20064976248E-01 0.  0.
         14    1    1    2    0    0 -0.13887957259E-01  0.18850321766E-01  0.11167424991E-01  0.25940727986E-01  0.00000000000E+00 0. -1.
     999901    1    3    3    0    0 -0.10779362802E+00  0.21226786150E-01  0.82520394195E-02  0.88686985451E+00  0.88000000000E+00 0. -1.
        -11    1    4    4    0    0  0.18673968346E-01 -0.62867574868E-02  0.42326485917E-02  0.20159782949E-01  0.51100000000E-03 0.  1.
         11    1    4    4    0    0  0.10300761694E+00 -0.33790350429E-01 -0.23652113002E-01  0.11095963455E+00  0.51100000000E-03 0. -1.
</event>
<event>
 8    1  0.1197213E+005  0.1043930E+01  0.7957747E-01            NaN
         13   -1    0    0    0    0  0.00000000000E+00  0.00000000000E+00  0.74505805969E-08  0.10566000000E+00  0.10566000000E+00 0. -1.
     999900   -1    0    0    0    0 -0.00000000000E+00 -0.00000000000E+00 -0.74505805969E-08  0.93827000000E+00  0.93827000000E+00 0.  1.
     999902    2    1    2    0    0  0.16190912692E-01 -0.92971641575E-02 -0.14280932140E-01  0.10204240872E+01  0.10201533168E+01 0.  0.
     999903    2    3    3    0    0 -0.95262124157E-01 -0.68816281671E-01 -0.53224447759E-01  0.13054718435E+00  0.19979303772E-01 0.  0.
         14    1    1    2    0    0 -0.16190912692E-01  0.92971641575E-02  0.14280932140E-01  0.23505912830E-01  0.00000000000E+00 0. -1.
     999901    1    3    3    0    0  0.11145303685E+00  0.59519117513E-01  0.38943515619E-01  0.88987690282E+00  0.88000000000E+00 0. -1.
        -11    1    4    4    0    0 -0.40039857125E-01 -0.20227560631E-01 -0.12987106545E-01  0.46704072896E-01  0.51100000000E-03 0. -1.
         11    1    4    4    0    0 -0.55222267032E-01 -0.48588721040E-01 -0.40237341214E-01  0.83843111449E-01  0.51100000000E-03 0.  1.
</event>
<event>
 8    1  0.1197213E+005  0.1043930E+01  0.7957747E-01            NaN
         13   -1    0    0    0    0  0.00000000000E+00  0.00000000000E+00  0.74505805969E-08  0.10566000000E+00  0.10566000000E+00 0.  1.
     999900   -1    0    0    0    0 -0.00000000000E+00 -0.00000000000E+00 -0.74505805969E-08  0.93827000000E+00  0.93827000000E+00 0.  1.
     999902    2    1    2    0    0  0.39300755958E-02 -0.16002124487E-01  0.21368014664E-01  0.10169465693E+01  0.10165885201E+01 0.  0.
     999903    2    3    3    0    0 -0.41158216925E-01  0.11072447886E+00 -0.35173516517E-01  0.12493225838E+00  0.20420183168E-01 0.  0.
         14    1    1    2    0    0 -0.39300755958E-02  0.16002124487E-01 -0.21368014664E-01  0.26983430711E-01  0.00000000000E+00 0. -1.
     999901    1    3    3    0    0  0.45088292521E-01 -0.12672660335E+00  0.56541531181E-01  0.89201431091E+00  0.88000000000E+00 0. -1.
        -11    1    4    4    0    0 -0.10839066436E-03  0.20847205307E-01 -0.33258740571E-02  0.21117298049E-01  0.51100000000E-03 0.  1.
         11    1    4    4    0    0 -0.41049826261E-01  0.89877273551E-01 -0.31847642460E-01  0.10381496033E+00  0.51100000000E-03 0. -1.
</event>
<event>
 8    1  0.1197213E+005  0.1043930E+01  0.7957747E-01            NaN
         13   -1    0    0    0    0  0.00000000000E+00  0.00000000000E+00  0.74505805969E-08  0.10566000000E+00  0.10566000000E+00 0.  1.
     999900   -1    0    0    0    0 -0.00000000000E+00 -0.00000000000E+00 -0.74505805969E-08  0.93827000000E+00  0.93827000000E+00 0.  1.
     999902    2    1    2    0    0  0.93090515539E-02 -0.14832407994E-02 -0.19059230131E-01  0.10226670581E+01  0.10224459883E+01 0.  0.
     999903    2    3    3    0    0 -0.79884819865E-02 -0.42213167989E-01  0.12118728647E+00  0.13046348435E+00  0.22104183979E-01 0.  0.
         14    1    1    2    0    0 -0.93090515539E-02  0.14832407994E-02  0.19059230131E-01  0.21262941877E-01  0.00000000000E+00 0.  1.
     999901    1    3    3    0    0  0.17297533540E-01  0.40729927189E-01 -0.14024651660E+00  0.89220357377E+00  0.88000000000E+00 0.  1.
        -11    1    4    4    0    0  0.66553151162E-02 -0.14784217109E-01  0.54862340317E-01  0.57210172180E-01  0.51100000000E-03 0.  1.
         11    1    4    4    0    0 -0.14643797103E-01 -0.27428950879E-01  0.66324946157E-01  0.73253312168E-01  0.51100000000E-03 0. -1.
</event>
<event>
 7    1  0.1197213E+005  0.1043930E+01  0.7957747E-01            NaN
         13   -1    0    0    0    0  0.00000000000E+00  0.00000000000E+00  0.74505805969E-08  0.10566000000E+00  0.10566000000E+00 0. -1.
     999900   -1    0    0    0    0 -0.00000000000E+00 -0.00000000000E+00 -0.74505805969E-08  0.93827000000E+00  0.93827000000E+00 0. -1.
     999903    2    1    2    0    0  0.33531914324E-01 -0.10015554715E+00  0.42621547529E-01  0.11567496133E+00  0.20213299119E-01 0.  0.
         14    1    1    2    0    0  0.37145243526E-01  0.12234765641E-01 -0.10408060587E-01  0.40469572917E-01  0.00000000000E+00 0. -1.
     999901    1    1    2    0    0 -0.70677157849E-01  0.87920781510E-01 -0.32213486941E-01  0.88778546575E+00  0.88000000000E+00 0. -1.
        -11    1    3    3    0    0  0.75063709769E-02 -0.31899160929E-01  0.39288574118E-02  0.33009076249E-01  0.51100000000E-03 0.  1.
         11    1    3    3    0    0  0.26025543347E-01 -0.68256386223E-01  0.38692690117E-01  0.82665885081E-01  0.51100000000E-03 0. -1.
</event>
<event>
 8    1  0.1197213E+005  0.1043930E+01  0.7957747E-01            NaN
         13   -1    0    0    0    0  0.00000000000E+00  0.00000000000E+00  0.74505805969E-08  0.10566000000E+00  0.10566000000E+00 0. -1.
     999900   -1    0    0    0    0 -0.00000000000E+00 -0.00000000000E+00 -0.74505805969E-08  0.93827000000E+00  0.93827000000E+00 0.  1.
     999902    2    1    2    0    0  0.71227922306E-02 -0.17379061997E-01  0.11721410685E-01  0.10217905006E+01  0.10215506202E+01 0.  0.
     999903    2    3    3    0    0 -0.60199107164E-01 -0.16303927529E-01  0.11591366240E+00  0.13308952763E+00  0.19674721769E-01 0.  0.
         14    1    1    2    0    0 -0.71227922306E-02  0.17379061997E-01 -0.11721410685E-01  0.22139499396E-01  0.00000000000E+00 0.  1.
     999901    1    3    3    0    0  0.67321899395E-01 -0.10751344682E-02 -0.10419225172E+00  0.88870097298E+00  0.88000000000E+00 0.  1.
        -11    1    4    4    0    0 -0.11685025682E-01 -0.11865363044E-01  0.30885388896E-01  0.35092663530E-01  0.51100000000E-03 0. -1.
         11    1    4    4    0    0 -0.48514081483E-01 -0.44385644848E-02  0.85028273505E-01  0.97996864098E-01  0.51100000000E-03 0.  1.
</event>
<event>
 8    1  0.1197213E+005  0.1043930E+01  0.7957747E-01            NaN
         13   -1    0    0    0    0  0.00000000000E+00  0.00000000000E+00  0.74505805969E-08  0.10566000000E+00  0.10566000000E+00 0. -1.
     999900   -1    0    0    0    0 -0.00000000000E+00 -0.00000000000E+00 -0.74505805969E-08  0.93827000000E+00  0.93827000000E+00 0. -1.
     999902    2    1    2    0    0 -0.13414860935E-01  0.18085338775E-01 -0.71686718415E-02  0.10202989224E+01  0.10200252268E+01 0.  0.
     999903    2    3    3    0    0 -0.92842089839E-02 -0.93932918757E-01 -0.86458309319E-01  0.12965196714E+00  0.20615614715E-01 0.  0.
         14    1    1    2    0    0  0.13414860935E-01 -0.18085338775E-01  0.71686718415E-02  0.23631077598E-01  0.00000000000E+00 0.  1.
     999901    1    3    3    0    0 -0.41306519507E-02  0.11201825753E+00  0.79289637478E-01  0.89064695526E+00  0.88000000000E+00 0.  1.
        -11    1    4    4    0    0 -0.13802245012E-02 -0.75142256017E-01 -0.59545940164E-01  0.95886619348E-01  0.51100000000E-03 0. -1.
         11    1    4    4    0    0 -0.79039844828E-02 -0.18790662740E-01 -0.26912369155E-01  0.33765347791E-01  0.51100000000E-03 0.  1.
</event>
<event>
 8    1  0.1197213E+005  0.1043930E+01  0.7957747E-01            NaN
         13   -1    0    0    0    0  0.00000000000E+00  0.00000000000E+00  0.74505805969E-08  0.10566000000E+00  0.10566000000E+00 0. -1.
     999900   -1    0    0    0    0 -0.00000000000E+00 -0.00000000000E+00 -0.74505805969E-08  0.93827000000E+00  0.93827000000E+00 0. -1.
     999902    2    1    2    0    0  0.87387582628E-02 -0.85121265058E-03 -0.21440442382E-01  0.10207614215E+01  0.10204984550E+01 0.  0.
     999903    2    3    3    0    0  0.11789776630E+00 -0.54511188608E-01  0.11657003717E-01  0.13177856287E+00  0.18930158844E-01 0.  0.
         14    1    1    2    0    0 -0.87387582628E-02  0.85121265058E-03  0.21440442382E-01  0.23168578474E-01  0.00000000000E+00 0. -1.
     999901    1    3    3    0    0 -0.10915900803E+00  0.53659975957E-01 -0.33097446099E-01  0.88898285866E+00  0.88000000000E+00 0. -1.
        -11    1    4    4    0    0  0.66380136654E-01 -0.21936313527E-01  0.11306439731E-02  0.69921841153E-01  0.51100000000E-03 0.  1.
         11    1    4    4    0    0  0.51517629643E-01 -0.32574875081E-01  0.10526359744E-01  0.61856721712E-01  0.51100000000E-03 0. -1.
</event>
<event>
 8    1  0.1197213E+005  0.1043930E+01  0.7957747E-01            NaN
         13   -1    0    0    0    0  0.00000000000E+00  0.00000000000E+00  0.74505805969E-08  0.10566000000E+00  0.10566000000E+00 0.  1.
     999900   -1    0    0    0    0 -0.00000000000E+00 -0.00000000000E+00 -0.74505805969E-08  0.93827000000E+00  0.93827000000E+00 0. -1.
     999902    2    1    2    0    0  0.25020203475E-02 -0.10955070381E-01 -0.22879441495E-01  0.10184399526E+01  0.10181209135E+01 0.  0.
     999903    2    3    3    0    0 -0.58990404548E-01  0.91662174585E-02  0.10943466014E+00  0.12619939870E+00  0.19658484755E-01 0.  0.
         14    1    1    2    0    0 -0.25020203475E-02  0.10955070381E-01  0.22879441495E-01  0.25490047391E-01  0.00000000000E+00 0.  1.
     999901    1    3    3    0    0  0.61492424895E-01 -0.20121287840E-01 -0.13231410163E+00  0.89224055391E+00  0.88000000000E+00 0. -1.
        -11    1    4    4    0    0 -0.82242568467E-02  0.70493459088E-02  0.11132409298E-01  0.15541021080E-01  0.51100000000E-03 0.  1.
         11    1    4    4    0    0 -0.50766147701E-01  0.21168715497E-02  0.98302250837E-01  0.11065837762E+00  0.51100000000E-03 0. -1.
</event>
<event>
 8    1  0.1197213E+005  0.1043930E+01  0.7957747E-01            NaN
         13   -1    0    0    0    0  0.00000000000E+00  0.00000000000E+00  0.74505805969E-08  0.10566000000E+00  0.10566000000E+00 0. -1.
     999900   -1    0    0    0    0 -0.00000000000E+00 -0.00000000000E+00 -0.74505805969E-08  0.93827000000E+00  0.93827000000E+00 0. -1.
     999902    2    1    2    0    0  0.20552435804E-01  0.10589647084E-01 -0.60707067153E-03  0.10208018402E+01  0.10205398008E+01 0.  0.
     999903    2    3    3    0    0  0.96652047002E-01 -0.14188194110E-01 -0.87685021021E-01  0.13288987286E+00  0.20691359430E-01 0.  0.
         14    1    1    2    0    0 -0.20552435804E-01 -0.10589647084E-01  0.60707067153E-03  0.23128159841E-01  0.00000000000E+00 0.  1.
     999901    1    3    3    0    0 -0.76099611199E-01  0.24777841194E-01  0.87077950349E-01  0.88791196730E+00  0.88000000000E+00 0.  1.
        -11    1    4    4    0    0  0.20996482106E-01 -0.11265356432E-01 -0.16676731539E-01  0.29088399959E-01  0.51100000000E-03 0. -1.
         11    1    4    4    0    0  0.75655564896E-01 -0.29228376780E-02 -0.71008289482E-01  0.10380147290E+00  0.51100000000E-03 0.  1.
</event>
<event>
 8    1  0.1197213E+005  0.1043930E+01  0.7957747E-01            NaN
         13   -1    0    0    0    0  0.00000000000E+00  0.00000000000E+00  0.74505805969E-08  0.10566000000E+00  0.10566000000E+00 0. -1.
     999900   -1    0    0    0    0 -0.00000000000E+00 -0.00000000000E+00 -0.74505805969E-08  0.93827000000E+00  0.93827000000E+00 0.  1.
     999902    2    1    2    0    0  0.58613108783E-02  0.22657293648E-01  0.48292762625E-02  0.10200337695E+01  0.10197538238E+01 0.  0.
     999903    2    3    3    0    0  0.77160064084E-01  0.95406918380E-01 -0.46065345149E-01  0.13269714650E+00  0.20745146462E-01 0.  0.
         14    1    1    2    0    0 -0.58613108783E-02 -0.22657293648E-01 -0.48292762625E-02  0.23896230453E-01  0.00000000000E+00 0. -1.
     999901    1    3    3    0    0 -0.71298753206E-01 -0.72749624732E-01  0.50894621411E-01  0.88733662304E+00  0.88000000000E+00 0.  1.
        -11    1    4    4    0    0  0.25752723625E-01  0.17634459309E-01 -0.11398542867E-01  0.33231985041E-01  0.51100000000E-03 0. -1.
         11    1    4    4    0    0  0.51407340459E-01  0.77772459072E-01 -0.34666802281E-01  0.99465161461E-01  0.51100000000E-03 0.  1.
</event>
<event>
 8    1  0.1197213E+005  0.1043930E+01  0.7957747E-01            NaN
         13   -1    0    0    0    0  0.00000000000E+00  0.00000000000E+00  0.74505805969E-08  0.10566000000E+00  0.10566000000E+00 0. -1.
     999900   -1    0    0    0    0 -0.00000000000E+00 -0.00000000000E+00 -0.74505805969E-08  0.93827000000E+00  0.93827000000E+00 0. -1.
     999902    2    1    2    0    0  0.35588493782E-02  0.10948385493E-01 -0.28283928661E-01  0.10133929213E+01  0.10129327223E+01 0.  0.
     999903    2    3    3    0    0  0.10012154619E+00 -0.31765713651E-01  0.60609365703E-01  0.12263433087E+00  0.18229079011E-01 0.  0.
         14    1    1    2    0    0 -0.35588493782E-02 -0.10948385493E-01  0.28283928661E-01  0.30537078680E-01  0.00000000000E+00 0. -1.
     999901    1    3    3    0    0 -0.96562696810E-01  0.42714099144E-01 -0.88893294364E-01  0.89075859045E+00  0.88000000000E+00 0. -1.
        -11    1    4    4    0    0  0.65339763358E-01 -0.28080903218E-01  0.34895039658E-01  0.79219610671E-01  0.51100000000E-03 0.  1.
         11    1    4    4    0    0  0.34781782830E-01 -0.36848104335E-02  0.25714326046E-01  0.43414720197E-01  0.51100000000E-03 0. -1.
</event>
<event>
 8    1  0.1197213E+005  0.1043930E+01  0.7957747E-01            NaN
         13   -1    0    0    0    0  0.00000000000E+00  0.00000000000E+00  0.74505805969E-08  0.10566000000E+00  0.10566000000E+00 0.  1.
     999900   -1    0    0    0    0 -0.00000000000E+00 -0.00000000000E+00 -0.74505805969E-08  0.93827000000E+00  0.93827000000E+00 0. -1.
     999902    2    1    2    0    0  0.10197070395E-02  0.10816676858E-01 -0.21246053847E-01  0.10200671606E+01  0.10197880059E+01 0.  0.
     999903    2    3    3    0    0  0.11175111196E+00 -0.42754946695E-01 -0.49784963492E-01  0.13105319430E+00  0.19496170306E-01 0.  0.
         14    1    1    2    0    0 -0.10197070395E-02 -0.10816676858E-01  0.21246053847E-01  0.23862839412E-01  0.00000000000E+00 0.  1.
     999901    1    3    3    0    0 -0.11073140492E+00  0.53571623553E-01  0.28538909645E-01  0.88901396628E+00  0.88000000000E+00 0.  1.
        -11    1    4    4    0    0  0.49189268452E-01 -0.25563009816E-01 -0.14986039539E-01  0.57427294066E-01  0.51100000000E-03 0. -1.
         11    1    4    4    0    0  0.62561843506E-01 -0.17191936879E-01 -0.34798923954E-01  0.73625900238E-01  0.51100000000E-03 0.  1.
</event>
<event>
 8    1  0.1197213E+005  0.1043930E+01  0.7957747E-01            NaN
         13   -1    0    0    0    0  0.00000000000E+00  0.00000000000E+00  0.74505805969E-08  0.10566000000E+00  0.10566000000E+00 0. -1.
     999900   -1    0    0    0    0 -0.00000000000E+00 -0.00000000000E+00 -0.74505805969E-08  0.93827000000E+00  0.93827000000E+00 0. -1.
     999902    2    1    2    0    0 -0.17032369980E-01 -0.12643868712E-01 -0.74081184559E-02  0.10214611491E+01  0.10212139980E+01 0.  0.
     999903    2    3    3    0    0 -0.50579664134E-01 -0.21884235866E-01 -0.11972890943E+00  0.13363979011E+00  0.22076221260E-01 0.  0.
         14    1    1    2    0    0  0.17032369980E-01  0.12643868712E-01  0.74081184559E-02  0.22468850931E-01  0.00000000000E+00 0.  1.
     999901    1    3    3    0    0  0.33547294155E-01  0.92403671545E-02  0.11232079097E+00  0.88782135895E+00  0.88000000000E+00 0.  1.
        -11    1    4    4    0    0 -0.89932303452E-02 -0.89447331732E-02 -0.12124052929E-01  0.17553923322E-01  0.51100000000E-03 0.  1.
         11    1    4    4    0    0 -0.41586433789E-01 -0.12939502693E-01 -0.10760485650E+00  0.11608586679E+00  0.51100000000E-03 0. -1.
</event>
<event>
 8    1  0.1197213E+005  0.1043930E+01  0.7957747E-01            NaN
         13   -1    0    0    0    0  0.00000000000E+00  0.00000000000E+00  0.74505805969E-08  0.10566000000E+00  0.10566000000E+00 0.  1.
     999900   -1    0    0    0    0 -0.00000000000E+00 -0.00000000000E+00 -0.74505805969E-08  0.93827000000E+00  0.93827000000E+00 0.  1.
     999902    2    1    2    0    0  0.13118741884E-01 -0.20561622450E-01  0.13120708806E-02  0.10195045371E+01  0.10192119004E+01 0.  0.
     999903    2    3    3    0    0 -0.11952250250E+00 -0.11233623595E-01 -0.39641247890E-01  0.12857362758E+00  0.23407825010E-01 0.  0.
         14    1    1    2    0    0 -0.13118741884E-01  0.20561622450E-01 -0.13120708806E-02  0.24425462869E-01  0.00000000000E+00 0. -1.
     999901    1    3    3    0    0  0.13264124438E+00 -0.93279988554E-02  0.40953318770E-01  0.89093090955E+00  0.88000000000E+00 0. -1.
        -11    1    4    4    0    0 -0.69832403408E-01  0.40661279617E-02 -0.17827874605E-01  0.72188587715E-01  0.51100000000E-03 0. -1.
         11    1    4    4    0    0 -0.49690099093E-01 -0.15299751556E-01 -0.21813373284E-01  0.56385039865E-01  0.51100000000E-03 0.  1.
</event>
<event>
 8    1  0.1197213E+005  0.1043930E+01  0.7957747E-01            NaN
         13   -1    0    0    0    0  0.00000000000E+00  0.00000000000E+00  0.74505805969E-08  0.10566000000E+00  0.10566000000E+00 0. -1.
     999900   -1    0    0    0    0 -0.00000000000E+00 -0.00000000000E+00 -0.74505805969E-08  0.93827000000E+00  0.93827000000E+00 0.  1.
     999902    2    1    2    0    0 -0.17748440205E-01  0.51051852130E-02  0.14996226808E-01  0.10201401521E+01  0.10198627226E+01 0.  0.
     999903    2    3    3    0    0 -0.66993861740E-01 -0.10563327663E+00  0.35740900759E-01  0.13159163907E+00  0.19808605281E-01 0.  0.
         14    1    1    2    0    0  0.17748440205E-01 -0.51051852130E-02 -0.14996226808E-01  0.23789847923E-01  0.00000000000E+00 0. -1.
     999901    1    3    3    0    0  0.49245421535E-01  0.11073846184E+00 -0.20744673951E-01  0.88854851301E+00  0.88000000000E+00 0. -1.
        -11    1    4    4    0    0 -0.54140022409E-01 -0.97194541454E-01  0.31684609613E-01  0.11568101193E+00  0.51100000000E-03 0.  1.
         11    1    4    4    0    0 -0.12853839331E-01 -0.84387351753E-02  0.40562911453E-02  0.15910627133E-01  0.51100000000E-03 0. -1.
</event>
<event>
 8    1  0.1197213E+005  0.1043930E+01  0.7957747E-01            NaN
         13   -1    0    0    0    0  0.00000000000E+00  0.00000000000E+00  0.74505805969E-08  0.10566000000E+00  0.10566000000E+00 0.  1.
     999900   -1    0    0    0    0 -0.00000000000E+00 -0.00000000000E+00 -0.74505805969E-08  0.93827000000E+00  0.93827000000E+00 0.  1.
     999902    2    1    2    0    0  0.10454727669E-01 -0.20857485440E-01 -0.36680795402E-02  0.10203124041E+01  0.10200390243E+01 0.  0.
     999903    2    3    3    0    0 -0.16771663907E-02  0.14877953221E-01  0.12746258140E+00  0.12979600633E+00  0.19393999639E-01 0.  0.
         14    1    1    2    0    0 -0.10454727669E-01  0.20857485440E-01  0.36680795402E-02  0.23617595920E-01  0.00000000000E+00 0.  1.
     999901    1    3    3    0    0  0.12131894060E-01 -0.35735438661E-01 -0.13113066094E+00  0.89051639775E+00  0.88000000000E+00 0.  1.
        -11    1    4    4    0    0 -0.90630585692E-02  0.10076933180E-01  0.49118564104E-01  0.50956629339E-01  0.51100000000E-03 0.  1.
         11    1    4    4    0    0  0.73858921786E-02  0.48010200410E-02  0.78344017296E-01  0.78839376987E-01  0.51100000000E-03 0. -1.
</event>
<event>
 8    1  0.1197213E+005  0.1043930E+01  0.7957747E-01            NaN
         13   -1    0    0    0    0  0.00000000000E+00  0.00000000000E+00  0.74505805969E-08  0.10566000000E+00  0.10566000000E+00 0.  1.
     999900   -1    0    0    0    0 -0.00000000000E+00 -0.00000000000E+00 -0.74505805969E-08  0.93827000000E+00  0.93827000000E+00 0. -1.
     999902    2    1    2    0    0  0.14388498920E-01  0.92757623363E-02 -0.17921034698E-01  0.10191462926E+01  0.10188449016E+01 0.  0.
     999903    2    3    3    0    0  0.11603224729E-01  0.11284358710E+00 -0.63964078766E-01  0.13187293337E+00  0.20754691263E-01 0.  0.
         14    1    1    2    0    0 -0.14388498920E-01 -0.92757623363E-02  0.17921034698E-01  0.24783707405E-01  0.00000000000E+00 0.  1.
     999901    1    3    3    0    0  0.27852741908E-02 -0.10356782477E+00  0.46043044068E-01  0.88727335922E+00  0.88000000000E+00 0. -1.
        -11    1    4    4    0    0 -0.23583460004E-02  0.35216409903E-01 -0.11424279805E-01  0.37101652421E-01  0.51100000000E-03 0. -1.
         11    1    4    4    0    0  0.13961570729E-01  0.77627177201E-01 -0.52539798960E-01  0.94771280951E-01  0.51100000000E-03 0.  1.
</event>
<event>
 8    1  0.1197213E+005  0.1043930E+01  0.7957747E-01            NaN
         13   -1    0    0    0    0  0.00000000000E+00  0.00000000000E+00  0.74505805969E-08  0.10566000000E+00  0.10566000000E+00 0.  1.
     999900   -1    0    0    0    0 -0.00000000000E+00 -0.00000000000E+00 -0.74505805969E-08  0.93827000000E+00  0.93827000000E+00 0.  1.
     999902    2    1    2    0    0 -0.38376056647E-02 -0.22091771406E-01 -0.45184840813E-03  0.10215028346E+01  0.10212566099E+01 0.  0.
     999903    2    3    3    0    0  0.31898995011E-01 -0.12227115984E+00 -0.40457572991E-01  0.13419596970E+00  0.20098772610E-01 0.  0.
         14    1    1    2    0    0  0.38376056647E-02  0.22091771406E-01  0.45184840813E-03  0.22427165405E-01  0.00000000000E+00 0. -1.
     999901    1    3    3    0    0 -0.35736600676E-01  0.10017938843E+00  0.40005724583E-01  0.88730686490E+00  0.88000000000E+00 0. -1.
        -11    1    4    4    0    0 -0.74292993613E-03 -0.29281058522E-01 -0.11551817075E-01  0.31490283134E-01  0.51100000000E-03 0. -1.
         11    1    4    4    0    0  0.32641924947E-01 -0.92990101314E-01 -0.28905755915E-01  0.10270568656E+00  0.51100000000E-03 0.  1.
</event>
<event>
 8    1  0.1197213E+005  0.1043930E+01  0.7957747E-01            NaN
         13   -1    0    0    0    0  0.00000000000E+00  0.00000000000E+00  0.74505805969E-08  0.10566000000E+00  0.10566000000E+00 0.  1.
     999900   -1    0    0    0    0 -0.00000000000E+00 -0.00000000000E+00 -0.74505805969E-08  0.93827000000E+00  0.93827000000E+00 0.  1.
     999902    2    1    2    0    0 -0.87328384721E-02 -0.35268199766E-02 -0.22128044650E-01  0.10198810647E+01  0.10195974867E+01 0.  0.
     999903    2    3    3    0    0  0.27708467632E-01 -0.73123594170E-01  0.98944312642E-01  0.12812426187E+00  0.22605978703E-01 0.  0.
         14    1    1    2    0    0  0.87328384721E-02  0.35268199766E-02  0.22128044650E-01  0.24048935256E-01  0.00000000000E+00 0.  1.
     999901    1    3    3    0    0 -0.36441306104E-01  0.69596774193E-01 -0.12107235729E+00  0.89175680287E+00  0.88000000000E+00 0.  1.
        -11    1    4    4    0    0  0.23095569459E-01 -0.72893122735E-01  0.95495133728E-01  0.12233721575E+00  0.51100000000E-03 0. -1.
         11    1    4    4    0    0  0.46128981732E-02 -0.23047143525E-03  0.34491789145E-02  0.57870461224E-02  0.51100000000E-03 0.  1.
</event>
<event>
 8    1  0.1197213E+005  0.1043930E+01  0.7957747E-01            NaN
         13   -1    0    0    0    0  0.00000000000E+00  0.00000000000E+00  0.74505805969E-08  0.10566000000E+00  0.10566000000E+00 0.  1.
     999900   -1    0    0    0    0 -0.00000000000E+00 -0.00000000000E+00 -0.74505805969E-08  0.93827000000E+00  0.93827000000E+00 0. -1.
     999902    2    1    2    0    0 -0.13955949603E-01  0.77729172210E-02  0.16590740265E-01  0.10208987292E+01  0.10206389057E+01 0.  0.
     999903    2    3    3    0    0 -0.88290078506E-01  0.76342037140E-01  0.62546275250E-01  0.13391552863E+00  0.19952134298E-01 0.  0.
         14    1    1    2    0    0  0.13955949603E-01 -0.77729172210E-02 -0.16590740265E-01  0.23031270785E-01  0.00000000000E+00 0. -1.
     999901    1    3    3    0    0  0.74334128903E-01 -0.68569119919E-01 -0.45955534985E-01  0.88698320059E+00  0.88000000000E+00 0. -1.
        -11    1    4    4    0    0 -0.74882611844E-01  0.54056671910E-01  0.47308606324E-01  0.10376846673E+00  0.51100000000E-03 0.  1.
         11    1    4    4    0    0 -0.13407466662E-01  0.22285365230E-01  0.15237668927E-01  0.30147061897E-01  0.51100000000E-03 0. -1.
</event>
<event>
 8    1  0.1197213E+005  0.1043930E+01  0.7957747E-01            NaN
         13   -1    0    0    0    0  0.00000000000E+00  0.00000000000E+00  0.74505805969E-08  0.10566000000E+00  0.10566000000E+00 0.  1.
     999900   -1    0    0    0    0 -0.00000000000E+00 -0.00000000000E+00 -0.74505805969E-08  0.93827000000E+00  0.93827000000E+00 0.  1.
     999902    2    1    2    0    0 -0.72773093361E-02 -0.74258367099E-02 -0.21234231363E-01  0.10202869278E+01  0.10200129510E+01 0.  0.
     999903    2    3    3    0    0  0.64486071329E-01 -0.10628404149E+00 -0.38488902211E-01  0.13168091210E+00  0.20092688884E-01 0.  0.
         14    1    1    2    0    0  0.72773093361E-02  0.74258367099E-02  0.21234231363E-01  0.23643072211E-01  0.00000000000E+00 0.  1.
     999901    1    3    3    0    0 -0.71763380665E-01  0.98858204780E-01  0.17254670849E-01  0.88860601569E+00  0.88000000000E+00 0. -1.
        -11    1    4    4    0    0  0.14547226025E-01 -0.33399366374E-01 -0.19447355482E-01  0.41298913006E-01  0.51100000000E-03 0. -1.
         11    1    4    4    0    0  0.49938845304E-01 -0.72884675116E-01 -0.19041546730E-01  0.90381999092E-01  0.51100000000E-03 0.  1.
</event>
<event>
 8    1  0.1197213E+005  0.1043930E+01  0.7957747E-01            NaN
         13   -1    0    0    0    0  0.00000000000E+00  0.00000000000E+00  0.74505805969E-08  0.10566000000E+00  0.10566000000E+00 0. -1.
     999900   -1    0    0    0    0 -0.00000000000E+00 -0.00000000000E+00 -0.74505805969E-08  0.93827000000E+00  0.93827000000E+00 0. -1.
     999902    2    1    2    0    0  0.23135902713E-01 -0.54901028715E-02  0.46372378501E-03  0.10201471014E+01  0.10198698360E+01 0.  0.
     999903    2    3    3    0    0 -0.70611091693E-01 -0.10219910861E+00  0.30156762239E-01  0.12940426129E+00  0.20135750829E-01 0.  0.
         14    1    1    2    0    0 -0.23135902713E-01  0.54901028715E-02 -0.46372378501E-03  0.23782898554E-01  0.00000000000E+00 0. -1.
     999901    1    3    3    0    0  0.93746994407E-01  0.96709005737E-01 -0.29693038454E-01  0.89074284015E+00  0.88000000000E+00 0. -1.
        -11    1    4    4    0    0 -0.33373722854E-01 -0.31310214132E-01  0.10715977912E-01  0.47002427488E-01  0.51100000000E-03 0.  1.
         11    1    4    4    0    0 -0.37237368839E-01 -0.70888894476E-01  0.19440784328E-01  0.82401833805E-01  0.51100000000E-03 0. -1.
</event>
<event>
 8    1  0.1197213E+005  0.1043930E+01  0.7957747E-01            NaN
         13   -1    0    0    0    0  0.00000000000E+00  0.00000000000E+00  0.74505805969E-08  0.10566000000E+00  0.10566000000E+00 0. -1.
     999900   -1    0    0    0    0 -0.00000000000E+00 -0.00000000000E+00 -0.74505805969E-08  0.93827000000E+00  0.93827000000E+00 0. -1.
     999902    2    1    2    0    0 -0.17859911773E-01 -0.81498470449E-02 -0.14410438242E-01  0.10195772345E+01  0.10192863582E+01 0.  0.
     999903    2    3    3    0    0 -0.60367201349E-01 -0.71600351557E-01  0.85408431564E-01  0.13064717938E+00  0.31674531662E-01 0.  0.
         14    1    1    2    0    0  0.17859911773E-01  0.81498470449E-02  0.14410438242E-01  0.24352765464E-01  0.00000000000E+00 0. -1.
     999901    1    3    3    0    0  0.42507289576E-01  0.63450504513E-01 -0.99818869807E-01  0.88893005516E+00  0.88000000000E+00 0.  1.
        -11    1    4    4    0    0  0.56591780318E-03 -0.72473765913E-02 -0.38613392908E-03  0.72975989769E-02  0.51100000000E-03 0.  1.
         11    1    4    4    0    0 -0.60933119152E-01 -0.64352974966E-01  0.85794565493E-01  0.12334958040E+00  0.51100000000E-03 0. -1.
</event>
<event>
 8    1  0.1197213E+005  0.1043930E+01  0.7957747E-01            NaN
         13   -1    0    0    0    0  0.00000000000E+00  0.00000000000E+00  0.74505805969E-08  0.10566000000E+00  0.10566000000E+00 0. -1.
     999900   -1    0    0    0    0 -0.00000000000E+00 -0.00000000000E+00 -0.74505805969E-08  0.93827000000E+00  0.93827000000E+00 0. -1.
     999902    2    1    2    0    0 -0.41849416471E-02  0.18932364148E-01 -0.11722643850E-01  0.10212723627E+01  0.10210209941E+01 0.  0.
     999903    2    3    3    0    0  0.37340949914E-02 -0.80744077211E-01  0.98814761513E-01  0.12873854145E+00  0.16604381707E-01 0.  0.
         14    1    1    2    0    0  0.41849416471E-02 -0.18932364148E-01  0.11722643850E-01  0.22657637292E-01  0.00000000000E+00 0.  1.
     999901    1    3    3    0    0 -0.79190366385E-02  0.99676441359E-01 -0.11053740536E+00  0.89253382126E+00  0.88000000000E+00 0. -1.
        -11    1    4    4    0    0  0.50258437630E-02 -0.13946898943E-01  0.25867879906E-01  0.29819178854E-01  0.51100000000E-03 0. -1.
         11    1    4    4    0    0 -0.12917487716E-02 -0.66797178267E-01  0.72946881607E-01  0.98919362597E-01  0.51100000000E-03 0.  1.
</event>
<event>
 8    1  0.1197213E+005  0.1043930E+01  0.7957747E-01            NaN
         13   -1    0    0    0    0  0.00000000000E+00  0.00000000000E+00  0.74505805969E-08  0.10566000000E+00  0.10566000000E+00 0.  1.
     999900   -1    0    0    0    0 -0.00000000000E+00 -0.00000000000E+00 -0.74505805969E-08  0.93827000000E+00  0.93827000000E+00 0.  1.
     999902    2    1    2    0    0  0.11178407643E-01  0.17027632915E-01  0.11905952941E-01  0.10203365942E+01  0.10200637807E+01 0.  0.
     999903    2    3    3    0    0 -0.29468605889E-01 -0.58024931391E-01 -0.10847909768E+00  0.12804873288E+00  0.19836127686E-01 0.  0.
         14    1    1    2    0    0 -0.11178407643E-01 -0.17027632915E-01 -0.11905952941E-01  0.23593405764E-01  0.00000000000E+00 0. -1.
     999901    1    3    3    0    0  0.40647013532E-01  0.75052564306E-01  0.12038505062E+00  0.89228786136E+00  0.88000000000E+00 0. -1.
        -11    1    4    4    0    0 -0.12518082344E-01 -0.18273994232E-01 -0.21244417949E-01  0.30695727158E-01  0.51100000000E-03 0. -1.
         11    1    4    4    0    0 -0.16950523545E-01 -0.39750937160E-01 -0.87234679731E-01  0.97353005718E-01  0.51100000000E-03 0.  1.
</event>
<event>
 8    1  0.1197213E+005  0.1043930E+01  0.7957747E-01            NaN
         13   -1    0    0    0    0  0.00000000000E+00  0.00000000000E+00  0.74505805969E-08  0.10566000000E+00  0.10566000000E+00 0.  1.
     999900   -1    0    0    0    0 -0.00000000000E+00 -0.00000000000E+00 -0.74505805969E-08  0.93827000000E+00  0.93827000000E+00 0.  1.
     999902    2    1    2    0    0 -0.22484329797E-02  0.16919129240E-01 -0.15585709022E-01  0.10208166551E+01  0.10205549553E+01 0.  0.
     999903    2    3    3    0    0 -0.22676015337E-02  0.72299531822E-01  0.10681763426E+00  0.13062029039E+00  0.20476546447E-01 0.  0.
         14    1    1    2    0    0  0.22484329797E-02 -0.16919129240E-01  0.15585709022E-01  0.23113344864E-01  0.00000000000E+00 0.  1.
     999901    1    3    3    0    0  0.19168554021E-04 -0.55380402582E-01 -0.12240334328E+00  0.89019636474E+00  0.88000000000E+00 0.  1.
        -11    1    4    4    0    0 -0.61208415602E-03  0.22642342180E-01  0.18354568229E-01  0.29158216719E-01  0.51100000000E-03 0. -1.
         11    1    4    4    0    0 -0.16555173777E-02  0.49657189642E-01  0.88463066032E-01  0.10146207367E+00  0.51100000000E-03 0.  1.
</event>
<event>
 8    1  0.1197213E+005  0.1043930E+01  0.7957747E-01            NaN
         13   -1    0    0    0    0  0.00000000000E+00  0.00000000000E+00  0.74505805969E-08  0.10566000000E+00  0.10566000000E+00 0. -1.
     999900   -1    0    0    0    0 -0.00000000000E+00 -0.00000000000E+00 -0.74505805969E-08  0.93827000000E+00  0.93827000000E+00 0.  1.
     999902    2    1    2    0    0  0.18706016605E-02  0.15936189628E-01  0.15799403401E-01  0.10214115090E+01  0.10211632525E+01 0.  0.
     999903    2    3    3    0    0  0.11095098832E+00 -0.59180911284E-02 -0.66438122152E-01  0.13060336411E+00  0.17264675785E-01 0.  0.
         14    1    1    2    0    0 -0.18706016605E-02 -0.15936189628E-01 -0.15799403401E-01  0.22518491030E-01  0.00000000000E+00 0.  1.
     999901    1    3    3    0    0 -0.10908038666E+00  0.21854280757E-01  0.82237525553E-01  0.89080814486E+00  0.88000000000E+00 0. -1.
        -11    1    4    4    0    0  0.25857307580E-01 -0.54266339172E-03 -0.24312093366E-01  0.35499772446E-01  0.51100000000E-03 0. -1.
         11    1    4    4    0    0  0.85093680739E-01 -0.53754277367E-02 -0.42126028786E-01  0.95103591663E-01  0.51100000000E-03 0.  1.
</event>
<event>
 8    1  0.1197213E+005  0.1043930E+01  0.7957747E-01            NaN
         13   -1    0    0    0    0  0.00000000000E+00  0.00000000000E+00  0.74505805969E-08  0.10566000000E+00  0.10566000000E+00 0. -1.
     999900   -1    0    0    0    0 -0.00000000000E+00 -0.00000000000E+00 -0.74505805969E-08  0.93827000000E+00  0.93827000000E+00 0. -1.
     999902    2    1    2    0    0  0.11574760892E-01  0.20727829164E-01  0.49093798173E-02  0.10196870628E+01  0.10193988357E+01 0.  0.
     999903    2    3    3    0    0  0.37095605580E-01 -0.96776916732E-01  0.73850263694E-01  0.12883829662E+00  0.20089541120E-01 0.  0.
         14    1    1    2    0    0 -0.11574760892E-01 -0.20727829164E-01 -0.49093798173E-02  0.24242937152E-01  0.00000000000E+00 0. -1.
     999901    1    3    3    0    0 -0.25520844688E-01  0.11750474590E+00 -0.68940883876E-01  0.89084876623E+00  0.88000000000E+00 0. -1.
        -11    1    4    4    0    0  0.48730020473E-02 -0.32699539116E-01  0.16218685023E-01  0.36828153256E-01  0.51100000000E-03 0.  1.
         11    1    4    4    0    0  0.32222603533E-01 -0.64077377617E-01  0.57631578670E-01  0.92010143363E-01  0.51100000000E-03 0. -1.
</event>
<event>
 8    1  0.1197213E+005  0.1043930E+01  0.7957747E-01            NaN
         13   -1    0    0    0    0  0.00000000000E+00  0.00000000000E+00  0.74505805969E-08  0.10566000000E+00  0.10566000000E+00 0.  1.
     999900   -1    0    0    0    0 -0.00000000000E+00 -0.00000000000E+00 -0.74505805969E-08  0.93827000000E+00  0.93827000000E+00 0.  1.
     999902    2    1    2    0    0  0.12139609037E-01  0.87176494607E-02 -0.63989285087E-03  0.10289708228E+01  0.10288620788E+01 0.  0.
     999903    2    3    3    0    0  0.31595433735E-01 -0.13162118793E+00 -0.13519759577E-01  0.13754532992E+00  0.20335322435E-01 0.  0.
         14    1    1    2    0    0 -0.12139609037E-01 -0.87176494607E-02  0.63989285087E-03  0.14959177202E-01  0.00000000000E+00 0.  1.
     999901    1    3    3    0    0 -0.19455824698E-01  0.14033883739E+00  0.12879866726E-01  0.89142549288E+00  0.88000000000E+00 0. -1.
        -11    1    4    4    0    0  0.27176858854E-01 -0.12676583540E+00 -0.98840574607E-02  0.13002351477E+00  0.51100000000E-03 0.  1.
         11    1    4    4    0    0  0.44185748817E-02 -0.48553525308E-02 -0.36357021163E-02  0.75218151441E-02  0.51100000000E-03 0. -1.
</event>
<event>
 7    1  0.1880632E+005  0.1043930E+01  0.7957747E-01            NaN
         13   -1    0    0    0    0  0.00000000000E+00  0.00000000000E+00  0.74505805969E-08  0.10566000000E+00  0.10566000000E+00 0.  1.
     999900   -1    0    0    0    0 -0.00000000000E+00 -0.00000000000E+00 -0.74505805969E-08  0.93827000000E+00  0.93827000000E+00 0. -1.
     999903    2    1    2    0    0 -0.34247317601E-01 -0.58012350445E-01  0.86395732225E-01  0.11144723523E+00  0.20443877477E-01 0.  0.
         14    1    1    2    0    0 -0.22950593920E-01  0.19373053176E-01  0.29626587425E-01  0.42187434540E-01  0.00000000000E+00 0.  1.
     999901    1    1    2    0    0  0.57197911521E-01  0.38639297269E-01 -0.11602231965E+00  0.89029533023E+00  0.88000000000E+00 0. -1.
        -11    1    3    3    0    0 -0.19132235838E-01 -0.14185282535E-01  0.33530168054E-01  0.41131471885E-01  0.51100000000E-03 0.  1.
         11    1    3    3    0    0 -0.15115081763E-01 -0.43827067911E-01  0.52865564171E-01  0.70315763343E-01  0.51100000000E-03 0. -1.
</event>
<event>
 8    1  0.1197213E+005  0.1043930E+01  0.7957747E-01            NaN
         13   -1    0    0    0    0  0.00000000000E+00  0.00000000000E+00  0.74505805969E-08  0.10566000000E+00  0.10566000000E+00 0. -1.
     999900   -1    0    0    0    0 -0.00000000000E+00 -0.00000000000E+00 -0.74505805969E-08  0.93827000000E+00  0.93827000000E+00 0. -1.
     999902    2    1    2    0    0  0.95068867257E-02 -0.19244893142E-01 -0.10443108807E-01  0.10200594045E+01  0.10197800662E+01 0.  0.
     999903    2    3    3    0    0  0.31055797848E-01 -0.12780593586E+00  0.31439602502E-02  0.13302250336E+00  0.19654060449E-01 0.  0.
         14    1    1    2    0    0 -0.95068867257E-02  0.19244893142E-01  0.10443108807E-01  0.23870595486E-01  0.00000000000E+00 0. -1.
     999901    1    3    3    0    0 -0.21548911122E-01  0.10856104272E+00 -0.13587069057E-01  0.88703690116E+00  0.88000000000E+00 0. -1.
        -11    1    4    4    0    0  0.28145482441E-01 -0.75727332453E-01  0.46841746401E-03  0.80791568855E-01  0.51100000000E-03 0.  1.
         11    1    4    4    0    0  0.29103154070E-02 -0.52078603409E-01  0.26755427862E-02  0.52230934503E-01  0.51100000000E-03 0. -1.
</event>
<event>
 8    1  0.1197213E+005  0.1043930E+01  0.7957747E-01            NaN
         13   -1    0    0    0    0  0.00000000000E+00  0.00000000000E+00  0.74505805969E-08  0.10566000000E+00  0.10566000000E+00 0.  1.
     999900   -1    0    0    0    0 -0.00000000000E+00 -0.00000000000E+00 -0.74505805969E-08  0.93827000000E+00  0.93827000000E+00 0. -1.
     999902    2    1    2    0    0  0.62784301441E-02 -0.18815840791E-01 -0.13714061474E-01  0.10198150662E+01  0.10195299109E+01 0.  0.
     999903    2    3    3    0    0 -0.10336196435E+00 -0.50727903409E-01 -0.58732077251E-01  0.13129606383E+00  0.23069105309E-01 0.  0.
         14    1    1    2    0    0 -0.62784301441E-02  0.18815840791E-01  0.13714061474E-01  0.24114933793E-01  0.00000000000E+00 0.  1.
     999901    1    3    3    0    0  0.10964039449E+00  0.31912062618E-01  0.45018015776E-01  0.88851900238E+00  0.88000000000E+00 0.  1.
        -11    1    4    4    0    0 -0.47440856150E-01 -0.10683906350E-01 -0.23335936104E-01  0.53940779768E-01  0.51100000000E-03 0.  1.
         11    1    4    4    0    0 -0.55921108200E-01 -0.40043997059E-01 -0.35396141147E-01  0.77355284059E-01  0.51100000000E-03 0. -1.
</event>
<event>
 8    1  0.1197213E+005  0.1043930E+01  0.7957747E-01            NaN
         13   -1    0    0    0    0  0.00000000000E+00  0.00000000000E+00  0.74505805969E-08  0.10566000000E+00  0.10566000000E+00 0. -1.
     999900   -1    0    0    0    0 -0.00000000000E+00 -0.00000000000E+00 -0.74505805969E-08  0.93827000000E+00  0.93827000000E+00 0. -1.
     999902    2    1    2    0    0 -0.69066214285E-04  0.20883644430E-01 -0.54422801398E-02  0.10223487631E+01  0.10221209535E+01 0.  0.
     999903    2    3    3    0    0  0.50552088512E-01 -0.13559369703E-01  0.11890709570E+00  0.13149996006E+00  0.20346300139E-01 0.  0.
         14    1    1    2    0    0  0.69066214285E-04 -0.20883644430E-01  0.54422801398E-02  0.21581236942E-01  0.00000000000E+00 0. -1.
     999901    1    3    3    0    0 -0.50621154727E-01  0.34443014133E-01 -0.12434937584E+00  0.89084880300E+00  0.88000000000E+00 0. -1.
        -11    1    4    4    0    0  0.50374137538E-01 -0.12057248651E-01  0.10087524313E+00  0.11339756071E+00  0.51100000000E-03 0.  1.
         11    1    4    4    0    0  0.17795097387E-03 -0.15021210517E-02  0.18031852572E-01  0.18102399355E-01  0.51100000000E-03 0. -1.
</event>
<event>
 8    1  0.1197213E+005  0.1043930E+01  0.7957747E-01            NaN
         13   -1    0    0    0    0  0.00000000000E+00  0.00000000000E+00  0.74505805969E-08  0.10566000000E+00  0.10566000000E+00 0.  1.
     999900   -1    0    0    0    0 -0.00000000000E+00 -0.00000000000E+00 -0.74505805969E-08  0.93827000000E+00  0.93827000000E+00 0.  1.
     999902    2    1    2    0    0 -0.17498618418E-01  0.56155220905E-02 -0.16026040341E-01  0.10195462000E+01  0.10192545728E+01 0.  0.
     999903    2    3    3    0    0  0.11158791003E+00 -0.10240711955E-01 -0.60289878525E-01  0.12888687152E+00  0.20499325660E-01 0.  0.
         14    1    1    2    0    0  0.17498618418E-01 -0.56155220905E-02  0.16026040341E-01  0.24383800030E-01  0.00000000000E+00 0.  1.
     999901    1    3    3    0    0 -0.12908652844E+00  0.15856234045E-01  0.44263838184E-01  0.89065932845E+00  0.88000000000E+00 0.  1.
        -11    1    4    4    0    0  0.32463880918E-01  0.46651796108E-02 -0.11598052203E-01  0.34791427119E-01  0.51100000000E-03 0. -1.
         11    1    4    4    0    0  0.79124029108E-01 -0.14905891565E-01 -0.48691826321E-01  0.94095444402E-01  0.51100000000E-03 0.  1.
</event>
<event>
 8    1  0.1197213E+005  0.1043930E+01  0.7957747E-01            NaN
         13   -1    0    0    0    0  0.00000000000E+00  0.00000000000E+00  0.74505805969E-08  0.10566000000E+00  0.10566000000E+00 0.  1.
     999900   -1    0    0    0    0 -0.00000000000E+00 -0.00000000000E+00 -0.74505805969E-08  0.93827000000E+00  0.93827000000E+00 0. -1.
     999902    2    1    2    0    0  0.18064105864E-02 -0.23649077311E-01  0.28925421226E-02  0.10200363026E+01  0.10197564169E+01 0.  0.
     999903    2    3    3    0    0 -0.76510320668E-01 -0.10651698016E+00  0.23926575113E-02  0.13268020179E+00  0.19965342567E-01 0.  0.
         14    1    1    2    0    0 -0.18064105864E-02  0.23649077311E-01 -0.28925421226E-02  0.23893697429E-01  0.00000000000E+00 0.  1.
     999901    1    3    3    0    0  0.78316731254E-01  0.82867902853E-01  0.49988461128E-03  0.88735610079E+00  0.88000000000E+00 0.  1.
        -11    1    4    4    0    0 -0.47218606684E-01 -0.63377569406E-01  0.11102113633E-01  0.79811222075E-01  0.51100000000E-03 0.  1.
         11    1    4    4    0    0 -0.29291713984E-01 -0.43139410758E-01 -0.87094561214E-02  0.52868979710E-01  0.51100000000E-03 0. -1.
</event>
<event>
 8    1  0.1197213E+005  0.1043930E+01  0.7957747E-01            NaN
         13   -1    0    0    0    0  0.00000000000E+00  0.00000000000E+00  0.74505805969E-08  0.10566000000E+00  0.10566000000E+00 0. -1.
     999900   -1    0    0    0    0 -0.00000000000E+00 -0.00000000000E+00 -0.74505805969E-08  0.93827000000E+00  0.93827000000E+00 0. -1.
     999902    2    1    2    0    0 -0.15384809432E-01 -0.93397854097E-02 -0.14019032704E-01  0.10211164683E+01  0.10208615893E+01 0.  0.
     999903    2    3    3    0    0 -0.10547732914E+00  0.61245502919E-01 -0.49457054716E-01  0.13299778337E+00  0.19129336927E-01 0.  0.
         14    1    1    2    0    0  0.15384809432E-01  0.93397854097E-02  0.14019032704E-01  0.22813531745E-01  0.00000000000E+00 0. -1.
     999901    1    3    3    0    0  0.90092519703E-01 -0.70585288329E-01  0.35438022013E-01  0.88811868488E+00  0.88000000000E+00 0. -1.
        -11    1    4    4    0    0 -0.89309624312E-01  0.51533751421E-01 -0.33894948543E-01  0.10854061538E+00  0.51100000000E-03 0.  1.
         11    1    4    4    0    0 -0.16167704823E-01  0.97117514984E-02 -0.15562106173E-01  0.24457167987E-01  0.51100000000E-03 0. -1.
</event>
<event>
 8    1  0.1197213E+005  0.1043930E+01  0.7957747E-01            NaN
         13   -1    0    0    0    0  0.00000000000E+00  0.00000000000E+00  0.74505805969E-08  0.10566000000E+00  0.10566000000E+00 0. -1.
     999900   -1    0    0    0    0 -0.00000000000E+00 -0.00000000000E+00 -0.74505805969E-08  0.93827000000E+00  0.93827000000E+00 0.  1.
     999902    2    1    2    0    0  0.35885297619E-02  0.27909921376E-02  0.24349845186E-01  0.10191594097E+01  0.10188583416E+01 0.  0.
     999903    2    3    3    0    0  0.10448331548E+00 -0.67090583702E-01 -0.28612817241E-01  0.12906490010E+00  0.20521829627E-01 0.  0.
         14    1    1    2    0    0 -0.35885297619E-02 -0.27909921376E-02 -0.24349845186E-01  0.24770590295E-01  0.00000000000E+00 0.  1.
     999901    1    3    3    0    0 -0.10089478572E+00  0.69881575840E-01  0.52962662427E-01  0.89009450961E+00  0.88000000000E+00 0. -1.
        -11    1    4    4    0    0  0.75721943200E-01 -0.57036622168E-01 -0.16266817775E-01  0.96186586548E-01  0.51100000000E-03 0. -1.
         11    1    4    4    0    0  0.28761372279E-01 -0.10053961535E-01 -0.12345999466E-01  0.32878313547E-01  0.51100000000E-03 0.  1.
</event>
<event>
 8    1  0.1197213E+005  0.1043930E+01  0.7957747E-01            NaN
         13   -1    0    0    0    0  0.00000000000E+00  0.00000000000E+00  0.74505805969E-08  0.10566000000E+00  0.10566000000E+00 0.  1.
     999900   -1    0    0    0    0 -0.00000000000E+00 -0.00000000000E+00 -0.74505805969E-08  0.93827000000E+00  0.93827000000E+00 0. -1.
     999902    2    1    2    0    0 -0.21927170398E-02  0.23272667434E-01 -0.37768769660E-02  0.10202511095E+01  0.10199762921E+01 0.  0.
     999903    2    3    3    0    0 -0.54655667897E-01 -0.41925167996E-01  0.10755355384E+00  0.12929792114E+00  0.20130169469E-01 0.  0.
         14    1    1    2    0    0  0.21927170398E-02 -0.23272667434E-01  0.37768769660E-02  0.23678890539E-01  0.00000000000E+00 0.  1.
     999901    1    3    3    0    0  0.52462950857E-01  0.65197835430E-01 -0.11133043080E+00  0.89095318832E+00  0.88000000000E+00 0. -1.
        -11    1    4    4    0    0 -0.28885247678E-01 -0.34060028380E-01  0.71122636804E-01  0.83982936682E-01  0.51100000000E-03 0. -1.
         11    1    4    4    0    0 -0.25770420219E-01 -0.78651396159E-02  0.36430917035E-01  0.45314984458E-01  0.51100000000E-03 0.  1.
</event>
<event>
 8    1  0.1197213E+005  0.1043930E+01  0.7957747E-01            NaN
         13   -1    0    0    0    0  0.00000000000E+00  0.00000000000E+00  0.74505805969E-08  0.10566000000E+00  0.10566000000E+00 0. -1.
     999900   -1    0    0    0    0 -0.00000000000E+00 -0.00000000000E+00 -0.74505805969E-08  0.93827000000E+00  0.93827000000E+00 0.  1.
     999902    2    1    2    0    0 -0.16886516467E-01 -0.19738870332E-01 -0.24973119228E-02  0.10178337549E+01  0.10174991590E+01 0.  0.
     999903    2    3    3    0    0  0.58287300867E-01 -0.98272393473E-01 -0.56407666931E-01  0.12950670735E+00  0.23136326392E-01 0.  0.
         14    1    1    2    0    0  0.16886516467E-01  0.19738870332E-01  0.24973119228E-02  0.26096245078E-01  0.00000000000E+00 0. -1.
     999901    1    3    3    0    0 -0.75173817334E-01  0.78533523141E-01  0.53910355008E-01  0.88832704757E+00  0.88000000000E+00 0. -1.
        -11    1    4    4    0    0  0.15537834915E-01 -0.40832205793E-01 -0.30820093795E-01  0.53468052576E-01  0.51100000000E-03 0.  1.
         11    1    4    4    0    0  0.42749465951E-01 -0.57440187680E-01 -0.25587573136E-01  0.76038654774E-01  0.51100000000E-03 0. -1.
</event>
<event>
 8    1  0.1197213E+005  0.1043930E+01  0.7957747E-01            NaN
         13   -1    0    0    0    0  0.00000000000E+00  0.00000000000E+00  0.74505805969E-08  0.10566000000E+00  0.10566000000E+00 0. -1.
     999900   -1    0    0    0    0 -0.00000000000E+00 -0.00000000000E+00 -0.74505805969E-08  0.93827000000E+00  0.93827000000E+00 0. -1.
     999902    2    1    2    0    0 -0.37331008674E-02 -0.24089149875E-01 -0.34620188293E-02  0.10193086930E+01  0.10190112869E+01 0.  0.
     999903    2    3    3    0    0  0.74288249359E-01 -0.23104246873E-01  0.10169547157E+00  0.12961975921E+00  0.20168361934E-01 0.  0.
         14    1    1    2    0    0  0.37331008674E-02  0.24089149875E-01  0.34620188293E-02  0.24621306996E-01  0.00000000000E+00 0.  1.
     999901    1    3    3    0    0 -0.78021350226E-01 -0.98490300241E-03 -0.10515749040E+00  0.88968893379E+00  0.88000000000E+00 0. -1.
        -11    1    4    4    0    0  0.19439454190E-01  0.21291937972E-02  0.30934752605E-01  0.36601173276E-01  0.51100000000E-03 0. -1.
         11    1    4    4    0    0  0.54848795169E-01 -0.25233440670E-01  0.70760718968E-01  0.93018585936E-01  0.51100000000E-03 0.  1.
</event>
<event>
 8    1  0.1197213E+005  0.1043930E+01  0.7957747E-01            NaN
         13   -1    0    0    0    0  0.00000000000E+00  0.00000000000E+00  0.74505805969E-08  0.10566000000E+00  0.10566000000E+00 0. -1.
     999900   -1    0    0    0    0 -0.00000000000E+00 -0.00000000000E+00 -0.74505805969E-08  0.93827000000E+00  0.93827000000E+00 0.  1.
     999902    2    1    2    0    0  0.52689526970E-02  0.11181026518E-01 -0.22587200550E-01  0.10181820128E+01  0.10178564006E+01 0.  0.
     999903    2    3    3    0    0  0.56036894105E-01 -0.10779122455E+00  0.31535023041E-01  0.12708101095E+00  0.19900856148E-01 0.  0.
         14    1    1    2    0    0 -0.52689526970E-02 -0.11181026518E-01  0.22587200550E-01  0.25747987207E-01  0.00000000000E+00 0. -1.
     999901    1    3    3    0    0 -0.50767941408E-01  0.11897225107E+00 -0.54122223591E-01  0.89110100184E+00  0.88000000000E+00 0.  1.
        -11    1    4    4    0    0  0.44120929063E-01 -0.71573035795E-01  0.28700069598E-01  0.88844307359E-01  0.51100000000E-03 0. -1.
         11    1    4    4    0    0  0.11915965043E-01 -0.36218188754E-01  0.28349534421E-02  0.38236703591E-01  0.51100000000E-03 0.  1.
</event>
<event>
 8    1  0.1197213E+005  0.1043930E+01  0.7957747E-01            NaN
         13   -1    0    0    0    0  0.00000000000E+00  0.00000000000E+00  0.74505805969E-08  0.10566000000E+00  0.10566000000E+00 0.  1.
     999900   -1    0    0    0    0 -0.00000000000E+00 -0.00000000000E+00 -0.74505805969E-08  0.93827000000E+00  0.93827000000E+00 0.  1.
     999902    2    1    2    0    0  0.14939952637E-01  0.13422055427E-01  0.12543208687E-01  0.10202511943E+01  0.10199763789E+01 0.  0.
     999903    2    3    3    0    0 -0.80368760201E-01 -0.48398543528E-02 -0.98175771702E-01  0.12802031568E+00  0.16375508266E-01 0.  0.
         14    1    1    2    0    0 -0.14939952637E-01 -0.13422055427E-01 -0.12543208687E-01  0.23678805730E-01  0.00000000000E+00 0. -1.
     999901    1    3    3    0    0  0.95308712837E-01  0.18261909779E-01  0.11071898039E+00  0.89223087859E+00  0.88000000000E+00 0. -1.
        -11    1    4    4    0    0 -0.48772500651E-01 -0.87767521416E-02 -0.51093886031E-01  0.71180295789E-01  0.51100000000E-03 0. -1.
         11    1    4    4    0    0 -0.31596259549E-01  0.39368977888E-02 -0.47081885672E-01  0.56840019890E-01  0.51100000000E-03 0.  1.
</event>
<event>
 8    1  0.1197213E+005  0.1043930E+01  0.7957747E-01            NaN
         13   -1    0    0    0    0  0.00000000000E+00  0.00000000000E+00  0.74505805969E-08  0.10566000000E+00  0.10566000000E+00 0.  1.
     999900   -1    0    0    0    0 -0.00000000000E+00 -0.00000000000E+00 -0.74505805969E-08  0.93827000000E+00  0.93827000000E+00 0. -1.
     999902    2    1    2    0    0  0.12450771648E-01 -0.14771859091E-01  0.10469040955E-01  0.10219565989E+01  0.10217203432E+01 0.  0.
     999903    2    3    3    0    0  0.69322255821E-01 -0.31920643752E-01  0.10905102362E+00  0.13446189257E+00  0.19062322829E-01 0.  0.
         14    1    1    2    0    0 -0.12450771648E-01  0.14771859091E-01 -0.10469040955E-01  0.21973401061E-01  0.00000000000E+00 0. -1.
     999901    1    3    3    0    0 -0.56871484173E-01  0.17148784661E-01 -0.98581982663E-01  0.88749470637E+00  0.88000000000E+00 0.  1.
        -11    1    4    4    0    0  0.37870435521E-01 -0.25389061271E-01  0.73958035399E-01  0.86883982642E-01  0.51100000000E-03 0. -1.
         11    1    4    4    0    0  0.31451820300E-01 -0.65315824812E-02  0.35092988220E-01  0.47577909928E-01  0.51100000000E-03 0.  1.
</event>
<event>
 8    1  0.1197213E+005  0.1043930E+01  0.7957747E-01            NaN
         13   -1    0    0    0    0  0.00000000000E+00  0.00000000000E+00  0.74505805969E-08  0.10566000000E+00  0.10566000000E+00 0. -1.
     999900   -1    0    0    0    0 -0.00000000000E+00 -0.00000000000E+00 -0.74505805969E-08  0.93827000000E+00  0.93827000000E+00 0.  1.
     999902    2    1    2    0    0 -0.18221712621E-01 -0.91946725136E-02  0.58158560207E-02  0.10227074414E+01  0.10224872193E+01 0.  0.
     999903    2    3    3    0    0  0.10716930566E+00  0.53777328265E-01 -0.45827980462E-01  0.13009584264E+00  0.21153329918E-01 0.  0.
         14    1    1    2    0    0  0.18221712621E-01  0.91946725136E-02 -0.58158560207E-02  0.21222558628E-01  0.00000000000E+00 0. -1.
     999901    1    3    3    0    0 -0.12539101828E+00 -0.62972000778E-01  0.51643836483E-01  0.89261159873E+00  0.88000000000E+00 0.  1.
        -11    1    4    4    0    0  0.23897248797E-01  0.15228459781E-01 -0.20247678001E-02  0.28413822217E-01  0.51100000000E-03 0.  1.
         11    1    4    4    0    0  0.83272056867E-01  0.38548868484E-01 -0.43803212662E-01  0.10168202042E+00  0.51100000000E-03 0. -1.
</event>
<event>
 8    1  0.1197213E+005  0.1043930E+01  0.7957747E-01            NaN
         13   -1    0    0    0    0  0.00000000000E+00  0.00000000000E+00  0.74505805969E-08  0.10566000000E+00  0.10566000000E+00 0.  1.
     999900   -1    0    0    0    0 -0.00000000000E+00 -0.00000000000E+00 -0.74505805969E-08  0.93827000000E+00  0.93827000000E+00 0.  1.
     999902    2    1    2    0    0 -0.51634192950E-02 -0.18573078295E-01 -0.14577583174E-01  0.10197612998E+01  0.10194748563E+01 0.  0.
     999903    2    3    3    0    0 -0.12689070628E+00  0.18633929178E-01  0.10836900148E-01  0.13024019848E+00  0.19914724199E-01 0.  0.
         14    1    1    2    0    0  0.51634192950E-02  0.18573078295E-01  0.14577583174E-01  0.24168700159E-01  0.00000000000E+00 0.  1.
     999901    1    3    3    0    0  0.12172728698E+00 -0.37207007473E-01 -0.25414483322E-01  0.88952110136E+00  0.88000000000E+00 0. -1.
        -11    1    4    4    0    0 -0.87392950522E-01  0.17992586829E-01 -0.17642411687E-03  0.89227536266E-01  0.51100000000E-03 0. -1.
         11    1    4    4    0    0 -0.39497755754E-01  0.64134234887E-03  0.11013324265E-01  0.41012662216E-01  0.51100000000E-03 0.  1.
</event>
<event>
 8    1  0.1197213E+005  0.1043930E+01  0.7957747E-01            NaN
         13   -1    0    0    0    0  0.00000000000E+00  0.00000000000E+00  0.74505805969E-08  0.10566000000E+00  0.10566000000E+00 0. -1.
     999900   -1    0    0    0    0 -0.00000000000E+00 -0.00000000000E+00 -0.74505805969E-08  0.93827000000E+00  0.93827000000E+00 0. -1.
     999902    2    1    2    0    0 -0.11196006709E-01  0.15960906359E-01 -0.13419122926E-01  0.10202620056E+01  0.10199874441E+01 0.  0.
     999903    2    3    3    0    0  0.16630696298E-01  0.12699585333E+00  0.24740971979E-01  0.13202820887E+00  0.20366772443E-01 0.  0.
         14    1    1    2    0    0  0.11196006709E-01 -0.15960906359E-01  0.13419122926E-01  0.23667994383E-01  0.00000000000E+00 0. -1.
     999901    1    3    3    0    0 -0.27826703007E-01 -0.11103494697E+00 -0.38160094905E-01  0.88823379675E+00  0.88000000000E+00 0.  1.
        -11    1    4    4    0    0  0.18959465274E-01  0.67455454216E-01  0.14788692495E-01  0.71614706406E-01  0.51100000000E-03 0.  1.
         11    1    4    4    0    0 -0.23287689762E-02  0.59540399112E-01  0.99522794842E-02  0.60413502459E-01  0.51100000000E-03 0. -1.
</event>
<event>
 8    1  0.1197213E+005  0.1043930E+01  0.7957747E-01            NaN
         13   -1    0    0    0    0  0.00000000000E+00  0.00000000000E+00  0.74505805969E-08  0.10566000000E+00  0.10566000000E+00 0. -1.
     999900   -1    0    0    0    0 -0.00000000000E+00 -0.00000000000E+00 -0.74505805969E-08  0.93827000000E+00  0.93827000000E+00 0. -1.
     999902    2    1    2    0    0 -0.13675665863E-01 -0.86733705217E-03 -0.19235833234E-01  0.10203123500E+01  0.10200389690E+01 0.  0.
     999903    2    3    3    0    0 -0.59039170697E-01  0.10811814913E+00 -0.40888620542E-01  0.13216566902E+00  0.24914392020E-01 0.  0.
         14    1    1    2    0    0  0.13675665863E-01  0.86733705217E-03  0.19235833234E-01  0.23617649980E-01  0.00000000000E+00 0. -1.
     999901    1    3    3    0    0  0.45363504834E-01 -0.10898548618E+00  0.21652787308E-01  0.88814668100E+00  0.88000000000E+00 0.  1.
        -11    1    4    4    0    0 -0.57201561022E-01  0.91182968374E-01 -0.29303472195E-01  0.11155853579E+00  0.51100000000E-03 0. -1.
         11    1    4    4    0    0 -0.18376096752E-02  0.16935180759E-01 -0.11585148347E-01  0.20607133228E-01  0.51100000000E-03 0.  1.
</event>
<event>
 8    1  0.1197213E+005  0.1043930E+01  0.7957747E-01            NaN
         13   -1    0    0    0    0  0.00000000000E+00  0.00000000000E+00  0.74505805969E-08  0.10566000000E+00  0.10566000000E+00 0.  1.
     999900   -1    0    0    0    0 -0.00000000000E+00 -0.00000000000E+00 -0.74505805969E-08  0.93827000000E+00  0.93827000000E+00 0.  1.
     999902    2    1    2    0    0 -0.18324183755E-01 -0.11749252509E-01  0.83325045922E-02  0.10206222486E+01  0.10203560766E+01 0.  0.
     999903    2    3    3    0    0  0.51821914678E-01  0.22881532479E-02  0.11846886757E+00  0.13087647456E+00  0.20075669912E-01 0.  0.
         14    1    1    2    0    0  0.18324183755E-01  0.11749252509E-01 -0.83325045922E-02  0.23307751449E-01  0.00000000000E+00 0. -1.
     999901    1    3    3    0    0 -0.70146098434E-01 -0.14037405757E-01 -0.11013636298E+00  0.88974577399E+00  0.88000000000E+00 0.  1.
        -11    1    4    4    0    0  0.31635212498E-01 -0.39396894014E-02  0.89571445279E-01  0.95076878118E-01  0.51100000000E-03 0.  1.
         11    1    4    4    0    0  0.20186702181E-01  0.62278426493E-02  0.28897422296E-01  0.35799596441E-01  0.51100000000E-03 0. -1.
</event>
<event>
 8    1  0.1197213E+005  0.1043930E+01  0.7957747E-01            NaN
         13   -1    0    0    0    0  0.00000000000E+00  0.00000000000E+00  0.74505805969E-08  0.10566000000E+00  0.10566000000E+00 0.  1.
     999900   -1    0    0    0    0 -0.00000000000E+00 -0.00000000000E+00 -0.74505805969E-08  0.93827000000E+00  0.93827000000E+00 0.  1.
     999902    2    1    2    0    0  0.21069611201E-01  0.10691508636E-01 -0.28119645862E-03  0.10203012898E+01  0.10200276497E+01 0.  0.
     999903    2    3    3    0    0 -0.65791134118E-01 -0.10230000461E+00  0.35150362477E-01  0.12813131358E+00  0.19705868819E-01 0.  0.
         14    1    1    2    0    0 -0.21069611201E-01 -0.10691508636E-01  0.28119645862E-03  0.23628710175E-01  0.00000000000E+00 0. -1.
     999901    1    3    3    0    0  0.86860745320E-01  0.11299151325E+00 -0.35431558935E-01  0.89216997624E+00  0.88000000000E+00 0.  1.
        -11    1    4    4    0    0 -0.28164881028E-01 -0.28568013373E-01  0.15807023955E-01  0.43122094555E-01  0.51100000000E-03 0.  1.
         11    1    4    4    0    0 -0.37626253090E-01 -0.73731991236E-01  0.19343338521E-01  0.85009219026E-01  0.51100000000E-03 0. -1.
</event>
<event>
 8    1  0.1197213E+005  0.1043930E+01  0.7957747E-01            NaN
         13   -1    0    0    0    0  0.00000000000E+00  0.00000000000E+00  0.74505805969E-08  0.10566000000E+00  0.10566000000E+00 0.  1.
     999900   -1    0    0    0    0 -0.00000000000E+00 -0.00000000000E+00 -0.74505805969E-08  0.93827000000E+00  0.93827000000E+00 0. -1.
     999902    2    1    2    0    0  0.89204660730E-02 -0.21812816586E-01  0.10106106922E-02  0.10203419730E+01  0.10200692853E+01 0.  0.
     999903    2    3    3    0    0 -0.52963938167E-01 -0.58129901221E-01  0.10300919772E+00  0.13154935274E+00  0.22584800837E-01 0.  0.
         14    1    1    2    0    0 -0.89204660730E-02  0.21812816586E-01 -0.10106106922E-02  0.23588026970E-01  0.00000000000E+00 0. -1.
     999901    1    3    3    0    0  0.61884404240E-01  0.36317084635E-01 -0.10199858703E+00  0.88879262029E+00  0.88000000000E+00 0. -1.
        -11    1    4    4    0    0 -0.47573304581E-01 -0.37834589837E-01  0.75042153011E-01  0.96572570363E-01  0.51100000000E-03 0. -1.
         11    1    4    4    0    0 -0.53906335867E-02 -0.20295311384E-01  0.27967044712E-01  0.34976782378E-01  0.51100000000E-03 0.  1.
</event>
<event>
 8    1  0.1197213E+005  0.1043930E+01  0.7957747E-01            NaN
         13   -1    0    0    0    0  0.00000000000E+00  0.00000000000E+00  0.74505805969E-08  0.10566000000E+00  0.10566000000E+00 0.  1.
     999900   -1    0    0    0    0 -0.00000000000E+00 -0.00000000000E+00 -0.74505805969E-08  0.93827000000E+00  0.93827000000E+00 0. -1.
     999902    2    1    2    0    0 -0.96305812790E-02 -0.17094616482E-01 -0.13955985213E-01  0.10198521361E+01  0.10195678672E+01 0.  0.
     999903    2    3    3    0    0 -0.10378785502E+00 -0.79481373019E-01  0.58827084836E-02  0.13241127981E+00  0.20222098157E-01 0.  0.
         14    1    1    2    0    0  0.96305812790E-02  0.17094616482E-01  0.13955985213E-01  0.24077863936E-01  0.00000000000E+00 0.  1.
     999901    1    3    3    0    0  0.94157273741E-01  0.62386756537E-01 -0.19838693697E-01  0.88744085626E+00  0.88000000000E+00 0. -1.
        -11    1    4    4    0    0 -0.21714116213E-01 -0.27820307804E-01  0.10581889853E-02  0.35310809310E-01  0.51100000000E-03 0. -1.
         11    1    4    4    0    0 -0.82073738807E-01 -0.51661065215E-01  0.48245194983E-02  0.97100470495E-01  0.51100000000E-03 0.  1.
</event>
<event>
 8    1  0.1197213E+005  0.1043930E+01  0.7957747E-01            NaN
         13   -1    0    0    0    0  0.00000000000E+00  0.00000000000E+00  0.74505805969E-08  0.10566000000E+00  0.10566000000E+00 0.  1.
     999900   -1    0    0    0    0 -0.00000000000E+00 -0.00000000000E+00 -0.74505805969E-08  0.93827000000E+00  0.93827000000E+00 0.  1.
     999902    2    1    2    0    0  0.17606190102E-01 -0.12279498767E-01 -0.71635718360E-02  0.10213007980E+01  0.10210500670E+01 0.  0.
     999903    2    3    3    0    0 -0.10784213800E+00 -0.14171771408E-01 -0.69092224324E-01  0.13024747656E+00  0.18971132158E-01 0.  0.
         14    1    1    2    0    0 -0.17606190102E-01  0.12279498767E-01  0.71635718360E-02  0.22629201960E-01  0.00000000000E+00 0.  1.
     999901    1    3    3    0    0  0.12544832810E+00  0.18922726406E-02  0.61928652488E-01  0.89105332148E+00  0.88000000000E+00 0.  1.
        -11    1    4    4    0    0 -0.70219845480E-01 -0.17873831859E-01 -0.42226872006E-01  0.83866980421E-01  0.51100000000E-03 0. -1.
         11    1    4    4    0    0 -0.37622292520E-01  0.37020604515E-02 -0.26865352318E-01  0.46380496141E-01  0.51100000000E-03 0.  1.
</event>
<event>
 8    1  0.1197213E+005  0.1043930E+01  0.7957747E-01            NaN
         13   -1    0    0    0    0  0.00000000000E+00  0.00000000000E+00  0.74505805969E-08  0.10566000000E+00  0.10566000000E+00 0.  1.
     999900   -1    0    0    0    0 -0.00000000000E+00 -0.00000000000E+00 -0.74505805969E-08  0.93827000000E+00  0.93827000000E+00 0. -1.
     999902    2    1    2    0    0  0.15483058416E-01 -0.16558881095E-01 -0.62103228924E-02  0.10204248995E+01  0.10201541480E+01 0.  0.
     999903    2    3    3    0    0  0.39928408431E-01 -0.78864079691E-01 -0.97574443446E-01  0.13316681106E+00  0.19970144911E-01 0.  0.
         14    1    1    2    0    0 -0.15483058416E-01  0.16558881095E-01  0.62103228924E-02  0.23505100541E-01  0.00000000000E+00 0.  1.
     999901    1    3    3    0    0 -0.24445350015E-01  0.62305198597E-01  0.91364120554E-01  0.88725808840E+00  0.88000000000E+00 0.  1.
        -11    1    4    4    0    0  0.13985342970E-01 -0.36174109849E-01 -0.56285153137E-01  0.68355216524E-01  0.51100000000E-03 0.  1.
         11    1    4    4    0    0  0.25943065461E-01 -0.42689969842E-01 -0.41289290309E-01  0.64811594533E-01  0.51100000000E-03 0. -1.
</event>
<event>
 8    1  0.1197213E+005  0.1043930E+01  0.7957747E-01            NaN
         13   -1    0    0    0    0  0.00000000000E+00  0.00000000000E+00  0.74505805969E-08  0.10566000000E+00  0.10566000000E+00 0.  1.
     999900   -1    0    0    0    0 -0.00000000000E+00 -0.00000000000E+00 -0.74505805969E-08  0.93827000000E+00  0.93827000000E+00 0.  1.
     999902    2    1    2    0    0 -0.92664112735E-02  0.15670209589E-01  0.15159554408E-01  0.10202396236E+01  0.10199645364E+01 0.  0.
     999903    2    3    3    0    0 -0.12243175370E+00  0.46032305446E-01 -0.24499505922E-02  0.13229911526E+00  0.19711574818E-01 0.  0.
         14    1    1    2    0    0  0.92664112735E-02 -0.15670209589E-01 -0.15159554408E-01  0.23690376449E-01  0.00000000000E+00 0.  1.
     999901    1    3    3    0    0  0.11316534243E+00 -0.30362095857E-01  0.17609505000E-01  0.88794050829E+00  0.88000000000E+00 0. -1.
        -11    1    4    4    0    0 -0.96422344930E-01  0.27685355887E-01  0.58696392083E-03  0.10032124989E+00  0.51100000000E-03 0. -1.
         11    1    4    4    0    0 -0.26009408773E-01  0.18346949559E-01 -0.30369145130E-02  0.31977865370E-01  0.51100000000E-03 0.  1.
</event>
<event>
 8    1  0.1197213E+005  0.1043930E+01  0.7957747E-01            NaN
         13   -1    0    0    0    0  0.00000000000E+00  0.00000000000E+00  0.74505805969E-08  0.10566000000E+00  0.10566000000E+00 0. -1.
     999900   -1    0    0    0    0 -0.00000000000E+00 -0.00000000000E+00 -0.74505805969E-08  0.93827000000E+00  0.93827000000E+00 0. -1.
     999902    2    1    2    0    0 -0.12926910376E-02  0.16370935604E-01  0.15234278155E-01  0.10215299595E+01  0.10212843367E+01 0.  0.
     999903    2    3    3    0    0  0.80268440085E-03  0.12403809402E+00  0.47819390994E-01  0.13436684195E+00  0.19536145694E-01 0.  0.
         14    1    1    2    0    0  0.12926910376E-02 -0.16370935604E-01 -0.15234278155E-01  0.22400040481E-01  0.00000000000E+00 0.  1.
     999901    1    3    3    0    0 -0.20953754385E-02 -0.10766715842E+00 -0.32585112840E-01  0.88716311757E+00  0.88000000000E+00 0.  1.
        -11    1    4    4    0    0 -0.90679964226E-02  0.44359174709E-01  0.17030368075E-01  0.48376228644E-01  0.51100000000E-03 0. -1.
         11    1    4    4    0    0  0.98706808234E-02  0.79678919314E-01  0.30789022920E-01  0.85990613304E-01  0.51100000000E-03 0.  1.
</event>
<event>
 8    1  0.1197213E+005  0.1043930E+01  0.7957747E-01            NaN
         13   -1    0    0    0    0  0.00000000000E+00  0.00000000000E+00  0.74505805969E-08  0.10566000000E+00  0.10566000000E+00 0.  1.
     999900   -1    0    0    0    0 -0.00000000000E+00 -0.00000000000E+00 -0.74505805969E-08  0.93827000000E+00  0.93827000000E+00 0. -1.
     999902    2    1    2    0    0  0.47465722897E-02 -0.22533681214E-01  0.28932658740E-03  0.10209000098E+01  0.10206402156E+01 0.  0.
     999903    2    3    3    0    0  0.55347869783E-01  0.98680156918E-01 -0.58924703218E-01  0.12918279726E+00  0.20369447695E-01 0.  0.
         14    1    1    2    0    0 -0.47465722897E-02  0.22533681214E-01 -0.28932658740E-03  0.23029990174E-01  0.00000000000E+00 0. -1.
     999901    1    3    3    0    0 -0.50601297493E-01 -0.12121383813E+00  0.59214029805E-01  0.89171721257E+00  0.88000000000E+00 0.  1.
        -11    1    4    4    0    0  0.27968589367E-01  0.43217154399E-01 -0.16060424055E-01  0.53927384206E-01  0.51100000000E-03 0.  1.
         11    1    4    4    0    0  0.27379280416E-01  0.55463002519E-01 -0.42864279163E-01  0.75255413053E-01  0.51100000000E-03 0. -1.
</event>
<event>
 8    1  0.1197213E+005  0.1043930E+01  0.7957747E-01            NaN
         13   -1    0    0    0    0  0.00000000000E+00  0.00000000000E+00  0.74505805969E-08  0.10566000000E+00  0.10566000000E+00 0.  1.
     999900   -1    0    0    0    0 -0.00000000000E+00 -0.00000000000E+00 -0.74505805969E-08  0.93827000000E+00  0.93827000000E+00 0. -1.
     999902    2    1    2    0    0 -0.14068870715E-01 -0.18139032765E-01  0.91671522318E-02  0.10192117008E+01  0.10189119181E+01 0.  0.
     999903    2    3    3    0    0  0.89865414043E-01 -0.59206471196E-01  0.70599259052E-01  0.13001949789E+00  0.18428661950E-01 0.  0.
         14    1    1    2    0    0  0.14068870715E-01  0.18139032765E-01 -0.91671522318E-02  0.24718299151E-01  0.00000000000E+00 0. -1.
     999901    1    3    3    0    0 -0.10393428476E+00  0.41067438431E-01 -0.61432106821E-01  0.88919220296E+00  0.88000000000E+00 0. -1.
        -11    1    4    4    0    0  0.36064497979E-01 -0.31968408572E-01  0.24204445677E-01  0.53932768079E-01  0.51100000000E-03 0.  1.
         11    1    4    4    0    0  0.53800916064E-01 -0.27238062624E-01  0.46394813376E-01  0.76086729815E-01  0.51100000000E-03 0. -1.
</event>
<event>
 8    1  0.1197213E+005  0.1043930E+01  0.7957747E-01            NaN
         13   -1    0    0    0    0  0.00000000000E+00  0.00000000000E+00  0.74505805969E-08  0.10566000000E+00  0.10566000000E+00 0. -1.
     999900   -1    0    0    0    0 -0.00000000000E+00 -0.00000000000E+00 -0.74505805969E-08  0.93827000000E+00  0.93827000000E+00 0. -1.
     999902    2    1    2    0    0 -0.13168059382E-01  0.72702278212E-02 -0.18742479935E-01  0.10198980514E+01  0.10196148786E+01 0.  0.
     999903    2    3    3    0    0 -0.10376456933E-01  0.94242071097E-01  0.85863447421E-01  0.12944070001E+00  0.19827364749E-01 0.  0.
         14    1    1    2    0    0  0.13168059382E-01 -0.72702278212E-02  0.18742479935E-01  0.24031948622E-01  0.00000000000E+00 0. -1.
     999901    1    3    3    0    0 -0.27916024488E-02 -0.86971843276E-01 -0.10460592736E+00  0.89045735137E+00  0.88000000000E+00 0. -1.
        -11    1    4    4    0    0  0.42553838869E-02  0.48594667242E-01  0.46802081352E-01  0.67603593959E-01  0.51100000000E-03 0.  1.
         11    1    4    4    0    0 -0.14631840820E-01  0.45647403855E-01  0.39061366069E-01  0.61837106051E-01  0.51100000000E-03 0. -1.
</event>
<event>
 8    1  0.1197213E+005  0.1043930E+01  0.7957747E-01            NaN
         13   -1    0    0    0    0  0.00000000000E+00  0.00000000000E+00  0.74505805969E-08  0.10566000000E+00  0.10566000000E+00 0. -1.
     999900   -1    0    0    0    0 -0.00000000000E+00 -0.00000000000E+00 -0.74505805969E-08  0.93827000000E+00  0.93827000000E+00 0.  1.
     999902    2    1    2    0    0  0.20717199431E-01 -0.24380719317E-02  0.10898514392E-01  0.10203944065E+01  0.10201229439E+01 0.  0.
     999903    2    3    3    0    0 -0.38903672804E-01 -0.12287440266E+00  0.39887785779E-02  0.13016561418E+00  0.17764069714E-01 0.  0.
         14    1    1    2    0    0 -0.20717199431E-01  0.24380719317E-02 -0.10898514392E-01  0.23535593533E-01  0.00000000000E+00 0.  1.
     999901    1    3    3    0    0  0.59620872235E-01  0.12043633073E+00  0.69097358140E-02  0.89022879229E+00  0.88000000000E+00 0. -1.
        -11    1    4    4    0    0 -0.24215033429E-01 -0.86240578691E-01  0.10390133481E-01  0.90177720373E-01  0.51100000000E-03 0.  1.
         11    1    4    4    0    0 -0.14688639375E-01 -0.36633823973E-01 -0.64013549033E-02  0.39987893808E-01  0.51100000000E-03 0. -1.
</event>
<event>
 8    1  0.1197213E+005  0.1043930E+01  0.7957747E-01            NaN
         13   -1    0    0    0    0  0.00000000000E+00  0.00000000000E+00  0.74505805969E-08  0.10566000000E+00  0.10566000000E+00 0. -1.
     999900   -1    0    0    0    0 -0.00000000000E+00 -0.00000000000E+00 -0.74505805969E-08  0.93827000000E+00  0.93827000000E+00 0.  1.
     999902    2    1    2    0    0  0.79941274228E-02  0.20022427440E-01  0.23265437515E-02  0.10222455245E+01  0.10220155066E+01 0.  0.
     999903    2    3    3    0    0  0.98939814333E-01  0.63200032976E-01  0.62075052907E-01  0.13449257012E+00  0.21251075156E-01 0.  0.
         14    1    1    2    0    0 -0.79941274228E-02 -0.20022427440E-01 -0.23265437515E-02  0.21684475545E-01  0.00000000000E+00 0. -1.
     999901    1    3    3    0    0 -0.90945686910E-01 -0.43177605536E-01 -0.59748509155E-01  0.88775295434E+00  0.88000000000E+00 0.  1.
        -11    1    4    4    0    0  0.44518163282E-01  0.35124173670E-01  0.39999855703E-01  0.69396138331E-01  0.51100000000E-03 0.  1.
         11    1    4    4    0    0  0.54421651050E-01  0.28075859306E-01  0.22075197204E-01  0.65096431787E-01  0.51100000000E-03 0. -1.
</event>
<event>
 8    1  0.1197213E+005  0.1043930E+01  0.7957747E-01            NaN
         13   -1    0    0    0    0  0.00000000000E+00  0.00000000000E+00  0.74505805969E-08  0.10566000000E+00  0.10566000000E+00 0.  1.
     999900   -1    0    0    0    0 -0.00000000000E+00 -0.00000000000E+00 -0.74505805969E-08  0.93827000000E+00  0.93827000000E+00 0.  1.
     999902    2    1    2    0    0 -0.85108386455E-02 -0.47212846077E-02  0.21017006048E-01  0.10207688376E+01  0.10205060413E+01 0.  0.
     999903    2    3    3    0    0 -0.72466776524E-01 -0.32831884203E-02 -0.10530945594E+00  0.12944913895E+00  0.20119270351E-01 0.  0.
         14    1    1    2    0    0  0.85108386455E-02  0.47212846077E-02 -0.21017006048E-01  0.23161162449E-01  0.00000000000E+00 0. -1.
     999901    1    3    3    0    0  0.63955937879E-01 -0.14380961874E-02  0.12632646199E+00  0.89131969860E+00  0.88000000000E+00 0. -1.
        -11    1    4    4    0    0 -0.58369259245E-01 -0.13181998117E-02 -0.68655538243E-01  0.90125202512E-01  0.51100000000E-03 0. -1.
         11    1    4    4    0    0 -0.14097517279E-01 -0.19649886086E-02 -0.36653917696E-01  0.39323936440E-01  0.51100000000E-03 0.  1.
</event>
<event>
 8    1  0.1197213E+005  0.1043930E+01  0.7957747E-01            NaN
         13   -1    0    0    0    0  0.00000000000E+00  0.00000000000E+00  0.74505805969E-08  0.10566000000E+00  0.10566000000E+00 0.  1.
     999900   -1    0    0    0    0 -0.00000000000E+00 -0.00000000000E+00 -0.74505805969E-08  0.93827000000E+00  0.93827000000E+00 0. -1.
     999902    2    1    2    0    0 -0.88469015177E-02  0.13492091976E-01  0.17259124281E-01  0.10203041332E+01  0.10200305596E+01 0.  0.
     999903    2    3    3    0    0  0.71189186293E-01  0.74564187849E-01  0.80357553138E-01  0.13231934278E+00  0.20575562511E-01 0.  0.
         14    1    1    2    0    0  0.88469015177E-02 -0.13492091976E-01 -0.17259124281E-01  0.23625866827E-01  0.00000000000E+00 0. -1.
     999901    1    3    3    0    0 -0.80036087811E-01 -0.61072095872E-01 -0.63098428856E-01  0.88798479039E+00  0.88000000000E+00 0. -1.
        -11    1    4    4    0    0  0.45733638829E-01  0.58999337944E-01  0.63753882366E-01  0.98169782704E-01  0.51100000000E-03 0. -1.
         11    1    4    4    0    0  0.25455547464E-01  0.15564849905E-01  0.16603670772E-01  0.34149560076E-01  0.51100000000E-03 0.  1.
</event>
<event>
 8    1  0.1197213E+005  0.1043930E+01  0.7957747E-01            NaN
         13   -1    0    0    0    0  0.00000000000E+00  0.00000000000E+00  0.74505805969E-08  0.10566000000E+00  0.10566000000E+00 0.  1.
     999900   -1    0    0    0    0 -0.00000000000E+00 -0.00000000000E+00 -0.74505805969E-08  0.93827000000E+00  0.93827000000E+00 0.  1.
     999902    2    1    2    0    0  0.72842194166E-02 -0.82274929387E-03 -0.22965677557E-01  0.10198227580E+01  0.10195377868E+01 0.  0.
     999903    2    3    3    0    0  0.34260730236E-01 -0.85329200136E-01  0.87527973685E-01  0.12848784942E+00  0.19827033041E-01 0.  0.
         14    1    1    2    0    0 -0.72842194166E-02  0.82274929387E-03  0.22965677557E-01  0.24107241953E-01  0.00000000000E+00 0.  1.
     999901    1    3    3    0    0 -0.26976510819E-01  0.84506450843E-01 -0.11049365124E+00  0.89133490863E+00  0.88000000000E+00 0. -1.
        -11    1    4    4    0    0  0.15516341628E-01 -0.44896993511E-01  0.58238342433E-01  0.75156254125E-01  0.51100000000E-03 0. -1.
         11    1    4    4    0    0  0.18744388608E-01 -0.40432206625E-01  0.29289631253E-01  0.53331595296E-01  0.51100000000E-03 0.  1.
</event>
<event>
 8    1  0.1197213E+005  0.1043930E+01  0.7957747E-01            NaN
         13   -1    0    0    0    0  0.00000000000E+00  0.00000000000E+00  0.74505805969E-08  0.10566000000E+00  0.10566000000E+00 0. -1.
     999900   -1    0    0    0    0 -0.00000000000E+00 -0.00000000000E+00 -0.74505805969E-08  0.93827000000E+00  0.93827000000E+00 0.  1.
     999902    2    1    2    0    0 -0.22570392168E-01 -0.42343628768E-02  0.83606625028E-02  0.10194912376E+01  0.10191982782E+01 0.  0.
     999903    2    3    3    0    0 -0.12771288544E+00  0.59357346940E-03 -0.28611960718E-01  0.13244826920E+00  0.20321571853E-01 0.  0.
         14    1    1    2    0    0  0.22570392168E-01  0.42343628768E-02 -0.83606625028E-02  0.24438762429E-01  0.00000000000E+00 0.  1.
     999901    1    3    3    0    0  0.10514249327E+00 -0.48279363462E-02  0.36972623221E-01  0.88704296837E+00  0.88000000000E+00 0. -1.
        -11    1    4    4    0    0 -0.12546996689E+00  0.16783370718E-02 -0.24868812844E-01  0.12792282197E+00  0.51100000000E-03 0.  1.
         11    1    4    4    0    0 -0.22429185480E-02 -0.10847636024E-02 -0.37431478742E-02  0.45254472369E-02  0.51100000000E-03 0. -1.
</event>
<event>
 8    1  0.1197213E+005  0.1043930E+01  0.7957747E-01            NaN
         13   -1    0    0    0    0  0.00000000000E+00  0.00000000000E+00  0.74505805969E-08  0.10566000000E+00  0.10566000000E+00 0.  1.
     999900   -1    0    0    0    0 -0.00000000000E+00 -0.00000000000E+00 -0.74505805969E-08  0.93827000000E+00  0.93827000000E+00 0.  1.
     999902    2    1    2    0    0 -0.17827795685E-01 -0.16897931747E-01 -0.57945059634E-02  0.10186921971E+01  0.10183795195E+01 0.  0.
     999903    2    3    3    0    0 -0.64561563278E-01  0.10230591109E+00 -0.39432710274E-01  0.12879044410E+00  0.19933513395E-01 0.  0.
         14    1    1    2    0    0  0.17827795685E-01  0.16897931747E-01  0.57945059634E-02  0.25237802909E-01  0.00000000000E+00 0.  1.
     999901    1    3    3    0    0  0.46733767593E-01 -0.11920384284E+00  0.33638204311E-01  0.88990175299E+00  0.88000000000E+00 0. -1.
        -11    1    4    4    0    0 -0.14443784758E-01  0.17178376632E-01 -0.15087718717E-01  0.27048473504E-01  0.51100000000E-03 0. -1.
         11    1    4    4    0    0 -0.50117778520E-01  0.85127534457E-01 -0.24344991557E-01  0.10174197060E+00  0.51100000000E-03 0.  1.
</event>
<event>
 8    1  0.1197213E+005  0.1043930E+01  0.7957747E-01            NaN
         13   -1    0    0    0    0  0.00000000000E+00  0.00000000000E+00  0.74505805969E-08  0.10566000000E+00  0.10566000000E+00 0. -1.
     999900   -1    0    0    0    0 -0.00000000000E+00 -0.00000000000E+00 -0.74505805969E-08  0.93827000000E+00  0.93827000000E+00 0. -1.
     999902    2    1    2    0    0  0.33410892141E-02  0.63520854424E-02  0.22913447442E-01  0.10199187955E+01  0.10196361172E+01 0.  0.
     999903    2    3    3    0    0 -0.53738824859E-01 -0.11583306136E+00 -0.32760225954E-03  0.12934175053E+00  0.20591787286E-01 0.  0.
         14    1    1    2    0    0 -0.33410892141E-02 -0.63520854424E-02 -0.22913447442E-01  0.24011204474E-01  0.00000000000E+00 0.  1.
     999901    1    3    3    0    0  0.57079914073E-01  0.12218514681E+00  0.23241049702E-01  0.89057704500E+00  0.88000000000E+00 0.  1.
        -11    1    4    4    0    0 -0.85004740974E-02 -0.40986936365E-01  0.10143905033E-02  0.41874540255E-01  0.51100000000E-03 0. -1.
         11    1    4    4    0    0 -0.45238350761E-01 -0.74846124999E-01 -0.13419927629E-02  0.87467210271E-01  0.51100000000E-03 0.  1.
</event>
<event>
 8    1  0.1197213E+005  0.1043930E+01  0.7957747E-01            NaN
         13   -1    0    0    0    0  0.00000000000E+00  0.00000000000E+00  0.74505805969E-08  0.10566000000E+00  0.10566000000E+00 0. -1.
     999900   -1    0    0    0    0 -0.00000000000E+00 -0.00000000000E+00 -0.74505805969E-08  0.93827000000E+00  0.93827000000E+00 0. -1.
     999902    2    1    2    0    0 -0.11524854770E-01 -0.20410140780E-01  0.28527639042E-02  0.10203178339E+01  0.10200445813E+01 0.  0.
     999903    2    3    3    0    0  0.91139184441E-01  0.30097703683E-01  0.84232991991E-01  0.12918726617E+00  0.19543031799E-01 0.  0.
         14    1    1    2    0    0  0.11524854770E-01  0.20410140780E-01 -0.28527639042E-02  0.23612166060E-01  0.00000000000E+00 0. -1.
     999901    1    3    3    0    0 -0.10266403921E+00 -0.50507844463E-01 -0.81380228087E-01  0.89113056777E+00  0.88000000000E+00 0. -1.
        -11    1    4    4    0    0  0.18681281785E-01  0.77383389297E-02  0.29069905117E-01  0.35414582915E-01  0.51100000000E-03 0.  1.
         11    1    4    4    0    0  0.72457902656E-01  0.22359364753E-01  0.55163086874E-01  0.93772683250E-01  0.51100000000E-03 0. -1.
</event>
<event>
 8    1  0.1197213E+005  0.1043930E+01  0.7957747E-01            NaN
         13   -1    0    0    0    0  0.00000000000E+00  0.00000000000E+00  0.74505805969E-08  0.10566000000E+00  0.10566000000E+00 0. -1.
     999900   -1    0    0    0    0 -0.00000000000E+00 -0.00000000000E+00 -0.74505805969E-08  0.93827000000E+00  0.93827000000E+00 0.  1.
     999902    2    1    2    0    0  0.21284020575E-02  0.15769829172E-01  0.17214003890E-01  0.10204877404E+01  0.10202184514E+01 0.  0.
     999903    2    3    3    0    0 -0.66237042181E-01 -0.10734457316E+00  0.20542567284E-01  0.12928514309E+00  0.19556278029E-01 0.  0.
         14    1    1    2    0    0 -0.21284020575E-02 -0.15769829172E-01 -0.17214003890E-01  0.23442259647E-01  0.00000000000E+00 0.  1.
     999901    1    3    3    0    0  0.68365444239E-01  0.12311440233E+00 -0.33285633941E-02  0.89120259726E+00  0.88000000000E+00 0.  1.
        -11    1    4    4    0    0 -0.34046092276E-01 -0.57349050195E-01  0.20652971403E-01  0.69820171200E-01  0.51100000000E-03 0. -1.
         11    1    4    4    0    0 -0.32190949905E-01 -0.49995522965E-01 -0.11040411856E-03  0.59464971894E-01  0.51100000000E-03 0.  1.
</event>
<event>
 8    1  0.1197213E+005  0.1043930E+01  0.7957747E-01            NaN
         13   -1    0    0    0    0  0.00000000000E+00  0.00000000000E+00  0.74505805969E-08  0.10566000000E+00  0.10566000000E+00 0.  1.
     999900   -1    0    0    0    0 -0.00000000000E+00 -0.00000000000E+00 -0.74505805969E-08  0.93827000000E+00  0.93827000000E+00 0.  1.
     999902    2    1    2    0    0 -0.14270465197E-01 -0.12245858129E-01 -0.13805725168E-01  0.10206017925E+01  0.10203351477E+01 0.  0.
     999903    2    3    3    0    0  0.74713101803E-01  0.96831660594E-01 -0.36202570003E-01  0.12913244420E+00  0.20153014540E-01 0.  0.
         14    1    1    2    0    0  0.14270465197E-01  0.12245858129E-01  0.13805725168E-01  0.23328207511E-01  0.00000000000E+00 0. -1.
     999901    1    3    3    0    0 -0.88983567000E-01 -0.10907751872E+00  0.22396844835E-01  0.89146934829E+00  0.88000000000E+00 0. -1.
        -11    1    4    4    0    0  0.71768852379E-01  0.82738325690E-01 -0.31285818890E-01  0.11390988673E+00  0.51100000000E-03 0. -1.
         11    1    4    4    0    0  0.29442494237E-02  0.14093334903E-01 -0.49167511128E-02  0.15222557468E-01  0.51100000000E-03 0.  1.
</event>
<event>
 8    1  0.1197213E+005  0.1043930E+01  0.7957747E-01            NaN
         13   -1    0    0    0    0  0.00000000000E+00  0.00000000000E+00  0.74505805969E-08  0.10566000000E+00  0.10566000000E+00 0.  1.
     999900   -1    0    0    0    0 -0.00000000000E+00 -0.00000000000E+00 -0.74505805969E-08  0.93827000000E+00  0.93827000000E+00 0.  1.
     999902    2    1    2    0    0 -0.92738474443E-02 -0.92730277193E-02  0.19558930273E-01  0.10203812199E+01  0.10201094495E+01 0.  0.
     999903    2    3    3    0    0 -0.61467897823E-01 -0.78604039640E-01 -0.81379838253E-01  0.13037018455E+00  0.20415911298E-01 0.  0.
         14    1    1    2    0    0  0.92738474443E-02  0.92730277193E-02 -0.19558930273E-01  0.23548780073E-01  0.00000000000E+00 0. -1.
     999901    1    3    3    0    0  0.52194050379E-01  0.69331011920E-01  0.10093876853E+00  0.89001103538E+00  0.88000000000E+00 0. -1.
        -11    1    4    4    0    0 -0.28506094387E-01 -0.24127289639E-01 -0.22248828153E-01  0.43474072707E-01  0.51100000000E-03 0.  1.
         11    1    4    4    0    0 -0.32961803436E-01 -0.54476750000E-01 -0.59131010100E-01  0.86896111839E-01  0.51100000000E-03 0. -1.
</event>
<event>
 8    1  0.1197213E+005  0.1043930E+01  0.7957747E-01            NaN
         13   -1    0    0    0    0  0.00000000000E+00  0.00000000000E+00  0.74505805969E-08  0.10566000000E+00  0.10566000000E+00 0.  1.
     999900   -1    0    0    0    0 -0.00000000000E+00 -0.00000000000E+00 -0.74505805969E-08  0.93827000000E+00  0.93827000000E+00 0. -1.
     999902    2    1    2    0    0 -0.12913678853E-01  0.19985383538E-01  0.16096150355E-02  0.10200811108E+01  0.10198022863E+01 0.  0.
     999903    2    3    3    0    0 -0.34659875212E-01 -0.11879279374E+00  0.28531399572E-01  0.12853354501E+00  0.19844309940E-01 0.  0.
         14    1    1    2    0    0  0.12913678853E-01 -0.19985383538E-01 -0.16096150355E-02  0.23848889225E-01  0.00000000000E+00 0.  1.
     999901    1    3    3    0    0  0.21746196359E-01  0.13877817728E+00 -0.26921784537E-01  0.89154756577E+00  0.88000000000E+00 0.  1.
        -11    1    4    4    0    0 -0.15421304640E-01 -0.58947558113E-01  0.40392285439E-02  0.61067239437E-01  0.51100000000E-03 0. -1.
         11    1    4    4    0    0 -0.19238570572E-01 -0.59845235625E-01  0.24492171028E-01  0.67466305570E-01  0.51100000000E-03 0.  1.
</event>
<event>
 8    1  0.1197213E+005  0.1043930E+01  0.7957747E-01            NaN
         13   -1    0    0    0    0  0.00000000000E+00  0.00000000000E+00  0.74505805969E-08  0.10566000000E+00  0.10566000000E+00 0. -1.
     999900   -1    0    0    0    0 -0.00000000000E+00 -0.00000000000E+00 -0.74505805969E-08  0.93827000000E+00  0.93827000000E+00 0. -1.
     999902    2    1    2    0    0 -0.25204798288E-02  0.38144870450E-02 -0.21765099939E-01  0.10216898852E+01  0.10214477955E+01 0.  0.
     999903    2    3    3    0    0 -0.10790157571E+00 -0.34857924106E-01 -0.66774411975E-01  0.13341821004E+00  0.21994812213E-01 0.  0.
         14    1    1    2    0    0  0.25204798288E-02 -0.38144870450E-02  0.21765099939E-01  0.22240114778E-01  0.00000000000E+00 0. -1.
     999901    1    3    3    0    0  0.10538109588E+00  0.38672411151E-01  0.45009312036E-01  0.88827167518E+00  0.88000000000E+00 0.  1.
        -11    1    4    4    0    0 -0.33405164235E-01 -0.21676548035E-01 -0.21702215100E-01  0.45354437418E-01  0.51100000000E-03 0.  1.
         11    1    4    4    0    0 -0.74496411471E-01 -0.13181376071E-01 -0.45072196874E-01  0.88063772626E-01  0.51100000000E-03 0. -1.
</event>
<event>
 8    1  0.1197213E+005  0.1043930E+01  0.7957747E-01            NaN
         13   -1    0    0    0    0  0.00000000000E+00  0.00000000000E+00  0.74505805969E-08  0.10566000000E+00  0.10566000000E+00 0.  1.
     999900   -1    0    0    0    0 -0.00000000000E+00 -0.00000000000E+00 -0.74505805969E-08  0.93827000000E+00  0.93827000000E+00 0.  1.
     999902    2    1    2    0    0 -0.26710732892E-03 -0.34351963617E-02  0.21178395617E-01  0.10224731512E+01  0.10222479878E+01 0.  0.
     999903    2    3    3    0    0 -0.35097243369E-01 -0.12672944258E+00  0.49434636476E-02  0.13304739118E+00  0.19621476960E-01 0.  0.
         14    1    1    2    0    0  0.26710732892E-03  0.34351963617E-02 -0.21178395617E-01  0.21456848820E-01  0.00000000000E+00 0. -1.
     999901    1    3    3    0    0  0.34830136040E-01  0.12329424622E+00  0.16234931970E-01  0.88942576000E+00  0.88000000000E+00 0. -1.
        -11    1    4    4    0    0 -0.29246658963E-01 -0.71925438074E-01 -0.63010808433E-03  0.77648527738E-01  0.51100000000E-03 0. -1.
         11    1    4    4    0    0 -0.58505844062E-02 -0.54804004511E-01  0.55735717319E-02  0.55398863446E-01  0.51100000000E-03 0.  1.
</event>
<event>
 8    1  0.1197213E+005  0.1043930E+01  0.7957747E-01            NaN
         13   -1    0    0    0    0  0.00000000000E+00  0.00000000000E+00  0.74505805969E-08  0.10566000000E+00  0.10566000000E+00 0. -1.
     999900   -1    0    0    0    0 -0.00000000000E+00 -0.00000000000E+00 -0.74505805969E-08  0.93827000000E+00  0.93827000000E+00 0. -1.
     999902    2    1    2    0    0  0.21786768196E-01 -0.59995818428E-02  0.83652968516E-02  0.10198336011E+01  0.10195488892E+01 0.  0.
     999903    2    3    3    0    0 -0.20942996838E-01 -0.30049790293E-01  0.12398442816E+00  0.13091739079E+00  0.20630699780E-01 0.  0.
         14    1    1    2    0    0 -0.21786768196E-01  0.59995818428E-02 -0.83652968516E-02  0.24096398945E-01  0.00000000000E+00 0.  1.
     999901    1    3    3    0    0  0.42729765033E-01  0.24050208450E-01 -0.11561913130E+00  0.88891621026E+00  0.88000000000E+00 0. -1.
        -11    1    4    4    0    0 -0.39839896202E-02 -0.23512361248E-01  0.69605553625E-01  0.73579192176E-01  0.51100000000E-03 0. -1.
         11    1    4    4    0    0 -0.16959007217E-01 -0.65374290448E-02  0.54378874530E-01  0.57338198616E-01  0.51100000000E-03 0.  1.
</event>
<event>
 8    1  0.1197213E+005  0.1043930E+01  0.7957747E-01            NaN
         13   -1    0    0    0    0  0.00000000000E+00  0.00000000000E+00  0.74505805969E-08  0.10566000000E+00  0.10566000000E+00 0.  1.
     999900   -1    0    0    0    0 -0.00000000000E+00 -0.00000000000E+00 -0.74505805969E-08  0.93827000000E+00  0.93827000000E+00 0.  1.
     999902    2    1    2    0    0  0.42552824918E-02  0.62277224634E-02 -0.22246300973E-01  0.10204397922E+01  0.10201693877E+01 0.  0.
     999903    2    3    3    0    0  0.11430384747E+00  0.54797586312E-02 -0.63630615127E-01  0.13262004271E+00  0.21067112917E-01 0.  0.
         14    1    1    2    0    0 -0.42552824918E-02 -0.62277224634E-02  0.22246300973E-01  0.23490207814E-01  0.00000000000E+00 0.  1.
     999901    1    3    3    0    0 -0.11004856497E+00  0.74796383213E-03  0.41384314153E-01  0.88781974948E+00  0.88000000000E+00 0. -1.
        -11    1    4    4    0    0  0.38980742976E-01 -0.77171703928E-02 -0.24929169100E-01  0.46912446481E-01  0.51100000000E-03 0.  1.
         11    1    4    4    0    0  0.75323104489E-01  0.13196929024E-01 -0.38701446027E-01  0.85707596228E-01  0.51100000000E-03 0. -1.
</event>
<event>
 8    1  0.1197213E+005  0.1043930E+01  0.7957747E-01            NaN
         13   -1    0    0    0    0  0.00000000000E+00  0.00000000000E+00  0.74505805969E-08  0.10566000000E+00  0.10566000000E+00 0. -1.
     999900   -1    0    0    0    0 -0.00000000000E+00 -0.00000000000E+00 -0.74505805969E-08  0.93827000000E+00  0.93827000000E+00 0.  1.
     999902    2    1    2    0    0  0.21325145506E-01  0.89939658168E-02  0.45650912931E-02  0.10203398896E+01  0.10200671531E+01 0.  0.
     999903    2    3    3    0    0  0.11193399655E+00  0.44039457280E-01  0.54458365956E-01  0.13358880317E+00  0.20286974349E-01 0.  0.
         14    1    1    2    0    0 -0.21325145506E-01 -0.89939658168E-02 -0.45650912931E-02  0.23590110438E-01  0.00000000000E+00 0. -1.
     999901    1    3    3    0    0 -0.90608851047E-01 -0.35045491463E-01 -0.49893274663E-01  0.88675108639E+00  0.88000000000E+00 0.  1.
        -11    1    4    4    0    0  0.82984028481E-01  0.41781198167E-01  0.42788985444E-01  0.10228966663E+00  0.51100000000E-03 0. -1.
         11    1    4    4    0    0  0.28949968071E-01  0.22582591121E-02  0.11669380512E-01  0.31299136539E-01  0.51100000000E-03 0.  1.
</event>
<event>
 8    1  0.1197213E+005  0.1043930E+01  0.7957747E-01            NaN
         13   -1    0    0    0    0  0.00000000000E+00  0.00000000000E+00  0.74505805969E-08  0.10566000000E+00  0.10566000000E+00 0. -1.
     999900   -1    0    0    0    0 -0.00000000000E+00 -0.00000000000E+00 -0.74505805969E-08  0.93827000000E+00  0.93827000000E+00 0. -1.
     999902    2    1    2    0    0 -0.21921478437E-01  0.81256096686E-02  0.71513091518E-02  0.10194817287E+01  0.10191885385E+01 0.  0.
     999903    2    3    3    0    0 -0.39010738686E-01 -0.43249960584E-01  0.11576914553E+00  0.13115221411E+00  0.20149724193E-01 0.  0.
         14    1    1    2    0    0  0.21921478437E-01 -0.81256096686E-02 -0.71513091518E-02  0.24448271349E-01  0.00000000000E+00 0.  1.
     999901    1    3    3    0    0  0.17089260249E-01  0.51375570252E-01 -0.10861783638E+00  0.88832951455E+00  0.88000000000E+00 0. -1.
        -11    1    4    4    0    0 -0.63720898646E-02 -0.21404823255E-01  0.40619337050E-01  0.46356894323E-01  0.51100000000E-03 0. -1.
         11    1    4    4    0    0 -0.32638648821E-01 -0.21845137329E-01  0.75149808478E-01  0.84795319782E-01  0.51100000000E-03 0.  1.
</event>
<event>
 8    1  0.1197213E+005  0.1043930E+01  0.7957747E-01            NaN
         13   -1    0    0    0    0  0.00000000000E+00  0.00000000000E+00  0.74505805969E-08  0.10566000000E+00  0.10566000000E+00 0. -1.
     999900   -1    0    0    0    0 -0.00000000000E+00 -0.00000000000E+00 -0.74505805969E-08  0.93827000000E+00  0.93827000000E+00 0.  1.
     999902    2    1    2    0    0 -0.51045080853E-02  0.43430535461E-02 -0.22693677792E-01  0.10202673474E+01  0.10199929113E+01 0.  0.
     999903    2    3    3    0    0  0.92583875167E-01 -0.88164868973E-01 -0.78052127563E-03  0.12977258470E+00  0.22259749856E-01 0.  0.
         14    1    1    2    0    0  0.51045080853E-02 -0.43430535461E-02  0.22693677792E-01  0.23662652612E-01  0.00000000000E+00 0. -1.
     999901    1    3    3    0    0 -0.97688383252E-01  0.92507922519E-01 -0.21913156517E-01  0.89049476269E+00  0.88000000000E+00 0. -1.
        -11    1    4    4    0    0  0.44614467061E-01 -0.51236004960E-01 -0.95253760722E-02  0.68604466223E-01  0.51100000000E-03 0.  1.
         11    1    4    4    0    0  0.47969408106E-01 -0.36928864013E-01  0.87448547965E-02  0.61168118474E-01  0.51100000000E-03 0. -1.
</event>
<event>
 8    1  0.1197213E+005  0.1043930E+01  0.7957747E-01            NaN
         13   -1    0    0    0    0  0.00000000000E+00  0.00000000000E+00  0.74505805969E-08  0.10566000000E+00  0.10566000000E+00 0.  1.
     999900   -1    0    0    0    0 -0.00000000000E+00 -0.00000000000E+00 -0.74505805969E-08  0.93827000000E+00  0.93827000000E+00 0.  1.
     999902    2    1    2    0    0 -0.67594719743E-02  0.23945893906E-01  0.11816504025E-01  0.10163850174E+01  0.10160117015E+01 0.  0.
     999903    2    3    3    0    0 -0.54576036467E-01 -0.10340146956E+00  0.41749348067E-01  0.12543061347E+00  0.17872410772E-01 0.  0.
         14    1    1    2    0    0  0.67594719743E-02 -0.23945893906E-01 -0.11816504025E-01  0.27544982550E-01  0.00000000000E+00 0. -1.
     999901    1    3    3    0    0  0.47816564492E-01  0.12734736347E+00 -0.29932844043E-01  0.89095440398E+00  0.88000000000E+00 0.  1.
        -11    1    4    4    0    0 -0.50989251985E-01 -0.92310505788E-01  0.31944097901E-01  0.11018992608E+00  0.51100000000E-03 0. -1.
         11    1    4    4    0    0 -0.35867844816E-02 -0.11090963774E-01  0.98052501666E-02  0.15240687392E-01  0.51100000000E-03 0.  1.
</event>
<event>
 8    1  0.1197213E+005  0.1043930E+01  0.7957747E-01            NaN
         13   -1    0    0    0    0  0.00000000000E+00  0.00000000000E+00  0.74505805969E-08  0.10566000000E+00  0.10566000000E+00 0.  1.
     999900   -1    0    0    0    0 -0.00000000000E+00 -0.00000000000E+00 -0.74505805969E-08  0.93827000000E+00  0.93827000000E+00 0. -1.
     999902    2    1    2    0    0  0.10670436686E-01  0.16830410554E-01 -0.12936354271E-01  0.10201714184E+01  0.10198947263E+01 0.  0.
     999903    2    3    3    0    0  0.10097144089E+00 -0.27222411992E-01 -0.78116264690E-01  0.13205918265E+00  0.20029611155E-01 0.  0.
         14    1    1    2    0    0 -0.10670436686E-01 -0.16830410554E-01  0.12936354271E-01  0.23758581614E-01  0.00000000000E+00 0. -1.
     999901    1    3    3    0    0 -0.90301004209E-01  0.44052822546E-01  0.65179910419E-01  0.88811223573E+00  0.88000000000E+00 0.  1.
        -11    1    4    4    0    0  0.38411767276E-01 -0.11400846864E-01 -0.18236753867E-01  0.44025941070E-01  0.51100000000E-03 0. -1.
         11    1    4    4    0    0  0.62559673619E-01 -0.15821565128E-01 -0.59879510823E-01  0.88033241584E-01  0.51100000000E-03 0.  1.
</event>
<event>
 8    1  0.1197213E+005  0.1043930E+01  0.7957747E-01            NaN
         13   -1    0    0    0    0  0.00000000000E+00  0.00000000000E+00  0.74505805969E-08  0.10566000000E+00  0.10566000000E+00 0.  1.
     999900   -1    0    0    0    0 -0.00000000000E+00 -0.00000000000E+00 -0.74505805969E-08  0.93827000000E+00  0.93827000000E+00 0. -1.
     999902    2    1    2    0    0  0.19149495375E-02  0.95221853700E-02 -0.16360992307E-01  0.10249031475E+01  0.10247265199E+01 0.  0.
     999903    2    3    3    0    0 -0.12821144960E+00  0.37011604382E-01 -0.40585161133E-02  0.13482455614E+00  0.18792411167E-01 0.  0.
         14    1    1    2    0    0 -0.19149495375E-02 -0.95221853700E-02  0.16360992307E-01  0.19026852478E-01  0.00000000000E+00 0.  1.
     999901    1    3    3    0    0  0.13012639914E+00 -0.27489419012E-01 -0.12302476194E-01  0.89007859138E+00  0.88000000000E+00 0. -1.
        -11    1    4    4    0    0 -0.81449882246E-01  0.14047284920E-01 -0.16533078729E-02  0.82670454695E-01  0.51100000000E-03 0.  1.
         11    1    4    4    0    0 -0.46761567358E-01  0.22964319462E-01 -0.24052082404E-02  0.52154101448E-01  0.51100000000E-03 0. -1.
</event>
<event>
 8    1  0.1197213E+005  0.1043930E+01  0.7957747E-01            NaN
         13   -1    0    0    0    0  0.00000000000E+00  0.00000000000E+00  0.74505805969E-08  0.10566000000E+00  0.10566000000E+00 0. -1.
     999900   -1    0    0    0    0 -0.00000000000E+00 -0.00000000000E+00 -0.74505805969E-08  0.93827000000E+00  0.93827000000E+00 0.  1.
     999902    2    1    2    0    0 -0.21120918318E-01 -0.31509656419E-02 -0.62490976893E-02  0.10216797641E+01  0.10214374515E+01 0.  0.
     999903    2    3    3    0    0 -0.66324281600E-01  0.89273474470E-01  0.69161565400E-01  0.13248215431E+00  0.19988384305E-01 0.  0.
         14    1    1    2    0    0  0.21120918318E-01  0.31509656419E-02  0.62490976893E-02  0.22250235886E-01  0.00000000000E+00 0.  1.
     999901    1    3    3    0    0  0.45203363282E-01 -0.92424440112E-01 -0.75410663089E-01  0.88919760981E+00  0.88000000000E+00 0.  1.
        -11    1    4    4    0    0 -0.28508382317E-01  0.23931094408E-01  0.27232172471E-01  0.46122418414E-01  0.51100000000E-03 0. -1.
         11    1    4    4    0    0 -0.37815899283E-01  0.65342380062E-01  0.41929392929E-01  0.86359735891E-01  0.51100000000E-03 0.  1.
</event>
<event>
 8    1  0.1197213E+005  0.1043930E+01  0.7957747E-01            NaN
         13   -1    0    0    0    0  0.00000000000E+00  0.00000000000E+00  0.74505805969E-08  0.10566000000E+00  0.10566000000E+00 0. -1.
     999900   -1    0    0    0    0 -0.00000000000E+00 -0.00000000000E+00 -0.74505805969E-08  0.93827000000E+00  0.93827000000E+00 0.  1.
     999902    2    1    2    0    0  0.36556773178E-02  0.19552063028E-01  0.12839664464E-01  0.10202550316E+01  0.10199803064E+01 0.  0.
     999903    2    3    3    0    0 -0.27873588776E-02  0.87568913237E-01  0.98511576733E-01  0.13345884240E+00  0.20752058417E-01 0.  0.
         14    1    1    2    0    0 -0.36556773178E-02 -0.19552063028E-01 -0.12839664464E-01  0.23674968403E-01  0.00000000000E+00 0.  1.
     999901    1    3    3    0    0  0.64430361954E-02 -0.68016850209E-01 -0.85671912269E-01  0.88679618920E+00  0.88000000000E+00 0.  1.
        -11    1    4    4    0    0 -0.76279406580E-02  0.11801408629E-01  0.13779024321E-01  0.19687086036E-01  0.51100000000E-03 0. -1.
         11    1    4    4    0    0  0.48405817805E-02  0.75767504608E-01  0.84732552412E-01  0.11377175636E+00  0.51100000000E-03 0.  1.
</event>
<event>
 8    1  0.1197213E+005  0.1043930E+01  0.7957747E-01            NaN
         13   -1    0    0    0    0  0.00000000000E+00  0.00000000000E+00  0.74505805969E-08  0.10566000000E+00  0.10566000000E+00 0.  1.
     999900   -1    0    0    0    0 -0.00000000000E+00 -0.00000000000E+00 -0.74505805969E-08  0.93827000000E+00  0.93827000000E+00 0.  1.
     999902    2    1    2    0    0 -0.70532909591E-02 -0.23872250763E-01 -0.45292912038E-02  0.10186288587E+01  0.10183145900E+01 0.  0.
     999903    2    3    3    0    0 -0.11674876568E+00  0.48692291926E-01  0.91189566529E-02  0.12874966206E+00  0.22183474214E-01 0.  0.
         14    1    1    2    0    0  0.70532909591E-02  0.23872250763E-01  0.45292912038E-02  0.25301141252E-01  0.00000000000E+00 0.  1.
     999901    1    3    3    0    0  0.10969547472E+00 -0.72564542689E-01 -0.13648247857E-01  0.88987919669E+00  0.88000000000E+00 0.  1.
        -11    1    4    4    0    0 -0.35148929099E-01  0.24486166429E-01  0.82607198737E-02  0.43629349950E-01  0.51100000000E-03 0. -1.
         11    1    4    4    0    0 -0.81599836584E-01  0.24206125496E-01  0.85823677916E-03  0.85120312109E-01  0.51100000000E-03 0.  1.
</event>
<event>
 8    1  0.1197213E+005  0.1043930E+01  0.7957747E-01            NaN
         13   -1    0    0    0    0  0.00000000000E+00  0.00000000000E+00  0.74505805969E-08  0.10566000000E+00  0.10566000000E+00 0. -1.
     999900   -1    0    0    0    0 -0.00000000000E+00 -0.00000000000E+00 -0.74505805969E-08  0.93827000000E+00  0.93827000000E+00 0.  1.
     999902    2    1    2    0    0 -0.24200950984E-01  0.32570563549E-02  0.25372562148E-02  0.10193793969E+01  0.10190837172E+01 0.  0.
     999903    2    3    3    0    0  0.58435905205E-01  0.52494811182E-01  0.10027022382E+00  0.12875886070E+00  0.18821960768E-01 0.  0.
         14    1    1    2    0    0  0.24200950984E-01 -0.32570563549E-02 -0.25372562148E-02  0.24550603123E-01  0.00000000000E+00 0. -1.
     999901    1    3    3    0    0 -0.82636856188E-01 -0.49237754827E-01 -0.97732967600E-01  0.89062053618E+00  0.88000000000E+00 0.  1.
        -11    1    4    4    0    0  0.57270475981E-01  0.44577928217E-01  0.87528037721E-01  0.11370363939E+00  0.51100000000E-03 0.  1.
         11    1    4    4    0    0  0.11654292235E-02  0.79168829647E-02  0.12742186094E-01  0.15055221307E-01  0.51100000000E-03 0. -1.
</event>
<event>
 8    1  0.1197213E+005  0.1043930E+01  0.7957747E-01            NaN
         13   -1    0    0    0    0  0.00000000000E+00  0.00000000000E+00  0.74505805969E-08  0.10566000000E+00  0.10566000000E+00 0. -1.
     999900   -1    0    0    0    0 -0.00000000000E+00 -0.00000000000E+00 -0.74505805969E-08  0.93827000000E+00  0.93827000000E+00 0. -1.
     999902    2    1    2    0    0 -0.64293054563E-02  0.44664680468E-02 -0.20315427418E-01  0.10221584154E+01  0.10219265259E+01 0.  0.
     999903    2    3    3    0    0  0.28053831238E-01 -0.12023392147E+00 -0.42806037557E-01  0.13241401310E+00  0.21398614302E-01 0.  0.
         14    1    1    2    0    0  0.64293054563E-02 -0.44664680468E-02  0.20315427418E-01  0.21771584615E-01  0.00000000000E+00 0. -1.
     999901    1    3    3    0    0 -0.34483136695E-01  0.12470038951E+00  0.22490610138E-01  0.88974440229E+00  0.88000000000E+00 0. -1.
        -11    1    4    4    0    0 -0.16981530145E-02 -0.22731782265E-01 -0.12799793177E-01  0.26147915308E-01  0.51100000000E-03 0.  1.
         11    1    4    4    0    0  0.29751984253E-01 -0.97502139203E-01 -0.30006244380E-01  0.10626609779E+00  0.51100000000E-03 0. -1.
</event>
<event>
 8    1  0.1197213E+005  0.1043930E+01  0.7957747E-01            NaN
         13   -1    0    0    0    0  0.00000000000E+00  0.00000000000E+00  0.74505805969E-08  0.10566000000E+00  0.10566000000E+00 0.  1.
     999900   -1    0    0    0    0 -0.00000000000E+00 -0.00000000000E+00 -0.74505805969E-08  0.93827000000E+00  0.93827000000E+00 0.  1.
     999902    2    1    2    0    0 -0.11294990985E-01 -0.28205311166E-02  0.21993092501E-01  0.10190457010E+01  0.10187418282E+01 0.  0.
     999903    2    3    3    0    0  0.22057917985E-01 -0.12464481979E+00 -0.17081809995E-01  0.12916906810E+00  0.19234788120E-01 0.  0.
         14    1    1    2    0    0  0.11294990985E-01  0.28205311166E-02 -0.21993092501E-01  0.24884298963E-01  0.00000000000E+00 0. -1.
     999901    1    3    3    0    0 -0.33352908969E-01  0.12182428867E+00  0.39074902496E-01  0.88987663294E+00  0.88000000000E+00 0. -1.
        -11    1    4    4    0    0  0.19179351302E-01 -0.79660151648E-01 -0.18760160680E-01  0.84058265665E-01  0.51100000000E-03 0.  1.
         11    1    4    4    0    0  0.28785666830E-02 -0.44984668142E-01  0.16783506848E-02  0.45110802432E-01  0.51100000000E-03 0. -1.
</event>
<event>
 8    1  0.1197213E+005  0.1043930E+01  0.7957747E-01            NaN
         13   -1    0    0    0    0  0.00000000000E+00  0.00000000000E+00  0.74505805969E-08  0.10566000000E+00  0.10566000000E+00 0.  1.
     999900   -1    0    0    0    0 -0.00000000000E+00 -0.00000000000E+00 -0.74505805969E-08  0.93827000000E+00  0.93827000000E+00 0.  1.
     999902    2    1    2    0    0  0.36575778085E-02  0.14797765322E-01  0.17793122689E-01  0.10205003831E+01  0.10202313879E+01 0.  0.
     999903    2    3    3    0    0  0.97130760588E-02  0.70922753816E-01  0.11120117900E+00  0.13375817230E+00  0.20029118571E-01 0.  0.
         14    1    1    2    0    0 -0.36575778085E-02 -0.14797765322E-01 -0.17793122689E-01  0.23429616919E-01  0.00000000000E+00 0. -1.
     999901    1    3    3    0    0 -0.60554982503E-02 -0.56124988494E-01 -0.93408056313E-01  0.88674221078E+00  0.88000000000E+00 0.  1.
        -11    1    4    4    0    0  0.15652489362E-02  0.60664011677E-01  0.97094806281E-01  0.11449993382E+00  0.51100000000E-03 0. -1.
         11    1    4    4    0    0  0.81478271226E-02  0.10258742139E-01  0.14106372722E-01  0.19258238483E-01  0.51100000000E-03 0.  1.
</event>
<event>
 8    1  0.1197213E+005  0.1043930E+01  0.7957747E-01            NaN
         13   -1    0    0    0    0  0.00000000000E+00  0.00000000000E+00  0.74505805969E-08  0.10566000000E+00  0.10566000000E+00 0.  1.
     999900   -1    0    0    0    0 -0.00000000000E+00 -0.00000000000E+00 -0.74505805969E-08  0.93827000000E+00  0.93827000000E+00 0.  1.
     999902    2    1    2    0    0  0.16945318508E-01  0.11680215572E-01  0.13375359742E-01  0.10193847051E+01  0.10190891548E+01 0.  0.
     999903    2    3    3    0    0 -0.38203287979E-01 -0.11971639210E+00 -0.10759220982E-01  0.12759497913E+00  0.19318698484E-01 0.  0.
         14    1    1    2    0    0 -0.16945318508E-01 -0.11680215572E-01 -0.13375359742E-01  0.24545294933E-01  0.00000000000E+00 0. -1.
     999901    1    3    3    0    0  0.55148606487E-01  0.13139660768E+00  0.24134580723E-01  0.89178972594E+00  0.88000000000E+00 0.  1.
        -11    1    4    4    0    0 -0.44743231257E-02 -0.38517652099E-01  0.15481317013E-02  0.38810912427E-01  0.51100000000E-03 0. -1.
         11    1    4    4    0    0 -0.33728964853E-01 -0.81198740006E-01 -0.12307352683E-01  0.88784066699E-01  0.51100000000E-03 0.  1.
</event>
<event>
 8    1  0.1197213E+005  0.1043930E+01  0.7957747E-01            NaN
         13   -1    0    0    0    0  0.00000000000E+00  0.00000000000E+00  0.74505805969E-08  0.10566000000E+00  0.10566000000E+00 0. -1.
     999900   -1    0    0    0    0 -0.00000000000E+00 -0.00000000000E+00 -0.74505805969E-08  0.93827000000E+00  0.93827000000E+00 0.  1.
     999902    2    1    2    0    0 -0.16376042323E-02 -0.11578125990E-01  0.16047402923E-01  0.10240741724E+01  0.10238816615E+01 0.  0.
     999903    2    3    3    0    0  0.10134937924E+00  0.56293774651E-02 -0.82603626948E-01  0.13242713313E+00  0.20253390856E-01 0.  0.
         14    1    1    2    0    0  0.16376042323E-02  0.11578125990E-01 -0.16047402923E-01  0.19855827599E-01  0.00000000000E+00 0. -1.
     999901    1    3    3    0    0 -0.10298698348E+00 -0.17207503456E-01  0.98651029871E-01  0.89164703927E+00  0.88000000000E+00 0. -1.
        -11    1    4    4    0    0  0.50930357210E-01  0.79023125567E-03 -0.28738874383E-01  0.58486834183E-01  0.51100000000E-03 0.  1.
         11    1    4    4    0    0  0.50419022033E-01  0.48391462094E-02 -0.53864752566E-01  0.73940298950E-01  0.51100000000E-03 0. -1.
</event>
<event>
 8    1  0.1197213E+005  0.1043930E+01  0.7957747E-01            NaN
         13   -1    0    0    0    0  0.00000000000E+00  0.00000000000E+00  0.74505805969E-08  0.10566000000E+00  0.10566000000E+00 0. -1.
     999900   -1    0    0    0    0 -0.00000000000E+00 -0.00000000000E+00 -0.74505805969E-08  0.93827000000E+00  0.93827000000E+00 0. -1.
     999902    2    1    2    0    0  0.20067990170E-01 -0.74908460485E-03  0.11942037668E-01  0.10205655479E+01  0.10202980643E+01 0.  0.
     999903    2    3    3    0    0  0.38494622184E-01  0.11185518846E+00 -0.52212525852E-01  0.13088298032E+00  0.20267894793E-01 0.  0.
         14    1    1    2    0    0 -0.20067990170E-01  0.74908460485E-03 -0.11942037668E-01  0.23364452077E-01  0.00000000000E+00 0.  1.
     999901    1    3    3    0    0 -0.18426632014E-01 -0.11260427306E+00  0.64154563520E-01  0.88968256760E+00  0.88000000000E+00 0.  1.
        -11    1    4    4    0    0  0.10192587129E-01  0.60619790837E-01 -0.25908637557E-01  0.66709568238E-01  0.51100000000E-03 0.  1.
         11    1    4    4    0    0  0.28302035056E-01  0.51235397620E-01 -0.26303888295E-01  0.64173412080E-01  0.51100000000E-03 0. -1.
</event>
<event>
 8    1  0.1197213E+005  0.1043930E+01  0.7957747E-01            NaN
         13   -1    0    0    0    0  0.00000000000E+00  0.00000000000E+00  0.74505805969E-08  0.10566000000E+00  0.10566000000E+00 0.  1.
     999900   -1    0    0    0    0 -0.00000000000E+00 -0.00000000000E+00 -0.74505805969E-08  0.93827000000E+00  0.93827000000E+00 0. -1.
     999902    2    1    2    0    0  0.18142777425E-01 -0.42488037927E-02 -0.15110148490E-01  0.10199398084E+01  0.10196576305E+01 0.  0.
     999903    2    3    3    0    0 -0.19039466641E-01  0.67107669899E-01 -0.10928360697E+00  0.13126500516E+00  0.20534219684E-01 0.  0.
         14    1    1    2    0    0 -0.18142777425E-01  0.42488037927E-02  0.15110148490E-01  0.23990191616E-01  0.00000000000E+00 0.  1.
     999901    1    3    3    0    0  0.37182244066E-01 -0.71356473692E-01  0.94173458475E-01  0.88867480323E+00  0.88000000000E+00 0.  1.
        -11    1    4    4    0    0 -0.12689190875E-01  0.23842683708E-01 -0.27651025335E-01  0.38656557717E-01  0.51100000000E-03 0. -1.
         11    1    4    4    0    0 -0.63502757659E-02  0.43264986191E-01 -0.81632581630E-01  0.92608447439E-01  0.51100000000E-03 0.  1.
</event>
<event>
 8    1  0.1197213E+005  0.1043930E+01  0.7957747E-01            NaN
         13   -1    0    0    0    0  0.00000000000E+00  0.00000000000E+00  0.74505805969E-08  0.10566000000E+00  0.10566000000E+00 0. -1.
     999900   -1    0    0    0    0 -0.00000000000E+00 -0.00000000000E+00 -0.74505805969E-08  0.93827000000E+00  0.93827000000E+00 0.  1.
     999902    2    1    2    0    0  0.29135839704E-02 -0.10848049102E-01 -0.15876855376E-01  0.10244815122E+01  0.10242968931E+01 0.  0.
     999903    2    3    3    0    0  0.44079735658E-01  0.16399416072E-01 -0.12626795394E+00  0.13621169337E+00  0.19951573306E-01 0.  0.
         14    1    1    2    0    0 -0.29135839704E-02  0.10848049102E-01  0.15876855376E-01  0.19448487795E-01  0.00000000000E+00 0. -1.
     999901    1    3    3    0    0 -0.41166151687E-01 -0.27247465174E-01  0.11039109856E+00  0.88826981883E+00  0.88000000000E+00 0.  1.
        -11    1    4    4    0    0  0.28397634644E-01  0.18757653644E-01 -0.71440995043E-01  0.79135024593E-01  0.51100000000E-03 0.  1.
         11    1    4    4    0    0  0.15682101014E-01 -0.23582375715E-02 -0.54826958894E-01  0.57076668782E-01  0.51100000000E-03 0. -1.
</event>
<event>
 8    1  0.1197213E+005  0.1043930E+01  0.7957747E-01            NaN
         13   -1    0    0    0    0  0.00000000000E+00  0.00000000000E+00  0.74505805969E-08  0.10566000000E+00  0.10566000000E+00 0. -1.
     999900   -1    0    0    0    0 -0.00000000000E+00 -0.00000000000E+00 -0.74505805969E-08  0.93827000000E+00  0.93827000000E+00 0. -1.
     999902    2    1    2    0    0  0.19284358900E-01  0.27293650125E-02  0.13367388198E-01  0.10203074896E+01  0.10200339947E+01 0.  0.
     999903    2    3    3    0    0  0.59719042816E-01 -0.59404635238E-01 -0.97488388732E-01  0.13025996223E+00  0.19193672403E-01 0.  0.
         14    1    1    2    0    0 -0.19284358900E-01 -0.27293650125E-02 -0.13367388198E-01  0.23622510425E-01  0.00000000000E+00 0.  1.
     999901    1    3    3    0    0 -0.40434683917E-01  0.62134000250E-01  0.11085577693E+00  0.89004752734E+00  0.88000000000E+00 0.  1.
        -11    1    4    4    0    0  0.28521377072E-01 -0.40412920805E-01 -0.62191223194E-01  0.79464976445E-01  0.51100000000E-03 0. -1.
         11    1    4    4    0    0  0.31197665745E-01 -0.18991714433E-01 -0.35297165538E-01  0.50794985786E-01  0.51100000000E-03 0.  1.
</event>
<event>
 8    1  0.1197213E+005  0.1043930E+01  0.7957747E-01            NaN
         13   -1    0    0    0    0  0.00000000000E+00  0.00000000000E+00  0.74505805969E-08  0.10566000000E+00  0.10566000000E+00 0.  1.
     999900   -1    0    0    0    0 -0.00000000000E+00 -0.00000000000E+00 -0.74505805969E-08  0.93827000000E+00  0.93827000000E+00 0.  1.
     999902    2    1    2    0    0 -0.36467567799E-04  0.15493046427E-01  0.18001331034E-01  0.10201795529E+01  0.10199030525E+01 0.  0.
     999903    2    3    3    0    0 -0.56091573559E-01  0.10182965413E+00 -0.57325414500E-01  0.13098311606E+00  0.18836944008E-01 0.  0.
         14    1    1    2    0    0  0.36467567799E-04 -0.15493046427E-01 -0.18001331034E-01  0.23750447079E-01  0.00000000000E+00 0. -1.
     999901    1    3    3    0    0  0.56055105992E-01 -0.86336607705E-01  0.75326745534E-01  0.88919643686E+00  0.88000000000E+00 0. -1.
        -11    1    4    4    0    0 -0.25027552176E-01  0.43167829898E-01 -0.34987162120E-01  0.60944257648E-01  0.51100000000E-03 0. -1.
         11    1    4    4    0    0 -0.31064021383E-01  0.58661824234E-01 -0.22338252380E-01  0.70038858409E-01  0.51100000000E-03 0.  1.
</event>
<event>
 8    1  0.1197213E+005  0.1043930E+01  0.7957747E-01            NaN
         13   -1    0    0    0    0  0.00000000000E+00  0.00000000000E+00  0.74505805969E-08  0.10566000000E+00  0.10566000000E+00 0.  1.
     999900   -1    0    0    0    0 -0.00000000000E+00 -0.00000000000E+00 -0.74505805969E-08  0.93827000000E+00  0.93827000000E+00 0. -1.
     999902    2    1    2    0    0  0.19632233881E-01  0.76987484571E-02 -0.82900426302E-02  0.10212712237E+01  0.10210198295E+01 0.  0.
     999903    2    3    3    0    0  0.14149675908E-01  0.12789289978E+00  0.24246640165E-01  0.13248816349E+00  0.20209076223E-01 0.  0.
         14    1    1    2    0    0 -0.19632233881E-01 -0.76987484571E-02  0.82900426302E-02  0.22658776263E-01  0.00000000000E+00 0. -1.
     999901    1    3    3    0    0  0.54825579721E-02 -0.12019415133E+00 -0.32536682795E-01  0.88878306025E+00  0.88000000000E+00 0. -1.
        -11    1    4    4    0    0 -0.87689115472E-03  0.78421696423E-01  0.17353659793E-01  0.80325226655E-01  0.51100000000E-03 0. -1.
         11    1    4    4    0    0  0.15026567063E-01  0.49471203362E-01  0.68929803720E-02  0.52162936834E-01  0.51100000000E-03 0.  1.
</event>
<event>
 8    1  0.1197213E+005  0.1043930E+01  0.7957747E-01            NaN
         13   -1    0    0    0    0  0.00000000000E+00  0.00000000000E+00  0.74505805969E-08  0.10566000000E+00  0.10566000000E+00 0.  1.
     999900   -1    0    0    0    0 -0.00000000000E+00 -0.00000000000E+00 -0.74505805969E-08  0.93827000000E+00  0.93827000000E+00 0.  1.
     999902    2    1    2    0    0 -0.54845396714E-02  0.19500707361E-01  0.53371929912E-03  0.10236656811E+01  0.10234650869E+01 0.  0.
     999903    2    3    3    0    0 -0.97431000958E-01 -0.75928016924E-01 -0.43841773520E-01  0.13263819697E+00  0.20320592728E-01 0.  0.
         14    1    1    2    0    0  0.54845396714E-02 -0.19500707361E-01 -0.53371929912E-03  0.20264318871E-01  0.00000000000E+00 0. -1.
     999901    1    3    3    0    0  0.91946461286E-01  0.95428724285E-01  0.44375492819E-01  0.89102748416E+00  0.88000000000E+00 0.  1.
        -11    1    4    4    0    0 -0.68575965429E-01 -0.42468380841E-01 -0.23659962261E-01  0.84061176181E-01  0.51100000000E-03 0. -1.
         11    1    4    4    0    0 -0.28855035529E-01 -0.33459636083E-01 -0.20181811259E-01  0.48577020791E-01  0.51100000000E-03 0.  1.
</event>
<event>
 8    1  0.1197213E+005  0.1043930E+01  0.7957747E-01            NaN
         13   -1    0    0    0    0  0.00000000000E+00  0.00000000000E+00  0.74505805969E-08  0.10566000000E+00  0.10566000000E+00 0.  1.
     999900   -1    0    0    0    0 -0.00000000000E+00 -0.00000000000E+00 -0.74505805969E-08  0.93827000000E+00  0.93827000000E+00 0.  1.
     999902    2    1    2    0    0  0.15566655076E-01 -0.13678423784E-01  0.10787766484E-01  0.10205677241E+01  0.10203002909E+01 0.  0.
     999903    2    3    3    0    0 -0.97625243720E-01 -0.83988404352E-01  0.72344047708E-02  0.13052922739E+00  0.20020047809E-01 0.  0.
         14    1    1    2    0    0 -0.15566655076E-01  0.13678423784E-01 -0.10787766484E-01  0.23362275856E-01  0.00000000000E+00 0.  1.
     999901    1    3    3    0    0  0.11319189880E+00  0.70309980568E-01  0.35533617127E-02  0.89003849675E+00  0.88000000000E+00 0.  1.
        -11    1    4    4    0    0 -0.75612249001E-01 -0.74829762959E-01  0.78808681803E-02  0.10667274641E+00  0.51100000000E-03 0.  1.
         11    1    4    4    0    0 -0.22012994719E-01 -0.91586413927E-02 -0.64646340946E-03  0.23856480977E-01  0.51100000000E-03 0. -1.
</event>
<event>
 8    1  0.1197213E+005  0.1043930E+01  0.7957747E-01            NaN
         13   -1    0    0    0    0  0.00000000000E+00  0.00000000000E+00  0.74505805969E-08  0.10566000000E+00  0.10566000000E+00 0. -1.
     999900   -1    0    0    0    0 -0.00000000000E+00 -0.00000000000E+00 -0.74505805969E-08  0.93827000000E+00  0.93827000000E+00 0.  1.
     999902    2    1    2    0    0  0.17031955731E-02 -0.22094041339E-01 -0.83005823767E-02  0.10202667964E+01  0.10199923473E+01 0.  0.
     999903    2    3    3    0    0 -0.51568566095E-01 -0.68267639448E-01  0.97374955207E-01  0.13114520683E+00  0.19934787899E-01 0.  0.
         14    1    1    2    0    0 -0.17031955731E-02  0.22094041339E-01  0.83005823767E-02  0.23663203622E-01  0.00000000000E+00 0. -1.
     999901    1    3    3    0    0  0.53271761668E-01  0.46173598109E-01 -0.10567553758E+00  0.88912158955E+00  0.88000000000E+00 0.  1.
        -11    1    4    4    0    0 -0.29980412370E-01 -0.46850163398E-01  0.49688292701E-01  0.74585189474E-01  0.51100000000E-03 0. -1.
         11    1    4    4    0    0 -0.21588153725E-01 -0.21417476050E-01  0.47686662506E-01  0.56560017358E-01  0.51100000000E-03 0.  1.
</event>
<event>
 8    1  0.1197213E+005  0.1043930E+01  0.7957747E-01            NaN
         13   -1    0    0    0    0  0.00000000000E+00  0.00000000000E+00  0.74505805969E-08  0.10566000000E+00  0.10566000000E+00 0.  1.
     999900   -1    0    0    0    0 -0.00000000000E+00 -0.00000000000E+00 -0.74505805969E-08  0.93827000000E+00  0.93827000000E+00 0. -1.
     999902    2    1    2    0    0 -0.21768395586E-01  0.28263547200E-02  0.11257499344E-01  0.10192605327E+01  0.10189619477E+01 0.  0.
     999903    2    3    3    0    0  0.64623819956E-01 -0.19400598631E-03 -0.10751135589E+00  0.12708410478E+00  0.20381420462E-01 0.  0.
         14    1    1    2    0    0  0.21768395586E-01 -0.28263547200E-02 -0.11257499344E-01  0.24669467340E-01  0.00000000000E+00 0. -1.
     999901    1    3    3    0    0 -0.86392215542E-01  0.30203607063E-02  0.11876885523E+00  0.89217642788E+00  0.88000000000E+00 0.  1.
        -11    1    4    4    0    0 -0.93634296916E-03 -0.18813044962E-02 -0.39317175794E-02  0.44872674188E-02  0.51100000000E-03 0.  1.
         11    1    4    4    0    0  0.65560162925E-01  0.16872985099E-02 -0.10357963831E+00  0.12259683736E+00  0.51100000000E-03 0. -1.
</event>
<event>
 8    1  0.1197213E+005  0.1043930E+01  0.7957747E-01            NaN
         13   -1    0    0    0    0  0.00000000000E+00  0.00000000000E+00  0.74505805969E-08  0.10566000000E+00  0.10566000000E+00 0.  1.
     999900   -1    0    0    0    0 -0.00000000000E+00 -0.00000000000E+00 -0.74505805969E-08  0.93827000000E+00  0.93827000000E+00 0. -1.
     999902    2    1    2    0    0 -0.10596312894E-01  0.17924030748E-01 -0.11318738170E-01  0.10202304945E+01  0.10199551929E+01 0.  0.
     999903    2    3    3    0    0  0.12036035499E+00  0.45095715494E-01  0.36242892494E-03  0.13004826658E+00  0.19803577387E-01 0.  0.
         14    1    1    2    0    0  0.10596312894E-01 -0.17924030748E-01  0.11318738170E-01  0.23699505458E-01  0.00000000000E+00 0.  1.
     999901    1    3    3    0    0 -0.13095666788E+00 -0.27171684746E-01 -0.11681167095E-01  0.89018222796E+00  0.88000000000E+00 0. -1.
        -11    1    4    4    0    0  0.49067800073E-01  0.24033068175E-01 -0.80642172669E-02  0.55231604096E-01  0.51100000000E-03 0. -1.
         11    1    4    4    0    0  0.71292554913E-01  0.21062647320E-01  0.84266461918E-02  0.74816662484E-01  0.51100000000E-03 0.  1.
</event>
<event>
 8    1  0.1197213E+005  0.1043930E+01  0.7957747E-01            NaN
         13   -1    0    0    0    0  0.00000000000E+00  0.00000000000E+00  0.74505805969E-08  0.10566000000E+00  0.10566000000E+00 0. -1.
     999900   -1    0    0    0    0 -0.00000000000E+00 -0.00000000000E+00 -0.74505805969E-08  0.93827000000E+00  0.93827000000E+00 0. -1.
     999902    2    1    2    0    0 -0.17221540048E-01  0.48213978590E-02  0.17818938070E-01  0.10186843692E+01  0.10183714952E+01 0.  0.
     999903    2    3    3    0    0 -0.44133649815E-01  0.10740294067E+00 -0.53526427044E-01  0.12945020676E+00  0.20226391907E-01 0.  0.
         14    1    1    2    0    0  0.17221540048E-01 -0.48213978590E-02 -0.17818938070E-01  0.25245630768E-01  0.00000000000E+00 0.  1.
     999901    1    3    3    0    0  0.26912109767E-01 -0.10258154281E+00  0.71345365114E-01  0.88923416247E+00  0.88000000000E+00 0.  1.
        -11    1    4    4    0    0 -0.42789236264E-01  0.10502933067E+00 -0.55279852687E-01  0.12616735820E+00  0.51100000000E-03 0.  1.
         11    1    4    4    0    0 -0.13444135511E-02  0.23736099923E-02  0.17534256432E-02  0.32828485616E-02  0.51100000000E-03 0. -1.
</event>
<event>
 8    1  0.1228296E+005  0.1043930E+01  0.7957747E-01            NaN
         13   -1    0    0    0    0  0.00000000000E+00  0.00000000000E+00  0.74505805969E-08  0.10566000000E+00  0.10566000000E+00 0. -1.
     999900   -1    0    0    0    0 -0.00000000000E+00 -0.00000000000E+00 -0.74505805969E-08  0.93827000000E+00  0.93827000000E+00 0. -1.
     999902    2    1    2    0    0  0.10152112034E-02  0.24314462624E-01  0.18592264046E-02  0.10195234339E+01  0.10192312553E+01 0.  0.
     999903    2    3    3    0    0 -0.75848950766E-01 -0.76285666968E-01 -0.66007849306E-01  0.12787640427E+00  0.20561427019E-01 0.  0.
         14    1    1    2    0    0 -0.10152112034E-02 -0.24314462624E-01 -0.18592264046E-02  0.24406566111E-01  0.00000000000E+00 0.  1.
     999901    1    3    3    0    0  0.76864161970E-01  0.10060012959E+00  0.67867075710E-01  0.89164702962E+00  0.88000000000E+00 0.  1.
        -11    1    4    4    0    0 -0.43374661424E-01 -0.30166044266E-01 -0.36493045502E-01  0.64213355085E-01  0.51100000000E-03 0. -1.
         11    1    4    4    0    0 -0.32474289343E-01 -0.46119622702E-01 -0.29514803804E-01  0.63663049182E-01  0.51100000000E-03 0.  1.
</event>
<event>
 8    1  0.1197213E+005  0.1043930E+01  0.7957747E-01            NaN
         13   -1    0    0    0    0  0.00000000000E+00  0.00000000000E+00  0.74505805969E-08  0.10566000000E+00  0.10566000000E+00 0. -1.
     999900   -1    0    0    0    0 -0.00000000000E+00 -0.00000000000E+00 -0.74505805969E-08  0.93827000000E+00  0.93827000000E+00 0. -1.
     999902    2    1    2    0    0 -0.16109519856E-01 -0.16938990696E-01  0.67987382875E-02  0.10195852084E+01  0.10192945248E+01 0.  0.
     999903    2    3    3    0    0  0.95831047468E-01  0.53948065597E-01  0.61597222283E-01  0.12798073375E+00  0.22155518010E-01 0.  0.
         14    1    1    2    0    0  0.16109519856E-01  0.16938990696E-01 -0.67987382875E-02  0.24344791600E-01  0.00000000000E+00 0. -1.
     999901    1    3    3    0    0 -0.11194056732E+00 -0.70887056293E-01 -0.54798483995E-01  0.89160447465E+00  0.88000000000E+00 0.  1.
        -11    1    4    4    0    0  0.69787222408E-01  0.29113373048E-01  0.47669200434E-01  0.89389365657E-01  0.51100000000E-03 0.  1.
         11    1    4    4    0    0  0.26043825061E-01  0.24834692550E-01  0.13928021848E-01  0.38591368095E-01  0.51100000000E-03 0. -1.
</event>
<event>
 8    1  0.1197213E+005  0.1043930E+01  0.7957747E-01            NaN
         13   -1    0    0    0    0  0.00000000000E+00  0.00000000000E+00  0.74505805969E-08  0.10566000000E+00  0.10566000000E+00 0. -1.
     999900   -1    0    0    0    0 -0.00000000000E+00 -0.00000000000E+00 -0.74505805969E-08  0.93827000000E+00  0.93827000000E+00 0.  1.
     999902    2    1    2    0    0 -0.79939544879E-02  0.21700759869E-01 -0.35013486546E-02  0.10205401362E+01  0.10202720636E+01 0.  0.
     999903    2    3    3    0    0 -0.20996020667E-02 -0.27026319418E-01  0.12547362871E+00  0.12978561532E+00  0.19127053373E-01 0.  0.
         14    1    1    2    0    0  0.79939544879E-02 -0.21700759869E-01  0.35013486546E-02  0.23389863823E-01  0.00000000000E+00 0.  1.
     999901    1    3    3    0    0 -0.58943524212E-02  0.48727079287E-01 -0.12897497737E+00  0.89075452086E+00  0.88000000000E+00 0.  1.
        -11    1    4    4    0    0  0.75262601760E-02 -0.16106906386E-01  0.82989639713E-01  0.84874132963E-01  0.51100000000E-03 0.  1.
         11    1    4    4    0    0 -0.96258622428E-02 -0.10919413032E-01  0.42483989000E-01  0.44911482354E-01  0.51100000000E-03 0. -1.
</event>
<event>
 7    1  0.1197213E+005  0.1043930E+01  0.7957747E-01            NaN
         13   -1    0    0    0    0  0.00000000000E+00  0.00000000000E+00  0.74505805969E-08  0.10566000000E+00  0.10566000000E+00 0.  1.
     999900   -1    0    0    0    0 -0.00000000000E+00 -0.00000000000E+00 -0.74505805969E-08  0.93827000000E+00  0.93827000000E+00 0.  1.
     999902    2    1    2    0    0  0.19656699974E-01 -0.96258144733E-02  0.12038413904E-01  0.10189506972E+01  0.10186444708E+01 0.  0.
         14    1    1    2    0    0 -0.19656699974E-01  0.96258144733E-02 -0.12038413904E-01  0.24979302782E-01  0.00000000000E+00 0. -1.
     999901    1    3    3    0    0  0.63125199814E-01 -0.57262774891E-01  0.11534255841E+00  0.89160962423E+00  0.88000000000E+00 0. -1.
        -11    1    3    3    0    0 -0.13298992179E-02  0.25747391136E-01 -0.47654140642E-01  0.54183715484E-01  0.51100000000E-03 0.  1.
         11    1    3    3    0    0 -0.42138600621E-01  0.21889569281E-01 -0.55650003866E-01  0.73157357503E-01  0.51100000000E-03 0. -1.
</event>
<event>
 8    1  0.1197213E+005  0.1043930E+01  0.7957747E-01            NaN
         13   -1    0    0    0    0  0.00000000000E+00  0.00000000000E+00  0.74505805969E-08  0.10566000000E+00  0.10566000000E+00 0.  1.
     999900   -1    0    0    0    0 -0.00000000000E+00 -0.00000000000E+00 -0.74505805969E-08  0.93827000000E+00  0.93827000000E+00 0.  1.
     999902    2    1    2    0    0  0.13714999000E-02 -0.52590889836E-02  0.10458875285E-01  0.10321432659E+01  0.10320759634E+01 0.  0.
     999903    2    3    3    0    0  0.16518304315E-01  0.12477528082E-01 -0.13666015030E+00  0.13962546720E+00  0.19766925105E-01 0.  0.
         14    1    1    2    0    0 -0.13714999000E-02  0.52590889836E-02 -0.10458875285E-01  0.11786734117E-01  0.00000000000E+00 0. -1.
     999901    1    3    3    0    0 -0.15146804415E-01 -0.17736617065E-01  0.14711902558E+00  0.89251779868E+00  0.88000000000E+00 0. -1.
        -11    1    4    4    0    0  0.83921570366E-02  0.10079947384E-01 -0.12185416576E+00  0.12255909788E+00  0.51100000000E-03 0.  1.
         11    1    4    4    0    0  0.81261472784E-02  0.23975806975E-02 -0.14805984538E-01  0.17066369325E-01  0.51100000000E-03 0. -1.
</event>
<event>
 8    1  0.1197213E+005  0.1043930E+01  0.7957747E-01            NaN
         13   -1    0    0    0    0  0.00000000000E+00  0.00000000000E+00  0.74505805969E-08  0.10566000000E+00  0.10566000000E+00 0.  1.
     999900   -1    0    0    0    0 -0.00000000000E+00 -0.00000000000E+00 -0.74505805969E-08  0.93827000000E+00  0.93827000000E+00 0.  1.
     999902    2    1    2    0    0  0.13112837793E-01  0.32625580070E-02  0.19427797330E-01  0.10202650447E+01  0.10199905545E+01 0.  0.
     999903    2    3    3    0    0  0.10953530864E+00 -0.68644365179E-01 -0.12963456870E-01  0.13149224369E+00  0.20300892296E-01 0.  0.
         14    1    1    2    0    0 -0.13112837793E-01 -0.32625580070E-02 -0.19427797330E-01  0.23664955289E-01  0.00000000000E+00 0.  1.
     999901    1    3    3    0    0 -0.96422470843E-01  0.71906923187E-01  0.32391254200E-01  0.88877280102E+00  0.88000000000E+00 0. -1.
        -11    1    4    4    0    0  0.27394878424E-01 -0.19887163871E-01  0.52144128997E-02  0.34255362698E-01  0.51100000000E-03 0.  1.
         11    1    4    4    0    0  0.82140430212E-01 -0.48757201308E-01 -0.18177869770E-01  0.97236880992E-01  0.51100000000E-03 0. -1.
</event>
<event>
 8    1  0.1197213E+005  0.1043930E+01  0.7957747E-01            NaN
         13   -1    0    0    0    0  0.00000000000E+00  0.00000000000E+00  0.74505805969E-08  0.10566000000E+00  0.10566000000E+00 0. -1.
     999900   -1    0    0    0    0 -0.00000000000E+00 -0.00000000000E+00 -0.74505805969E-08  0.93827000000E+00  0.93827000000E+00 0.  1.
     999902    2    1    2    0    0 -0.15955606553E-01  0.14324818915E-01 -0.56062606218E-02  0.10217666975E+01  0.10215262954E+01 0.  0.
     999903    2    3    3    0    0 -0.10084258930E+00  0.76684558684E-01 -0.41179468788E-01  0.13477177641E+00  0.20443427075E-01 0.  0.
         14    1    1    2    0    0  0.15955606553E-01 -0.14324818915E-01  0.56062606218E-02  0.22163302452E-01  0.00000000000E+00 0. -1.
     999901    1    3    3    0    0  0.84886982744E-01 -0.62359739769E-01  0.35573208166E-01  0.88699492114E+00  0.88000000000E+00 0. -1.
        -11    1    4    4    0    0 -0.11055724396E-01  0.16116326958E-01 -0.10556501784E-01  0.22218593282E-01  0.51100000000E-03 0.  1.
         11    1    4    4    0    0 -0.89786864902E-01  0.60568231726E-01 -0.30622967004E-01  0.11255318313E+00  0.51100000000E-03 0. -1.
</event>
<event>
 8    1  0.1197213E+005  0.1043930E+01  0.7957747E-01            NaN
         13   -1    0    0    0    0  0.00000000000E+00  0.00000000000E+00  0.74505805969E-08  0.10566000000E+00  0.10566000000E+00 0.  1.
     999900   -1    0    0    0    0 -0.00000000000E+00 -0.00000000000E+00 -0.74505805969E-08  0.93827000000E+00  0.93827000000E+00 0. -1.
     999902    2    1    2    0    0 -0.96736085829E-02 -0.20576838870E-01 -0.30122186005E-02  0.10209940356E+01  0.10207363824E+01 0.  0.
     999903    2    3    3    0    0  0.79230881937E-01 -0.99801718655E-01 -0.30246535767E-01  0.13255591283E+00  0.20452417957E-01 0.  0.
         14    1    1    2    0    0  0.96736085829E-02  0.20576838870E-01  0.30122186005E-02  0.22935964375E-01  0.00000000000E+00 0. -1.
     999901    1    3    3    0    0 -0.88904490520E-01  0.79224879785E-01  0.27234317167E-01  0.88843812280E+00  0.88000000000E+00 0. -1.
        -11    1    4    4    0    0  0.30252012029E-01 -0.54240587225E-01 -0.12632635494E-01  0.63380360798E-01  0.51100000000E-03 0. -1.
         11    1    4    4    0    0  0.48978869908E-01 -0.45561131430E-01 -0.17613900273E-01  0.69175552029E-01  0.51100000000E-03 0.  1.
</event>
<event>
 8    1  0.1197213E+005  0.1043930E+01  0.7957747E-01            NaN
         13   -1    0    0    0    0  0.00000000000E+00  0.00000000000E+00  0.74505805969E-08  0.10566000000E+00  0.10566000000E+00 0.  1.
     999900   -1    0    0    0    0 -0.00000000000E+00 -0.00000000000E+00 -0.74505805969E-08  0.93827000000E+00  0.93827000000E+00 0. -1.
     999902    2    1    2    0    0 -0.75103646422E-02  0.30139433508E-02  0.23142505954E-01  0.10194133727E+01  0.10191185208E+01 0.  0.
     999903    2    3    3    0    0  0.99651240526E-01 -0.78711556189E-01 -0.32988998074E-02  0.12876090692E+00  0.21038288752E-01 0.  0.
         14    1    1    2    0    0  0.75103646422E-02 -0.30139433508E-02 -0.23142505954E-01  0.24516627284E-01  0.00000000000E+00 0. -1.
     999901    1    3    3    0    0 -0.10716160517E+00  0.81725499540E-01  0.26441405761E-01  0.89065246580E+00  0.88000000000E+00 0.  1.
        -11    1    4    4    0    0  0.13806862122E-01 -0.35359467686E-02  0.26118709951E-02  0.14498805203E-01  0.51100000000E-03 0. -1.
         11    1    4    4    0    0  0.85844378404E-01 -0.75175609421E-01 -0.59107708025E-02  0.11426210171E+00  0.51100000000E-03 0.  1.
</event>
<event>
 8    1  0.1197213E+005  0.1043930E+01  0.7957747E-01            NaN
         13   -1    0    0    0    0  0.00000000000E+00  0.00000000000E+00  0.74505805969E-08  0.10566000000E+00  0.10566000000E+00 0.  1.
     999900   -1    0    0    0    0 -0.00000000000E+00 -0.00000000000E+00 -0.74505805969E-08  0.93827000000E+00  0.93827000000E+00 0. -1.
     999902    2    1    2    0    0 -0.95320350257E-03  0.19229113207E-01 -0.13059439306E-01  0.10206659430E+01  0.10204007796E+01 0.  0.
     999903    2    3    3    0    0  0.46855817317E-01  0.59984242972E-01  0.10406832907E+00  0.13068527066E+00  0.21327114880E-01 0.  0.
         14    1    1    2    0    0  0.95320350257E-03 -0.19229113207E-01  0.13059439306E-01  0.23264056969E-01  0.00000000000E+00 0.  1.
     999901    1    3    3    0    0 -0.47809020819E-01 -0.40755129764E-01 -0.11712776838E+00  0.88998067237E+00  0.88000000000E+00 0. -1.
        -11    1    4    4    0    0  0.13106494612E-01  0.53171283647E-02  0.25777043577E-01  0.29406957538E-01  0.51100000000E-03 0.  1.
         11    1    4    4    0    0  0.33749322704E-01  0.54667114607E-01  0.78291285498E-01  0.10127831312E+00  0.51100000000E-03 0. -1.
</event>
<event>
 8    1  0.1197213E+005  0.1043930E+01  0.7957747E-01            NaN
         13   -1    0    0    0    0  0.00000000000E+00  0.00000000000E+00  0.74505805969E-08  0.10566000000E+00  0.10566000000E+00 0. -1.
     999900   -1    0    0    0    0 -0.00000000000E+00 -0.00000000000E+00 -0.74505805969E-08  0.93827000000E+00  0.93827000000E+00 0.  1.
     999902    2    1    2    0    0  0.84656146426E-02 -0.16703884028E-01  0.15554806676E-01  0.10195858347E+01  0.10192951663E+01 0.  0.
     999903    2    3    3    0    0  0.60141277415E-01  0.99464387600E-01  0.53855357392E-01  0.12962382786E+00  0.19793927836E-01 0.  0.
         14    1    1    2    0    0 -0.84656146426E-02  0.16703884028E-01 -0.15554806676E-01  0.24344165289E-01  0.00000000000E+00 0.  1.
     999901    1    3    3    0    0 -0.51675662772E-01 -0.11616827163E+00 -0.38300550716E-01  0.88996200685E+00  0.88000000000E+00 0.  1.
        -11    1    4    4    0    0  0.46477088722E-01  0.59252656820E-01  0.37292521739E-01  0.84035649667E-01  0.51100000000E-03 0.  1.
         11    1    4    4    0    0  0.13664188693E-01  0.40211730780E-01  0.16562835652E-01  0.45588178191E-01  0.51100000000E-03 0. -1.
</event>
<event>
 8    1  0.1197213E+005  0.1043930E+01  0.7957747E-01            NaN
         13   -1    0    0    0    0  0.00000000000E+00  0.00000000000E+00  0.74505805969E-08  0.10566000000E+00  0.10566000000E+00 0.  1.
     999900   -1    0    0    0    0 -0.00000000000E+00 -0.00000000000E+00 -0.74505805969E-08  0.93827000000E+00  0.93827000000E+00 0.  1.
     999902    2    1    2    0    0 -0.73807236024E-02  0.21362255737E-01 -0.78110577313E-02  0.10200169560E+01  0.10197366115E+01 0.  0.
     999903    2    3    3    0    0  0.99024035054E-01  0.73135520085E-01 -0.41397381077E-01  0.13146167651E+00  0.20343682435E-01 0.  0.
         14    1    1    2    0    0  0.73807236024E-02 -0.21362255737E-01  0.78110577313E-02  0.23913044013E-01  0.00000000000E+00 0.  1.
     999901    1    3    3    0    0 -0.10640475866E+00 -0.51773264348E-01  0.33586323346E-01  0.88855527947E+00  0.88000000000E+00 0. -1.
        -11    1    4    4    0    0  0.66513171923E-01  0.57360340250E-01 -0.22447593367E-01  0.90655205266E-01  0.51100000000E-03 0.  1.
         11    1    4    4    0    0  0.32510863131E-01  0.15775179835E-01 -0.18949787710E-01  0.40806471247E-01  0.51100000000E-03 0. -1.
</event>
<event>
 8    1  0.1197213E+005  0.1043930E+01  0.7957747E-01            NaN
         13   -1    0    0    0    0  0.00000000000E+00  0.00000000000E+00  0.74505805969E-08  0.10566000000E+00  0.10566000000E+00 0. -1.
     999900   -1    0    0    0    0 -0.00000000000E+00 -0.00000000000E+00 -0.74505805969E-08  0.93827000000E+00  0.93827000000E+00 0.  1.
     999902    2    1    2    0    0 -0.29419463563E-01 -0.16862532164E-01  0.99840542000E-02  0.10085812919E+01  0.10079616516E+01 0.  0.
     999903    2    3    3    0    0 -0.90448521675E-01  0.18204799854E-01 -0.76921466438E-01  0.12150359899E+00  0.18271911719E-01 0.  0.
         14    1    1    2    0    0  0.29419463563E-01  0.16862532164E-01 -0.99840542000E-02  0.35348708118E-01  0.00000000000E+00 0.  1.
     999901    1    3    3    0    0  0.61029058112E-01 -0.35067332017E-01  0.86905520638E-01  0.88707769289E+00  0.88000000000E+00 0. -1.
        -11    1    4    4    0    0 -0.41869432789E-01  0.14806173836E-01 -0.45286482166E-01  0.63430267016E-01  0.51100000000E-03 0.  1.
         11    1    4    4    0    0 -0.48579088886E-01  0.33986260178E-02 -0.31634984272E-01  0.58073331975E-01  0.51100000000E-03 0. -1.
</event>
<event>
 8    1  0.1197213E+005  0.1043930E+01  0.7957747E-01            NaN
         13   -1    0    0    0    0  0.00000000000E+00  0.00000000000E+00  0.74505805969E-08  0.10566000000E+00  0.10566000000E+00 0.  1.
     999900   -1    0    0    0    0 -0.00000000000E+00 -0.00000000000E+00 -0.74505805969E-08  0.93827000000E+00  0.93827000000E+00 0. -1.
     999902    2    1    2    0    0 -0.16397419772E-01 -0.16251080025E-01  0.34952070409E-02  0.10205807077E+01  0.10203135751E+01 0.  0.
     999903    2    3    3    0    0 -0.79239735425E-01  0.92771946041E-01 -0.41798261399E-01  0.13047584024E+00  0.19780813634E-01 0.  0.
         14    1    1    2    0    0  0.16397419772E-01  0.16251080025E-01 -0.34952070409E-02  0.23349292268E-01  0.00000000000E+00 0.  1.
     999901    1    3    3    0    0  0.62842315653E-01 -0.10902302607E+00  0.45293468440E-01  0.89010486749E+00  0.88000000000E+00 0.  1.
        -11    1    4    4    0    0 -0.24690356478E-01  0.41533482298E-01 -0.21784203894E-01  0.53004306571E-01  0.51100000000E-03 0.  1.
         11    1    4    4    0    0 -0.54549378947E-01  0.51238463743E-01 -0.20014057505E-01  0.77471533670E-01  0.51100000000E-03 0. -1.
</event>
<event>
 8    1  0.1197213E+005  0.1043930E+01  0.7957747E-01            NaN
         13   -1    0    0    0    0  0.00000000000E+00  0.00000000000E+00  0.74505805969E-08  0.10566000000E+00  0.10566000000E+00 0.  1.
     999900   -1    0    0    0    0 -0.00000000000E+00 -0.00000000000E+00 -0.74505805969E-08  0.93827000000E+00  0.93827000000E+00 0. -1.
     999902    2    1    2    0    0  0.14408557106E-01 -0.42173623503E-02  0.18545744934E-01  0.10200692096E+01  0.10197901034E+01 0.  0.
     999903    2    3    3    0    0  0.67305399397E-01  0.54115889109E-01 -0.94241196218E-01  0.12938310427E+00  0.20000959049E-01 0.  0.
         14    1    1    2    0    0 -0.14408557106E-01  0.42173623503E-02 -0.18545744934E-01  0.23860790394E-01  0.00000000000E+00 0. -1.
     999901    1    3    3    0    0 -0.52896842292E-01 -0.58333251460E-01  0.11278694115E+00  0.89068610534E+00  0.88000000000E+00 0.  1.
        -11    1    4    4    0    0  0.44415999745E-01  0.46936781767E-01 -0.70243835071E-01  0.95447891556E-01  0.51100000000E-03 0. -1.
         11    1    4    4    0    0  0.22889399653E-01  0.71791073422E-02 -0.23997361147E-01  0.33935212710E-01  0.51100000000E-03 0.  1.
</event>
<event>
 8    1  0.1197213E+005  0.1043930E+01  0.7957747E-01            NaN
         13   -1    0    0    0    0  0.00000000000E+00  0.00000000000E+00  0.74505805969E-08  0.10566000000E+00  0.10566000000E+00 0.  1.
     999900   -1    0    0    0    0 -0.00000000000E+00 -0.00000000000E+00 -0.74505805969E-08  0.93827000000E+00  0.93827000000E+00 0. -1.
     999902    2    1    2    0    0 -0.45267681295E-02  0.11113390217E-01 -0.21207949783E-01  0.10195624764E+01  0.10192712431E+01 0.  0.
     999903    2    3    3    0    0  0.62976474472E-01 -0.76201528314E-01 -0.83431287369E-01  0.13048861756E+00  0.17140313464E-01 0.  0.
         14    1    1    2    0    0  0.45267681295E-02 -0.11113390217E-01  0.21207949783E-01  0.24367523587E-01  0.00000000000E+00 0.  1.
     999901    1    3    3    0    0 -0.67503242602E-01  0.87314918531E-01  0.62223337586E-01  0.88907385886E+00  0.88000000000E+00 0.  1.
        -11    1    4    4    0    0  0.91160123499E-02 -0.56735347820E-02 -0.14855199089E-01  0.18336541088E-01  0.51100000000E-03 0. -1.
         11    1    4    4    0    0  0.53860462122E-01 -0.70527993532E-01 -0.68576088280E-01  0.11215207647E+00  0.51100000000E-03 0.  1.
</event>
<event>
 8    1  0.1197213E+005  0.1043930E+01  0.7957747E-01            NaN
         13   -1    0    0    0    0  0.00000000000E+00  0.00000000000E+00  0.74505805969E-08  0.10566000000E+00  0.10566000000E+00 0. -1.
     999900   -1    0    0    0    0 -0.00000000000E+00 -0.00000000000E+00 -0.74505805969E-08  0.93827000000E+00  0.93827000000E+00 0. -1.
     999902    2    1    2    0    0 -0.20533646916E-03  0.20612597233E-01  0.10504854738E-01  0.10207940258E+01  0.10205318074E+01 0.  0.
     999903    2    3    3    0    0  0.93649076289E-01  0.55954805698E-01  0.73452299182E-01  0.13286379025E+00  0.18880061816E-01 0.  0.
         14    1    1    2    0    0  0.20533646916E-03 -0.20612597233E-01 -0.10504854738E-01  0.23135974171E-01  0.00000000000E+00 0.  1.
     999901    1    3    3    0    0 -0.93854412758E-01 -0.35342208465E-01 -0.62947444443E-01  0.88793023558E+00  0.88000000000E+00 0.  1.
        -11    1    4    4    0    0  0.71499029661E-01  0.35929543295E-01  0.46007661528E-01  0.92303896798E-01  0.51100000000E-03 0.  1.
         11    1    4    4    0    0  0.22150046628E-01  0.20025262403E-01  0.27444637654E-01  0.40559893453E-01  0.51100000000E-03 0. -1.
</event>
<event>
 8    1  0.1197213E+005  0.1043930E+01  0.7957747E-01            NaN
         13   -1    0    0    0    0  0.00000000000E+00  0.00000000000E+00  0.74505805969E-08  0.10566000000E+00  0.10566000000E+00 0.  1.
     999900   -1    0    0    0    0 -0.00000000000E+00 -0.00000000000E+00 -0.74505805969E-08  0.93827000000E+00  0.93827000000E+00 0. -1.
     999902    2    1    2    0    0  0.11706421889E-01 -0.16602222370E-01  0.12277703032E-01  0.10201936125E+01  0.10199174431E+01 0.  0.
     999903    2    3    3    0    0  0.55773657965E-01  0.85968025428E-01  0.78764010995E-01  0.13065271618E+00  0.19109173162E-01 0.  0.
         14    1    1    2    0    0 -0.11706421889E-01  0.16602222370E-01 -0.12277703032E-01  0.23736387526E-01  0.00000000000E+00 0. -1.
     999901    1    3    3    0    0 -0.44067236076E-01 -0.10257024780E+00 -0.66486307963E-01  0.88954089629E+00  0.88000000000E+00 0. -1.
        -11    1    4    4    0    0  0.35021849990E-01  0.49452512058E-01  0.34944806470E-01  0.69953424118E-01  0.51100000000E-03 0. -1.
         11    1    4    4    0    0  0.20751807975E-01  0.36515513370E-01  0.43819204525E-01  0.60699292064E-01  0.51100000000E-03 0.  1.
</event>
<event>
 8    1  0.1197213E+005  0.1043930E+01  0.7957747E-01            NaN
         13   -1    0    0    0    0  0.00000000000E+00  0.00000000000E+00  0.74505805969E-08  0.10566000000E+00  0.10566000000E+00 0.  1.
     999900   -1    0    0    0    0 -0.00000000000E+00 -0.00000000000E+00 -0.74505805969E-08  0.93827000000E+00  0.93827000000E+00 0. -1.
     999902    2    1    2    0    0 -0.77422083362E-02 -0.38042085592E-02 -0.22533587474E-01  0.10198016690E+01  0.10195161930E+01 0.  0.
     999903    2    3    3    0    0 -0.52547475122E-01  0.81439876491E-01 -0.87578919074E-01  0.13216156111E+00  0.20072880794E-01 0.  0.
         14    1    1    2    0    0  0.77422083362E-02  0.38042085592E-02  0.22533587474E-01  0.24128331006E-01  0.00000000000E+00 0.  1.
     999901    1    3    3    0    0  0.44805266786E-01 -0.85244085050E-01  0.65045331600E-01  0.88764010789E+00  0.88000000000E+00 0. -1.
        -11    1    4    4    0    0 -0.37940959678E-01  0.67550975935E-01 -0.59978865556E-01  0.97981509508E-01  0.51100000000E-03 0.  1.
         11    1    4    4    0    0 -0.14606515444E-01  0.13888900556E-01 -0.27600053518E-01  0.34180051599E-01  0.51100000000E-03 0. -1.
</event>
<event>
 8    1  0.1197213E+005  0.1043930E+01  0.7957747E-01            NaN
         13   -1    0    0    0    0  0.00000000000E+00  0.00000000000E+00  0.74505805969E-08  0.10566000000E+00  0.10566000000E+00 0. -1.
     999900   -1    0    0    0    0 -0.00000000000E+00 -0.00000000000E+00 -0.74505805969E-08  0.93827000000E+00  0.93827000000E+00 0.  1.
     999902    2    1    2    0    0  0.15663638749E-01 -0.15087118474E-01 -0.10558353315E-01  0.10197546086E+01  0.10194680045E+01 0.  0.
     999903    2    3    3    0    0 -0.99909358014E-01  0.34794088056E-01 -0.71066662169E-01  0.12874029462E+00  0.18195730403E-01 0.  0.
         14    1    1    2    0    0 -0.15663638749E-01  0.15087118474E-01  0.10558353315E-01  0.24175391360E-01  0.00000000000E+00 0. -1.
     999901    1    3    3    0    0  0.11557299676E+00 -0.49881206530E-01  0.60508308854E-01  0.89101431402E+00  0.88000000000E+00 0.  1.
        -11    1    4    4    0    0 -0.85439559104E-01  0.23365442862E-01 -0.54895697626E-01  0.10420969686E+00  0.51100000000E-03 0. -1.
         11    1    4    4    0    0 -0.14469798910E-01  0.11428645194E-01 -0.16170964542E-01  0.24530597765E-01  0.51100000000E-03 0.  1.
</event>
<event>
 8    1  0.1197213E+005  0.1043930E+01  0.7957747E-01            NaN
         13   -1    0    0    0    0  0.00000000000E+00  0.00000000000E+00  0.74505805969E-08  0.10566000000E+00  0.10566000000E+00 0. -1.
     999900   -1    0    0    0    0 -0.00000000000E+00 -0.00000000000E+00 -0.74505805969E-08  0.93827000000E+00  0.93827000000E+00 0.  1.
     999902    2    1    2    0    0 -0.10040813571E-01 -0.20522828601E-01 -0.45558238512E-02  0.10206327907E+01  0.10203668622E+01 0.  0.
     999903    2    3    3    0    0  0.30692848875E-01 -0.46119777215E-02 -0.12597339086E+00  0.13122028121E+00  0.19650589913E-01 0.  0.
         14    1    1    2    0    0  0.10040813571E-01  0.20522828601E-01  0.45558238512E-02  0.23297209316E-01  0.00000000000E+00 0. -1.
     999901    1    3    3    0    0 -0.40733662446E-01 -0.15910850879E-01  0.12141756701E+00  0.88941250948E+00  0.88000000000E+00 0. -1.
        -11    1    4    4    0    0  0.75630302362E-02  0.71970704809E-02 -0.28918047767E-01  0.30749176534E-01  0.51100000000E-03 0.  1.
         11    1    4    4    0    0  0.23129818638E-01 -0.11809048202E-01 -0.97055343098E-01  0.10047110467E+00  0.51100000000E-03 0. -1.
</event>
<event>
 8    1  0.1197213E+005  0.1043930E+01  0.7957747E-01            NaN
         13   -1    0    0    0    0  0.00000000000E+00  0.00000000000E+00  0.74505805969E-08  0.10566000000E+00  0.10566000000E+00 0. -1.
     999900   -1    0    0    0    0 -0.00000000000E+00 -0.00000000000E+00 -0.74505805969E-08  0.93827000000E+00  0.93827000000E+00 0. -1.
     999902    2    1    2    0    0 -0.60214912019E-02 -0.17762210071E-01  0.18247300603E-01  0.10177628748E+01  0.10174264351E+01 0.  0.
     999903    2    3    3    0    0  0.17216747334E-01  0.12305768251E+00 -0.46863949603E-02  0.12596905765E+00  0.20165107869E-01 0.  0.
         14    1    1    2    0    0  0.60214912019E-02  0.17762210071E-01 -0.18247300603E-01  0.26167125219E-01  0.00000000000E+00 0.  1.
     999901    1    3    3    0    0 -0.23238238536E-01 -0.14081989258E+00  0.22933695564E-01  0.89179381713E+00  0.88000000000E+00 0.  1.
        -11    1    4    4    0    0 -0.32937820623E-02  0.45596737041E-01 -0.30564744591E-02  0.45820460345E-01  0.51100000000E-03 0. -1.
         11    1    4    4    0    0  0.20510529396E-01  0.77460945466E-01 -0.16299205012E-02  0.80148597308E-01  0.51100000000E-03 0.  1.
</event>
<event>
 8    1  0.1197213E+005  0.1043930E+01  0.7957747E-01            NaN
         13   -1    0    0    0    0  0.00000000000E+00  0.00000000000E+00  0.74505805969E-08  0.10566000000E+00  0.10566000000E+00 0.  1.
     999900   -1    0    0    0    0 -0.00000000000E+00 -0.00000000000E+00 -0.74505805969E-08  0.93827000000E+00  0.93827000000E+00 0. -1.
     999902    2    1    2    0    0 -0.22537657379E-01  0.62845974477E-02 -0.40854547326E-02  0.10201785136E+01  0.10199019887E+01 0.  0.
     999903    2    3    3    0    0 -0.69612573578E-01 -0.10598588394E+00 -0.28109223415E-01  0.13147279731E+00  0.20397303654E-01 0.  0.
         14    1    1    2    0    0  0.22537657379E-01 -0.62845974477E-02  0.40854547326E-02  0.23751486387E-01  0.00000000000E+00 0.  1.
     999901    1    3    3    0    0  0.47074916199E-01  0.11227048139E+00  0.24023768682E-01  0.88870571630E+00  0.88000000000E+00 0.  1.
        -11    1    4    4    0    0 -0.27067815974E-01 -0.24582392943E-01 -0.71812278274E-02  0.37266497803E-01  0.51100000000E-03 0.  1.
         11    1    4    4    0    0 -0.42544757604E-01 -0.81403491000E-01 -0.20927995588E-01  0.94206299507E-01  0.51100000000E-03 0. -1.
</event>
<event>
 8    1  0.1197213E+005  0.1043930E+01  0.7957747E-01            NaN
         13   -1    0    0    0    0  0.00000000000E+00  0.00000000000E+00  0.74505805969E-08  0.10566000000E+00  0.10566000000E+00 0.  1.
     999900   -1    0    0    0    0 -0.00000000000E+00 -0.00000000000E+00 -0.74505805969E-08  0.93827000000E+00  0.93827000000E+00 0. -1.
     999902    2    1    2    0    0 -0.92025963765E-02  0.16977091231E-01 -0.12758057120E-01  0.10207852937E+01  0.10205228750E+01 0.  0.
     999903    2    3    3    0    0 -0.12698307668E+00  0.32904963372E-01 -0.60475275625E-02  0.13277010813E+00  0.19593127548E-01 0.  0.
         14    1    1    2    0    0  0.92025963765E-02 -0.16977091231E-01  0.12758057120E-01  0.23144706268E-01  0.00000000000E+00 0. -1.
     999901    1    3    3    0    0  0.11778048030E+00 -0.15927872140E-01 -0.67105295573E-02  0.88801518560E+00  0.88000000000E+00 0.  1.
        -11    1    4    4    0    0 -0.76208178000E-01  0.29346284373E-01 -0.16969416770E-02  0.81682504446E-01  0.51100000000E-03 0.  1.
         11    1    4    4    0    0 -0.50774898676E-01  0.35586789988E-02 -0.43505858855E-02  0.51087603685E-01  0.51100000000E-03 0. -1.
</event>
<event>
 8    1  0.1197213E+005  0.1043930E+01  0.7957747E-01            NaN
         13   -1    0    0    0    0  0.00000000000E+00  0.00000000000E+00  0.74505805969E-08  0.10566000000E+00  0.10566000000E+00 0. -1.
     999900   -1    0    0    0    0 -0.00000000000E+00 -0.00000000000E+00 -0.74505805969E-08  0.93827000000E+00  0.93827000000E+00 0. -1.
     999902    2    1    2    0    0  0.15107236462E-01 -0.15762814798E-01 -0.81774113281E-02  0.10206155200E+01  0.10203491925E+01 0.  0.
     999903    2    3    3    0    0  0.65241155783E-01  0.91401914900E-01 -0.64039965176E-01  0.13094236981E+00  0.20834313447E-01 0.  0.
         14    1    1    2    0    0 -0.15107236462E-01  0.15762814798E-01  0.81774113281E-02  0.23314480048E-01  0.00000000000E+00 0. -1.
     999901    1    3    3    0    0 -0.50133919320E-01 -0.10716472970E+00  0.55862553848E-01  0.88967315014E+00  0.88000000000E+00 0. -1.
        -11    1    4    4    0    0  0.20820978229E-01  0.39113989404E-01 -0.15698956620E-01  0.47012079953E-01  0.51100000000E-03 0. -1.
         11    1    4    4    0    0  0.44420177553E-01  0.52287925496E-01 -0.48341008556E-01  0.83930289859E-01  0.51100000000E-03 0.  1.
</event>
<event>
 8    1  0.1197213E+005  0.1043930E+01  0.7957747E-01            NaN
         13   -1    0    0    0    0  0.00000000000E+00  0.00000000000E+00  0.74505805969E-08  0.10566000000E+00  0.10566000000E+00 0. -1.
     999900   -1    0    0    0    0 -0.00000000000E+00 -0.00000000000E+00 -0.74505805969E-08  0.93827000000E+00  0.93827000000E+00 0.  1.
     999902    2    1    2    0    0  0.19656569531E-01 -0.11258038557E-01 -0.42478498501E-02  0.10208829094E+01  0.10206227247E+01 0.  0.
     999903    2    3    3    0    0  0.10929093930E+00 -0.68286324519E-01  0.29935284403E-01  0.13383441447E+00  0.20198953315E-01 0.  0.
         14    1    1    2    0    0 -0.19656569531E-01  0.11258038557E-01  0.42478498501E-02  0.23047090624E-01  0.00000000000E+00 0. -1.
     999901    1    3    3    0    0 -0.89634369771E-01  0.57028285962E-01 -0.34183134253E-01  0.88704849490E+00  0.88000000000E+00 0.  1.
        -11    1    4    4    0    0  0.56207406781E-01 -0.30535090516E-01  0.52857500856E-02  0.64186171446E-01  0.51100000000E-03 0. -1.
         11    1    4    4    0    0  0.53083532520E-01 -0.37751234003E-01  0.24649534317E-01  0.69648243026E-01  0.51100000000E-03 0.  1.
</event>
<event>
 8    1  0.1197213E+005  0.1043930E+01  0.7957747E-01            NaN
         13   -1    0    0    0    0  0.00000000000E+00  0.00000000000E+00  0.74505805969E-08  0.10566000000E+00  0.10566000000E+00 0. -1.
     999900   -1    0    0    0    0 -0.00000000000E+00 -0.00000000000E+00 -0.74505805969E-08  0.93827000000E+00  0.93827000000E+00 0. -1.
     999902    2    1    2    0    0  0.16340517194E-01  0.64443282545E-02  0.25384480013E-01  0.10130606998E+01  0.10125902764E+01 0.  0.
     999903    2    3    3    0    0  0.10621273346E+00 -0.63291365687E-01  0.88534625891E-02  0.12558486532E+00  0.20155219642E-01 0.  0.
         14    1    1    2    0    0 -0.16340517194E-01 -0.64443282545E-02 -0.25384480013E-01  0.30869300192E-01  0.00000000000E+00 0.  1.
     999901    1    3    3    0    0 -0.89872216261E-01  0.69735693942E-01  0.16531017423E-01  0.88747583449E+00  0.88000000000E+00 0.  1.
        -11    1    4    4    0    0  0.82246924336E-01 -0.38950524438E-01  0.41506844867E-02  0.91099885946E-01  0.51100000000E-03 0. -1.
         11    1    4    4    0    0  0.23965809120E-01 -0.24340841249E-01  0.47027781023E-02  0.34484979373E-01  0.51100000000E-03 0.  1.
</event>
<event>
 8    1  0.1197213E+005  0.1043930E+01  0.7957747E-01            NaN
         13   -1    0    0    0    0  0.00000000000E+00  0.00000000000E+00  0.74505805969E-08  0.10566000000E+00  0.10566000000E+00 0.  1.
     999900   -1    0    0    0    0 -0.00000000000E+00 -0.00000000000E+00 -0.74505805969E-08  0.93827000000E+00  0.93827000000E+00 0. -1.
     999902    2    1    2    0    0 -0.59564393069E-02 -0.18821004179E-01 -0.10903433046E-01  0.10213779664E+01  0.10211289615E+01 0.  0.
     999903    2    3    3    0    0 -0.44400457509E-01 -0.23832204889E-01 -0.12207508605E+00  0.13353665676E+00  0.19756959440E-01 0.  0.
         14    1    1    2    0    0  0.59564393069E-02  0.18821004179E-01  0.10903433046E-01  0.22552033605E-01  0.00000000000E+00 0.  1.
     999901    1    3    3    0    0  0.38444018202E-01  0.50112007104E-02  0.11117165301E+00  0.88784130964E+00  0.88000000000E+00 0.  1.
        -11    1    4    4    0    0 -0.29421312074E-03 -0.68161110019E-02 -0.14698137572E-01  0.16212411900E-01  0.51100000000E-03 0. -1.
         11    1    4    4    0    0 -0.44106244388E-01 -0.17016093887E-01 -0.10737694848E+00  0.11732424486E+00  0.51100000000E-03 0.  1.
</event>
<event>
 8    1  0.1197213E+005  0.1043930E+01  0.7957747E-01            NaN
         13   -1    0    0    0    0  0.00000000000E+00  0.00000000000E+00  0.74505805969E-08  0.10566000000E+00  0.10566000000E+00 0. -1.
     999900   -1    0    0    0    0 -0.00000000000E+00 -0.00000000000E+00 -0.74505805969E-08  0.93827000000E+00  0.93827000000E+00 0.  1.
     999902    2    1    2    0    0  0.82207128054E-02  0.73650923014E-03  0.21873919827E-01  0.10205507157E+01  0.10202828884E+01 0.  0.
     999903    2    3    3    0    0  0.63437569812E-02 -0.30081491662E-01  0.12853274269E+00  0.13357305161E+00  0.19389553334E-01 0.  0.
         14    1    1    2    0    0 -0.82207128054E-02 -0.73650923014E-03 -0.21873919827E-01  0.23379284281E-01  0.00000000000E+00 0.  1.
     999901    1    3    3    0    0  0.18769558243E-02  0.30818000892E-01 -0.10665882286E+00  0.88697766411E+00  0.88000000000E+00 0.  1.
        -11    1    4    4    0    0 -0.42902315249E-02 -0.20049327910E-01  0.57462516626E-01  0.61012978735E-01  0.51100000000E-03 0.  1.
         11    1    4    4    0    0  0.10633988506E-01 -0.10032163752E-01  0.71070226065E-01  0.72560072870E-01  0.51100000000E-03 0. -1.
</event>
<event>
 8    1  0.1197213E+005  0.1043930E+01  0.7957747E-01            NaN
         13   -1    0    0    0    0  0.00000000000E+00  0.00000000000E+00  0.74505805969E-08  0.10566000000E+00  0.10566000000E+00 0.  1.
     999900   -1    0    0    0    0 -0.00000000000E+00 -0.00000000000E+00 -0.74505805969E-08  0.93827000000E+00  0.93827000000E+00 0.  1.
     999902    2    1    2    0    0 -0.14159358730E-01  0.12672002158E-01  0.13168513273E-01  0.10208112453E+01  0.10205494215E+01 0.  0.
     999903    2    3    3    0    0  0.63520398977E-01  0.97491703535E-01  0.61004207460E-01  0.13203861960E+00  0.13160942019E-01 0.  0.
         14    1    1    2    0    0  0.14159358730E-01 -0.12672002158E-01 -0.13168513273E-01  0.23118754727E-01  0.00000000000E+00 0. -1.
     999901    1    3    3    0    0 -0.77679757707E-01 -0.84819701378E-01 -0.47835694187E-01  0.88877262567E+00  0.88000000000E+00 0. -1.
        -11    1    4    4    0    0  0.26723487981E-01  0.53005403643E-01  0.31420384114E-01  0.67165610874E-01  0.51100000000E-03 0.  1.
         11    1    4    4    0    0  0.36796910996E-01  0.44486299892E-01  0.29583823346E-01  0.64873008730E-01  0.51100000000E-03 0. -1.
</event>
<event>
 8    1  0.1197213E+005  0.1043930E+01  0.7957747E-01            NaN
         13   -1    0    0    0    0  0.00000000000E+00  0.00000000000E+00  0.74505805969E-08  0.10566000000E+00  0.10566000000E+00 0.  1.
     999900   -1    0    0    0    0 -0.00000000000E+00 -0.00000000000E+00 -0.74505805969E-08  0.93827000000E+00  0.93827000000E+00 0.  1.
     999902    2    1    2    0    0  0.35073068986E-02 -0.23586994316E-01  0.27673547014E-02  0.10199236310E+01  0.10196410678E+01 0.  0.
     999903    2    3    3    0    0 -0.10564878687E-01 -0.13121442361E+00  0.62073006869E-02  0.13324808535E+00  0.19689592275E-01 0.  0.
         14    1    1    2    0    0 -0.35073068986E-02  0.23586994316E-01 -0.27673547014E-02  0.24006369042E-01  0.00000000000E+00 0. -1.
     999901    1    3    3    0    0  0.14072185586E-01  0.10762742929E+00 -0.34399459855E-02  0.88667554560E+00  0.88000000000E+00 0. -1.
        -11    1    4    4    0    0 -0.11477594641E-02 -0.79223973063E-01  0.11824686252E-01  0.80111419820E-01  0.51100000000E-03 0. -1.
         11    1    4    4    0    0 -0.94171192233E-02 -0.51990450547E-01 -0.56173855649E-02  0.53136665534E-01  0.51100000000E-03 0.  1.
</event>
<event>
 8    1  0.1197213E+005  0.1043930E+01  0.7957747E-01            NaN
         13   -1    0    0    0    0  0.00000000000E+00  0.00000000000E+00  0.74505805969E-08  0.10566000000E+00  0.10566000000E+00 0. -1.
     999900   -1    0    0    0    0 -0.00000000000E+00 -0.00000000000E+00 -0.74505805969E-08  0.93827000000E+00  0.93827000000E+00 0.  1.
     999902    2    1    2    0    0  0.14097039905E-01 -0.17178234482E-01 -0.85106722632E-02  0.10201339958E+01  0.10198564210E+01 0.  0.
     999903    2    3    3    0    0  0.70984759841E-02 -0.80109925449E-01 -0.10367670885E+00  0.13274121233E+00  0.20084346499E-01 0.  0.
         14    1    1    2    0    0 -0.14097039905E-01  0.17178234482E-01  0.85106722632E-02  0.23796004210E-01  0.00000000000E+00 0.  1.
     999901    1    3    3    0    0  0.69985639212E-02  0.62931690967E-01  0.95166036589E-01  0.88739278346E+00  0.88000000000E+00 0. -1.
        -11    1    4    4    0    0  0.41424987490E-02 -0.67118661320E-01 -0.96438514431E-01  0.11757007774E+00  0.51100000000E-03 0. -1.
         11    1    4    4    0    0  0.29559772350E-02 -0.12991264130E-01 -0.72381944208E-02  0.15171134584E-01  0.51100000000E-03 0.  1.
</event>
<event>
 8    1  0.1197213E+005  0.1043930E+01  0.7957747E-01            NaN
         13   -1    0    0    0    0  0.00000000000E+00  0.00000000000E+00  0.74505805969E-08  0.10566000000E+00  0.10566000000E+00 0. -1.
     999900   -1    0    0    0    0 -0.00000000000E+00 -0.00000000000E+00 -0.74505805969E-08  0.93827000000E+00  0.93827000000E+00 0.  1.
     999902    2    1    2    0    0 -0.16829293360E-01  0.21315085203E-02 -0.16370370684E-01  0.10203554909E+01  0.10200831193E+01 0.  0.
     999903    2    3    3    0    0  0.17319583735E-01  0.84539938317E-01 -0.97958595856E-01  0.13209092805E+00  0.20128527499E-01 0.  0.
         14    1    1    2    0    0  0.16829293360E-01 -0.21315085203E-02  0.16370370684E-01  0.23574509113E-01  0.00000000000E+00 0. -1.
     999901    1    3    3    0    0 -0.34148877095E-01 -0.82408429797E-01  0.81588225172E-01  0.88826456284E+00  0.88000000000E+00 0. -1.
        -11    1    4    4    0    0  0.19213866163E-03  0.50425255268E-01 -0.54881940835E-01  0.74532085955E-01  0.51100000000E-03 0. -1.
         11    1    4    4    0    0  0.17127445074E-01  0.34114683049E-01 -0.43076655021E-01  0.57558842093E-01  0.51100000000E-03 0.  1.
</event>
<event>
 8    1  0.1197213E+005  0.1043930E+01  0.7957747E-01            NaN
         13   -1    0    0    0    0  0.00000000000E+00  0.00000000000E+00  0.74505805969E-08  0.10566000000E+00  0.10566000000E+00 0. -1.
     999900   -1    0    0    0    0 -0.00000000000E+00 -0.00000000000E+00 -0.74505805969E-08  0.93827000000E+00  0.93827000000E+00 0.  1.
     999902    2    1    2    0    0 -0.21686926862E-01  0.96420815136E-02 -0.33310220568E-02  0.10199636018E+01  0.10196819901E+01 0.  0.
     999903    2    3    3    0    0 -0.12495948833E-01  0.94583130508E-01 -0.88523208372E-01  0.13173099465E+00  0.20361218424E-01 0.  0.
         14    1    1    2    0    0  0.21686926862E-01 -0.96420815136E-02  0.33310220568E-02  0.23966398157E-01  0.00000000000E+00 0.  1.
     999901    1    3    3    0    0 -0.91909780296E-02 -0.84941048995E-01  0.85192186315E-01  0.88823260720E+00  0.88000000000E+00 0.  1.
        -11    1    4    4    0    0 -0.14069220104E-01  0.39812393700E-01 -0.31794232547E-01  0.52859284811E-01  0.51100000000E-03 0.  1.
         11    1    4    4    0    0  0.15732712715E-02  0.54770736809E-01 -0.56728975824E-01  0.78871709834E-01  0.51100000000E-03 0. -1.
</event>
<event>
 8    1  0.1197213E+005  0.1043930E+01  0.7957747E-01            NaN
         13   -1    0    0    0    0  0.00000000000E+00  0.00000000000E+00  0.74505805969E-08  0.10566000000E+00  0.10566000000E+00 0.  1.
     999900   -1    0    0    0    0 -0.00000000000E+00 -0.00000000000E+00 -0.74505805969E-08  0.93827000000E+00  0.93827000000E+00 0.  1.
     999902    2    1    2    0    0 -0.11777901696E-01 -0.30295922766E-01  0.59998638321E-02  0.10108761005E+01  0.10103355533E+01 0.  0.
     999903    2    3    3    0    0 -0.92613949934E-01 -0.22322607276E-01  0.77371892459E-01  0.12425780220E+00  0.19440914237E-01 0.  0.
         14    1    1    2    0    0  0.11777901696E-01  0.30295922766E-01 -0.59998638321E-02  0.33053899477E-01  0.00000000000E+00 0. -1.
     999901    1    3    3    0    0  0.80836048238E-01 -0.79733154895E-02 -0.71372028627E-01  0.88661829833E+00  0.88000000000E+00 0.  1.
        -11    1    4    4    0    0 -0.85678759478E-01 -0.15855499248E-01  0.73529273378E-01  0.11401342836E+00  0.51100000000E-03 0.  1.
         11    1    4    4    0    0 -0.69351904565E-02 -0.64671080285E-02  0.38426190812E-02  0.10244373837E-01  0.51100000000E-03 0. -1.
</event>
<event>
 8    1  0.1197213E+005  0.1043930E+01  0.7957747E-01            NaN
         13   -1    0    0    0    0  0.00000000000E+00  0.00000000000E+00  0.74505805969E-08  0.10566000000E+00  0.10566000000E+00 0.  1.
     999900   -1    0    0    0    0 -0.00000000000E+00 -0.00000000000E+00 -0.74505805969E-08  0.93827000000E+00  0.93827000000E+00 0. -1.
     999902    2    1    2    0    0  0.33263016976E-02 -0.13136860399E-01  0.20149544273E-01  0.10196473824E+01  0.10193581995E+01 0.  0.
     999903    2    3    3    0    0  0.10502551595E+00 -0.50055362651E-01 -0.53972621999E-01  0.12992843714E+00  0.20795588971E-01 0.  0.
         14    1    1    2    0    0 -0.33263016976E-02  0.13136860399E-01 -0.20149544273E-01  0.24282617621E-01  0.00000000000E+00 0. -1.
     999901    1    3    3    0    0 -0.10169921425E+00  0.36918502252E-01  0.74122166272E-01  0.88971894524E+00  0.88000000000E+00 0.  1.
        -11    1    4    4    0    0  0.32847259942E-01 -0.18711197710E-01 -0.75143745870E-02  0.38545795515E-01  0.51100000000E-03 0.  1.
         11    1    4    4    0    0  0.72178256009E-01 -0.31344164941E-01 -0.46458247412E-01  0.91382641623E-01  0.51100000000E-03 0. -1.
</event>
<event>
 8    1  0.1197213E+005  0.1043930E+01  0.7957747E-01            NaN
         13   -1    0    0    0    0  0.00000000000E+00  0.00000000000E+00  0.74505805969E-08  0.10566000000E+00  0.10566000000E+00 0.  1.
     999900   -1    0    0    0    0 -0.00000000000E+00 -0.00000000000E+00 -0.74505805969E-08  0.93827000000E+00  0.93827000000E+00 0.  1.
     999902    2    1    2    0    0 -0.30088631478E-02 -0.15496333464E-01  0.16891147654E-01  0.10208107336E+01  0.10205488981E+01 0.  0.
     999903    2    3    3    0    0 -0.82200438270E-01  0.96900774159E-01  0.19715555137E-01  0.13012987460E+00  0.19960186979E-01 0.  0.
         14    1    1    2    0    0  0.30088631478E-02  0.15496333464E-01 -0.16891147654E-01  0.23119266367E-01  0.00000000000E+00 0.  1.
     999901    1    3    3    0    0  0.79191575123E-01 -0.11239710762E+00 -0.28244074822E-02  0.89068085903E+00  0.88000000000E+00 0.  1.
        -11    1    4    4    0    0 -0.16203644031E-01  0.14531004580E-01 -0.35197644842E-02  0.22053526635E-01  0.51100000000E-03 0.  1.
         11    1    4    4    0    0 -0.65996794239E-01  0.82369769580E-01  0.23235319621E-01  0.10807634796E+00  0.51100000000E-03 0. -1.
</event>
<event>
 8    1  0.1197213E+005  0.1043930E+01  0.7957747E-01            NaN
         13   -1    0    0    0    0  0.00000000000E+00  0.00000000000E+00  0.74505805969E-08  0.10566000000E+00  0.10566000000E+00 0. -1.
     999900   -1    0    0    0    0 -0.00000000000E+00 -0.00000000000E+00 -0.74505805969E-08  0.93827000000E+00  0.93827000000E+00 0.  1.
     999902    2    1    2    0    0  0.21287865728E-01 -0.41694392613E-02 -0.83588958470E-02  0.10206828799E+01  0.10204181069E+01 0.  0.
     999903    2    3    3    0    0 -0.12566515269E+00 -0.90063584430E-02 -0.14003804658E-01  0.12846628606E+00  0.20847901975E-01 0.  0.
         14    1    1    2    0    0 -0.21287865728E-01  0.41694392613E-02  0.83588958470E-02  0.23247120054E-01  0.00000000000E+00 0. -1.
     999901    1    3    3    0    0  0.14695301842E+00  0.48369191818E-02  0.56449088108E-02  0.89221659389E+00  0.88000000000E+00 0.  1.
        -11    1    4    4    0    0 -0.66396502972E-01 -0.12836413250E-01 -0.85259095803E-03  0.67633254722E-01  0.51100000000E-03 0.  1.
         11    1    4    4    0    0 -0.59268649717E-01  0.38300548067E-02 -0.13151213700E-01  0.60833031339E-01  0.51100000000E-03 0. -1.
</event>
<event>
 8    1  0.1197213E+005  0.1043930E+01  0.7957747E-01            NaN
         13   -1    0    0    0    0  0.00000000000E+00  0.00000000000E+00  0.74505805969E-08  0.10566000000E+00  0.10566000000E+00 0.  1.
     999900   -1    0    0    0    0 -0.00000000000E+00 -0.00000000000E+00 -0.74505805969E-08  0.93827000000E+00  0.93827000000E+00 0. -1.
     999902    2    1    2    0    0  0.22151298195E-01 -0.25748148136E-02 -0.81244668922E-02  0.10201957074E+01  0.10199195874E+01 0.  0.
     999903    2    3    3    0    0 -0.64828951533E-01 -0.11005303401E+00 -0.86394084956E-03  0.12937033356E+00  0.20529821229E-01 0.  0.
         14    1    1    2    0    0 -0.22151298195E-01  0.25748148136E-02  0.81244668922E-02  0.23734292602E-01  0.00000000000E+00 0. -1.
     999901    1    3    3    0    0  0.86980249728E-01  0.10747821919E+00 -0.72605260426E-02  0.89082537384E+00  0.88000000000E+00 0.  1.
        -11    1    4    4    0    0 -0.28051811384E-01 -0.62425133143E-01 -0.74028117586E-02  0.68839408138E-01  0.51100000000E-03 0. -1.
         11    1    4    4    0    0 -0.36777140149E-01 -0.47627900863E-01  0.65388709090E-02  0.60530925418E-01  0.51100000000E-03 0.  1.
</event>
<event>
 8    1  0.1197213E+005  0.1043930E+01  0.7957747E-01            NaN
         13   -1    0    0    0    0  0.00000000000E+00  0.00000000000E+00  0.74505805969E-08  0.10566000000E+00  0.10566000000E+00 0. -1.
     999900   -1    0    0    0    0 -0.00000000000E+00 -0.00000000000E+00 -0.74505805969E-08  0.93827000000E+00  0.93827000000E+00 0.  1.
     999902    2    1    2    0    0 -0.17888683029E-01 -0.12294145409E-02 -0.15784586057E-01  0.10200413082E+01  0.10197615411E+01 0.  0.
     999903    2    3    3    0    0  0.10707325186E-01  0.26375003194E-01  0.12331793276E+00  0.12822897011E+00  0.20617192580E-01 0.  0.
         14    1    1    2    0    0  0.17888683029E-01  0.12294145409E-02  0.15784586057E-01  0.23888691836E-01  0.00000000000E+00 0. -1.
     999901    1    3    3    0    0 -0.28596008215E-01 -0.27604417735E-01 -0.13910251881E+00  0.89181233805E+00  0.88000000000E+00 0.  1.
        -11    1    4    4    0    0 -0.15821227368E-02  0.17206975301E-01  0.88629336710E-01  0.90299521361E-01  0.51100000000E-03 0.  1.
         11    1    4    4    0    0  0.12289447923E-01  0.91680278931E-02  0.34688596047E-01  0.37929448749E-01  0.51100000000E-03 0. -1.
</event>
<event>
 8    1  0.1197213E+005  0.1043930E+01  0.7957747E-01            NaN
         13   -1    0    0    0    0  0.00000000000E+00  0.00000000000E+00  0.74505805969E-08  0.10566000000E+00  0.10566000000E+00 0. -1.
     999900   -1    0    0    0    0 -0.00000000000E+00 -0.00000000000E+00 -0.74505805969E-08  0.93827000000E+00  0.93827000000E+00 0. -1.
     999902    2    1    2    0    0 -0.14832789381E-01 -0.45001995834E-02  0.18882611117E-01  0.10195001732E+01  0.10192074306E+01 0.  0.
     999903    2    3    3    0    0  0.94237305063E-01 -0.82601485428E-01  0.24738954437E-01  0.12931457840E+00  0.20163562673E-01 0.  0.
         14    1    1    2    0    0  0.14832789381E-01  0.45001995834E-02 -0.18882611117E-01  0.24429826845E-01  0.00000000000E+00 0.  1.
     999901    1    3    3    0    0 -0.10907009444E+00  0.78101285844E-01 -0.58563433195E-02  0.89018559476E+00  0.88000000000E+00 0. -1.
        -11    1    4    4    0    0  0.12716150431E-01 -0.31948409348E-02  0.26907102906E-02  0.13394347063E-01  0.51100000000E-03 0. -1.
         11    1    4    4    0    0  0.81521154631E-01 -0.79406644493E-01  0.22048244146E-01  0.11592023134E+00  0.51100000000E-03 0.  1.
</event>
<event>
 8    1  0.1197213E+005  0.1043930E+01  0.7957747E-01            NaN
         13   -1    0    0    0    0  0.00000000000E+00  0.00000000000E+00  0.74505805969E-08  0.10566000000E+00  0.10566000000E+00 0.  1.
     999900   -1    0    0    0    0 -0.00000000000E+00 -0.00000000000E+00 -0.74505805969E-08  0.93827000000E+00  0.93827000000E+00 0.  1.
     999902    2    1    2    0    0  0.18075606453E-01  0.24149518326E-02 -0.14764554839E-01  0.10204661636E+01  0.10201963729E+01 0.  0.
     999903    2    3    3    0    0  0.59778603874E-01  0.11620270057E-02 -0.11777911556E+00  0.13347534651E+00  0.19207193339E-01 0.  0.
         14    1    1    2    0    0 -0.18075606453E-01 -0.24149518326E-02  0.14764554839E-01  0.23463836442E-01  0.00000000000E+00 0.  1.
     999901    1    3    3    0    0 -0.41702997421E-01  0.12529248270E-02  0.10301456072E+00  0.88699081705E+00  0.88000000000E+00 0. -1.
        -11    1    4    4    0    0  0.11679322107E-01 -0.52754225562E-02 -0.14475943093E-01  0.19340390313E-01  0.51100000000E-03 0.  1.
         11    1    4    4    0    0  0.48099281767E-01  0.64374495619E-02 -0.10330317246E+00  0.11413495619E+00  0.51100000000E-03 0. -1.
</event>
<event>
 8    1  0.1197213E+005  0.1043930E+01  0.7957747E-01            NaN
         13   -1    0    0    0    0  0.00000000000E+00  0.00000000000E+00  0.74505805969E-08  0.10566000000E+00  0.10566000000E+00 0.  1.
     999900   -1    0    0    0    0 -0.00000000000E+00 -0.00000000000E+00 -0.74505805969E-08  0.93827000000E+00  0.93827000000E+00 0. -1.
     999902    2    1    2    0    0  0.32456920533E-02  0.29209413389E-02  0.26920427436E-01  0.10166577462E+01  0.10162918857E+01 0.  0.
     999903    2    3    3    0    0 -0.88905790591E-01  0.88618784443E-01  0.15602795614E-01  0.12763350306E+00  0.17009859345E-01 0.  0.
         14    1    1    2    0    0 -0.32456920533E-02 -0.29209413389E-02 -0.26920427436E-01  0.27272253822E-01  0.00000000000E+00 0. -1.
     999901    1    3    3    0    0  0.92151482645E-01 -0.85697843104E-01  0.11317631822E-01  0.88902424312E+00  0.88000000000E+00 0. -1.
        -11    1    4    4    0    0 -0.48903139132E-01  0.48709134235E-01  0.53534895510E-04  0.69024349051E-01  0.51100000000E-03 0. -1.
         11    1    4    4    0    0 -0.40002651459E-01  0.39909650207E-01  0.15549260719E-01  0.58609154006E-01  0.51100000000E-03 0.  1.
</event>
<event>
 8    1  0.1197213E+005  0.1043930E+01  0.7957747E-01            NaN
         13   -1    0    0    0    0  0.00000000000E+00  0.00000000000E+00  0.74505805969E-08  0.10566000000E+00  0.10566000000E+00 0. -1.
     999900   -1    0    0    0    0 -0.00000000000E+00 -0.00000000000E+00 -0.74505805969E-08  0.93827000000E+00  0.93827000000E+00 0.  1.
     999902    2    1    2    0    0 -0.43201195532E-02  0.65391199736E-02  0.21926264268E-01  0.10206451425E+01  0.10203794992E+01 0.  0.
     999903    2    3    3    0    0 -0.25285691136E-01  0.20552368588E-01  0.12828158017E+00  0.13388284092E+00  0.20166438704E-01 0.  0.
         14    1    1    2    0    0  0.43201195532E-02 -0.65391199736E-02 -0.21926264268E-01  0.23284857477E-01  0.00000000000E+00 0.  1.
     999901    1    3    3    0    0  0.20965571583E-01 -0.14013248615E-01 -0.10635531590E+00  0.88676230161E+00  0.88000000000E+00 0.  1.
        -11    1    4    4    0    0 -0.28581078760E-01  0.18301580153E-01  0.10807828993E+00  0.11328284855E+00  0.51100000000E-03 0. -1.
         11    1    4    4    0    0  0.32953876244E-02  0.22507884347E-02  0.20203290236E-01  0.20599992367E-01  0.51100000000E-03 0.  1.
</event>
<event>
 8    1  0.1197213E+005  0.1043930E+01  0.7957747E-01            NaN
         13   -1    0    0    0    0  0.00000000000E+00  0.00000000000E+00  0.74505805969E-08  0.10566000000E+00  0.10566000000E+00 0.  1.
     999900   -1    0    0    0    0 -0.00000000000E+00 -0.00000000000E+00 -0.74505805969E-08  0.93827000000E+00  0.93827000000E+00 0.  1.
     999902    2    1    2    0    0 -0.13628451657E-01 -0.18997223506E-01 -0.56537854318E-02  0.10198760090E+01  0.10195923103E+01 0.  0.
     999903    2    3    3    0    0  0.66524377694E-01 -0.24095566237E-01  0.10710110480E+00  0.12905384128E+00  0.13347590017E-01 0.  0.
         14    1    1    2    0    0  0.13628451657E-01  0.18997223506E-01  0.56537854318E-02  0.24053991046E-01  0.00000000000E+00 0. -1.
     999901    1    3    3    0    0 -0.80152829351E-01  0.50983427311E-02 -0.11275489023E+00  0.89082216768E+00  0.88000000000E+00 0.  1.
        -11    1    4    4    0    0  0.60635376162E-01 -0.22074487412E-01  0.89204925046E-01  0.11009864491E+00  0.51100000000E-03 0.  1.
         11    1    4    4    0    0  0.58890015316E-02 -0.20210788244E-02  0.17896179755E-01  0.18955196372E-01  0.51100000000E-03 0. -1.
</event>
<event>
 8    1  0.1197213E+005  0.1043930E+01  0.7957747E-01            NaN
         13   -1    0    0    0    0  0.00000000000E+00  0.00000000000E+00  0.74505805969E-08  0.10566000000E+00  0.10566000000E+00 0.  1.
     999900   -1    0    0    0    0 -0.00000000000E+00 -0.00000000000E+00 -0.74505805969E-08  0.93827000000E+00  0.93827000000E+00 0.  1.
     999902    2    1    2    0    0 -0.91498752159E-02  0.13349673605E-01 -0.20516197848E-01  0.10177986323E+01  0.10174631235E+01 0.  0.
     999903    2    3    3    0    0  0.23979855726E-01 -0.68911504849E-01 -0.10502600066E+00  0.12931318658E+00  0.19173169465E-01 0.  0.
         14    1    1    2    0    0  0.91498752159E-02 -0.13349673605E-01  0.20516197848E-01  0.26131367663E-01  0.00000000000E+00 0.  1.
     999901    1    3    3    0    0 -0.33129730942E-01  0.82261178454E-01  0.84509802811E-01  0.88848544576E+00  0.88000000000E+00 0.  1.
        -11    1    4    4    0    0  0.93755334342E-02 -0.16412800155E-01 -0.15249055447E-01  0.24291468650E-01  0.51100000000E-03 0.  1.
         11    1    4    4    0    0  0.14604322292E-01 -0.52498704694E-01 -0.89776945212E-01  0.10502171793E+00  0.51100000000E-03 0. -1.
</event>
<event>
 8    1  0.1197213E+005  0.1043930E+01  0.7957747E-01            NaN
         13   -1    0    0    0    0  0.00000000000E+00  0.00000000000E+00  0.74505805969E-08  0.10566000000E+00  0.10566000000E+00 0.  1.
     999900   -1    0    0    0    0 -0.00000000000E+00 -0.00000000000E+00 -0.74505805969E-08  0.93827000000E+00  0.93827000000E+00 0.  1.
     999902    2    1    2    0    0  0.80471803760E-02 -0.18682753570E-01 -0.14330809360E-01  0.10190467830E+01  0.10187429369E+01 0.  0.
     999903    2    3    3    0    0 -0.86228064547E-01 -0.13895709495E-01  0.91202241060E-01  0.12772867908E+00  0.19193666300E-01 0.  0.
         14    1    1    2    0    0 -0.80471803760E-02  0.18682753570E-01  0.14330809360E-01  0.24883217032E-01  0.00000000000E+00 0.  1.
     999901    1    3    3    0    0  0.94275244923E-01 -0.47870440746E-02 -0.10553305042E+00  0.89131810389E+00  0.88000000000E+00 0.  1.
        -11    1    4    4    0    0 -0.63682701963E-01 -0.15948199694E-02  0.66528198860E-01  0.92110218459E-01  0.51100000000E-03 0.  1.
         11    1    4    4    0    0 -0.22545362585E-01 -0.12300889526E-01  0.24674042200E-01  0.35618460616E-01  0.51100000000E-03 0. -1.
</event>
<event>
 8    1  0.1197213E+005  0.1043930E+01  0.7957747E-01            NaN
         13   -1    0    0    0    0  0.00000000000E+00  0.00000000000E+00  0.74505805969E-08  0.10566000000E+00  0.10566000000E+00 0.  1.
     999900   -1    0    0    0    0 -0.00000000000E+00 -0.00000000000E+00 -0.74505805969E-08  0.93827000000E+00  0.93827000000E+00 0.  1.
     999902    2    1    2    0    0 -0.15242279440E-02  0.23937604333E-01  0.76326771177E-02  0.10187587876E+01  0.10184477785E+01 0.  0.
     999903    2    3    3    0    0  0.27906187886E-01  0.35645074869E-01 -0.11929117904E+00  0.12908869175E+00  0.19600465715E-01 0.  0.
         14    1    1    2    0    0  0.15242279440E-02 -0.23937604333E-01 -0.76326771177E-02  0.25171212366E-01  0.00000000000E+00 0. -1.
     999901    1    3    3    0    0 -0.29430415830E-01 -0.11707470536E-01  0.12692385616E+00  0.88967009588E+00  0.88000000000E+00 0. -1.
        -11    1    4    4    0    0 -0.11481410449E-03 -0.16621529720E-02 -0.12076762830E-02  0.21202683286E-02  0.51100000000E-03 0. -1.
         11    1    4    4    0    0  0.28021001990E-01  0.37307227841E-01 -0.11808350276E+00  0.12696842342E+00  0.51100000000E-03 0.  1.
</event>
<event>
 8    1  0.1197213E+005  0.1043930E+01  0.7957747E-01            NaN
         13   -1    0    0    0    0  0.00000000000E+00  0.00000000000E+00  0.74505805969E-08  0.10566000000E+00  0.10566000000E+00 0.  1.
     999900   -1    0    0    0    0 -0.00000000000E+00 -0.00000000000E+00 -0.74505805969E-08  0.93827000000E+00  0.93827000000E+00 0.  1.
     999902    2    1    2    0    0 -0.52680907200E-02  0.21789739629E-01  0.41014538596E-02  0.10211403651E+01  0.10208860259E+01 0.  0.
     999903    2    3    3    0    0 -0.47370539941E-01 -0.10891602319E+00 -0.46693687130E-01  0.12904353239E+00  0.19111898726E-01 0.  0.
         14    1    1    2    0    0  0.52680907200E-02 -0.21789739629E-01 -0.41014538596E-02  0.22789634852E-01  0.00000000000E+00 0. -1.
     999901    1    3    3    0    0  0.42102449221E-01  0.13070576282E+00  0.50795140989E-01  0.89209683276E+00  0.88000000000E+00 0. -1.
        -11    1    4    4    0    0 -0.31142526393E-01 -0.87103863461E-01 -0.30542063315E-01  0.97416727170E-01  0.51100000000E-03 0. -1.
         11    1    4    4    0    0 -0.16228013548E-01 -0.21812159728E-01 -0.16151623815E-01  0.31626805222E-01  0.51100000000E-03 0.  1.
</event>
<event>
 8    1  0.1197213E+005  0.1043930E+01  0.7957747E-01            NaN
         13   -1    0    0    0    0  0.00000000000E+00  0.00000000000E+00  0.74505805969E-08  0.10566000000E+00  0.10566000000E+00 0.  1.
     999900   -1    0    0    0    0 -0.00000000000E+00 -0.00000000000E+00 -0.74505805969E-08  0.93827000000E+00  0.93827000000E+00 0.  1.
     999902    2    1    2    0    0 -0.52019770688E-02 -0.51099185007E-02  0.23932324564E-01  0.10189114471E+01  0.10186042455E+01 0.  0.
     999903    2    3    3    0    0 -0.54372464623E-01  0.46435353374E-01  0.10940256586E+00  0.13190535122E+00  0.17818342012E-01 0.  0.
         14    1    1    2    0    0  0.52019770688E-02  0.51099185007E-02 -0.23932324564E-01  0.25018552946E-01  0.00000000000E+00 0. -1.
     999901    1    3    3    0    0  0.49170487555E-01 -0.51545271875E-01 -0.85470241294E-01  0.88700609583E+00  0.88000000000E+00 0.  1.
        -11    1    4    4    0    0 -0.16068127337E-01  0.41454970576E-02  0.23202023029E-01  0.28530069323E-01  0.51100000000E-03 0. -1.
         11    1    4    4    0    0 -0.38304337287E-01  0.42289856316E-01  0.86200542829E-01  0.10337528190E+00  0.51100000000E-03 0.  1.
</event>
<event>
 8    1  0.1197213E+005  0.1043930E+01  0.7957747E-01            NaN
         13   -1    0    0    0    0  0.00000000000E+00  0.00000000000E+00  0.74505805969E-08  0.10566000000E+00  0.10566000000E+00 0. -1.
     999900   -1    0    0    0    0 -0.00000000000E+00 -0.00000000000E+00 -0.74505805969E-08  0.93827000000E+00  0.93827000000E+00 0. -1.
     999902    2    1    2    0    0  0.54984444527E-02 -0.36994325860E-02 -0.23004102571E-01  0.10199903378E+01  0.10197093614E+01 0.  0.
     999903    2    3    3    0    0  0.11948557090E+00  0.33157325550E-01 -0.40163171264E-01  0.13170777053E+00  0.18911546749E-01 0.  0.
         14    1    1    2    0    0 -0.54984444527E-02  0.36994325860E-02  0.23004102571E-01  0.23939662235E-01  0.00000000000E+00 0. -1.
     999901    1    3    3    0    0 -0.11398712645E+00 -0.36856758136E-01  0.17159068694E-01  0.88828256724E+00  0.88000000000E+00 0.  1.
        -11    1    4    4    0    0  0.98750430528E-02 -0.96511562761E-03 -0.71970087519E-02  0.12268087848E-01  0.51100000000E-03 0.  1.
         11    1    4    4    0    0  0.10961052785E+00  0.34122441177E-01 -0.32966162513E-01  0.11943968268E+00  0.51100000000E-03 0. -1.
</event>
<event>
 8    1  0.1197213E+005  0.1043930E+01  0.7957747E-01            NaN
         13   -1    0    0    0    0  0.00000000000E+00  0.00000000000E+00  0.74505805969E-08  0.10566000000E+00  0.10566000000E+00 0. -1.
     999900   -1    0    0    0    0 -0.00000000000E+00 -0.00000000000E+00 -0.74505805969E-08  0.93827000000E+00  0.93827000000E+00 0.  1.
     999902    2    1    2    0    0  0.72131922371E-02  0.65157408892E-02 -0.27070180808E-01  0.10151675295E+01  0.10147599880E+01 0.  0.
     999903    2    3    3    0    0 -0.12085381877E+00 -0.22701346394E-01 -0.13460767374E-01  0.12531360122E+00  0.20032717111E-01 0.  0.
         14    1    1    2    0    0 -0.72131922371E-02 -0.65157408892E-02  0.27070180808E-01  0.28762470523E-01  0.00000000000E+00 0. -1.
     999901    1    3    3    0    0  0.12806701100E+00  0.29217087283E-01 -0.13609413435E-01  0.88985392825E+00  0.88000000000E+00 0.  1.
        -11    1    4    4    0    0 -0.36928638937E-01 -0.11034704036E-01 -0.12675946240E-01  0.40576222114E-01  0.51100000000E-03 0. -1.
         11    1    4    4    0    0 -0.83925179828E-01 -0.11666642358E-01 -0.78482113312E-03  0.84737379109E-01  0.51100000000E-03 0.  1.
</event>
<event>
 8    1  0.1197213E+005  0.1043930E+01  0.7957747E-01            NaN
         13   -1    0    0    0    0  0.00000000000E+00  0.00000000000E+00  0.74505805969E-08  0.10566000000E+00  0.10566000000E+00 0.  1.
     999900   -1    0    0    0    0 -0.00000000000E+00 -0.00000000000E+00 -0.74505805969E-08  0.93827000000E+00  0.93827000000E+00 0. -1.
     999902    2    1    2    0    0  0.11470162392E-01  0.20534117158E-01 -0.14424498607E-02  0.10203652964E+01  0.10200931540E+01 0.  0.
     999903    2    3    3    0    0 -0.34187049574E-01 -0.30307489843E-01  0.11949389108E+00  0.12946965239E+00  0.19907350039E-01 0.  0.
         14    1    1    2    0    0 -0.11470162392E-01 -0.20534117158E-01  0.14424498607E-02  0.23564703570E-01  0.00000000000E+00 0. -1.
     999901    1    3    3    0    0  0.45657211965E-01  0.50841607001E-01 -0.12093634094E+00  0.89089564404E+00  0.88000000000E+00 0. -1.
        -11    1    4    4    0    0 -0.93950381499E-02 -0.21181288436E-01  0.62144238528E-01  0.66325569917E-01  0.51100000000E-03 0.  1.
         11    1    4    4    0    0 -0.24792011424E-01 -0.91262014073E-02  0.57349652553E-01  0.63144082474E-01  0.51100000000E-03 0. -1.
</event>
<event>
 8    1  0.1197213E+005  0.1043930E+01  0.7957747E-01            NaN
         13   -1    0    0    0    0  0.00000000000E+00  0.00000000000E+00  0.74505805969E-08  0.10566000000E+00  0.10566000000E+00 0. -1.
     999900   -1    0    0    0    0 -0.00000000000E+00 -0.00000000000E+00 -0.74505805969E-08  0.93827000000E+00  0.93827000000E+00 0. -1.
     999902    2    1    2    0    0  0.50733622111E-02 -0.16276996496E-01  0.14073041317E-01  0.10218227589E+01  0.10215835846E+01 0.  0.
     999903    2    3    3    0    0  0.89185160423E-01  0.37503597639E-01  0.89117869735E-01  0.13300395101E+00  0.19686127182E-01 0.  0.
         14    1    1    2    0    0 -0.50733622111E-02  0.16276996496E-01 -0.14073041317E-01  0.22107241144E-01  0.00000000000E+00 0.  1.
     999901    1    3    3    0    0 -0.84111798212E-01 -0.53780594135E-01 -0.75044828418E-01  0.88881880784E+00  0.88000000000E+00 0. -1.
        -11    1    4    4    0    0  0.81797779838E-02  0.12671133272E-02  0.17587857533E-02  0.84775463652E-02  0.51100000000E-03 0. -1.
         11    1    4    4    0    0  0.81005382439E-01  0.36236484312E-01  0.87359083982E-01  0.12452640465E+00  0.51100000000E-03 0.  1.
</event>
<event>
 8    1  0.1197213E+005  0.1043930E+01  0.7957747E-01            NaN
         13   -1    0    0    0    0  0.00000000000E+00  0.00000000000E+00  0.74505805969E-08  0.10566000000E+00  0.10566000000E+00 0.  1.
     999900   -1    0    0    0    0 -0.00000000000E+00 -0.00000000000E+00 -0.74505805969E-08  0.93827000000E+00  0.93827000000E+00 0.  1.
     999902    2    1    2    0    0 -0.20746452056E-01  0.11507439636E-01  0.17842608285E-02  0.10201388246E+01  0.10198613638E+01 0.  0.
     999903    2    3    3    0    0  0.16844159898E-01 -0.86550640865E-01 -0.91869032214E-01  0.12896017778E+00  0.20397774800E-01 0.  0.
         14    1    1    2    0    0  0.20746452056E-01 -0.11507439636E-01 -0.17842608285E-02  0.23791175393E-01  0.00000000000E+00 0. -1.
     999901    1    3    3    0    0 -0.37590611954E-01  0.98058080501E-01  0.93653293043E-01  0.89117864682E+00  0.88000000000E+00 0.  1.
        -11    1    4    4    0    0  0.14376264044E-01 -0.51285555652E-01 -0.42008887528E-01  0.67837253325E-01  0.51100000000E-03 0. -1.
         11    1    4    4    0    0  0.24678958541E-02 -0.35265085214E-01 -0.49860144686E-01  0.61122924457E-01  0.51100000000E-03 0.  1.
</event>
<event>
 8    1  0.1197213E+005  0.1043930E+01  0.7957747E-01            NaN
         13   -1    0    0    0    0  0.00000000000E+00  0.00000000000E+00  0.74505805969E-08  0.10566000000E+00  0.10566000000E+00 0. -1.
     999900   -1    0    0    0    0 -0.00000000000E+00 -0.00000000000E+00 -0.74505805969E-08  0.93827000000E+00  0.93827000000E+00 0. -1.
     999902    2    1    2    0    0  0.20719246687E-01  0.27697329773E-03  0.13099643349E-01  0.10194154216E+01  0.10191206196E+01 0.  0.
     999903    2    3    3    0    0  0.23942613484E-02 -0.12749505672E+00  0.11416174112E-01  0.12999744855E+00  0.22545190699E-01 0.  0.
         14    1    1    2    0    0 -0.20719246687E-01 -0.27697329773E-03 -0.13099643349E-01  0.24514578384E-01  0.00000000000E+00 0.  1.
     999901    1    3    3    0    0  0.18324985338E-01  0.12777203002E+00  0.16834692375E-02  0.88941797306E+00  0.88000000000E+00 0.  1.
        -11    1    4    4    0    0 -0.67133795977E-02 -0.86896474542E-01  0.12637723203E-02  0.87166077088E-01  0.51100000000E-03 0.  1.
         11    1    4    4    0    0  0.91076409461E-02 -0.40598582175E-01  0.10152401792E-01  0.42831371463E-01  0.51100000000E-03 0. -1.
</event>
<event>
 8    1  0.1197213E+005  0.1043930E+01  0.7957747E-01            NaN
         13   -1    0    0    0    0  0.00000000000E+00  0.00000000000E+00  0.74505805969E-08  0.10566000000E+00  0.10566000000E+00 0. -1.
     999900   -1    0    0    0    0 -0.00000000000E+00 -0.00000000000E+00 -0.74505805969E-08  0.93827000000E+00  0.93827000000E+00 0. -1.
     999902    2    1    2    0    0  0.21279245861E-01  0.60530701774E-02 -0.19308553330E-02  0.10217224750E+01  0.10214811020E+01 0.  0.
     999903    2    3    3    0    0  0.18328698732E-01  0.50958377387E-01  0.11905003864E+00  0.13230605453E+00  0.19982065531E-01 0.  0.
         14    1    1    2    0    0 -0.21279245861E-01 -0.60530701774E-02  0.19308553330E-02  0.22207524970E-01  0.00000000000E+00 0. -1.
     999901    1    3    3    0    0  0.29505471288E-02 -0.44905307210E-01 -0.12098089397E+00  0.88941642050E+00  0.88000000000E+00 0. -1.
        -11    1    4    4    0    0  0.20754146607E-01  0.31314386837E-01  0.84683958675E-01  0.92644262651E-01  0.51100000000E-03 0. -1.
         11    1    4    4    0    0 -0.24254478751E-02  0.19643990550E-01  0.34366079964E-01  0.39661791882E-01  0.51100000000E-03 0.  1.
</event>
<event>
 8    1  0.1197213E+005  0.1043930E+01  0.7957747E-01            NaN
         13   -1    0    0    0    0  0.00000000000E+00  0.00000000000E+00  0.74505805969E-08  0.10566000000E+00  0.10566000000E+00 0.  1.
     999900   -1    0    0    0    0 -0.00000000000E+00 -0.00000000000E+00 -0.74505805969E-08  0.93827000000E+00  0.93827000000E+00 0. -1.
     999902    2    1    2    0    0  0.16326985697E-01  0.77182016094E-02 -0.14664007564E-01  0.10206668485E+01  0.10204017059E+01 0.  0.
     999903    2    3    3    0    0 -0.34404057601E-01 -0.85115809676E-01  0.87383115817E-01  0.12847549698E+00  0.21019137911E-01 0.  0.
         14    1    1    2    0    0 -0.16326985697E-01 -0.77182016094E-02  0.14664007564E-01  0.23263151460E-01  0.00000000000E+00 0.  1.
     999901    1    3    3    0    0  0.50731043297E-01  0.92834011286E-01 -0.10204712338E+00  0.89219135156E+00  0.88000000000E+00 0. -1.
        -11    1    4    4    0    0 -0.34078241125E-01 -0.64581876944E-01  0.61791660855E-01  0.95658851237E-01  0.51100000000E-03 0. -1.
         11    1    4    4    0    0 -0.32581647549E-03 -0.20533932732E-01  0.25591454962E-01  0.32816645744E-01  0.51100000000E-03 0.  1.
</event>
<event>
 8    1  0.1197213E+005  0.1043930E+01  0.7957747E-01            NaN
         13   -1    0    0    0    0  0.00000000000E+00  0.00000000000E+00  0.74505805969E-08  0.10566000000E+00  0.10566000000E+00 0.  1.
     999900   -1    0    0    0    0 -0.00000000000E+00 -0.00000000000E+00 -0.74505805969E-08  0.93827000000E+00  0.93827000000E+00 0. -1.
     999902    2    1    2    0    0  0.41443954631E-02 -0.31353151894E-02  0.22382463769E-01  0.10209521650E+01  0.10206935595E+01 0.  0.
     999903    2    3    3    0    0  0.81260854645E-01  0.90687737394E-01  0.47843382075E-01  0.13224638030E+00  0.19300872580E-01 0.  0.
         14    1    1    2    0    0 -0.41443954631E-02  0.31353151894E-02 -0.22382463769E-01  0.22977834960E-01  0.00000000000E+00 0. -1.
     999901    1    3    3    0    0 -0.77116459182E-01 -0.93823052583E-01 -0.25460918306E-01  0.88870578474E+00  0.88000000000E+00 0.  1.
        -11    1    4    4    0    0  0.31065452467E-01  0.35096671299E-01  0.28611161474E-01  0.54915374488E-01  0.51100000000E-03 0.  1.
         11    1    4    4    0    0  0.50195402178E-01  0.55591066095E-01  0.19232220600E-01  0.77331005810E-01  0.51100000000E-03 0. -1.
</event>
<event>
 8    1  0.1197213E+005  0.1043930E+01  0.7957747E-01            NaN
         13   -1    0    0    0    0  0.00000000000E+00  0.00000000000E+00  0.74505805969E-08  0.10566000000E+00  0.10566000000E+00 0.  1.
     999900   -1    0    0    0    0 -0.00000000000E+00 -0.00000000000E+00 -0.74505805969E-08  0.93827000000E+00  0.93827000000E+00 0. -1.
     999902    2    1    2    0    0  0.37655830908E-02 -0.20325813629E-01  0.87714227814E-02  0.10214743510E+01  0.10212274935E+01 0.  0.
     999903    2    3    3    0    0  0.11427132644E-02  0.10860006848E+00  0.68801496285E-01  0.13005280521E+00  0.19616462081E-01 0.  0.
         14    1    1    2    0    0 -0.37655830908E-02  0.20325813629E-01 -0.87714227814E-02  0.22455649029E-01  0.00000000000E+00 0. -1.
     999901    1    3    3    0    0  0.26228698264E-02 -0.12892588211E+00 -0.60030073503E-01  0.89142154576E+00  0.88000000000E+00 0. -1.
        -11    1    4    4    0    0  0.27434583425E-02  0.49267992731E-01  0.20136294149E-01  0.53297215073E-01  0.51100000000E-03 0.  1.
         11    1    4    4    0    0 -0.16007450781E-02  0.59332075748E-01  0.48665202135E-01  0.76755590137E-01  0.51100000000E-03 0. -1.
</event>
<event>
 8    1  0.1197213E+005  0.1043930E+01  0.7957747E-01            NaN
         13   -1    0    0    0    0  0.00000000000E+00  0.00000000000E+00  0.74505805969E-08  0.10566000000E+00  0.10566000000E+00 0. -1.
     999900   -1    0    0    0    0 -0.00000000000E+00 -0.00000000000E+00 -0.74505805969E-08  0.93827000000E+00  0.93827000000E+00 0. -1.
     999902    2    1    2    0    0  0.65904065804E-02  0.66955643216E-02 -0.21404582133E-01  0.10205543679E+01  0.10202866252E+01 0.  0.
     999903    2    3    3    0    0  0.10634755187E+00  0.13370500615E-01  0.71235313803E-01  0.13006113763E+00  0.18784501944E-01 0.  0.
         14    1    1    2    0    0 -0.65904065804E-02 -0.66955643216E-02  0.21404582133E-01  0.23375632115E-01  0.00000000000E+00 0. -1.
     999901    1    3    3    0    0 -0.99757145290E-01 -0.66749362932E-02 -0.92639895937E-01  0.89049323026E+00  0.88000000000E+00 0. -1.
        -11    1    4    4    0    0  0.25214558698E-01 -0.45537713378E-02  0.14461352932E-01  0.29426223906E-01  0.51100000000E-03 0.  1.
         11    1    4    4    0    0  0.81132993173E-01  0.17924271953E-01  0.56773960871E-01  0.10063491372E+00  0.51100000000E-03 0. -1.
</event>
<event>
 8    1  0.1197213E+005  0.1043930E+01  0.7957747E-01            NaN
         13   -1    0    0    0    0  0.00000000000E+00  0.00000000000E+00  0.74505805969E-08  0.10566000000E+00  0.10566000000E+00 0.  1.
     999900   -1    0    0    0    0 -0.00000000000E+00 -0.00000000000E+00 -0.74505805969E-08  0.93827000000E+00  0.93827000000E+00 0. -1.
     999902    2    1    2    0    0 -0.18672619170E-01 -0.12313117351E-01 -0.13755281591E-01  0.10176719091E+01  0.10173330955E+01 0.  0.
     999903    2    3    3    0    0 -0.40059487862E-01 -0.10098775859E+00  0.67293342705E-01  0.12925226184E+00  0.19351053385E-01 0.  0.
         14    1    1    2    0    0  0.18672619170E-01  0.12313117351E-01  0.13755281591E-01  0.26258090890E-01  0.00000000000E+00 0. -1.
     999901    1    3    3    0    0  0.21386868692E-01  0.88674641234E-01 -0.81048624296E-01  0.88841964727E+00  0.88000000000E+00 0. -1.
        -11    1    4    4    0    0 -0.12069558372E-01 -0.51784075186E-01  0.39151699435E-01  0.66033183868E-01  0.51100000000E-03 0. -1.
         11    1    4    4    0    0 -0.27989929490E-01 -0.49203683400E-01  0.28141643270E-01  0.63219077974E-01  0.51100000000E-03 0.  1.
</event>
<event>
 8    1  0.1197213E+005  0.1043930E+01  0.7957747E-01            NaN
         13   -1    0    0    0    0  0.00000000000E+00  0.00000000000E+00  0.74505805969E-08  0.10566000000E+00  0.10566000000E+00 0. -1.
     999900   -1    0    0    0    0 -0.00000000000E+00 -0.00000000000E+00 -0.74505805969E-08  0.93827000000E+00  0.93827000000E+00 0. -1.
     999902    2    1    2    0    0  0.75185706885E-02 -0.20954425669E-01 -0.12341602832E-02  0.10216333632E+01  0.10213900278E+01 0.  0.
     999903    2    3    3    0    0  0.12408350476E+00 -0.41843630125E-01 -0.17646821227E-01  0.13354940426E+00  0.19401740740E-01 0.  0.
         14    1    1    2    0    0 -0.75185706885E-02  0.20954425669E-01  0.12341602832E-02  0.22296636785E-01  0.00000000000E+00 0. -1.
     999901    1    3    3    0    0 -0.11656493407E+00  0.20889204457E-01  0.16412660944E-01  0.88808395896E+00  0.88000000000E+00 0. -1.
        -11    1    4    4    0    0  0.11408085073E+00 -0.35965121445E-01 -0.10885460546E-01  0.12011113536E+00  0.51100000000E-03 0. -1.
         11    1    4    4    0    0  0.10002654026E-01 -0.58785086800E-02 -0.67613606816E-02  0.13438268904E-01  0.51100000000E-03 0.  1.
</event>
<event>
 8    1  0.1197213E+005  0.1043930E+01  0.7957747E-01            NaN
         13   -1    0    0    0    0  0.00000000000E+00  0.00000000000E+00  0.74505805969E-08  0.10566000000E+00  0.10566000000E+00 0.  1.
     999900   -1    0    0    0    0 -0.00000000000E+00 -0.00000000000E+00 -0.74505805969E-08  0.93827000000E+00  0.93827000000E+00 0. -1.
     999902    2    1    2    0    0  0.40874050889E-02 -0.23377709968E-01 -0.50457123780E-02  0.10196672010E+01  0.10193784956E+01 0.  0.
     999903    2    3    3    0    0  0.12253251128E+00  0.35503522604E-01  0.11541151984E-01  0.12962710816E+00  0.19881462292E-01 0.  0.
         14    1    1    2    0    0 -0.40874050889E-02  0.23377709968E-01  0.50457123780E-02  0.24262799037E-01  0.00000000000E+00 0.  1.
     999901    1    3    3    0    0 -0.11844510619E+00 -0.58881232572E-01 -0.16586864362E-01  0.89004009280E+00  0.88000000000E+00 0.  1.
        -11    1    4    4    0    0  0.32958127321E-01  0.16840039914E-01  0.89962139226E-02  0.38092231318E-01  0.51100000000E-03 0. -1.
         11    1    4    4    0    0  0.89574383958E-01  0.18663482690E-01  0.25449380612E-02  0.91534876841E-01  0.51100000000E-03 0.  1.
</event>
<event>
 8    1  0.1197213E+005  0.1043930E+01  0.7957747E-01            NaN
         13   -1    0    0    0    0  0.00000000000E+00  0.00000000000E+00  0.74505805969E-08  0.10566000000E+00  0.10566000000E+00 0. -1.
     999900   -1    0    0    0    0 -0.00000000000E+00 -0.00000000000E+00 -0.74505805969E-08  0.93827000000E+00  0.93827000000E+00 0. -1.
     999902    2    1    2    0    0  0.59557181480E-02 -0.17396138421E-02 -0.22365243337E-01  0.10207200680E+01  0.10204561511E+01 0.  0.
     999903    2    3    3    0    0  0.12982951472E+00  0.55980728267E-02 -0.68019124668E-02  0.13187768803E+00  0.21410681323E-01 0.  0.
         14    1    1    2    0    0 -0.59557181480E-02  0.17396138421E-02  0.22365243337E-01  0.23209932023E-01  0.00000000000E+00 0. -1.
     999901    1    3    3    0    0 -0.12387379657E+00 -0.73376866688E-02 -0.15563330871E-01  0.88884237995E+00  0.88000000000E+00 0. -1.
        -11    1    4    4    0    0  0.46176814522E-01  0.49897898434E-02  0.73693791343E-02  0.47029406459E-01  0.51100000000E-03 0. -1.
         11    1    4    4    0    0  0.83652700199E-01  0.60828298327E-03 -0.14171291601E-01  0.84848281570E-01  0.51100000000E-03 0.  1.
</event>
<event>
 8    1  0.1197213E+005  0.1043930E+01  0.7957747E-01            NaN
         13   -1    0    0    0    0  0.00000000000E+00  0.00000000000E+00  0.74505805969E-08  0.10566000000E+00  0.10566000000E+00 0.  1.
     999900   -1    0    0    0    0 -0.00000000000E+00 -0.00000000000E+00 -0.74505805969E-08  0.93827000000E+00  0.93827000000E+00 0.  1.
     999902    2    1    2    0    0 -0.19259094306E-01  0.10574207429E-01 -0.95738663763E-02  0.10199636592E+01  0.10196820487E+01 0.  0.
     999903    2    3    3    0    0  0.11896905268E+00  0.23013639550E-01  0.35715094248E-01  0.12793627726E+00  0.20220286348E-01 0.  0.
         14    1    1    2    0    0  0.19259094306E-01 -0.10574207429E-01  0.95738663763E-02  0.23966340847E-01  0.00000000000E+00 0.  1.
     999901    1    3    3    0    0 -0.13822814699E+00 -0.12439432121E-01 -0.45288960624E-01  0.89202738189E+00  0.88000000000E+00 0.  1.
        -11    1    4    4    0    0  0.80929173466E-01  0.59895136007E-02  0.22524198275E-01  0.84219985871E-01  0.51100000000E-03 0. -1.
         11    1    4    4    0    0  0.38039879218E-01  0.17024125949E-01  0.13190895972E-01  0.43716291389E-01  0.51100000000E-03 0.  1.
</event>
<event>
 8    1  0.1197213E+005  0.1043930E+01  0.7957747E-01            NaN
         13   -1    0    0    0    0  0.00000000000E+00  0.00000000000E+00  0.74505805969E-08  0.10566000000E+00  0.10566000000E+00 0. -1.
     999900   -1    0    0    0    0 -0.00000000000E+00 -0.00000000000E+00 -0.74505805969E-08  0.93827000000E+00  0.93827000000E+00 0.  1.
     999902    2    1    2    0    0  0.10383468659E-01  0.12128705328E-02 -0.20938603033E-01  0.10205267401E+01  0.10202583568E+01 0.  0.
     999903    2    3    3    0    0  0.10841214214E+00  0.57186701786E-01 -0.48399778177E-01  0.13289122553E+00  0.17147240910E-01 0.  0.
         14    1    1    2    0    0 -0.10383468659E-01 -0.12128705328E-02  0.20938603033E-01  0.23403259886E-01  0.00000000000E+00 0. -1.
     999901    1    3    3    0    0 -0.98028673481E-01 -0.55973831253E-01  0.27461175145E-01  0.88763551458E+00  0.88000000000E+00 0. -1.
        -11    1    4    4    0    0  0.68693504772E-01  0.42043250203E-01 -0.24813728512E-01  0.84275825295E-01  0.51100000000E-03 0.  1.
         11    1    4    4    0    0  0.39718637368E-01  0.15143451582E-01 -0.23586049666E-01  0.48615400235E-01  0.51100000000E-03 0. -1.
</event>
<event>
 8    1  0.1197213E+005  0.1043930E+01  0.7957747E-01            NaN
         13   -1    0    0    0    0  0.00000000000E+00  0.00000000000E+00  0.74505805969E-08  0.10566000000E+00  0.10566000000E+00 0.  1.
     999900   -1    0    0    0    0 -0.00000000000E+00 -0.00000000000E+00 -0.74505805969E-08  0.93827000000E+00  0.93827000000E+00 0. -1.
     999902    2    1    2    0    0 -0.35519089778E-02 -0.84738575499E-02  0.22168331967E-01  0.10199329739E+01  0.10196506333E+01 0.  0.
     999903    2    3    3    0    0 -0.94149827984E-02  0.33618870671E-01 -0.12105554716E+00  0.12734166040E+00  0.18508987238E-01 0.  0.
         14    1    1    2    0    0  0.35519089778E-02  0.84738575499E-02 -0.22168331967E-01  0.23997026094E-01  0.00000000000E+00 0. -1.
     999901    1    3    3    0    0  0.58630738206E-02 -0.42092728220E-01  0.14322387912E+00  0.89259131351E+00  0.88000000000E+00 0.  1.
        -11    1    4    4    0    0 -0.11597299649E-01  0.93979089922E-02 -0.39225299298E-01  0.41972649173E-01  0.51100000000E-03 0. -1.
         11    1    4    4    0    0  0.21823168509E-02  0.24220961678E-01 -0.81830247859E-01  0.85369011222E-01  0.51100000000E-03 0.  1.
</event>
<event>
 8    1  0.1197213E+005  0.1043930E+01  0.7957747E-01            NaN
         13   -1    0    0    0    0  0.00000000000E+00  0.00000000000E+00  0.74505805969E-08  0.10566000000E+00  0.10566000000E+00 0. -1.
     999900   -1    0    0    0    0 -0.00000000000E+00 -0.00000000000E+00 -0.74505805969E-08  0.93827000000E+00  0.93827000000E+00 0. -1.
     999902    2    1    2    0    0 -0.11296695753E-01 -0.16847614167E-01 -0.11550392017E-01  0.10205875710E+01  0.10203205972E+01 0.  0.
     999903    2    3    3    0    0 -0.49474992430E-03  0.98472821358E-01 -0.82501583685E-01  0.13016657138E+00  0.20968635395E-01 0.  0.
         14    1    1    2    0    0  0.11296695753E-01  0.16847614167E-01  0.11550392017E-01  0.23342429047E-01  0.00000000000E+00 0.  1.
     999901    1    3    3    0    0 -0.10801945829E-01 -0.11532043553E+00  0.70951191668E-01  0.89042099957E+00  0.88000000000E+00 0. -1.
        -11    1    4    4    0    0 -0.45419045441E-02  0.28595305738E-01 -0.13764597744E-01  0.32063151423E-01  0.51100000000E-03 0.  1.
         11    1    4    4    0    0  0.40471546198E-02  0.69877515620E-01 -0.68736985941E-01  0.98103419956E-01  0.51100000000E-03 0. -1.
</event>
<event>
 8    1  0.1197213E+005  0.1043930E+01  0.7957747E-01            NaN
         13   -1    0    0    0    0  0.00000000000E+00  0.00000000000E+00  0.74505805969E-08  0.10566000000E+00  0.10566000000E+00 0.  1.
     999900   -1    0    0    0    0 -0.00000000000E+00 -0.00000000000E+00 -0.74505805969E-08  0.93827000000E+00  0.93827000000E+00 0. -1.
     999902    2    1    2    0    0  0.17897005305E-01  0.72009920950E-02  0.13822056218E-01  0.10201980316E+01  0.10199219663E+01 0.  0.
     999903    2    3    3    0    0 -0.92756557089E-01 -0.69741766972E-01  0.52846286904E-01  0.12908227614E+00  0.20045224651E-01 0.  0.
         14    1    1    2    0    0 -0.17897005305E-01 -0.72009920950E-02 -0.13822056218E-01  0.23731968400E-01  0.00000000000E+00 0. -1.
     999901    1    3    3    0    0  0.11065356239E+00  0.76942759067E-01 -0.39024230686E-01  0.89111575546E+00  0.88000000000E+00 0. -1.
        -11    1    4    4    0    0 -0.59812568437E-01 -0.56405731758E-01  0.36175997802E-01  0.89822680077E-01  0.51100000000E-03 0. -1.
         11    1    4    4    0    0 -0.32943988652E-01 -0.13336035214E-01  0.16670289102E-01  0.39259596066E-01  0.51100000000E-03 0.  1.
</event>
<event>
 8    1  0.1197213E+005  0.1043930E+01  0.7957747E-01            NaN
         13   -1    0    0    0    0  0.00000000000E+00  0.00000000000E+00  0.74505805969E-08  0.10566000000E+00  0.10566000000E+00 0. -1.
     999900   -1    0    0    0    0 -0.00000000000E+00 -0.00000000000E+00 -0.74505805969E-08  0.93827000000E+00  0.93827000000E+00 0.  1.
     999902    2    1    2    0    0  0.18123526492E-01  0.82704897008E-02 -0.94241446746E-02  0.10218919031E+01  0.10216542389E+01 0.  0.
     999903    2    3    3    0    0  0.33013722598E-01 -0.10712574123E+00  0.64816584008E-01  0.13113397085E+00  0.20714691297E-01 0.  0.
         14    1    1    2    0    0 -0.18123526492E-01 -0.82704897008E-02  0.94241446746E-02  0.22038096906E-01  0.00000000000E+00 0. -1.
     999901    1    3    3    0    0 -0.14890196106E-01  0.11539623093E+00 -0.74240728683E-01  0.89075793224E+00  0.88000000000E+00 0.  1.
        -11    1    4    4    0    0  0.19088020616E-01 -0.75255109756E-01  0.34370372643E-01  0.84907406697E-01  0.51100000000E-03 0. -1.
         11    1    4    4    0    0  0.13925701982E-01 -0.31870631475E-01  0.30446211365E-01  0.46226564157E-01  0.51100000000E-03 0.  1.
</event>
<event>
 8    1  0.1197213E+005  0.1043930E+01  0.7957747E-01            NaN
         13   -1    0    0    0    0  0.00000000000E+00  0.00000000000E+00  0.74505805969E-08  0.10566000000E+00  0.10566000000E+00 0. -1.
     999900   -1    0    0    0    0 -0.00000000000E+00 -0.00000000000E+00 -0.74505805969E-08  0.93827000000E+00  0.93827000000E+00 0. -1.
     999902    2    1    2    0    0 -0.13532274275E-01 -0.32317108053E-02  0.98892817424E-02  0.10268606035E+01  0.10267187224E+01 0.  0.
     999903    2    3    3    0    0  0.62119244136E-01  0.73074057572E-01  0.93881643208E-01  0.13635488245E+00  0.24088849179E-01 0.  0.
         14    1    1    2    0    0  0.13532274275E-01  0.32317108053E-02 -0.98892817424E-02  0.17069396450E-01  0.00000000000E+00 0.  1.
     999901    1    3    3    0    0 -0.75651518411E-01 -0.76305768377E-01 -0.83992361466E-01  0.89050572110E+00  0.88000000000E+00 0. -1.
        -11    1    4    4    0    0  0.62485830049E-01  0.69427718305E-01  0.83337038360E-01  0.12517991097E+00  0.51100000000E-03 0.  1.
         11    1    4    4    0    0 -0.36658591337E-03  0.36463392672E-02  0.10544604848E-01  0.11174971484E-01  0.51100000000E-03 0. -1.
</event>
<event>
 8    1  0.1197213E+005  0.1043930E+01  0.7957747E-01            NaN
         13   -1    0    0    0    0  0.00000000000E+00  0.00000000000E+00  0.74505805969E-08  0.10566000000E+00  0.10566000000E+00 0.  1.
     999900   -1    0    0    0    0 -0.00000000000E+00 -0.00000000000E+00 -0.74505805969E-08  0.93827000000E+00  0.93827000000E+00 0. -1.
     999902    2    1    2    0    0 -0.99820514267E-02  0.13270655926E-01 -0.16292161057E-01  0.10206665916E+01  0.10204014431E+01 0.  0.
     999903    2    3    3    0    0  0.10811248342E+00  0.58785074989E-01 -0.41184938214E-01  0.13126368409E+00  0.19747443144E-01 0.  0.
         14    1    1    2    0    0  0.99820514267E-02 -0.13270655926E-01  0.16292161057E-01  0.23263408419E-01  0.00000000000E+00 0.  1.
     999901    1    3    3    0    0 -0.11809453485E+00 -0.45514419063E-01  0.24892777157E-01  0.88940290749E+00  0.88000000000E+00 0. -1.
        -11    1    4    4    0    0  0.45816847978E-02 -0.10776954467E-02  0.12832038399E-03  0.47361218505E-02  0.51100000000E-03 0. -1.
         11    1    4    4    0    0  0.10353079863E+00  0.59862770436E-01 -0.41313258597E-01  0.12652756224E+00  0.51100000000E-03 0.  1.
</event>
<event>
 8    1  0.1197213E+005  0.1043930E+01  0.7957747E-01            NaN
         13   -1    0    0    0    0  0.00000000000E+00  0.00000000000E+00  0.74505805969E-08  0.10566000000E+00  0.10566000000E+00 0.  1.
     999900   -1    0    0    0    0 -0.00000000000E+00 -0.00000000000E+00 -0.74505805969E-08  0.93827000000E+00  0.93827000000E+00 0. -1.
     999902    2    1    2    0    0 -0.19659784703E-01 -0.12899020359E-02 -0.11987861604E-01  0.10208674805E+01  0.10206069434E+01 0.  0.
     999903    2    3    3    0    0 -0.44165245938E-01 -0.11736119205E+00 -0.38083947357E-01  0.13252404029E+00  0.19698118224E-01 0.  0.
         14    1    1    2    0    0  0.19659784703E-01  0.12899020359E-02  0.11987861604E-01  0.23062519543E-01  0.00000000000E+00 0.  1.
     999901    1    3    3    0    0  0.24505461235E-01  0.11607129001E+00  0.26096085754E-01  0.88834344017E+00  0.88000000000E+00 0.  1.
        -11    1    4    4    0    0 -0.28504391506E-01 -0.77985074385E-01 -0.15376001078E-01  0.84444388162E-01  0.51100000000E-03 0.  1.
         11    1    4    4    0    0 -0.15660854433E-01 -0.39376117660E-01 -0.22707946280E-01  0.48079652128E-01  0.51100000000E-03 0. -1.
</event>
<event>
 8    1  0.1197213E+005  0.1043930E+01  0.7957747E-01            NaN
         13   -1    0    0    0    0  0.00000000000E+00  0.00000000000E+00  0.74505805969E-08  0.10566000000E+00  0.10566000000E+00 0. -1.
     999900   -1    0    0    0    0 -0.00000000000E+00 -0.00000000000E+00 -0.74505805969E-08  0.93827000000E+00  0.93827000000E+00 0. -1.
     999902    2    1    2    0    0 -0.15073662273E-01 -0.12858064821E-01  0.12184086303E-01  0.10206706560E+01  0.10204056012E+01 0.  0.
     999903    2    3    3    0    0  0.21427058106E-01  0.55536195730E-01 -0.11232455424E+00  0.12853138488E+00  0.18976921779E-01 0.  0.
         14    1    1    2    0    0  0.15073662273E-01  0.12858064821E-01 -0.12184086303E-01  0.23259344021E-01  0.00000000000E+00 0.  1.
     999901    1    3    3    0    0 -0.36500720379E-01 -0.68394260551E-01  0.12450864054E+00  0.89213927110E+00  0.88000000000E+00 0.  1.
        -11    1    4    4    0    0  0.24563047605E-01  0.44210292212E-01 -0.87647271571E-01  0.10119386632E+00  0.51100000000E-03 0. -1.
         11    1    4    4    0    0 -0.31359894993E-02  0.11325903518E-01 -0.24677282664E-01  0.27337518566E-01  0.51100000000E-03 0.  1.
</event>
<event>
 8    1  0.1197213E+005  0.1043930E+01  0.7957747E-01            NaN
         13   -1    0    0    0    0  0.00000000000E+00  0.00000000000E+00  0.74505805969E-08  0.10566000000E+00  0.10566000000E+00 0.  1.
     999900   -1    0    0    0    0 -0.00000000000E+00 -0.00000000000E+00 -0.74505805969E-08  0.93827000000E+00  0.93827000000E+00 0. -1.
     999902    2    1    2    0    0  0.21285507785E-02  0.19616376378E-01  0.15645339833E-01  0.10187484669E+01  0.10184371994E+01 0.  0.
     999903    2    3    3    0    0  0.45180677346E-01  0.93754228917E-01  0.79224942313E-01  0.13229921701E+00  0.19883216346E-01 0.  0.
         14    1    1    2    0    0 -0.21285507785E-02 -0.19616376378E-01 -0.15645339833E-01  0.25181533097E-01  0.00000000000E+00 0. -1.
     999901    1    3    3    0    0 -0.43052126567E-01 -0.74137852538E-01 -0.63579602481E-01  0.88644924989E+00  0.88000000000E+00 0. -1.
        -11    1    4    4    0    0  0.16775609200E-01  0.16635355180E-01  0.14927478954E-01  0.27950793458E-01  0.51100000000E-03 0.  1.
         11    1    4    4    0    0  0.28405068145E-01  0.77118873736E-01  0.64297463360E-01  0.10434842355E+00  0.51100000000E-03 0. -1.
</event>
<event>
 8    1  0.1197213E+005  0.1043930E+01  0.7957747E-01            NaN
         13   -1    0    0    0    0  0.00000000000E+00  0.00000000000E+00  0.74505805969E-08  0.10566000000E+00  0.10566000000E+00 0. -1.
     999900   -1    0    0    0    0 -0.00000000000E+00 -0.00000000000E+00 -0.74505805969E-08  0.93827000000E+00  0.93827000000E+00 0. -1.
     999902    2    1    2    0    0 -0.14145351272E-01 -0.19826438384E-01  0.10998744432E-02  0.10195499191E+01  0.10192583819E+01 0.  0.
     999903    2    3    3    0    0  0.79781899758E-01 -0.99679171448E-01  0.20221871499E-01  0.13075048263E+00  0.19638632149E-01 0.  0.
         14    1    1    2    0    0  0.14145351272E-01  0.19826438384E-01 -0.10998744432E-02  0.24380080915E-01  0.00000000000E+00 0. -1.
     999901    1    3    3    0    0 -0.93927251030E-01  0.79852733064E-01 -0.19121997056E-01  0.88879943645E+00  0.88000000000E+00 0. -1.
        -11    1    4    4    0    0  0.32452811305E-01 -0.55799652352E-01  0.77794281631E-02  0.65019741524E-01  0.51100000000E-03 0. -1.
         11    1    4    4    0    0  0.47329088452E-01 -0.43879519096E-01  0.12442443336E-01  0.65730741111E-01  0.51100000000E-03 0.  1.
</event>
<event>
 8    1  0.1197213E+005  0.1043930E+01  0.7957747E-01            NaN
         13   -1    0    0    0    0  0.00000000000E+00  0.00000000000E+00  0.74505805969E-08  0.10566000000E+00  0.10566000000E+00 0.  1.
     999900   -1    0    0    0    0 -0.00000000000E+00 -0.00000000000E+00 -0.74505805969E-08  0.93827000000E+00  0.93827000000E+00 0. -1.
     999902    2    1    2    0    0 -0.11988363137E-01  0.91433998733E-02  0.15236598762E-01  0.10224945958E+01  0.10222698870E+01 0.  0.
     999903    2    3    3    0    0  0.97019505132E-01 -0.34878298808E-01  0.79861950413E-01  0.13232772302E+00  0.22436912703E-01 0.  0.
         14    1    1    2    0    0  0.11988363137E-01 -0.91433998733E-02 -0.15236598762E-01  0.21435404213E-01  0.00000000000E+00 0. -1.
     999901    1    3    3    0    0 -0.10900786827E+00  0.44021698681E-01 -0.64625351651E-01  0.89016687277E+00  0.88000000000E+00 0.  1.
        -11    1    4    4    0    0  0.58440908165E-01 -0.12816788093E-01  0.35698907018E-01  0.69672683940E-01  0.51100000000E-03 0.  1.
         11    1    4    4    0    0  0.38578596968E-01 -0.22061510714E-01  0.44163043395E-01  0.62655039078E-01  0.51100000000E-03 0. -1.
</event>
<event>
 8    1  0.1197213E+005  0.1043930E+01  0.7957747E-01            NaN
         13   -1    0    0    0    0  0.00000000000E+00  0.00000000000E+00  0.74505805969E-08  0.10566000000E+00  0.10566000000E+00 0.  1.
     999900   -1    0    0    0    0 -0.00000000000E+00 -0.00000000000E+00 -0.74505805969E-08  0.93827000000E+00  0.93827000000E+00 0. -1.
     999902    2    1    2    0    0  0.12089843616E-01  0.10422605314E-02 -0.20386920801E-01  0.10202049675E+01  0.10199290655E+01 0.  0.
     999903    2    3    3    0    0 -0.12418532365E+00  0.25316746697E-01  0.11154833139E-01  0.12882679070E+00  0.20223239801E-01 0.  0.
         14    1    1    2    0    0 -0.12089843616E-01 -0.10422605314E-02  0.20386920801E-01  0.23725032464E-01  0.00000000000E+00 0.  1.
     999901    1    3    3    0    0  0.13627516726E+00 -0.24274486166E-01 -0.31541753940E-01  0.89137817683E+00  0.88000000000E+00 0.  1.
        -11    1    4    4    0    0 -0.12460487803E-01  0.36027198490E-02 -0.49173399704E-02  0.13881091455E-01  0.51100000000E-03 0.  1.
         11    1    4    4    0    0 -0.11172483584E+00  0.21714026848E-01  0.16072173109E-01  0.11494569925E+00  0.51100000000E-03 0. -1.
</event>
<event>
 8    1  0.1197213E+005  0.1043930E+01  0.7957747E-01            NaN
         13   -1    0    0    0    0  0.00000000000E+00  0.00000000000E+00  0.74505805969E-08  0.10566000000E+00  0.10566000000E+00 0. -1.
     999900   -1    0    0    0    0 -0.00000000000E+00 -0.00000000000E+00 -0.74505805969E-08  0.93827000000E+00  0.93827000000E+00 0. -1.
     999902    2    1    2    0    0  0.31096925683E-02  0.18052429882E-01 -0.15196803648E-01  0.10201286712E+01  0.10198509707E+01 0.  0.
     999903    2    3    3    0    0 -0.14771263331E-01  0.81860361652E-01  0.97820443519E-01  0.13042980139E+00  0.22886347267E-01 0.  0.
         14    1    1    2    0    0 -0.31096925683E-02 -0.18052429882E-01  0.15196803648E-01  0.23801328821E-01  0.00000000000E+00 0. -1.
     999901    1    3    3    0    0  0.17880955900E-01 -0.63807931769E-01 -0.11301724717E+00  0.88969886979E+00  0.88000000000E+00 0. -1.
        -11    1    4    4    0    0 -0.14400004423E-01  0.49294113090E-01  0.44533711653E-01  0.67976336378E-01  0.51100000000E-03 0.  1.
         11    1    4    4    0    0 -0.37125890818E-03  0.32566248561E-01  0.53286731866E-01  0.62453465016E-01  0.51100000000E-03 0. -1.
</event>
<event>
 8    1  0.1197213E+005  0.1043930E+01  0.7957747E-01            NaN
         13   -1    0    0    0    0  0.00000000000E+00  0.00000000000E+00  0.74505805969E-08  0.10566000000E+00  0.10566000000E+00 0. -1.
     999900   -1    0    0    0    0 -0.00000000000E+00 -0.00000000000E+00 -0.74505805969E-08  0.93827000000E+00  0.93827000000E+00 0. -1.
     999902    2    1    2    0    0 -0.12116347600E-01 -0.20533103704E-01  0.18516819227E-02  0.10200167620E+01  0.10197364129E+01 0.  0.
     999903    2    3    3    0    0  0.99590718189E-01 -0.69098279307E-01  0.44220345022E-01  0.13061688091E+00  0.20308798878E-01 0.  0.
         14    1    1    2    0    0  0.12116347600E-01  0.20533103704E-01 -0.18516819227E-02  0.23913238024E-01  0.00000000000E+00 0. -1.
     999901    1    3    3    0    0 -0.11170706579E+00  0.48565175603E-01 -0.42368663099E-01  0.88939988107E+00  0.88000000000E+00 0. -1.
        -11    1    4    4    0    0  0.85370448937E-01 -0.65454999476E-01  0.43087853834E-01  0.11588483411E+00  0.51100000000E-03 0. -1.
         11    1    4    4    0    0  0.14220269252E-01 -0.36432798309E-02  0.11324911873E-02  0.14732046797E-01  0.51100000000E-03 0.  1.
</event>
<event>
 8    1  0.1197213E+005  0.1043930E+01  0.7957747E-01            NaN
         13   -1    0    0    0    0  0.00000000000E+00  0.00000000000E+00  0.74505805969E-08  0.10566000000E+00  0.10566000000E+00 0. -1.
     999900   -1    0    0    0    0 -0.00000000000E+00 -0.00000000000E+00 -0.74505805969E-08  0.93827000000E+00  0.93827000000E+00 0.  1.
     999902    2    1    2    0    0 -0.20990723259E-01 -0.20856968278E-02  0.95638397855E-02  0.10207690927E+01  0.10205063023E+01 0.  0.
     999903    2    3    3    0    0 -0.79249331955E-01 -0.79498316415E-01  0.69409095561E-01  0.13343137021E+00  0.19643550658E-01 0.  0.
         14    1    1    2    0    0  0.20990723259E-01  0.20856968278E-02 -0.95638397855E-02  0.23160907272E-01  0.00000000000E+00 0.  1.
     999901    1    3    3    0    0  0.58258608695E-01  0.77412619587E-01 -0.59845255775E-01  0.88733772251E+00  0.88000000000E+00 0.  1.
        -11    1    4    4    0    0 -0.30679179941E-01 -0.28137760666E-01  0.36868984994E-01  0.55610510092E-01  0.51100000000E-03 0. -1.
         11    1    4    4    0    0 -0.48570152013E-01 -0.51360555749E-01  0.32540110567E-01  0.77820860122E-01  0.51100000000E-03 0.  1.
</event>
<event>
 8    1  0.1197213E+005  0.1043930E+01  0.7957747E-01            NaN
         13   -1    0    0    0    0  0.00000000000E+00  0.00000000000E+00  0.74505805969E-08  0.10566000000E+00  0.10566000000E+00 0. -1.
     999900   -1    0    0    0    0 -0.00000000000E+00 -0.00000000000E+00 -0.74505805969E-08  0.93827000000E+00  0.93827000000E+00 0.  1.
     999902    2    1    2    0    0 -0.17234221400E-01 -0.55534044861E-02  0.15348997039E-01  0.10201928898E+01  0.10199167035E+01 0.  0.
     999903    2    3    3    0    0  0.11626540853E+00  0.18959103611E-01 -0.45548945034E-01  0.12770671426E+00  0.18899884784E-01 0.  0.
         14    1    1    2    0    0  0.17234221400E-01  0.55534044861E-02 -0.15348997039E-01  0.23737110160E-01  0.00000000000E+00 0.  1.
     999901    1    3    3    0    0 -0.13349962993E+00 -0.24512508097E-01  0.60897942072E-01  0.89248617558E+00  0.88000000000E+00 0. -1.
        -11    1    4    4    0    0  0.81629258308E-01  0.18657334648E-01 -0.39327152885E-01  0.92511177828E-01  0.51100000000E-03 0. -1.
         11    1    4    4    0    0  0.34636150220E-01  0.30176896349E-03 -0.62217921480E-02  0.35195536437E-01  0.51100000000E-03 0.  1.
</event>
<event>
 8    1  0.1197213E+005  0.1043930E+01  0.7957747E-01            NaN
         13   -1    0    0    0    0  0.00000000000E+00  0.00000000000E+00  0.74505805969E-08  0.10566000000E+00  0.10566000000E+00 0. -1.
     999900   -1    0    0    0    0 -0.00000000000E+00 -0.00000000000E+00 -0.74505805969E-08  0.93827000000E+00  0.93827000000E+00 0. -1.
     999902    2    1    2    0    0  0.13701210135E-01 -0.11987397624E-01  0.95910587523E-02  0.10233530889E+01  0.10231461945E+01 0.  0.
     999903    2    3    3    0    0 -0.12883071548E+00 -0.16191454996E-01 -0.88094361812E-02  0.13168521235E+00  0.20096579821E-01 0.  0.
         14    1    1    2    0    0 -0.13701210135E-01  0.11987397624E-01 -0.95910587523E-02  0.20576911065E-01  0.00000000000E+00 0.  1.
     999901    1    3    3    0    0  0.14253192561E+00  0.42040573724E-02  0.18400494933E-01  0.89166787658E+00  0.88000000000E+00 0. -1.
        -11    1    4    4    0    0 -0.66660856701E-01 -0.86587841792E-02 -0.14604760132E-01  0.68791020483E-01  0.51100000000E-03 0.  1.
         11    1    4    4    0    0 -0.62169858778E-01 -0.75326708173E-02  0.57953239504E-02  0.62894191868E-01  0.51100000000E-03 0. -1.
</event>
<event>
 8    1  0.1197213E+005  0.1043930E+01  0.7957747E-01            NaN
         13   -1    0    0    0    0  0.00000000000E+00  0.00000000000E+00  0.74505805969E-08  0.10566000000E+00  0.10566000000E+00 0.  1.
     999900   -1    0    0    0    0 -0.00000000000E+00 -0.00000000000E+00 -0.74505805969E-08  0.93827000000E+00  0.93827000000E+00 0. -1.
     999902    2    1    2    0    0  0.77939253288E-02  0.64752850066E-02 -0.22327219840E-01  0.10194110413E+01  0.10191161327E+01 0.  0.
     999903    2    3    3    0    0 -0.52731583581E-01 -0.11490261271E+00 -0.14638905675E-01  0.12898696178E+00  0.20978761552E-01 0.  0.
         14    1    1    2    0    0 -0.77939253288E-02 -0.64752850066E-02  0.22327219840E-01  0.24518958660E-01  0.00000000000E+00 0.  1.
     999901    1    3    3    0    0  0.60525508910E-01  0.12137789771E+00 -0.76883141655E-02  0.89042407956E+00  0.88000000000E+00 0. -1.
        -11    1    4    4    0    0 -0.34205170285E-01 -0.86229508532E-01 -0.26614223770E-02  0.92805528424E-01  0.51100000000E-03 0. -1.
         11    1    4    4    0    0 -0.18526413296E-01 -0.28673104176E-01 -0.11977483298E-01  0.36181433358E-01  0.51100000000E-03 0.  1.
</event>
<event>
 8    1  0.1197213E+005  0.1043930E+01  0.7957747E-01            NaN
         13   -1    0    0    0    0  0.00000000000E+00  0.00000000000E+00  0.74505805969E-08  0.10566000000E+00  0.10566000000E+00 0. -1.
     999900   -1    0    0    0    0 -0.00000000000E+00 -0.00000000000E+00 -0.74505805969E-08  0.93827000000E+00  0.93827000000E+00 0. -1.
     999902    2    1    2    0    0 -0.21373981650E-01 -0.20663382841E-02 -0.95788356487E-02  0.10204167923E+01  0.10201458518E+01 0.  0.
     999903    2    3    3    0    0 -0.98653402907E-01 -0.84252131633E-01  0.16766344393E-01  0.13282415930E+00  0.23026754026E-01 0.  0.
         14    1    1    2    0    0  0.21373981650E-01  0.20663382841E-02  0.95788356487E-02  0.23513207732E-01  0.00000000000E+00 0. -1.
     999901    1    3    3    0    0  0.77279421257E-01  0.82185793348E-01 -0.26345180042E-01  0.88759263296E+00  0.88000000000E+00 0.  1.
        -11    1    4    4    0    0 -0.37806860443E-01 -0.39006070876E-01  0.17244837804E-01  0.56995419234E-01  0.51100000000E-03 0.  1.
         11    1    4    4    0    0 -0.60846542464E-01 -0.45246060757E-01 -0.47849341114E-03  0.75828740071E-01  0.51100000000E-03 0. -1.
</event>
<event>
 8    1  0.1197213E+005  0.1043930E+01  0.7957747E-01            NaN
         13   -1    0    0    0    0  0.00000000000E+00  0.00000000000E+00  0.74505805969E-08  0.10566000000E+00  0.10566000000E+00 0. -1.
     999900   -1    0    0    0    0 -0.00000000000E+00 -0.00000000000E+00 -0.74505805969E-08  0.93827000000E+00  0.93827000000E+00 0. -1.
     999902    2    1    2    0    0  0.14879435071E-01 -0.64914820237E-02  0.17129143359E-01  0.10203303288E+01  0.10200573687E+01 0.  0.
     999903    2    3    3    0    0 -0.37032049697E-01  0.10037936941E+00  0.72438783989E-01  0.13062513188E+00  0.19187421568E-01 0.  0.
         14    1    1    2    0    0 -0.14879435071E-01  0.64914820237E-02 -0.17129143359E-01  0.23599671165E-01  0.00000000000E+00 0.  1.
     999901    1    3    3    0    0  0.51911484768E-01 -0.10687085143E+00 -0.55309640631E-01  0.88970519695E+00  0.88000000000E+00 0. -1.
        -11    1    4    4    0    0 -0.30388183844E-01  0.55271857877E-01  0.40645578720E-01  0.75038284769E-01  0.51100000000E-03 0. -1.
         11    1    4    4    0    0 -0.66438658534E-02  0.45107511530E-01  0.31793205270E-01  0.55586847115E-01  0.51100000000E-03 0.  1.
</event>
<event>
 8    1  0.1197213E+005  0.1043930E+01  0.7957747E-01            NaN
         13   -1    0    0    0    0  0.00000000000E+00  0.00000000000E+00  0.74505805969E-08  0.10566000000E+00  0.10566000000E+00 0. -1.
     999900   -1    0    0    0    0 -0.00000000000E+00 -0.00000000000E+00 -0.74505805969E-08  0.93827000000E+00  0.93827000000E+00 0. -1.
     999902    2    1    2    0    0  0.15653142015E-01 -0.18115963269E-01 -0.38685612338E-02  0.10196776858E+01  0.10193892329E+01 0.  0.
     999903    2    3    3    0    0 -0.95347288209E-01  0.21210605796E-01 -0.80875750440E-01  0.12849993596E+00  0.20744911795E-01 0.  0.
         14    1    1    2    0    0 -0.15653142015E-01  0.18115963269E-01  0.38685612338E-02  0.24252314243E-01  0.00000000000E+00 0. -1.
     999901    1    3    3    0    0  0.11100043022E+00 -0.39326569065E-01  0.77007189207E-01  0.89117774980E+00  0.88000000000E+00 0.  1.
        -11    1    4    4    0    0 -0.38342806292E-01  0.11142173463E-01 -0.46010012879E-01  0.60922091477E-01  0.51100000000E-03 0. -1.
         11    1    4    4    0    0 -0.57004481916E-01  0.10068432333E-01 -0.34865737562E-01  0.67577844482E-01  0.51100000000E-03 0.  1.
</event>
<event>
 8    1  0.1197213E+005  0.1043930E+01  0.7957747E-01            NaN
         13   -1    0    0    0    0  0.00000000000E+00  0.00000000000E+00  0.74505805969E-08  0.10566000000E+00  0.10566000000E+00 0. -1.
     999900   -1    0    0    0    0 -0.00000000000E+00 -0.00000000000E+00 -0.74505805969E-08  0.93827000000E+00  0.93827000000E+00 0.  1.
     999902    2    1    2    0    0 -0.18904921283E-01  0.75110698468E-02 -0.13012303711E-01  0.10197818683E+01  0.10194959179E+01 0.  0.
     999903    2    3    3    0    0 -0.94254668592E-01  0.11092836671E-01 -0.91102921378E-01  0.13310912251E+00  0.20280597515E-01 0.  0.
         14    1    1    2    0    0  0.18904921283E-01 -0.75110698468E-02  0.13012303711E-01  0.24148131746E-01  0.00000000000E+00 0.  1.
     999901    1    3    3    0    0  0.75349747309E-01 -0.35817668243E-02  0.78090617667E-01  0.88667274574E+00  0.88000000000E+00 0.  1.
        -11    1    4    4    0    0 -0.67303010888E-01 -0.12950967262E-02 -0.60988359211E-01  0.90836191193E-01  0.51100000000E-03 0. -1.
         11    1    4    4    0    0 -0.26951657704E-01  0.12387933397E-01 -0.30114562166E-01  0.42272931319E-01  0.51100000000E-03 0.  1.
</event>
<event>
 8    1  0.1197213E+005  0.1043930E+01  0.7957747E-01            NaN
         13   -1    0    0    0    0  0.00000000000E+00  0.00000000000E+00  0.74505805969E-08  0.10566000000E+00  0.10566000000E+00 0.  1.
     999900   -1    0    0    0    0 -0.00000000000E+00 -0.00000000000E+00 -0.74505805969E-08  0.93827000000E+00  0.93827000000E+00 0. -1.
     999902    2    1    2    0    0  0.76958792446E-02  0.15390102275E-01  0.15022539318E-01  0.10210879665E+01  0.10208324431E+01 0.  0.
     999903    2    3    3    0    0  0.92558237529E-01  0.14313123841E-01 -0.89253004142E-01  0.13087666089E+00  0.19766354436E-01 0.  0.
         14    1    1    2    0    0 -0.76958792446E-02 -0.15390102275E-01 -0.15022539318E-01  0.22842033468E-01  0.00000000000E+00 0. -1.
     999901    1    3    3    0    0 -0.84862358285E-01  0.10769784339E-02  0.10427554346E+00  0.89021130565E+00  0.88000000000E+00 0.  1.
        -11    1    4    4    0    0  0.52642225202E-01  0.33449687417E-03 -0.41125886091E-01  0.66805055124E-01  0.51100000000E-03 0.  1.
         11    1    4    4    0    0  0.39916012327E-01  0.13978626967E-01 -0.48127118051E-01  0.64071605762E-01  0.51100000000E-03 0. -1.
</event>
<event>
 8    1  0.1197213E+005  0.1043930E+01  0.7957747E-01            NaN
         13   -1    0    0    0    0  0.00000000000E+00  0.00000000000E+00  0.74505805969E-08  0.10566000000E+00  0.10566000000E+00 0. -1.
     999900   -1    0    0    0    0 -0.00000000000E+00 -0.00000000000E+00 -0.74505805969E-08  0.93827000000E+00  0.93827000000E+00 0. -1.
     999902    2    1    2    0    0 -0.77474885767E-02  0.14086028944E-01  0.17841816771E-01  0.10199139592E+01  0.10196311656E+01 0.  0.
     999903    2    3    3    0    0 -0.66774095571E-01  0.98891028279E-01 -0.50957215839E-01  0.13120178129E+00  0.19469315737E-01 0.  0.
         14    1    1    2    0    0  0.77474885767E-02 -0.14086028944E-01 -0.17841816771E-01  0.24016040814E-01  0.00000000000E+00 0.  1.
     999901    1    3    3    0    0  0.59026606994E-01 -0.84804999335E-01  0.68799032610E-01  0.88871217789E+00  0.88000000000E+00 0.  1.
        -11    1    4    4    0    0 -0.48307895273E-01  0.83512916066E-01 -0.36503644077E-01  0.10315443300E+00  0.51100000000E-03 0. -1.
         11    1    4    4    0    0 -0.18466200298E-01  0.15378112214E-01 -0.14453571761E-01  0.28047348295E-01  0.51100000000E-03 0.  1.
</event>
<event>
 8    1  0.1362995E+005  0.1043930E+01  0.7957747E-01            NaN
         13   -1    0    0    0    0  0.00000000000E+00  0.00000000000E+00  0.74505805969E-08  0.10566000000E+00  0.10566000000E+00 0.  1.
     999900   -1    0    0    0    0 -0.00000000000E+00 -0.00000000000E+00 -0.74505805969E-08  0.93827000000E+00  0.93827000000E+00 0. -1.
     999902    2    1    2    0    0  0.35026991868E-01 -0.90812389502E-02  0.68708724914E-02  0.10070983838E+01  0.10064246553E+01 0.  0.
     999903    2    3    3    0    0 -0.64328952611E-01  0.75194823444E-02 -0.93308410878E-01  0.11570448860E+00  0.22052491542E-01 0.  0.
         14    1    1    2    0    0 -0.35026991868E-01  0.90812389502E-02 -0.68708724914E-02  0.36831616161E-01  0.00000000000E+00 0. -1.
     999901    1    3    3    0    0  0.99355944480E-01 -0.16600721295E-01  0.10017928337E+00  0.89139389524E+00  0.88000000000E+00 0.  1.
        -11    1    4    4    0    0 -0.10742044219E-01  0.98901142003E-02 -0.16794937744E-01  0.22260658744E-01  0.51100000000E-03 0. -1.
         11    1    4    4    0    0 -0.53586908392E-01 -0.23706318559E-02 -0.76513473133E-01  0.93443829857E-01  0.51100000000E-03 0.  1.
</event>
<event>
 8    1  0.1197213E+005  0.1043930E+01  0.7957747E-01            NaN
         13   -1    0    0    0    0  0.00000000000E+00  0.00000000000E+00  0.74505805969E-08  0.10566000000E+00  0.10566000000E+00 0. -1.
     999900   -1    0    0    0    0 -0.00000000000E+00 -0.00000000000E+00 -0.74505805969E-08  0.93827000000E+00  0.93827000000E+00 0. -1.
     999902    2    1    2    0    0  0.89521664550E-02 -0.43528643156E-02  0.19107175994E-01  0.10223853281E+01  0.10221582980E+01 0.  0.
     999903    2    3    3    0    0 -0.14994156554E-02 -0.70923632405E-01  0.11276236197E+00  0.13485380947E+00  0.20923426391E-01 0.  0.
         14    1    1    2    0    0 -0.89521664550E-02  0.43528643156E-02 -0.19107175994E-01  0.21544671881E-01  0.00000000000E+00 0.  1.
     999901    1    3    3    0    0  0.10451582110E-01  0.66570768089E-01 -0.93655185973E-01  0.88753151865E+00  0.88000000000E+00 0. -1.
        -11    1    4    4    0    0 -0.60583525541E-02 -0.32353658730E-01  0.35733943388E-01  0.48586404477E-01  0.51100000000E-03 0. -1.
         11    1    4    4    0    0  0.45589368986E-02 -0.38569973675E-01  0.77028418578E-01  0.86267404995E-01  0.51100000000E-03 0.  1.
</event>
<event>
 8    1  0.1197213E+005  0.1043930E+01  0.7957747E-01            NaN
         13   -1    0    0    0    0  0.00000000000E+00  0.00000000000E+00  0.74505805969E-08  0.10566000000E+00  0.10566000000E+00 0. -1.
     999900   -1    0    0    0    0 -0.00000000000E+00 -0.00000000000E+00 -0.74505805969E-08  0.93827000000E+00  0.93827000000E+00 0.  1.
     999902    2    1    2    0    0 -0.57376831667E-02 -0.19536172768E-01  0.16827487236E-01  0.10175150917E+01  0.10171721656E+01 0.  0.
     999903    2    3    3    0    0 -0.12333450430E+00 -0.33563379559E-01 -0.72764279028E-03  0.12940814010E+00  0.20199922271E-01 0.  0.
         14    1    1    2    0    0  0.57376831667E-02  0.19536172768E-01 -0.16827487236E-01  0.26414908313E-01  0.00000000000E+00 0. -1.
     999901    1    3    3    0    0  0.11759682114E+00  0.14027206791E-01  0.17555130026E-01  0.88810695159E+00  0.88000000000E+00 0. -1.
        -11    1    4    4    0    0 -0.10493760020E+00 -0.21893566002E-01 -0.44964878909E-02  0.10729262646E+00  0.51100000000E-03 0.  1.
         11    1    4    4    0    0 -0.18396904105E-01 -0.11669813557E-01  0.37688451006E-02  0.22115513639E-01  0.51100000000E-03 0. -1.
</event>
<event>
 8    1  0.1197213E+005  0.1043930E+01  0.7957747E-01            NaN
         13   -1    0    0    0    0  0.00000000000E+00  0.00000000000E+00  0.74505805969E-08  0.10566000000E+00  0.10566000000E+00 0.  1.
     999900   -1    0    0    0    0 -0.00000000000E+00 -0.00000000000E+00 -0.74505805969E-08  0.93827000000E+00  0.93827000000E+00 0. -1.
     999902    2    1    2    0    0  0.13294750507E-01  0.18864880786E-01  0.43997299718E-02  0.10204354955E+01  0.10201649909E+01 0.  0.
     999903    2    3    3    0    0  0.53808181827E-01 -0.11431657529E+00  0.19124624904E-01  0.12937126611E+00  0.20188447182E-01 0.  0.
         14    1    1    2    0    0 -0.13294750507E-01 -0.18864880786E-01 -0.43997299718E-02  0.23494504505E-01  0.00000000000E+00 0. -1.
     999901    1    3    3    0    0 -0.40513431319E-01  0.13318145608E+00 -0.14724894932E-01  0.89106422939E+00  0.88000000000E+00 0. -1.
        -11    1    4    4    0    0  0.21501016279E-01 -0.58932639430E-01  0.10144543311E-02  0.62742648413E-01  0.51100000000E-03 0.  1.
         11    1    4    4    0    0  0.32307165548E-01 -0.55383935859E-01  0.18110170573E-01  0.66628617697E-01  0.51100000000E-03 0. -1.
</event>
<event>
 8    1  0.1197213E+005  0.1043930E+01  0.7957747E-01            NaN
         13   -1    0    0    0    0  0.00000000000E+00  0.00000000000E+00  0.74505805969E-08  0.10566000000E+00  0.10566000000E+00 0.  1.
     999900   -1    0    0    0    0 -0.00000000000E+00 -0.00000000000E+00 -0.74505805969E-08  0.93827000000E+00  0.93827000000E+00 0. -1.
     999902    2    1    2    0    0 -0.12099906724E-01  0.22600504364E-01 -0.38940669836E-04  0.10182942426E+01  0.10179714989E+01 0.  0.
     999903    2    3    3    0    0 -0.63937667395E-01  0.68838683930E-01 -0.89356779005E-01  0.13104974479E+00  0.19042372174E-01 0.  0.
         14    1    1    2    0    0  0.12099906724E-01 -0.22600504364E-01  0.38940669836E-04  0.25635757383E-01  0.00000000000E+00 0.  1.
     999901    1    3    3    0    0  0.51837760671E-01 -0.46238179565E-01  0.89317838335E-01  0.88724449783E+00  0.88000000000E+00 0.  1.
        -11    1    4    4    0    0 -0.60346518238E-01  0.68744876668E-01 -0.82008658897E-01  0.12285455460E+00  0.51100000000E-03 0.  1.
         11    1    4    4    0    0 -0.35911491572E-02  0.93807261904E-04 -0.73481201075E-02  0.81951901860E-02  0.51100000000E-03 0. -1.
</event>
<event>
 8    1  0.1197213E+005  0.1043930E+01  0.7957747E-01            NaN
         13   -1    0    0    0    0  0.00000000000E+00  0.00000000000E+00  0.74505805969E-08  0.10566000000E+00  0.10566000000E+00 0. -1.
     999900   -1    0    0    0    0 -0.00000000000E+00 -0.00000000000E+00 -0.74505805969E-08  0.93827000000E+00  0.93827000000E+00 0.  1.
     999902    2    1    2    0    0  0.22284098496E-01 -0.41520806735E-03  0.50983368503E-02  0.10210663502E+01  0.10208103374E+01 0.  0.
     999903    2    3    3    0    0  0.66450542545E-01  0.11286115115E+00 -0.68937422486E-02  0.13262613370E+00  0.19719371510E-01 0.  0.
         14    1    1    2    0    0 -0.22284098496E-01  0.41520806735E-03 -0.50983368503E-02  0.22863649800E-01  0.00000000000E+00 0.  1.
     999901    1    3    3    0    0 -0.44166444049E-01 -0.11327635922E+00  0.11992079099E-01  0.88844021650E+00  0.88000000000E+00 0. -1.
        -11    1    4    4    0    0  0.21794027855E-01  0.46154975119E-01 -0.11111671634E-01  0.52239752544E-01  0.51100000000E-03 0.  1.
         11    1    4    4    0    0  0.44656514690E-01  0.66706176036E-01  0.42179293851E-02  0.80386381153E-01  0.51100000000E-03 0. -1.
</event>
<event>
 8    1  0.1197213E+005  0.1043930E+01  0.7957747E-01            NaN
         13   -1    0    0    0    0  0.00000000000E+00  0.00000000000E+00  0.74505805969E-08  0.10566000000E+00  0.10566000000E+00 0.  1.
     999900   -1    0    0    0    0 -0.00000000000E+00 -0.00000000000E+00 -0.74505805969E-08  0.93827000000E+00  0.93827000000E+00 0. -1.
     999902    2    1    2    0    0  0.81124299846E-02 -0.49188279144E-02  0.21547290992E-01  0.10203865904E+01  0.10201149453E+01 0.  0.
     999903    2    3    3    0    0 -0.12295502091E+00  0.33648738801E-01  0.30065577280E-02  0.12965099958E+00  0.23455649931E-01 0.  0.
         14    1    1    2    0    0 -0.81124299846E-02  0.49188279144E-02 -0.21547290992E-01  0.23543409638E-01  0.00000000000E+00 0. -1.
     999901    1    3    3    0    0  0.13106745090E+00 -0.38567566716E-01  0.18540733264E-01  0.89073559078E+00  0.88000000000E+00 0.  1.
        -11    1    4    4    0    0 -0.65707229945E-01  0.29268139116E-01  0.57955967968E-02  0.72165879039E-01  0.51100000000E-03 0. -1.
         11    1    4    4    0    0 -0.57247790967E-01  0.43805996854E-02 -0.27890390688E-02  0.57485120546E-01  0.51100000000E-03 0.  1.
</event>
<event>
 8    1  0.1197213E+005  0.1043930E+01  0.7957747E-01            NaN
         13   -1    0    0    0    0  0.00000000000E+00  0.00000000000E+00  0.74505805969E-08  0.10566000000E+00  0.10566000000E+00 0.  1.
     999900   -1    0    0    0    0 -0.00000000000E+00 -0.00000000000E+00 -0.74505805969E-08  0.93827000000E+00  0.93827000000E+00 0. -1.
     999902    2    1    2    0    0 -0.60389179843E-02 -0.16173264871E-01  0.15989571530E-01  0.10203989689E+01  0.10201276128E+01 0.  0.
     999903    2    3    3    0    0 -0.10255447976E+00  0.70790800937E-01  0.34402002560E-01  0.13067034734E+00  0.19038988328E-01 0.  0.
         14    1    1    2    0    0  0.60389179843E-02  0.16173264871E-01 -0.15989571530E-01  0.23531031102E-01  0.00000000000E+00 0. -1.
     999901    1    3    3    0    0  0.96515561779E-01 -0.86964065808E-01 -0.18412431030E-01  0.88972862156E+00  0.88000000000E+00 0. -1.
        -11    1    4    4    0    0 -0.55705946411E-01  0.35229593051E-01  0.87131104059E-02  0.66486510707E-01  0.51100000000E-03 0.  1.
         11    1    4    4    0    0 -0.46848533352E-01  0.35561207887E-01  0.25688892154E-01  0.64183836631E-01  0.51100000000E-03 0. -1.
</event>
<event>
 8    1  0.1197213E+005  0.1043930E+01  0.7957747E-01            NaN
         13   -1    0    0    0    0  0.00000000000E+00  0.00000000000E+00  0.74505805969E-08  0.10566000000E+00  0.10566000000E+00 0.  1.
     999900   -1    0    0    0    0 -0.00000000000E+00 -0.00000000000E+00 -0.74505805969E-08  0.93827000000E+00  0.93827000000E+00 0.  1.
     999902    2    1    2    0    0  0.41193706361E-02  0.21156419755E-01 -0.13095656423E-01  0.10187097794E+01  0.10183975427E+01 0.  0.
     999903    2    3    3    0    0 -0.31828301707E-01 -0.54491802553E-01 -0.11120997578E+00  0.12930474883E+00  0.19226596782E-01 0.  0.
         14    1    1    2    0    0 -0.41193706361E-02 -0.21156419755E-01  0.13095656423E-01  0.25220220627E-01  0.00000000000E+00 0.  1.
     999901    1    3    3    0    0  0.35947672343E-01  0.75648222308E-01  0.98114319354E-01  0.88940503054E+00  0.88000000000E+00 0. -1.
        -11    1    4    4    0    0 -0.23957296617E-01 -0.42303699349E-01 -0.99159359205E-01  0.11043728844E+00  0.51100000000E-03 0. -1.
         11    1    4    4    0    0 -0.78710050900E-02 -0.12188103204E-01 -0.12050616572E-01  0.18867460391E-01  0.51100000000E-03 0.  1.
</event>
<event>
 8    1  0.1197213E+005  0.1043930E+01  0.7957747E-01            NaN
         13   -1    0    0    0    0  0.00000000000E+00  0.00000000000E+00  0.74505805969E-08  0.10566000000E+00  0.10566000000E+00 0. -1.
     999900   -1    0    0    0    0 -0.00000000000E+00 -0.00000000000E+00 -0.74505805969E-08  0.93827000000E+00  0.93827000000E+00 0.  1.
     999902    2    1    2    0    0  0.15400801792E-01 -0.15085310710E-01  0.12475078816E-01  0.10190225937E+01  0.10187181493E+01 0.  0.
     999903    2    3    3    0    0  0.26041529484E-02  0.23452168987E-01 -0.12391572034E+00  0.12759040807E+00  0.19168219533E-01 0.  0.
         14    1    1    2    0    0 -0.15400801792E-01  0.15085310710E-01 -0.12475078816E-01  0.24907406259E-01  0.00000000000E+00 0. -1.
     999901    1    3    3    0    0  0.12796648844E-01 -0.38537479697E-01  0.13639079916E+00  0.89143218568E+00  0.88000000000E+00 0. -1.
        -11    1    4    4    0    0 -0.77254704794E-02  0.64724690433E-02 -0.32188753675E-01  0.33733555013E-01  0.51100000000E-03 0.  1.
         11    1    4    4    0    0  0.10329623428E-01  0.16979699944E-01 -0.91726966666E-01  0.93856853053E-01  0.51100000000E-03 0. -1.
</event>
<event>
 8    1  0.1197213E+005  0.1043930E+01  0.7957747E-01            NaN
         13   -1    0    0    0    0  0.00000000000E+00  0.00000000000E+00  0.74505805969E-08  0.10566000000E+00  0.10566000000E+00 0.  1.
     999900   -1    0    0    0    0 -0.00000000000E+00 -0.00000000000E+00 -0.74505805969E-08  0.93827000000E+00  0.93827000000E+00 0. -1.
     999902    2    1    2    0    0 -0.16255058568E-01 -0.16937155292E-01 -0.39835063285E-02  0.10201190260E+01  0.10198410978E+01 0.  0.
     999903    2    3    3    0    0  0.10735144607E+00 -0.45885568089E-01 -0.53115536395E-01  0.12965255560E+00  0.18939552154E-01 0.  0.
         14    1    1    2    0    0  0.16255058568E-01  0.16937155292E-01  0.39835063285E-02  0.23810973964E-01  0.00000000000E+00 0. -1.
     999901    1    3    3    0    0 -0.12360650463E+00  0.28948412797E-01  0.49132030067E-01  0.89046647044E+00  0.88000000000E+00 0.  1.
        -11    1    4    4    0    0  0.71950315670E-01 -0.36241924624E-01 -0.28456895310E-01  0.85442267276E-01  0.51100000000E-03 0.  1.
         11    1    4    4    0    0  0.35401130396E-01 -0.96436434650E-02 -0.24658641085E-01  0.44210288325E-01  0.51100000000E-03 0. -1.
</event>
<event>
 8    1  0.1197213E+005  0.1043930E+01  0.7957747E-01            NaN
         13   -1    0    0    0    0  0.00000000000E+00  0.00000000000E+00  0.74505805969E-08  0.10566000000E+00  0.10566000000E+00 0.  1.
     999900   -1    0    0    0    0 -0.00000000000E+00 -0.00000000000E+00 -0.74505805969E-08  0.93827000000E+00  0.93827000000E+00 0. -1.
     999902    2    1    2    0    0 -0.20435427078E-02 -0.21962132198E-01  0.54709666107E-02  0.10212046223E+01  0.10209517313E+01 0.  0.
     999903    2    3    3    0    0 -0.44710331900E-01 -0.92411009760E-01 -0.82769661408E-01  0.13296484175E+00  0.17030084847E-01 0.  0.
         14    1    1    2    0    0  0.20435427078E-02  0.21962132198E-01 -0.54709666107E-02  0.22725377734E-01  0.00000000000E+00 0.  1.
     999901    1    3    3    0    0  0.42666789192E-01  0.70448877562E-01  0.88240628018E-01  0.88823978051E+00  0.88000000000E+00 0.  1.
        -11    1    4    4    0    0 -0.23818189515E-01 -0.45305033439E-01 -0.51887357823E-01  0.72886289722E-01  0.51100000000E-03 0. -1.
         11    1    4    4    0    0 -0.20892142385E-01 -0.47105976321E-01 -0.30882303585E-01  0.60078552033E-01  0.51100000000E-03 0.  1.
</event>
<event>
 7    1  0.1197213E+005  0.1043930E+01  0.7957747E-01            NaN
         13   -1    0    0    0    0  0.00000000000E+00  0.00000000000E+00  0.74505805969E-08  0.10566000000E+00  0.10566000000E+00 0.  1.
     999900   -1    0    0    0    0 -0.00000000000E+00 -0.00000000000E+00 -0.74505805969E-08  0.93827000000E+00  0.93827000000E+00 0. -1.
     999902    2    1    2    0    0  0.13195736585E-01  0.16468904356E-01  0.22316048390E-01  0.10132158617E+01  0.10127502279E+01 0.  0.
         14    1    1    2    0    0 -0.13195736585E-01 -0.16468904356E-01 -0.22316048390E-01  0.30714138283E-01  0.00000000000E+00 0. -1.
     999901    1    3    3    0    0  0.22760272335E-01 -0.89320418883E-01 -0.47464473601E-01  0.88608636344E+00  0.88000000000E+00 0. -1.
        -11    1    3    3    0    0 -0.67699598722E-02  0.66197554693E-01  0.45121509392E-01  0.80400002082E-01  0.51100000000E-03 0. -1.
         11    1    3    3    0    0 -0.27945758779E-02  0.39591768546E-01  0.24659012600E-01  0.46729496192E-01  0.51100000000E-03 0.  1.
</event>
<event>
 8    1  0.1197213E+005  0.1043930E+01  0.7957747E-01            NaN
         13   -1    0    0    0    0  0.00000000000E+00  0.00000000000E+00  0.74505805969E-08  0.10566000000E+00  0.10566000000E+00 0. -1.
     999900   -1    0    0    0    0 -0.00000000000E+00 -0.00000000000E+00 -0.74505805969E-08  0.93827000000E+00  0.93827000000E+00 0.  1.
     999902    2    1    2    0    0  0.13692614336E-02  0.32937841287E-01  0.14434999303E-01  0.10079418704E+01  0.10072991952E+01 0.  0.
     999903    2    3    3    0    0  0.26305304749E-01  0.11890555457E+00 -0.25444599934E-02  0.12323821607E+00  0.18726549582E-01 0.  0.
         14    1    1    2    0    0 -0.13692614336E-02 -0.32937841287E-01 -0.14434999303E-01  0.35988129577E-01  0.00000000000E+00 0.  1.
     999901    1    3    3    0    0 -0.24936043315E-01 -0.85967713280E-01  0.16979459297E-01  0.88470365435E+00  0.88000000000E+00 0.  1.
        -11    1    4    4    0    0  0.10973420149E-01  0.21550458050E-01 -0.47798970853E-02  0.24656575777E-01  0.51100000000E-03 0. -1.
         11    1    4    4    0    0  0.15331884600E-01  0.97355096518E-01  0.22354370919E-02  0.98581640296E-01  0.51100000000E-03 0.  1.
</event>
<event>
 8    1  0.1197213E+005  0.1043930E+01  0.7957747E-01            NaN
         13   -1    0    0    0    0  0.00000000000E+00  0.00000000000E+00  0.74505805969E-08  0.10566000000E+00  0.10566000000E+00 0. -1.
     999900   -1    0    0    0    0 -0.00000000000E+00 -0.00000000000E+00 -0.74505805969E-08  0.93827000000E+00  0.93827000000E+00 0.  1.
     999902    2    1    2    0    0  0.32019609408E-02  0.20043508014E-01  0.15028326767E-01  0.10186743992E+01  0.10183612749E+01 0.  0.
     999903    2    3    3    0    0  0.61263486733E-01 -0.10267114481E+00 -0.36698877972E-01  0.12676311968E+00  0.20676123513E-01 0.  0.
         14    1    1    2    0    0 -0.32019609408E-02 -0.20043508014E-01 -0.15028326767E-01  0.25255600820E-01  0.00000000000E+00 0.  1.
     999901    1    3    3    0    0 -0.58061525792E-01  0.12271465282E+00  0.51727204738E-01  0.89191127950E+00  0.88000000000E+00 0. -1.
        -11    1    4    4    0    0  0.36482818083E-01 -0.64507013284E-01 -0.12287766075E-01  0.75122573799E-01  0.51100000000E-03 0. -1.
         11    1    4    4    0    0  0.24780668650E-01 -0.38164131523E-01 -0.24411111897E-01  0.51640545879E-01  0.51100000000E-03 0.  1.
</event>
<event>
 8    1  0.1197213E+005  0.1043930E+01  0.7957747E-01            NaN
         13   -1    0    0    0    0  0.00000000000E+00  0.00000000000E+00  0.74505805969E-08  0.10566000000E+00  0.10566000000E+00 0. -1.
     999900   -1    0    0    0    0 -0.00000000000E+00 -0.00000000000E+00 -0.74505805969E-08  0.93827000000E+00  0.93827000000E+00 0.  1.
     999902    2    1    2    0    0 -0.96104276900E-02 -0.67864218869E-02  0.21062651613E-01  0.10198042640E+01  0.10195188502E+01 0.  0.
     999903    2    3    3    0    0 -0.59957340484E-02  0.80077029834E-01  0.10250689606E+00  0.13177752447E+00  0.20232960261E-01 0.  0.
         14    1    1    2    0    0  0.96104276900E-02  0.67864218869E-02 -0.21062651613E-01  0.24125735955E-01  0.00000000000E+00 0.  1.
     999901    1    3    3    0    0 -0.36146936416E-02 -0.86863451721E-01 -0.81444244446E-01  0.88802673958E+00  0.88000000000E+00 0.  1.
        -11    1    4    4    0    0  0.54916790101E-02  0.22881750260E-01  0.38911277191E-01  0.45476165702E-01  0.51100000000E-03 0. -1.
         11    1    4    4    0    0 -0.11487413058E-01  0.57195279574E-01  0.63595618867E-01  0.86301358764E-01  0.51100000000E-03 0.  1.
</event>
<event>
 8    1  0.1197213E+005  0.1043930E+01  0.7957747E-01            NaN
         13   -1    0    0    0    0  0.00000000000E+00  0.00000000000E+00  0.74505805969E-08  0.10566000000E+00  0.10566000000E+00 0. -1.
     999900   -1    0    0    0    0 -0.00000000000E+00 -0.00000000000E+00 -0.74505805969E-08  0.93827000000E+00  0.93827000000E+00 0. -1.
     999902    2    1    2    0    0  0.17814087992E-02 -0.22253356138E-01  0.53628653540E-02  0.10209703484E+01  0.10207121566E+01 0.  0.
     999903    2    3    3    0    0 -0.77167318732E-01  0.59072286174E-01  0.83376969701E-01  0.13027794238E+00  0.24006105868E-01 0.  0.
         14    1    1    2    0    0 -0.17814087992E-02  0.22253356138E-01 -0.53628653540E-02  0.22959651598E-01  0.00000000000E+00 0.  1.
     999901    1    3    3    0    0  0.78948727531E-01 -0.81325642312E-01 -0.78014104347E-01  0.89069240603E+00  0.88000000000E+00 0. -1.
        -11    1    4    4    0    0 -0.24887605376E-01  0.88585519275E-02  0.13838399210E-01  0.29826653471E-01  0.51100000000E-03 0.  1.
         11    1    4    4    0    0 -0.52279713356E-01  0.50213734246E-01  0.69538570491E-01  0.10045128890E+00  0.51100000000E-03 0. -1.
</event>
<event>
 8    1  0.1197213E+005  0.1043930E+01  0.7957747E-01            NaN
         13   -1    0    0    0    0  0.00000000000E+00  0.00000000000E+00  0.74505805969E-08  0.10566000000E+00  0.10566000000E+00 0. -1.
     999900   -1    0    0    0    0 -0.00000000000E+00 -0.00000000000E+00 -0.74505805969E-08  0.93827000000E+00  0.93827000000E+00 0. -1.
     999902    2    1    2    0    0 -0.21094688213E-01 -0.28184115819E-02  0.52627948853E-02  0.10220068085E+01  0.10217716429E+01 0.  0.
     999903    2    3    3    0    0 -0.94829778634E-01  0.15127670441E-01 -0.90145224149E-01  0.13360283762E+00  0.22405879895E-01 0.  0.
         14    1    1    2    0    0  0.21094688213E-01  0.28184115819E-02 -0.52627948853E-02  0.21923191480E-01  0.00000000000E+00 0.  1.
     999901    1    3    3    0    0  0.73735090420E-01 -0.17946082023E-01  0.95408019034E-01  0.88840397090E+00  0.88000000000E+00 0.  1.
        -11    1    4    4    0    0 -0.70858986216E-01  0.81060916696E-02 -0.78425794812E-01  0.10600741041E+00  0.51100000000E-03 0.  1.
         11    1    4    4    0    0 -0.23970792418E-01  0.70215787710E-02 -0.11719429337E-01  0.27595427204E-01  0.51100000000E-03 0. -1.
</event>
<event>
 8    1  0.1197213E+005  0.1043930E+01  0.7957747E-01            NaN
         13   -1    0    0    0    0  0.00000000000E+00  0.00000000000E+00  0.74505805969E-08  0.10566000000E+00  0.10566000000E+00 0.  1.
     999900   -1    0    0    0    0 -0.00000000000E+00 -0.00000000000E+00 -0.74505805969E-08  0.93827000000E+00  0.93827000000E+00 0. -1.
     999902    2    1    2    0    0 -0.17570081972E-01  0.20272829713E-01 -0.14259277785E-01  0.10135487162E+01  0.10130932719E+01 0.  0.
     999903    2    3    3    0    0 -0.19578159098E-01 -0.95098247708E-01 -0.74472723506E-01  0.12397568547E+00  0.19919914926E-01 0.  0.
         14    1    1    2    0    0  0.17570081972E-01 -0.20272829713E-01  0.14259277785E-01  0.30381283844E-01  0.00000000000E+00 0.  1.
     999901    1    3    3    0    0  0.20080771261E-02  0.11537107742E+00  0.60213445721E-01  0.88957303069E+00  0.88000000000E+00 0.  1.
        -11    1    4    4    0    0 -0.21579632552E-01 -0.80324368506E-01 -0.56173132311E-01  0.10036616278E+00  0.51100000000E-03 0.  1.
         11    1    4    4    0    0  0.20014734543E-02 -0.14773879201E-01 -0.18299591195E-01  0.23609522688E-01  0.51100000000E-03 0. -1.
</event>
<event>
 7    1  0.1197213E+005  0.1043930E+01  0.7957747E-01            NaN
         13   -1    0    0    0    0  0.00000000000E+00  0.00000000000E+00  0.74505805969E-08  0.10566000000E+00  0.10566000000E+00 0. -1.
     999900   -1    0    0    0    0 -0.00000000000E+00 -0.00000000000E+00 -0.74505805969E-08  0.93827000000E+00  0.93827000000E+00 0.  1.
     999902    2    1    2    0    0 -0.58000988512E-02 -0.12824303116E-02 -0.22886322554E-01  0.10202853487E+01  0.10200113349E+01 0.  0.
         14    1    1    2    0    0  0.58000988512E-02  0.12824303116E-02  0.22886322554E-01  0.23644651282E-01  0.00000000000E+00 0. -1.
     999901    1    3    3    0    0 -0.10617764445E+00  0.68461942011E-01 -0.66162191798E-03  0.88902259107E+00  0.88000000000E+00 0. -1.
        -11    1    3    3    0    0  0.28924523279E-01 -0.54962677557E-02 -0.19142394350E-01  0.35121637044E-01  0.51100000000E-03 0. -1.
         11    1    3    3    0    0  0.71453022316E-01 -0.64248104567E-01 -0.30823062854E-02  0.96141120607E-01  0.51100000000E-03 0.  1.
</event>
<event>
 8    1  0.1197213E+005  0.1043930E+01  0.7957747E-01            NaN
         13   -1    0    0    0    0  0.00000000000E+00  0.00000000000E+00  0.74505805969E-08  0.10566000000E+00  0.10566000000E+00 0.  1.
     999900   -1    0    0    0    0 -0.00000000000E+00 -0.00000000000E+00 -0.74505805969E-08  0.93827000000E+00  0.93827000000E+00 0.  1.
     999902    2    1    2    0    0  0.22313114848E-01 -0.71142851113E-02 -0.21221363609E-02  0.10204142264E+01  0.10201432261E+01 0.  0.
     999903    2    3    3    0    0  0.24181796162E-01  0.18731192238E-01 -0.12624622105E+00  0.13132577797E+00  0.19306341012E-01 0.  0.
         14    1    1    2    0    0 -0.22313114848E-01  0.71142851113E-02  0.21221363609E-02  0.23515773634E-01  0.00000000000E+00 0. -1.
     999901    1    3    3    0    0 -0.18686813137E-02 -0.25845477349E-01  0.12412408468E+00  0.88908844839E+00  0.88000000000E+00 0. -1.
        -11    1    4    4    0    0 -0.25024953899E-02  0.29838695220E-02 -0.28913837561E-01  0.29179394853E-01  0.51100000000E-03 0. -1.
         11    1    4    4    0    0  0.26684291552E-01  0.15747322716E-01 -0.97332383485E-01  0.10214638312E+00  0.51100000000E-03 0.  1.
</event>
<event>
 8    1  0.1197213E+005  0.1043930E+01  0.7957747E-01            NaN
         13   -1    0    0    0    0  0.00000000000E+00  0.00000000000E+00  0.74505805969E-08  0.10566000000E+00  0.10566000000E+00 0. -1.
     999900   -1    0    0    0    0 -0.00000000000E+00 -0.00000000000E+00 -0.74505805969E-08  0.93827000000E+00  0.93827000000E+00 0.  1.
     999902    2    1    2    0    0 -0.18875366346E-01  0.50072899502E-02  0.13129135277E-01  0.10203986039E+01  0.10201272393E+01 0.  0.
     999903    2    3    3    0    0 -0.26326337057E-01  0.11356242927E+00  0.59812293727E-01  0.13246896004E+00  0.19519567812E-01 0.  0.
         14    1    1    2    0    0  0.18875366346E-01 -0.50072899502E-02 -0.13129135277E-01  0.23531396059E-01  0.00000000000E+00 0.  1.
     999901    1    3    3    0    0  0.74509707112E-02 -0.10855513932E+00 -0.46683158450E-01  0.88792964390E+00  0.88000000000E+00 0.  1.
        -11    1    4    4    0    0 -0.18558361526E-01  0.60661169123E-01  0.42115051167E-01  0.76145445548E-01  0.51100000000E-03 0.  1.
         11    1    4    4    0    0 -0.77679755310E-02  0.52901260151E-01  0.17697242559E-01  0.56323514491E-01  0.51100000000E-03 0. -1.
</event>
<event>
 8    1  0.1197213E+005  0.1043930E+01  0.7957747E-01            NaN
         13   -1    0    0    0    0  0.00000000000E+00  0.00000000000E+00  0.74505805969E-08  0.10566000000E+00  0.10566000000E+00 0.  1.
     999900   -1    0    0    0    0 -0.00000000000E+00 -0.00000000000E+00 -0.74505805969E-08  0.93827000000E+00  0.93827000000E+00 0.  1.
     999902    2    1    2    0    0 -0.88216724392E-02  0.45775341826E-02  0.25621616074E-01  0.10164483164E+01  0.10160767377E+01 0.  0.
     999903    2    3    3    0    0  0.10925710208E+00  0.25962906154E-01  0.57548580833E-01  0.12773055343E+00  0.19800713959E-01 0.  0.
         14    1    1    2    0    0  0.88216724392E-02 -0.45775341826E-02 -0.25621616074E-01  0.27481683611E-01  0.00000000000E+00 0. -1.
     999901    1    3    3    0    0 -0.11807877451E+00 -0.21385371971E-01 -0.31926964758E-01  0.88871776296E+00  0.88000000000E+00 0.  1.
        -11    1    4    4    0    0  0.79098551125E-01  0.25550503318E-01  0.48491192212E-01  0.96234431744E-01  0.51100000000E-03 0.  1.
         11    1    4    4    0    0  0.30158550950E-01  0.41240283547E-03  0.90573886210E-02  0.31496121684E-01  0.51100000000E-03 0. -1.
</event>
<event>
 8    1  0.1197213E+005  0.1043930E+01  0.7957747E-01            NaN
         13   -1    0    0    0    0  0.00000000000E+00  0.00000000000E+00  0.74505805969E-08  0.10566000000E+00  0.10566000000E+00 0.  1.
     999900   -1    0    0    0    0 -0.00000000000E+00 -0.00000000000E+00 -0.74505805969E-08  0.93827000000E+00  0.93827000000E+00 0. -1.
     999902    2    1    2    0    0 -0.16748505317E-01  0.17210986043E-01 -0.76586715529E-02  0.10187231414E+01  0.10184112397E+01 0.  0.
     999903    2    3    3    0    0  0.89941698961E-01 -0.81358711798E-01  0.27771910654E-01  0.12611230168E+00  0.20598165342E-01 0.  0.
         14    1    1    2    0    0  0.16748505317E-01 -0.17210986043E-01  0.76586715529E-02  0.25206858608E-01  0.00000000000E+00 0.  1.
     999901    1    3    3    0    0 -0.10669020428E+00  0.98569697841E-01 -0.35430582207E-01  0.89261083972E+00  0.88000000000E+00 0. -1.
        -11    1    4    4    0    0  0.56291947267E-01 -0.63632141751E-01  0.18124621024E-01  0.86871144802E-01  0.51100000000E-03 0.  1.
         11    1    4    4    0    0  0.33649751694E-01 -0.17726570048E-01  0.96472896294E-02  0.39241156875E-01  0.51100000000E-03 0. -1.
</event>
<event>
 8    1  0.1197213E+005  0.1043930E+01  0.7957747E-01            NaN
         13   -1    0    0    0    0  0.00000000000E+00  0.00000000000E+00  0.74505805969E-08  0.10566000000E+00  0.10566000000E+00 0.  1.
     999900   -1    0    0    0    0 -0.00000000000E+00 -0.00000000000E+00 -0.74505805969E-08  0.93827000000E+00  0.93827000000E+00 0. -1.
     999902    2    1    2    0    0  0.22740991922E-01 -0.85842487820E-03  0.44090262282E-02  0.10207496394E+01  0.10204864022E+01 0.  0.
     999903    2    3    3    0    0  0.32928309403E-01  0.70940033843E-01  0.10456922493E+00  0.13210411638E+00  0.20000320055E-01 0.  0.
         14    1    1    2    0    0 -0.22740991922E-01  0.85842487820E-03 -0.44090262282E-02  0.23180360634E-01  0.00000000000E+00 0. -1.
     999901    1    3    3    0    0 -0.10187317481E-01 -0.71798458721E-01 -0.10016019870E+00  0.88864552298E+00  0.88000000000E+00 0. -1.
        -11    1    4    4    0    0  0.82101546182E-02  0.23290577894E-01  0.19310352964E-01  0.31352966527E-01  0.51100000000E-03 0.  1.
         11    1    4    4    0    0  0.24718154785E-01  0.47649455949E-01  0.85258871962E-01  0.10075114986E+00  0.51100000000E-03 0. -1.
</event>
<event>
 8    1  0.1197213E+005  0.1043930E+01  0.7957747E-01            NaN
         13   -1    0    0    0    0  0.00000000000E+00  0.00000000000E+00  0.74505805969E-08  0.10566000000E+00  0.10566000000E+00 0.  1.
     999900   -1    0    0    0    0 -0.00000000000E+00 -0.00000000000E+00 -0.74505805969E-08  0.93827000000E+00  0.93827000000E+00 0. -1.
     999902    2    1    2    0    0  0.15358084814E-01 -0.17191515693E-01  0.39198431453E-02  0.10205465838E+01  0.10202786608E+01 0.  0.
     999903    2    3    3    0    0  0.37289753216E-01 -0.10673129341E+00  0.67805475213E-01  0.13342779593E+00  0.20574245340E-01 0.  0.
         14    1    1    2    0    0 -0.15358084814E-01  0.17191515693E-01 -0.39198431453E-02  0.23383416159E-01  0.00000000000E+00 0. -1.
     999901    1    3    3    0    0 -0.21931668401E-01  0.89539777717E-01 -0.63885632067E-01  0.88711878791E+00  0.88000000000E+00 0.  1.
        -11    1    4    4    0    0  0.68811266071E-03 -0.26502209235E-01  0.19171326810E-01  0.32720658399E-01  0.51100000000E-03 0. -1.
         11    1    4    4    0    0  0.36601640555E-01 -0.80229084175E-01  0.48634148402E-01  0.10070713754E+00  0.51100000000E-03 0.  1.
</event>
<event>
 8    1  0.1197213E+005  0.1043930E+01  0.7957747E-01            NaN
         13   -1    0    0    0    0  0.00000000000E+00  0.00000000000E+00  0.74505805969E-08  0.10566000000E+00  0.10566000000E+00 0.  1.
     999900   -1    0    0    0    0 -0.00000000000E+00 -0.00000000000E+00 -0.74505805969E-08  0.93827000000E+00  0.93827000000E+00 0.  1.
     999902    2    1    2    0    0 -0.46693574824E-02  0.18662787678E-02  0.23465882583E-01  0.10199313846E+01  0.10196490062E+01 0.  0.
     999903    2    3    3    0    0 -0.68125591082E-01 -0.10589652290E+00 -0.24626334883E-01  0.12978961140E+00  0.19588699192E-01 0.  0.
         14    1    1    2    0    0  0.46693574824E-02 -0.18662787678E-02 -0.23465882583E-01  0.23998615400E-01  0.00000000000E+00 0. -1.
     999901    1    3    3    0    0  0.63456233599E-01  0.10776280167E+00  0.48092217466E-01  0.89014177320E+00  0.88000000000E+00 0.  1.
        -11    1    4    4    0    0 -0.42432629083E-01 -0.51768870303E-01 -0.19136244744E-01  0.69620405969E-01  0.51100000000E-03 0.  1.
         11    1    4    4    0    0 -0.25692961998E-01 -0.54127652598E-01 -0.54900901390E-02  0.60169205436E-01  0.51100000000E-03 0. -1.
</event>
<event>
 8    1  0.1197213E+005  0.1043930E+01  0.7957747E-01            NaN
         13   -1    0    0    0    0  0.00000000000E+00  0.00000000000E+00  0.74505805969E-08  0.10566000000E+00  0.10566000000E+00 0. -1.
     999900   -1    0    0    0    0 -0.00000000000E+00 -0.00000000000E+00 -0.74505805969E-08  0.93827000000E+00  0.93827000000E+00 0. -1.
     999902    2    1    2    0    0  0.28904013102E-02  0.15392220465E-01  0.18773048070E-01  0.10194820511E+01  0.10191888688E+01 0.  0.
     999903    2    3    3    0    0  0.55311546630E-01 -0.46008287713E-01  0.10809378290E+00  0.13128376664E+00  0.19365736555E-01 0.  0.
         14    1    1    2    0    0 -0.28904013102E-02 -0.15392220465E-01 -0.18773048070E-01  0.24447948879E-01  0.00000000000E+00 0.  1.
     999901    1    3    3    0    0 -0.52421145320E-01  0.61400508178E-01 -0.89320734833E-01  0.88819828448E+00  0.88000000000E+00 0.  1.
        -11    1    4    4    0    0  0.12658880379E-01 -0.19235710809E-01  0.45027614998E-01  0.50576744223E-01  0.51100000000E-03 0. -1.
         11    1    4    4    0    0  0.42652666251E-01 -0.26772576904E-01  0.63066167905E-01  0.80707022418E-01  0.51100000000E-03 0.  1.
</event>
<event>
 8    1  0.1197213E+005  0.1043930E+01  0.7957747E-01            NaN
         13   -1    0    0    0    0  0.00000000000E+00  0.00000000000E+00  0.74505805969E-08  0.10566000000E+00  0.10566000000E+00 0. -1.
     999900   -1    0    0    0    0 -0.00000000000E+00 -0.00000000000E+00 -0.74505805969E-08  0.93827000000E+00  0.93827000000E+00 0.  1.
     999902    2    1    2    0    0 -0.50898460001E-02  0.13249870981E-01  0.18832797282E-01  0.10203473821E+01  0.10200748209E+01 0.  0.
     999903    2    3    3    0    0 -0.18185331722E-01 -0.57643961435E-01 -0.11128718863E+00  0.12786285117E+00  0.17622082117E-01 0.  0.
         14    1    1    2    0    0  0.50898460001E-02 -0.13249870981E-01 -0.18832797282E-01  0.23582617895E-01  0.00000000000E+00 0.  1.
     999901    1    3    3    0    0  0.13095485722E-01  0.70893832416E-01  0.13011998591E+00  0.89248453093E+00  0.88000000000E+00 0. -1.
        -11    1    4    4    0    0 -0.12824834638E-01 -0.19765495764E-01 -0.31145349790E-01  0.39056947408E-01  0.51100000000E-03 0. -1.
         11    1    4    4    0    0 -0.53604970843E-02 -0.37878465671E-01 -0.80141838835E-01  0.88805903765E-01  0.51100000000E-03 0.  1.
</event>
<event>
 8    1  0.1197213E+005  0.1043930E+01  0.7957747E-01            NaN
         13   -1    0    0    0    0  0.00000000000E+00  0.00000000000E+00  0.74505805969E-08  0.10566000000E+00  0.10566000000E+00 0.  1.
     999900   -1    0    0    0    0 -0.00000000000E+00 -0.00000000000E+00 -0.74505805969E-08  0.93827000000E+00  0.93827000000E+00 0.  1.
     999902    2    1    2    0    0  0.21406459210E-02  0.10366762035E-01  0.20875927115E-01  0.10205236664E+01  0.10202552118E+01 0.  0.
     999903    2    3    3    0    0  0.82847021317E-01  0.59283768713E-01 -0.78289418900E-01  0.12993949944E+00  0.19412527644E-01 0.  0.
         14    1    1    2    0    0 -0.21406459210E-02 -0.10366762035E-01 -0.20875927115E-01  0.23406333608E-01  0.00000000000E+00 0. -1.
     999901    1    3    3    0    0 -0.80706375396E-01 -0.48917006678E-01  0.99165346016E-01  0.89058416695E+00  0.88000000000E+00 0.  1.
        -11    1    4    4    0    0  0.38404384357E-01  0.23442805873E-01 -0.45986139249E-01  0.64338542174E-01  0.51100000000E-03 0.  1.
         11    1    4    4    0    0  0.44442636959E-01  0.35840962840E-01 -0.32303279652E-01  0.65600957268E-01  0.51100000000E-03 0. -1.
</event>
<event>
 8    1  0.1197213E+005  0.1043930E+01  0.7957747E-01            NaN
         13   -1    0    0    0    0  0.00000000000E+00  0.00000000000E+00  0.74505805969E-08  0.10566000000E+00  0.10566000000E+00 0. -1.
     999900   -1    0    0    0    0 -0.00000000000E+00 -0.00000000000E+00 -0.74505805969E-08  0.93827000000E+00  0.93827000000E+00 0. -1.
     999902    2    1    2    0    0 -0.23320852518E-01  0.18522271489E-03  0.59094788516E-02  0.10198713548E+01  0.10195875450E+01 0.  0.
     999903    2    3    3    0    0  0.53341460150E-01 -0.92951025927E-01 -0.68156949829E-01  0.12855922827E+00  0.19922368652E-01 0.  0.
         14    1    1    2    0    0  0.23320852518E-01 -0.18522271489E-03 -0.59094788516E-02  0.24058645222E-01  0.00000000000E+00 0.  1.
     999901    1    3    3    0    0 -0.76662312668E-01  0.93136248642E-01  0.74066428681E-01  0.89131212650E+00  0.88000000000E+00 0.  1.
        -11    1    4    4    0    0  0.21692091607E-01 -0.50594936377E-01 -0.43761796481E-01  0.70326029161E-01  0.51100000000E-03 0. -1.
         11    1    4    4    0    0  0.31649368543E-01 -0.42356089549E-01 -0.24395153348E-01  0.58233199113E-01  0.51100000000E-03 0.  1.
</event>
<event>
 8    1  0.1197213E+005  0.1043930E+01  0.7957747E-01            NaN
         13   -1    0    0    0    0  0.00000000000E+00  0.00000000000E+00  0.74505805969E-08  0.10566000000E+00  0.10566000000E+00 0.  1.
     999900   -1    0    0    0    0 -0.00000000000E+00 -0.00000000000E+00 -0.74505805969E-08  0.93827000000E+00  0.93827000000E+00 0. -1.
     999902    2    1    2    0    0 -0.51284712173E-02 -0.83400307711E-02 -0.21888969375E-01  0.10199511695E+01  0.10196692620E+01 0.  0.
     999903    2    3    3    0    0 -0.12313441027E+00 -0.36910419720E-01  0.14164451347E-01  0.13088338926E+00  0.20133748408E-01 0.  0.
         14    1    1    2    0    0  0.51284712173E-02  0.83400307711E-02  0.21888969375E-01  0.23978830467E-01  0.00000000000E+00 0. -1.
     999901    1    3    3    0    0  0.11800593905E+00  0.28570388949E-01 -0.36053420722E-01  0.88906778027E+00  0.88000000000E+00 0. -1.
        -11    1    4    4    0    0 -0.88604836254E-01 -0.32343454010E-01  0.17338067719E-01  0.95905087134E-01  0.51100000000E-03 0.  1.
         11    1    4    4    0    0 -0.34529574018E-01 -0.45669657096E-02 -0.31736163722E-02  0.34978302124E-01  0.51100000000E-03 0. -1.
</event>
<event>
 8    1  0.1197213E+005  0.1043930E+01  0.7957747E-01            NaN
         13   -1    0    0    0    0  0.00000000000E+00  0.00000000000E+00  0.74505805969E-08  0.10566000000E+00  0.10566000000E+00 0.  1.
     999900   -1    0    0    0    0 -0.00000000000E+00 -0.00000000000E+00 -0.74505805969E-08  0.93827000000E+00  0.93827000000E+00 0.  1.
     999902    2    1    2    0    0 -0.17093399646E-01 -0.21379912776E-02 -0.15961107628E-01  0.10204457015E+01  0.10201754347E+01 0.  0.
     999903    2    3    3    0    0  0.11730484814E-01 -0.53997171223E-01 -0.11880253990E+00  0.13247241868E+00  0.19534570591E-01 0.  0.
         14    1    1    2    0    0  0.17093399646E-01  0.21379912776E-02  0.15961107628E-01  0.23484298476E-01  0.00000000000E+00 0.  1.
     999901    1    3    3    0    0 -0.28823884460E-01  0.51859179945E-01  0.10284143228E+00  0.88797328285E+00  0.88000000000E+00 0. -1.
        -11    1    4    4    0    0  0.17880658753E-02 -0.19364664677E-01 -0.23040518354E-01  0.30154834183E-01  0.51100000000E-03 0. -1.
         11    1    4    4    0    0  0.99424189388E-02 -0.34632506546E-01 -0.95762021550E-01  0.10231758449E+00  0.51100000000E-03 0.  1.
</event>
<event>
 8    1  0.1197213E+005  0.1043930E+01  0.7957747E-01            NaN
         13   -1    0    0    0    0  0.00000000000E+00  0.00000000000E+00  0.74505805969E-08  0.10566000000E+00  0.10566000000E+00 0. -1.
     999900   -1    0    0    0    0 -0.00000000000E+00 -0.00000000000E+00 -0.74505805969E-08  0.93827000000E+00  0.93827000000E+00 0.  1.
     999902    2    1    2    0    0  0.14389423524E-03  0.11684247196E-01 -0.21635775606E-01  0.10193403858E+01  0.10190437543E+01 0.  0.
     999903    2    3    3    0    0  0.10969850211E+00  0.85536172757E-02 -0.68779040618E-01  0.13128942988E+00  0.19985800885E-01 0.  0.
         14    1    1    2    0    0 -0.14389423524E-03 -0.11684247196E-01  0.21635775606E-01  0.24589614153E-01  0.00000000000E+00 0. -1.
     999901    1    3    3    0    0 -0.10955460788E+00  0.31306299203E-02  0.47143265012E-01  0.88805095596E+00  0.88000000000E+00 0. -1.
        -11    1    4    4    0    0  0.44338366753E-01 -0.62587782448E-02 -0.26026760382E-01  0.51794946167E-01  0.51100000000E-03 0. -1.
         11    1    4    4    0    0  0.65360135359E-01  0.14812395521E-01 -0.42752280236E-01  0.79494483718E-01  0.51100000000E-03 0.  1.
</event>
<event>
 8    1  0.1197213E+005  0.1043930E+01  0.7957747E-01            NaN
         13   -1    0    0    0    0  0.00000000000E+00  0.00000000000E+00  0.74505805969E-08  0.10566000000E+00  0.10566000000E+00 0. -1.
     999900   -1    0    0    0    0 -0.00000000000E+00 -0.00000000000E+00 -0.74505805969E-08  0.93827000000E+00  0.93827000000E+00 0.  1.
     999902    2    1    2    0    0 -0.43042764200E-02 -0.18675860402E-01 -0.12265503882E-01  0.10211757225E+01  0.10209221808E+01 0.  0.
     999903    2    3    3    0    0 -0.43339978915E-01  0.10646888651E+00  0.54756541384E-01  0.12894427930E+00  0.20356099190E-01 0.  0.
         14    1    1    2    0    0  0.43042764200E-02  0.18675860402E-01  0.12265503882E-01  0.22754277460E-01  0.00000000000E+00 0. -1.
     999901    1    3    3    0    0  0.39035702495E-01 -0.12514474691E+00 -0.67022045266E-01  0.89223144324E+00  0.88000000000E+00 0.  1.
        -11    1    4    4    0    0 -0.11585093588E-01  0.40237034667E-01  0.29690444436E-01  0.51332416308E-01  0.51100000000E-03 0.  1.
         11    1    4    4    0    0 -0.31754885327E-01  0.66231851841E-01  0.25066096948E-01  0.77611862996E-01  0.51100000000E-03 0. -1.
</event>
<event>
 8    1  0.1197213E+005  0.1043930E+01  0.7957747E-01            NaN
         13   -1    0    0    0    0  0.00000000000E+00  0.00000000000E+00  0.74505805969E-08  0.10566000000E+00  0.10566000000E+00 0. -1.
     999900   -1    0    0    0    0 -0.00000000000E+00 -0.00000000000E+00 -0.74505805969E-08  0.93827000000E+00  0.93827000000E+00 0. -1.
     999902    2    1    2    0    0  0.19037101554E-01  0.98173597234E-02 -0.79908408633E-02  0.10210685625E+01  0.10208125998E+01 0.  0.
     999903    2    3    3    0    0 -0.91074045800E-01  0.87037031383E-01 -0.28311257582E-01  0.13061909070E+00  0.19745705856E-01 0.  0.
         14    1    1    2    0    0 -0.19037101554E-01 -0.98173597234E-02  0.79908408633E-02  0.22861437514E-01  0.00000000000E+00 0. -1.
     999901    1    3    3    0    0  0.11011114735E+00 -0.77219671660E-01  0.20320416719E-01  0.89044947178E+00  0.88000000000E+00 0.  1.
        -11    1    4    4    0    0 -0.32841419204E-01  0.42610475412E-01 -0.64833623412E-02  0.54189542703E-01  0.51100000000E-03 0.  1.
         11    1    4    4    0    0 -0.58232626596E-01  0.44426555971E-01 -0.21827895241E-01  0.76429547999E-01  0.51100000000E-03 0. -1.
</event>
<event>
 8    1  0.1197213E+005  0.1043930E+01  0.7957747E-01            NaN
         13   -1    0    0    0    0  0.00000000000E+00  0.00000000000E+00  0.74505805969E-08  0.10566000000E+00  0.10566000000E+00 0.  1.
     999900   -1    0    0    0    0 -0.00000000000E+00 -0.00000000000E+00 -0.74505805969E-08  0.93827000000E+00  0.93827000000E+00 0. -1.
     999902    2    1    2    0    0  0.85817133420E-02 -0.18211734260E-01 -0.85561421886E-02  0.10220548854E+01  0.10218207613E+01 0.  0.
     999903    2    3    3    0    0 -0.95614875870E-01  0.24943479550E-01 -0.85021511376E-01  0.13156835865E+00  0.17809939383E-01 0.  0.
         14    1    1    2    0    0 -0.85817133420E-02  0.18211734260E-01  0.85561421886E-02  0.21875114578E-01  0.00000000000E+00 0.  1.
     999901    1    3    3    0    0  0.10419658921E+00 -0.43155213811E-01  0.76465369187E-01  0.89048652677E+00  0.88000000000E+00 0. -1.
        -11    1    4    4    0    0 -0.43193284392E-01  0.22533077953E-02 -0.38185028525E-01  0.57698307921E-01  0.51100000000E-03 0. -1.
         11    1    4    4    0    0 -0.52421591478E-01  0.22690171755E-01 -0.46836482851E-01  0.73870050726E-01  0.51100000000E-03 0.  1.
</event>
<event>
 8    1  0.1197213E+005  0.1043930E+01  0.7957747E-01            NaN
         13   -1    0    0    0    0  0.00000000000E+00  0.00000000000E+00  0.74505805969E-08  0.10566000000E+00  0.10566000000E+00 0.  1.
     999900   -1    0    0    0    0 -0.00000000000E+00 -0.00000000000E+00 -0.74505805969E-08  0.93827000000E+00  0.93827000000E+00 0.  1.
     999902    2    1    2    0    0 -0.14540705534E-01  0.57345522708E-02  0.20152320410E-01  0.10184264076E+01  0.10181070251E+01 0.  0.
     999903    2    3    3    0    0  0.43831435514E-03  0.11349667584E+00 -0.55834501443E-01  0.12847638462E+00  0.22516711734E-01 0.  0.
         14    1    1    2    0    0  0.14540705534E-01 -0.57345522708E-02 -0.20152320410E-01  0.25503592395E-01  0.00000000000E+00 0. -1.
     999901    1    3    3    0    0 -0.14979019889E-01 -0.10776212357E+00  0.75986821852E-01  0.88995002298E+00  0.88000000000E+00 0. -1.
        -11    1    4    4    0    0  0.61204026104E-02  0.35715876427E-01 -0.84226087735E-02  0.37205975549E-01  0.51100000000E-03 0.  1.
         11    1    4    4    0    0 -0.56820882553E-02  0.77780799415E-01 -0.47411892669E-01  0.91270409072E-01  0.51100000000E-03 0. -1.
</event>
<event>
 8    1  0.1197213E+005  0.1043930E+01  0.7957747E-01            NaN
         13   -1    0    0    0    0  0.00000000000E+00  0.00000000000E+00  0.74505805969E-08  0.10566000000E+00  0.10566000000E+00 0.  1.
     999900   -1    0    0    0    0 -0.00000000000E+00 -0.00000000000E+00 -0.74505805969E-08  0.93827000000E+00  0.93827000000E+00 0. -1.
     999902    2    1    2    0    0  0.17881032328E-01 -0.15982883701E-01  0.41000984276E-02  0.10195990589E+01  0.10193087100E+01 0.  0.
     999903    2    3    3    0    0 -0.11879318093E+00 -0.39683253945E-01 -0.20957114126E-01  0.12838112144E+00  0.18866139809E-01 0.  0.
         14    1    1    2    0    0 -0.17881032328E-01  0.15982883701E-01 -0.41000984276E-02  0.24330941117E-01  0.00000000000E+00 0. -1.
     999901    1    3    3    0    0  0.13667421326E+00  0.23700370244E-01  0.25057212553E-01  0.89121793744E+00  0.88000000000E+00 0. -1.
        -11    1    4    4    0    0 -0.28182069913E-01 -0.17996485301E-01 -0.70555441961E-02  0.34178127109E-01  0.51100000000E-03 0. -1.
         11    1    4    4    0    0 -0.90611111015E-01 -0.21686768643E-01 -0.13901569929E-01  0.94202994331E-01  0.51100000000E-03 0.  1.
</event>
<event>
 8    1  0.1197213E+005  0.1043930E+01  0.7957747E-01            NaN
         13   -1    0    0    0    0  0.00000000000E+00  0.00000000000E+00  0.74505805969E-08  0.10566000000E+00  0.10566000000E+00 0. -1.
     999900   -1    0    0    0    0 -0.00000000000E+00 -0.00000000000E+00 -0.74505805969E-08  0.93827000000E+00  0.93827000000E+00 0.  1.
     999902    2    1    2    0    0 -0.35759324402E-03 -0.13218219249E-01  0.19451067538E-01  0.10204099400E+01  0.10201388398E+01 0.  0.
     999903    2    3    3    0    0  0.48972318397E-01  0.81570206825E-01 -0.83189268402E-01  0.12802363104E+00  0.20435486686E-01 0.  0.
         14    1    1    2    0    0  0.35759324402E-03  0.13218219249E-01 -0.19451067538E-01  0.23520059979E-01  0.00000000000E+00 0.  1.
     999901    1    3    3    0    0 -0.49329911641E-01 -0.94788426074E-01  0.10264033594E+00  0.89238630898E+00  0.88000000000E+00 0. -1.
        -11    1    4    4    0    0  0.65696110083E-02  0.62267720302E-02 -0.17172392780E-02  0.92272699350E-02  0.51100000000E-03 0. -1.
         11    1    4    4    0    0  0.42402707389E-01  0.75343434795E-01 -0.81472029124E-01  0.11879636110E+00  0.51100000000E-03 0.  1.
</event>
<event>
 8    1  0.1197213E+005  0.1043930E+01  0.7957747E-01            NaN
         13   -1    0    0    0    0  0.00000000000E+00  0.00000000000E+00  0.74505805969E-08  0.10566000000E+00  0.10566000000E+00 0. -1.
     999900   -1    0    0    0    0 -0.00000000000E+00 -0.00000000000E+00 -0.74505805969E-08  0.93827000000E+00  0.93827000000E+00 0. -1.
     999902    2    1    2    0    0 -0.17945590246E-01  0.15068152495E-02 -0.14661060467E-01  0.10207079976E+01  0.10204438029E+01 0.  0.
     999903    2    3    3    0    0  0.24603054303E-01 -0.43237491239E-01  0.11710558402E+00  0.12875794927E+00  0.19750968607E-01 0.  0.
         14    1    1    2    0    0  0.17945590246E-01 -0.15068152495E-02  0.14661060467E-01  0.23222002401E-01  0.00000000000E+00 0. -1.
     999901    1    3    3    0    0 -0.42548644549E-01  0.44744306489E-01 -0.13176664449E+00  0.89195004833E+00  0.88000000000E+00 0. -1.
        -11    1    4    4    0    0 -0.17281143083E-02 -0.12418770289E-01  0.21184555233E-01  0.24622321905E-01  0.51100000000E-03 0. -1.
         11    1    4    4    0    0  0.26331168611E-01 -0.30818720950E-01  0.95921028790E-01  0.10413562736E+00  0.51100000000E-03 0.  1.
</event>
<event>
 8    1  0.1197213E+005  0.1043930E+01  0.7957747E-01            NaN
         13   -1    0    0    0    0  0.00000000000E+00  0.00000000000E+00  0.74505805969E-08  0.10566000000E+00  0.10566000000E+00 0.  1.
     999900   -1    0    0    0    0 -0.00000000000E+00 -0.00000000000E+00 -0.74505805969E-08  0.93827000000E+00  0.93827000000E+00 0. -1.
     999902    2    1    2    0    0 -0.47405523161E-02 -0.21688695220E-01  0.78651027054E-02  0.10203772469E+01  0.10201053837E+01 0.  0.
     999903    2    3    3    0    0 -0.81694844661E-01  0.37572222116E-01  0.93400203647E-01  0.13091107392E+00  0.18121581472E-01 0.  0.
         14    1    1    2    0    0  0.47405523161E-02  0.21688695220E-01 -0.78651027054E-02  0.23552753070E-01  0.00000000000E+00 0. -1.
     999901    1    3    3    0    0  0.76954292345E-01 -0.59260917336E-01 -0.85535100941E-01  0.88946617301E+00  0.88000000000E+00 0. -1.
        -11    1    4    4    0    0 -0.55778372110E-01  0.17693286226E-01  0.66604210337E-01  0.88660369547E-01  0.51100000000E-03 0. -1.
         11    1    4    4    0    0 -0.25916472552E-01  0.19878935890E-01  0.26795993310E-01  0.42250704374E-01  0.51100000000E-03 0.  1.
</event>
<event>
 8    1  0.1197213E+005  0.1043930E+01  0.7957747E-01            NaN
         13   -1    0    0    0    0  0.00000000000E+00  0.00000000000E+00  0.74505805969E-08  0.10566000000E+00  0.10566000000E+00 0. -1.
     999900   -1    0    0    0    0 -0.00000000000E+00 -0.00000000000E+00 -0.74505805969E-08  0.93827000000E+00  0.93827000000E+00 0.  1.
     999902    2    1    2    0    0  0.53010159116E-03 -0.38228563105E-02  0.23246908015E-01  0.10203648993E+01  0.10200927476E+01 0.  0.
     999903    2    3    3    0    0  0.96272476564E-01 -0.34332716884E-01 -0.76076144356E-01  0.12909472552E+00  0.20754354371E-01 0.  0.
         14    1    1    2    0    0 -0.53010159116E-03  0.38228563105E-02 -0.23246908015E-01  0.23565100686E-01  0.00000000000E+00 0.  1.
     999901    1    3    3    0    0 -0.95742374973E-01  0.30509860574E-01  0.99323052371E-01  0.89127017379E+00  0.88000000000E+00 0.  1.
        -11    1    4    4    0    0  0.49021114896E-01 -0.17044727857E-01 -0.51421913224E-01  0.73062074526E-01  0.51100000000E-03 0.  1.
         11    1    4    4    0    0  0.47251361668E-01 -0.17287989027E-01 -0.24654231132E-01  0.56032650997E-01  0.51100000000E-03 0. -1.
</event>
<event>
 8    1  0.1197213E+005  0.1043930E+01  0.7957747E-01            NaN
         13   -1    0    0    0    0  0.00000000000E+00  0.00000000000E+00  0.74505805969E-08  0.10566000000E+00  0.10566000000E+00 0.  1.
     999900   -1    0    0    0    0 -0.00000000000E+00 -0.00000000000E+00 -0.74505805969E-08  0.93827000000E+00  0.93827000000E+00 0.  1.
     999902    2    1    2    0    0 -0.16442396527E-02  0.25781549621E-01 -0.15177074375E-02  0.10180515290E+01  0.10177225656E+01 0.  0.
     999903    2    3    3    0    0 -0.48017012516E-01  0.20425513437E-01 -0.11638700936E+00  0.12935918758E+00  0.21564516553E-01 0.  0.
         14    1    1    2    0    0  0.16442396527E-02 -0.25781549621E-01  0.15177074375E-02  0.25878470990E-01  0.00000000000E+00 0. -1.
     999901    1    3    3    0    0  0.46372772863E-01  0.53560361845E-02  0.11486930192E+00  0.88869234143E+00  0.88000000000E+00 0. -1.
        -11    1    4    4    0    0 -0.14966720645E-01 -0.37843712481E-02 -0.34155827618E-01  0.37486075734E-01  0.51100000000E-03 0.  1.
         11    1    4    4    0    0 -0.33050291870E-01  0.24209884685E-01 -0.82231181742E-01  0.91873111849E-01  0.51100000000E-03 0. -1.
</event>
<event>
 8    1  0.1197213E+005  0.1043930E+01  0.7957747E-01            NaN
         13   -1    0    0    0    0  0.00000000000E+00  0.00000000000E+00  0.74505805969E-08  0.10566000000E+00  0.10566000000E+00 0. -1.
     999900   -1    0    0    0    0 -0.00000000000E+00 -0.00000000000E+00 -0.74505805969E-08  0.93827000000E+00  0.93827000000E+00 0. -1.
     999902    2    1    2    0    0  0.48152984582E-02 -0.22474641261E-01 -0.26083974609E-02  0.10207977641E+01  0.10205356314E+01 0.  0.
     999903    2    3    3    0    0  0.78085587810E-01  0.65500119703E-01  0.77734846446E-01  0.12975167626E+00  0.20128746497E-01 0.  0.
         14    1    1    2    0    0 -0.48152984582E-02  0.22474641261E-01  0.26083974609E-02  0.23132235870E-01  0.00000000000E+00 0. -1.
     999901    1    3    3    0    0 -0.73270289352E-01 -0.87974760963E-01 -0.80343243906E-01  0.89104608787E+00  0.88000000000E+00 0. -1.
        -11    1    4    4    0    0  0.18574030476E-01  0.26828289738E-01  0.20144293476E-01  0.38351081067E-01  0.51100000000E-03 0.  1.
         11    1    4    4    0    0  0.59511557334E-01  0.38671829964E-01  0.57590552969E-01  0.91400595192E-01  0.51100000000E-03 0. -1.
</event>
<event>
 8    1  0.1197213E+005  0.1043930E+01  0.7957747E-01            NaN
         13   -1    0    0    0    0  0.00000000000E+00  0.00000000000E+00  0.74505805969E-08  0.10566000000E+00  0.10566000000E+00 0.  1.
     999900   -1    0    0    0    0 -0.00000000000E+00 -0.00000000000E+00 -0.74505805969E-08  0.93827000000E+00  0.93827000000E+00 0. -1.
     999902    2    1    2    0    0 -0.18953037628E-01 -0.88658268815E-02 -0.11069795764E-01  0.10202580567E+01  0.10199834025E+01 0.  0.
     999903    2    3    3    0    0 -0.13063159835E-01  0.11120470486E+00 -0.61956286152E-01  0.13062832576E+00  0.26230622775E-01 0.  0.
         14    1    1    2    0    0  0.18953037628E-01  0.88658268815E-02  0.11069795764E-01  0.23671943306E-01  0.00000000000E+00 0. -1.
     999901    1    3    3    0    0 -0.58898777929E-02 -0.12007053174E+00  0.50886490387E-01  0.88962973093E+00  0.88000000000E+00 0. -1.
        -11    1    4    4    0    0 -0.57841167037E-02  0.14788604062E-01 -0.18371380391E-03  0.15888791266E-01  0.51100000000E-03 0.  1.
         11    1    4    4    0    0 -0.72790431312E-02  0.96416100793E-01 -0.61772572348E-01  0.11473953450E+00  0.51100000000E-03 0. -1.
</event>
<event>
 8    1  0.1197213E+005  0.1043930E+01  0.7957747E-01            NaN
         13   -1    0    0    0    0  0.00000000000E+00  0.00000000000E+00  0.74505805969E-08  0.10566000000E+00  0.10566000000E+00 0.  1.
     999900   -1    0    0    0    0 -0.00000000000E+00 -0.00000000000E+00 -0.74505805969E-08  0.93827000000E+00  0.93827000000E+00 0.  1.
     999902    2    1    2    0    0 -0.65510322712E-02  0.58258419905E-02  0.21185013164E-01  0.10210026966E+01  0.10207452401E+01 0.  0.
     999903    2    3    3    0    0  0.70639824005E-01  0.81806163434E-01 -0.69025948965E-01  0.12978473491E+00  0.19931449364E-01 0.  0.
         14    1    1    2    0    0  0.65510322712E-02 -0.58258419905E-02 -0.21185013164E-01  0.22927303406E-01  0.00000000000E+00 0. -1.
     999901    1    3    3    0    0 -0.77190856276E-01 -0.75980321444E-01  0.90210962129E-01  0.89121796168E+00  0.88000000000E+00 0. -1.
        -11    1    4    4    0    0  0.40979721499E-01  0.35073611889E-01 -0.27234707572E-01  0.60427528848E-01  0.51100000000E-03 0.  1.
         11    1    4    4    0    0  0.29660102506E-01  0.46732551545E-01 -0.41791241393E-01  0.69357206062E-01  0.51100000000E-03 0. -1.
</event>
<event>
 8    1  0.1197213E+005  0.1043930E+01  0.7957747E-01            NaN
         13   -1    0    0    0    0  0.00000000000E+00  0.00000000000E+00  0.74505805969E-08  0.10566000000E+00  0.10566000000E+00 0.  1.
     999900   -1    0    0    0    0 -0.00000000000E+00 -0.00000000000E+00 -0.74505805969E-08  0.93827000000E+00  0.93827000000E+00 0. -1.
     999902    2    1    2    0    0 -0.52429789191E-02  0.27284469039E-01  0.12373656166E-02  0.10161188125E+01  0.10157381448E+01 0.  0.
     999903    2    3    3    0    0 -0.27884043664E-02 -0.98513033293E-01  0.72832094753E-01  0.12429100298E+00  0.20764066732E-01 0.  0.
         14    1    1    2    0    0  0.52429789191E-02 -0.27284469039E-01 -0.12373656166E-02  0.27811187540E-01  0.00000000000E+00 0.  1.
     999901    1    3    3    0    0 -0.24545745527E-02  0.12579750233E+00 -0.71594729136E-01  0.89182780948E+00  0.88000000000E+00 0.  1.
        -11    1    4    4    0    0 -0.53378325671E-02 -0.40736149023E-01  0.41980594831E-01  0.58741448374E-01  0.51100000000E-03 0.  1.
         11    1    4    4    0    0  0.25494282006E-02 -0.57776884271E-01  0.30851499922E-01  0.65549554603E-01  0.51100000000E-03 0. -1.
</event>
<event>
 8    1  0.1197213E+005  0.1043930E+01  0.7957747E-01            NaN
         13   -1    0    0    0    0  0.00000000000E+00  0.00000000000E+00  0.74505805969E-08  0.10566000000E+00  0.10566000000E+00 0. -1.
     999900   -1    0    0    0    0 -0.00000000000E+00 -0.00000000000E+00 -0.74505805969E-08  0.93827000000E+00  0.93827000000E+00 0. -1.
     999902    2    1    2    0    0 -0.19557569997E-01  0.58177521593E-02  0.15100453817E-01  0.10185455857E+01  0.10182292186E+01 0.  0.
     999903    2    3    3    0    0  0.11440791129E+00  0.43250276595E-01 -0.26126373104E-01  0.12666689701E+00  0.20053898261E-01 0.  0.
         14    1    1    2    0    0  0.19557569997E-01 -0.58177521593E-02 -0.15100453817E-01  0.25384414310E-01  0.00000000000E+00 0.  1.
     999901    1    3    3    0    0 -0.13396548129E+00 -0.37432524436E-01  0.41226826921E-01  0.89187868868E+00  0.88000000000E+00 0.  1.
        -11    1    4    4    0    0  0.76305797709E-01  0.27460317704E-01 -0.26806939541E-01  0.85413798306E-01  0.51100000000E-03 0.  1.
         11    1    4    4    0    0  0.38102113581E-01  0.15789958891E-01  0.68056643653E-03  0.41253098705E-01  0.51100000000E-03 0. -1.
</event>
<event>
 8    1  0.1197213E+005  0.1043930E+01  0.7957747E-01            NaN
         13   -1    0    0    0    0  0.00000000000E+00  0.00000000000E+00  0.74505805969E-08  0.10566000000E+00  0.10566000000E+00 0. -1.
     999900   -1    0    0    0    0 -0.00000000000E+00 -0.00000000000E+00 -0.74505805969E-08  0.93827000000E+00  0.93827000000E+00 0.  1.
     999902    2    1    2    0    0  0.84388892894E-02  0.74463301634E-02 -0.21432851901E-01  0.10197219471E+01  0.10194345587E+01 0.  0.
     999903    2    3    3    0    0 -0.16363468583E-01  0.39854554388E-01 -0.12397781563E+00  0.13282797397E+00  0.20411352058E-01 0.  0.
         14    1    1    2    0    0 -0.84388892894E-02 -0.74463301634E-02  0.21432851901E-01  0.24208052915E-01  0.00000000000E+00 0. -1.
     999901    1    3    3    0    0  0.24802357873E-01 -0.32408224225E-01  0.10254496373E+00  0.88689397311E+00  0.88000000000E+00 0. -1.
        -11    1    4    4    0    0 -0.35751642416E-02  0.16939807441E-01 -0.77870752895E-01  0.79773768577E-01  0.51100000000E-03 0. -1.
         11    1    4    4    0    0 -0.12788304342E-01  0.22914746947E-01 -0.46107062733E-01  0.53054205398E-01  0.51100000000E-03 0.  1.
</event>
<event>
 8    1  0.1197213E+005  0.1043930E+01  0.7957747E-01            NaN
         13   -1    0    0    0    0  0.00000000000E+00  0.00000000000E+00  0.74505805969E-08  0.10566000000E+00  0.10566000000E+00 0.  1.
     999900   -1    0    0    0    0 -0.00000000000E+00 -0.00000000000E+00 -0.74505805969E-08  0.93827000000E+00  0.93827000000E+00 0.  1.
     999902    2    1    2    0    0  0.60469330528E-02  0.21939882449E-01 -0.89924072011E-02  0.10194598707E+01  0.10191661497E+01 0.  0.
     999903    2    3    3    0    0  0.64271726272E-01  0.11192969276E+00  0.21645918352E-01  0.13242717710E+00  0.20231177284E-01 0.  0.
         14    1    1    2    0    0 -0.60469330528E-02 -0.21939882449E-01  0.89924072011E-02  0.24470129310E-01  0.00000000000E+00 0. -1.
     999901    1    3    3    0    0 -0.58224793219E-01 -0.89989810309E-01 -0.30638325553E-01  0.88703269359E+00  0.88000000000E+00 0.  1.
        -11    1    4    4    0    0  0.13479898582E-01  0.33310024134E-01  0.13806283864E-01  0.38498570996E-01  0.51100000000E-03 0.  1.
         11    1    4    4    0    0  0.50791827690E-01  0.78619668624E-01  0.78396344881E-02  0.93928606104E-01  0.51100000000E-03 0. -1.
</event>
<event>
 8    1  0.1197213E+005  0.1043930E+01  0.7957747E-01            NaN
         13   -1    0    0    0    0  0.00000000000E+00  0.00000000000E+00  0.74505805969E-08  0.10566000000E+00  0.10566000000E+00 0. -1.
     999900   -1    0    0    0    0 -0.00000000000E+00 -0.00000000000E+00 -0.74505805969E-08  0.93827000000E+00  0.93827000000E+00 0. -1.
     999902    2    1    2    0    0 -0.13452103233E-01  0.18052589704E-01 -0.92716956381E-02  0.10195821168E+01  0.10192913585E+01 0.  0.
     999903    2    3    3    0    0 -0.46904302259E-01  0.91596519542E-01  0.79316742385E-01  0.13145168123E+00  0.19961535818E-01 0.  0.
         14    1    1    2    0    0  0.13452103233E-01 -0.18052589704E-01  0.92716956381E-02  0.24347883202E-01  0.00000000000E+00 0. -1.
     999901    1    3    3    0    0  0.33452199027E-01 -0.73543929838E-01 -0.88588438023E-01  0.88813043557E+00  0.88000000000E+00 0. -1.
        -11    1    4    4    0    0 -0.26859072094E-01  0.59209265118E-01  0.38235739250E-01  0.75427976949E-01  0.51100000000E-03 0.  1.
         11    1    4    4    0    0 -0.20045230165E-01  0.32387254424E-01  0.41081003135E-01  0.56023704279E-01  0.51100000000E-03 0. -1.
</event>
<event>
 8    1  0.1197213E+005  0.1043930E+01  0.7957747E-01            NaN
         13   -1    0    0    0    0  0.00000000000E+00  0.00000000000E+00  0.74505805969E-08  0.10566000000E+00  0.10566000000E+00 0.  1.
     999900   -1    0    0    0    0 -0.00000000000E+00 -0.00000000000E+00 -0.74505805969E-08  0.93827000000E+00  0.93827000000E+00 0.  1.
     999902    2    1    2    0    0  0.11892956399E-02  0.23139916085E-01  0.49135601301E-02  0.10202442825E+01  0.10199693048E+01 0.  0.
     999903    2    3    3    0    0  0.73322991215E-01 -0.12431087162E-01  0.10576552350E+00  0.13084016466E+00  0.20050181007E-01 0.  0.
         14    1    1    2    0    0 -0.11892956399E-02 -0.23139916085E-01 -0.49135601301E-02  0.23685717505E-01  0.00000000000E+00 0. -1.
     999901    1    3    3    0    0 -0.72133695575E-01  0.35571003248E-01 -0.10085196337E+00  0.88940411784E+00  0.88000000000E+00 0.  1.
        -11    1    4    4    0    0  0.19580207120E-01 -0.85971440470E-02  0.18502622359E-01  0.28282566216E-01  0.51100000000E-03 0.  1.
         11    1    4    4    0    0  0.53742784095E-01 -0.38339431153E-02  0.87262901139E-01  0.10255759844E+00  0.51100000000E-03 0. -1.
</event>
<event>
 8    1  0.1197213E+005  0.1043930E+01  0.7957747E-01            NaN
         13   -1    0    0    0    0  0.00000000000E+00  0.00000000000E+00  0.74505805969E-08  0.10566000000E+00  0.10566000000E+00 0.  1.
     999900   -1    0    0    0    0 -0.00000000000E+00 -0.00000000000E+00 -0.74505805969E-08  0.93827000000E+00  0.93827000000E+00 0.  1.
     999902    2    1    2    0    0  0.94722073152E-02 -0.19603517974E-01  0.10150548532E-01  0.10199080462E+01  0.10196251117E+01 0.  0.
     999903    2    3    3    0    0  0.36519407175E-01 -0.20680537515E-01 -0.12110626077E+00  0.12976139482E+00  0.20247011021E-01 0.  0.
         14    1    1    2    0    0 -0.94722073152E-02  0.19603517974E-01 -0.10150548532E-01  0.24021953790E-01  0.00000000000E+00 0.  1.
     999901    1    3    3    0    0 -0.27047199860E-01  0.10770195418E-02  0.13125680930E+00  0.89014665139E+00  0.88000000000E+00 0. -1.
        -11    1    4    4    0    0  0.28915615528E-01 -0.22699223737E-01 -0.81943022591E-01  0.89812513894E-01  0.51100000000E-03 0.  1.
         11    1    4    4    0    0  0.76037916469E-02  0.20186862213E-02 -0.39163238181E-01  0.39948880927E-01  0.51100000000E-03 0. -1.
</event>
<event>
 8    1  0.1197213E+005  0.1043930E+01  0.7957747E-01            NaN
         13   -1    0    0    0    0  0.00000000000E+00  0.00000000000E+00  0.74505805969E-08  0.10566000000E+00  0.10566000000E+00 0.  1.
     999900   -1    0    0    0    0 -0.00000000000E+00 -0.00000000000E+00 -0.74505805969E-08  0.93827000000E+00  0.93827000000E+00 0.  1.
     999902    2    1    2    0    0 -0.12744448753E-01  0.13510754012E-02 -0.19735771040E-01  0.10203981697E+01  0.10201267949E+01 0.  0.
     999903    2    3    3    0    0 -0.22691656376E-01  0.80317740645E-01 -0.10150140820E+00  0.13303110891E+00  0.20709643627E-01 0.  0.
         14    1    1    2    0    0  0.12744448753E-01 -0.13510754012E-02  0.19735771040E-01  0.23531830301E-01  0.00000000000E+00 0.  1.
     999901    1    3    3    0    0  0.99472076224E-02 -0.78966665244E-01  0.81765637159E-01  0.88736706079E+00  0.88000000000E+00 0. -1.
        -11    1    4    4    0    0 -0.10069696288E-01  0.61944477851E-01 -0.65734398925E-01  0.90883383754E-01  0.51100000000E-03 0. -1.
         11    1    4    4    0    0 -0.12621960087E-01  0.18373262795E-01 -0.35767009273E-01  0.42147725153E-01  0.51100000000E-03 0.  1.
</event>
<event>
 8    1  0.1197213E+005  0.1043930E+01  0.7957747E-01            NaN
         13   -1    0    0    0    0  0.00000000000E+00  0.00000000000E+00  0.74505805969E-08  0.10566000000E+00  0.10566000000E+00 0.  1.
     999900   -1    0    0    0    0 -0.00000000000E+00 -0.00000000000E+00 -0.74505805969E-08  0.93827000000E+00  0.93827000000E+00 0. -1.
     999902    2    1    2    0    0  0.55364216876E-02  0.22733904335E-02  0.22795677087E-01  0.10203617340E+01  0.10200895083E+01 0.  0.
     999903    2    3    3    0    0 -0.13954907537E-01  0.10715955691E+00 -0.67856954506E-01  0.12929556391E+00  0.20853452721E-01 0.  0.
         14    1    1    2    0    0 -0.55364216876E-02 -0.22733904335E-02 -0.22795677087E-01  0.23568266016E-01  0.00000000000E+00 0. -1.
     999901    1    3    3    0    0  0.19491329224E-01 -0.10488616648E+00  0.90652631592E-01  0.89106617007E+00  0.88000000000E+00 0.  1.
        -11    1    4    4    0    0 -0.18972581975E-01  0.95158860406E-01 -0.59341219240E-01  0.11374009409E+00  0.51100000000E-03 0. -1.
         11    1    4    4    0    0  0.50176744384E-02  0.12000696506E-01 -0.85157352654E-02  0.15555469826E-01  0.51100000000E-03 0.  1.
</event>
<event>
 8    1  0.1197213E+005  0.1043930E+01  0.7957747E-01            NaN
         13   -1    0    0    0    0  0.00000000000E+00  0.00000000000E+00  0.74505805969E-08  0.10566000000E+00  0.10566000000E+00 0.  1.
     999900   -1    0    0    0    0 -0.00000000000E+00 -0.00000000000E+00 -0.74505805969E-08  0.93827000000E+00  0.93827000000E+00 0.  1.
     999902    2    1    2    0    0  0.11971499639E-01  0.21892777969E-01  0.95520427029E-03  0.10189595586E+01  0.10186535520E+01 0.  0.
     999903    2    3    3    0    0  0.12824028536E+00  0.14601920249E-01 -0.13033537422E-01  0.13117170550E+00  0.19425662433E-01 0.  0.
         14    1    1    2    0    0 -0.11971499639E-01 -0.21892777969E-01 -0.95520427029E-03  0.24970441446E-01  0.00000000000E+00 0.  1.
     999901    1    3    3    0    0 -0.11626878572E+00  0.72908577200E-02  0.13988741692E-01  0.88778785306E+00  0.88000000000E+00 0.  1.
        -11    1    4    4    0    0  0.67410808558E-02 -0.31419647954E-02  0.12345415787E-02  0.75564097156E-02  0.51100000000E-03 0. -1.
         11    1    4    4    0    0  0.12149920451E+00  0.17743885045E-01 -0.14268079001E-01  0.12361529578E+00  0.51100000000E-03 0.  1.
</event>
<event>
 8    1  0.1197213E+005  0.1043930E+01  0.7957747E-01            NaN
         13   -1    0    0    0    0  0.00000000000E+00  0.00000000000E+00  0.74505805969E-08  0.10566000000E+00  0.10566000000E+00 0.  1.
     999900   -1    0    0    0    0 -0.00000000000E+00 -0.00000000000E+00 -0.74505805969E-08  0.93827000000E+00  0.93827000000E+00 0.  1.
     999902    2    1    2    0    0 -0.11152870128E-01  0.11255748630E-01  0.19856617240E-01  0.10185259917E+01  0.10182091299E+01 0.  0.
     999903    2    3    3    0    0 -0.10218664413E+00 -0.47980775254E-03 -0.75338987170E-01  0.12864562087E+00  0.20769986196E-01 0.  0.
         14    1    1    2    0    0  0.11152870128E-01 -0.11255748630E-01 -0.19856617240E-01  0.25404008297E-01  0.00000000000E+00 0. -1.
     999901    1    3    3    0    0  0.91033774006E-01  0.11735556382E-01  0.95195604410E-01  0.88988037083E+00  0.88000000000E+00 0. -1.
        -11    1    4    4    0    0 -0.76670288490E-01  0.50320562342E-02 -0.46812183010E-01  0.89973864684E-01  0.51100000000E-03 0. -1.
         11    1    4    4    0    0 -0.25516355645E-01 -0.55118639868E-02 -0.28526804160E-01  0.38671756187E-01  0.51100000000E-03 0.  1.
</event>
<event>
 8    1  0.1197213E+005  0.1043930E+01  0.7957747E-01            NaN
         13   -1    0    0    0    0  0.00000000000E+00  0.00000000000E+00  0.74505805969E-08  0.10566000000E+00  0.10566000000E+00 0.  1.
     999900   -1    0    0    0    0 -0.00000000000E+00 -0.00000000000E+00 -0.74505805969E-08  0.93827000000E+00  0.93827000000E+00 0.  1.
     999902    2    1    2    0    0  0.17192733064E-01  0.11539839980E-02  0.12097587077E-01  0.10228759419E+01  0.10226592390E+01 0.  0.
     999903    2    3    3    0    0  0.10730734606E+00 -0.77632116763E-01 -0.10602845227E-01  0.13448233388E+00  0.20771753131E-01 0.  0.
         14    1    1    2    0    0 -0.17192733064E-01 -0.11539839980E-02 -0.12097587077E-01  0.21054058097E-01  0.00000000000E+00 0. -1.
     999901    1    3    3    0    0 -0.90114612993E-01  0.78786100761E-01  0.22700432304E-01  0.88839360802E+00  0.88000000000E+00 0.  1.
        -11    1    4    4    0    0  0.80581283306E-01 -0.54199241138E-01  0.90461238231E-03  0.97118383449E-01  0.51100000000E-03 0.  1.
         11    1    4    4    0    0  0.26726062751E-01 -0.23432875624E-01 -0.11507457609E-01  0.37363950431E-01  0.51100000000E-03 0. -1.
</event>
<event>
 8    1  0.1197213E+005  0.1043930E+01  0.7957747E-01            NaN
         13   -1    0    0    0    0  0.00000000000E+00  0.00000000000E+00  0.74505805969E-08  0.10566000000E+00  0.10566000000E+00 0.  1.
     999900   -1    0    0    0    0 -0.00000000000E+00 -0.00000000000E+00 -0.74505805969E-08  0.93827000000E+00  0.93827000000E+00 0.  1.
     999902    2    1    2    0    0 -0.12026886418E-02 -0.18862655609E-01  0.15534210441E-01  0.10194645564E+01  0.10191709493E+01 0.  0.
     999903    2    3    3    0    0 -0.12009748078E+00  0.13901766886E-01 -0.41410651531E-01  0.12904207449E+00  0.17898349574E-01 0.  0.
         14    1    1    2    0    0  0.12026886418E-02  0.18862655609E-01 -0.15534210441E-01  0.24465443602E-01  0.00000000000E+00 0. -1.
     999901    1    3    3    0    0  0.11889479214E+00 -0.32764422495E-01  0.56944861972E-01  0.89042248191E+00  0.88000000000E+00 0. -1.
        -11    1    4    4    0    0 -0.41092477651E-01  0.21137730499E-02 -0.22711570034E-01  0.47001449876E-01  0.51100000000E-03 0. -1.
         11    1    4    4    0    0 -0.79005003126E-01  0.11787993836E-01 -0.18699081497E-01  0.82040624616E-01  0.51100000000E-03 0.  1.
</event>
<event>
 8    1  0.1197213E+005  0.1043930E+01  0.7957747E-01            NaN
         13   -1    0    0    0    0  0.00000000000E+00  0.00000000000E+00  0.74505805969E-08  0.10566000000E+00  0.10566000000E+00 0.  1.
     999900   -1    0    0    0    0 -0.00000000000E+00 -0.00000000000E+00 -0.74505805969E-08  0.93827000000E+00  0.93827000000E+00 0.  1.
     999902    2    1    2    0    0 -0.21638737525E-01  0.13639732000E-01  0.22991567578E-02  0.10182480341E+01  0.10179241109E+01 0.  0.
     999903    2    3    3    0    0 -0.36834530335E-01  0.29971971676E-02  0.12292148561E+00  0.12982588113E+00  0.19475676390E-01 0.  0.
         14    1    1    2    0    0  0.21638737525E-01 -0.13639732000E-01 -0.22991567578E-02  0.25681965900E-01  0.00000000000E+00 0.  1.
     999901    1    3    3    0    0  0.15195792810E-01  0.10642534833E-01 -0.12062232885E+00  0.88842215297E+00  0.88000000000E+00 0.  1.
        -11    1    4    4    0    0 -0.38459093302E-01  0.16482437561E-02  0.10617323155E+00  0.11293730466E+00  0.51100000000E-03 0.  1.
         11    1    4    4    0    0  0.16245629668E-02  0.13489534115E-02  0.16748254060E-01  0.16888576470E-01  0.51100000000E-03 0. -1.
</event>
<event>
 8    1  0.1197213E+005  0.1043930E+01  0.7957747E-01            NaN
         13   -1    0    0    0    0  0.00000000000E+00  0.00000000000E+00  0.74505805969E-08  0.10566000000E+00  0.10566000000E+00 0. -1.
     999900   -1    0    0    0    0 -0.00000000000E+00 -0.00000000000E+00 -0.74505805969E-08  0.93827000000E+00  0.93827000000E+00 0.  1.
     999902    2    1    2    0    0 -0.66431044234E-02 -0.18954658788E-01 -0.14338776105E-01  0.10192518634E+01  0.10189530659E+01 0.  0.
     999903    2    3    3    0    0 -0.79510202758E-01  0.63406999526E-01  0.74709137295E-01  0.12794799396E+00  0.21140341361E-01 0.  0.
         14    1    1    2    0    0  0.66431044234E-02  0.18954658788E-01  0.14338776105E-01  0.24678136606E-01  0.00000000000E+00 0. -1.
     999901    1    3    3    0    0  0.72867098334E-01 -0.82361658313E-01 -0.89047913399E-01  0.89130386943E+00  0.88000000000E+00 0.  1.
        -11    1    4    4    0    0 -0.30295210808E-01  0.31413346831E-01  0.42822672078E-01  0.61144423474E-01  0.51100000000E-03 0. -1.
         11    1    4    4    0    0 -0.49214991949E-01  0.31993652695E-01  0.31886465217E-01  0.66803570491E-01  0.51100000000E-03 0.  1.
</event>
<event>
 8    1  0.1197213E+005  0.1043930E+01  0.7957747E-01            NaN
         13   -1    0    0    0    0  0.00000000000E+00  0.00000000000E+00  0.74505805969E-08  0.10566000000E+00  0.10566000000E+00 0.  1.
     999900   -1    0    0    0    0 -0.00000000000E+00 -0.00000000000E+00 -0.74505805969E-08  0.93827000000E+00  0.93827000000E+00 0. -1.
     999902    2    1    2    0    0 -0.13711483953E-01  0.11674904922E-01 -0.22066199717E-01  0.10154479817E+01  0.10150484610E+01 0.  0.
     999903    2    3    3    0    0  0.52820273048E-01  0.10669320485E+00 -0.41796666451E-01  0.12761677964E+00  0.19122236134E-01 0.  0.
         14    1    1    2    0    0  0.13711483953E-01 -0.11674904922E-01  0.22066199717E-01  0.28482018311E-01  0.00000000000E+00 0.  1.
     999901    1    3    3    0    0 -0.66531757000E-01 -0.95018299924E-01  0.19730466734E-01  0.88783120205E+00  0.88000000000E+00 0. -1.
        -11    1    4    4    0    0  0.22611310997E-01  0.41884103465E-01 -0.26548016505E-01  0.54503282556E-01  0.51100000000E-03 0. -1.
         11    1    4    4    0    0  0.30208962051E-01  0.64809101381E-01 -0.15248649946E-01  0.73113497087E-01  0.51100000000E-03 0.  1.
</event>
<event>
 8    1  0.1197213E+005  0.1043930E+01  0.7957747E-01            NaN
         13   -1    0    0    0    0  0.00000000000E+00  0.00000000000E+00  0.74505805969E-08  0.10566000000E+00  0.10566000000E+00 0. -1.
     999900   -1    0    0    0    0 -0.00000000000E+00 -0.00000000000E+00 -0.74505805969E-08  0.93827000000E+00  0.93827000000E+00 0.  1.
     999902    2    1    2    0    0 -0.22343282108E-01 -0.84258939145E-02 -0.26885744862E-02  0.10198998861E+01  0.10196167570E+01 0.  0.
     999903    2    3    3    0    0  0.86403809206E-01 -0.89780717071E-01  0.26498613930E-01  0.12900346722E+00  0.20335255380E-01 0.  0.
         14    1    1    2    0    0  0.22343282108E-01  0.84258939145E-02  0.26885744862E-02  0.24030113948E-01  0.00000000000E+00 0. -1.
     999901    1    3    3    0    0 -0.10874709131E+00  0.81354823157E-01 -0.29187188416E-01  0.89089641883E+00  0.88000000000E+00 0.  1.
        -11    1    4    4    0    0  0.44489074311E-01 -0.58445274768E-01  0.10012145149E-01  0.74132530290E-01  0.51100000000E-03 0.  1.
         11    1    4    4    0    0  0.41914734894E-01 -0.31335442303E-01  0.16486468781E-01  0.54870936929E-01  0.51100000000E-03 0. -1.
</event>
<event>
 8    1  0.1197213E+005  0.1043930E+01  0.7957747E-01            NaN
         13   -1    0    0    0    0  0.00000000000E+00  0.00000000000E+00  0.74505805969E-08  0.10566000000E+00  0.10566000000E+00 0.  1.
     999900   -1    0    0    0    0 -0.00000000000E+00 -0.00000000000E+00 -0.74505805969E-08  0.93827000000E+00  0.93827000000E+00 0.  1.
     999902    2    1    2    0    0  0.20990759168E-01 -0.65347615059E-02  0.21031702631E-02  0.10218451997E+01  0.10216065161E+01 0.  0.
     999903    2    3    3    0    0 -0.24961635609E-01 -0.79793353276E-01  0.10044473584E+00  0.13215451899E+00  0.19636941006E-01 0.  0.
         14    1    1    2    0    0 -0.20990759168E-01  0.65347615059E-02 -0.21031702631E-02  0.22084800283E-01  0.00000000000E+00 0.  1.
     999901    1    3    3    0    0  0.45952394777E-01  0.73258591770E-01 -0.98341565576E-01  0.88969068073E+00  0.88000000000E+00 0.  1.
        -11    1    4    4    0    0 -0.35637303192E-02 -0.34348407049E-01  0.51582205609E-01  0.62076551911E-01  0.51100000000E-03 0. -1.
         11    1    4    4    0    0 -0.21397905290E-01 -0.45444946226E-01  0.48862530230E-01  0.70077967078E-01  0.51100000000E-03 0.  1.
</event>
<event>
 8    1  0.1197213E+005  0.1043930E+01  0.7957747E-01            NaN
         13   -1    0    0    0    0  0.00000000000E+00  0.00000000000E+00  0.74505805969E-08  0.10566000000E+00  0.10566000000E+00 0. -1.
     999900   -1    0    0    0    0 -0.00000000000E+00 -0.00000000000E+00 -0.74505805969E-08  0.93827000000E+00  0.93827000000E+00 0. -1.
     999902    2    1    2    0    0 -0.27846793206E-01  0.38498848158E-02  0.26745019396E-03  0.10158170664E+01  0.10154279765E+01 0.  0.
     999903    2    3    3    0    0  0.92077387660E-01  0.80585726964E-01  0.11819169139E-01  0.12429946096E+00  0.18394524401E-01 0.  0.
         14    1    1    2    0    0  0.27846793206E-01 -0.38498848158E-02 -0.26745019396E-03  0.28112933581E-01  0.00000000000E+00 0. -1.
     999901    1    3    3    0    0 -0.11992418087E+00 -0.76735842148E-01 -0.11551718945E-01  0.89151760546E+00  0.88000000000E+00 0. -1.
        -11    1    4    4    0    0  0.88997487279E-01  0.71613325258E-01  0.10690339460E-01  0.11473258288E+00  0.51100000000E-03 0. -1.
         11    1    4    4    0    0  0.30799003810E-02  0.89724017062E-02  0.11288296792E-02  0.95668780790E-02  0.51100000000E-03 0.  1.
</event>
<event>
 8    1  0.1197213E+005  0.1043930E+01  0.7957747E-01            NaN
         13   -1    0    0    0    0  0.00000000000E+00  0.00000000000E+00  0.74505805969E-08  0.10566000000E+00  0.10566000000E+00 0. -1.
     999900   -1    0    0    0    0 -0.00000000000E+00 -0.00000000000E+00 -0.74505805969E-08  0.93827000000E+00  0.93827000000E+00 0. -1.
     999902    2    1    2    0    0 -0.16527195791E-02 -0.75330919157E-02  0.21773117474E-01  0.10208313507E+01  0.10205699873E+01 0.  0.
     999903    2    3    3    0    0  0.25305283082E-01  0.10289688997E+00 -0.70105929847E-01  0.12877570548E+00  0.20981267932E-01 0.  0.
         14    1    1    2    0    0  0.16527195791E-02  0.75330919157E-02 -0.21773117474E-01  0.23098649319E-01  0.00000000000E+00 0.  1.
     999901    1    3    3    0    0 -0.26958002661E-01 -0.11042998188E+00  0.91879047321E-01  0.89205564521E+00  0.88000000000E+00 0. -1.
        -11    1    4    4    0    0  0.11907831199E-01  0.42791175302E-01 -0.41815348371E-01  0.61005455559E-01  0.51100000000E-03 0. -1.
         11    1    4    4    0    0  0.13397451883E-01  0.60105714666E-01 -0.28290581476E-01  0.67770249916E-01  0.51100000000E-03 0.  1.
</event>
<event>
 8    1  0.1197213E+005  0.1043930E+01  0.7957747E-01            NaN
         13   -1    0    0    0    0  0.00000000000E+00  0.00000000000E+00  0.74505805969E-08  0.10566000000E+00  0.10566000000E+00 0. -1.
     999900   -1    0    0    0    0 -0.00000000000E+00 -0.00000000000E+00 -0.74505805969E-08  0.93827000000E+00  0.93827000000E+00 0.  1.
     999902    2    1    2    0    0 -0.12252973140E-01 -0.14764681896E-01 -0.29784825462E-02  0.10245134467E+01  0.10243294392E+01 0.  0.
     999903    2    3    3    0    0 -0.73132926746E-01 -0.99176317199E-01  0.55250548007E-01  0.13646935272E+00  0.19669629088E-01 0.  0.
         14    1    1    2    0    0  0.12252973140E-01  0.14764681896E-01  0.29784825462E-02  0.19416553262E-01  0.00000000000E+00 0. -1.
     999901    1    3    3    0    0  0.60879953606E-01  0.84411635303E-01 -0.58229030553E-01  0.88804409402E+00  0.88000000000E+00 0. -1.
        -11    1    4    4    0    0 -0.20700484202E-01 -0.19925860038E-01  0.56887316760E-02  0.29294585396E-01  0.51100000000E-03 0. -1.
         11    1    4    4    0    0 -0.52432442544E-01 -0.79250457161E-01  0.49561816331E-01  0.10717476732E+00  0.51100000000E-03 0.  1.
</event>
<event>
 8    1  0.1197213E+005  0.1043930E+01  0.7957747E-01            NaN
         13   -1    0    0    0    0  0.00000000000E+00  0.00000000000E+00  0.74505805969E-08  0.10566000000E+00  0.10566000000E+00 0.  1.
     999900   -1    0    0    0    0 -0.00000000000E+00 -0.00000000000E+00 -0.74505805969E-08  0.93827000000E+00  0.93827000000E+00 0. -1.
     999902    2    1    2    0    0  0.23649765298E-01  0.64899608726E-03  0.64165134967E-02  0.10194166518E+01  0.10191218797E+01 0.  0.
     999903    2    3    3    0    0 -0.13025237947E-01  0.94198246379E-01 -0.84934629935E-01  0.12900014841E+00  0.19600522553E-01 0.  0.
         14    1    1    2    0    0 -0.23649765298E-01 -0.64899608726E-03 -0.64165134967E-02  0.24513348201E-01  0.00000000000E+00 0.  1.
     999901    1    3    3    0    0  0.36675003245E-01 -0.93549250292E-01  0.91351143431E-01  0.89041650338E+00  0.88000000000E+00 0. -1.
        -11    1    4    4    0    0 -0.13314242626E-01  0.48096305458E-01 -0.34525326038E-01  0.60685936711E-01  0.51100000000E-03 0.  1.
         11    1    4    4    0    0  0.28900467862E-03  0.46101940921E-01 -0.50409303896E-01  0.68314211704E-01  0.51100000000E-03 0. -1.
</event>
<event>
 8    1  0.1197213E+005  0.1043930E+01  0.7957747E-01            NaN
         13   -1    0    0    0    0  0.00000000000E+00  0.00000000000E+00  0.74505805969E-08  0.10566000000E+00  0.10566000000E+00 0.  1.
     999900   -1    0    0    0    0 -0.00000000000E+00 -0.00000000000E+00 -0.74505805969E-08  0.93827000000E+00  0.93827000000E+00 0. -1.
     999902    2    1    2    0    0 -0.84310955171E-02 -0.21282379846E-01 -0.63050932839E-02  0.10201860057E+01  0.10199096573E+01 0.  0.
     999903    2    3    3    0    0 -0.75722102340E-02 -0.12014532274E+00  0.52153664694E-01  0.13272217797E+00  0.20073236906E-01 0.  0.
         14    1    1    2    0    0  0.84310955171E-02  0.21282379846E-01  0.63050932839E-02  0.23743994290E-01  0.00000000000E+00 0. -1.
     999901    1    3    3    0    0 -0.85888528310E-03  0.98862942895E-01 -0.58458757978E-01  0.88746382774E+00  0.88000000000E+00 0. -1.
        -11    1    4    4    0    0 -0.12324797359E-01 -0.10793178009E+00  0.49310497552E-01  0.11930195335E+00  0.51100000000E-03 0. -1.
         11    1    4    4    0    0  0.47525871251E-02 -0.12213542650E-01  0.28431671427E-02  0.13420224620E-01  0.51100000000E-03 0.  1.
</event>
<event>
 8    1  0.1197213E+005  0.1043930E+01  0.7957747E-01            NaN
         13   -1    0    0    0    0  0.00000000000E+00  0.00000000000E+00  0.74505805969E-08  0.10566000000E+00  0.10566000000E+00 0.  1.
     999900   -1    0    0    0    0 -0.00000000000E+00 -0.00000000000E+00 -0.74505805969E-08  0.93827000000E+00  0.93827000000E+00 0. -1.
     999902    2    1    2    0    0 -0.94756964343E-02  0.18482356332E-01 -0.17323651779E-01  0.10168838315E+01  0.10165240930E+01 0.  0.
     999903    2    3    3    0    0 -0.10240104657E+00  0.48841664455E-01  0.56603002897E-01  0.12838962301E+00  0.20211700409E-01 0.  0.
         14    1    1    2    0    0  0.94756964343E-02 -0.18482356332E-01  0.17323651779E-01  0.27046168480E-01  0.00000000000E+00 0.  1.
     999901    1    3    3    0    0  0.92925350137E-01 -0.30359308123E-01 -0.73926654676E-01  0.88849420851E+00  0.88000000000E+00 0. -1.
        -11    1    4    4    0    0 -0.99232915337E-01  0.47324384432E-01  0.49753451596E-01  0.12067491833E+00  0.51100000000E-03 0. -1.
         11    1    4    4    0    0 -0.31681312351E-02  0.15172800233E-02  0.68495513007E-02  0.77147046744E-02  0.51100000000E-03 0.  1.
</event>
<event>
 8    1  0.1197213E+005  0.1043930E+01  0.7957747E-01            NaN
         13   -1    0    0    0    0  0.00000000000E+00  0.00000000000E+00  0.74505805969E-08  0.10566000000E+00  0.10566000000E+00 0. -1.
     999900   -1    0    0    0    0 -0.00000000000E+00 -0.00000000000E+00 -0.74505805969E-08  0.93827000000E+00  0.93827000000E+00 0.  1.
     999902    2    1    2    0    0 -0.21020769207E-01 -0.66782982128E-02 -0.37910266430E-03  0.10218706228E+01  0.10216324944E+01 0.  0.
     999903    2    3    3    0    0 -0.50209393618E-02  0.60691006039E-01 -0.11234105727E+00  0.13207845771E+00  0.33400565837E-01 0.  0.
         14    1    1    2    0    0  0.21020769207E-01  0.66782982128E-02  0.37910266430E-03  0.22059377233E-01  0.00000000000E+00 0. -1.
     999901    1    3    3    0    0 -0.15999829845E-01 -0.67369304252E-01  0.11196195460E+00  0.88979216505E+00  0.88000000000E+00 0. -1.
        -11    1    4    4    0    0  0.56290163639E-02  0.21177341210E-01 -0.15215617268E-01  0.26682236334E-01  0.51100000000E-03 0.  1.
         11    1    4    4    0    0 -0.10649955726E-01  0.39513664829E-01 -0.97125440000E-01  0.10539622138E+00  0.51100000000E-03 0. -1.
</event>
<event>
 8    1  0.1197213E+005  0.1043930E+01  0.7957747E-01            NaN
         13   -1    0    0    0    0  0.00000000000E+00  0.00000000000E+00  0.74505805969E-08  0.10566000000E+00  0.10566000000E+00 0.  1.
     999900   -1    0    0    0    0 -0.00000000000E+00 -0.00000000000E+00 -0.74505805969E-08  0.93827000000E+00  0.93827000000E+00 0. -1.
     999902    2    1    2    0    0  0.71297388292E-02  0.61581539821E-02 -0.21506425372E-01  0.10204505969E+01  0.10201804440E+01 0.  0.
     999903    2    3    3    0    0  0.27592881394E-01 -0.12428578684E+00  0.15268077810E-01  0.12984028597E+00  0.20422089698E-01 0.  0.
         14    1    1    2    0    0 -0.71297388292E-02 -0.61581539821E-02  0.21506425372E-01  0.23479403070E-01  0.00000000000E+00 0.  1.
     999901    1    3    3    0    0 -0.20463142565E-01  0.13044394082E+00 -0.36774503182E-01  0.89061031096E+00  0.88000000000E+00 0. -1.
        -11    1    4    4    0    0  0.35018688870E-02 -0.62626663843E-01  0.65230800597E-02  0.63064838097E-01  0.51100000000E-03 0.  1.
         11    1    4    4    0    0  0.24091012507E-01 -0.61659122995E-01  0.87449977501E-02  0.66775447874E-01  0.51100000000E-03 0. -1.
</event>
<event>
 8    1  0.1197213E+005  0.1043930E+01  0.7957747E-01            NaN
         13   -1    0    0    0    0  0.00000000000E+00  0.00000000000E+00  0.74505805969E-08  0.10566000000E+00  0.10566000000E+00 0. -1.
     999900   -1    0    0    0    0 -0.00000000000E+00 -0.00000000000E+00 -0.74505805969E-08  0.93827000000E+00  0.93827000000E+00 0.  1.
     999902    2    1    2    0    0  0.10003865437E-01  0.19007753531E-01 -0.10570181084E-01  0.10199904773E+01  0.10197095043E+01 0.  0.
     999903    2    3    3    0    0  0.29746521655E-01  0.10160080126E+00  0.75680340742E-01  0.13170531110E+00  0.20277983913E-01 0.  0.
         14    1    1    2    0    0 -0.10003865437E-01 -0.19007753531E-01  0.10570181084E-01  0.23939522679E-01  0.00000000000E+00 0.  1.
     999901    1    3    3    0    0 -0.19742656217E-01 -0.82593047725E-01 -0.86250521826E-01  0.88828516622E+00  0.88000000000E+00 0.  1.
        -11    1    4    4    0    0  0.44755108957E-02  0.20050392223E-01  0.25213626104E-01  0.32527472825E-01  0.51100000000E-03 0.  1.
         11    1    4    4    0    0  0.25271010759E-01  0.81550409032E-01  0.50466714638E-01  0.99177838278E-01  0.51100000000E-03 0. -1.
</event>
<event>
 8    1  0.1197213E+005  0.1043930E+01  0.7957747E-01            NaN
         13   -1    0    0    0    0  0.00000000000E+00  0.00000000000E+00  0.74505805969E-08  0.10566000000E+00  0.10566000000E+00 0.  1.
     999900   -1    0    0    0    0 -0.00000000000E+00 -0.00000000000E+00 -0.74505805969E-08  0.93827000000E+00  0.93827000000E+00 0. -1.
     999902    2    1    2    0    0 -0.10438548592E-01 -0.13299730617E-01  0.18697674896E-01  0.10187218827E+01  0.10184099494E+01 0.  0.
     999903    2    3    3    0    0 -0.11168448585E+00 -0.58214035372E-01  0.32761689504E-01  0.13166730090E+00  0.20016281740E-01 0.  0.
         14    1    1    2    0    0  0.10438548592E-01  0.13299730617E-01 -0.18697674896E-01  0.25208117298E-01  0.00000000000E+00 0. -1.
     999901    1    3    3    0    0  0.10124593726E+00  0.44914304755E-01 -0.14064014608E-01  0.88705458180E+00  0.88000000000E+00 0.  1.
        -11    1    4    4    0    0 -0.46392514120E-01 -0.13494111625E-01  0.10335293971E-01  0.49410887843E-01  0.51100000000E-03 0. -1.
         11    1    4    4    0    0 -0.65291971727E-01 -0.44719923747E-01  0.22426395533E-01  0.82256413061E-01  0.51100000000E-03 0.  1.
</event>
<event>
 8    1  0.1197213E+005  0.1043930E+01  0.7957747E-01            NaN
         13   -1    0    0    0    0  0.00000000000E+00  0.00000000000E+00  0.74505805969E-08  0.10566000000E+00  0.10566000000E+00 0. -1.
     999900   -1    0    0    0    0 -0.00000000000E+00 -0.00000000000E+00 -0.74505805969E-08  0.93827000000E+00  0.93827000000E+00 0. -1.
     999902    2    1    2    0    0 -0.74339617436E-02 -0.30634264822E-02  0.22776702034E-01  0.10197757763E+01  0.10194896798E+01 0.  0.
     999903    2    3    3    0    0 -0.16425756130E-01 -0.39117877813E-02 -0.12472781402E+00  0.12745343857E+00  0.20056018181E-01 0.  0.
         14    1    1    2    0    0  0.74339617436E-02  0.30634264822E-02 -0.22776702034E-01  0.24154223742E-01  0.00000000000E+00 0.  1.
     999901    1    3    3    0    0  0.89917943867E-02  0.84836129905E-03  0.14750451605E+00  0.89232233769E+00  0.88000000000E+00 0.  1.
        -11    1    4    4    0    0 -0.11844320355E-01 -0.12000466515E-01 -0.83619594242E-01  0.85304142827E-01  0.51100000000E-03 0.  1.
         11    1    4    4    0    0 -0.45814357749E-02  0.80886787333E-02 -0.41108219776E-01  0.42149295742E-01  0.51100000000E-03 0. -1.
</event>
<event>
 8    1  0.1197213E+005  0.1043930E+01  0.7957747E-01            NaN
         13   -1    0    0    0    0  0.00000000000E+00  0.00000000000E+00  0.74505805969E-08  0.10566000000E+00  0.10566000000E+00 0. -1.
     999900   -1    0    0    0    0 -0.00000000000E+00 -0.00000000000E+00 -0.74505805969E-08  0.93827000000E+00  0.93827000000E+00 0.  1.
     999902    2    1    2    0    0  0.21049053105E-01  0.82618837729E-02  0.72725843982E-02  0.10201768561E+01  0.10199002922E+01 0.  0.
     999903    2    3    3    0    0 -0.27721606923E-01  0.12561112327E+00 -0.46400321780E-02  0.13096859496E+00  0.24178527391E-01 0.  0.
         14    1    1    2    0    0 -0.21049053105E-01 -0.82618837729E-02 -0.72725843982E-02  0.23753143875E-01  0.00000000000E+00 0.  1.
     999901    1    3    3    0    0  0.48770660029E-01 -0.11734923950E+00  0.11912616576E-01  0.88920826117E+00  0.88000000000E+00 0. -1.
        -11    1    4    4    0    0 -0.17231805879E-02  0.61139984268E-01 -0.58042663313E-02  0.61441172322E-01  0.51100000000E-03 0.  1.
         11    1    4    4    0    0 -0.25998426336E-01  0.64471139005E-01  0.11642341532E-02  0.69527422638E-01  0.51100000000E-03 0. -1.
</event>
<event>
 8    1  0.1197213E+005  0.1043930E+01  0.7957747E-01            NaN
         13   -1    0    0    0    0  0.00000000000E+00  0.00000000000E+00  0.74505805969E-08  0.10566000000E+00  0.10566000000E+00 0.  1.
     999900   -1    0    0    0    0 -0.00000000000E+00 -0.00000000000E+00 -0.74505805969E-08  0.93827000000E+00  0.93827000000E+00 0. -1.
     999902    2    1    2    0    0 -0.20909784371E-01  0.45829277176E-03 -0.11425232008E-01  0.10200979829E+01  0.10198195574E+01 0.  0.
     999903    2    3    3    0    0 -0.12852036715E+00  0.10111136184E-01 -0.27830699080E-01  0.13333851476E+00  0.19618661000E-01 0.  0.
         14    1    1    2    0    0  0.20909784371E-01 -0.45829277176E-03  0.11425232008E-01  0.23832017144E-01  0.00000000000E+00 0.  1.
     999901    1    3    3    0    0  0.10761058278E+00 -0.96528434126E-02  0.16405467072E-01  0.88675946810E+00  0.88000000000E+00 0. -1.
        -11    1    4    4    0    0 -0.76268851157E-01 -0.16852231285E-02 -0.22317708648E-01  0.79486595562E-01  0.51100000000E-03 0. -1.
         11    1    4    4    0    0 -0.52251515993E-01  0.11796359313E-01 -0.55129904315E-02  0.53851919196E-01  0.51100000000E-03 0.  1.
</event>
<event>
 8    1  0.1197213E+005  0.1043930E+01  0.7957747E-01            NaN
         13   -1    0    0    0    0  0.00000000000E+00  0.00000000000E+00  0.74505805969E-08  0.10566000000E+00  0.10566000000E+00 0.  1.
     999900   -1    0    0    0    0 -0.00000000000E+00 -0.00000000000E+00 -0.74505805969E-08  0.93827000000E+00  0.93827000000E+00 0. -1.
     999902    2    1    2    0    0  0.19300209861E-01 -0.17282965190E-02  0.15270366583E-01  0.10192587778E+01  0.10189601498E+01 0.  0.
     999903    2    3    3    0    0 -0.31539906949E-01 -0.10161809859E+00 -0.68707559012E-01  0.12818359465E+00  0.19730726777E-01 0.  0.
         14    1    1    2    0    0 -0.19300209861E-01  0.17282965190E-02 -0.15270366583E-01  0.24671222205E-01  0.00000000000E+00 0.  1.
     999901    1    3    3    0    0  0.50840116809E-01  0.99889802074E-01  0.83977925595E-01  0.89107518315E+00  0.88000000000E+00 0. -1.
        -11    1    4    4    0    0 -0.48676492740E-02 -0.25792897678E-01 -0.26869658880E-01  0.37566038778E-01  0.51100000000E-03 0. -1.
         11    1    4    4    0    0 -0.26672257675E-01 -0.75825200915E-01 -0.41837900132E-01  0.90617555869E-01  0.51100000000E-03 0.  1.
</event>
<event>
 8    1  0.1197213E+005  0.1043930E+01  0.7957747E-01            NaN
         13   -1    0    0    0    0  0.00000000000E+00  0.00000000000E+00  0.74505805969E-08  0.10566000000E+00  0.10566000000E+00 0. -1.
     999900   -1    0    0    0    0 -0.00000000000E+00 -0.00000000000E+00 -0.74505805969E-08  0.93827000000E+00  0.93827000000E+00 0. -1.
     999902    2    1    2    0    0  0.69346070795E-02 -0.92466204331E-02 -0.21166853348E-01  0.10198131087E+01  0.10195279066E+01 0.  0.
     999903    2    3    3    0    0 -0.12264791523E+00 -0.38039563178E-01  0.14128163159E-02  0.12957128475E+00  0.17239556430E-01 0.  0.
         14    1    1    2    0    0 -0.69346070795E-02  0.92466204331E-02  0.21166853348E-01  0.24116891289E-01  0.00000000000E+00 0.  1.
     999901    1    3    3    0    0  0.12958252231E+00  0.28792942745E-01 -0.22579669664E-01  0.89024182396E+00  0.88000000000E+00 0.  1.
        -11    1    4    4    0    0 -0.95248972271E-01 -0.21921851414E-01  0.22844192818E-02  0.97767141620E-01  0.51100000000E-03 0. -1.
         11    1    4    4    0    0 -0.27398942959E-01 -0.16117711764E-01 -0.87160296590E-03  0.31804143134E-01  0.51100000000E-03 0.  1.
</event>
<event>
 8    1  0.1197213E+005  0.1043930E+01  0.7957747E-01            NaN
         13   -1    0    0    0    0  0.00000000000E+00  0.00000000000E+00  0.74505805969E-08  0.10566000000E+00  0.10566000000E+00 0. -1.
     999900   -1    0    0    0    0 -0.00000000000E+00 -0.00000000000E+00 -0.74505805969E-08  0.93827000000E+00  0.93827000000E+00 0. -1.
     999902    2    1    2    0    0 -0.12263189020E-01 -0.14084221750E-01  0.15235252365E-01  0.10198288792E+01  0.10195440544E+01 0.  0.
     999903    2    3    3    0    0 -0.56647984054E-01 -0.66461807465E-01 -0.94563394805E-01  0.13035197429E+00  0.20572691023E-01 0.  0.
         14    1    1    2    0    0  0.12263189020E-01  0.14084221750E-01 -0.15235252365E-01  0.24101120760E-01  0.00000000000E+00 0.  1.
     999901    1    3    3    0    0  0.44384795034E-01  0.52377585715E-01  0.10979864717E+00  0.88947690495E+00  0.88000000000E+00 0.  1.
        -11    1    4    4    0    0 -0.49899445427E-02 -0.15507777494E-02 -0.10687688577E-02  0.53579703283E-02  0.51100000000E-03 0.  1.
         11    1    4    4    0    0 -0.51658039511E-01 -0.64911029715E-01 -0.93494625948E-01  0.12499400396E+00  0.51100000000E-03 0. -1.
</event>
<event>
 8    1  0.1197213E+005  0.1043930E+01  0.7957747E-01            NaN
         13   -1    0    0    0    0  0.00000000000E+00  0.00000000000E+00  0.74505805969E-08  0.10566000000E+00  0.10566000000E+00 0.  1.
     999900   -1    0    0    0    0 -0.00000000000E+00 -0.00000000000E+00 -0.74505805969E-08  0.93827000000E+00  0.93827000000E+00 0. -1.
     999902    2    1    2    0    0  0.19951837430E-01  0.85949747049E-02 -0.11080072776E-01  0.10195431712E+01  0.10192514707E+01 0.  0.
     999903    2    3    3    0    0  0.25945032991E-01  0.89072453976E-01 -0.91950248896E-01  0.13215795131E+00  0.20095497715E-01 0.  0.
         14    1    1    2    0    0 -0.19951837430E-01 -0.85949747049E-02  0.11080072776E-01  0.24386828817E-01  0.00000000000E+00 0.  1.
     999901    1    3    3    0    0 -0.59931955610E-02 -0.80477479271E-01  0.80870176120E-01  0.88738521987E+00  0.88000000000E+00 0.  1.
        -11    1    4    4    0    0  0.18891389375E-01  0.45996664542E-01 -0.37018556881E-01  0.61993648191E-01  0.51100000000E-03 0. -1.
         11    1    4    4    0    0  0.70536436168E-02  0.43075789434E-01 -0.54931692015E-01  0.70164303119E-01  0.51100000000E-03 0.  1.
</event>
<event>
 7    1  0.1197213E+005  0.1043930E+01  0.7957747E-01            NaN
         13   -1    0    0    0    0  0.00000000000E+00  0.00000000000E+00  0.74505805969E-08  0.10566000000E+00  0.10566000000E+00 0. -1.
     999900   -1    0    0    0    0 -0.00000000000E+00 -0.00000000000E+00 -0.74505805969E-08  0.93827000000E+00  0.93827000000E+00 0.  1.
     999903    2    1    2    0    0 -0.43157716489E-01 -0.66598953940E-01 -0.11604661987E+00  0.14387020897E+00  0.30558303102E-01 0.  0.
         14    1    1    2    0    0 -0.22626282750E-02 -0.26498311996E-02 -0.68338138615E-02  0.76708607073E-02  0.00000000000E+00 0.  1.
     999901    1    1    2    0    0  0.45420344764E-01  0.69248785140E-01  0.12288043373E+00  0.89238893032E+00  0.88000000000E+00 0. -1.
        -11    1    3    3    0    0 -0.98939230942E-03 -0.18824237167E-01 -0.42881022866E-01  0.46844146326E-01  0.51100000000E-03 0.  1.
         11    1    3    3    0    0 -0.42168324179E-01 -0.47774716773E-01 -0.73165597004E-01  0.97026062647E-01  0.51100000000E-03 0. -1.
</event>
<event>
 8    1  0.1197213E+005  0.1043930E+01  0.7957747E-01            NaN
         13   -1    0    0    0    0  0.00000000000E+00  0.00000000000E+00  0.74505805969E-08  0.10566000000E+00  0.10566000000E+00 0. -1.
     999900   -1    0    0    0    0 -0.00000000000E+00 -0.00000000000E+00 -0.74505805969E-08  0.93827000000E+00  0.93827000000E+00 0.  1.
     999902    2    1    2    0    0  0.13206170955E-01  0.14743245687E-01 -0.12622919133E-01  0.10204543886E+01  0.10201843239E+01 0.  0.
     999903    2    3    3    0    0 -0.10478600025E+00 -0.69721665951E-01 -0.12435620631E-01  0.12857070285E+00  0.23120649236E-01 0.  0.
         14    1    1    2    0    0 -0.13206170955E-01 -0.14743245687E-01  0.12622919133E-01  0.23475611432E-01  0.00000000000E+00 0. -1.
     999901    1    3    3    0    0  0.11799217120E+00  0.84464911638E-01 -0.18729850242E-03  0.89188368571E+00  0.88000000000E+00 0. -1.
        -11    1    4    4    0    0 -0.57270665067E-01 -0.46804407448E-01  0.15904615590E-02  0.73982243294E-01  0.51100000000E-03 0.  1.
         11    1    4    4    0    0 -0.47515335179E-01 -0.22917258502E-01 -0.14026082190E-01  0.54588459559E-01  0.51100000000E-03 0. -1.
</event>
<event>
 8    1  0.1197213E+005  0.1043930E+01  0.7957747E-01            NaN
         13   -1    0    0    0    0  0.00000000000E+00  0.00000000000E+00  0.74505805969E-08  0.10566000000E+00  0.10566000000E+00 0.  1.
     999900   -1    0    0    0    0 -0.00000000000E+00 -0.00000000000E+00 -0.74505805969E-08  0.93827000000E+00  0.93827000000E+00 0.  1.
     999902    2    1    2    0    0 -0.99251601469E-03  0.11539992595E-01 -0.21862087774E-01  0.10191891957E+01  0.10188888601E+01 0.  0.
     999903    2    3    3    0    0 -0.40847391927E-01  0.11688172535E+00  0.34671388883E-01  0.13021150991E+00  0.20569029110E-01 0.  0.
         14    1    1    2    0    0  0.99251601469E-03 -0.11539992595E-01  0.21862087774E-01  0.24740804331E-01  0.00000000000E+00 0.  1.
     999901    1    3    3    0    0  0.39854875912E-01 -0.10534173275E+00 -0.56533476657E-01  0.88897768576E+00  0.88000000000E+00 0.  1.
        -11    1    4    4    0    0 -0.17929455605E-01  0.65790817803E-01  0.28377441766E-01  0.73860932892E-01  0.51100000000E-03 0. -1.
         11    1    4    4    0    0 -0.22917936321E-01  0.51090907545E-01  0.62939471170E-02  0.56350577018E-01  0.51100000000E-03 0.  1.
</event>
<event>
 8    1  0.1197213E+005  0.1043930E+01  0.7957747E-01            NaN
         13   -1    0    0    0    0  0.00000000000E+00  0.00000000000E+00  0.74505805969E-08  0.10566000000E+00  0.10566000000E+00 0. -1.
     999900   -1    0    0    0    0 -0.00000000000E+00 -0.00000000000E+00 -0.74505805969E-08  0.93827000000E+00  0.93827000000E+00 0.  1.
     999902    2    1    2    0    0  0.17729036354E-01  0.21781548538E-01 -0.21350319283E-01  0.10086512426E+01  0.10080340959E+01 0.  0.
     999903    2    3    3    0    0  0.52392026491E-01 -0.18002580773E-01  0.10402356378E+00  0.11820028365E+00  0.90215230402E-02 0.  0.
         14    1    1    2    0    0 -0.17729036354E-01 -0.21781548538E-01  0.21350319283E-01  0.35278757351E-01  0.00000000000E+00 0. -1.
     999901    1    3    3    0    0 -0.34662990138E-01  0.39784129311E-01 -0.12537388307E+00  0.89045095900E+00  0.88000000000E+00 0.  1.
        -11    1    4    4    0    0  0.30709270694E-01 -0.11557341933E-01  0.70399139823E-01  0.77671947754E-01  0.51100000000E-03 0. -1.
         11    1    4    4    0    0  0.21682755797E-01 -0.64452388399E-02  0.33624423960E-01  0.40528335894E-01  0.51100000000E-03 0.  1.
</event>
<event>
 8    1  0.1197213E+005  0.1043930E+01  0.7957747E-01            NaN
         13   -1    0    0    0    0  0.00000000000E+00  0.00000000000E+00  0.74505805969E-08  0.10566000000E+00  0.10566000000E+00 0. -1.
     999900   -1    0    0    0    0 -0.00000000000E+00 -0.00000000000E+00 -0.74505805969E-08  0.93827000000E+00  0.93827000000E+00 0. -1.
     999902    2    1    2    0    0  0.27003319361E-02 -0.22585038241E-02  0.23382699186E-01  0.10202837899E+01  0.10200097395E+01 0.  0.
     999903    2    3    3    0    0 -0.29798487644E-01 -0.32141303360E-01  0.12436069577E+00  0.13340966646E+00  0.20286527679E-01 0.  0.
         14    1    1    2    0    0 -0.27003319361E-02  0.22585038241E-02 -0.23382699186E-01  0.23646210126E-01  0.00000000000E+00 0.  1.
     999901    1    3    3    0    0  0.32498819580E-01  0.29882799536E-01 -0.10097799659E+00  0.88687412341E+00  0.88000000000E+00 0. -1.
        -11    1    4    4    0    0 -0.31621710329E-01 -0.23867503852E-01  0.97619235145E-01  0.10535353101E+00  0.51100000000E-03 0.  1.
         11    1    4    4    0    0  0.18232226857E-02 -0.82737995077E-02  0.26741460627E-01  0.28056135456E-01  0.51100000000E-03 0. -1.
</event>
<event>
 8    1  0.1197213E+005  0.1043930E+01  0.7957747E-01            NaN
         13   -1    0    0    0    0  0.00000000000E+00  0.00000000000E+00  0.74505805969E-08  0.10566000000E+00  0.10566000000E+00 0.  1.
     999900   -1    0    0    0    0 -0.00000000000E+00 -0.00000000000E+00 -0.74505805969E-08  0.93827000000E+00  0.93827000000E+00 0. -1.
     999902    2    1    2    0    0  0.16775519750E-01  0.16764028116E-01  0.30894653668E-02  0.10200135726E+01  0.10197331479E+01 0.  0.
     999903    2    3    3    0    0  0.23288257727E-01  0.54772058378E-01  0.11621169793E+00  0.13193493557E+00  0.18956454284E-01 0.  0.
         14    1    1    2    0    0 -0.16775519750E-01 -0.16764028116E-01 -0.30894653668E-02  0.23916427364E-01  0.00000000000E+00 0. -1.
     999901    1    3    3    0    0 -0.65127379762E-02 -0.38008030262E-01 -0.11312223257E+00  0.88807863707E+00  0.88000000000E+00 0. -1.
        -11    1    4    4    0    0  0.69749504670E-02  0.27424064944E-01  0.37170552302E-01  0.46718736621E-01  0.51100000000E-03 0.  1.
         11    1    4    4    0    0  0.16313307260E-01  0.27347993434E-01  0.79041145633E-01  0.85216198945E-01  0.51100000000E-03 0. -1.
</event>
<event>
 8    1  0.1197213E+005  0.1043930E+01  0.7957747E-01            NaN
         13   -1    0    0    0    0  0.00000000000E+00  0.00000000000E+00  0.74505805969E-08  0.10566000000E+00  0.10566000000E+00 0.  1.
     999900   -1    0    0    0    0 -0.00000000000E+00 -0.00000000000E+00 -0.74505805969E-08  0.93827000000E+00  0.93827000000E+00 0.  1.
     999902    2    1    2    0    0  0.56916953298E-02  0.20217385835E-01  0.40098601123E-02  0.10225473654E+01  0.10223237733E+01 0.  0.
     999903    2    3    3    0    0 -0.33881848270E-01 -0.12346324903E+00  0.89466000884E-02  0.13000349441E+00  0.20729529683E-01 0.  0.
         14    1    1    2    0    0 -0.56916953298E-02 -0.20217385835E-01 -0.40098601123E-02  0.21382634633E-01  0.00000000000E+00 0.  1.
     999901    1    3    3    0    0  0.39573543599E-01  0.14368063487E+00 -0.49367399761E-02  0.89254387096E+00  0.88000000000E+00 0.  1.
        -11    1    4    4    0    0 -0.27604473588E-01 -0.10845620064E+00  0.14402776767E-01  0.11283818289E+00  0.51100000000E-03 0. -1.
         11    1    4    4    0    0 -0.62773746813E-02 -0.15007048393E-01 -0.54561766788E-02  0.17165311512E-01  0.51100000000E-03 0.  1.
</event>
<event>
 8    1  0.1197213E+005  0.1043930E+01  0.7957747E-01            NaN
         13   -1    0    0    0    0  0.00000000000E+00  0.00000000000E+00  0.74505805969E-08  0.10566000000E+00  0.10566000000E+00 0. -1.
     999900   -1    0    0    0    0 -0.00000000000E+00 -0.00000000000E+00 -0.74505805969E-08  0.93827000000E+00  0.93827000000E+00 0. -1.
     999902    2    1    2    0    0  0.42572172548E-02 -0.78562567597E-02 -0.24032183656E-01  0.10182903721E+01  0.10179675296E+01 0.  0.
     999903    2    3    3    0    0 -0.45260427302E-01 -0.39248372226E-01  0.10926194912E+00  0.12632356335E+00  0.20749171740E-01 0.  0.
         14    1    1    2    0    0 -0.42572172548E-02  0.78562567597E-02  0.24032183656E-01  0.25639627928E-01  0.00000000000E+00 0. -1.
     999901    1    3    3    0    0  0.49517644556E-01  0.31392115466E-01 -0.13329413278E+00  0.89196680873E+00  0.88000000000E+00 0. -1.
        -11    1    4    4    0    0 -0.24160386909E-01 -0.27578948528E-01  0.47408269465E-01  0.59934362700E-01  0.51100000000E-03 0. -1.
         11    1    4    4    0    0 -0.21100040392E-01 -0.11669423698E-01  0.61853679659E-01  0.66389200646E-01  0.51100000000E-03 0.  1.
</event>
<event>
 7    1  0.1197213E+005  0.1043930E+01  0.7957747E-01            NaN
         13   -1    0    0    0    0  0.00000000000E+00  0.00000000000E+00  0.74505805969E-08  0.10566000000E+00  0.10566000000E+00 0.  1.
     999900   -1    0    0    0    0 -0.00000000000E+00 -0.00000000000E+00 -0.74505805969E-08  0.93827000000E+00  0.93827000000E+00 0. -1.
     999903    2    1    2    0    0  0.43013705356E-01  0.70424755643E-01  0.68406148159E-01  0.10948665483E+00  0.22318185933E-01 0.  0.
         14    1    1    2    0    0  0.22278014703E-01 -0.66714976611E-02 -0.43556002099E-01  0.49375541911E-01  0.00000000000E+00 0. -1.
     999901    1    1    2    0    0 -0.65291720059E-01 -0.63753257982E-01 -0.24850146060E-01  0.88506780326E+00  0.88000000000E+00 0. -1.
        -11    1    3    3    0    0  0.98644432138E-02  0.36591519521E-02  0.51702131302E-02  0.11734089557E-01  0.51100000000E-03 0.  1.
         11    1    3    3    0    0  0.33149262142E-01  0.66765603691E-01  0.63235935029E-01  0.97752565269E-01  0.51100000000E-03 0. -1.
</event>
<event>
 8    1  0.1197213E+005  0.1043930E+01  0.7957747E-01            NaN
         13   -1    0    0    0    0  0.00000000000E+00  0.00000000000E+00  0.74505805969E-08  0.10566000000E+00  0.10566000000E+00 0. -1.
     999900   -1    0    0    0    0 -0.00000000000E+00 -0.00000000000E+00 -0.74505805969E-08  0.93827000000E+00  0.93827000000E+00 0.  1.
     999902    2    1    2    0    0 -0.25673150151E-01  0.48412321734E-03  0.12400429903E-02  0.10182223607E+01  0.10178977812E+01 0.  0.
     999903    2    3    3    0    0 -0.71214750849E-01  0.99401446054E-01 -0.39165725587E-01  0.13058994784E+00  0.23824193577E-01 0.  0.
         14    1    1    2    0    0  0.25673150151E-01 -0.48412321734E-03 -0.12400429903E-02  0.25707639343E-01  0.00000000000E+00 0.  1.
     999901    1    3    3    0    0  0.45541600698E-01 -0.98917322837E-01  0.40405768578E-01  0.88763241282E+00  0.88000000000E+00 0.  1.
        -11    1    4    4    0    0 -0.32324294632E-01  0.51058454660E-01 -0.73978334581E-02  0.60883617473E-01  0.51100000000E-03 0. -1.
         11    1    4    4    0    0 -0.38890456217E-01  0.48342991394E-01 -0.31767892129E-01  0.69706330365E-01  0.51100000000E-03 0.  1.
</event>
<event>
 8    1  0.1328388E+005  0.1043930E+01  0.7957747E-01            NaN
         13   -1    0    0    0    0  0.00000000000E+00  0.00000000000E+00  0.74505805969E-08  0.10566000000E+00  0.10566000000E+00 0.  1.
     999900   -1    0    0    0    0 -0.00000000000E+00 -0.00000000000E+00 -0.74505805969E-08  0.93827000000E+00  0.93827000000E+00 0.  1.
     999902    2    1    2    0    0  0.97701657506E-02  0.15296684949E-01 -0.72590842371E-02  0.10243816238E+01  0.10241950850E+01 0.  0.
     999903    2    3    3    0    0  0.34657177889E-02 -0.12875387090E+00  0.21460366226E-01  0.13218483184E+00  0.20559960559E-01 0.  0.
         14    1    1    2    0    0 -0.97701657506E-02 -0.15296684949E-01  0.72590842371E-02  0.19548376229E-01  0.00000000000E+00 0.  1.
     999901    1    3    3    0    0  0.63044479616E-02  0.14405055585E+00 -0.28719450463E-01  0.89219679193E+00  0.88000000000E+00 0.  1.
        -11    1    4    4    0    0  0.20178846690E-02 -0.80972932612E-01  0.23487413649E-01  0.84336275678E-01  0.51100000000E-03 0.  1.
         11    1    4    4    0    0  0.14478331199E-02 -0.47780938286E-01 -0.20270474230E-02  0.47848556159E-01  0.51100000000E-03 0. -1.
</event>
<event>
 8    1  0.1197213E+005  0.1043930E+01  0.7957747E-01            NaN
         13   -1    0    0    0    0  0.00000000000E+00  0.00000000000E+00  0.74505805969E-08  0.10566000000E+00  0.10566000000E+00 0.  1.
     999900   -1    0    0    0    0 -0.00000000000E+00 -0.00000000000E+00 -0.74505805969E-08  0.93827000000E+00  0.93827000000E+00 0.  1.
     999902    2    1    2    0    0 -0.85291264767E-02  0.43287957554E-02 -0.21414490097E-01  0.10204765385E+01  0.10202069892E+01 0.  0.
     999903    2    3    3    0    0 -0.59576739609E-01 -0.52607571491E-01  0.99449005541E-01  0.12892979641E+00  0.20392234256E-01 0.  0.
         14    1    1    2    0    0  0.85291264767E-02 -0.43287957554E-02  0.21414490097E-01  0.23453461520E-01  0.00000000000E+00 0.  1.
     999901    1    3    3    0    0  0.51047613132E-01  0.56936367247E-01 -0.12086349564E+00  0.89154674207E+00  0.88000000000E+00 0.  1.
        -11    1    4    4    0    0 -0.51319147321E-01 -0.39142124993E-01  0.68131405526E-01  0.93850468143E-01  0.51100000000E-03 0. -1.
         11    1    4    4    0    0 -0.82575922883E-02 -0.13465446498E-01  0.31317600015E-01  0.35079328265E-01  0.51100000000E-03 0.  1.
</event>
<event>
 8    1  0.1197213E+005  0.1043930E+01  0.7957747E-01            NaN
         13   -1    0    0    0    0  0.00000000000E+00  0.00000000000E+00  0.74505805969E-08  0.10566000000E+00  0.10566000000E+00 0.  1.
     999900   -1    0    0    0    0 -0.00000000000E+00 -0.00000000000E+00 -0.74505805969E-08  0.93827000000E+00  0.93827000000E+00 0. -1.
     999902    2    1    2    0    0 -0.85286433907E-02 -0.22383727653E-01 -0.97252264719E-02  0.10180775523E+01  0.10177492586E+01 0.  0.
     999903    2    3    3    0    0  0.52974898538E-02  0.44773130817E-01 -0.11863432617E+00  0.12871688441E+00  0.21476413697E-01 0.  0.
         14    1    1    2    0    0  0.85286433907E-02  0.22383727653E-01  0.97252264719E-02  0.25852447692E-01  0.00000000000E+00 0.  1.
     999901    1    3    3    0    0 -0.13826133245E-01 -0.67156858470E-01  0.10890909970E+00  0.88936066789E+00  0.88000000000E+00 0.  1.
        -11    1    4    4    0    0  0.12292617435E-01  0.36812855540E-01 -0.84861053867E-01  0.93316420639E-01  0.51100000000E-03 0. -1.
         11    1    4    4    0    0 -0.69951275817E-02  0.79602752767E-02 -0.33773272303E-01  0.35400463774E-01  0.51100000000E-03 0.  1.
</event>
<event>
 8    1  0.1197213E+005  0.1043930E+01  0.7957747E-01            NaN
         13   -1    0    0    0    0  0.00000000000E+00  0.00000000000E+00  0.74505805969E-08  0.10566000000E+00  0.10566000000E+00 0.  1.
     999900   -1    0    0    0    0 -0.00000000000E+00 -0.00000000000E+00 -0.74505805969E-08  0.93827000000E+00  0.93827000000E+00 0.  1.
     999902    2    1    2    0    0 -0.22205561420E-01  0.62336469431E-02 -0.43740394930E-02  0.10204549593E+01  0.10201849080E+01 0.  0.
     999903    2    3    3    0    0 -0.85600312192E-01  0.39654390761E-01  0.90557994986E-01  0.13245274555E+00  0.21049826432E-01 0.  0.
         14    1    1    2    0    0  0.22205561420E-01 -0.62336469431E-02  0.43740394930E-02  0.23475040653E-01  0.00000000000E+00 0.  1.
     999901    1    3    3    0    0  0.63394750772E-01 -0.33420743818E-01 -0.94932034479E-01  0.88800221380E+00  0.88000000000E+00 0.  1.
        -11    1    4    4    0    0 -0.16040043795E-01  0.27097475378E-02  0.25707527476E-01  0.30426367292E-01  0.51100000000E-03 0. -1.
         11    1    4    4    0    0 -0.69560268397E-01  0.36944643224E-01  0.64850467510E-01  0.10202637825E+00  0.51100000000E-03 0.  1.
</event>
<event>
 8    1  0.1197213E+005  0.1043930E+01  0.7957747E-01            NaN
         13   -1    0    0    0    0  0.00000000000E+00  0.00000000000E+00  0.74505805969E-08  0.10566000000E+00  0.10566000000E+00 0.  1.
     999900   -1    0    0    0    0 -0.00000000000E+00 -0.00000000000E+00 -0.74505805969E-08  0.93827000000E+00  0.93827000000E+00 0. -1.
     999902    2    1    2    0    0 -0.12236830601E-01 -0.66499001050E-03 -0.20439964437E-01  0.10200977869E+01  0.10198193568E+01 0.  0.
     999903    2    3    3    0    0  0.74293690731E-01 -0.21502148209E-01  0.99326319529E-01  0.12753648309E+00  0.20443627583E-01 0.  0.
         14    1    1    2    0    0  0.12236830601E-01  0.66499001050E-03  0.20439964437E-01  0.23832213096E-01  0.00000000000E+00 0. -1.
     999901    1    3    3    0    0 -0.86530521332E-01  0.20837158198E-01 -0.11976628397E+00  0.89256130381E+00  0.88000000000E+00 0.  1.
        -11    1    4    4    0    0  0.57560202434E-01 -0.25214230927E-01  0.78788527080E-01  0.10078108685E+00  0.51100000000E-03 0. -1.
         11    1    4    4    0    0  0.16733488297E-01  0.37120827179E-02  0.20537792449E-01  0.26755396248E-01  0.51100000000E-03 0.  1.
</event>
<event>
 8    1  0.1197213E+005  0.1043930E+01  0.7957747E-01            NaN
         13   -1    0    0    0    0  0.00000000000E+00  0.00000000000E+00  0.74505805969E-08  0.10566000000E+00  0.10566000000E+00 0.  1.
     999900   -1    0    0    0    0 -0.00000000000E+00 -0.00000000000E+00 -0.74505805969E-08  0.93827000000E+00  0.93827000000E+00 0.  1.
     999902    2    1    2    0    0 -0.19138281459E-01 -0.29559368399E-02  0.14245077346E-01  0.10198897502E+01  0.10196063795E+01 0.  0.
     999903    2    3    3    0    0 -0.60532639158E-01  0.10067977272E+00 -0.52614334985E-01  0.13032579292E+00  0.20394288832E-01 0.  0.
         14    1    1    2    0    0  0.19138281459E-01  0.29559368399E-02 -0.14245077346E-01  0.24040249757E-01  0.00000000000E+00 0. -1.
     999901    1    3    3    0    0  0.41394357699E-01 -0.10363570956E+00  0.66859412331E-01  0.88956395732E+00  0.88000000000E+00 0. -1.
        -11    1    4    4    0    0 -0.58934104473E-01  0.89965155734E-01 -0.42985915400E-01  0.11582317540E+00  0.51100000000E-03 0. -1.
         11    1    4    4    0    0 -0.15985346847E-02  0.10714616985E-01 -0.96284195852E-02  0.14502617522E-01  0.51100000000E-03 0.  1.
</event>
<event>
 8    1  0.1197213E+005  0.1043930E+01  0.7957747E-01            NaN
         13   -1    0    0    0    0  0.00000000000E+00  0.00000000000E+00  0.74505805969E-08  0.10566000000E+00  0.10566000000E+00 0.  1.
     999900   -1    0    0    0    0 -0.00000000000E+00 -0.00000000000E+00 -0.74505805969E-08  0.93827000000E+00  0.93827000000E+00 0.  1.
     999902    2    1    2    0    0  0.24568557202E-01  0.21950003747E-02  0.21252032774E-02  0.10191722029E+01  0.10188714495E+01 0.  0.
     999903    2    3    3    0    0  0.73230589347E-01  0.40191134650E-01  0.10002606162E+00  0.13159331756E+00  0.18263124121E-01 0.  0.
         14    1    1    2    0    0 -0.24568557202E-01 -0.21950003747E-02 -0.21252032774E-02  0.24757797128E-01  0.00000000000E+00 0.  1.
     999901    1    3    3    0    0 -0.48662032145E-01 -0.37996134275E-01 -0.97900858340E-01  0.88757888531E+00  0.88000000000E+00 0.  1.
        -11    1    4    4    0    0  0.69418226420E-01  0.32902244988E-01  0.85919370334E-01  0.11525557342E+00  0.51100000000E-03 0.  1.
         11    1    4    4    0    0  0.38123629273E-02  0.72888896619E-02  0.14106691283E-01  0.16337744139E-01  0.51100000000E-03 0. -1.
</event>
<event>
 8    1  0.1197213E+005  0.1043930E+01  0.7957747E-01            NaN
         13   -1    0    0    0    0  0.00000000000E+00  0.00000000000E+00  0.74505805969E-08  0.10566000000E+00  0.10566000000E+00 0.  1.
     999900   -1    0    0    0    0 -0.00000000000E+00 -0.00000000000E+00 -0.74505805969E-08  0.93827000000E+00  0.93827000000E+00 0. -1.
     999902    2    1    2    0    0 -0.52708816176E-02 -0.20110304168E-02  0.22844114551E-01  0.10203995940E+01  0.10201282525E+01 0.  0.
     999903    2    3    3    0    0  0.70526587182E-01 -0.50995403134E-01  0.97803804512E-01  0.13261376389E+00  0.21125708400E-01 0.  0.
         14    1    1    2    0    0  0.52708816176E-02  0.20110304168E-02 -0.22844114551E-01  0.23530405988E-01  0.00000000000E+00 0. -1.
     999901    1    3    3    0    0 -0.75797468800E-01  0.48984372717E-01 -0.74959689961E-01  0.88778583012E+00  0.88000000000E+00 0. -1.
        -11    1    4    4    0    0  0.44120813753E-01 -0.23225560103E-01  0.43639160277E-01  0.66262434900E-01  0.51100000000E-03 0. -1.
         11    1    4    4    0    0  0.26405773430E-01 -0.27769843031E-01  0.54164644236E-01  0.66351328989E-01  0.51100000000E-03 0.  1.
</event>
<event>
 7    1  0.1197213E+005  0.1043930E+01  0.7957747E-01            NaN
         13   -1    0    0    0    0  0.00000000000E+00  0.00000000000E+00  0.74505805969E-08  0.10566000000E+00  0.10566000000E+00 0. -1.
     999900   -1    0    0    0    0 -0.00000000000E+00 -0.00000000000E+00 -0.74505805969E-08  0.93827000000E+00  0.93827000000E+00 0.  1.
     999902    2    1    2    0    0 -0.69725576903E-02 -0.23012871266E-01 -0.61088691519E-03  0.10198762687E+01  0.10195925763E+01 0.  0.
         14    1    1    2    0    0  0.69725576903E-02  0.23012871266E-01  0.61088691519E-03  0.24053731258E-01  0.00000000000E+00 0. -1.
     999901    1    3    3    0    0 -0.25037263740E-02  0.97298529576E-01  0.55312164298E-01  0.88709227706E+00  0.88000000000E+00 0.  1.
        -11    1    3    3    0    0 -0.39947925947E-03 -0.17231045234E-01 -0.90252843355E-02  0.19462409457E-01  0.51100000000E-03 0. -1.
         11    1    3    3    0    0 -0.40693520569E-02 -0.10308035561E+00 -0.46897766877E-01  0.11332158222E+00  0.51100000000E-03 0.  1.
</event>
<event>
 8    1  0.1197213E+005  0.1043930E+01  0.7957747E-01            NaN
         13   -1    0    0    0    0  0.00000000000E+00  0.00000000000E+00  0.74505805969E-08  0.10566000000E+00  0.10566000000E+00 0. -1.
     999900   -1    0    0    0    0 -0.00000000000E+00 -0.00000000000E+00 -0.74505805969E-08  0.93827000000E+00  0.93827000000E+00 0. -1.
     999902    2    1    2    0    0 -0.22152333896E-01 -0.85712135018E-02 -0.60705460329E-02  0.10194138191E+01  0.10191189780E+01 0.  0.
     999903    2    3    3    0    0  0.90253555359E-01 -0.61933570495E-01  0.61272406377E-01  0.12811269245E+00  0.26020814262E-01 0.  0.
         14    1    1    2    0    0  0.22152333896E-01  0.85712135018E-02  0.60705460329E-02  0.24516180923E-01  0.00000000000E+00 0. -1.
     999901    1    3    3    0    0 -0.11240588926E+00  0.53362356993E-01 -0.67342952410E-01  0.89130112662E+00  0.88000000000E+00 0.  1.
        -11    1    4    4    0    0  0.63600163687E-01 -0.31341498104E-01  0.47136798752E-01  0.85143462709E-01  0.51100000000E-03 0.  1.
         11    1    4    4    0    0  0.26653391673E-01 -0.30592072391E-01  0.14135607624E-01  0.42969229744E-01  0.51100000000E-03 0. -1.
</event>
<event>
 8    1  0.1197213E+005  0.1043930E+01  0.7957747E-01            NaN
         13   -1    0    0    0    0  0.00000000000E+00  0.00000000000E+00  0.74505805969E-08  0.10566000000E+00  0.10566000000E+00 0.  1.
     999900   -1    0    0    0    0 -0.00000000000E+00 -0.00000000000E+00 -0.74505805969E-08  0.93827000000E+00  0.93827000000E+00 0. -1.
     999902    2    1    2    0    0  0.98704884248E-03 -0.16067813989E-01 -0.16492380006E-01  0.10208833623E+01  0.10206231880E+01 0.  0.
     999903    2    3    3    0    0  0.10541354863E+00  0.60805246521E-01  0.39999603718E-01  0.12958896338E+00  0.19596859285E-01 0.  0.
         14    1    1    2    0    0 -0.98704884248E-03  0.16067813989E-01  0.16492380006E-01  0.23046637717E-01  0.00000000000E+00 0.  1.
     999901    1    3    3    0    0 -0.10442649978E+00 -0.76873060511E-01 -0.56491983724E-01  0.89129439890E+00  0.88000000000E+00 0. -1.
        -11    1    4    4    0    0  0.66373701633E-01  0.48881809772E-01  0.27311088089E-01  0.86839255229E-01  0.51100000000E-03 0. -1.
         11    1    4    4    0    0  0.39039846993E-01  0.11923436749E-01  0.12688515629E-01  0.42749708152E-01  0.51100000000E-03 0.  1.
</event>
<event>
 8    1  0.1197213E+005  0.1043930E+01  0.7957747E-01            NaN
         13   -1    0    0    0    0  0.00000000000E+00  0.00000000000E+00  0.74505805969E-08  0.10566000000E+00  0.10566000000E+00 0.  1.
     999900   -1    0    0    0    0 -0.00000000000E+00 -0.00000000000E+00 -0.74505805969E-08  0.93827000000E+00  0.93827000000E+00 0. -1.
     999902    2    1    2    0    0 -0.60280887171E-02 -0.32017903939E-02  0.22303368807E-01  0.10206055584E+01  0.10203390007E+01 0.  0.
     999903    2    3    3    0    0 -0.55170356538E-01 -0.72690332071E-01 -0.89754692380E-01  0.12942621115E+00  0.19172550971E-01 0.  0.
         14    1    1    2    0    0  0.60280887171E-02  0.32017903939E-02 -0.22303368807E-01  0.23324441589E-01  0.00000000000E+00 0. -1.
     999901    1    3    3    0    0  0.49142267821E-01  0.69488541677E-01  0.11205806119E+00  0.89117934726E+00  0.88000000000E+00 0.  1.
        -11    1    4    4    0    0 -0.21397444226E-01 -0.14616106444E-01 -0.21783605976E-01  0.33856576869E-01  0.51100000000E-03 0. -1.
         11    1    4    4    0    0 -0.33772912312E-01 -0.58074225627E-01 -0.67971086404E-01  0.95569634278E-01  0.51100000000E-03 0.  1.
</event>
<event>
 8    1  0.1197213E+005  0.1043930E+01  0.7957747E-01            NaN
         13   -1    0    0    0    0  0.00000000000E+00  0.00000000000E+00  0.74505805969E-08  0.10566000000E+00  0.10566000000E+00 0.  1.
     999900   -1    0    0    0    0 -0.00000000000E+00 -0.00000000000E+00 -0.74505805969E-08  0.93827000000E+00  0.93827000000E+00 0. -1.
     999902    2    1    2    0    0  0.49371085373E-03  0.23745132181E-01  0.11192687120E-01  0.10176744997E+01  0.10173357538E+01 0.  0.
     999903    2    3    3    0    0  0.26190375257E-01 -0.73036217796E-01  0.98735613297E-01  0.12767971755E+00  0.23090345942E-01 0.  0.
         14    1    1    2    0    0 -0.49371085373E-03 -0.23745132181E-01 -0.11192687120E-01  0.26255500332E-01  0.00000000000E+00 0. -1.
     999901    1    3    3    0    0 -0.25696664403E-01  0.96781349977E-01 -0.87542926177E-01  0.88999478211E+00  0.88000000000E+00 0.  1.
        -11    1    4    4    0    0  0.28892713969E-01 -0.59006364702E-01  0.72799232552E-01  0.98063904557E-01  0.51100000000E-03 0. -1.
         11    1    4    4    0    0 -0.27023387124E-02 -0.14029853094E-01  0.25936380745E-01  0.29615812998E-01  0.51100000000E-03 0.  1.
</event>
<event>
 8    1  0.1197213E+005  0.1043930E+01  0.7957747E-01            NaN
         13   -1    0    0    0    0  0.00000000000E+00  0.00000000000E+00  0.74505805969E-08  0.10566000000E+00  0.10566000000E+00 0.  1.
     999900   -1    0    0    0    0 -0.00000000000E+00 -0.00000000000E+00 -0.74505805969E-08  0.93827000000E+00  0.93827000000E+00 0.  1.
     999902    2    1    2    0    0 -0.23228984462E-01 -0.51600828879E-02 -0.10686463835E-02  0.10201108023E+01  0.10198326798E+01 0.  0.
     999903    2    3    3    0    0 -0.87445169809E-01  0.94790816259E-01  0.19432462008E-01  0.13189112442E+00  0.19639031340E-01 0.  0.
         14    1    1    2    0    0  0.23228984462E-01  0.51600828879E-02  0.10686463835E-02  0.23819197712E-01  0.00000000000E+00 0.  1.
     999901    1    3    3    0    0  0.64216185346E-01 -0.99950899147E-01 -0.20501108392E-01  0.88821967786E+00  0.88000000000E+00 0.  1.
        -11    1    4    4    0    0 -0.27775317429E-01  0.17798159935E-01  0.33378781999E-02  0.33160900278E-01  0.51100000000E-03 0.  1.
         11    1    4    4    0    0 -0.59669852380E-01  0.76992656324E-01  0.16094583808E-01  0.98730224145E-01  0.51100000000E-03 0. -1.
</event>
<event>
 8    1  0.1197213E+005  0.1043930E+01  0.7957747E-01            NaN
         13   -1    0    0    0    0  0.00000000000E+00  0.00000000000E+00  0.74505805969E-08  0.10566000000E+00  0.10566000000E+00 0.  1.
     999900   -1    0    0    0    0 -0.00000000000E+00 -0.00000000000E+00 -0.74505805969E-08  0.93827000000E+00  0.93827000000E+00 0. -1.
     999902    2    1    2    0    0  0.12348584967E-01  0.61701870607E-02 -0.18174836265E-01  0.10211071292E+01  0.10208520392E+01 0.  0.
     999903    2    3    3    0    0 -0.41608738268E-01  0.86767425787E-02  0.11980453178E+00  0.12871933144E+00  0.20222944654E-01 0.  0.
         14    1    1    2    0    0 -0.12348584967E-01 -0.61701870607E-02  0.18174836265E-01  0.22822870816E-01  0.00000000000E+00 0.  1.
     999901    1    3    3    0    0  0.53957323234E-01 -0.25065555180E-02 -0.13797936804E+00  0.89238779774E+00  0.88000000000E+00 0. -1.
        -11    1    4    4    0    0 -0.20051313377E-01  0.45483354390E-02  0.30719819010E-01  0.36969053604E-01  0.51100000000E-03 0.  1.
         11    1    4    4    0    0 -0.21557424891E-01  0.41284071397E-02  0.89084712768E-01  0.91750277838E-01  0.51100000000E-03 0. -1.
</event>
<event>
 8    1  0.1197213E+005  0.1043930E+01  0.7957747E-01            NaN
         13   -1    0    0    0    0  0.00000000000E+00  0.00000000000E+00  0.74505805969E-08  0.10566000000E+00  0.10566000000E+00 0.  1.
     999900   -1    0    0    0    0 -0.00000000000E+00 -0.00000000000E+00 -0.74505805969E-08  0.93827000000E+00  0.93827000000E+00 0. -1.
     999902    2    1    2    0    0  0.48604603744E-02 -0.13253425924E-01  0.16884583419E-01  0.10219216713E+01  0.10216846558E+01 0.  0.
     999903    2    3    3    0    0  0.12702163308E+00  0.28975341036E-01  0.13400713202E-01  0.13247310158E+00  0.19886625416E-01 0.  0.
         14    1    1    2    0    0 -0.48604603744E-02  0.13253425924E-01 -0.16884583419E-01  0.22008328673E-01  0.00000000000E+00 0. -1.
     999901    1    3    3    0    0 -0.12216117270E+00 -0.42228766960E-01  0.34838702166E-02  0.88944856975E+00  0.88000000000E+00 0. -1.
        -11    1    4    4    0    0  0.54566235655E-01  0.22558993971E-01  0.54293643633E-02  0.59296892000E-01  0.51100000000E-03 0.  1.
         11    1    4    4    0    0  0.72455397420E-01  0.64163470651E-02  0.79713488387E-02  0.73176209579E-01  0.51100000000E-03 0. -1.
</event>
<event>
 8    1  0.1197213E+005  0.1043930E+01  0.7957747E-01            NaN
         13   -1    0    0    0    0  0.00000000000E+00  0.00000000000E+00  0.74505805969E-08  0.10566000000E+00  0.10566000000E+00 0.  1.
     999900   -1    0    0    0    0 -0.00000000000E+00 -0.00000000000E+00 -0.74505805969E-08  0.93827000000E+00  0.93827000000E+00 0.  1.
     999902    2    1    2    0    0 -0.12689201520E-01 -0.34499173280E-02  0.13094014511E-01  0.10253727647E+01  0.10252048262E+01 0.  0.
     999903    2    3    3    0    0 -0.68498653778E-01 -0.10610590678E+00  0.48974779856E-01  0.13692446773E+00  0.19981285692E-01 0.  0.
         14    1    1    2    0    0  0.12689201520E-01  0.34499173280E-02 -0.13094014511E-01  0.18557235269E-01  0.00000000000E+00 0. -1.
     999901    1    3    3    0    0  0.55809452257E-01  0.10265598945E+00 -0.35880765345E-01  0.88844829701E+00  0.88000000000E+00 0. -1.
        -11    1    4    4    0    0 -0.42537831542E-01 -0.82007438115E-01  0.33576243811E-01  0.98297061441E-01  0.51100000000E-03 0.  1.
         11    1    4    4    0    0 -0.25960822235E-01 -0.24098468661E-01  0.15398536046E-01  0.38627406285E-01  0.51100000000E-03 0. -1.
</event>
<event>
 8    1  0.1197213E+005  0.1043930E+01  0.7957747E-01            NaN
         13   -1    0    0    0    0  0.00000000000E+00  0.00000000000E+00  0.74505805969E-08  0.10566000000E+00  0.10566000000E+00 0. -1.
     999900   -1    0    0    0    0 -0.00000000000E+00 -0.00000000000E+00 -0.74505805969E-08  0.93827000000E+00  0.93827000000E+00 0.  1.
     999902    2    1    2    0    0 -0.23344958645E-01 -0.19346125407E-02  0.64033058783E-02  0.10196455987E+01  0.10193563728E+01 0.  0.
     999903    2    3    3    0    0  0.82545882933E-01 -0.52679879905E-01 -0.79427304455E-01  0.12770678570E+00  0.20281367904E-01 0.  0.
         14    1    1    2    0    0  0.23344958645E-01  0.19346125407E-02 -0.64033058783E-02  0.24284401290E-01  0.00000000000E+00 0.  1.
     999901    1    3    3    0    0 -0.10589084158E+00  0.50745267364E-01  0.85830610333E-01  0.89193881301E+00  0.88000000000E+00 0.  1.
        -11    1    4    4    0    0  0.68691467811E-01 -0.34941903446E-01 -0.56395628899E-01  0.95499646315E-01  0.51100000000E-03 0. -1.
         11    1    4    4    0    0  0.13854415123E-01 -0.17737976459E-01 -0.23031675556E-01  0.32207139382E-01  0.51100000000E-03 0.  1.
</event>
<event>
 8    1  0.1197213E+005  0.1043930E+01  0.7957747E-01            NaN
         13   -1    0    0    0    0  0.00000000000E+00  0.00000000000E+00  0.74505805969E-08  0.10566000000E+00  0.10566000000E+00 0.  1.
     999900   -1    0    0    0    0 -0.00000000000E+00 -0.00000000000E+00 -0.74505805969E-08  0.93827000000E+00  0.93827000000E+00 0.  1.
     999902    2    1    2    0    0 -0.83497367457E-02 -0.18550694964E-01 -0.13321918598E-01  0.10196129298E+01  0.10193229158E+01 0.  0.
     999903    2    3    3    0    0 -0.59075715317E-01 -0.11091172309E+00 -0.37709921025E-01  0.13299099286E+00  0.21753518767E-01 0.  0.
         14    1    1    2    0    0  0.83497367457E-02  0.18550694964E-01  0.13321918598E-01  0.24317070187E-01  0.00000000000E+00 0.  1.
     999901    1    3    3    0    0  0.50725978571E-01  0.92361028131E-01  0.24388002427E-01  0.88662193695E+00  0.88000000000E+00 0. -1.
        -11    1    4    4    0    0 -0.31827603313E-01 -0.38588161986E-01 -0.18659408224E-01  0.53389860595E-01  0.51100000000E-03 0.  1.
         11    1    4    4    0    0 -0.27248112004E-01 -0.72323561108E-01 -0.19050512801E-01  0.79601132267E-01  0.51100000000E-03 0. -1.
</event>
<event>
 8    1  0.1221713E+005  0.1043930E+01  0.7957747E-01            NaN
         13   -1    0    0    0    0  0.00000000000E+00  0.00000000000E+00  0.74505805969E-08  0.10566000000E+00  0.10566000000E+00 0.  1.
     999900   -1    0    0    0    0 -0.00000000000E+00 -0.00000000000E+00 -0.74505805969E-08  0.93827000000E+00  0.93827000000E+00 0.  1.
     999902    2    1    2    0    0  0.25071658935E-01  0.15918167469E-03  0.57121609172E-02  0.10182153699E+01  0.10178906116E+01 0.  0.
     999903    2    3    3    0    0 -0.44635984186E-01 -0.84776883133E-01  0.82567741225E-01  0.12805804060E+00  0.20048413264E-01 0.  0.
         14    1    1    2    0    0 -0.25071658935E-01 -0.15918167469E-03 -0.57121609172E-02  0.25714630134E-01  0.00000000000E+00 0.  1.
     999901    1    3    3    0    0  0.69707643121E-01  0.84936064807E-01 -0.76855580308E-01  0.89015732926E+00  0.88000000000E+00 0.  1.
        -11    1    4    4    0    0 -0.16673423676E-01 -0.29062254978E-01  0.41790020166E-01  0.53565703840E-01  0.51100000000E-03 0. -1.
         11    1    4    4    0    0 -0.27962560510E-01 -0.55714628155E-01  0.40777721060E-01  0.74492336764E-01  0.51100000000E-03 0.  1.
</event>
<event>
 8    1  0.1197213E+005  0.1043930E+01  0.7957747E-01            NaN
         13   -1    0    0    0    0  0.00000000000E+00  0.00000000000E+00  0.74505805969E-08  0.10566000000E+00  0.10566000000E+00 0.  1.
     999900   -1    0    0    0    0 -0.00000000000E+00 -0.00000000000E+00 -0.74505805969E-08  0.93827000000E+00  0.93827000000E+00 0. -1.
     999902    2    1    2    0    0  0.16450614185E-01 -0.16691847259E-01  0.60317787554E-02  0.10197303548E+01  0.10194431685E+01 0.  0.
     999903    2    3    3    0    0  0.78530167213E-01  0.68825520158E-01 -0.74485521450E-01  0.12975837399E+00  0.19626597415E-01 0.  0.
         14    1    1    2    0    0 -0.16450614185E-01  0.16691847259E-01 -0.60317787554E-02  0.24199645182E-01  0.00000000000E+00 0.  1.
     999901    1    3    3    0    0 -0.62079553028E-01 -0.85517367417E-01  0.80517300206E-01  0.88997198083E+00  0.88000000000E+00 0.  1.
        -11    1    4    4    0    0  0.42931849089E-01  0.46942814338E-01 -0.36842168425E-01  0.73514474625E-01  0.51100000000E-03 0. -1.
         11    1    4    4    0    0  0.35598318123E-01  0.21882705821E-01 -0.37643353025E-01  0.56243899360E-01  0.51100000000E-03 0.  1.
</event>
<event>
 8    1  0.1197213E+005  0.1043930E+01  0.7957747E-01            NaN
         13   -1    0    0    0    0  0.00000000000E+00  0.00000000000E+00  0.74505805969E-08  0.10566000000E+00  0.10566000000E+00 0.  1.
     999900   -1    0    0    0    0 -0.00000000000E+00 -0.00000000000E+00 -0.74505805969E-08  0.93827000000E+00  0.93827000000E+00 0.  1.
     999902    2    1    2    0    0  0.12212904533E-01  0.10932200464E-01  0.17723113260E-01  0.10197892298E+01  0.10195034558E+01 0.  0.
     999903    2    3    3    0    0 -0.40255311830E-02 -0.10445738528E+00 -0.70424415240E-01  0.12774190474E+00  0.20756823588E-01 0.  0.
         14    1    1    2    0    0 -0.12212904533E-01 -0.10932200464E-01 -0.17723113260E-01  0.24140770239E-01  0.00000000000E+00 0. -1.
     999901    1    3    3    0    0  0.16238435717E-01  0.11538958574E+00  0.88147528499E-01  0.89204732502E+00  0.88000000000E+00 0. -1.
        -11    1    4    4    0    0  0.34161114310E-02 -0.85778947017E-01 -0.51414618185E-01  0.10006708576E+00  0.51100000000E-03 0.  1.
         11    1    4    4    0    0 -0.74416426140E-02 -0.18678438258E-01 -0.19009797055E-01  0.27674818981E-01  0.51100000000E-03 0. -1.
</event>
<event>
 8    1  0.1197213E+005  0.1043930E+01  0.7957747E-01            NaN
         13   -1    0    0    0    0  0.00000000000E+00  0.00000000000E+00  0.74505805969E-08  0.10566000000E+00  0.10566000000E+00 0. -1.
     999900   -1    0    0    0    0 -0.00000000000E+00 -0.00000000000E+00 -0.74505805969E-08  0.93827000000E+00  0.93827000000E+00 0.  1.
     999902    2    1    2    0    0  0.17640008523E-01  0.13306926246E-01  0.11123651826E-01  0.10191917742E+01  0.10188915019E+01 0.  0.
     999903    2    3    3    0    0  0.73789419713E-01  0.10759564894E+00  0.97984140061E-02  0.13237450108E+00  0.20132001604E-01 0.  0.
         14    1    1    2    0    0 -0.17640008523E-01 -0.13306926246E-01 -0.11123651826E-01  0.24738225820E-01  0.00000000000E+00 0.  1.
     999901    1    3    3    0    0 -0.56149411191E-01 -0.94288722691E-01  0.13252378201E-02  0.88681727309E+00  0.88000000000E+00 0. -1.
        -11    1    4    4    0    0  0.24021653551E-01  0.46556901954E-01 -0.34725819373E-02  0.52506236822E-01  0.51100000000E-03 0. -1.
         11    1    4    4    0    0  0.49767766162E-01  0.61038746983E-01  0.13270995943E-01  0.79868264263E-01  0.51100000000E-03 0.  1.
</event>
<event>
 8    1  0.1197213E+005  0.1043930E+01  0.7957747E-01            NaN
         13   -1    0    0    0    0  0.00000000000E+00  0.00000000000E+00  0.74505805969E-08  0.10566000000E+00  0.10566000000E+00 0.  1.
     999900   -1    0    0    0    0 -0.00000000000E+00 -0.00000000000E+00 -0.74505805969E-08  0.93827000000E+00  0.93827000000E+00 0. -1.
     999902    2    1    2    0    0  0.17414403563E-01  0.76331872780E-02  0.13035518157E-01  0.10208767631E+01  0.10206164381E+01 0.  0.
     999903    2    3    3    0    0  0.70301514993E-01  0.10621568427E+00 -0.32119083218E-01  0.13264565953E+00  0.18416321268E-01 0.  0.
         14    1    1    2    0    0 -0.17414403563E-01 -0.76331872780E-02 -0.13035518157E-01  0.23053236933E-01  0.00000000000E+00 0. -1.
     999901    1    3    3    0    0 -0.52887111430E-01 -0.98582496994E-01  0.45154601375E-01  0.88823110354E+00  0.88000000000E+00 0. -1.
        -11    1    4    4    0    0  0.15895295725E-01  0.28267792572E-01 -0.16228648741E-01  0.36267873994E-01  0.51100000000E-03 0. -1.
         11    1    4    4    0    0  0.54406219268E-01  0.77947891700E-01 -0.15890434477E-01  0.96377785534E-01  0.51100000000E-03 0.  1.
</event>
<event>
 8    1  0.1197213E+005  0.1043930E+01  0.7957747E-01            NaN
         13   -1    0    0    0    0  0.00000000000E+00  0.00000000000E+00  0.74505805969E-08  0.10566000000E+00  0.10566000000E+00 0. -1.
     999900   -1    0    0    0    0 -0.00000000000E+00 -0.00000000000E+00 -0.74505805969E-08  0.93827000000E+00  0.93827000000E+00 0. -1.
     999902    2    1    2    0    0  0.10446312487E-01  0.20450124069E-01 -0.16043624674E-02  0.10209102911E+01  0.10206507314E+01 0.  0.
     999903    2    3    3    0    0 -0.10164065032E+00 -0.60558134123E-01  0.46353430258E-01  0.12881961465E+00  0.21159943637E-01 0.  0.
         14    1    1    2    0    0 -0.10446312487E-01 -0.20450124069E-01  0.16043624674E-02  0.23019708902E-01  0.00000000000E+00 0. -1.
     999901    1    3    3    0    0  0.11208696281E+00  0.81008258192E-01 -0.47957792725E-01  0.89209067645E+00  0.88000000000E+00 0.  1.
        -11    1    4    4    0    0 -0.76014141319E-01 -0.52084776949E-01  0.42759812572E-01  0.10158561100E+00  0.51100000000E-03 0. -1.
         11    1    4    4    0    0 -0.25626509004E-01 -0.84733571743E-02  0.35936176854E-02  0.27234003646E-01  0.51100000000E-03 0.  1.
</event>
<event>
 8    1  0.1197213E+005  0.1043930E+01  0.7957747E-01            NaN
         13   -1    0    0    0    0  0.00000000000E+00  0.00000000000E+00  0.74505805969E-08  0.10566000000E+00  0.10566000000E+00 0.  1.
     999900   -1    0    0    0    0 -0.00000000000E+00 -0.00000000000E+00 -0.74505805969E-08  0.93827000000E+00  0.93827000000E+00 0. -1.
     999902    2    1    2    0    0 -0.11201537928E-01  0.69589106491E-02  0.19476711676E-01  0.10204088779E+01  0.10201377529E+01 0.  0.
     999903    2    3    3    0    0  0.53219333658E-01  0.11237651019E+00  0.38665847284E-01  0.13157191760E+00  0.18850576530E-01 0.  0.
         14    1    1    2    0    0  0.11201537928E-01 -0.69589106491E-02 -0.19476711676E-01  0.23521122147E-01  0.00000000000E+00 0. -1.
     999901    1    3    3    0    0 -0.64420871586E-01 -0.10541759955E+00 -0.19189135608E-01  0.88883696025E+00  0.88000000000E+00 0.  1.
        -11    1    4    4    0    0  0.29407570083E-01  0.64185803634E-01  0.31606280046E-01  0.77355288285E-01  0.51100000000E-03 0.  1.
         11    1    4    4    0    0  0.23811763576E-01  0.48190706561E-01  0.70595672376E-02  0.54216629312E-01  0.51100000000E-03 0. -1.
</event>
<event>
 8    1  0.1197213E+005  0.1043930E+01  0.7957747E-01            NaN
         13   -1    0    0    0    0  0.00000000000E+00  0.00000000000E+00  0.74505805969E-08  0.10566000000E+00  0.10566000000E+00 0. -1.
     999900   -1    0    0    0    0 -0.00000000000E+00 -0.00000000000E+00 -0.74505805969E-08  0.93827000000E+00  0.93827000000E+00 0. -1.
     999902    2    1    2    0    0  0.42657075068E-02 -0.15384112432E-01 -0.16767686297E-01  0.10207778407E+01  0.10205152510E+01 0.  0.
     999903    2    3    3    0    0  0.10626632465E+00 -0.46849132205E-01 -0.63311457276E-01  0.13310645107E+00  0.14886697133E-01 0.  0.
         14    1    1    2    0    0 -0.42657075068E-02  0.15384112432E-01  0.16767686297E-01  0.23152159286E-01  0.00000000000E+00 0. -1.
     999901    1    3    3    0    0 -0.10200061715E+00  0.31465019773E-01  0.46543770979E-01  0.88767138964E+00  0.88000000000E+00 0. -1.
        -11    1    4    4    0    0  0.57562130771E-01 -0.22335131142E-01 -0.25784679118E-01  0.66913136081E-01  0.51100000000E-03 0.  1.
         11    1    4    4    0    0  0.48704193883E-01 -0.24514001063E-01 -0.37526778158E-01  0.66193314993E-01  0.51100000000E-03 0. -1.
</event>
<event>
 8    1  0.1197213E+005  0.1043930E+01  0.7957747E-01            NaN
         13   -1    0    0    0    0  0.00000000000E+00  0.00000000000E+00  0.74505805969E-08  0.10566000000E+00  0.10566000000E+00 0. -1.
     999900   -1    0    0    0    0 -0.00000000000E+00 -0.00000000000E+00 -0.74505805969E-08  0.93827000000E+00  0.93827000000E+00 0.  1.
     999902    2    1    2    0    0 -0.15157384401E-01 -0.27093397576E-02  0.20571533441E-01  0.10182341869E+01  0.10179099098E+01 0.  0.
     999903    2    3    3    0    0 -0.44421136519E-01  0.56865514687E-01 -0.10274422938E+00  0.12716050428E+00  0.20161672717E-01 0.  0.
         14    1    1    2    0    0  0.15157384401E-01  0.27093397576E-02 -0.20571533441E-01  0.25695813120E-01  0.00000000000E+00 0.  1.
     999901    1    3    3    0    0  0.29263752118E-01 -0.59574854444E-01  0.12331576282E+00  0.89107368260E+00  0.88000000000E+00 0. -1.
        -11    1    4    4    0    0 -0.15617462373E-01  0.88683911387E-02 -0.16829985011E-01  0.24618346996E-01  0.51100000000E-03 0. -1.
         11    1    4    4    0    0 -0.28803674147E-01  0.47997123548E-01 -0.85914244368E-01  0.10254215728E+00  0.51100000000E-03 0.  1.
</event>
<event>
 8    1  0.1197213E+005  0.1043930E+01  0.7957747E-01            NaN
         13   -1    0    0    0    0  0.00000000000E+00  0.00000000000E+00  0.74505805969E-08  0.10566000000E+00  0.10566000000E+00 0.  1.
     999900   -1    0    0    0    0 -0.00000000000E+00 -0.00000000000E+00 -0.74505805969E-08  0.93827000000E+00  0.93827000000E+00 0. -1.
     999902    2    1    2    0    0  0.16995082994E-01  0.80446168085E-02 -0.14819102639E-01  0.10199893545E+01  0.10197083547E+01 0.  0.
     999903    2    3    3    0    0  0.59228528228E-01 -0.54213896510E-01 -0.10327459201E+00  0.13236096377E+00  0.20164777291E-01 0.  0.
         14    1    1    2    0    0 -0.16995082994E-01 -0.80446168085E-02  0.14819102639E-01  0.23940645534E-01  0.00000000000E+00 0.  1.
     999901    1    3    3    0    0 -0.42233445234E-01  0.62258513319E-01  0.88455489372E-01  0.88762839070E+00  0.88000000000E+00 0.  1.
        -11    1    4    4    0    0  0.46725004220E-01 -0.35541986788E-01 -0.62151711098E-01  0.85495936497E-01  0.51100000000E-03 0.  1.
         11    1    4    4    0    0  0.12503524008E-01 -0.18671909722E-01 -0.41122880913E-01  0.46865027268E-01  0.51100000000E-03 0. -1.
</event>
<event>
 8    1  0.1197213E+005  0.1043930E+01  0.7957747E-01            NaN
         13   -1    0    0    0    0  0.00000000000E+00  0.00000000000E+00  0.74505805969E-08  0.10566000000E+00  0.10566000000E+00 0.  1.
     999900   -1    0    0    0    0 -0.00000000000E+00 -0.00000000000E+00 -0.74505805969E-08  0.93827000000E+00  0.93827000000E+00 0. -1.
     999902    2    1    2    0    0  0.19032753571E-01  0.99495269705E-02 -0.92701467640E-02  0.10205382404E+01  0.10202701239E+01 0.  0.
     999903    2    3    3    0    0  0.98544210818E-01  0.85674172530E-01  0.17899868025E-01  0.13329841744E+00  0.19925799632E-01 0.  0.
         14    1    1    2    0    0 -0.19032753571E-01 -0.99495269705E-02  0.92701467640E-02  0.23391759585E-01  0.00000000000E+00 0.  1.
     999901    1    3    3    0    0 -0.79511457247E-01 -0.75724645559E-01 -0.27170014789E-01  0.88723982298E+00  0.88000000000E+00 0. -1.
        -11    1    4    4    0    0  0.23496996358E-01  0.13450397389E-01  0.99104499256E-02  0.28835744597E-01  0.51100000000E-03 0.  1.
         11    1    4    4    0    0  0.75047214460E-01  0.72223775141E-01  0.79894180994E-02  0.10446267284E+00  0.51100000000E-03 0. -1.
</event>
<event>
 8    1  0.1197213E+005  0.1043930E+01  0.7957747E-01            NaN
         13   -1    0    0    0    0  0.00000000000E+00  0.00000000000E+00  0.74505805969E-08  0.10566000000E+00  0.10566000000E+00 0. -1.
     999900   -1    0    0    0    0 -0.00000000000E+00 -0.00000000000E+00 -0.74505805969E-08  0.93827000000E+00  0.93827000000E+00 0.  1.
     999902    2    1    2    0    0  0.91662673084E-02  0.19112971703E-01  0.10845265890E-01  0.10201193735E+01  0.10198414535E+01 0.  0.
     999903    2    3    3    0    0  0.60351848302E-01 -0.98795512957E-01  0.54942445795E-01  0.12968861494E+00  0.19939045137E-01 0.  0.
         14    1    1    2    0    0 -0.91662673084E-02 -0.19112971703E-01 -0.10845265890E-01  0.23810626533E-01  0.00000000000E+00 0.  1.
     999901    1    3    3    0    0 -0.51185580994E-01  0.11790848466E+00 -0.44097179906E-01  0.89043075853E+00  0.88000000000E+00 0.  1.
        -11    1    4    4    0    0  0.33646338610E-01 -0.62199706131E-01  0.23424437380E-01  0.74497281375E-01  0.51100000000E-03 0.  1.
         11    1    4    4    0    0  0.26705509692E-01 -0.36595806826E-01  0.31518008416E-01  0.55191333564E-01  0.51100000000E-03 0. -1.
</event>
<event>
 8    1  0.1197213E+005  0.1043930E+01  0.7957747E-01            NaN
         13   -1    0    0    0    0  0.00000000000E+00  0.00000000000E+00  0.74505805969E-08  0.10566000000E+00  0.10566000000E+00 0. -1.
     999900   -1    0    0    0    0 -0.00000000000E+00 -0.00000000000E+00 -0.74505805969E-08  0.93827000000E+00  0.93827000000E+00 0. -1.
     999902    2    1    2    0    0 -0.23058097111E-01 -0.28538445755E-02 -0.38472519868E-02  0.10203795941E+01  0.10201077857E+01 0.  0.
     999903    2    3    3    0    0 -0.12397717331E+00  0.33688932691E-02 -0.44722367863E-01  0.13364730217E+00  0.21904845316E-01 0.  0.
         14    1    1    2    0    0  0.23058097111E-01  0.28538445755E-02  0.38472519868E-02  0.23550405922E-01  0.00000000000E+00 0.  1.
     999901    1    3    3    0    0  0.10091907620E+00 -0.62227378446E-02  0.40875115876E-01  0.88673229190E+00  0.88000000000E+00 0. -1.
        -11    1    4    4    0    0 -0.91076659431E-01 -0.61934121687E-02 -0.27779291802E-01  0.95421519698E-01  0.51100000000E-03 0.  1.
         11    1    4    4    0    0 -0.32900513875E-01  0.95623054378E-02 -0.16943076061E-01  0.38225782476E-01  0.51100000000E-03 0. -1.
</event>
<event>
 8    1  0.1197213E+005  0.1043930E+01  0.7957747E-01            NaN
         13   -1    0    0    0    0  0.00000000000E+00  0.00000000000E+00  0.74505805969E-08  0.10566000000E+00  0.10566000000E+00 0.  1.
     999900   -1    0    0    0    0 -0.00000000000E+00 -0.00000000000E+00 -0.74505805969E-08  0.93827000000E+00  0.93827000000E+00 0.  1.
     999902    2    1    2    0    0  0.55821319803E-03  0.21929721644E-01 -0.92985360773E-03  0.10219734766E+01  0.10217375876E+01 0.  0.
     999903    2    3    3    0    0 -0.10129391115E+00  0.64914247436E-01  0.53914064536E-01  0.13336254931E+00  0.20112862740E-01 0.  0.
         14    1    1    2    0    0 -0.55821319803E-03 -0.21929721644E-01  0.92985360773E-03  0.21956523429E-01  0.00000000000E+00 0.  1.
     999901    1    3    3    0    0  0.10185212435E+00 -0.42984525792E-01 -0.54843918143E-01  0.88861092726E+00  0.88000000000E+00 0. -1.
        -11    1    4    4    0    0 -0.72222760031E-01  0.55926121799E-01  0.43699577807E-01  0.10126091244E+00  0.51100000000E-03 0. -1.
         11    1    4    4    0    0 -0.29071151118E-01  0.89881256362E-02  0.10214486728E-01  0.32101636873E-01  0.51100000000E-03 0.  1.
</event>
<event>
 8    1  0.1197213E+005  0.1043930E+01  0.7957747E-01            NaN
         13   -1    0    0    0    0  0.00000000000E+00  0.00000000000E+00  0.74505805969E-08  0.10566000000E+00  0.10566000000E+00 0. -1.
     999900   -1    0    0    0    0 -0.00000000000E+00 -0.00000000000E+00 -0.74505805969E-08  0.93827000000E+00  0.93827000000E+00 0.  1.
     999902    2    1    2    0    0  0.12521252562E-01  0.10101675860E-01 -0.14643572408E-01  0.10221754641E+01  0.10219439415E+01 0.  0.
     999903    2    3    3    0    0  0.11231503310E-01 -0.12908322785E+00 -0.50193959909E-02  0.13118347440E+00  0.19881731306E-01 0.  0.
         14    1    1    2    0    0 -0.12521252562E-01 -0.10101675860E-01  0.14643572408E-01  0.21754535935E-01  0.00000000000E+00 0. -1.
     999901    1    3    3    0    0  0.12897492515E-02  0.13918490371E+00 -0.96241764167E-02  0.89099198966E+00  0.88000000000E+00 0.  1.
        -11    1    4    4    0    0  0.30813870046E-02 -0.57321286372E-01 -0.11915575408E-01  0.58629914510E-01  0.51100000000E-03 0.  1.
         11    1    4    4    0    0  0.81501163058E-02 -0.71761941483E-01  0.68961794172E-02  0.72553559890E-01  0.51100000000E-03 0. -1.
</event>
<event>
 8    1  0.1197213E+005  0.1043930E+01  0.7957747E-01            NaN
         13   -1    0    0    0    0  0.00000000000E+00  0.00000000000E+00  0.74505805969E-08  0.10566000000E+00  0.10566000000E+00 0. -1.
     999900   -1    0    0    0    0 -0.00000000000E+00 -0.00000000000E+00 -0.74505805969E-08  0.93827000000E+00  0.93827000000E+00 0.  1.
     999902    2    1    2    0    0  0.20174152081E-01  0.12051311357E-01 -0.36151997178E-02  0.10201539577E+01  0.10198768540E+01 0.  0.
     999903    2    3    3    0    0 -0.65273763081E-01 -0.28103161293E-01 -0.10609133403E+00  0.12919094727E+00  0.19608107462E-01 0.  0.
         14    1    1    2    0    0 -0.20174152081E-01 -0.12051311357E-01  0.36151997178E-02  0.23776042282E-01  0.00000000000E+00 0.  1.
     999901    1    3    3    0    0  0.85447915162E-01  0.40154472650E-01  0.10247613432E+00  0.89096301045E+00  0.88000000000E+00 0. -1.
        -11    1    4    4    0    0 -0.26697765313E-01 -0.21802663707E-01 -0.53955570715E-01  0.64028052833E-01  0.51100000000E-03 0.  1.
         11    1    4    4    0    0 -0.38575997769E-01 -0.63004975854E-02 -0.52135763319E-01  0.65162894438E-01  0.51100000000E-03 0. -1.
</event>
<event>
 8    1  0.1197213E+005  0.1043930E+01  0.7957747E-01            NaN
         13   -1    0    0    0    0  0.00000000000E+00  0.00000000000E+00  0.74505805969E-08  0.10566000000E+00  0.10566000000E+00 0. -1.
     999900   -1    0    0    0    0 -0.00000000000E+00 -0.00000000000E+00 -0.74505805969E-08  0.93827000000E+00  0.93827000000E+00 0.  1.
     999902    2    1    2    0    0  0.13550718378E-02  0.22699144905E-01  0.67435622996E-02  0.10202115888E+01  0.10199358425E+01 0.  0.
     999903    2    3    3    0    0 -0.52180984483E-01  0.86977805148E-01  0.83342382208E-01  0.13293190642E+00  0.20903237603E-01 0.  0.
         14    1    1    2    0    0 -0.13550718378E-02 -0.22699144905E-01 -0.67435622996E-02  0.23718411237E-01  0.00000000000E+00 0. -1.
     999901    1    3    3    0    0  0.53536056321E-01 -0.64278660243E-01 -0.76598819908E-01  0.88727968234E+00  0.88000000000E+00 0. -1.
        -11    1    4    4    0    0 -0.26353321484E-01  0.25168691356E-01  0.32530064407E-01  0.48851067431E-01  0.51100000000E-03 0. -1.
         11    1    4    4    0    0 -0.25827662999E-01  0.61809113792E-01  0.50812317800E-01  0.84080838988E-01  0.51100000000E-03 0.  1.
</event>
<event>
 8    1  0.1197213E+005  0.1043930E+01  0.7957747E-01            NaN
         13   -1    0    0    0    0  0.00000000000E+00  0.00000000000E+00  0.74505805969E-08  0.10566000000E+00  0.10566000000E+00 0.  1.
     999900   -1    0    0    0    0 -0.00000000000E+00 -0.00000000000E+00 -0.74505805969E-08  0.93827000000E+00  0.93827000000E+00 0. -1.
     999902    2    1    2    0    0 -0.23927034562E-01  0.80803925098E-02 -0.43375375897E-02  0.10183055984E+01  0.10179831441E+01 0.  0.
     999903    2    3    3    0    0  0.10090715557E+00  0.16194266069E-01  0.71350427347E-01  0.12624165560E+00  0.20039057584E-01 0.  0.
         14    1    1    2    0    0  0.23927034562E-01 -0.80803925098E-02  0.43375375897E-02  0.25624401620E-01  0.00000000000E+00 0. -1.
     999901    1    3    3    0    0 -0.12483419013E+00 -0.81138735588E-02 -0.75687964936E-01  0.89206394278E+00  0.88000000000E+00 0. -1.
        -11    1    4    4    0    0  0.33895851693E-01  0.47669275525E-03  0.33622773584E-01  0.47748382407E-01  0.51100000000E-03 0. -1.
         11    1    4    4    0    0  0.67011303872E-01  0.15717573313E-01  0.37727653763E-01  0.78493273196E-01  0.51100000000E-03 0.  1.
</event>
<event>
 8    1  0.1197213E+005  0.1043930E+01  0.7957747E-01            NaN
         13   -1    0    0    0    0  0.00000000000E+00  0.00000000000E+00  0.74505805969E-08  0.10566000000E+00  0.10566000000E+00 0.  1.
     999900   -1    0    0    0    0 -0.00000000000E+00 -0.00000000000E+00 -0.74505805969E-08  0.93827000000E+00  0.93827000000E+00 0. -1.
     999902    2    1    2    0    0  0.66830541764E-02 -0.16630580050E-01 -0.14834090949E-01  0.10206643674E+01  0.10203991676E+01 0.  0.
     999903    2    3    3    0    0 -0.10919255626E+00 -0.32621775491E-01 -0.62795535234E-01  0.13162939871E+00  0.19895345700E-01 0.  0.
         14    1    1    2    0    0 -0.66830541764E-02  0.16630580050E-01  0.14834090949E-01  0.23265632598E-01  0.00000000000E+00 0.  1.
     999901    1    3    3    0    0  0.11587561043E+00  0.15991195441E-01  0.47961444286E-01  0.88903496870E+00  0.88000000000E+00 0.  1.
        -11    1    4    4    0    0 -0.76256643834E-01 -0.17013197472E-01 -0.51053222636E-01  0.93333902091E-01  0.51100000000E-03 0. -1.
         11    1    4    4    0    0 -0.32935912423E-01 -0.15608578019E-01 -0.11742312598E-01  0.38295496616E-01  0.51100000000E-03 0.  1.
</event>
<event>
 8    1  0.1197213E+005  0.1043930E+01  0.7957747E-01            NaN
         13   -1    0    0    0    0  0.00000000000E+00  0.00000000000E+00  0.74505805969E-08  0.10566000000E+00  0.10566000000E+00 0.  1.
     999900   -1    0    0    0    0 -0.00000000000E+00 -0.00000000000E+00 -0.74505805969E-08  0.93827000000E+00  0.93827000000E+00 0. -1.
     999902    2    1    2    0    0 -0.91326796600E-02  0.68116482623E-02  0.20894707847E-01  0.10201309831E+01  0.10198533372E+01 0.  0.
     999903    2    3    3    0    0 -0.20984020861E-01  0.12378890393E+00  0.36177957339E-01  0.13217957094E+00  0.19964280789E-01 0.  0.
         14    1    1    2    0    0  0.91326796600E-02 -0.68116482623E-02 -0.20894707847E-01  0.23799016909E-01  0.00000000000E+00 0. -1.
     999901    1    3    3    0    0  0.11851341200E-01 -0.11697725567E+00 -0.15283249492E-01  0.88795141215E+00  0.88000000000E+00 0. -1.
        -11    1    4    4    0    0 -0.10127506561E-01  0.17025433855E-01  0.57680637914E-02  0.20638882431E-01  0.51100000000E-03 0. -1.
         11    1    4    4    0    0 -0.10856514300E-01  0.10676347008E+00  0.30409893548E-01  0.11154068850E+00  0.51100000000E-03 0.  1.
</event>
<event>
 7    1  0.1197213E+005  0.1043930E+01  0.7957747E-01            NaN
         13   -1    0    0    0    0  0.00000000000E+00  0.00000000000E+00  0.74505805969E-08  0.10566000000E+00  0.10566000000E+00 0.  1.
     999900   -1    0    0    0    0 -0.00000000000E+00 -0.00000000000E+00 -0.74505805969E-08  0.93827000000E+00  0.93827000000E+00 0. -1.
     999902    2    1    2    0    0  0.27940974042E-03  0.55177964108E-02 -0.23408563868E-01  0.10198782847E+01  0.10195946403E+01 0.  0.
         14    1    1    2    0    0 -0.27940974042E-03 -0.55177964108E-02  0.23408563868E-01  0.24051715311E-01  0.00000000000E+00 0.  1.
     999901    1    3    3    0    0  0.58925247566E-02 -0.11428272411E+00  0.17655008708E-01  0.88758490423E+00  0.88000000000E+00 0.  1.
        -11    1    3    3    0    0 -0.41883489430E-02  0.76907921107E-01 -0.44980491191E-01  0.89195719094E-01  0.51100000000E-03 0.  1.
         11    1    3    3    0    0 -0.14247660732E-02  0.42892599416E-01  0.39169186147E-02  0.43097661369E-01  0.51100000000E-03 0. -1.
</event>
<event>
 8    1  0.1197213E+005  0.1043930E+01  0.7957747E-01            NaN
         13   -1    0    0    0    0  0.00000000000E+00  0.00000000000E+00  0.74505805969E-08  0.10566000000E+00  0.10566000000E+00 0.  1.
     999900   -1    0    0    0    0 -0.00000000000E+00 -0.00000000000E+00 -0.74505805969E-08  0.93827000000E+00  0.93827000000E+00 0.  1.
     999902    2    1    2    0    0  0.18080898685E-01 -0.22810827293E-01 -0.14150761611E-01  0.10115649449E+01  0.10110470518E+01 0.  0.
     999903    2    3    3    0    0  0.43962573451E-01  0.64219632857E-01  0.90228918452E-01  0.12075672775E+00  0.19597460649E-01 0.  0.
         14    1    1    2    0    0 -0.18080898685E-01  0.22810827293E-01  0.14150761611E-01  0.32365055125E-01  0.00000000000E+00 0.  1.
     999901    1    3    3    0    0 -0.25881674766E-01 -0.87030460150E-01 -0.10437968006E+00  0.89080821712E+00  0.88000000000E+00 0.  1.
        -11    1    4    4    0    0  0.27251210475E-01  0.29039088999E-01  0.57129155283E-01  0.69641213850E-01  0.51100000000E-03 0. -1.
         11    1    4    4    0    0  0.16711362977E-01  0.35180543858E-01  0.33099763169E-01  0.51115513903E-01  0.51100000000E-03 0.  1.
</event>
<event>
 8    1  0.1197213E+005  0.1043930E+01  0.7957747E-01            NaN
         13   -1    0    0    0    0  0.00000000000E+00  0.00000000000E+00  0.74505805969E-08  0.10566000000E+00  0.10566000000E+00 0.  1.
     999900   -1    0    0    0    0 -0.00000000000E+00 -0.00000000000E+00 -0.74505805969E-08  0.93827000000E+00  0.93827000000E+00 0. -1.
     999902    2    1    2    0    0  0.14467645579E-01  0.17814720369E-01  0.87412214151E-02  0.10193721910E+01  0.10190763356E+01 0.  0.
     999903    2    3    3    0    0  0.79467760347E-01 -0.99149299883E-01 -0.10416606391E-01  0.12905055288E+00  0.19995772280E-01 0.  0.
         14    1    1    2    0    0 -0.14467645579E-01 -0.17814720369E-01 -0.87412214151E-02  0.24557808988E-01  0.00000000000E+00 0. -1.
     999901    1    3    3    0    0 -0.65000114767E-01  0.11696402025E+00  0.19157827806E-01  0.89032163813E+00  0.88000000000E+00 0.  1.
        -11    1    4    4    0    0  0.53492697519E-01 -0.56584611810E-01  0.10765945822E-02  0.77876229740E-01  0.51100000000E-03 0. -1.
         11    1    4    4    0    0  0.25975062827E-01 -0.42564688073E-01 -0.11493200973E-01  0.51174323144E-01  0.51100000000E-03 0.  1.
</event>
<event>
 8    1  0.1197213E+005  0.1043930E+01  0.7957747E-01            NaN
         13   -1    0    0    0    0  0.00000000000E+00  0.00000000000E+00  0.74505805969E-08  0.10566000000E+00  0.10566000000E+00 0.  1.
     999900   -1    0    0    0    0 -0.00000000000E+00 -0.00000000000E+00 -0.74505805969E-08  0.93827000000E+00  0.93827000000E+00 0. -1.
     999902    2    1    2    0    0 -0.90345359521E-02 -0.19766669865E-01  0.10023454008E-01  0.10199964731E+01  0.10197156425E+01 0.  0.
     999903    2    3    3    0    0 -0.58597588811E-01 -0.52952255558E-01 -0.10230566833E+00  0.13085328387E+00  0.20457598670E-01 0.  0.
         14    1    1    2    0    0  0.90345359521E-02  0.19766669865E-01 -0.10023454008E-01  0.23933526854E-01  0.00000000000E+00 0. -1.
     999901    1    3    3    0    0  0.49563052859E-01  0.33185585693E-01  0.11232912234E+00  0.88914318927E+00  0.88000000000E+00 0.  1.
        -11    1    4    4    0    0 -0.42608747460E-01 -0.27134346155E-01 -0.71935509075E-01  0.87901972038E-01  0.51100000000E-03 0. -1.
         11    1    4    4    0    0 -0.15988841351E-01 -0.25817909404E-01 -0.30370159260E-01  0.42951311833E-01  0.51100000000E-03 0.  1.
</event>
<event>
 8    1  0.1197213E+005  0.1043930E+01  0.7957747E-01            NaN
         13   -1    0    0    0    0  0.00000000000E+00  0.00000000000E+00  0.74505805969E-08  0.10566000000E+00  0.10566000000E+00 0. -1.
     999900   -1    0    0    0    0 -0.00000000000E+00 -0.00000000000E+00 -0.74505805969E-08  0.93827000000E+00  0.93827000000E+00 0.  1.
     999902    2    1    2    0    0  0.20356518788E-01  0.82657144470E-02  0.19677694579E-02  0.10218713960E+01  0.10216332845E+01 0.  0.
     999903    2    3    3    0    0 -0.89478153031E-01  0.92134946382E-01 -0.15721331160E-01  0.13091089888E+00  0.19882529455E-01 0.  0.
         14    1    1    2    0    0 -0.20356518788E-01 -0.82657144470E-02 -0.19677694579E-02  0.22058603970E-01  0.00000000000E+00 0.  1.
     999901    1    3    3    0    0  0.10983467182E+00 -0.83869231935E-01  0.17689100618E-01  0.89096049715E+00  0.88000000000E+00 0. -1.
        -11    1    4    4    0    0 -0.24546851085E-01  0.38317535516E-01 -0.28503822173E-02  0.45597886201E-01  0.51100000000E-03 0. -1.
         11    1    4    4    0    0 -0.64931301947E-01  0.53817410867E-01 -0.12870948943E-01  0.85313012680E-01  0.51100000000E-03 0.  1.
</event>
<event>
 8    1  0.1197213E+005  0.1043930E+01  0.7957747E-01            NaN
         13   -1    0    0    0    0  0.00000000000E+00  0.00000000000E+00  0.74505805969E-08  0.10566000000E+00  0.10566000000E+00 0.  1.
     999900   -1    0    0    0    0 -0.00000000000E+00 -0.00000000000E+00 -0.74505805969E-08  0.93827000000E+00  0.93827000000E+00 0.  1.
     999902    2    1    2    0    0 -0.42197434096E-02  0.64296099031E-02 -0.22436787097E-01  0.10202117468E+01  0.10199360043E+01 0.  0.
     999903    2    3    3    0    0 -0.95725709351E-01 -0.18745133061E-01 -0.87730853670E-01  0.13270376117E+00  0.19969829733E-01 0.  0.
         14    1    1    2    0    0  0.42197434096E-02 -0.64296099031E-02  0.22436787097E-01  0.23718253164E-01  0.00000000000E+00 0.  1.
     999901    1    3    3    0    0  0.91505965941E-01  0.25174742964E-01  0.65294066573E-01  0.88750798566E+00  0.88000000000E+00 0. -1.
        -11    1    4    4    0    0 -0.35769543543E-01 -0.28096706636E-02 -0.20946873552E-01  0.41549815007E-01  0.51100000000E-03 0. -1.
         11    1    4    4    0    0 -0.59956165807E-01 -0.15935462397E-01 -0.66783980118E-01  0.91153946166E-01  0.51100000000E-03 0.  1.
</event>
<event>
 8    1  0.1197213E+005  0.1043930E+01  0.7957747E-01            NaN
         13   -1    0    0    0    0  0.00000000000E+00  0.00000000000E+00  0.74505805969E-08  0.10566000000E+00  0.10566000000E+00 0.  1.
     999900   -1    0    0    0    0 -0.00000000000E+00 -0.00000000000E+00 -0.74505805969E-08  0.93827000000E+00  0.93827000000E+00 0.  1.
     999902    2    1    2    0    0  0.34982941353E-02  0.20679543249E-01  0.45108472474E-02  0.10224770442E+01  0.10222519633E+01 0.  0.
     999903    2    3    3    0    0  0.34003775371E-01 -0.12100281107E+00 -0.26813259822E-01  0.13007261030E+00  0.20049838448E-01 0.  0.
         14    1    1    2    0    0 -0.34982941353E-02 -0.20679543249E-01 -0.45108472474E-02  0.21452955827E-01  0.00000000000E+00 0. -1.
     999901    1    3    3    0    0 -0.30505481235E-01  0.14168235432E+00  0.31324107069E-01  0.89240443387E+00  0.88000000000E+00 0. -1.
        -11    1    4    4    0    0  0.85161789515E-02 -0.11827638553E-01  0.81578629744E-03  0.14606333077E-01  0.51100000000E-03 0. -1.
         11    1    4    4    0    0  0.25487596419E-01 -0.10917517252E+00 -0.27629046119E-01  0.11546627722E+00  0.51100000000E-03 0.  1.
</event>
<event>
 8    1  0.1197213E+005  0.1043930E+01  0.7957747E-01            NaN
         13   -1    0    0    0    0  0.00000000000E+00  0.00000000000E+00  0.74505805969E-08  0.10566000000E+00  0.10566000000E+00 0. -1.
     999900   -1    0    0    0    0 -0.00000000000E+00 -0.00000000000E+00 -0.74505805969E-08  0.93827000000E+00  0.93827000000E+00 0. -1.
     999902    2    1    2    0    0  0.59541088228E-02  0.19446686462E-01  0.10895667189E-01  0.10208574928E+01  0.10205967274E+01 0.  0.
     999903    2    3    3    0    0  0.10640986847E+00  0.73219063888E-01 -0.23821938055E-01  0.13283263933E+00  0.19822560738E-01 0.  0.
         14    1    1    2    0    0 -0.59541088228E-02 -0.19446686462E-01 -0.10895667189E-01  0.23072507226E-01  0.00000000000E+00 0.  1.
     999901    1    3    3    0    0 -0.10045575965E+00 -0.53772377427E-01  0.34717605244E-01  0.88802485344E+00  0.88000000000E+00 0. -1.
        -11    1    4    4    0    0  0.61672840173E-01  0.53908313565E-01 -0.16432801237E-01  0.83546056543E-01  0.51100000000E-03 0.  1.
         11    1    4    4    0    0  0.44737028297E-01  0.19310750324E-01 -0.73891368179E-02  0.49286582787E-01  0.51100000000E-03 0. -1.
</event>
<event>
 8    1  0.1197213E+005  0.1043930E+01  0.7957747E-01            NaN
         13   -1    0    0    0    0  0.00000000000E+00  0.00000000000E+00  0.74505805969E-08  0.10566000000E+00  0.10566000000E+00 0. -1.
     999900   -1    0    0    0    0 -0.00000000000E+00 -0.00000000000E+00 -0.74505805969E-08  0.93827000000E+00  0.93827000000E+00 0.  1.
     999902    2    1    2    0    0 -0.75568836570E-02 -0.18433079451E-01 -0.12943339764E-01  0.10201725811E+01  0.10198959164E+01 0.  0.
     999903    2    3    3    0    0  0.12610484498E+00 -0.50944940105E-02  0.20496379438E-01  0.12935184134E+00  0.19580896101E-01 0.  0.
         14    1    1    2    0    0  0.75568836570E-02  0.18433079451E-01  0.12943339764E-01  0.23757418903E-01  0.00000000000E+00 0. -1.
     999901    1    3    3    0    0 -0.13366172863E+00 -0.13338585441E-01 -0.33439719202E-01  0.89082073976E+00  0.88000000000E+00 0.  1.
        -11    1    4    4    0    0  0.46350500450E-01  0.50153766990E-02  0.14072888712E-01  0.48701439538E-01  0.51100000000E-03 0.  1.
         11    1    4    4    0    0  0.79754344526E-01 -0.10109870709E-01  0.64234907259E-02  0.80650401801E-01  0.51100000000E-03 0. -1.
</event>
<event>
 8    1  0.1197213E+005  0.1043930E+01  0.7957747E-01            NaN
         13   -1    0    0    0    0  0.00000000000E+00  0.00000000000E+00  0.74505805969E-08  0.10566000000E+00  0.10566000000E+00 0. -1.
     999900   -1    0    0    0    0 -0.00000000000E+00 -0.00000000000E+00 -0.74505805969E-08  0.93827000000E+00  0.93827000000E+00 0. -1.
     999902    2    1    2    0    0 -0.69121506738E-02  0.18563081491E-01 -0.11654583848E-01  0.10209475035E+01  0.10206887918E+01 0.  0.
     999903    2    3    3    0    0  0.11700777859E+00  0.33436855278E-01  0.42707077536E-01  0.13047989136E+00  0.19805656690E-01 0.  0.
         14    1    1    2    0    0  0.69121506738E-02 -0.18563081491E-01  0.11654583848E-01  0.22982496515E-01  0.00000000000E+00 0. -1.
     999901    1    3    3    0    0 -0.12391992926E+00 -0.14873773787E-01 -0.54361661385E-01  0.89046761212E+00  0.88000000000E+00 0. -1.
        -11    1    4    4    0    0  0.76872050756E-01  0.24734716903E-01  0.37642500294E-01  0.89097347644E-01  0.51100000000E-03 0.  1.
         11    1    4    4    0    0  0.40135727831E-01  0.87021383745E-02  0.50645772424E-02  0.41382543717E-01  0.51100000000E-03 0. -1.
</event>
<event>
 8    1  0.1197213E+005  0.1043930E+01  0.7957747E-01            NaN
         13   -1    0    0    0    0  0.00000000000E+00  0.00000000000E+00  0.74505805969E-08  0.10566000000E+00  0.10566000000E+00 0.  1.
     999900   -1    0    0    0    0 -0.00000000000E+00 -0.00000000000E+00 -0.74505805969E-08  0.93827000000E+00  0.93827000000E+00 0. -1.
     999902    2    1    2    0    0 -0.23464187808E-01 -0.20937604132E-02 -0.10791081937E-02  0.10203478793E+01  0.10200753298E+01 0.  0.
     999903    2    3    3    0    0  0.95460414154E-01  0.81482229513E-01  0.16162836971E-01  0.12825747373E+00  0.20897317320E-01 0.  0.
         14    1    1    2    0    0  0.23464187808E-01  0.20937604132E-02  0.10791081937E-02  0.23582120699E-01  0.00000000000E+00 0.  1.
     999901    1    3    3    0    0 -0.11892460196E+00 -0.83575989926E-01 -0.17241945164E-01  0.89209040557E+00  0.88000000000E+00 0.  1.
        -11    1    4    4    0    0  0.69089647518E-01  0.64701529646E-01  0.40877666007E-02  0.94745122774E-01  0.51100000000E-03 0.  1.
         11    1    4    4    0    0  0.26370766636E-01  0.16780699867E-01  0.12075070370E-01  0.33512350953E-01  0.51100000000E-03 0. -1.
</event>
<event>
 8    1  0.1197213E+005  0.1043930E+01  0.7957747E-01            NaN
         13   -1    0    0    0    0  0.00000000000E+00  0.00000000000E+00  0.74505805969E-08  0.10566000000E+00  0.10566000000E+00 0.  1.
     999900   -1    0    0    0    0 -0.00000000000E+00 -0.00000000000E+00 -0.74505805969E-08  0.93827000000E+00  0.93827000000E+00 0.  1.
     999902    2    1    2    0    0 -0.64134600814E-02  0.22818173786E-01  0.12453705624E-02  0.10201949526E+01  0.10199188149E+01 0.  0.
     999903    2    3    3    0    0 -0.10573731979E+00 -0.29834539763E-01 -0.67927136006E-01  0.13035093653E+00  0.17515430046E-01 0.  0.
         14    1    1    2    0    0  0.64134600814E-02 -0.22818173786E-01 -0.12453705624E-02  0.23735047356E-01  0.00000000000E+00 0. -1.
     999901    1    3    3    0    0  0.99323859705E-01  0.52652713549E-01  0.69172506568E-01  0.88984401611E+00  0.88000000000E+00 0.  1.
        -11    1    4    4    0    0 -0.28618843795E-01 -0.14353642595E-01 -0.13797066491E-01  0.34866680953E-01  0.51100000000E-03 0. -1.
         11    1    4    4    0    0 -0.77118475991E-01 -0.15480897168E-01 -0.54130069515E-01  0.95484255576E-01  0.51100000000E-03 0.  1.
</event>
<event>
 8    1  0.1197213E+005  0.1043930E+01  0.7957747E-01            NaN
         13   -1    0    0    0    0  0.00000000000E+00  0.00000000000E+00  0.74505805969E-08  0.10566000000E+00  0.10566000000E+00 0. -1.
     999900   -1    0    0    0    0 -0.00000000000E+00 -0.00000000000E+00 -0.74505805969E-08  0.93827000000E+00  0.93827000000E+00 0. -1.
     999902    2    1    2    0    0  0.13878593657E-02 -0.20195915763E-01 -0.12363019539E-01  0.10202098520E+01  0.10199340649E+01 0.  0.
     999903    2    3    3    0    0 -0.92016398649E-01 -0.81184687266E-01  0.42611170213E-01  0.13146571158E+00  0.20237352279E-01 0.  0.
         14    1    1    2    0    0 -0.13878593657E-02  0.20195915763E-01  0.12363019539E-01  0.23720147960E-01  0.00000000000E+00 0. -1.
     999901    1    3    3    0    0  0.93404258014E-01  0.60988771503E-01 -0.54974189752E-01  0.88874414046E+00  0.88000000000E+00 0. -1.
        -11    1    4    4    0    0 -0.73598538345E-01 -0.72022605288E-01  0.29704278517E-01  0.10717558398E+00  0.51100000000E-03 0. -1.
         11    1    4    4    0    0 -0.18417860304E-01 -0.91620819778E-02  0.12906891697E-01  0.24290127595E-01  0.51100000000E-03 0.  1.
</event>
<event>
 8    1  0.1197213E+005  0.1043930E+01  0.7957747E-01            NaN
         13   -1    0    0    0    0  0.00000000000E+00  0.00000000000E+00  0.74505805969E-08  0.10566000000E+00  0.10566000000E+00 0.  1.
     999900   -1    0    0    0    0 -0.00000000000E+00 -0.00000000000E+00 -0.74505805969E-08  0.93827000000E+00  0.93827000000E+00 0. -1.
     999902    2    1    2    0    0  0.54408593402E-02  0.69805141547E-03  0.23189935865E-01  0.10201001164E+01  0.10198217414E+01 0.  0.
     999903    2    3    3    0    0  0.47956294803E-02  0.33229985044E-01 -0.12165586122E+00  0.12766577824E+00  0.19265834967E-01 0.  0.
         14    1    1    2    0    0 -0.54408593402E-02 -0.69805141547E-03 -0.23189935865E-01  0.23829883583E-01  0.00000000000E+00 0.  1.
     999901    1    3    3    0    0  0.64522985988E-03 -0.32531933629E-01  0.14484579708E+00  0.89243433818E+00  0.88000000000E+00 0.  1.
        -11    1    4    4    0    0  0.50368945820E-02 -0.34144982983E-03 -0.18486767122E-01  0.19170513156E-01  0.51100000000E-03 0.  1.
         11    1    4    4    0    0 -0.24126510167E-03  0.33571434874E-01 -0.10316909409E+00  0.10849526508E+00  0.51100000000E-03 0. -1.
</event>
<event>
 8    1  0.1197213E+005  0.1043930E+01  0.7957747E-01            NaN
         13   -1    0    0    0    0  0.00000000000E+00  0.00000000000E+00  0.74505805969E-08  0.10566000000E+00  0.10566000000E+00 0. -1.
     999900   -1    0    0    0    0 -0.00000000000E+00 -0.00000000000E+00 -0.74505805969E-08  0.93827000000E+00  0.93827000000E+00 0.  1.
     999902    2    1    2    0    0  0.20399679291E-01  0.12649593379E-01 -0.36577666400E-02  0.10196495885E+01  0.10193604587E+01 0.  0.
     999903    2    3    3    0    0 -0.76106627393E-01  0.99829286849E-01  0.25358217822E-01  0.12961830050E+00  0.19993983308E-01 0.  0.
         14    1    1    2    0    0 -0.20399679291E-01 -0.12649593379E-01  0.36577666400E-02  0.24280411541E-01  0.00000000000E+00 0. -1.
     999901    1    3    3    0    0  0.96506306684E-01 -0.87179693471E-01 -0.29015984462E-01  0.89003128795E+00  0.88000000000E+00 0.  1.
        -11    1    4    4    0    0 -0.38140257479E-01  0.34079787313E-01  0.11751746971E-01  0.52483100344E-01  0.51100000000E-03 0. -1.
         11    1    4    4    0    0 -0.37966369915E-01  0.65749499537E-01  0.13606470851E-01  0.77135200161E-01  0.51100000000E-03 0.  1.
</event>
<event>
 8    1  0.1197213E+005  0.1043930E+01  0.7957747E-01            NaN
         13   -1    0    0    0    0  0.00000000000E+00  0.00000000000E+00  0.74505805969E-08  0.10566000000E+00  0.10566000000E+00 0. -1.
     999900   -1    0    0    0    0 -0.00000000000E+00 -0.00000000000E+00 -0.74505805969E-08  0.93827000000E+00  0.93827000000E+00 0. -1.
     999902    2    1    2    0    0  0.91205497854E-02 -0.13239989012E-02  0.21949171851E-01  0.10201244640E+01  0.10198466642E+01 0.  0.
     999903    2    3    3    0    0 -0.92218809050E-01  0.75661217465E-01 -0.43341384714E-01  0.12857567339E+00  0.20598533605E-01 0.  0.
         14    1    1    2    0    0 -0.91205497854E-02  0.13239989012E-02 -0.21949171851E-01  0.23805536045E-01  0.00000000000E+00 0.  1.
     999901    1    3    3    0    0  0.10133935884E+00 -0.76985216366E-01  0.65290556565E-01  0.89154879057E+00  0.88000000000E+00 0. -1.
        -11    1    4    4    0    0 -0.24204590377E-01  0.27789979013E-01 -0.57532228282E-02  0.37302892954E-01  0.51100000000E-03 0. -1.
         11    1    4    4    0    0 -0.68014218674E-01  0.47871238452E-01 -0.37588161886E-01  0.91272780432E-01  0.51100000000E-03 0.  1.
</event>
<event>
 8    1  0.1197213E+005  0.1043930E+01  0.7957747E-01            NaN
         13   -1    0    0    0    0  0.00000000000E+00  0.00000000000E+00  0.74505805969E-08  0.10566000000E+00  0.10566000000E+00 0. -1.
     999900   -1    0    0    0    0 -0.00000000000E+00 -0.00000000000E+00 -0.74505805969E-08  0.93827000000E+00  0.93827000000E+00 0.  1.
     999902    2    1    2    0    0 -0.17202806395E-01 -0.11766611906E-01  0.12640357554E-01  0.10195544314E+01  0.10192630035E+01 0.  0.
     999903    2    3    3    0    0 -0.24307795300E-01  0.35727527629E-01  0.12221450642E+00  0.13145946565E+00  0.21860475440E-01 0.  0.
         14    1    1    2    0    0  0.17202806395E-01  0.11766611906E-01 -0.12640357554E-01  0.24375568562E-01  0.00000000000E+00 0. -1.
     999901    1    3    3    0    0  0.71049889047E-02 -0.47494139536E-01 -0.10957414887E+00  0.88809496579E+00  0.88000000000E+00 0.  1.
        -11    1    4    4    0    0 -0.25321781603E-01  0.29040652023E-01  0.81094155241E-01  0.89783490847E-01  0.51100000000E-03 0.  1.
         11    1    4    4    0    0  0.10139863032E-02  0.66868756060E-02  0.41120351180E-01  0.41675974803E-01  0.51100000000E-03 0. -1.
</event>
<event>
 8    1  0.1197213E+005  0.1043930E+01  0.7957747E-01            NaN
         13   -1    0    0    0    0  0.00000000000E+00  0.00000000000E+00  0.74505805969E-08  0.10566000000E+00  0.10566000000E+00 0.  1.
     999900   -1    0    0    0    0 -0.00000000000E+00 -0.00000000000E+00 -0.74505805969E-08  0.93827000000E+00  0.93827000000E+00 0. -1.
     999902    2    1    2    0    0  0.23225948303E-01  0.12662713177E-02 -0.27169501654E-02  0.10205114190E+01  0.10202426801E+01 0.  0.
     999903    2    3    3    0    0  0.36233275497E-01 -0.45280828005E-02  0.12376909952E+00  0.13135367942E+00  0.24528459271E-01 0.  0.
         14    1    1    2    0    0 -0.23225948303E-01 -0.12662713177E-02  0.27169501654E-02  0.23418580996E-01  0.00000000000E+00 0.  1.
     999901    1    3    3    0    0 -0.13007327193E-01  0.57943541182E-02 -0.12648604968E+00  0.88915773959E+00  0.88000000000E+00 0. -1.
        -11    1    4    4    0    0  0.27506444244E-02 -0.50364968640E-02  0.50090310246E-01  0.50420557781E-01  0.51100000000E-03 0.  1.
         11    1    4    4    0    0  0.33482631073E-01  0.50841406346E-03  0.73678789272E-01  0.80933121638E-01  0.51100000000E-03 0. -1.
</event>
<event>
 8    1  0.1197213E+005  0.1043930E+01  0.7957747E-01            NaN
         13   -1    0    0    0    0  0.00000000000E+00  0.00000000000E+00  0.74505805969E-08  0.10566000000E+00  0.10566000000E+00 0. -1.
     999900   -1    0    0    0    0 -0.00000000000E+00 -0.00000000000E+00 -0.74505805969E-08  0.93827000000E+00  0.93827000000E+00 0.  1.
     999902    2    1    2    0    0 -0.20964018994E-01 -0.96331129993E-03 -0.11687655777E-01  0.10199087727E+01  0.10196258556E+01 0.  0.
     999903    2    3    3    0    0  0.26937640278E-01 -0.68397926788E-01  0.10363784731E+00  0.12853793635E+00  0.19423821273E-01 0.  0.
         14    1    1    2    0    0  0.20964018994E-01  0.96331129993E-03  0.11687655777E-01  0.24021227251E-01  0.00000000000E+00 0. -1.
     999901    1    3    3    0    0 -0.47901659272E-01  0.67434615488E-01 -0.11532550309E+00  0.89137083640E+00  0.88000000000E+00 0. -1.
        -11    1    4    4    0    0  0.31514226079E-02 -0.52122610924E-02  0.18363027720E-02  0.63821829353E-02  0.51100000000E-03 0.  1.
         11    1    4    4    0    0  0.23786217670E-01 -0.63185665696E-01  0.10180154454E+00  0.12215575341E+00  0.51100000000E-03 0. -1.
</event>
<event>
 8    1  0.1197213E+005  0.1043930E+01  0.7957747E-01            NaN
         13   -1    0    0    0    0  0.00000000000E+00  0.00000000000E+00  0.74505805969E-08  0.10566000000E+00  0.10566000000E+00 0. -1.
     999900   -1    0    0    0    0 -0.00000000000E+00 -0.00000000000E+00 -0.74505805969E-08  0.93827000000E+00  0.93827000000E+00 0.  1.
     999902    2    1    2    0    0  0.13575090280E-01  0.12806455015E-01 -0.14610930541E-01  0.10202283617E+01  0.10199530099E+01 0.  0.
     999903    2    3    3    0    0 -0.86068184260E-01 -0.80759222886E-01  0.44711485154E-01  0.12770247008E+00  0.19468424070E-01 0.  0.
         14    1    1    2    0    0 -0.13575090280E-01 -0.12806455015E-01  0.14610930541E-01  0.23701638286E-01  0.00000000000E+00 0. -1.
     999901    1    3    3    0    0  0.99643274540E-01  0.93565677900E-01 -0.59322415694E-01  0.89252589164E+00  0.88000000000E+00 0.  1.
        -11    1    4    4    0    0 -0.14840278621E-01 -0.70855084166E-02  0.11128871604E-01  0.19863312997E-01  0.51100000000E-03 0. -1.
         11    1    4    4    0    0 -0.71227905639E-01 -0.73673714469E-01  0.33582613550E-01  0.10783915708E+00  0.51100000000E-03 0.  1.
</event>
<event>
 7    1  0.1439925E+005  0.1043930E+01  0.7957747E-01            NaN
         13   -1    0    0    0    0  0.00000000000E+00  0.00000000000E+00  0.74505805969E-08  0.10566000000E+00  0.10566000000E+00 0.  1.
     999900   -1    0    0    0    0 -0.00000000000E+00 -0.00000000000E+00 -0.74505805969E-08  0.93827000000E+00  0.93827000000E+00 0.  1.
     999903    2    1    2    0    0  0.56543256931E-01 -0.26924700703E-01 -0.90421082324E-01  0.11180053755E+00  0.20032689660E-01 0.  0.
         14    1    1    2    0    0  0.96110393233E-02  0.73955495577E-02 -0.38227230726E-01  0.40104705448E-01  0.00000000000E+00 0. -1.
     999901    1    1    2    0    0 -0.66154296255E-01  0.19529151145E-01  0.12864831305E+00  0.89202475700E+00  0.88000000000E+00 0. -1.
        -11    1    3    3    0    0  0.30014427521E-01 -0.15364753809E-01 -0.31459200817E-01  0.46118152132E-01  0.51100000000E-03 0. -1.
         11    1    3    3    0    0  0.26528829410E-01 -0.11559946894E-01 -0.58961881507E-01  0.65682385416E-01  0.51100000000E-03 0.  1.
</event>
<event>
 8    1  0.1197213E+005  0.1043930E+01  0.7957747E-01            NaN
         13   -1    0    0    0    0  0.00000000000E+00  0.00000000000E+00  0.74505805969E-08  0.10566000000E+00  0.10566000000E+00 0. -1.
     999900   -1    0    0    0    0 -0.00000000000E+00 -0.00000000000E+00 -0.74505805969E-08  0.93827000000E+00  0.93827000000E+00 0. -1.
     999902    2    1    2    0    0  0.22798179478E-01 -0.45111589038E-02 -0.74855946223E-02  0.10195139874E+01  0.10192215799E+01 0.  0.
     999903    2    3    3    0    0 -0.86673155800E-01  0.70512447022E-01 -0.59458331926E-01  0.12804683712E+00  0.19402529187E-01 0.  0.
         14    1    1    2    0    0 -0.22798179478E-01  0.45111589038E-02  0.74855946223E-02  0.24416012554E-01  0.00000000000E+00 0. -1.
     999901    1    3    3    0    0  0.10947133528E+00 -0.75023605926E-01  0.51972737304E-01  0.89146715033E+00  0.88000000000E+00 0.  1.
        -11    1    4    4    0    0 -0.34839855375E-01  0.36093941986E-01 -0.18100325394E-01  0.53333582957E-01  0.51100000000E-03 0. -1.
         11    1    4    4    0    0 -0.51833300424E-01  0.34418505036E-01 -0.41358006533E-01  0.74713254160E-01  0.51100000000E-03 0.  1.
</event>
<event>
 8    1  0.1197213E+005  0.1043930E+01  0.7957747E-01            NaN
         13   -1    0    0    0    0  0.00000000000E+00  0.00000000000E+00  0.74505805969E-08  0.10566000000E+00  0.10566000000E+00 0.  1.
     999900   -1    0    0    0    0 -0.00000000000E+00 -0.00000000000E+00 -0.74505805969E-08  0.93827000000E+00  0.93827000000E+00 0.  1.
     999902    2    1    2    0    0  0.94393194385E-02 -0.20704352299E-01  0.51401754049E-02  0.10206020691E+01  0.10203354307E+01 0.  0.
     999903    2    3    3    0    0 -0.80811093390E-01  0.62663925667E-01  0.76371303834E-01  0.12921591238E+00  0.20173635458E-01 0.  0.
         14    1    1    2    0    0 -0.94393194385E-02  0.20704352299E-01 -0.51401754049E-02  0.23327930872E-01  0.00000000000E+00 0.  1.
     999901    1    3    3    0    0  0.90250412829E-01 -0.83368277966E-01 -0.71231128429E-01  0.89138615675E+00  0.88000000000E+00 0.  1.
        -11    1    4    4    0    0 -0.16789418574E-01  0.24311818132E-01  0.23469529096E-01  0.37736308695E-01  0.51100000000E-03 0. -1.
         11    1    4    4    0    0 -0.64021674816E-01  0.38352107535E-01  0.52901774738E-01  0.91479603684E-01  0.51100000000E-03 0.  1.
</event>
<event>
 8    1  0.1197213E+005  0.1043930E+01  0.7957747E-01            NaN
         13   -1    0    0    0    0  0.00000000000E+00  0.00000000000E+00  0.74505805969E-08  0.10566000000E+00  0.10566000000E+00 0. -1.
     999900   -1    0    0    0    0 -0.00000000000E+00 -0.00000000000E+00 -0.74505805969E-08  0.93827000000E+00  0.93827000000E+00 0. -1.
     999902    2    1    2    0    0  0.25742124970E-01  0.39708112823E-02  0.76217603118E-03  0.10178722708E+01  0.10175386746E+01 0.  0.
     999903    2    3    3    0    0  0.54005950160E-01 -0.50764369987E-01 -0.10429480699E+00  0.12948510654E+00  0.19882709523E-01 0.  0.
         14    1    1    2    0    0 -0.25742124970E-01 -0.39708112823E-02 -0.76217603118E-03  0.26057729228E-01  0.00000000000E+00 0.  1.
     999901    1    3    3    0    0 -0.28263825190E-01  0.54735181269E-01  0.10505698303E+00  0.88838716423E+00  0.88000000000E+00 0.  1.
        -11    1    4    4    0    0  0.84041808591E-02 -0.10677035992E-01 -0.33878349895E-01  0.36505247104E-01  0.51100000000E-03 0.  1.
         11    1    4    4    0    0  0.45601769300E-01 -0.40087333995E-01 -0.70416457099E-01  0.92979859440E-01  0.51100000000E-03 0. -1.
</event>
<event>
 8    1  0.1197213E+005  0.1043930E+01  0.7957747E-01            NaN
         13   -1    0    0    0    0  0.00000000000E+00  0.00000000000E+00  0.74505805969E-08  0.10566000000E+00  0.10566000000E+00 0. -1.
     999900   -1    0    0    0    0 -0.00000000000E+00 -0.00000000000E+00 -0.74505805969E-08  0.93827000000E+00  0.93827000000E+00 0.  1.
     999902    2    1    2    0    0  0.21065974187E-01 -0.98614565604E-02 -0.17094484226E-02  0.10206073542E+01  0.10203408380E+01 0.  0.
     999903    2    3    3    0    0 -0.11359207069E+00 -0.21978171997E-01  0.52560283274E-01  0.12862932328E+00  0.19917852837E-01 0.  0.
         14    1    1    2    0    0 -0.21065974187E-01  0.98614565604E-02  0.17094484226E-02  0.23322645816E-01  0.00000000000E+00 0.  1.
     999901    1    3    3    0    0  0.13465804487E+00  0.12116715437E-01 -0.54269731696E-01  0.89197803091E+00  0.88000000000E+00 0.  1.
        -11    1    4    4    0    0 -0.12233457287E-01 -0.83198592372E-02  0.35812729072E-02  0.15230370040E-01  0.51100000000E-03 0. -1.
         11    1    4    4    0    0 -0.10135861340E+00 -0.13658312760E-01  0.48979010366E-01  0.11339895324E+00  0.51100000000E-03 0.  1.
</event>
<event>
 8    1  0.1197213E+005  0.1043930E+01  0.7957747E-01            NaN
         13   -1    0    0    0    0  0.00000000000E+00  0.00000000000E+00  0.74505805969E-08  0.10566000000E+00  0.10566000000E+00 0. -1.
     999900   -1    0    0    0    0 -0.00000000000E+00 -0.00000000000E+00 -0.74505805969E-08  0.93827000000E+00  0.93827000000E+00 0. -1.
     999902    2    1    2    0    0 -0.17778203803E-01  0.95145635373E-02 -0.12417896403E-01  0.10202488767E+01  0.10199740069E+01 0.  0.
     999903    2    3    3    0    0 -0.11612018556E+00  0.50668095344E-01  0.33550878762E-01  0.13262401965E+00  0.20305559372E-01 0.  0.
         14    1    1    2    0    0  0.17778203803E-01 -0.95145635373E-02  0.12417896403E-01  0.23681123302E-01  0.00000000000E+00 0. -1.
     999901    1    3    3    0    0  0.98341981762E-01 -0.41153531806E-01 -0.45968775165E-01  0.88762485705E+00  0.88000000000E+00 0.  1.
        -11    1    4    4    0    0 -0.69362864287E-01  0.34687476331E-01  0.29742354822E-01  0.83062005439E-01  0.51100000000E-03 0.  1.
         11    1    4    4    0    0 -0.46757321278E-01  0.15980619013E-01  0.38085239401E-02  0.49562014212E-01  0.51100000000E-03 0. -1.
</event>
<event>
 8    1  0.1197213E+005  0.1043930E+01  0.7957747E-01            NaN
         13   -1    0    0    0    0  0.00000000000E+00  0.00000000000E+00  0.74505805969E-08  0.10566000000E+00  0.10566000000E+00 0. -1.
     999900   -1    0    0    0    0 -0.00000000000E+00 -0.00000000000E+00 -0.74505805969E-08  0.93827000000E+00  0.93827000000E+00 0.  1.
     999902    2    1    2    0    0  0.18320482451E-01  0.11929981039E-02 -0.20144631340E-01  0.10166743677E+01  0.10163089591E+01 0.  0.
     999903    2    3    3    0    0  0.27337126663E-01 -0.11481230109E+00  0.41920740877E-01  0.12684818254E+00  0.20098007921E-01 0.  0.
         14    1    1    2    0    0 -0.18320482451E-01 -0.11929981039E-02  0.20144631340E-01  0.27255632327E-01  0.00000000000E+00 0. -1.
     999901    1    3    3    0    0 -0.90166442119E-02  0.11600529920E+00 -0.62065372217E-01  0.88982618513E+00  0.88000000000E+00 0. -1.
        -11    1    4    4    0    0  0.16577956033E-01 -0.32042032302E-01  0.95495488119E-02  0.37322586510E-01  0.51100000000E-03 0.  1.
         11    1    4    4    0    0  0.10759170629E-01 -0.82770268791E-01  0.32371192065E-01  0.89525596033E-01  0.51100000000E-03 0. -1.
</event>
<event>
 8    1  0.1197213E+005  0.1043930E+01  0.7957747E-01            NaN
         13   -1    0    0    0    0  0.00000000000E+00  0.00000000000E+00  0.74505805969E-08  0.10566000000E+00  0.10566000000E+00 0. -1.
     999900   -1    0    0    0    0 -0.00000000000E+00 -0.00000000000E+00 -0.74505805969E-08  0.93827000000E+00  0.93827000000E+00 0.  1.
     999902    2    1    2    0    0  0.22140655047E-01 -0.98702159009E-02 -0.42720932843E-02  0.10193153591E+01  0.10190181160E+01 0.  0.
     999903    2    3    3    0    0  0.44838608358E-01  0.59974781909E-01 -0.10488404903E+00  0.13054301113E+00  0.20816790066E-01 0.  0.
         14    1    1    2    0    0 -0.22140655047E-01  0.98702159009E-02  0.42720932843E-02  0.24614640945E-01  0.00000000000E+00 0.  1.
     999901    1    3    3    0    0 -0.22697953311E-01 -0.69844997810E-01  0.10061195574E+00  0.88877234793E+00  0.88000000000E+00 0. -1.
        -11    1    4    4    0    0  0.35320360764E-01  0.32223207079E-01 -0.72453520427E-01  0.86808045147E-01  0.51100000000E-03 0. -1.
         11    1    4    4    0    0  0.95182475939E-02  0.27751574830E-01 -0.32430528602E-01  0.43734965979E-01  0.51100000000E-03 0.  1.
</event>
<event>
 8    1  0.1197213E+005  0.1043930E+01  0.7957747E-01            NaN
         13   -1    0    0    0    0  0.00000000000E+00  0.00000000000E+00  0.74505805969E-08  0.10566000000E+00  0.10566000000E+00 0.  1.
     999900   -1    0    0    0    0 -0.00000000000E+00 -0.00000000000E+00 -0.74505805969E-08  0.93827000000E+00  0.93827000000E+00 0.  1.
     999902    2    1    2    0    0 -0.91640958757E-02  0.40331342816E-02 -0.22199005893E-01  0.10195775322E+01  0.10192866631E+01 0.  0.
     999903    2    3    3    0    0 -0.51391333582E-01 -0.11433735329E+00  0.24751996907E-01  0.12940950952E+00  0.20495372138E-01 0.  0.
         14    1    1    2    0    0  0.91640958757E-02 -0.40331342816E-02  0.22199005893E-01  0.24352467800E-01  0.00000000000E+00 0.  1.
     999901    1    3    3    0    0  0.42227237707E-01  0.11837048757E+00 -0.46951002799E-01  0.89016802268E+00  0.88000000000E+00 0. -1.
        -11    1    4    4    0    0 -0.45705559502E-01 -0.88392464310E-01  0.12985985228E-01  0.10035498418E+00  0.51100000000E-03 0.  1.
         11    1    4    4    0    0 -0.56857740800E-02 -0.25944888981E-01  0.11766011679E-01  0.29054525343E-01  0.51100000000E-03 0. -1.
</event>
<event>
 8    1  0.1197213E+005  0.1043930E+01  0.7957747E-01            NaN
         13   -1    0    0    0    0  0.00000000000E+00  0.00000000000E+00  0.74505805969E-08  0.10566000000E+00  0.10566000000E+00 0. -1.
     999900   -1    0    0    0    0 -0.00000000000E+00 -0.00000000000E+00 -0.74505805969E-08  0.93827000000E+00  0.93827000000E+00 0.  1.
     999902    2    1    2    0    0  0.21794414748E-01  0.15719191186E-01  0.18376889729E-02  0.10169955131E+01  0.10166387790E+01 0.  0.
     999903    2    3    3    0    0 -0.70073084040E-01 -0.90385716542E-01 -0.45237721310E-01  0.12463124718E+00  0.20166345280E-01 0.  0.
         14    1    1    2    0    0 -0.21794414748E-01 -0.15719191186E-01 -0.18376889729E-02  0.26934486936E-01  0.00000000000E+00 0.  1.
     999901    1    3    3    0    0  0.91867498788E-01  0.10610490773E+00  0.47075410283E-01  0.89236426589E+00  0.88000000000E+00 0. -1.
        -11    1    4    4    0    0 -0.37755973220E-01 -0.54708502178E-01 -0.36055618169E-01  0.75622764079E-01  0.51100000000E-03 0. -1.
         11    1    4    4    0    0 -0.32317110821E-01 -0.35677214364E-01 -0.91821031412E-02  0.49008483099E-01  0.51100000000E-03 0.  1.
</event>
<event>
 8    1  0.1197213E+005  0.1043930E+01  0.7957747E-01            NaN
         13   -1    0    0    0    0  0.00000000000E+00  0.00000000000E+00  0.74505805969E-08  0.10566000000E+00  0.10566000000E+00 0. -1.
     999900   -1    0    0    0    0 -0.00000000000E+00 -0.00000000000E+00 -0.74505805969E-08  0.93827000000E+00  0.93827000000E+00 0. -1.
     999902    2    1    2    0    0  0.53107917713E-02 -0.95438145371E-02  0.26841082847E-01  0.10149518594E+01  0.10145380940E+01 0.  0.
     999903    2    3    3    0    0 -0.60899396098E-01 -0.95661617267E-01  0.52792139373E-01  0.12789294237E+00  0.26640444150E-01 0.  0.
         14    1    1    2    0    0 -0.53107917713E-02  0.95438145371E-02 -0.26841082847E-01  0.28978140616E-01  0.00000000000E+00 0.  1.
     999901    1    3    3    0    0  0.66210187869E-01  0.86117802730E-01 -0.25951056526E-01  0.88705891702E+00  0.88000000000E+00 0.  1.
        -11    1    4    4    0    0 -0.28397671214E-01 -0.40708796343E-01  0.37580059157E-01  0.62258780885E-01  0.51100000000E-03 0.  1.
         11    1    4    4    0    0 -0.32501724884E-01 -0.54952820924E-01  0.15212080216E-01  0.65634161482E-01  0.51100000000E-03 0. -1.
</event>
<event>
 8    1  0.1197213E+005  0.1043930E+01  0.7957747E-01            NaN
         13   -1    0    0    0    0  0.00000000000E+00  0.00000000000E+00  0.74505805969E-08  0.10566000000E+00  0.10566000000E+00 0.  1.
     999900   -1    0    0    0    0 -0.00000000000E+00 -0.00000000000E+00 -0.74505805969E-08  0.93827000000E+00  0.93827000000E+00 0. -1.
     999902    2    1    2    0    0 -0.11374941646E-01 -0.14043552864E-02 -0.58784194750E-02  0.10310491100E+01  0.10309686464E+01 0.  0.
     999903    2    3    3    0    0  0.46524315763E-01  0.17534784538E-02  0.12939092570E+00  0.13882711317E+00  0.19062241552E-01 0.  0.
         14    1    1    2    0    0  0.11374941646E-01  0.14043552864E-02  0.58784194750E-02  0.12880889983E-01  0.00000000000E+00 0.  1.
     999901    1    3    3    0    0 -0.57899257409E-01 -0.31578337403E-02 -0.13526934517E+00  0.89222199685E+00  0.88000000000E+00 0. -1.
        -11    1    4    4    0    0  0.91424905911E-02 -0.40695485909E-02  0.12831459727E-01  0.16280474185E-01  0.51100000000E-03 0. -1.
         11    1    4    4    0    0  0.37381825172E-01  0.58230270447E-02  0.11655946597E+00  0.12254663898E+00  0.51100000000E-03 0.  1.
</event>
<event>
 8    1  0.1197213E+005  0.1043930E+01  0.7957747E-01            NaN
         13   -1    0    0    0    0  0.00000000000E+00  0.00000000000E+00  0.74505805969E-08  0.10566000000E+00  0.10566000000E+00 0. -1.
     999900   -1    0    0    0    0 -0.00000000000E+00 -0.00000000000E+00 -0.74505805969E-08  0.93827000000E+00  0.93827000000E+00 0.  1.
     999902    2    1    2    0    0 -0.64075115510E-03  0.23978032168E-01  0.26097175018E-03  0.10199419885E+01  0.10196598625E+01 0.  0.
     999903    2    3    3    0    0  0.91918557981E-01  0.92059552532E-01  0.13291806484E-01  0.13237671104E+00  0.20565480615E-01 0.  0.
         14    1    1    2    0    0  0.64075115510E-03 -0.23978032168E-01 -0.26097175018E-03  0.23988011484E-01  0.00000000000E+00 0.  1.
     999901    1    3    3    0    0 -0.92559309137E-01 -0.68081520364E-01 -0.13030834734E-01  0.88756527747E+00  0.88000000000E+00 0. -1.
        -11    1    4    4    0    0  0.75873042519E-01  0.63508780189E-01  0.10571580920E-01  0.99509312058E-01  0.51100000000E-03 0.  1.
         11    1    4    4    0    0  0.16045515463E-01  0.28550772343E-01  0.27202255642E-02  0.32867398984E-01  0.51100000000E-03 0. -1.
</event>
<event>
 8    1  0.1197213E+005  0.1043930E+01  0.7957747E-01            NaN
         13   -1    0    0    0    0  0.00000000000E+00  0.00000000000E+00  0.74505805969E-08  0.10566000000E+00  0.10566000000E+00 0. -1.
     999900   -1    0    0    0    0 -0.00000000000E+00 -0.00000000000E+00 -0.74505805969E-08  0.93827000000E+00  0.93827000000E+00 0.  1.
     999902    2    1    2    0    0 -0.63518292254E-02 -0.21918554275E-01 -0.56009888087E-02  0.10204323441E+01  0.10201617661E+01 0.  0.
     999903    2    3    3    0    0  0.12133931678E+00  0.75073695989E-02  0.40553713500E-01  0.12953326437E+00  0.18832750827E-01 0.  0.
         14    1    1    2    0    0  0.63518292254E-02  0.21918554275E-01  0.56009888087E-02  0.23497655876E-01  0.00000000000E+00 0. -1.
     999901    1    3    3    0    0 -0.12769114601E+00 -0.29425923874E-01 -0.46154702309E-01  0.89089907976E+00  0.88000000000E+00 0. -1.
        -11    1    4    4    0    0  0.99572341745E-01  0.13383417555E-01  0.33248018729E-01  0.10582749632E+00  0.51100000000E-03 0.  1.
         11    1    4    4    0    0  0.21766975038E-01 -0.58760479566E-02  0.73056947707E-02  0.23705768053E-01  0.51100000000E-03 0. -1.
</event>
<event>
 8    1  0.1197213E+005  0.1043930E+01  0.7957747E-01            NaN
         13   -1    0    0    0    0  0.00000000000E+00  0.00000000000E+00  0.74505805969E-08  0.10566000000E+00  0.10566000000E+00 0.  1.
     999900   -1    0    0    0    0 -0.00000000000E+00 -0.00000000000E+00 -0.74505805969E-08  0.93827000000E+00  0.93827000000E+00 0. -1.
     999902    2    1    2    0    0 -0.19133620018E-01  0.69445024070E-02  0.12386926896E-01  0.10201023378E+01  0.10198240152E+01 0.  0.
     999903    2    3    3    0    0 -0.59327871298E-01  0.78473913874E-01 -0.84139493463E-01  0.13103013354E+00  0.20285217843E-01 0.  0.
         14    1    1    2    0    0  0.19133620018E-01 -0.69445024070E-02 -0.12386926896E-01  0.23827662214E-01  0.00000000000E+00 0. -1.
     999901    1    3    3    0    0  0.40194251280E-01 -0.71529411467E-01  0.96526420359E-01  0.88907220425E+00  0.88000000000E+00 0.  1.
        -11    1    4    4    0    0 -0.65165641236E-02  0.31485099245E-02 -0.12410496748E-01  0.14375683401E-01  0.51100000000E-03 0. -1.
         11    1    4    4    0    0 -0.52811307174E-01  0.75325403949E-01 -0.71728996715E-01  0.11665445014E+00  0.51100000000E-03 0.  1.
</event>
<event>
 8    1  0.1197213E+005  0.1043930E+01  0.7957747E-01            NaN
         13   -1    0    0    0    0  0.00000000000E+00  0.00000000000E+00  0.74505805969E-08  0.10566000000E+00  0.10566000000E+00 0.  1.
     999900   -1    0    0    0    0 -0.00000000000E+00 -0.00000000000E+00 -0.74505805969E-08  0.93827000000E+00  0.93827000000E+00 0. -1.
     999902    2    1    2    0    0  0.15687728841E-02 -0.13052189130E-01 -0.17475037474E-01  0.10220622698E+01  0.10218283054E+01 0.  0.
     999903    2    3    3    0    0  0.56066514070E-01  0.95325048921E-01 -0.69333802266E-01  0.13222803748E+00  0.21136669726E-01 0.  0.
         14    1    1    2    0    0 -0.15687728841E-02  0.13052189130E-01  0.17475037474E-01  0.21867730202E-01  0.00000000000E+00 0. -1.
     999901    1    3    3    0    0 -0.54497741186E-01 -0.10837723805E+00  0.51858764792E-01  0.88983423232E+00  0.88000000000E+00 0.  1.
        -11    1    4    4    0    0  0.42190679863E-01  0.79130046571E-01 -0.46633216514E-01  0.10107688035E+00  0.51100000000E-03 0.  1.
         11    1    4    4    0    0  0.13875834207E-01  0.16195002350E-01 -0.22700585752E-01  0.31151157130E-01  0.51100000000E-03 0. -1.
</event>
<event>
 8    1  0.1197213E+005  0.1043930E+01  0.7957747E-01            NaN
         13   -1    0    0    0    0  0.00000000000E+00  0.00000000000E+00  0.74505805969E-08  0.10566000000E+00  0.10566000000E+00 0.  1.
     999900   -1    0    0    0    0 -0.00000000000E+00 -0.00000000000E+00 -0.74505805969E-08  0.93827000000E+00  0.93827000000E+00 0. -1.
     999902    2    1    2    0    0 -0.16399622556E-01  0.46059862426E-02 -0.16193672289E-01  0.10204268566E+01  0.10201561507E+01 0.  0.
     999903    2    3    3    0    0  0.10603380648E+00 -0.41773754429E-01 -0.58650728574E-01  0.12972846400E+00  0.20033764846E-01 0.  0.
         14    1    1    2    0    0  0.16399622556E-01 -0.46059862426E-02  0.16193672289E-01  0.23503143438E-01  0.00000000000E+00 0.  1.
     999901    1    3    3    0    0 -0.12243342903E+00  0.46379740672E-01  0.42457056286E-01  0.89069839256E+00  0.88000000000E+00 0.  1.
        -11    1    4    4    0    0  0.31447990649E-01 -0.33217558782E-02 -0.12953903203E-01  0.34177110867E-01  0.51100000000E-03 0.  1.
         11    1    4    4    0    0  0.74585815827E-01 -0.38451998551E-01 -0.45696825371E-01  0.95551353131E-01  0.51100000000E-03 0. -1.
</event>
<event>
 8    1  0.1197213E+005  0.1043930E+01  0.7957747E-01            NaN
         13   -1    0    0    0    0  0.00000000000E+00  0.00000000000E+00  0.74505805969E-08  0.10566000000E+00  0.10566000000E+00 0. -1.
     999900   -1    0    0    0    0 -0.00000000000E+00 -0.00000000000E+00 -0.74505805969E-08  0.93827000000E+00  0.93827000000E+00 0.  1.
     999902    2    1    2    0    0 -0.14189749872E-01  0.12620877411E-01 -0.14670245282E-01  0.10199330909E+01  0.10196507531E+01 0.  0.
     999903    2    3    3    0    0 -0.79996174282E-01 -0.69173209569E-01 -0.75674308252E-01  0.13159630015E+00  0.20165923295E-01 0.  0.
         14    1    1    2    0    0  0.14189749872E-01 -0.12620877411E-01  0.14670245282E-01  0.23996909065E-01  0.00000000000E+00 0. -1.
     999901    1    3    3    0    0  0.65806424411E-01  0.81794086980E-01  0.61004062970E-01  0.88833679078E+00  0.88000000000E+00 0. -1.
        -11    1    4    4    0    0 -0.19596396127E-01 -0.68700331503E-02 -0.12279777451E-01  0.24130274593E-01  0.51100000000E-03 0. -1.
         11    1    4    4    0    0 -0.60399778155E-01 -0.62303176419E-01 -0.63394530802E-01  0.10746602556E+00  0.51100000000E-03 0.  1.
</event>
<event>
 8    1  0.1197213E+005  0.1043930E+01  0.7957747E-01            NaN
         13   -1    0    0    0    0  0.00000000000E+00  0.00000000000E+00  0.74505805969E-08  0.10566000000E+00  0.10566000000E+00 0. -1.
     999900   -1    0    0    0    0 -0.00000000000E+00 -0.00000000000E+00 -0.74505805969E-08  0.93827000000E+00  0.93827000000E+00 0. -1.
     999902    2    1    2    0    0  0.13838231036E-01  0.88334701393E-03  0.18837799236E-01  0.10205389842E+01  0.10202708849E+01 0.  0.
     999903    2    3    3    0    0  0.89988563115E-01  0.86163154618E-01  0.41591001085E-01  0.13285141143E+00  0.19941299895E-01 0.  0.
         14    1    1    2    0    0 -0.13838231036E-01 -0.88334701393E-03 -0.18837799236E-01  0.23391015801E-01  0.00000000000E+00 0.  1.
     999901    1    3    3    0    0 -0.76150332079E-01 -0.85279807604E-01 -0.22753201849E-01  0.88768757277E+00  0.88000000000E+00 0.  1.
        -11    1    4    4    0    0  0.51613030920E-01  0.47755612899E-01  0.33725931819E-01  0.77988480702E-01  0.51100000000E-03 0. -1.
         11    1    4    4    0    0  0.38375532194E-01  0.38407541719E-01  0.78650692662E-02  0.54862930724E-01  0.51100000000E-03 0.  1.
</event>
<event>
 8    1  0.1197213E+005  0.1043930E+01  0.7957747E-01            NaN
         13   -1    0    0    0    0  0.00000000000E+00  0.00000000000E+00  0.74505805969E-08  0.10566000000E+00  0.10566000000E+00 0.  1.
     999900   -1    0    0    0    0 -0.00000000000E+00 -0.00000000000E+00 -0.74505805969E-08  0.93827000000E+00  0.93827000000E+00 0. -1.
     999902    2    1    2    0    0 -0.18807023237E-01  0.23444417018E-02  0.14103049473E-01  0.10203059332E+01  0.10200324018E+01 0.  0.
     999903    2    3    3    0    0  0.66496677171E-01  0.20702348098E-03  0.11131097179E+00  0.13085066726E+00  0.17604367329E-01 0.  0.
         14    1    1    2    0    0  0.18807023237E-01 -0.23444417018E-02 -0.14103049473E-01  0.23624066846E-01  0.00000000000E+00 0. -1.
     999901    1    3    3    0    0 -0.85303700408E-01  0.21374182208E-02 -0.97207922316E-01  0.88945526589E+00  0.88000000000E+00 0. -1.
        -11    1    4    4    0    0  0.44778143304E-01  0.36107456653E-02  0.87999767440E-01  0.98804553501E-01  0.51100000000E-03 0.  1.
         11    1    4    4    0    0  0.21718533868E-01 -0.34037221843E-02  0.23311204349E-01  0.32046113762E-01  0.51100000000E-03 0. -1.
</event>
<event>
 8    1  0.1197213E+005  0.1043930E+01  0.7957747E-01            NaN
         13   -1    0    0    0    0  0.00000000000E+00  0.00000000000E+00  0.74505805969E-08  0.10566000000E+00  0.10566000000E+00 0.  1.
     999900   -1    0    0    0    0 -0.00000000000E+00 -0.00000000000E+00 -0.74505805969E-08  0.93827000000E+00  0.93827000000E+00 0.  1.
     999902    2    1    2    0    0  0.91343975916E-02  0.82884580908E-02  0.20342368886E-01  0.10201403441E+01  0.10198629192E+01 0.  0.
     999903    2    3    3    0    0  0.48951026373E-01  0.90939906958E-01 -0.76394127008E-01  0.13009844868E+00  0.20573625049E-01 0.  0.
         14    1    1    2    0    0 -0.91343975916E-02 -0.82884580908E-02 -0.20342368886E-01  0.23789655920E-01  0.00000000000E+00 0. -1.
     999901    1    3    3    0    0 -0.39816628781E-01 -0.82651448867E-01  0.96736495894E-01  0.89004189540E+00  0.88000000000E+00 0. -1.
        -11    1    4    4    0    0  0.17398747073E-01  0.45426785661E-01 -0.25705815128E-01  0.55021444070E-01  0.51100000000E-03 0.  1.
         11    1    4    4    0    0  0.31552279300E-01  0.45513121297E-01 -0.50688311879E-01  0.75077004611E-01  0.51100000000E-03 0. -1.
</event>
<event>
 8    1  0.1197213E+005  0.1043930E+01  0.7957747E-01            NaN
         13   -1    0    0    0    0  0.00000000000E+00  0.00000000000E+00  0.74505805969E-08  0.10566000000E+00  0.10566000000E+00 0. -1.
     999900   -1    0    0    0    0 -0.00000000000E+00 -0.00000000000E+00 -0.74505805969E-08  0.93827000000E+00  0.93827000000E+00 0.  1.
     999902    2    1    2    0    0 -0.37173692383E-02  0.33436272721E-02 -0.23875447109E-01  0.10195366474E+01  0.10192447889E+01 0.  0.
     999903    2    3    3    0    0  0.25013842047E-01 -0.13884332466E-01 -0.12815633714E+00  0.13274648667E+00  0.19470901158E-01 0.  0.
         14    1    1    2    0    0  0.37173692383E-02 -0.33436272721E-02  0.23875447109E-01  0.24393352620E-01  0.00000000000E+00 0. -1.
     999901    1    3    3    0    0 -0.28731211286E-01  0.17227959738E-01  0.10428089004E+00  0.88679016071E+00  0.88000000000E+00 0. -1.
        -11    1    4    4    0    0  0.99720963237E-02 -0.76714988582E-02 -0.94753437555E-01  0.95586451181E-01  0.51100000000E-03 0. -1.
         11    1    4    4    0    0  0.15041745724E-01 -0.62128336074E-02 -0.33402899590E-01  0.37160035493E-01  0.51100000000E-03 0.  1.
</event>
<event>
 8    1  0.1197213E+005  0.1043930E+01  0.7957747E-01            NaN
         13   -1    0    0    0    0  0.00000000000E+00  0.00000000000E+00  0.74505805969E-08  0.10566000000E+00  0.10566000000E+00 0. -1.
     999900   -1    0    0    0    0 -0.00000000000E+00 -0.00000000000E+00 -0.74505805969E-08  0.93827000000E+00  0.93827000000E+00 0.  1.
     999902    2    1    2    0    0  0.34742534019E-04 -0.16610807463E-01  0.16373338097E-01  0.10206060567E+01  0.10203395105E+01 0.  0.
     999903    2    3    3    0    0  0.11885442503E+00 -0.49819496298E-01 -0.15511457755E-01  0.13142802379E+00  0.20600086319E-01 0.  0.
         14    1    1    2    0    0 -0.34742534019E-04  0.16610807463E-01 -0.16373338097E-01  0.23323943321E-01  0.00000000000E+00 0.  1.
     999901    1    3    3    0    0 -0.11881968249E+00  0.33208688835E-01  0.31884795852E-01  0.88917803289E+00  0.88000000000E+00 0. -1.
        -11    1    4    4    0    0  0.22238383110E-01 -0.15557749747E-01  0.28143907348E-02  0.27290496088E-01  0.51100000000E-03 0.  1.
         11    1    4    4    0    0  0.96616041916E-01 -0.34261746551E-01 -0.18325848490E-01  0.10413752770E+00  0.51100000000E-03 0. -1.
</event>
<event>
 8    1  0.1197213E+005  0.1043930E+01  0.7957747E-01            NaN
         13   -1    0    0    0    0  0.00000000000E+00  0.00000000000E+00  0.74505805969E-08  0.10566000000E+00  0.10566000000E+00 0.  1.
     999900   -1    0    0    0    0 -0.00000000000E+00 -0.00000000000E+00 -0.74505805969E-08  0.93827000000E+00  0.93827000000E+00 0.  1.
     999902    2    1    2    0    0 -0.70843038809E-02  0.19924754261E-01 -0.10331651476E-01  0.10203943628E+01  0.10201228992E+01 0.  0.
     999903    2    3    3    0    0 -0.18488899315E-01 -0.11905667427E+00  0.38483707926E-01  0.12807780378E+00  0.20164249533E-01 0.  0.
         14    1    1    2    0    0  0.70843038809E-02 -0.19924754261E-01  0.10331651476E-01  0.23535637150E-01  0.00000000000E+00 0. -1.
     999901    1    3    3    0    0  0.11404595435E-01  0.13898142853E+00 -0.48815359402E-01  0.89231655907E+00  0.88000000000E+00 0.  1.
        -11    1    4    4    0    0  0.18540314298E-02 -0.37499418187E-01  0.17577941637E-01  0.41459485646E-01  0.51100000000E-03 0.  1.
         11    1    4    4    0    0 -0.20342930745E-01 -0.81557256085E-01  0.20905766289E-01  0.86618318135E-01  0.51100000000E-03 0. -1.
</event>
<event>
 8    1  0.1197213E+005  0.1043930E+01  0.7957747E-01            NaN
         13   -1    0    0    0    0  0.00000000000E+00  0.00000000000E+00  0.74505805969E-08  0.10566000000E+00  0.10566000000E+00 0.  1.
     999900   -1    0    0    0    0 -0.00000000000E+00 -0.00000000000E+00 -0.74505805969E-08  0.93827000000E+00  0.93827000000E+00 0.  1.
     999902    2    1    2    0    0 -0.18225415727E-01  0.14653350386E-01  0.27171601898E-02  0.10203870729E+01  0.10201154391E+01 0.  0.
     999903    2    3    3    0    0 -0.30895361498E-01 -0.77799704468E-01 -0.97210153358E-01  0.12982906646E+00  0.19961342761E-01 0.  0.
         14    1    1    2    0    0  0.18225415727E-01 -0.14653350386E-01 -0.27171601898E-02  0.23542927079E-01  0.00000000000E+00 0.  1.
     999901    1    3    3    0    0  0.12669945771E-01  0.92453054854E-01  0.99927313548E-01  0.89055800646E+00  0.88000000000E+00 0. -1.
        -11    1    4    4    0    0 -0.21603297309E-01 -0.46495563994E-01 -0.72861537712E-01  0.89093236132E-01  0.51100000000E-03 0.  1.
         11    1    4    4    0    0 -0.92920641882E-02 -0.31304140474E-01 -0.24348615646E-01  0.40735830329E-01  0.51100000000E-03 0. -1.
</event>
<event>
 8    1  0.1197213E+005  0.1043930E+01  0.7957747E-01            NaN
         13   -1    0    0    0    0  0.00000000000E+00  0.00000000000E+00  0.74505805969E-08  0.10566000000E+00  0.10566000000E+00 0.  1.
     999900   -1    0    0    0    0 -0.00000000000E+00 -0.00000000000E+00 -0.74505805969E-08  0.93827000000E+00  0.93827000000E+00 0.  1.
     999902    2    1    2    0    0 -0.29469803624E-01  0.34924411516E-02  0.79763279704E-02  0.10132007260E+01  0.10127346261E+01 0.  0.
     999903    2    3    3    0    0 -0.61813393459E-01  0.83140081420E-01  0.70254671834E-01  0.12682132277E+00  0.20365663402E-01 0.  0.
         14    1    1    2    0    0  0.29469803624E-01 -0.34924411516E-02 -0.79763279704E-02  0.30729273970E-01  0.00000000000E+00 0.  1.
     999901    1    3    3    0    0  0.32343589835E-01 -0.79647640269E-01 -0.62278343864E-01  0.88637940326E+00  0.88000000000E+00 0.  1.
        -11    1    4    4    0    0 -0.22248707515E-01  0.15571996284E-01  0.15477918933E-01  0.31262104053E-01  0.51100000000E-03 0.  1.
         11    1    4    4    0    0 -0.39564685944E-01  0.67568085137E-01  0.54776752901E-01  0.95559218719E-01  0.51100000000E-03 0. -1.
</event>
<event>
 8    1  0.1197213E+005  0.1043930E+01  0.7957747E-01            NaN
         13   -1    0    0    0    0  0.00000000000E+00  0.00000000000E+00  0.74505805969E-08  0.10566000000E+00  0.10566000000E+00 0.  1.
     999900   -1    0    0    0    0 -0.00000000000E+00 -0.00000000000E+00 -0.74505805969E-08  0.93827000000E+00  0.93827000000E+00 0.  1.
     999902    2    1    2    0    0 -0.13250491387E-01 -0.62246491611E-02  0.19652491438E-01  0.10194240375E+01  0.10191294452E+01 0.  0.
     999903    2    3    3    0    0  0.22489165084E-01  0.12427859091E+00 -0.32552516181E-02  0.12878764512E+00  0.24994602767E-01 0.  0.
         14    1    1    2    0    0  0.13250491387E-01  0.62246491611E-02 -0.19652491438E-01  0.24505962517E-01  0.00000000000E+00 0.  1.
     999901    1    3    3    0    0 -0.35739656472E-01 -0.13050324007E+00  0.22907743056E-01  0.89063639237E+00  0.88000000000E+00 0. -1.
        -11    1    4    4    0    0  0.37433706417E-02  0.71999259666E-01  0.65220050748E-02  0.72392706037E-01  0.51100000000E-03 0. -1.
         11    1    4    4    0    0  0.18745794443E-01  0.52279331243E-01 -0.97772566929E-02  0.56394939080E-01  0.51100000000E-03 0.  1.
</event>
<event>
 8    1  0.1197213E+005  0.1043930E+01  0.7957747E-01            NaN
         13   -1    0    0    0    0  0.00000000000E+00  0.00000000000E+00  0.74505805969E-08  0.10566000000E+00  0.10566000000E+00 0.  1.
     999900   -1    0    0    0    0 -0.00000000000E+00 -0.00000000000E+00 -0.74505805969E-08  0.93827000000E+00  0.93827000000E+00 0. -1.
     999902    2    1    2    0    0 -0.18614994458E-01  0.15625933826E-02  0.10761554454E-01  0.10223714571E+01  0.10221441315E+01 0.  0.
     999903    2    3    3    0    0  0.30366692955E-01 -0.45899254881E-01 -0.11669612003E+00  0.13057703489E+00  0.20087308699E-01 0.  0.
         14    1    1    2    0    0  0.18614994458E-01 -0.15625933826E-02 -0.10761554454E-01  0.21558542878E-01  0.00000000000E+00 0.  1.
     999901    1    3    3    0    0 -0.48981687412E-01  0.47461848264E-01  0.12745767448E+00  0.89179442223E+00  0.88000000000E+00 0.  1.
        -11    1    4    4    0    0  0.11773093340E-01 -0.29210924308E-01 -0.47387836461E-01  0.56901247712E-01  0.51100000000E-03 0.  1.
         11    1    4    4    0    0  0.18593599615E-01 -0.16688330573E-01 -0.69308283568E-01  0.73675787177E-01  0.51100000000E-03 0. -1.
</event>
<event>
 8    1  0.1197213E+005  0.1043930E+01  0.7957747E-01            NaN
         13   -1    0    0    0    0  0.00000000000E+00  0.00000000000E+00  0.74505805969E-08  0.10566000000E+00  0.10566000000E+00 0.  1.
     999900   -1    0    0    0    0 -0.00000000000E+00 -0.00000000000E+00 -0.74505805969E-08  0.93827000000E+00  0.93827000000E+00 0.  1.
     999902    2    1    2    0    0 -0.21238619567E-03  0.16723035910E-01 -0.16425156282E-01  0.10204887800E+01  0.10202195152E+01 0.  0.
     999903    2    3    3    0    0  0.28414800870E-01 -0.11735894489E+00 -0.41942143965E-01  0.12950695631E+00  0.20793879873E-01 0.  0.
         14    1    1    2    0    0  0.21238619567E-03 -0.16723035910E-01  0.16425156282E-01  0.23441220037E-01  0.00000000000E+00 0.  1.
     999901    1    3    3    0    0 -0.28627187065E-01  0.13408198080E+00  0.25516987683E-01  0.89098182365E+00  0.88000000000E+00 0. -1.
        -11    1    4    4    0    0  0.27866550934E-01 -0.11760096825E+00 -0.39829741330E-01  0.12725251199E+00  0.51100000000E-03 0. -1.
         11    1    4    4    0    0  0.54824993547E-03  0.24202336055E-03 -0.21124026348E-02  0.22544443196E-02  0.51100000000E-03 0.  1.
</event>
<event>
 8    1  0.1197213E+005  0.1043930E+01  0.7957747E-01            NaN
         13   -1    0    0    0    0  0.00000000000E+00  0.00000000000E+00  0.74505805969E-08  0.10566000000E+00  0.10566000000E+00 0.  1.
     999900   -1    0    0    0    0 -0.00000000000E+00 -0.00000000000E+00 -0.74505805969E-08  0.93827000000E+00  0.93827000000E+00 0.  1.
     999902    2    1    2    0    0  0.21067607015E-01  0.95562643751E-02 -0.75092249592E-02  0.10196081022E+01  0.10193179716E+01 0.  0.
     999903    2    3    3    0    0 -0.67547117716E-01 -0.40318825972E-01  0.96941623800E-01  0.12761590833E+00  0.26456016230E-01 0.  0.
         14    1    1    2    0    0 -0.21067607015E-01 -0.95562643751E-02  0.75092249592E-02  0.24321897822E-01  0.00000000000E+00 0.  1.
     999901    1    3    3    0    0  0.88614724732E-01  0.49875090347E-01 -0.10445084876E+00  0.89199219385E+00  0.88000000000E+00 0.  1.
        -11    1    4    4    0    0 -0.40028906972E-01 -0.23585014067E-01  0.36343085067E-01  0.58988534777E-01  0.51100000000E-03 0.  1.
         11    1    4    4    0    0 -0.27518210744E-01 -0.16733811905E-01  0.60598538734E-01  0.68627373555E-01  0.51100000000E-03 0. -1.
</event>
<event>
 8    1  0.1197213E+005  0.1043930E+01  0.7957747E-01            NaN
         13   -1    0    0    0    0  0.00000000000E+00  0.00000000000E+00  0.74505805969E-08  0.10566000000E+00  0.10566000000E+00 0. -1.
     999900   -1    0    0    0    0 -0.00000000000E+00 -0.00000000000E+00 -0.74505805969E-08  0.93827000000E+00  0.93827000000E+00 0.  1.
     999902    2    1    2    0    0  0.16093813226E-01  0.16550846341E-01 -0.98221553224E-02  0.10188418340E+01  0.10185328991E+01 0.  0.
     999903    2    3    3    0    0  0.10251678395E+00  0.81005759875E-01  0.98492333463E-03  0.13219638134E+00  0.20082057685E-01 0.  0.
         14    1    1    2    0    0 -0.16093813226E-01 -0.16550846341E-01  0.98221553224E-02  0.25088166014E-01  0.00000000000E+00 0. -1.
     999901    1    3    3    0    0 -0.86422970726E-01 -0.64454913534E-01 -0.10807078657E-01  0.88664545265E+00  0.88000000000E+00 0. -1.
        -11    1    4    4    0    0  0.71480675598E-01  0.46455265478E-01 -0.48265453087E-02  0.85388145168E-01  0.51100000000E-03 0.  1.
         11    1    4    4    0    0  0.31036108354E-01  0.34550494397E-01  0.58114686433E-02  0.46808236173E-01  0.51100000000E-03 0. -1.
</event>
<event>
 8    1  0.1197213E+005  0.1043930E+01  0.7957747E-01            NaN
         13   -1    0    0    0    0  0.00000000000E+00  0.00000000000E+00  0.74505805969E-08  0.10566000000E+00  0.10566000000E+00 0. -1.
     999900   -1    0    0    0    0 -0.00000000000E+00 -0.00000000000E+00 -0.74505805969E-08  0.93827000000E+00  0.93827000000E+00 0.  1.
     999902    2    1    2    0    0 -0.16455391232E-01 -0.17502748302E-01 -0.18395050930E-02  0.10198362274E+01  0.10195515783E+01 0.  0.
     999903    2    3    3    0    0  0.42994721147E-01  0.76008623673E-01 -0.91949114585E-01  0.12832154201E+00  0.19644886172E-01 0.  0.
         14    1    1    2    0    0  0.16455391232E-01  0.17502748302E-01  0.18395050930E-02  0.24093772592E-01  0.00000000000E+00 0.  1.
     999901    1    3    3    0    0 -0.59450112379E-01 -0.93511371975E-01  0.90109609492E-01  0.89151468539E+00  0.88000000000E+00 0. -1.
        -11    1    4    4    0    0  0.28049708468E-01  0.53525345537E-01 -0.50007316430E-01  0.78439413419E-01  0.51100000000E-03 0. -1.
         11    1    4    4    0    0  0.14945012679E-01  0.22483278137E-01 -0.41941798154E-01  0.49882128595E-01  0.51100000000E-03 0.  1.
</event>
<event>
 8    1  0.1197213E+005  0.1043930E+01  0.7957747E-01            NaN
         13   -1    0    0    0    0  0.00000000000E+00  0.00000000000E+00  0.74505805969E-08  0.10566000000E+00  0.10566000000E+00 0.  1.
     999900   -1    0    0    0    0 -0.00000000000E+00 -0.00000000000E+00 -0.74505805969E-08  0.93827000000E+00  0.93827000000E+00 0. -1.
     999902    2    1    2    0    0 -0.39122649476E-02 -0.21877387076E-01  0.37929555837E-03  0.10217023202E+01  0.10214605041E+01 0.  0.
     999903    2    3    3    0    0 -0.11340698454E+00 -0.51543591494E-01  0.43225631545E-01  0.13338650601E+00  0.20139980060E-01 0.  0.
         14    1    1    2    0    0  0.39122649476E-02  0.21877387076E-01 -0.37929555837E-03  0.22227679758E-01  0.00000000000E+00 0. -1.
     999901    1    3    3    0    0  0.10949471959E+00  0.29666204418E-01 -0.42846335987E-01  0.88831581423E+00  0.88000000000E+00 0. -1.
        -11    1    4    4    0    0 -0.95253371471E-02 -0.11282875110E-01  0.52868033654E-02  0.15692250614E-01  0.51100000000E-03 0.  1.
         11    1    4    4    0    0 -0.10388164739E+00 -0.40260716385E-01  0.37938828180E-01  0.11769425540E+00  0.51100000000E-03 0. -1.
</event>
<event>
 8    1  0.1197213E+005  0.1043930E+01  0.7957747E-01            NaN
         13   -1    0    0    0    0  0.00000000000E+00  0.00000000000E+00  0.74505805969E-08  0.10566000000E+00  0.10566000000E+00 0. -1.
     999900   -1    0    0    0    0 -0.00000000000E+00 -0.00000000000E+00 -0.74505805969E-08  0.93827000000E+00  0.93827000000E+00 0.  1.
     999902    2    1    2    0    0 -0.22890176034E-01  0.13476953618E-03  0.85052502365E-02  0.10195103849E+01  0.10192178900E+01 0.  0.
     999903    2    3    3    0    0 -0.64633994882E-01  0.10329494713E+00  0.46175109541E-01  0.13170207957E+00  0.19128450659E-01 0.  0.
         14    1    1    2    0    0  0.22890176034E-01 -0.13476953618E-03 -0.85052502365E-02  0.24419615134E-01  0.00000000000E+00 0.  1.
     999901    1    3    3    0    0  0.41743818848E-01 -0.10316017760E+00 -0.37669859305E-01  0.88780830530E+00  0.88000000000E+00 0.  1.
        -11    1    4    4    0    0 -0.19625329979E-01  0.45912059836E-01  0.24493197816E-01  0.55616981898E-01  0.51100000000E-03 0.  1.
         11    1    4    4    0    0 -0.45008664902E-01  0.57382887295E-01  0.21681911725E-01  0.76085097672E-01  0.51100000000E-03 0. -1.
</event>
<event>
 8    1  0.1197213E+005  0.1043930E+01  0.7957747E-01            NaN
         13   -1    0    0    0    0  0.00000000000E+00  0.00000000000E+00  0.74505805969E-08  0.10566000000E+00  0.10566000000E+00 0.  1.
     999900   -1    0    0    0    0 -0.00000000000E+00 -0.00000000000E+00 -0.74505805969E-08  0.93827000000E+00  0.93827000000E+00 0.  1.
     999902    2    1    2    0    0  0.15735822900E-01  0.37164263102E-02  0.17137110535E-01  0.10203692593E+01  0.10200972095E+01 0.  0.
     999903    2    3    3    0    0 -0.38774974250E-01  0.11478081377E+00 -0.41561425672E-01  0.12977830752E+00  0.20902706981E-01 0.  0.
         14    1    1    2    0    0 -0.15735822900E-01 -0.37164263102E-02 -0.17137110535E-01  0.23560740743E-01  0.00000000000E+00 0. -1.
     999901    1    3    3    0    0  0.54510797150E-01 -0.11106438746E+00  0.58698536208E-01  0.89059095174E+00  0.88000000000E+00 0. -1.
        -11    1    4    4    0    0 -0.19642413359E-01  0.29281130858E-01 -0.10031373568E-01  0.36661950352E-01  0.51100000000E-03 0. -1.
         11    1    4    4    0    0 -0.19132560891E-01  0.85499682916E-01 -0.31530052104E-01  0.93116357165E-01  0.51100000000E-03 0.  1.
</event>
<event>
 8    1  0.1197213E+005  0.1043930E+01  0.7957747E-01            NaN
         13   -1    0    0    0    0  0.00000000000E+00  0.00000000000E+00  0.74505805969E-08  0.10566000000E+00  0.10566000000E+00 0. -1.
     999900   -1    0    0    0    0 -0.00000000000E+00 -0.00000000000E+00 -0.74505805969E-08  0.93827000000E+00  0.93827000000E+00 0. -1.
     999902    2    1    2    0    0  0.21887425113E-01  0.39387143969E-02  0.55153909696E-02  0.10210172877E+01  0.10207601625E+01 0.  0.
     999903    2    3    3    0    0 -0.77312725537E-01  0.60876001503E-01  0.82771069825E-01  0.13025864220E+00  0.20811505908E-01 0.  0.
         14    1    1    2    0    0 -0.21887425113E-01 -0.39387143969E-02 -0.55153909696E-02  0.22912712339E-01  0.00000000000E+00 0.  1.
     999901    1    3    3    0    0  0.99200150650E-01 -0.56937287107E-01 -0.77255678856E-01  0.89075864546E+00  0.88000000000E+00 0. -1.
        -11    1    4    4    0    0 -0.32079748000E-01  0.35808903637E-01  0.48006567337E-01  0.67943207460E-01  0.51100000000E-03 0.  1.
         11    1    4    4    0    0 -0.45232977537E-01  0.25067097866E-01  0.34764502488E-01  0.62315434737E-01  0.51100000000E-03 0. -1.
</event>
<event>
 8    1  0.1197213E+005  0.1043930E+01  0.7957747E-01            NaN
         13   -1    0    0    0    0  0.00000000000E+00  0.00000000000E+00  0.74505805969E-08  0.10566000000E+00  0.10566000000E+00 0. -1.
     999900   -1    0    0    0    0 -0.00000000000E+00 -0.00000000000E+00 -0.74505805969E-08  0.93827000000E+00  0.93827000000E+00 0. -1.
     999902    2    1    2    0    0  0.16160933940E-01  0.16610495614E-01  0.67946163923E-02  0.10197794066E+01  0.10194933972E+01 0.  0.
     999903    2    3    3    0    0 -0.79621652237E-01  0.13702401087E-01  0.99646639024E-01  0.12972083608E+00  0.19253034644E-01 0.  0.
         14    1    1    2    0    0 -0.16160933940E-01 -0.16610495614E-01 -0.67946163923E-02  0.24150593415E-01  0.00000000000E+00 0.  1.
     999901    1    3    3    0    0  0.95782586177E-01  0.29080945270E-02 -0.92852022632E-01  0.89005857051E+00  0.88000000000E+00 0. -1.
        -11    1    4    4    0    0 -0.17605360042E-01  0.95388891729E-02  0.32868081010E-01  0.38490401130E-01  0.51100000000E-03 0.  1.
         11    1    4    4    0    0 -0.62016292195E-01  0.41635119146E-02  0.66778558014E-01  0.91230434947E-01  0.51100000000E-03 0. -1.
</event>
<event>
 8    1  0.1197213E+005  0.1043930E+01  0.7957747E-01            NaN
         13   -1    0    0    0    0  0.00000000000E+00  0.00000000000E+00  0.74505805969E-08  0.10566000000E+00  0.10566000000E+00 0. -1.
     999900   -1    0    0    0    0 -0.00000000000E+00 -0.00000000000E+00 -0.74505805969E-08  0.93827000000E+00  0.93827000000E+00 0.  1.
     999902    2    1    2    0    0 -0.21921465628E-03 -0.14466755876E-01 -0.16396766102E-02  0.10293689691E+01  0.10292659768E+01 0.  0.
     999903    2    3    3    0    0  0.56623796421E-01  0.23883202001E-01  0.12191595435E+00  0.13809581172E+00  0.20743471984E-01 0.  0.
         14    1    1    2    0    0  0.21921465628E-03  0.14466755876E-01  0.16396766102E-02  0.14561030872E-01  0.00000000000E+00 0.  1.
     999901    1    3    3    0    0 -0.56843011077E-01 -0.38349957877E-01 -0.12355563096E+00  0.89127315741E+00  0.88000000000E+00 0.  1.
        -11    1    4    4    0    0  0.17641798130E-01 -0.15413069930E-02  0.25712709323E-01  0.31225201525E-01  0.51100000000E-03 0.  1.
         11    1    4    4    0    0  0.38981998290E-01  0.25424508994E-01  0.96203245028E-01  0.10687061019E+00  0.51100000000E-03 0. -1.
</event>
<event>
 8    1  0.1197213E+005  0.1043930E+01  0.7957747E-01            NaN
         13   -1    0    0    0    0  0.00000000000E+00  0.00000000000E+00  0.74505805969E-08  0.10566000000E+00  0.10566000000E+00 0. -1.
     999900   -1    0    0    0    0 -0.00000000000E+00 -0.00000000000E+00 -0.74505805969E-08  0.93827000000E+00  0.93827000000E+00 0.  1.
     999902    2    1    2    0    0  0.80193812274E-02 -0.15399333454E-01 -0.17412313488E-01  0.10193405997E+01  0.10190439733E+01 0.  0.
     999903    2    3    3    0    0 -0.19700118105E-01 -0.11999758499E+00  0.43239172989E-01  0.13064055600E+00  0.20243856716E-01 0.  0.
         14    1    1    2    0    0 -0.80193812274E-02  0.15399333454E-01  0.17412313488E-01  0.24589400300E-01  0.00000000000E+00 0. -1.
     999901    1    3    3    0    0  0.27719499332E-01  0.10459825153E+00 -0.60651486477E-01  0.88870004370E+00  0.88000000000E+00 0. -1.
        -11    1    4    4    0    0 -0.13815085522E-01 -0.61405262934E-01  0.32291542047E-01  0.70742262565E-01  0.51100000000E-03 0.  1.
         11    1    4    4    0    0 -0.58850325833E-02 -0.58592322051E-01  0.10947630942E-01  0.59898293432E-01  0.51100000000E-03 0. -1.
</event>
<event>
 8    1  0.1197213E+005  0.1043930E+01  0.7957747E-01            NaN
         13   -1    0    0    0    0  0.00000000000E+00  0.00000000000E+00  0.74505805969E-08  0.10566000000E+00  0.10566000000E+00 0.  1.
     999900   -1    0    0    0    0 -0.00000000000E+00 -0.00000000000E+00 -0.74505805969E-08  0.93827000000E+00  0.93827000000E+00 0.  1.
     999902    2    1    2    0    0 -0.12200288436E-01 -0.79567234875E-02 -0.13915813324E-01  0.10237853643E+01  0.10235871560E+01 0.  0.
     999903    2    3    3    0    0 -0.94748191482E-03 -0.11838957794E+00  0.58716682015E-01  0.13384293900E+00  0.21196548910E-01 0.  0.
         14    1    1    2    0    0  0.12200288436E-01  0.79567234875E-02  0.13915813324E-01  0.20144635689E-01  0.00000000000E+00 0. -1.
     999901    1    3    3    0    0 -0.11252806521E-01  0.11043285445E+00 -0.72632495339E-01  0.88994242532E+00  0.88000000000E+00 0.  1.
        -11    1    4    4    0    0 -0.79621243669E-02 -0.19431105025E-01  0.86416163303E-02  0.22713474431E-01  0.51100000000E-03 0.  1.
         11    1    4    4    0    0  0.70146424521E-02 -0.98958472913E-01  0.50075065685E-01  0.11112946456E+00  0.51100000000E-03 0. -1.
</event>
<event>
 8    1  0.1197213E+005  0.1043930E+01  0.7957747E-01            NaN
         13   -1    0    0    0    0  0.00000000000E+00  0.00000000000E+00  0.74505805969E-08  0.10566000000E+00  0.10566000000E+00 0. -1.
     999900   -1    0    0    0    0 -0.00000000000E+00 -0.00000000000E+00 -0.74505805969E-08  0.93827000000E+00  0.93827000000E+00 0. -1.
     999902    2    1    2    0    0 -0.20233285831E-01 -0.13295354322E-01 -0.20858273135E-03  0.10197185191E+01  0.10194310483E+01 0.  0.
     999903    2    3    3    0    0  0.78778959363E-01 -0.40470429627E-01  0.91624384530E-01  0.12900240083E+00  0.20065180464E-01 0.  0.
         14    1    1    2    0    0  0.20233285831E-01  0.13295354322E-01  0.20858273135E-03  0.24211480930E-01  0.00000000000E+00 0. -1.
     999901    1    3    3    0    0 -0.99012245194E-01  0.27175075305E-01 -0.91832967261E-01  0.89071611824E+00  0.88000000000E+00 0.  1.
        -11    1    4    4    0    0  0.63294331968E-01 -0.26015923401E-01  0.60455738299E-01  0.91313515670E-01  0.51100000000E-03 0.  1.
         11    1    4    4    0    0  0.15484627394E-01 -0.14454506225E-01  0.31168646231E-01  0.37688885161E-01  0.51100000000E-03 0. -1.
</event>
<event>
 8    1  0.1197213E+005  0.1043930E+01  0.7957747E-01            NaN
         13   -1    0    0    0    0  0.00000000000E+00  0.00000000000E+00  0.74505805969E-08  0.10566000000E+00  0.10566000000E+00 0.  1.
     999900   -1    0    0    0    0 -0.00000000000E+00 -0.00000000000E+00 -0.74505805969E-08  0.93827000000E+00  0.93827000000E+00 0.  1.
     999902    2    1    2    0    0 -0.87328879918E-02  0.44625980224E-02  0.21570360225E-01  0.10202348833E+01  0.10199596848E+01 0.  0.
     999903    2    3    3    0    0 -0.92841399018E-01 -0.90145231798E-01  0.18613795952E-02  0.13095802711E+00  0.20021287245E-01 0.  0.
         14    1    1    2    0    0  0.87328879918E-02 -0.44625980224E-02 -0.21570360225E-01  0.23695116671E-01  0.00000000000E+00 0. -1.
     999901    1    3    3    0    0  0.84108511026E-01  0.94607829821E-01  0.19708980630E-01  0.88927685622E+00  0.88000000000E+00 0.  1.
        -11    1    4    4    0    0 -0.39962261330E-01 -0.51049474285E-01  0.56925213296E-02  0.65082233178E-01  0.51100000000E-03 0.  1.
         11    1    4    4    0    0 -0.52879137688E-01 -0.39095757514E-01 -0.38311417344E-02  0.65875793932E-01  0.51100000000E-03 0. -1.
</event>
<event>
 8    1  0.1197213E+005  0.1043930E+01  0.7957747E-01            NaN
         13   -1    0    0    0    0  0.00000000000E+00  0.00000000000E+00  0.74505805969E-08  0.10566000000E+00  0.10566000000E+00 0. -1.
     999900   -1    0    0    0    0 -0.00000000000E+00 -0.00000000000E+00 -0.74505805969E-08  0.93827000000E+00  0.93827000000E+00 0. -1.
     999902    2    1    2    0    0  0.29320708380E-02 -0.18064480793E-01  0.13520568050E-01  0.10211763571E+01  0.10209228296E+01 0.  0.
     999903    2    3    3    0    0 -0.22219375878E-01 -0.75558710651E-01  0.10639173037E+00  0.13406687425E+00  0.21258105736E-01 0.  0.
         14    1    1    2    0    0 -0.29320708380E-02  0.18064480793E-01 -0.13520568050E-01  0.22753642920E-01  0.00000000000E+00 0.  1.
     999901    1    3    3    0    0  0.25151446716E-01  0.57494229858E-01 -0.92871162323E-01  0.88710948283E+00  0.88000000000E+00 0. -1.
        -11    1    4    4    0    0 -0.53079317081E-02 -0.38059757654E-01  0.66239130801E-01  0.76580695100E-01  0.51100000000E-03 0. -1.
         11    1    4    4    0    0 -0.16911444170E-01 -0.37498952997E-01  0.40152599572E-01  0.57486179149E-01  0.51100000000E-03 0.  1.
</event>
<event>
 8    1  0.1197213E+005  0.1043930E+01  0.7957747E-01            NaN
         13   -1    0    0    0    0  0.00000000000E+00  0.00000000000E+00  0.74505805969E-08  0.10566000000E+00  0.10566000000E+00 0.  1.
     999900   -1    0    0    0    0 -0.00000000000E+00 -0.00000000000E+00 -0.74505805969E-08  0.93827000000E+00  0.93827000000E+00 0.  1.
     999902    2    1    2    0    0  0.21344051177E-01  0.65781174573E-02 -0.77910389034E-02  0.10202753929E+01  0.10200011455E+01 0.  0.
     999903    2    3    3    0    0 -0.65498009232E-01  0.10289187458E+00 -0.42233041529E-01  0.13010454704E+00  0.16335124633E-01 0.  0.
         14    1    1    2    0    0 -0.21344051177E-01 -0.65781174573E-02  0.77910389034E-02  0.23654607101E-01  0.00000000000E+00 0.  1.
     999901    1    3    3    0    0  0.86842060409E-01 -0.96313757121E-01  0.34442002626E-01  0.89017084586E+00  0.88000000000E+00 0.  1.
        -11    1    4    4    0    0 -0.49711672465E-01  0.67988340746E-01 -0.23404249562E-01  0.87416731094E-01  0.51100000000E-03 0. -1.
         11    1    4    4    0    0 -0.15786336767E-01  0.34903533833E-01 -0.18828791967E-01  0.42687815949E-01  0.51100000000E-03 0.  1.
</event>
<event>
 8    1  0.1197213E+005  0.1043930E+01  0.7957747E-01            NaN
         13   -1    0    0    0    0  0.00000000000E+00  0.00000000000E+00  0.74505805969E-08  0.10566000000E+00  0.10566000000E+00 0. -1.
     999900   -1    0    0    0    0 -0.00000000000E+00 -0.00000000000E+00 -0.74505805969E-08  0.93827000000E+00  0.93827000000E+00 0. -1.
     999902    2    1    2    0    0  0.17919743689E-01 -0.77683132103E-02  0.13413269627E-01  0.10202365472E+01  0.10199613878E+01 0.  0.
     999903    2    3    3    0    0  0.62346135656E-01 -0.42561817631E-01 -0.10489081559E+00  0.13052864634E+00  0.18360157091E-01 0.  0.
         14    1    1    2    0    0 -0.17919743689E-01  0.77683132103E-02 -0.13413269627E-01  0.23693452811E-01  0.00000000000E+00 0.  1.
     999901    1    3    3    0    0 -0.44426391968E-01  0.34793504421E-01  0.11830408522E+00  0.88970790085E+00  0.88000000000E+00 0.  1.
        -11    1    4    4    0    0  0.11491303859E-01 -0.20559933304E-02 -0.93577581664E-02  0.14970168064E-01  0.51100000000E-03 0. -1.
         11    1    4    4    0    0  0.50854831798E-01 -0.40505824301E-01 -0.95533057427E-01  0.11555847828E+00  0.51100000000E-03 0.  1.
</event>
<event>
 8    1  0.1197213E+005  0.1043930E+01  0.7957747E-01            NaN
         13   -1    0    0    0    0  0.00000000000E+00  0.00000000000E+00  0.74505805969E-08  0.10566000000E+00  0.10566000000E+00 0. -1.
     999900   -1    0    0    0    0 -0.00000000000E+00 -0.00000000000E+00 -0.74505805969E-08  0.93827000000E+00  0.93827000000E+00 0. -1.
     999902    2    1    2    0    0  0.78864903712E-02 -0.67771673575E-02 -0.20958980378E-01  0.10205332997E+01  0.10202650686E+01 0.  0.
     999903    2    3    3    0    0  0.45478852818E-01 -0.53383134635E-03 -0.12418190414E+00  0.13368092360E+00  0.19514942712E-01 0.  0.
         14    1    1    2    0    0 -0.78864903712E-02  0.67771673575E-02  0.20958980378E-01  0.23396700328E-01  0.00000000000E+00 0. -1.
     999901    1    3    3    0    0 -0.37592362447E-01 -0.62433360112E-02  0.10322292376E+00  0.88685237607E+00  0.88000000000E+00 0.  1.
        -11    1    4    4    0    0  0.31742591332E-01  0.86830562420E-02 -0.80437636568E-01  0.86910655663E-01  0.51100000000E-03 0. -1.
         11    1    4    4    0    0  0.13736261486E-01 -0.92168875884E-02 -0.43744267570E-01  0.46770267935E-01  0.51100000000E-03 0.  1.
</event>
<event>
 8    1  0.1197213E+005  0.1043930E+01  0.7957747E-01            NaN
         13   -1    0    0    0    0  0.00000000000E+00  0.00000000000E+00  0.74505805969E-08  0.10566000000E+00  0.10566000000E+00 0.  1.
     999900   -1    0    0    0    0 -0.00000000000E+00 -0.00000000000E+00 -0.74505805969E-08  0.93827000000E+00  0.93827000000E+00 0. -1.
     999902    2    1    2    0    0  0.14579868364E-01  0.16904273532E-01 -0.14509796250E-03  0.10216062889E+01  0.10213623556E+01 0.  0.
     999903    2    3    3    0    0  0.59568923866E-01  0.92723218916E-01 -0.73416826140E-01  0.13417106659E+00  0.21582231874E-01 0.  0.
         14    1    1    2    0    0 -0.14579868364E-01 -0.16904273532E-01  0.14509796250E-03  0.22323711129E-01  0.00000000000E+00 0. -1.
     999901    1    3    3    0    0 -0.44989055502E-01 -0.75818945384E-01  0.73271728177E-01  0.88743522228E+00  0.88000000000E+00 0.  1.
        -11    1    4    4    0    0  0.35785525857E-01  0.68295489837E-01 -0.59282803005E-01  0.97260421787E-01  0.51100000000E-03 0.  1.
         11    1    4    4    0    0  0.23783398009E-01  0.24427729080E-01 -0.14134023134E-01  0.36910644803E-01  0.51100000000E-03 0. -1.
</event>
<event>
 8    1  0.1197213E+005  0.1043930E+01  0.7957747E-01            NaN
         13   -1    0    0    0    0  0.00000000000E+00  0.00000000000E+00  0.74505805969E-08  0.10566000000E+00  0.10566000000E+00 0. -1.
     999900   -1    0    0    0    0 -0.00000000000E+00 -0.00000000000E+00 -0.74505805969E-08  0.93827000000E+00  0.93827000000E+00 0.  1.
     999902    2    1    2    0    0  0.12993592100E-01  0.19268998238E-01 -0.86210190659E-02  0.10191419041E+01  0.10188404051E+01 0.  0.
     999903    2    3    3    0    0 -0.66383158262E-01  0.10764694858E-01  0.10706158387E+00  0.12798790153E+00  0.19902709374E-01 0.  0.
         14    1    1    2    0    0 -0.12993592100E-01 -0.19268998238E-01  0.86210190659E-02  0.24788095903E-01  0.00000000000E+00 0. -1.
     999901    1    3    3    0    0  0.79376750362E-01  0.85043033800E-02 -0.11568260294E+00  0.89115400257E+00  0.88000000000E+00 0.  1.
        -11    1    4    4    0    0 -0.42165606916E-01  0.14950717580E-01  0.59445111936E-01  0.74400570004E-01  0.51100000000E-03 0. -1.
         11    1    4    4    0    0 -0.24217551347E-01 -0.41860227220E-02  0.47616471933E-01  0.53587331524E-01  0.51100000000E-03 0.  1.
</event>
<event>
 8    1  0.1197213E+005  0.1043930E+01  0.7957747E-01            NaN
         13   -1    0    0    0    0  0.00000000000E+00  0.00000000000E+00  0.74505805969E-08  0.10566000000E+00  0.10566000000E+00 0. -1.
     999900   -1    0    0    0    0 -0.00000000000E+00 -0.00000000000E+00 -0.74505805969E-08  0.93827000000E+00  0.93827000000E+00 0.  1.
     999902    2    1    2    0    0  0.42962672917E-02 -0.16488436970E-01 -0.88794234811E-02  0.10247161865E+01  0.10245360376E+01 0.  0.
     999903    2    3    3    0    0  0.60566328013E-01  0.10193367312E+00 -0.58159857494E-01  0.13363893003E+00  0.20446045850E-01 0.  0.
         14    1    1    2    0    0 -0.42962672917E-02  0.16488436970E-01  0.88794234811E-02  0.19213813461E-01  0.00000000000E+00 0. -1.
     999901    1    3    3    0    0 -0.56270060721E-01 -0.11842211009E+00  0.49280434013E-01  0.89107725651E+00  0.88000000000E+00 0.  1.
        -11    1    4    4    0    0  0.17025343105E-01  0.18774959577E-01 -0.20081887919E-01  0.32340450806E-01  0.51100000000E-03 0.  1.
         11    1    4    4    0    0  0.43540984907E-01  0.83158713545E-01 -0.38077969575E-01  0.10129847922E+00  0.51100000000E-03 0. -1.
</event>
<event>
 8    1  0.1197213E+005  0.1043930E+01  0.7957747E-01            NaN
         13   -1    0    0    0    0  0.00000000000E+00  0.00000000000E+00  0.74505805969E-08  0.10566000000E+00  0.10566000000E+00 0.  1.
     999900   -1    0    0    0    0 -0.00000000000E+00 -0.00000000000E+00 -0.74505805969E-08  0.93827000000E+00  0.93827000000E+00 0.  1.
     999902    2    1    2    0    0 -0.22215105712E-01 -0.20351875707E-02  0.95443648109E-02  0.10196658740E+01  0.10193771367E+01 0.  0.
     999903    2    3    3    0    0 -0.37310923732E-01  0.11163045548E+00  0.56251820987E-01  0.13099869864E+00  0.11955252408E-01 0.  0.
         14    1    1    2    0    0  0.22215105712E-01  0.20351875707E-02 -0.95443648109E-02  0.24264125987E-01  0.00000000000E+00 0. -1.
     999901    1    3    3    0    0  0.15095818019E-01 -0.11366564305E+00 -0.46707456176E-01  0.88866717538E+00  0.88000000000E+00 0.  1.
        -11    1    4    4    0    0 -0.15291328662E-01  0.29034859884E-01  0.16151355075E-01  0.36578343490E-01  0.51100000000E-03 0.  1.
         11    1    4    4    0    0 -0.22019595069E-01  0.82595595593E-01  0.40100465912E-01  0.94420355145E-01  0.51100000000E-03 0. -1.
</event>
<event>
 8    1  0.1197213E+005  0.1043930E+01  0.7957747E-01            NaN
         13   -1    0    0    0    0  0.00000000000E+00  0.00000000000E+00  0.74505805969E-08  0.10566000000E+00  0.10566000000E+00 0. -1.
     999900   -1    0    0    0    0 -0.00000000000E+00 -0.00000000000E+00 -0.74505805969E-08  0.93827000000E+00  0.93827000000E+00 0.  1.
     999902    2    1    2    0    0 -0.12857719491E-01 -0.97401887746E-02  0.18705699350E-01  0.10192298904E+01  0.10189305541E+01 0.  0.
     999903    2    3    3    0    0 -0.12891469107E+00  0.29343289099E-02  0.10853927558E-01  0.13148470487E+00  0.23298326385E-01 0.  0.
         14    1    1    2    0    0  0.12857719491E-01  0.97401887746E-02 -0.18705699350E-01  0.24700109636E-01  0.00000000000E+00 0.  1.
     999901    1    3    3    0    0  0.11605697157E+00 -0.12674517684E-01  0.78517717916E-02  0.88774518550E+00  0.88000000000E+00 0.  1.
        -11    1    4    4    0    0 -0.24080272679E-01  0.64924531247E-02  0.91630035665E-02  0.26575049110E-01  0.51100000000E-03 0. -1.
         11    1    4    4    0    0 -0.10483441839E+00 -0.35581242148E-02  0.16909239915E-02  0.10490965576E+00  0.51100000000E-03 0.  1.
</event>
<event>
 8    1  0.1197213E+005  0.1043930E+01  0.7957747E-01            NaN
         13   -1    0    0    0    0  0.00000000000E+00  0.00000000000E+00  0.74505805969E-08  0.10566000000E+00  0.10566000000E+00 0.  1.
     999900   -1    0    0    0    0 -0.00000000000E+00 -0.00000000000E+00 -0.74505805969E-08  0.93827000000E+00  0.93827000000E+00 0.  1.
     999902    2    1    2    0    0  0.54037535617E-02 -0.45272377769E-02 -0.24228671544E-01  0.10186965904E+01  0.10183840230E+01 0.  0.
     999903    2    3    3    0    0 -0.25359875599E-01 -0.10376870283E+00 -0.73467419575E-01  0.13121716892E+00  0.20234048155E-01 0.  0.
         14    1    1    2    0    0 -0.54037535617E-02  0.45272377769E-02  0.24228671544E-01  0.25233409584E-01  0.00000000000E+00 0.  1.
     999901    1    3    3    0    0  0.30763629161E-01  0.99241465049E-01  0.49238748031E-01  0.88747942149E+00  0.88000000000E+00 0. -1.
        -11    1    4    4    0    0 -0.21423928956E-01 -0.49175210121E-01 -0.41568997846E-01  0.67863309125E-01  0.51100000000E-03 0. -1.
         11    1    4    4    0    0 -0.39359466433E-02 -0.54593492704E-01 -0.31898421729E-01  0.63353859799E-01  0.51100000000E-03 0.  1.
</event>
<event>
 8    1  0.1197213E+005  0.1043930E+01  0.7957747E-01            NaN
         13   -1    0    0    0    0  0.00000000000E+00  0.00000000000E+00  0.74505805969E-08  0.10566000000E+00  0.10566000000E+00 0. -1.
     999900   -1    0    0    0    0 -0.00000000000E+00 -0.00000000000E+00 -0.74505805969E-08  0.93827000000E+00  0.93827000000E+00 0. -1.
     999902    2    1    2    0    0 -0.18076036706E-01  0.11559075844E-02 -0.13550145068E-01  0.10213095301E+01  0.10210589947E+01 0.  0.
     999903    2    3    3    0    0  0.51114495986E-01  0.15965728467E-01  0.11576623721E+00  0.12904870093E+00  0.19599728286E-01 0.  0.
         14    1    1    2    0    0  0.18076036706E-01 -0.11559075844E-02  0.13550145068E-01  0.22620469860E-01  0.00000000000E+00 0. -1.
     999901    1    3    3    0    0 -0.69190532692E-01 -0.14809820883E-01 -0.12931638228E+00  0.89226082921E+00  0.88000000000E+00 0. -1.
        -11    1    4    4    0    0  0.18230509857E-01  0.12459177251E-01  0.63144536258E-01  0.66896010103E-01  0.51100000000E-03 0. -1.
         11    1    4    4    0    0  0.32883986129E-01  0.35065512158E-02  0.52621700955E-01  0.62152690831E-01  0.51100000000E-03 0.  1.
</event>
<event>
 8    1  0.1197213E+005  0.1043930E+01  0.7957747E-01            NaN
         13   -1    0    0    0    0  0.00000000000E+00  0.00000000000E+00  0.74505805969E-08  0.10566000000E+00  0.10566000000E+00 0.  1.
     999900   -1    0    0    0    0 -0.00000000000E+00 -0.00000000000E+00 -0.74505805969E-08  0.93827000000E+00  0.93827000000E+00 0.  1.
     999902    2    1    2    0    0  0.17425167065E-01 -0.38720455024E-02 -0.14141545738E-01  0.10211569348E+01  0.10209029694E+01 0.  0.
     999903    2    3    3    0    0 -0.50481695837E-01 -0.11452987820E+00  0.30759191476E-01  0.13049842886E+00  0.20450365774E-01 0.  0.
         14    1    1    2    0    0 -0.17425167065E-01  0.38720455024E-02  0.14141545738E-01  0.22773065219E-01  0.00000000000E+00 0.  1.
     999901    1    3    3    0    0  0.67906862902E-01  0.11065783270E+00 -0.44900737213E-01  0.89065850592E+00  0.88000000000E+00 0.  1.
        -11    1    4    4    0    0 -0.75023306990E-02 -0.51077647707E-02  0.39916381308E-02  0.99281681512E-02  0.51100000000E-03 0.  1.
         11    1    4    4    0    0 -0.42979365138E-01 -0.10942211343E+00  0.26767553345E-01  0.12057026071E+00  0.51100000000E-03 0. -1.
</event>
<event>
 8    1  0.1197213E+005  0.1043930E+01  0.7957747E-01            NaN
         13   -1    0    0    0    0  0.00000000000E+00  0.00000000000E+00  0.74505805969E-08  0.10566000000E+00  0.10566000000E+00 0.  1.
     999900   -1    0    0    0    0 -0.00000000000E+00 -0.00000000000E+00 -0.74505805969E-08  0.93827000000E+00  0.93827000000E+00 0. -1.
     999902    2    1    2    0    0 -0.16990251958E-01 -0.12231100657E-01 -0.12304122321E-01  0.10196470860E+01  0.10193578960E+01 0.  0.
     999903    2    3    3    0    0 -0.10711998332E+00 -0.55851711691E-01 -0.52221534050E-01  0.13306966361E+00  0.19655590289E-01 0.  0.
         14    1    1    2    0    0  0.16990251958E-01  0.12231100657E-01  0.12304122321E-01  0.24282913972E-01  0.00000000000E+00 0.  1.
     999901    1    3    3    0    0  0.90129731361E-01  0.43620611034E-01  0.39917411729E-01  0.88657742242E+00  0.88000000000E+00 0.  1.
        -11    1    4    4    0    0 -0.45568278082E-01 -0.13032646226E-01 -0.21215673571E-01  0.51929603899E-01  0.51100000000E-03 0. -1.
         11    1    4    4    0    0 -0.61551705237E-01 -0.42819065465E-01 -0.31005860480E-01  0.81140059711E-01  0.51100000000E-03 0.  1.
</event>
<event>
 8    1  0.1197213E+005  0.1043930E+01  0.7957747E-01            NaN
         13   -1    0    0    0    0  0.00000000000E+00  0.00000000000E+00  0.74505805969E-08  0.10566000000E+00  0.10566000000E+00 0.  1.
     999900   -1    0    0    0    0 -0.00000000000E+00 -0.00000000000E+00 -0.74505805969E-08  0.93827000000E+00  0.93827000000E+00 0.  1.
     999902    2    1    2    0    0  0.12287555632E-01 -0.10605393484E-01  0.18687461818E-01  0.10191776340E+01  0.10188770142E+01 0.  0.
     999903    2    3    3    0    0  0.23815174329E-01  0.12369327585E+00 -0.13931825119E-01  0.12831679386E+00  0.20097632157E-01 0.  0.
         14    1    1    2    0    0 -0.12287555632E-01  0.10605393484E-01 -0.18687461818E-01  0.24752366019E-01  0.00000000000E+00 0.  1.
     999901    1    3    3    0    0 -0.11527618697E-01 -0.13429866933E+00  0.32619286936E-01  0.89086084012E+00  0.88000000000E+00 0.  1.
        -11    1    4    4    0    0  0.23092681195E-01  0.87403219422E-01 -0.16610859034E-01  0.91917226073E-01  0.51100000000E-03 0. -1.
         11    1    4    4    0    0  0.72249313385E-03  0.36290056423E-01  0.26790339153E-02  0.36399567789E-01  0.51100000000E-03 0.  1.
</event>
<event>
 8    1  0.1197213E+005  0.1043930E+01  0.7957747E-01            NaN
         13   -1    0    0    0    0  0.00000000000E+00  0.00000000000E+00  0.74505805969E-08  0.10566000000E+00  0.10566000000E+00 0.  1.
     999900   -1    0    0    0    0 -0.00000000000E+00 -0.00000000000E+00 -0.74505805969E-08  0.93827000000E+00  0.93827000000E+00 0.  1.
     999902    2    1    2    0    0  0.19147364235E-01 -0.34548189791E-02  0.14143971593E-01  0.10198757018E+01  0.10195919957E+01 0.  0.
     999903    2    3    3    0    0  0.89779211976E-01 -0.33889618936E-02 -0.92675790176E-01  0.13060671897E+00  0.19937928407E-01 0.  0.
         14    1    1    2    0    0 -0.19147364235E-01  0.34548189791E-02 -0.14143971593E-01  0.24054298239E-01  0.00000000000E+00 0. -1.
     999901    1    3    3    0    0 -0.70631847741E-01 -0.65857085554E-04  0.10681976177E+00  0.88926898279E+00  0.88000000000E+00 0.  1.
        -11    1    4    4    0    0  0.73025916703E-01  0.26811795833E-02 -0.65674103064E-01  0.98251321460E-01  0.51100000000E-03 0.  1.
         11    1    4    4    0    0  0.16753295273E-01 -0.60701414769E-02 -0.27001687112E-01  0.32355397509E-01  0.51100000000E-03 0. -1.
</event>
<event>
 8    1  0.1197213E+005  0.1043930E+01  0.7957747E-01            NaN
         13   -1    0    0    0    0  0.00000000000E+00  0.00000000000E+00  0.74505805969E-08  0.10566000000E+00  0.10566000000E+00 0.  1.
     999900   -1    0    0    0    0 -0.00000000000E+00 -0.00000000000E+00 -0.74505805969E-08  0.93827000000E+00  0.93827000000E+00 0.  1.
     999902    2    1    2    0    0  0.22777943073E-01  0.76965378235E-02 -0.17947661150E-02  0.10198199902E+01  0.10195349528E+01 0.  0.
     999903    2    3    3    0    0 -0.20949183408E-01 -0.12528713842E+00  0.46277147491E-02  0.12873190930E+00  0.20365495046E-01 0.  0.
         14    1    1    2    0    0 -0.22777943073E-01 -0.76965378235E-02  0.17947661150E-02  0.24110009758E-01  0.00000000000E+00 0. -1.
     999901    1    3    3    0    0  0.43727126481E-01  0.13298367625E+00 -0.64224808641E-02  0.89108808094E+00  0.88000000000E+00 0.  1.
        -11    1    4    4    0    0 -0.14079529049E-01 -0.10317660421E+00 -0.34874385353E-02  0.10419245722E+00  0.51100000000E-03 0.  1.
         11    1    4    4    0    0 -0.68696543590E-02 -0.22110534216E-01  0.81151532844E-02  0.24539452075E-01  0.51100000000E-03 0. -1.
</event>
<event>
 8    1  0.1197213E+005  0.1043930E+01  0.7957747E-01            NaN
         13   -1    0    0    0    0  0.00000000000E+00  0.00000000000E+00  0.74505805969E-08  0.10566000000E+00  0.10566000000E+00 0. -1.
     999900   -1    0    0    0    0 -0.00000000000E+00 -0.00000000000E+00 -0.74505805969E-08  0.93827000000E+00  0.93827000000E+00 0. -1.
     999902    2    1    2    0    0  0.14572262219E-01 -0.82652952630E-02  0.16376545686E-01  0.10205022989E+01  0.10202333482E+01 0.  0.
     999903    2    3    3    0    0  0.25919907685E-01  0.93793683718E-01 -0.82447944604E-01  0.12903660455E+00  0.19587879554E-01 0.  0.
         14    1    1    2    0    0 -0.14572262219E-01  0.82652952630E-02 -0.16376545686E-01  0.23427701137E-01  0.00000000000E+00 0. -1.
     999901    1    3    3    0    0 -0.11347645466E-01 -0.10205897898E+00  0.98824490290E-01  0.89146569431E+00  0.88000000000E+00 0.  1.
        -11    1    4    4    0    0  0.17149393978E-01  0.30880585735E-01 -0.23938764965E-01  0.42673620402E-01  0.51100000000E-03 0. -1.
         11    1    4    4    0    0  0.87705137068E-02  0.62913097983E-01 -0.58509179639E-01  0.86362984152E-01  0.51100000000E-03 0.  1.
</event>
<event>
 8    1  0.1197213E+005  0.1043930E+01  0.7957747E-01            NaN
         13   -1    0    0    0    0  0.00000000000E+00  0.00000000000E+00  0.74505805969E-08  0.10566000000E+00  0.10566000000E+00 0.  1.
     999900   -1    0    0    0    0 -0.00000000000E+00 -0.00000000000E+00 -0.74505805969E-08  0.93827000000E+00  0.93827000000E+00 0. -1.
     999902    2    1    2    0    0  0.20076067864E-01 -0.11552329960E-01  0.54042268014E-02  0.10201453307E+01  0.10198680234E+01 0.  0.
     999903    2    3    3    0    0  0.91529444915E-01 -0.57462796249E-01 -0.73822033968E-01  0.13251356219E+00  0.20749439141E-01 0.  0.
         14    1    1    2    0    0 -0.20076067864E-01  0.11552329960E-01 -0.54042268014E-02  0.23784669342E-01  0.00000000000E+00 0. -1.
     999901    1    3    3    0    0 -0.71453377051E-01  0.45910466289E-01  0.79226260769E-01  0.88763176847E+00  0.88000000000E+00 0.  1.
        -11    1    4    4    0    0  0.59025819110E-01 -0.34165978603E-01 -0.34520914682E-01  0.76441586110E-01  0.51100000000E-03 0.  1.
         11    1    4    4    0    0  0.32503625806E-01 -0.23296817645E-01 -0.39301119286E-01  0.56071976075E-01  0.51100000000E-03 0. -1.
</event>
<event>
 8    1  0.1197213E+005  0.1043930E+01  0.7957747E-01            NaN
         13   -1    0    0    0    0  0.00000000000E+00  0.00000000000E+00  0.74505805969E-08  0.10566000000E+00  0.10566000000E+00 0.  1.
     999900   -1    0    0    0    0 -0.00000000000E+00 -0.00000000000E+00 -0.74505805969E-08  0.93827000000E+00  0.93827000000E+00 0. -1.
     999902    2    1    2    0    0  0.11990585395E-01  0.15326600918E-01  0.12831338342E-01  0.10206207298E+01  0.10203545227E+01 0.  0.
     999903    2    3    3    0    0 -0.11465909136E+00 -0.51829978082E-01  0.21195809988E-01  0.12898172711E+00  0.18814082717E-01 0.  0.
         14    1    1    2    0    0 -0.11990585395E-01 -0.15326600918E-01 -0.12831338342E-01  0.23309270205E-01  0.00000000000E+00 0. -1.
     999901    1    3    3    0    0  0.12664967675E+00  0.67156579000E-01 -0.83644716460E-02  0.89163900269E+00  0.88000000000E+00 0. -1.
        -11    1    4    4    0    0 -0.50817993016E-01 -0.30447975147E-01  0.16455326078E-01  0.61486473976E-01  0.51100000000E-03 0. -1.
         11    1    4    4    0    0 -0.63841098341E-01 -0.21382002935E-01  0.47404839105E-02  0.67495253134E-01  0.51100000000E-03 0.  1.
</event>
<event>
 8    1  0.1197213E+005  0.1043930E+01  0.7957747E-01            NaN
         13   -1    0    0    0    0  0.00000000000E+00  0.00000000000E+00  0.74505805969E-08  0.10566000000E+00  0.10566000000E+00 0. -1.
     999900   -1    0    0    0    0 -0.00000000000E+00 -0.00000000000E+00 -0.74505805969E-08  0.93827000000E+00  0.93827000000E+00 0.  1.
     999902    2    1    2    0    0 -0.12171892070E-01  0.10350104348E-01  0.16991470625E-01  0.10206064134E+01  0.10203398755E+01 0.  0.
     999903    2    3    3    0    0  0.65761023456E-01 -0.81580238050E-01 -0.70774921758E-01  0.12806640491E+00  0.20299435222E-01 0.  0.
         14    1    1    2    0    0  0.12171892070E-01 -0.10350104348E-01 -0.16991470625E-01  0.23323586572E-01  0.00000000000E+00 0. -1.
     999901    1    3    3    0    0 -0.77932915525E-01  0.91930342398E-01  0.87766392383E-01  0.89254000852E+00  0.88000000000E+00 0.  1.
        -11    1    4    4    0    0  0.10188208156E-01 -0.26249358954E-01 -0.15768191226E-01  0.32275771199E-01  0.51100000000E-03 0. -1.
         11    1    4    4    0    0  0.55572815300E-01 -0.55330879096E-01 -0.55006730532E-01  0.95790633711E-01  0.51100000000E-03 0.  1.
</event>
<event>
 8    1  0.1197213E+005  0.1043930E+01  0.7957747E-01            NaN
         13   -1    0    0    0    0  0.00000000000E+00  0.00000000000E+00  0.74505805969E-08  0.10566000000E+00  0.10566000000E+00 0.  1.
     999900   -1    0    0    0    0 -0.00000000000E+00 -0.00000000000E+00 -0.74505805969E-08  0.93827000000E+00  0.93827000000E+00 0.  1.
     999902    2    1    2    0    0  0.12130869755E-01  0.77533775729E-02  0.17466268219E-01  0.10212949963E+01  0.10210441353E+01 0.  0.
     999903    2    3    3    0    0  0.81747444087E-02 -0.63044183419E-02  0.13184607364E+00  0.13377259526E+00  0.20128287798E-01 0.  0.
         14    1    1    2    0    0 -0.12130869755E-01 -0.77533775729E-02 -0.17466268219E-01  0.22635003652E-01  0.00000000000E+00 0. -1.
     999901    1    3    3    0    0  0.39561253467E-02  0.14057795915E-01 -0.11437980542E+00  0.88752240109E+00  0.88000000000E+00 0.  1.
        -11    1    4    4    0    0 -0.55548515336E-02 -0.65467661438E-02  0.61326099536E-01  0.61926312079E-01  0.51100000000E-03 0.  1.
         11    1    4    4    0    0  0.13729595942E-01  0.24234780190E-03  0.70519974106E-01  0.71846283176E-01  0.51100000000E-03 0. -1.
</event>
<event>
 8    1  0.1197213E+005  0.1043930E+01  0.7957747E-01            NaN
         13   -1    0    0    0    0  0.00000000000E+00  0.00000000000E+00  0.74505805969E-08  0.10566000000E+00  0.10566000000E+00 0.  1.
     999900   -1    0    0    0    0 -0.00000000000E+00 -0.00000000000E+00 -0.74505805969E-08  0.93827000000E+00  0.93827000000E+00 0. -1.
     999902    2    1    2    0    0  0.10923508933E-01 -0.15996892103E-01  0.12333438616E-01  0.10209661738E+01  0.10207078871E+01 0.  0.
     999903    2    3    3    0    0  0.61872154128E-01 -0.57681047442E-01  0.10195287815E+00  0.13396844148E+00  0.19947111520E-01 0.  0.
         14    1    1    2    0    0 -0.10923508933E-01  0.15996892103E-01 -0.12333438616E-01  0.22963826172E-01  0.00000000000E+00 0. -1.
     999901    1    3    3    0    0 -0.50948645194E-01  0.41684155339E-01 -0.89619439536E-01  0.88699773235E+00  0.88000000000E+00 0. -1.
        -11    1    4    4    0    0  0.70637910164E-02 -0.12664837938E-01  0.91102689423E-02  0.17133399684E-01  0.51100000000E-03 0. -1.
         11    1    4    4    0    0  0.54808363111E-01 -0.45016209503E-01  0.92842609209E-01  0.11683504179E+00  0.51100000000E-03 0.  1.
</event>
<event>
 8    1  0.1197213E+005  0.1043930E+01  0.7957747E-01            NaN
         13   -1    0    0    0    0  0.00000000000E+00  0.00000000000E+00  0.74505805969E-08  0.10566000000E+00  0.10566000000E+00 0.  1.
     999900   -1    0    0    0    0 -0.00000000000E+00 -0.00000000000E+00 -0.74505805969E-08  0.93827000000E+00  0.93827000000E+00 0. -1.
     999902    2    1    2    0    0 -0.16233221707E-01  0.10338562234E-01 -0.13369560846E-01  0.10204960820E+01  0.10202269869E+01 0.  0.
     999903    2    3    3    0    0  0.15527342355E-01  0.46711312748E-01  0.11804250214E+00  0.12942883385E+00  0.19868206307E-01 0.  0.
         14    1    1    2    0    0  0.16233221707E-01 -0.10338562234E-01  0.13369560846E-01  0.23433918009E-01  0.00000000000E+00 0.  1.
     999901    1    3    3    0    0 -0.31760564063E-01 -0.36372750514E-01 -0.13141206298E+00  0.89106724814E+00  0.88000000000E+00 0. -1.
        -11    1    4    4    0    0  0.30794607382E-02  0.22642095798E-01  0.76381753841E-01  0.79728169560E-01  0.51100000000E-03 0.  1.
         11    1    4    4    0    0  0.12447881617E-01  0.24069216950E-01  0.41660748297E-01  0.49700664291E-01  0.51100000000E-03 0. -1.
</event>
<event>
 8    1  0.1197213E+005  0.1043930E+01  0.7957747E-01            NaN
         13   -1    0    0    0    0  0.00000000000E+00  0.00000000000E+00  0.74505805969E-08  0.10566000000E+00  0.10566000000E+00 0. -1.
     999900   -1    0    0    0    0 -0.00000000000E+00 -0.00000000000E+00 -0.74505805969E-08  0.93827000000E+00  0.93827000000E+00 0. -1.
     999902    2    1    2    0    0  0.14836795817E-01  0.10897350384E-01 -0.14876665346E-01  0.10202614993E+01  0.10199869259E+01 0.  0.
     999903    2    3    3    0    0  0.59867554324E-01  0.10120228487E+00 -0.59003218886E-01  0.13339628789E+00  0.22071775235E-01 0.  0.
         14    1    1    2    0    0 -0.14836795817E-01 -0.10897350384E-01  0.14876665346E-01  0.23668500741E-01  0.00000000000E+00 0. -1.
     999901    1    3    3    0    0 -0.45030758507E-01 -0.90304934481E-01  0.44126553540E-01  0.88686521137E+00  0.88000000000E+00 0. -1.
        -11    1    4    4    0    0  0.52702961553E-01  0.86183003310E-01 -0.41424252834E-01  0.10918489850E+00  0.51100000000E-03 0. -1.
         11    1    4    4    0    0  0.71645927707E-02  0.15019281555E-01 -0.17578966052E-01  0.24211389395E-01  0.51100000000E-03 0.  1.
</event>
<event>
 8    1  0.1197213E+005  0.1043930E+01  0.7957747E-01            NaN
         13   -1    0    0    0    0  0.00000000000E+00  0.00000000000E+00  0.74505805969E-08  0.10566000000E+00  0.10566000000E+00 0. -1.
     999900   -1    0    0    0    0 -0.00000000000E+00 -0.00000000000E+00 -0.74505805969E-08  0.93827000000E+00  0.93827000000E+00 0. -1.
     999902    2    1    2    0    0 -0.92737502868E-02 -0.20072925411E-01 -0.11850990595E-01  0.10188427372E+01  0.10185338248E+01 0.  0.
     999903    2    3    3    0    0 -0.59951727444E-01  0.95781822010E-01  0.55065418219E-01  0.12728882087E+00  0.20046859720E-01 0.  0.
         14    1    1    2    0    0  0.92737502868E-02  0.20072925411E-01  0.11850990595E-01  0.25087262845E-01  0.00000000000E+00 0. -1.
     999901    1    3    3    0    0  0.50677977157E-01 -0.11585474742E+00 -0.66916408815E-01  0.89155391628E+00  0.88000000000E+00 0. -1.
        -11    1    4    4    0    0 -0.40975466275E-01  0.68793577788E-01  0.28730262042E-01  0.85071935791E-01  0.51100000000E-03 0.  1.
         11    1    4    4    0    0 -0.18976261169E-01  0.26988244222E-01  0.26335156177E-01  0.42216885082E-01  0.51100000000E-03 0. -1.
</event>
<event>
 8    1  0.1715716E+005  0.1043930E+01  0.7957747E-01            NaN
         13   -1    0    0    0    0  0.00000000000E+00  0.00000000000E+00  0.74505805969E-08  0.10566000000E+00  0.10566000000E+00 0.  1.
     999900   -1    0    0    0    0 -0.00000000000E+00 -0.00000000000E+00 -0.74505805969E-08  0.93827000000E+00  0.93827000000E+00 0. -1.
     999902    2    1    2    0    0 -0.32588805869E-01  0.38568975035E-02 -0.18667652596E-01  0.10061756999E+01  0.10054671311E+01 0.  0.
     999903    2    3    3    0    0  0.89517666724E-01 -0.63549933581E-01  0.25284607706E-01  0.11410761236E+00  0.18144671362E-01 0.  0.
         14    1    1    2    0    0  0.32588805869E-01 -0.38568975035E-02  0.18667652596E-01  0.37754300149E-01  0.00000000000E+00 0.  1.
     999901    1    3    3    0    0 -0.12210647259E+00  0.67406831085E-01 -0.43952260302E-01  0.89206808749E+00  0.88000000000E+00 0. -1.
        -11    1    4    4    0    0  0.59676893578E-01 -0.32066425548E-01  0.12603685601E-01  0.68910821257E-01  0.51100000000E-03 0.  1.
         11    1    4    4    0    0  0.29840773146E-01 -0.31483508033E-01  0.12680922105E-01  0.45196791108E-01  0.51100000000E-03 0. -1.
</event>
<event>
 8    1  0.1197213E+005  0.1043930E+01  0.7957747E-01            NaN
         13   -1    0    0    0    0  0.00000000000E+00  0.00000000000E+00  0.74505805969E-08  0.10566000000E+00  0.10566000000E+00 0. -1.
     999900   -1    0    0    0    0 -0.00000000000E+00 -0.00000000000E+00 -0.74505805969E-08  0.93827000000E+00  0.93827000000E+00 0.  1.
     999902    2    1    2    0    0 -0.76677809571E-02 -0.15600915773E-01  0.16585432076E-01  0.10199037644E+01  0.10196207279E+01 0.  0.
     999903    2    3    3    0    0  0.55631780392E-01  0.10776750356E+00  0.38381758656E-01  0.12877993399E+00  0.20059466298E-01 0.  0.
         14    1    1    2    0    0  0.76677809571E-02  0.15600915773E-01 -0.16585432076E-01  0.24026235554E-01  0.00000000000E+00 0. -1.
     999901    1    3    3    0    0 -0.63299561349E-01 -0.12336841933E+00 -0.21796326580E-01  0.89112383046E+00  0.88000000000E+00 0.  1.
        -11    1    4    4    0    0  0.53822651003E-01  0.89727393092E-01  0.34981992535E-01  0.11032626050E+00  0.51100000000E-03 0.  1.
         11    1    4    4    0    0  0.18091293888E-02  0.18040110465E-01  0.33997661206E-02  0.18453673494E-01  0.51100000000E-03 0. -1.
</event>
<event>
 8    1  0.1197213E+005  0.1043930E+01  0.7957747E-01            NaN
         13   -1    0    0    0    0  0.00000000000E+00  0.00000000000E+00  0.74505805969E-08  0.10566000000E+00  0.10566000000E+00 0.  1.
     999900   -1    0    0    0    0 -0.00000000000E+00 -0.00000000000E+00 -0.74505805969E-08  0.93827000000E+00  0.93827000000E+00 0. -1.
     999902    2    1    2    0    0  0.63559667323E-02 -0.13163133816E-01 -0.18026816918E-01  0.10207215418E+01  0.10204576588E+01 0.  0.
     999903    2    3    3    0    0 -0.41284927010E-01  0.11223779417E+00  0.42512734379E-01  0.12849954879E+00  0.20075702121E-01 0.  0.
         14    1    1    2    0    0 -0.63559667323E-02  0.13163133816E-01  0.18026816918E-01  0.23208458224E-01  0.00000000000E+00 0. -1.
     999901    1    3    3    0    0  0.47640893742E-01 -0.12540092799E+00 -0.60539551297E-01  0.89222199299E+00  0.88000000000E+00 0.  1.
        -11    1    4    4    0    0 -0.18792677046E-01  0.40938532741E-01  0.65056449041E-02  0.45516070900E-01  0.51100000000E-03 0. -1.
         11    1    4    4    0    0 -0.22492249964E-01  0.71299261431E-01  0.36007089475E-01  0.82983477889E-01  0.51100000000E-03 0.  1.
</event>
<event>
 8    1  0.1197213E+005  0.1043930E+01  0.7957747E-01            NaN
         13   -1    0    0    0    0  0.00000000000E+00  0.00000000000E+00  0.74505805969E-08  0.10566000000E+00  0.10566000000E+00 0. -1.
     999900   -1    0    0    0    0 -0.00000000000E+00 -0.00000000000E+00 -0.74505805969E-08  0.93827000000E+00  0.93827000000E+00 0. -1.
     999902    2    1    2    0    0  0.12099191336E-01 -0.70152203304E-02 -0.17688733084E-01  0.10213801657E+01  0.10211312099E+01 0.  0.
     999903    2    3    3    0    0  0.61623069059E-01 -0.93671465670E-01  0.66158364974E-01  0.13177786404E+00  0.20413967648E-01 0.  0.
         14    1    1    2    0    0 -0.12099191336E-01  0.70152203304E-02  0.17688733084E-01  0.22549834265E-01  0.00000000000E+00 0. -1.
     999901    1    3    3    0    0 -0.49523877723E-01  0.86656245339E-01 -0.83847098057E-01  0.88960230169E+00  0.88000000000E+00 0.  1.
        -11    1    4    4    0    0  0.45304339088E-02 -0.87407777431E-02 -0.10755355855E-03  0.98589409028E-02  0.51100000000E-03 0. -1.
         11    1    4    4    0    0  0.57092635150E-01 -0.84930687927E-01  0.66265918532E-01  0.12191892314E+00  0.51100000000E-03 0.  1.
</event>
<event>
 8    1  0.1197213E+005  0.1043930E+01  0.7957747E-01            NaN
         13   -1    0    0    0    0  0.00000000000E+00  0.00000000000E+00  0.74505805969E-08  0.10566000000E+00  0.10566000000E+00 0. -1.
     999900   -1    0    0    0    0 -0.00000000000E+00 -0.00000000000E+00 -0.74505805969E-08  0.93827000000E+00  0.93827000000E+00 0.  1.
     999902    2    1    2    0    0 -0.17956715035E-02  0.17475028258E-01 -0.14139610464E-01  0.10213793984E+01  0.10211304255E+01 0.  0.
     999903    2    3    3    0    0  0.90515627100E-01 -0.21550172831E-01  0.88304906923E-01  0.12978575703E+00  0.19725553059E-01 0.  0.
         14    1    1    2    0    0  0.17956715035E-02 -0.17475028258E-01  0.14139610464E-01  0.22550601607E-01  0.00000000000E+00 0. -1.
     999901    1    3    3    0    0 -0.92311298604E-01  0.39025201089E-01 -0.10244451739E+00  0.89159364136E+00  0.88000000000E+00 0.  1.
        -11    1    4    4    0    0  0.32028106948E-01 -0.26375834928E-02  0.19826410669E-01  0.37763794333E-01  0.51100000000E-03 0. -1.
         11    1    4    4    0    0  0.58487520152E-01 -0.18912589338E-01  0.68478496254E-01  0.92021962700E-01  0.51100000000E-03 0.  1.
</event>
<event>
 8    1  0.1197213E+005  0.1043930E+01  0.7957747E-01            NaN
         13   -1    0    0    0    0  0.00000000000E+00  0.00000000000E+00  0.74505805969E-08  0.10566000000E+00  0.10566000000E+00 0.  1.
     999900   -1    0    0    0    0 -0.00000000000E+00 -0.00000000000E+00 -0.74505805969E-08  0.93827000000E+00  0.93827000000E+00 0.  1.
     999902    2    1    2    0    0  0.11498137254E-02  0.18373819354E-01  0.14207935277E-01  0.10206752213E+01  0.10204102717E+01 0.  0.
     999903    2    3    3    0    0  0.11453454228E+00 -0.27935443388E-02 -0.58466904957E-01  0.13017772752E+00  0.20047356499E-01 0.  0.
         14    1    1    2    0    0 -0.11498137254E-02 -0.18373819354E-01 -0.14207935277E-01  0.23254778737E-01  0.00000000000E+00 0. -1.
     999901    1    3    3    0    0 -0.11338472855E+00  0.21167363693E-01  0.72674840234E-01  0.89049749374E+00  0.88000000000E+00 0.  1.
        -11    1    4    4    0    0  0.19478405643E-01 -0.71219946153E-02 -0.64129845802E-02  0.21714478717E-01  0.51100000000E-03 0.  1.
         11    1    4    4    0    0  0.95056136636E-01  0.43284502765E-02 -0.52053920377E-01  0.10846324881E+00  0.51100000000E-03 0. -1.
</event>
<event>
 8    1  0.1197213E+005  0.1043930E+01  0.7957747E-01            NaN
         13   -1    0    0    0    0  0.00000000000E+00  0.00000000000E+00  0.74505805969E-08  0.10566000000E+00  0.10566000000E+00 0. -1.
     999900   -1    0    0    0    0 -0.00000000000E+00 -0.00000000000E+00 -0.74505805969E-08  0.93827000000E+00  0.93827000000E+00 0.  1.
     999902    2    1    2    0    0  0.96055287874E-02  0.15420619650E-01  0.15850863920E-01  0.10198195960E+01  0.10195345491E+01 0.  0.
     999903    2    3    3    0    0  0.27908271359E-02  0.13476619198E-01  0.13020739723E+00  0.13239205755E+00  0.19603128032E-01 0.  0.
         14    1    1    2    0    0 -0.96055287874E-02 -0.15420619650E-01 -0.15850863920E-01  0.24110403993E-01  0.00000000000E+00 0.  1.
     999901    1    3    3    0    0  0.68147016515E-02  0.19440004519E-02 -0.11435653331E+00  0.88742753845E+00  0.88000000000E+00 0.  1.
        -11    1    4    4    0    0 -0.48133766894E-02 -0.98804584476E-03  0.64205401926E-01  0.64395182951E-01  0.51100000000E-03 0. -1.
         11    1    4    4    0    0  0.76042038253E-02  0.14464665043E-01  0.66001995303E-01  0.67996874602E-01  0.51100000000E-03 0.  1.
</event>
<event>
 8    1  0.1197213E+005  0.1043930E+01  0.7957747E-01            NaN
         13   -1    0    0    0    0  0.00000000000E+00  0.00000000000E+00  0.74505805969E-08  0.10566000000E+00  0.10566000000E+00 0. -1.
     999900   -1    0    0    0    0 -0.00000000000E+00 -0.00000000000E+00 -0.74505805969E-08  0.93827000000E+00  0.93827000000E+00 0. -1.
     999902    2    1    2    0    0  0.17953438359E-02 -0.10003856203E-01 -0.22406871519E-01  0.10193257668E+01  0.10190287781E+01 0.  0.
     999903    2    3    3    0    0 -0.59654709344E-01 -0.43029849320E-01  0.10268506932E+00  0.12774581028E+00  0.19092310087E-01 0.  0.
         14    1    1    2    0    0 -0.17953438359E-02  0.10003856203E-01  0.22406871519E-01  0.24604233166E-01  0.00000000000E+00 0. -1.
     999901    1    3    3    0    0  0.61450053180E-01  0.33025993117E-01 -0.12509194084E+00  0.89157995655E+00  0.88000000000E+00 0. -1.
        -11    1    4    4    0    0 -0.32733702672E-01 -0.12759867204E-01  0.41681654371E-01  0.54515419230E-01  0.51100000000E-03 0.  1.
         11    1    4    4    0    0 -0.26921006672E-01 -0.30269982116E-01  0.61003414950E-01  0.73230391055E-01  0.51100000000E-03 0. -1.
</event>
<event>
 8    1  0.1197213E+005  0.1043930E+01  0.7957747E-01            NaN
         13   -1    0    0    0    0  0.00000000000E+00  0.00000000000E+00  0.74505805969E-08  0.10566000000E+00  0.10566000000E+00 0. -1.
     999900   -1    0    0    0    0 -0.00000000000E+00 -0.00000000000E+00 -0.74505805969E-08  0.93827000000E+00  0.93827000000E+00 0. -1.
     999902    2    1    2    0    0  0.21022115168E-01  0.28358502815E-02  0.94049143134E-02  0.10207260394E+01  0.10204622599E+01 0.  0.
     999903    2    3    3    0    0  0.24679174320E-01 -0.71763922188E-01 -0.10400511427E+00  0.13031021819E+00  0.20113850867E-01 0.  0.
         14    1    1    2    0    0 -0.21022115168E-01 -0.28358502815E-02 -0.94049143134E-02  0.23203960571E-01  0.00000000000E+00 0.  1.
     999901    1    3    3    0    0 -0.36570591520E-02  0.74599772470E-01  0.11341002858E+00  0.89041582124E+00  0.88000000000E+00 0.  1.
        -11    1    4    4    0    0  0.24774215521E-01 -0.49022628929E-01 -0.81724952583E-01  0.98469329730E-01  0.51100000000E-03 0. -1.
         11    1    4    4    0    0 -0.95041201208E-04 -0.22741293260E-01 -0.22280161687E-01  0.31840888458E-01  0.51100000000E-03 0.  1.
</event>
<event>
 8    1  0.1197213E+005  0.1043930E+01  0.7957747E-01            NaN
         13   -1    0    0    0    0  0.00000000000E+00  0.00000000000E+00  0.74505805969E-08  0.10566000000E+00  0.10566000000E+00 0. -1.
     999900   -1    0    0    0    0 -0.00000000000E+00 -0.00000000000E+00 -0.74505805969E-08  0.93827000000E+00  0.93827000000E+00 0. -1.
     999902    2    1    2    0    0 -0.15003026047E-01 -0.16181366792E-01  0.79532664918E-02  0.10204740440E+01  0.10202044367E+01 0.  0.
     999903    2    3    3    0    0  0.12002807170E+00 -0.40681541663E-01 -0.17774620162E-01  0.12946586222E+00  0.19589449486E-01 0.  0.
         14    1    1    2    0    0  0.15003026047E-01  0.16181366792E-01 -0.79532664918E-02  0.23455955954E-01  0.00000000000E+00 0.  1.
     999901    1    3    3    0    0 -0.13503109774E+00  0.24500174871E-01  0.25727886654E-01  0.89100818182E+00  0.88000000000E+00 0.  1.
        -11    1    4    4    0    0  0.18623900622E-01 -0.53440905763E-02  0.42538680114E-02  0.19843525204E-01  0.51100000000E-03 0.  1.
         11    1    4    4    0    0  0.10140417108E+00 -0.35337451087E-01 -0.22028488173E-01  0.10962233702E+00  0.51100000000E-03 0. -1.
</event>
<event>
 8    1  0.1197213E+005  0.1043930E+01  0.7957747E-01            NaN
         13   -1    0    0    0    0  0.00000000000E+00  0.00000000000E+00  0.74505805969E-08  0.10566000000E+00  0.10566000000E+00 0. -1.
     999900   -1    0    0    0    0 -0.00000000000E+00 -0.00000000000E+00 -0.74505805969E-08  0.93827000000E+00  0.93827000000E+00 0.  1.
     999902    2    1    2    0    0  0.28178936958E-02  0.19258952843E-01  0.98328134273E-02  0.10221233036E+01  0.10218906574E+01 0.  0.
     999903    2    3    3    0    0 -0.19846759206E-01 -0.12572883865E+00 -0.14238761172E-01  0.12964664456E+00  0.20096651594E-01 0.  0.
         14    1    1    2    0    0 -0.28178936958E-02 -0.19258952843E-01 -0.98328134273E-02  0.21806696434E-01  0.00000000000E+00 0.  1.
     999901    1    3    3    0    0  0.22664652902E-01  0.14498779149E+00  0.24071574599E-01  0.89247665901E+00  0.88000000000E+00 0. -1.
        -11    1    4    4    0    0 -0.22383738981E-01 -0.88015787926E-01 -0.13660212684E-01  0.91840477060E-01  0.51100000000E-03 0.  1.
         11    1    4    4    0    0  0.25369797748E-02 -0.37713050725E-01 -0.57854848762E-03  0.37806167496E-01  0.51100000000E-03 0. -1.
</event>
<event>
 8    1  0.1197213E+005  0.1043930E+01  0.7957747E-01            NaN
         13   -1    0    0    0    0  0.00000000000E+00  0.00000000000E+00  0.74505805969E-08  0.10566000000E+00  0.10566000000E+00 0. -1.
     999900   -1    0    0    0    0 -0.00000000000E+00 -0.00000000000E+00 -0.74505805969E-08  0.93827000000E+00  0.93827000000E+00 0.  1.
     999902    2    1    2    0    0  0.86726730252E-02  0.61045781950E-02 -0.18358958930E-01  0.10227278184E+01  0.10225080234E+01 0.  0.
     999903    2    3    3    0    0 -0.59502953691E-01  0.11576429058E+00  0.14442631377E-01  0.13270022728E+00  0.21419342831E-01 0.  0.
         14    1    1    2    0    0 -0.86726730252E-02 -0.61045781950E-02  0.18358958930E-01  0.21202181618E-01  0.00000000000E+00 0. -1.
     999901    1    3    3    0    0  0.68175626716E-01 -0.10965971239E+00 -0.32801590307E-01  0.89002759110E+00  0.88000000000E+00 0.  1.
        -11    1    4    4    0    0 -0.54860250483E-01  0.87597869547E-01  0.11119706348E-01  0.10395644676E+00  0.51100000000E-03 0. -1.
         11    1    4    4    0    0 -0.46427032074E-02  0.28166421033E-01  0.33229250286E-02  0.28743780521E-01  0.51100000000E-03 0.  1.
</event>
<event>
 8    1  0.1197213E+005  0.1043930E+01  0.7957747E-01            NaN
         13   -1    0    0    0    0  0.00000000000E+00  0.00000000000E+00  0.74505805969E-08  0.10566000000E+00  0.10566000000E+00 0.  1.
     999900   -1    0    0    0    0 -0.00000000000E+00 -0.00000000000E+00 -0.74505805969E-08  0.93827000000E+00  0.93827000000E+00 0.  1.
     999902    2    1    2    0    0 -0.26002105953E-01  0.17188797741E-03  0.75977401410E-02  0.10168400625E+01  0.10164791429E+01 0.  0.
     999903    2    3    3    0    0  0.10791980787E+00  0.50219284439E-01  0.31281065345E-01  0.12498765273E+00  0.21788685707E-01 0.  0.
         14    1    1    2    0    0  0.26002105953E-01 -0.17188797741E-03 -0.75977401410E-02  0.27089937518E-01  0.00000000000E+00 0. -1.
     999901    1    3    3    0    0 -0.13392191382E+00 -0.50047396462E-01 -0.23683325204E-01  0.89185240976E+00  0.88000000000E+00 0.  1.
        -11    1    4    4    0    0  0.25894529434E-01  0.17502950979E-01  0.16831572728E-01  0.35502716925E-01  0.51100000000E-03 0.  1.
         11    1    4    4    0    0  0.82025278435E-01  0.32716333460E-01  0.14449492617E-01  0.89484935801E-01  0.51100000000E-03 0. -1.
</event>
<event>
 8    1  0.1197213E+005  0.1043930E+01  0.7957747E-01            NaN
         13   -1    0    0    0    0  0.00000000000E+00  0.00000000000E+00  0.74505805969E-08  0.10566000000E+00  0.10566000000E+00 0. -1.
     999900   -1    0    0    0    0 -0.00000000000E+00 -0.00000000000E+00 -0.74505805969E-08  0.93827000000E+00  0.93827000000E+00 0. -1.
     999902    2    1    2    0    0  0.19268159569E-01  0.72204416373E-02 -0.12230594973E-01  0.10199929115E+01  0.10197119963E+01 0.  0.
     999903    2    3    3    0    0  0.27411708975E-01  0.11554020462E+00  0.52081352470E-01  0.13098474789E+00  0.18536348947E-01 0.  0.
         14    1    1    2    0    0 -0.19268159569E-01 -0.72204416373E-02  0.12230594973E-01  0.23937088461E-01  0.00000000000E+00 0. -1.
     999901    1    3    3    0    0 -0.81435494065E-02 -0.10831976298E+00 -0.64311947444E-01  0.88900816365E+00  0.88000000000E+00 0. -1.
        -11    1    4    4    0    0  0.86433627645E-02  0.36865385453E-01  0.26246258391E-01  0.46074847422E-01  0.51100000000E-03 0. -1.
         11    1    4    4    0    0  0.18768346211E-01  0.78674819167E-01  0.25835094079E-01  0.84909900468E-01  0.51100000000E-03 0.  1.
</event>
<event>
 8    1  0.1197213E+005  0.1043930E+01  0.7957747E-01            NaN
         13   -1    0    0    0    0  0.00000000000E+00  0.00000000000E+00  0.74505805969E-08  0.10566000000E+00  0.10566000000E+00 0.  1.
     999900   -1    0    0    0    0 -0.00000000000E+00 -0.00000000000E+00 -0.74505805969E-08  0.93827000000E+00  0.93827000000E+00 0.  1.
     999902    2    1    2    0    0  0.20725090072E-02  0.13515896570E-01 -0.19146451028E-01  0.10204021157E+01  0.10201308330E+01 0.  0.
     999903    2    3    3    0    0 -0.12467744789E+00  0.11925960708E-01 -0.34104494348E-01  0.13119357854E+00  0.19024824938E-01 0.  0.
         14    1    1    2    0    0 -0.20725090072E-02 -0.13515896570E-01  0.19146451028E-01  0.23527884321E-01  0.00000000000E+00 0. -1.
     999901    1    3    3    0    0  0.12674995689E+00  0.15899358613E-02  0.14958043320E-01  0.88920853714E+00  0.88000000000E+00 0. -1.
        -11    1    4    4    0    0 -0.74503719774E-01 -0.56784901197E-03 -0.25646244179E-01  0.78797954759E-01  0.51100000000E-03 0. -1.
         11    1    4    4    0    0 -0.50173728112E-01  0.12493809720E-01 -0.84582501688E-02  0.52395623776E-01  0.51100000000E-03 0.  1.
</event>
<event>
 8    1  0.1197213E+005  0.1043930E+01  0.7957747E-01            NaN
         13   -1    0    0    0    0  0.00000000000E+00  0.00000000000E+00  0.74505805969E-08  0.10566000000E+00  0.10566000000E+00 0. -1.
     999900   -1    0    0    0    0 -0.00000000000E+00 -0.00000000000E+00 -0.74505805969E-08  0.93827000000E+00  0.93827000000E+00 0. -1.
     999902    2    1    2    0    0  0.14316818609E-01  0.42685988043E-02  0.17604182786E-01  0.10208410528E+01  0.10205799114E+01 0.  0.
     999903    2    3    3    0    0  0.96400917761E-01 -0.10460589164E-01  0.90420498334E-01  0.13390420944E+00  0.18759262148E-01 0.  0.
         14    1    1    2    0    0 -0.14316818609E-01 -0.42685988043E-02 -0.17604182786E-01  0.23088947191E-01  0.00000000000E+00 0.  1.
     999901    1    3    3    0    0 -0.82084099152E-01  0.14729187969E-01 -0.72816315548E-01  0.88693684337E+00  0.88000000000E+00 0. -1.
        -11    1    4    4    0    0  0.41349796971E-01 -0.10844696779E-01  0.30399926928E-01  0.52457886309E-01  0.51100000000E-03 0.  1.
         11    1    4    4    0    0  0.55051120790E-01  0.38410761487E-03  0.60020571406E-01  0.81446323132E-01  0.51100000000E-03 0. -1.
</event>
<event>
 8    1  0.1197213E+005  0.1043930E+01  0.7957747E-01            NaN
         13   -1    0    0    0    0  0.00000000000E+00  0.00000000000E+00  0.74505805969E-08  0.10566000000E+00  0.10566000000E+00 0. -1.
     999900   -1    0    0    0    0 -0.00000000000E+00 -0.00000000000E+00 -0.74505805969E-08  0.93827000000E+00  0.93827000000E+00 0. -1.
     999902    2    1    2    0    0  0.28378735721E-02  0.12867867552E-01 -0.28770060004E-01  0.10122858553E+01  0.10117911350E+01 0.  0.
     999903    2    3    3    0    0 -0.12011901518E+00  0.19889563664E-01 -0.58180045321E-02  0.12341325612E+00  0.19308289895E-01 0.  0.
         14    1    1    2    0    0 -0.28378735721E-02 -0.12867867552E-01  0.28770060004E-01  0.31644144709E-01  0.00000000000E+00 0. -1.
     999901    1    3    3    0    0  0.12295688875E+00 -0.70216961122E-02 -0.22952055472E-01  0.88887259917E+00  0.88000000000E+00 0.  1.
        -11    1    4    4    0    0 -0.76994405476E-01  0.57464716712E-02  0.25896310601E-02  0.77253658304E-01  0.51100000000E-03 0.  1.
         11    1    4    4    0    0 -0.43124609704E-01  0.14143091993E-01 -0.84076355922E-02  0.46159597815E-01  0.51100000000E-03 0. -1.
</event>
<event>
 8    1  0.1197213E+005  0.1043930E+01  0.7957747E-01            NaN
         13   -1    0    0    0    0  0.00000000000E+00  0.00000000000E+00  0.74505805969E-08  0.10566000000E+00  0.10566000000E+00 0.  1.
     999900   -1    0    0    0    0 -0.00000000000E+00 -0.00000000000E+00 -0.74505805969E-08  0.93827000000E+00  0.93827000000E+00 0.  1.
     999902    2    1    2    0    0 -0.62242740628E-02 -0.15327303155E-01  0.17220189385E-01  0.10200510818E+01  0.10197715464E+01 0.  0.
     999903    2    3    3    0    0  0.66528323036E-01 -0.99051405340E-01 -0.48801686432E-01  0.13063466995E+00  0.21133237527E-01 0.  0.
         14    1    1    2    0    0  0.62242740628E-02  0.15327303155E-01 -0.17220189385E-01  0.23878918151E-01  0.00000000000E+00 0. -1.
     999901    1    3    3    0    0 -0.72752597098E-01  0.83724102185E-01  0.66021875817E-01  0.88941641190E+00  0.88000000000E+00 0. -1.
        -11    1    4    4    0    0  0.10577617705E-01 -0.24134245941E-01 -0.19016037083E-01  0.32499517085E-01  0.51100000000E-03 0.  1.
         11    1    4    4    0    0  0.55950705331E-01 -0.74917159399E-01 -0.29785649349E-01  0.98135152864E-01  0.51100000000E-03 0. -1.
</event>
<event>
 8    1  0.1197213E+005  0.1043930E+01  0.7957747E-01            NaN
         13   -1    0    0    0    0  0.00000000000E+00  0.00000000000E+00  0.74505805969E-08  0.10566000000E+00  0.10566000000E+00 0. -1.
     999900   -1    0    0    0    0 -0.00000000000E+00 -0.00000000000E+00 -0.74505805969E-08  0.93827000000E+00  0.93827000000E+00 0.  1.
     999902    2    1    2    0    0  0.19882448473E-01  0.90399303850E-02  0.85620595453E-02  0.10204706530E+01  0.10202009668E+01 0.  0.
     999903    2    3    3    0    0 -0.61508593492E-01 -0.93850234124E-01 -0.58631288657E-01  0.12821181514E+00  0.20235316022E-01 0.  0.
         14    1    1    2    0    0 -0.19882448473E-01 -0.90399303850E-02 -0.85620595453E-02  0.23459347014E-01  0.00000000000E+00 0.  1.
     999901    1    3    3    0    0  0.81391041965E-01  0.10289016451E+00  0.67193348202E-01  0.89225883784E+00  0.88000000000E+00 0.  1.
        -11    1    4    4    0    0 -0.30438863720E-01 -0.61786571000E-01 -0.41322423484E-01  0.80323773468E-01  0.51100000000E-03 0.  1.
         11    1    4    4    0    0 -0.31069729772E-01 -0.32063663123E-01 -0.17308865173E-01  0.47888041676E-01  0.51100000000E-03 0. -1.
</event>
<event>
 8    1  0.1197213E+005  0.1043930E+01  0.7957747E-01            NaN
         13   -1    0    0    0    0  0.00000000000E+00  0.00000000000E+00  0.74505805969E-08  0.10566000000E+00  0.10566000000E+00 0.  1.
     999900   -1    0    0    0    0 -0.00000000000E+00 -0.00000000000E+00 -0.74505805969E-08  0.93827000000E+00  0.93827000000E+00 0.  1.
     999902    2    1    2    0    0 -0.11027063977E-01  0.13132793171E-01  0.15492967416E-01  0.10208194302E+01  0.10205577939E+01 0.  0.
     999903    2    3    3    0    0  0.23478574366E-01  0.10502683130E+00  0.75999338067E-01  0.13329693799E+00  0.20255753352E-01 0.  0.
         14    1    1    2    0    0  0.11027063977E-01 -0.13132793171E-01 -0.15492967416E-01  0.23110569785E-01  0.00000000000E+00 0. -1.
     999901    1    3    3    0    0 -0.34505638343E-01 -0.91894038125E-01 -0.60506370651E-01  0.88752249223E+00  0.88000000000E+00 0.  1.
        -11    1    4    4    0    0  0.19371902975E-01  0.45050029686E-01  0.39451222628E-01  0.62939938731E-01  0.51100000000E-03 0. -1.
         11    1    4    4    0    0  0.41066713912E-02  0.59976801610E-01  0.36548115439E-01  0.70356999257E-01  0.51100000000E-03 0.  1.
</event>
<event>
 8    1  0.1197213E+005  0.1043930E+01  0.7957747E-01            NaN
         13   -1    0    0    0    0  0.00000000000E+00  0.00000000000E+00  0.74505805969E-08  0.10566000000E+00  0.10566000000E+00 0.  1.
     999900   -1    0    0    0    0 -0.00000000000E+00 -0.00000000000E+00 -0.74505805969E-08  0.93827000000E+00  0.93827000000E+00 0.  1.
     999902    2    1    2    0    0 -0.13339051499E-01 -0.21316056631E-01 -0.93526039958E-02  0.10171013629E+01  0.10167474646E+01 0.  0.
     999903    2    3    3    0    0  0.76463403919E-01 -0.93442150865E-01  0.39055564112E-01  0.12827629285E+00  0.18745200000E-01 0.  0.
         14    1    1    2    0    0  0.13339051499E-01  0.21316056631E-01  0.93526039958E-02  0.26828637063E-01  0.00000000000E+00 0.  1.
     999901    1    3    3    0    0 -0.89802455418E-01  0.72126094234E-01 -0.48408168108E-01  0.88882507008E+00  0.88000000000E+00 0. -1.
        -11    1    4    4    0    0  0.20496361093E-01 -0.38372335237E-01  0.10788200953E-01  0.44823914715E-01  0.51100000000E-03 0.  1.
         11    1    4    4    0    0  0.55967042826E-01 -0.55069815627E-01  0.28267363159E-01  0.83452378138E-01  0.51100000000E-03 0. -1.
</event>
<event>
 8    1  0.1197213E+005  0.1043930E+01  0.7957747E-01            NaN
         13   -1    0    0    0    0  0.00000000000E+00  0.00000000000E+00  0.74505805969E-08  0.10566000000E+00  0.10566000000E+00 0. -1.
     999900   -1    0    0    0    0 -0.00000000000E+00 -0.00000000000E+00 -0.74505805969E-08  0.93827000000E+00  0.93827000000E+00 0.  1.
     999902    2    1    2    0    0  0.18556566360E-01  0.72090229336E-02  0.10319775281E-01  0.10215064871E+01  0.10212603436E+01 0.  0.
     999903    2    3    3    0    0 -0.93218622184E-01  0.86165631490E-01  0.26437169507E-01  0.13078340493E+00  0.17063044877E-01 0.  0.
         14    1    1    2    0    0 -0.18556566360E-01 -0.72090229336E-02 -0.10319775281E-01  0.22423512852E-01  0.00000000000E+00 0.  1.
     999901    1    3    3    0    0  0.11177518854E+00 -0.78956608556E-01 -0.16117394225E-01  0.89072308222E+00  0.88000000000E+00 0. -1.
        -11    1    4    4    0    0 -0.89859942505E-01  0.77121603662E-01  0.24154521225E-01  0.12085633221E+00  0.51100000000E-03 0. -1.
         11    1    4    4    0    0 -0.33586796785E-02  0.90440278279E-02  0.22826482821E-02  0.99270727162E-02  0.51100000000E-03 0.  1.
</event>
<event>
 8    1  0.1197213E+005  0.1043930E+01  0.7957747E-01            NaN
         13   -1    0    0    0    0  0.00000000000E+00  0.00000000000E+00  0.74505805969E-08  0.10566000000E+00  0.10566000000E+00 0. -1.
     999900   -1    0    0    0    0 -0.00000000000E+00 -0.00000000000E+00 -0.74505805969E-08  0.93827000000E+00  0.93827000000E+00 0. -1.
     999902    2    1    2    0    0  0.29288405628E-02  0.15392016048E-01 -0.18024479732E-01  0.10200474931E+01  0.10197678727E+01 0.  0.
     999903    2    3    3    0    0  0.71473190751E-01  0.59696349926E-01 -0.92888614038E-01  0.13310564579E+00  0.20414385451E-01 0.  0.
         14    1    1    2    0    0 -0.29288405628E-02 -0.15392016048E-01  0.18024479732E-01  0.23882506876E-01  0.00000000000E+00 0. -1.
     999901    1    3    3    0    0 -0.68544350188E-01 -0.44304333877E-01  0.74864134306E-01  0.88694184733E+00  0.88000000000E+00 0.  1.
        -11    1    4    4    0    0  0.37942791134E-01  0.29952970062E-01 -0.62220865278E-01  0.78794244787E-01  0.51100000000E-03 0. -1.
         11    1    4    4    0    0  0.33530399617E-01  0.29743379863E-01 -0.30667748760E-01  0.54311401006E-01  0.51100000000E-03 0.  1.
</event>
<event>
 8    1  0.1197213E+005  0.1043930E+01  0.7957747E-01            NaN
         13   -1    0    0    0    0  0.00000000000E+00  0.00000000000E+00  0.74505805969E-08  0.10566000000E+00  0.10566000000E+00 0. -1.
     999900   -1    0    0    0    0 -0.00000000000E+00 -0.00000000000E+00 -0.74505805969E-08  0.93827000000E+00  0.93827000000E+00 0.  1.
     999902    2    1    2    0    0  0.65434177178E-03  0.12921593310E-02 -0.25026245128E-01  0.10188618771E+01  0.10185534418E+01 0.  0.
     999903    2    3    3    0    0  0.35112646082E-01  0.32239754406E-01 -0.12184501669E+00  0.13234114816E+00  0.19891498820E-01 0.  0.
         14    1    1    2    0    0 -0.65434177178E-03 -0.12921593310E-02  0.25026245128E-01  0.25068122867E-01  0.00000000000E+00 0. -1.
     999901    1    3    3    0    0 -0.34458304310E-01 -0.30947595075E-01  0.96818771559E-01  0.88652072898E+00  0.88000000000E+00 0. -1.
        -11    1    4    4    0    0  0.13957049678E-01  0.20246154812E-01 -0.39990897862E-01  0.46949324310E-01  0.51100000000E-03 0.  1.
         11    1    4    4    0    0  0.21155596405E-01  0.11993599593E-01 -0.81854118825E-01  0.85391823847E-01  0.51100000000E-03 0. -1.
</event>
<event>
 8    1  0.1197213E+005  0.1043930E+01  0.7957747E-01            NaN
         13   -1    0    0    0    0  0.00000000000E+00  0.00000000000E+00  0.74505805969E-08  0.10566000000E+00  0.10566000000E+00 0. -1.
     999900   -1    0    0    0    0 -0.00000000000E+00 -0.00000000000E+00 -0.74505805969E-08  0.93827000000E+00  0.93827000000E+00 0.  1.
     999902    2    1    2    0    0 -0.14647815819E-02  0.10101053175E-01  0.21116919111E-01  0.10204757651E+01  0.10202061978E+01 0.  0.
     999903    2    3    3    0    0 -0.37776020740E-01 -0.97000331349E-01  0.77954298639E-01  0.13142025485E+00  0.18929307545E-01 0.  0.
         14    1    1    2    0    0  0.14647815819E-02 -0.10101053175E-01 -0.21116919111E-01  0.23454234864E-01  0.00000000000E+00 0.  1.
     999901    1    3    3    0    0  0.36311239158E-01  0.10710138452E+00 -0.56837379528E-01  0.88905551028E+00  0.88000000000E+00 0.  1.
        -11    1    4    4    0    0 -0.18731050140E-01 -0.62141360217E-01  0.38672785908E-01  0.75552937599E-01  0.51100000000E-03 0.  1.
         11    1    4    4    0    0 -0.19044970600E-01 -0.34858971132E-01  0.39281512731E-01  0.55867317253E-01  0.51100000000E-03 0. -1.
</event>
<event>
 8    1  0.1197213E+005  0.1043930E+01  0.7957747E-01            NaN
         13   -1    0    0    0    0  0.00000000000E+00  0.00000000000E+00  0.74505805969E-08  0.10566000000E+00  0.10566000000E+00 0.  1.
     999900   -1    0    0    0    0 -0.00000000000E+00 -0.00000000000E+00 -0.74505805969E-08  0.93827000000E+00  0.93827000000E+00 0.  1.
     999902    2    1    2    0    0  0.29101864941E-02 -0.14126759845E-01  0.22859599041E-01  0.10169004643E+01  0.10165411741E+01 0.  0.
     999903    2    3    3    0    0 -0.11890789375E-01 -0.28825733727E-01  0.12540751945E+00  0.13070003290E+00  0.19573933397E-01 0.  0.
         14    1    1    2    0    0 -0.29101864941E-02  0.14126759845E-01 -0.22859599041E-01  0.27029535651E-01  0.00000000000E+00 0. -1.
     999901    1    3    3    0    0  0.14800975869E-01  0.14698973882E-01 -0.10254792041E+00  0.88620043145E+00  0.88000000000E+00 0.  1.
        -11    1    4    4    0    0 -0.68130064767E-02 -0.89335944736E-02  0.80961412480E-01  0.81738837765E-01  0.51100000000E-03 0.  1.
         11    1    4    4    0    0 -0.50777828985E-02 -0.19892139254E-01  0.44446106970E-01  0.48961195135E-01  0.51100000000E-03 0. -1.
</event>
<event>
 8    1  0.1197213E+005  0.1043930E+01  0.7957747E-01            NaN
         13   -1    0    0    0    0  0.00000000000E+00  0.00000000000E+00  0.74505805969E-08  0.10566000000E+00  0.10566000000E+00 0. -1.
     999900   -1    0    0    0    0 -0.00000000000E+00 -0.00000000000E+00 -0.74505805969E-08  0.93827000000E+00  0.93827000000E+00 0. -1.
     999902    2    1    2    0    0  0.27509260374E-03  0.30646243945E-02 -0.21276745960E-01  0.10224319183E+01  0.10222058795E+01 0.  0.
     999903    2    3    3    0    0 -0.11538078237E+00 -0.26653754051E-01 -0.58520391778E-01  0.13358628907E+00  0.19937723750E-01 0.  0.
         14    1    1    2    0    0 -0.27509260374E-03 -0.30646243945E-02  0.21276745960E-01  0.21498081712E-01  0.00000000000E+00 0. -1.
     999901    1    3    3    0    0  0.11565587497E+00  0.29718378445E-01  0.37243645817E-01  0.88884562922E+00  0.88000000000E+00 0. -1.
        -11    1    4    4    0    0 -0.19634017068E-01 -0.12466439705E-01 -0.10177177232E-01  0.25391786124E-01  0.51100000000E-03 0.  1.
         11    1    4    4    0    0 -0.95746765298E-01 -0.14187314345E-01 -0.48343214546E-01  0.10819450294E+00  0.51100000000E-03 0. -1.
</event>
<event>
 8    1  0.1197213E+005  0.1043930E+01  0.7957747E-01            NaN
         13   -1    0    0    0    0  0.00000000000E+00  0.00000000000E+00  0.74505805969E-08  0.10566000000E+00  0.10566000000E+00 0. -1.
     999900   -1    0    0    0    0 -0.00000000000E+00 -0.00000000000E+00 -0.74505805969E-08  0.93827000000E+00  0.93827000000E+00 0. -1.
     999902    2    1    2    0    0  0.36747730475E-02 -0.17065295678E-01 -0.18318646354E-01  0.10186258288E+01  0.10183114838E+01 0.  0.
     999903    2    3    3    0    0 -0.59511332703E-01  0.92767798289E-01 -0.63442091100E-01  0.12840567756E+00  0.17766710080E-01 0.  0.
         14    1    1    2    0    0 -0.36747730475E-02  0.17065295678E-01  0.18318646354E-01  0.25304171154E-01  0.00000000000E+00 0. -1.
     999901    1    3    3    0    0  0.63186105750E-01 -0.10983309397E+00  0.45123444746E-01  0.89022015129E+00  0.88000000000E+00 0.  1.
        -11    1    4    4    0    0 -0.27276998424E-01  0.53506727759E-01 -0.41868308470E-01  0.73213529717E-01  0.51100000000E-03 0.  1.
         11    1    4    4    0    0 -0.32234334279E-01  0.39261070530E-01 -0.21573782630E-01  0.55192147843E-01  0.51100000000E-03 0. -1.
</event>
<event>
 8    1  0.1197213E+005  0.1043930E+01  0.7957747E-01            NaN
         13   -1    0    0    0    0  0.00000000000E+00  0.00000000000E+00  0.74505805969E-08  0.10566000000E+00  0.10566000000E+00 0.  1.
     999900   -1    0    0    0    0 -0.00000000000E+00 -0.00000000000E+00 -0.74505805969E-08  0.93827000000E+00  0.93827000000E+00 0. -1.
     999902    2    1    2    0    0 -0.14837862434E-01  0.16661153063E-01  0.57361749133E-04  0.10216194762E+01  0.10213758342E+01 0.  0.
     999903    2    3    3    0    0  0.10567822339E+00  0.26926139232E-01 -0.69192012708E-01  0.13065091739E+00  0.19728753599E-01 0.  0.
         14    1    1    2    0    0  0.14837862434E-01 -0.16661153063E-01 -0.57361749133E-04  0.22310523826E-01  0.00000000000E+00 0. -1.
     999901    1    3    3    0    0 -0.12051608583E+00 -0.10264986168E-01  0.69249374457E-01  0.89096855879E+00  0.88000000000E+00 0.  1.
        -11    1    4    4    0    0  0.32149051634E-01  0.11958269262E-01 -0.31948907213E-01  0.46878092088E-01  0.51100000000E-03 0.  1.
         11    1    4    4    0    0  0.73529171757E-01  0.14967869970E-01 -0.37243105494E-01  0.83772825299E-01  0.51100000000E-03 0. -1.
</event>
<event>
 8    1  0.1197213E+005  0.1043930E+01  0.7957747E-01            NaN
         13   -1    0    0    0    0  0.00000000000E+00  0.00000000000E+00  0.74505805969E-08  0.10566000000E+00  0.10566000000E+00 0.  1.
     999900   -1    0    0    0    0 -0.00000000000E+00 -0.00000000000E+00 -0.74505805969E-08  0.93827000000E+00  0.93827000000E+00 0.  1.
     999902    2    1    2    0    0  0.22249565631E-02  0.23479151893E-01  0.15114734856E-02  0.10202972778E+01  0.10200235436E+01 0.  0.
     999903    2    3    3    0    0  0.11843542436E-01  0.94942493488E-01  0.90060527733E-01  0.13291885720E+00  0.20054360526E-01 0.  0.
         14    1    1    2    0    0 -0.22249565631E-02 -0.23479151893E-01 -0.15114734856E-02  0.23632722175E-01  0.00000000000E+00 0. -1.
     999901    1    3    3    0    0 -0.96185858725E-02 -0.71463341596E-01 -0.88549054247E-01  0.88737842063E+00  0.88000000000E+00 0.  1.
        -11    1    4    4    0    0 -0.55851514092E-02  0.17650072066E-01  0.16652657202E-01  0.24905643399E-01  0.51100000000E-03 0. -1.
         11    1    4    4    0    0  0.17428693845E-01  0.77292421422E-01  0.73407870531E-01  0.10801321380E+00  0.51100000000E-03 0.  1.
</event>
<event>
 8    1  0.1197213E+005  0.1043930E+01  0.7957747E-01            NaN
         13   -1    0    0    0    0  0.00000000000E+00  0.00000000000E+00  0.74505805969E-08  0.10566000000E+00  0.10566000000E+00 0. -1.
     999900   -1    0    0    0    0 -0.00000000000E+00 -0.00000000000E+00 -0.74505805969E-08  0.93827000000E+00  0.93827000000E+00 0.  1.
     999902    2    1    2    0    0  0.11852488875E-01  0.24370953871E-01 -0.18587120704E-01  0.10110680776E+01  0.10105338944E+01 0.  0.
     999903    2    3    3    0    0  0.21910049685E-01 -0.10441598708E+00 -0.53404352140E-01  0.12095602273E+00  0.19889343187E-01 0.  0.
         14    1    1    2    0    0 -0.11852488875E-01 -0.24370953871E-01  0.18587120704E-01  0.32861922360E-01  0.00000000000E+00 0. -1.
     999901    1    3    3    0    0 -0.10057560810E-01  0.12878694095E+00  0.34817231435E-01  0.89011205491E+00  0.88000000000E+00 0. -1.
        -11    1    4    4    0    0  0.18829297095E-01 -0.47951345429E-01 -0.19920003040E-01  0.55235329271E-01  0.51100000000E-03 0.  1.
         11    1    4    4    0    0  0.30807525902E-02 -0.56464641651E-01 -0.33484349099E-01  0.65720693461E-01  0.51100000000E-03 0. -1.
</event>
<event>
 8    1  0.1197213E+005  0.1043930E+01  0.7957747E-01            NaN
         13   -1    0    0    0    0  0.00000000000E+00  0.00000000000E+00  0.74505805969E-08  0.10566000000E+00  0.10566000000E+00 0.  1.
     999900   -1    0    0    0    0 -0.00000000000E+00 -0.00000000000E+00 -0.74505805969E-08  0.93827000000E+00  0.93827000000E+00 0. -1.
     999902    2    1    2    0    0 -0.22136472250E-02  0.23704250820E-01  0.17103758622E-02  0.10200612521E+01  0.10197819575E+01 0.  0.
     999903    2    3    3    0    0  0.11222585265E+00  0.64720656244E-01 -0.12274724471E-01  0.13159384826E+00  0.19566979651E-01 0.  0.
         14    1    1    2    0    0  0.22136472250E-02 -0.23704250820E-01 -0.17103758622E-02  0.23868747905E-01  0.00000000000E+00 0. -1.
     999901    1    3    3    0    0 -0.11443949987E+00 -0.41016405424E-01  0.13985100333E-01  0.88846740383E+00  0.88000000000E+00 0. -1.
        -11    1    4    4    0    0  0.22888030121E-01  0.22796027822E-01 -0.19157314683E-02  0.32364362428E-01  0.51100000000E-03 0. -1.
         11    1    4    4    0    0  0.89337822524E-01  0.41924628421E-01 -0.10358993002E-01  0.99229485833E-01  0.51100000000E-03 0.  1.
</event>
<event>
 8    1  0.1197213E+005  0.1043930E+01  0.7957747E-01            NaN
         13   -1    0    0    0    0  0.00000000000E+00  0.00000000000E+00  0.74505805969E-08  0.10566000000E+00  0.10566000000E+00 0.  1.
     999900   -1    0    0    0    0 -0.00000000000E+00 -0.00000000000E+00 -0.74505805969E-08  0.93827000000E+00  0.93827000000E+00 0.  1.
     999902    2    1    2    0    0  0.19392475313E-01 -0.13934573029E-01  0.36809605897E-02  0.10197682555E+01  0.10194819788E+01 0.  0.
     999903    2    3    3    0    0 -0.97003809389E-01 -0.11666541625E-01 -0.80391624693E-01  0.12812850842E+00  0.20205299290E-01 0.  0.
         14    1    1    2    0    0 -0.19392475313E-01  0.13934573029E-01 -0.36809605897E-02  0.24161744455E-01  0.00000000000E+00 0.  1.
     999901    1    3    3    0    0  0.11639628470E+00 -0.22680314038E-02  0.84072585283E-01  0.89163974713E+00  0.88000000000E+00 0. -1.
        -11    1    4    4    0    0 -0.82605803943E-02  0.28287950862E-02 -0.13377020751E-01  0.15982649194E-01  0.51100000000E-03 0. -1.
         11    1    4    4    0    0 -0.88743228994E-01 -0.14495336711E-01 -0.67014603942E-01  0.11214585922E+00  0.51100000000E-03 0.  1.
</event>
<event>
 8    1  0.1197213E+005  0.1043930E+01  0.7957747E-01            NaN
         13   -1    0    0    0    0  0.00000000000E+00  0.00000000000E+00  0.74505805969E-08  0.10566000000E+00  0.10566000000E+00 0.  1.
     999900   -1    0    0    0    0 -0.00000000000E+00 -0.00000000000E+00 -0.74505805969E-08  0.93827000000E+00  0.93827000000E+00 0.  1.
     999902    2    1    2    0    0  0.11012688912E-01  0.14867484087E-02  0.21235655619E-01  0.10199624635E+01  0.10196808246E+01 0.  0.
     999903    2    3    3    0    0  0.12744206001E+00 -0.23873409411E-01 -0.65671319983E-02  0.13149640837E+00  0.20898800302E-01 0.  0.
         14    1    1    2    0    0 -0.11012688912E-01 -0.14867484087E-02 -0.21235655619E-01  0.23967536533E-01  0.00000000000E+00 0. -1.
     999901    1    3    3    0    0 -0.11642937110E+00  0.25360157819E-01  0.27802787617E-01  0.88846605510E+00  0.88000000000E+00 0. -1.
        -11    1    4    4    0    0  0.84504274145E-01 -0.20028416467E-01  0.45750300558E-02  0.86967245765E-01  0.51100000000E-03 0. -1.
         11    1    4    4    0    0  0.42937785869E-01 -0.38449929436E-02 -0.11142162054E-01  0.44529162605E-01  0.51100000000E-03 0.  1.
</event>
<event>
 8    1  0.1197213E+005  0.1043930E+01  0.7957747E-01            NaN
         13   -1    0    0    0    0  0.00000000000E+00  0.00000000000E+00  0.74505805969E-08  0.10566000000E+00  0.10566000000E+00 0. -1.
     999900   -1    0    0    0    0 -0.00000000000E+00 -0.00000000000E+00 -0.74505805969E-08  0.93827000000E+00  0.93827000000E+00 0.  1.
     999902    2    1    2    0    0  0.85562945827E-02  0.65993574688E-03  0.21913062786E-01  0.10203964492E+01  0.10201250343E+01 0.  0.
     999903    2    3    3    0    0 -0.89796019248E-01 -0.51517472274E-01  0.78994977787E-01  0.13154662806E+00  0.18626159424E-01 0.  0.
         14    1    1    2    0    0 -0.85562945827E-02 -0.65993574688E-03 -0.21913062786E-01  0.23533550792E-01  0.00000000000E+00 0.  1.
     999901    1    3    3    0    0  0.98352313831E-01  0.52177408021E-01 -0.57081915001E-01  0.88884982115E+00  0.88000000000E+00 0.  1.
        -11    1    4    4    0    0 -0.65261404575E-01 -0.36525719716E-01  0.46107852092E-01  0.87859969687E-01  0.51100000000E-03 0.  1.
         11    1    4    4    0    0 -0.24534614673E-01 -0.14991752558E-01  0.32887125695E-01  0.43686658368E-01  0.51100000000E-03 0. -1.
</event>
<event>
 8    1  0.1197213E+005  0.1043930E+01  0.7957747E-01            NaN
         13   -1    0    0    0    0  0.00000000000E+00  0.00000000000E+00  0.74505805969E-08  0.10566000000E+00  0.10566000000E+00 0.  1.
     999900   -1    0    0    0    0 -0.00000000000E+00 -0.00000000000E+00 -0.74505805969E-08  0.93827000000E+00  0.93827000000E+00 0.  1.
     999902    2    1    2    0    0 -0.22125650190E-01 -0.98149861610E-02 -0.13175160128E-01  0.10163716402E+01  0.10159979566E+01 0.  0.
     999903    2    3    3    0    0 -0.67691814388E-02 -0.35044957879E-01  0.11909267931E+00  0.12599691351E+00  0.20449573559E-01 0.  0.
         14    1    1    2    0    0  0.22125650190E-01  0.98149861610E-02  0.13175160128E-01  0.27558359785E-01  0.00000000000E+00 0.  1.
     999901    1    3    3    0    0 -0.15356468751E-01  0.25229971718E-01 -0.13226783944E+00  0.89037472670E+00  0.88000000000E+00 0.  1.
        -11    1    4    4    0    0 -0.48909998729E-02 -0.66851006163E-02  0.58284397177E-01  0.58872272976E-01  0.51100000000E-03 0.  1.
         11    1    4    4    0    0 -0.18781815659E-02 -0.28359857262E-01  0.60808282132E-01  0.67124640534E-01  0.51100000000E-03 0. -1.
</event>
<event>
 8    1  0.1197213E+005  0.1043930E+01  0.7957747E-01            NaN
         13   -1    0    0    0    0  0.00000000000E+00  0.00000000000E+00  0.74505805969E-08  0.10566000000E+00  0.10566000000E+00 0.  1.
     999900   -1    0    0    0    0 -0.00000000000E+00 -0.00000000000E+00 -0.74505805969E-08  0.93827000000E+00  0.93827000000E+00 0.  1.
     999902    2    1    2    0    0  0.21033939501E-03  0.23906908081E-01 -0.58904148799E-03  0.10200149113E+01  0.10197345183E+01 0.  0.
     999903    2    3    3    0    0  0.82208190152E-01  0.41842563650E-01  0.90952337996E-01  0.13129383054E+00  0.21371838702E-01 0.  0.
         14    1    1    2    0    0 -0.21033939501E-03 -0.23906908081E-01  0.58904148799E-03  0.23915088679E-01  0.00000000000E+00 0.  1.
     999901    1    3    3    0    0 -0.81997850757E-01 -0.17935655569E-01 -0.91541379484E-01  0.88872108078E+00  0.88000000000E+00 0. -1.
        -11    1    4    4    0    0  0.46024007393E-01  0.32025324814E-01  0.44422739438E-01  0.71536505269E-01  0.51100000000E-03 0.  1.
         11    1    4    4    0    0  0.36184182759E-01  0.98172388364E-02  0.46529598558E-01  0.59757325269E-01  0.51100000000E-03 0. -1.
</event>
<event>
 8    1  0.1197213E+005  0.1043930E+01  0.7957747E-01            NaN
         13   -1    0    0    0    0  0.00000000000E+00  0.00000000000E+00  0.74505805969E-08  0.10566000000E+00  0.10566000000E+00 0. -1.
     999900   -1    0    0    0    0 -0.00000000000E+00 -0.00000000000E+00 -0.74505805969E-08  0.93827000000E+00  0.93827000000E+00 0. -1.
     999902    2    1    2    0    0 -0.11677607298E-01  0.20321342616E-01  0.41143887840E-02  0.10201339568E+01  0.10198563811E+01 0.  0.
     999903    2    3    3    0    0  0.44970643697E-01  0.81804388045E-01  0.90746343599E-01  0.13193674624E+00  0.21403023932E-01 0.  0.
         14    1    1    2    0    0  0.11677607298E-01 -0.20321342616E-01 -0.41143887840E-02  0.23796043222E-01  0.00000000000E+00 0.  1.
     999901    1    3    3    0    0 -0.56648250995E-01 -0.61483045429E-01 -0.86631954815E-01  0.88819721054E+00  0.88000000000E+00 0. -1.
        -11    1    4    4    0    0  0.84818928537E-02  0.36504118013E-01  0.32331333042E-01  0.49498175275E-01  0.51100000000E-03 0. -1.
         11    1    4    4    0    0  0.36488750843E-01  0.45300270032E-01  0.58415010557E-01  0.82438570963E-01  0.51100000000E-03 0.  1.
</event>
<event>
 8    1  0.1197213E+005  0.1043930E+01  0.7957747E-01            NaN
         13   -1    0    0    0    0  0.00000000000E+00  0.00000000000E+00  0.74505805969E-08  0.10566000000E+00  0.10566000000E+00 0. -1.
     999900   -1    0    0    0    0 -0.00000000000E+00 -0.00000000000E+00 -0.74505805969E-08  0.93827000000E+00  0.93827000000E+00 0. -1.
     999902    2    1    2    0    0  0.74362889727E-02 -0.21932221322E-01  0.30599563338E-02  0.10205701186E+01  0.10203027408E+01 0.  0.
     999903    2    3    3    0    0 -0.67805276675E-01  0.42677023623E-01  0.99982580110E-01  0.12971118324E+00  0.20238350751E-01 0.  0.
         14    1    1    2    0    0 -0.74362889727E-02  0.21932221322E-01 -0.30599563338E-02  0.23359881390E-01  0.00000000000E+00 0. -1.
     999901    1    3    3    0    0  0.75241565648E-01 -0.64609244944E-01 -0.96922623777E-01  0.89085893537E+00  0.88000000000E+00 0.  1.
        -11    1    4    4    0    0 -0.51836772454E-01  0.24558563394E-01  0.60081720592E-01  0.83067733114E-01  0.51100000000E-03 0.  1.
         11    1    4    4    0    0 -0.15968504221E-01  0.18118460228E-01  0.39900859518E-01  0.46643450123E-01  0.51100000000E-03 0. -1.
</event>
<event>
 8    1  0.1197213E+005  0.1043930E+01  0.7957747E-01            NaN
         13   -1    0    0    0    0  0.00000000000E+00  0.00000000000E+00  0.74505805969E-08  0.10566000000E+00  0.10566000000E+00 0. -1.
     999900   -1    0    0    0    0 -0.00000000000E+00 -0.00000000000E+00 -0.74505805969E-08  0.93827000000E+00  0.93827000000E+00 0.  1.
     999902    2    1    2    0    0 -0.19713704852E-01  0.14557164082E-01 -0.22666744571E-02  0.10193194535E+01  0.10190223105E+01 0.  0.
     999903    2    3    3    0    0 -0.30810195713E-01  0.17619064746E-01 -0.12431014020E+00  0.13082234329E+00  0.20044324514E-01 0.  0.
         14    1    1    2    0    0  0.19713704852E-01 -0.14557164082E-01  0.22666744571E-02  0.24610546483E-01  0.00000000000E+00 0.  1.
     999901    1    3    3    0    0  0.11096490860E-01 -0.30619006646E-02  0.12204346574E+00  0.88849711022E+00  0.88000000000E+00 0. -1.
        -11    1    4    4    0    0 -0.25034005565E-01  0.12780445577E-01 -0.62239178796E-01  0.68293614064E-01  0.51100000000E-03 0. -1.
         11    1    4    4    0    0 -0.57761901481E-02  0.48386191694E-02 -0.62070961406E-01  0.62528729229E-01  0.51100000000E-03 0.  1.
</event>
<event>
 8    1  0.1197213E+005  0.1043930E+01  0.7957747E-01            NaN
         13   -1    0    0    0    0  0.00000000000E+00  0.00000000000E+00  0.74505805969E-08  0.10566000000E+00  0.10566000000E+00 0.  1.
     999900   -1    0    0    0    0 -0.00000000000E+00 -0.00000000000E+00 -0.74505805969E-08  0.93827000000E+00  0.93827000000E+00 0.  1.
     999902    2    1    2    0    0  0.66222394220E-02 -0.11513697860E-03 -0.22319061054E-01  0.10206489391E+01  0.10203833834E+01 0.  0.
     999903    2    3    3    0    0 -0.33421996915E-01  0.98042203370E-01 -0.80012881546E-01  0.13241080589E+00  0.20031394922E-01 0.  0.
         14    1    1    2    0    0 -0.66222394220E-02  0.11513697860E-03  0.22319061054E-01  0.23281060925E-01  0.00000000000E+00 0.  1.
     999901    1    3    3    0    0  0.40044236337E-01 -0.98157340349E-01  0.57693820493E-01  0.88823813319E+00  0.88000000000E+00 0. -1.
        -11    1    4    4    0    0 -0.15413544380E-01  0.73178451178E-01 -0.55850752651E-01  0.93339331258E-01  0.51100000000E-03 0.  1.
         11    1    4    4    0    0 -0.18008452535E-01  0.24863752192E-01 -0.24162128896E-01  0.39071474627E-01  0.51100000000E-03 0. -1.
</event>
<event>
 8    1  0.1197213E+005  0.1043930E+01  0.7957747E-01            NaN
         13   -1    0    0    0    0  0.00000000000E+00  0.00000000000E+00  0.74505805969E-08  0.10566000000E+00  0.10566000000E+00 0.  1.
     999900   -1    0    0    0    0 -0.00000000000E+00 -0.00000000000E+00 -0.74505805969E-08  0.93827000000E+00  0.93827000000E+00 0.  1.
     999902    2    1    2    0    0 -0.22350749196E-01  0.50399495017E-02 -0.56182098037E-02  0.10203392950E+01  0.10200665447E+01 0.  0.
     999903    2    3    3    0    0 -0.17632588853E-01  0.72955281050E-01  0.10514999935E+00  0.13078640200E+00  0.20375950624E-01 0.  0.
         14    1    1    2    0    0  0.22350749196E-01 -0.50399495017E-02  0.56182098037E-02  0.23590704992E-01  0.00000000000E+00 0.  1.
     999901    1    3    3    0    0 -0.47181603435E-02 -0.67915331548E-01 -0.11076820915E+00  0.88955289301E+00  0.88000000000E+00 0.  1.
        -11    1    4    4    0    0 -0.70412084875E-02  0.61157764886E-01  0.78346058402E-01  0.99640437629E-01  0.51100000000E-03 0. -1.
         11    1    4    4    0    0 -0.10591380365E-01  0.11797516164E-01  0.26803940943E-01  0.31145964374E-01  0.51100000000E-03 0.  1.
</event>
<event>
 8    1  0.1197213E+005  0.1043930E+01  0.7957747E-01            NaN
         13   -1    0    0    0    0  0.00000000000E+00  0.00000000000E+00  0.74505805969E-08  0.10566000000E+00  0.10566000000E+00 0.  1.
     999900   -1    0    0    0    0 -0.00000000000E+00 -0.00000000000E+00 -0.74505805969E-08  0.93827000000E+00  0.93827000000E+00 0.  1.
     999902    2    1    2    0    0  0.15206698416E-01  0.18382747250E-01  0.14662339742E-03  0.10200722849E+01  0.10197932515E+01 0.  0.
     999903    2    3    3    0    0 -0.10475849807E+00 -0.60373462614E-01 -0.36875668743E-01  0.12767952432E+00  0.17970756180E-01 0.  0.
         14    1    1    2    0    0 -0.15206698416E-01 -0.18382747250E-01 -0.14662339742E-03  0.23857715138E-01  0.00000000000E+00 0.  1.
     999901    1    3    3    0    0  0.11996519649E+00  0.78756209865E-01  0.37022292140E-01  0.89239276055E+00  0.88000000000E+00 0. -1.
        -11    1    4    4    0    0 -0.76336556352E-01 -0.52578129788E-01 -0.26125761920E-01  0.96304444988E-01  0.51100000000E-03 0. -1.
         11    1    4    4    0    0 -0.28421941721E-01 -0.77953328261E-02 -0.10749906823E-01  0.31375079327E-01  0.51100000000E-03 0.  1.
</event>
<event>
 8    1  0.1197213E+005  0.1043930E+01  0.7957747E-01            NaN
         13   -1    0    0    0    0  0.00000000000E+00  0.00000000000E+00  0.74505805969E-08  0.10566000000E+00  0.10566000000E+00 0.  1.
     999900   -1    0    0    0    0 -0.00000000000E+00 -0.00000000000E+00 -0.74505805969E-08  0.93827000000E+00  0.93827000000E+00 0. -1.
     999902    2    1    2    0    0 -0.23770899069E-01  0.26453681590E-02  0.13314531792E-01  0.10165561005E+01  0.10161874705E+01 0.  0.
     999903    2    3    3    0    0 -0.11184226579E+00  0.63083543031E-01 -0.21288591084E-02  0.12996271180E+00  0.19938620803E-01 0.  0.
         14    1    1    2    0    0  0.23770899069E-01 -0.26453681590E-02 -0.13314531792E-01  0.27373899468E-01  0.00000000000E+00 0. -1.
     999901    1    3    3    0    0  0.88071366720E-01 -0.60438174872E-01  0.15443390900E-01  0.88659338873E+00  0.88000000000E+00 0. -1.
        -11    1    4    4    0    0 -0.41535461360E-01  0.26777872168E-01 -0.10066422468E-01  0.50436524171E-01  0.51100000000E-03 0.  1.
         11    1    4    4    0    0 -0.70306804429E-01  0.36305670864E-01  0.79375633592E-02  0.79526187630E-01  0.51100000000E-03 0. -1.
</event>
<event>
 8    1  0.1197213E+005  0.1043930E+01  0.7957747E-01            NaN
         13   -1    0    0    0    0  0.00000000000E+00  0.00000000000E+00  0.74505805969E-08  0.10566000000E+00  0.10566000000E+00 0.  1.
     999900   -1    0    0    0    0 -0.00000000000E+00 -0.00000000000E+00 -0.74505805969E-08  0.93827000000E+00  0.93827000000E+00 0.  1.
     999902    2    1    2    0    0  0.21513870079E-01 -0.40721572098E-02 -0.90487502676E-02  0.10202380404E+01  0.10199629160E+01 0.  0.
     999903    2    3    3    0    0  0.78607950411E-01  0.63036475676E-01 -0.84422253251E-01  0.13263200863E+00  0.17644425054E-01 0.  0.
         14    1    1    2    0    0 -0.21513870079E-01  0.40721572098E-02  0.90487502676E-02  0.23691959638E-01  0.00000000000E+00 0.  1.
     999901    1    3    3    0    0 -0.57094080332E-01 -0.67108632886E-01  0.75373502983E-01  0.88760603173E+00  0.88000000000E+00 0. -1.
        -11    1    4    4    0    0  0.24920930043E-01  0.11665749317E-01 -0.28619088169E-01  0.39704606659E-01  0.51100000000E-03 0.  1.
         11    1    4    4    0    0  0.53687020368E-01  0.51370726359E-01 -0.55803165082E-01  0.92927401970E-01  0.51100000000E-03 0. -1.
</event>
<event>
 8    1  0.1197213E+005  0.1043930E+01  0.7957747E-01            NaN
         13   -1    0    0    0    0  0.00000000000E+00  0.00000000000E+00  0.74505805969E-08  0.10566000000E+00  0.10566000000E+00 0. -1.
     999900   -1    0    0    0    0 -0.00000000000E+00 -0.00000000000E+00 -0.74505805969E-08  0.93827000000E+00  0.93827000000E+00 0.  1.
     999902    2    1    2    0    0 -0.70850772650E-02 -0.11616496913E-01  0.17920368245E-01  0.10214293129E+01  0.10211814532E+01 0.  0.
     999903    2    3    3    0    0 -0.71091402860E-01 -0.78255190344E-01 -0.76592661261E-01  0.13155840211E+00  0.16226984664E-01 0.  0.
         14    1    1    2    0    0  0.70850772650E-02  0.11616496913E-01 -0.17920368245E-01  0.22500687065E-01  0.00000000000E+00 0.  1.
     999901    1    3    3    0    0  0.64006325595E-01  0.66638693431E-01  0.94513029506E-01  0.88987091082E+00  0.88000000000E+00 0. -1.
        -11    1    4    4    0    0 -0.14676121997E-01 -0.97243676660E-02 -0.18087826600E-01  0.25246434906E-01  0.51100000000E-03 0. -1.
         11    1    4    4    0    0 -0.56415280863E-01 -0.68530822679E-01 -0.58504834662E-01  0.10631196721E+00  0.51100000000E-03 0.  1.
</event>
<event>
 8    1  0.1197213E+005  0.1043930E+01  0.7957747E-01            NaN
         13   -1    0    0    0    0  0.00000000000E+00  0.00000000000E+00  0.74505805969E-08  0.10566000000E+00  0.10566000000E+00 0. -1.
     999900   -1    0    0    0    0 -0.00000000000E+00 -0.00000000000E+00 -0.74505805969E-08  0.93827000000E+00  0.93827000000E+00 0.  1.
     999902    2    1    2    0    0  0.70954226323E-02 -0.17915698594E-01 -0.24054585115E-02  0.10245108468E+01  0.10243267896E+01 0.  0.
     999903    2    3    3    0    0  0.71236418759E-01 -0.49966026875E-01 -0.10246167911E+00  0.13594315770E+00  0.20271044321E-01 0.  0.
         14    1    1    2    0    0 -0.70954226323E-02  0.17915698594E-01  0.24054585115E-02  0.19419153151E-01  0.00000000000E+00 0.  1.
     999901    1    3    3    0    0 -0.64140996127E-01  0.32050328281E-01  0.10005622060E+00  0.88856768915E+00  0.88000000000E+00 0. -1.
        -11    1    4    4    0    0  0.12565243620E-01 -0.20660218790E-02 -0.22107312317E-01  0.25517605149E-01  0.51100000000E-03 0. -1.
         11    1    4    4    0    0  0.58671175139E-01 -0.47900004996E-01 -0.80354366798E-01  0.11042555255E+00  0.51100000000E-03 0.  1.
</event>
<event>
 8    1  0.1197213E+005  0.1043930E+01  0.7957747E-01            NaN
         13   -1    0    0    0    0  0.00000000000E+00  0.00000000000E+00  0.74505805969E-08  0.10566000000E+00  0.10566000000E+00 0. -1.
     999900   -1    0    0    0    0 -0.00000000000E+00 -0.00000000000E+00 -0.74505805969E-08  0.93827000000E+00  0.93827000000E+00 0. -1.
     999902    2    1    2    0    0  0.17411238633E-01 -0.15695628954E-01  0.17575453495E-02  0.10204227040E+01  0.10201519014E+01 0.  0.
     999903    2    3    3    0    0  0.10164455787E+00 -0.10030715495E-02  0.82954866475E-01  0.13255777720E+00  0.18905875454E-01 0.  0.
         14    1    1    2    0    0 -0.17411238633E-01  0.15695628954E-01 -0.17575453495E-02  0.23507295988E-01  0.00000000000E+00 0.  1.
     999901    1    3    3    0    0 -0.84233319234E-01 -0.14692557404E-01 -0.81197321125E-01  0.88786492682E+00  0.88000000000E+00 0. -1.
        -11    1    4    4    0    0  0.95556117687E-01 -0.56225341284E-02  0.76310204080E-01  0.12241769842E+00  0.51100000000E-03 0.  1.
         11    1    4    4    0    0  0.60884401804E-02  0.46194625789E-02  0.66446623942E-02  0.10140078781E-01  0.51100000000E-03 0. -1.
</event>
<event>
 8    1  0.1197213E+005  0.1043930E+01  0.7957747E-01            NaN
         13   -1    0    0    0    0  0.00000000000E+00  0.00000000000E+00  0.74505805969E-08  0.10566000000E+00  0.10566000000E+00 0.  1.
     999900   -1    0    0    0    0 -0.00000000000E+00 -0.00000000000E+00 -0.74505805969E-08  0.93827000000E+00  0.93827000000E+00 0. -1.
     999902    2    1    2    0    0  0.13303781835E-01  0.98483697389E-02  0.16293579267E-01  0.10207036847E+01  0.10204393908E+01 0.  0.
     999903    2    3    3    0    0 -0.45640731115E-01  0.87341958808E-01  0.86335182962E-01  0.13256769386E+00  0.20217208849E-01 0.  0.
         14    1    1    2    0    0 -0.13303781835E-01 -0.98483697389E-02 -0.16293579267E-01  0.23226315312E-01  0.00000000000E+00 0. -1.
     999901    1    3    3    0    0  0.58944512950E-01 -0.77493589069E-01 -0.70041603695E-01  0.88813599083E+00  0.88000000000E+00 0. -1.
        -11    1    4    4    0    0 -0.30302269667E-01  0.48653348262E-01  0.61632433993E-01  0.84167653436E-01  0.51100000000E-03 0.  1.
         11    1    4    4    0    0 -0.15338461448E-01  0.38688610546E-01  0.24702748969E-01  0.48400040426E-01  0.51100000000E-03 0. -1.
</event>
<event>
 8    1  0.1197213E+005  0.1043930E+01  0.7957747E-01            NaN
         13   -1    0    0    0    0  0.00000000000E+00  0.00000000000E+00  0.74505805969E-08  0.10566000000E+00  0.10566000000E+00 0.  1.
     999900   -1    0    0    0    0 -0.00000000000E+00 -0.00000000000E+00 -0.74505805969E-08  0.93827000000E+00  0.93827000000E+00 0.  1.
     999902    2    1    2    0    0 -0.13331809453E-01 -0.15777477351E-01  0.11429587924E-01  0.10203227677E+01  0.10200496306E+01 0.  0.
     999903    2    3    3    0    0  0.63825382995E-01  0.47570241769E-01  0.10086787895E+00  0.13017369384E+00  0.20838765505E-01 0.  0.
         14    1    1    2    0    0  0.13331809453E-01  0.15777477351E-01 -0.11429587924E-01  0.23607232259E-01  0.00000000000E+00 0.  1.
     999901    1    3    3    0    0 -0.77157192448E-01 -0.63347719120E-01 -0.89438291026E-01  0.89014907390E+00  0.88000000000E+00 0.  1.
        -11    1    4    4    0    0  0.40622746908E-01  0.20316428831E-01  0.66628290616E-01  0.80638421848E-01  0.51100000000E-03 0. -1.
         11    1    4    4    0    0  0.23202636087E-01  0.27253812938E-01  0.34239588334E-01  0.49535271992E-01  0.51100000000E-03 0.  1.
</event>
<event>
 8    1  0.1197213E+005  0.1043930E+01  0.7957747E-01            NaN
         13   -1    0    0    0    0  0.00000000000E+00  0.00000000000E+00  0.74505805969E-08  0.10566000000E+00  0.10566000000E+00 0. -1.
     999900   -1    0    0    0    0 -0.00000000000E+00 -0.00000000000E+00 -0.74505805969E-08  0.93827000000E+00  0.93827000000E+00 0. -1.
     999902    2    1    2    0    0 -0.19210634669E-01  0.12788400239E-01  0.48431763266E-02  0.10203493295E+01  0.10200768139E+01 0.  0.
     999903    2    3    3    0    0  0.59510213234E-01  0.64273502632E-01 -0.93792366824E-01  0.12985696116E+00  0.19831128777E-01 0.  0.
         14    1    1    2    0    0  0.19210634669E-01 -0.12788400239E-01 -0.48431763266E-02  0.23580670516E-01  0.00000000000E+00 0.  1.
     999901    1    3    3    0    0 -0.78720847903E-01 -0.51485102393E-01  0.98635543151E-01  0.89049236832E+00  0.88000000000E+00 0.  1.
        -11    1    4    4    0    0  0.28688660359E-01  0.23500198263E-01 -0.27626025365E-01  0.46246696640E-01  0.51100000000E-03 0.  1.
         11    1    4    4    0    0  0.30821552875E-01  0.40773304369E-01 -0.66166341459E-01  0.83610264524E-01  0.51100000000E-03 0. -1.
</event>
<event>
 8    1  0.1197213E+005  0.1043930E+01  0.7957747E-01            NaN
         13   -1    0    0    0    0  0.00000000000E+00  0.00000000000E+00  0.74505805969E-08  0.10566000000E+00  0.10566000000E+00 0.  1.
     999900   -1    0    0    0    0 -0.00000000000E+00 -0.00000000000E+00 -0.74505805969E-08  0.93827000000E+00  0.93827000000E+00 0.  1.
     999902    2    1    2    0    0  0.17069364974E-01 -0.10398386014E-01  0.13671720721E-01  0.10197141870E+01  0.10194266121E+01 0.  0.
     999903    2    3    3    0    0 -0.39187511593E-01  0.11371819261E+00 -0.37845004129E-01  0.12773675780E+00  0.20419269338E-01 0.  0.
         14    1    1    2    0    0 -0.17069364974E-01  0.10398386014E-01 -0.13671720721E-01  0.24215813011E-01  0.00000000000E+00 0. -1.
     999901    1    3    3    0    0  0.56256876567E-01 -0.12411657862E+00  0.51516724851E-01  0.89197742919E+00  0.88000000000E+00 0.  1.
        -11    1    4    4    0    0 -0.87444614831E-02  0.10272040377E-01 -0.86045258892E-02  0.16008729085E-01  0.51100000000E-03 0. -1.
         11    1    4    4    0    0 -0.30443050110E-01  0.10344615223E+00 -0.29240478240E-01  0.11172802871E+00  0.51100000000E-03 0.  1.
</event>
<event>
 8    1  0.1197213E+005  0.1043930E+01  0.7957747E-01            NaN
         13   -1    0    0    0    0  0.00000000000E+00  0.00000000000E+00  0.74505805969E-08  0.10566000000E+00  0.10566000000E+00 0.  1.
     999900   -1    0    0    0    0 -0.00000000000E+00 -0.00000000000E+00 -0.74505805969E-08  0.93827000000E+00  0.93827000000E+00 0. -1.
     999902    2    1    2    0    0  0.62090621119E-02  0.88952774211E-02 -0.21066919163E-01  0.10202341460E+01  0.10199589302E+01 0.  0.
     999903    2    3    3    0    0  0.10414676205E+00  0.63939796956E-01 -0.47628398605E-01  0.13269417262E+00  0.20110529910E-01 0.  0.
         14    1    1    2    0    0 -0.62090621119E-02 -0.88952774211E-02  0.21066919163E-01  0.23695853977E-01  0.00000000000E+00 0.  1.
     999901    1    3    3    0    0 -0.97937699937E-01 -0.55044519535E-01  0.26561479443E-01  0.88753997340E+00  0.88000000000E+00 0. -1.
        -11    1    4    4    0    0  0.24279202205E-01  0.70446491240E-02 -0.50387409307E-02  0.25782877500E-01  0.51100000000E-03 0.  1.
         11    1    4    4    0    0  0.79867559843E-01  0.56895147832E-01 -0.42589657675E-01  0.10691129512E+00  0.51100000000E-03 0. -1.
</event>
<event>
 8    1  0.1197213E+005  0.1043930E+01  0.7957747E-01            NaN
         13   -1    0    0    0    0  0.00000000000E+00  0.00000000000E+00  0.74505805969E-08  0.10566000000E+00  0.10566000000E+00 0. -1.
     999900   -1    0    0    0    0 -0.00000000000E+00 -0.00000000000E+00 -0.74505805969E-08  0.93827000000E+00  0.93827000000E+00 0. -1.
     999902    2    1    2    0    0  0.21225869830E-02 -0.23003847312E-01 -0.60267254368E-02  0.10200552479E+01  0.10197758112E+01 0.  0.
     999903    2    3    3    0    0 -0.38339279351E-01  0.40452982758E-01  0.11393701191E+00  0.12873306702E+00  0.22004901904E-01 0.  0.
         14    1    1    2    0    0 -0.21225869830E-02  0.23003847312E-01  0.60267254368E-02  0.23874752064E-01  0.00000000000E+00 0. -1.
     999901    1    3    3    0    0  0.40461866334E-01 -0.63456830070E-01 -0.11996373734E+00  0.89132218091E+00  0.88000000000E+00 0. -1.
        -11    1    4    4    0    0 -0.25761409407E-01  0.28937406110E-01  0.54320078176E-01  0.66722977309E-01  0.51100000000E-03 0. -1.
         11    1    4    4    0    0 -0.12577869945E-01  0.11515576648E-01  0.59616933731E-01  0.62010089714E-01  0.51100000000E-03 0.  1.
</event>
<event>
 8    1  0.1197213E+005  0.1043930E+01  0.7957747E-01            NaN
         13   -1    0    0    0    0  0.00000000000E+00  0.00000000000E+00  0.74505805969E-08  0.10566000000E+00  0.10566000000E+00 0.  1.
     999900   -1    0    0    0    0 -0.00000000000E+00 -0.00000000000E+00 -0.74505805969E-08  0.93827000000E+00  0.93827000000E+00 0.  1.
     999902    2    1    2    0    0 -0.89944545982E-02  0.63373338558E-02  0.20367515199E-01  0.10207805359E+01  0.10205180080E+01 0.  0.
     999903    2    3    3    0    0 -0.76560144693E-01  0.10139013554E+00  0.34702757589E-01  0.13297106490E+00  0.18319589940E-01 0.  0.
         14    1    1    2    0    0  0.89944545982E-02 -0.63373338558E-02 -0.20367515199E-01  0.23149464125E-01  0.00000000000E+00 0. -1.
     999901    1    3    3    0    0  0.67565690094E-01 -0.95052801681E-01 -0.14335242391E-01  0.88780947098E+00  0.88000000000E+00 0. -1.
        -11    1    4    4    0    0 -0.41249589679E-02  0.14260524705E-01  0.16772788377E-02  0.14948318857E-01  0.51100000000E-03 0.  1.
         11    1    4    4    0    0 -0.72435185725E-01  0.87129610832E-01  0.33025478752E-01  0.11802274604E+00  0.51100000000E-03 0. -1.
</event>
<event>
 8    1  0.1197213E+005  0.1043930E+01  0.7957747E-01            NaN
         13   -1    0    0    0    0  0.00000000000E+00  0.00000000000E+00  0.74505805969E-08  0.10566000000E+00  0.10566000000E+00 0. -1.
     999900   -1    0    0    0    0 -0.00000000000E+00 -0.00000000000E+00 -0.74505805969E-08  0.93827000000E+00  0.93827000000E+00 0. -1.
     999902    2    1    2    0    0  0.22382165062E-01  0.11973897981E-01 -0.12344051395E-01  0.10157039278E+01  0.10153116555E+01 0.  0.
     999903    2    3    3    0    0  0.22460578212E-01 -0.12071291741E+00  0.13159997012E-01  0.12539148064E+00  0.21765842343E-01 0.  0.
         14    1    1    2    0    0 -0.22382165062E-01 -0.11973897981E-01  0.12344051395E-01  0.28226072178E-01  0.00000000000E+00 0. -1.
     999901    1    3    3    0    0 -0.78413149739E-04  0.13268681539E+00 -0.25504048407E-01  0.89031244718E+00  0.88000000000E+00 0. -1.
        -11    1    4    4    0    0  0.21799353196E-01 -0.69040408865E-01  0.15220162057E-02  0.72418005429E-01  0.51100000000E-03 0. -1.
         11    1    4    4    0    0  0.66122501579E-03 -0.51672508542E-01  0.11637980806E-01  0.52973475209E-01  0.51100000000E-03 0.  1.
</event>
<event>
 8    1  0.1197213E+005  0.1043930E+01  0.7957747E-01            NaN
         13   -1    0    0    0    0  0.00000000000E+00  0.00000000000E+00  0.74505805969E-08  0.10566000000E+00  0.10566000000E+00 0. -1.
     999900   -1    0    0    0    0 -0.00000000000E+00 -0.00000000000E+00 -0.74505805969E-08  0.93827000000E+00  0.93827000000E+00 0. -1.
     999902    2    1    2    0    0 -0.22993402900E-02 -0.23346742147E-01 -0.63994307389E-02  0.10196131324E+01  0.10193231233E+01 0.  0.
     999903    2    3    3    0    0  0.81703216071E-01  0.97997079454E-04  0.98758923535E-01  0.12907151928E+00  0.15189041853E-01 0.  0.
         14    1    1    2    0    0  0.22993402900E-02  0.23346742147E-01  0.63994307389E-02  0.24316867570E-01  0.00000000000E+00 0. -1.
     999901    1    3    3    0    0 -0.84002556361E-01 -0.23444739227E-01 -0.10515835427E+00  0.89054161315E+00  0.88000000000E+00 0. -1.
        -11    1    4    4    0    0  0.58997895999E-01 -0.19727248861E-02  0.80672789400E-01  0.99965011111E-01  0.51100000000E-03 0. -1.
         11    1    4    4    0    0  0.22705320072E-01  0.20707219656E-02  0.18086134135E-01  0.29106508172E-01  0.51100000000E-03 0.  1.
</event>
<event>
 8    1  0.1197213E+005  0.1043930E+01  0.7957747E-01            NaN
         13   -1    0    0    0    0  0.00000000000E+00  0.00000000000E+00  0.74505805969E-08  0.10566000000E+00  0.10566000000E+00 0. -1.
     999900   -1    0    0    0    0 -0.00000000000E+00 -0.00000000000E+00 -0.74505805969E-08  0.93827000000E+00  0.93827000000E+00 0. -1.
     999902    2    1    2    0    0  0.18671112436E-01  0.14672317041E-01 -0.61974152846E-02  0.10193882950E+01  0.10190928323E+01 0.  0.
     999903    2    3    3    0    0 -0.11061382278E-01  0.10622760631E+00  0.73026588270E-01  0.13060101171E+00  0.17806828659E-01 0.  0.
         14    1    1    2    0    0 -0.18671112436E-01 -0.14672317041E-01  0.61974152846E-02  0.24541704977E-01  0.00000000000E+00 0. -1.
     999901    1    3    3    0    0  0.29732494714E-01 -0.91555289264E-01 -0.79224003554E-01  0.88878728331E+00  0.88000000000E+00 0. -1.
        -11    1    4    4    0    0 -0.10387070806E-01  0.10143501190E+00  0.73522547664E-01  0.12570910474E+00  0.51100000000E-03 0. -1.
         11    1    4    4    0    0 -0.67431147193E-03  0.47925944048E-02 -0.49595939369E-03  0.48919069707E-02  0.51100000000E-03 0.  1.
</event>
<event>
 8    1  0.1197213E+005  0.1043930E+01  0.7957747E-01            NaN
         13   -1    0    0    0    0  0.00000000000E+00  0.00000000000E+00  0.74505805969E-08  0.10566000000E+00  0.10566000000E+00 0.  1.
     999900   -1    0    0    0    0 -0.00000000000E+00 -0.00000000000E+00 -0.74505805969E-08  0.93827000000E+00  0.93827000000E+00 0. -1.
     999902    2    1    2    0    0  0.10155595170E-02 -0.26335825406E-01 -0.10558206215E-01  0.10155384030E+01  0.10151414508E+01 0.  0.
     999903    2    3    3    0    0 -0.52451545594E-01 -0.10804334689E+00 -0.44188424734E-01  0.12949898967E+00  0.19820242258E-01 0.  0.
         14    1    1    2    0    0 -0.10155595170E-02  0.26335825406E-01  0.10558206215E-01  0.28391596986E-01  0.00000000000E+00 0.  1.
     999901    1    3    3    0    0  0.53467105111E-01  0.81707521486E-01  0.33630218519E-01  0.88603941334E+00  0.88000000000E+00 0.  1.
        -11    1    4    4    0    0 -0.46717134945E-01 -0.85340848813E-01 -0.28764865218E-01  0.10145555562E+00  0.51100000000E-03 0.  1.
         11    1    4    4    0    0 -0.57344106491E-02 -0.22702498078E-01 -0.15423559516E-01  0.28043434056E-01  0.51100000000E-03 0. -1.
</event>
<event>
 8    1  0.1197213E+005  0.1043930E+01  0.7957747E-01            NaN
         13   -1    0    0    0    0  0.00000000000E+00  0.00000000000E+00  0.74505805969E-08  0.10566000000E+00  0.10566000000E+00 0. -1.
     999900   -1    0    0    0    0 -0.00000000000E+00 -0.00000000000E+00 -0.74505805969E-08  0.93827000000E+00  0.93827000000E+00 0. -1.
     999902    2    1    2    0    0  0.81856161587E-02  0.22811246403E-01 -0.14800670008E-02  0.10196493931E+01  0.10193602587E+01 0.  0.
     999903    2    3    3    0    0  0.97828307458E-01  0.22566772693E-02  0.84170636684E-01  0.13072063020E+00  0.20681314000E-01 0.  0.
         14    1    1    2    0    0 -0.81856161587E-02 -0.22811246403E-01  0.14800670008E-02  0.24280606926E-01  0.00000000000E+00 0. -1.
     999901    1    3    3    0    0 -0.89642691299E-01  0.20554569134E-01 -0.85650703685E-01  0.88892876287E+00  0.88000000000E+00 0.  1.
        -11    1    4    4    0    0  0.42650449284E-01  0.14000233131E-02  0.23553052090E-01  0.48744520442E-01  0.51100000000E-03 0. -1.
         11    1    4    4    0    0  0.55177858175E-01  0.85665395612E-03  0.60617584594E-01  0.81976109762E-01  0.51100000000E-03 0.  1.
</event>
<event>
 8    1  0.1197213E+005  0.1043930E+01  0.7957747E-01            NaN
         13   -1    0    0    0    0  0.00000000000E+00  0.00000000000E+00  0.74505805969E-08  0.10566000000E+00  0.10566000000E+00 0.  1.
     999900   -1    0    0    0    0 -0.00000000000E+00 -0.00000000000E+00 -0.74505805969E-08  0.93827000000E+00  0.93827000000E+00 0. -1.
     999902    2    1    2    0    0  0.14866930582E-01  0.13600371009E-01  0.10100108213E-01  0.10213909694E+01  0.10211422547E+01 0.  0.
     999903    2    3    3    0    0  0.83841405053E-01 -0.62951738468E-01  0.78509718710E-01  0.13274166935E+00  0.21546978260E-01 0.  0.
         14    1    1    2    0    0 -0.14866930582E-01 -0.13600371009E-01 -0.10100108213E-01  0.22539030645E-01  0.00000000000E+00 0. -1.
     999901    1    3    3    0    0 -0.68974474471E-01  0.76552109477E-01 -0.68409610497E-01  0.88864930001E+00  0.88000000000E+00 0. -1.
        -11    1    4    4    0    0  0.32506999432E-01 -0.11972089552E-01  0.23715628228E-01  0.41984855407E-01  0.51100000000E-03 0.  1.
         11    1    4    4    0    0  0.51334405621E-01 -0.50979648916E-01  0.54794090482E-01  0.90756813942E-01  0.51100000000E-03 0. -1.
</event>
<event>
 8    1  0.1197213E+005  0.1043930E+01  0.7957747E-01            NaN
         13   -1    0    0    0    0  0.00000000000E+00  0.00000000000E+00  0.74505805969E-08  0.10566000000E+00  0.10566000000E+00 0.  1.
     999900   -1    0    0    0    0 -0.00000000000E+00 -0.00000000000E+00 -0.74505805969E-08  0.93827000000E+00  0.93827000000E+00 0.  1.
     999902    2    1    2    0    0 -0.12140667015E-01 -0.20136915325E-01 -0.10533565747E-02  0.10203927802E+01  0.10201212797E+01 0.  0.
     999903    2    3    3    0    0  0.21121734473E-02  0.80950073830E-03 -0.12934949404E+00  0.13072891410E+00  0.18805339785E-01 0.  0.
         14    1    1    2    0    0  0.12140667015E-01  0.20136915325E-01  0.10533565747E-02  0.23537219769E-01  0.00000000000E+00 0. -1.
     999901    1    3    3    0    0 -0.14252840462E-01 -0.20946416063E-01  0.12829613747E+00  0.88966386613E+00  0.88000000000E+00 0. -1.
        -11    1    4    4    0    0 -0.42881999229E-02  0.77791766783E-02 -0.78623185858E-01  0.79125032220E-01  0.51100000000E-03 0. -1.
         11    1    4    4    0    0  0.64003733702E-02 -0.69696759400E-02 -0.50726308187E-01  0.51603881881E-01  0.51100000000E-03 0.  1.
</event>
<event>
 8    1  0.1197213E+005  0.1043930E+01  0.7957747E-01            NaN
         13   -1    0    0    0    0  0.00000000000E+00  0.00000000000E+00  0.74505805969E-08  0.10566000000E+00  0.10566000000E+00 0.  1.
     999900   -1    0    0    0    0 -0.00000000000E+00 -0.00000000000E+00 -0.74505805969E-08  0.93827000000E+00  0.93827000000E+00 0. -1.
     999902    2    1    2    0    0 -0.54629546120E-02  0.26996713587E-01 -0.25589503608E-02  0.10162674867E+01  0.10158909340E+01 0.  0.
     999903    2    3    3    0    0  0.33244356050E-01  0.12418653028E+00 -0.62276570663E-03  0.13006893939E+00  0.19749927709E-01 0.  0.
         14    1    1    2    0    0  0.54629546120E-02 -0.26996713587E-01  0.25589503608E-02  0.27662513345E-01  0.00000000000E+00 0.  1.
     999901    1    3    3    0    0 -0.38707310662E-01 -0.97189816692E-01 -0.19361846541E-02  0.88619854727E+00  0.88000000000E+00 0.  1.
        -11    1    4    4    0    0  0.24691559688E-01  0.72678806674E-01  0.78875338675E-02  0.77164476094E-01  0.51100000000E-03 0. -1.
         11    1    4    4    0    0  0.85527963620E-02  0.51507723605E-01 -0.85102995741E-02  0.52904463294E-01  0.51100000000E-03 0.  1.
</event>
<event>
 7    1  0.1197213E+005  0.1043930E+01  0.7957747E-01            NaN
         13   -1    0    0    0    0  0.00000000000E+00  0.00000000000E+00  0.74505805969E-08  0.10566000000E+00  0.10566000000E+00 0. -1.
     999900   -1    0    0    0    0 -0.00000000000E+00 -0.00000000000E+00 -0.74505805969E-08  0.93827000000E+00  0.93827000000E+00 0. -1.
     999903    2    1    2    0    0  0.83438085888E-01 -0.28555734468E-01  0.75440879171E-01  0.11774434658E+00  0.19876135283E-01 0.  0.
         14    1    1    2    0    0  0.10706706573E-01  0.93689209503E-02 -0.37539548570E-01  0.40145086278E-01  0.00000000000E+00 0.  1.
     999901    1    1    2    0    0 -0.94144792461E-01  0.19186813518E-01 -0.37901330601E-01  0.88604056714E+00  0.88000000000E+00 0. -1.
        -11    1    3    3    0    0  0.58156634910E-01 -0.28668062312E-01  0.58291613845E-01  0.87190741173E-01  0.51100000000E-03 0.  1.
         11    1    3    3    0    0  0.25281450978E-01  0.11232784375E-03  0.17149265326E-01  0.30553605407E-01  0.51100000000E-03 0. -1.
</event>
<event>
 8    1  0.1197213E+005  0.1043930E+01  0.7957747E-01            NaN
         13   -1    0    0    0    0  0.00000000000E+00  0.00000000000E+00  0.74505805969E-08  0.10566000000E+00  0.10566000000E+00 0.  1.
     999900   -1    0    0    0    0 -0.00000000000E+00 -0.00000000000E+00 -0.74505805969E-08  0.93827000000E+00  0.93827000000E+00 0. -1.
     999902    2    1    2    0    0 -0.22568672342E-01 -0.41769564353E-02 -0.65737686844E-02  0.10200551938E+01  0.10197757558E+01 0.  0.
     999903    2    3    3    0    0 -0.10908188326E+00  0.34047328601E-01 -0.65154468569E-01  0.13305049819E+00  0.19981302651E-01 0.  0.
         14    1    1    2    0    0  0.22568672342E-01  0.41769564353E-02  0.65737686844E-02  0.23874806199E-01  0.00000000000E+00 0. -1.
     999901    1    3    3    0    0  0.86513210914E-01 -0.38224285037E-01  0.58580699884E-01  0.88700469561E+00  0.88000000000E+00 0.  1.
        -11    1    4    4    0    0 -0.84880122948E-01  0.20087606464E-01 -0.55956526085E-01  0.10363175738E+00  0.51100000000E-03 0. -1.
         11    1    4    4    0    0 -0.24201760308E-01  0.13959722137E-01 -0.91979424835E-02  0.29418740814E-01  0.51100000000E-03 0.  1.
</event>
<event>
 8    1  0.1197213E+005  0.1043930E+01  0.7957747E-01            NaN
         13   -1    0    0    0    0  0.00000000000E+00  0.00000000000E+00  0.74505805969E-08  0.10566000000E+00  0.10566000000E+00 0. -1.
     999900   -1    0    0    0    0 -0.00000000000E+00 -0.00000000000E+00 -0.74505805969E-08  0.93827000000E+00  0.93827000000E+00 0. -1.
     999902    2    1    2    0    0  0.20735398876E-01  0.12224410230E-01 -0.12569575249E-01  0.10167751258E+01  0.10164124503E+01 0.  0.
     999903    2    3    3    0    0 -0.98372005529E-01  0.76272802124E-01 -0.10178688782E-01  0.12644120717E+00  0.19727679788E-01 0.  0.
         14    1    1    2    0    0 -0.20735398876E-01 -0.12224410230E-01  0.12569575249E-01  0.27154874221E-01  0.00000000000E+00 0.  1.
     999901    1    3    3    0    0  0.11910740440E+00 -0.64048391894E-01 -0.23908864669E-02  0.89033391861E+00  0.88000000000E+00 0.  1.
        -11    1    4    4    0    0 -0.54692221059E-01  0.33818081231E-01 -0.12383396891E-01  0.65486726152E-01  0.51100000000E-03 0.  1.
         11    1    4    4    0    0 -0.43679784470E-01  0.42454720892E-01  0.22047081093E-02  0.60954481018E-01  0.51100000000E-03 0. -1.
</event>
<event>
 8    1  0.1197213E+005  0.1043930E+01  0.7957747E-01            NaN
         13   -1    0    0    0    0  0.00000000000E+00  0.00000000000E+00  0.74505805969E-08  0.10566000000E+00  0.10566000000E+00 0. -1.
     999900   -1    0    0    0    0 -0.00000000000E+00 -0.00000000000E+00 -0.74505805969E-08  0.93827000000E+00  0.93827000000E+00 0.  1.
     999902    2    1    2    0    0 -0.28577360977E-02  0.19531744314E-01  0.13200911214E-01  0.10201830055E+01  0.10199065864E+01 0.  0.
     999903    2    3    3    0    0 -0.11699181111E+00 -0.51799217823E-01 -0.82552500120E-02  0.12969153439E+00  0.19532078902E-01 0.  0.
         14    1    1    2    0    0  0.28577360977E-02 -0.19531744314E-01 -0.13200911214E-01  0.23746994514E-01  0.00000000000E+00 0. -1.
     999901    1    3    3    0    0  0.11413407501E+00  0.71330962137E-01  0.21456161226E-01  0.89049147109E+00  0.88000000000E+00 0. -1.
        -11    1    4    4    0    0 -0.35144824986E-01 -0.20722726158E-01  0.51328129544E-02  0.41124165555E-01  0.51100000000E-03 0. -1.
         11    1    4    4    0    0 -0.81846986123E-01 -0.31076491664E-01 -0.13388062966E-01  0.88567368837E-01  0.51100000000E-03 0.  1.
</event>
<event>
 8    1  0.1197213E+005  0.1043930E+01  0.7957747E-01            NaN
         13   -1    0    0    0    0  0.00000000000E+00  0.00000000000E+00  0.74505805969E-08  0.10566000000E+00  0.10566000000E+00 0. -1.
     999900   -1    0    0    0    0 -0.00000000000E+00 -0.00000000000E+00 -0.74505805969E-08  0.93827000000E+00  0.93827000000E+00 0. -1.
     999902    2    1    2    0    0  0.10827418966E-01 -0.21218032108E-01 -0.20373255104E-02  0.10200220812E+01  0.10197418583E+01 0.  0.
     999903    2    3    3    0    0  0.15086962088E-01 -0.12508885800E+00 -0.38404267620E-01  0.13315690163E+00  0.19520088622E-01 0.  0.
         14    1    1    2    0    0 -0.10827418966E-01  0.21218032108E-01  0.20373255104E-02  0.23907918840E-01  0.00000000000E+00 0.  1.
     999901    1    3    3    0    0 -0.42595431219E-02  0.10387082589E+00  0.36366942110E-01  0.88686517953E+00  0.88000000000E+00 0.  1.
        -11    1    4    4    0    0  0.13467983041E-01 -0.61995901792E-01 -0.11186902610E-01  0.64422715848E-01  0.51100000000E-03 0.  1.
         11    1    4    4    0    0  0.16189790466E-02 -0.63092956210E-01 -0.27217365010E-01  0.68734185785E-01  0.51100000000E-03 0. -1.
</event>
<event>
 8    1  0.1197213E+005  0.1043930E+01  0.7957747E-01            NaN
         13   -1    0    0    0    0  0.00000000000E+00  0.00000000000E+00  0.74505805969E-08  0.10566000000E+00  0.10566000000E+00 0.  1.
     999900   -1    0    0    0    0 -0.00000000000E+00 -0.00000000000E+00 -0.74505805969E-08  0.93827000000E+00  0.93827000000E+00 0.  1.
     999902    2    1    2    0    0 -0.17489492196E-01 -0.15726238396E-01 -0.50710392061E-02  0.10198694025E+01  0.10195855461E+01 0.  0.
     999903    2    3    3    0    0  0.55041741508E-01  0.64131409041E-01 -0.94754635447E-01  0.12875708013E+00  0.21389572498E-01 0.  0.
         14    1    1    2    0    0  0.17489492196E-01  0.15726238396E-01  0.50710392061E-02  0.24060597457E-01  0.00000000000E+00 0. -1.
     999901    1    3    3    0    0 -0.72531233704E-01 -0.79857647437E-01  0.89683596241E-01  0.89111232241E+00  0.88000000000E+00 0. -1.
        -11    1    4    4    0    0  0.24260128108E-01  0.13165416076E-01 -0.31553336847E-01  0.41925602958E-01  0.51100000000E-03 0. -1.
         11    1    4    4    0    0  0.30781613401E-01  0.50965992965E-01 -0.63201298601E-01  0.86831477174E-01  0.51100000000E-03 0.  1.
</event>
<event>
 8    1  0.1197213E+005  0.1043930E+01  0.7957747E-01            NaN
         13   -1    0    0    0    0  0.00000000000E+00  0.00000000000E+00  0.74505805969E-08  0.10566000000E+00  0.10566000000E+00 0.  1.
     999900   -1    0    0    0    0 -0.00000000000E+00 -0.00000000000E+00 -0.74505805969E-08  0.93827000000E+00  0.93827000000E+00 0. -1.
     999902    2    1    2    0    0 -0.17791455358E-02 -0.21433350333E-01  0.97122514004E-02  0.10203316591E+01  0.10200587301E+01 0.  0.
     999903    2    3    3    0    0  0.11066474731E+00  0.48086781123E-01 -0.40806736070E-01  0.12902427902E+00  0.20568180569E-01 0.  0.
         14    1    1    2    0    0  0.17791455358E-02  0.21433350333E-01 -0.97122514004E-02  0.23598340886E-01  0.00000000000E+00 0. -1.
     999901    1    3    3    0    0 -0.11244389285E+00 -0.69520131456E-01  0.50518987470E-01  0.89130738009E+00  0.88000000000E+00 0.  1.
        -11    1    4    4    0    0  0.10302254916E+00  0.46171945284E-01 -0.43034432418E-01  0.12082101498E+00  0.51100000000E-03 0. -1.
         11    1    4    4    0    0  0.76421981489E-02  0.19148358388E-02  0.22276963483E-02  0.82032640367E-02  0.51100000000E-03 0.  1.
</event>
<event>
 8    1  0.1197213E+005  0.1043930E+01  0.7957747E-01            NaN
         13   -1    0    0    0    0  0.00000000000E+00  0.00000000000E+00  0.74505805969E-08  0.10566000000E+00  0.10566000000E+00 0. -1.
     999900   -1    0    0    0    0 -0.00000000000E+00 -0.00000000000E+00 -0.74505805969E-08  0.93827000000E+00  0.93827000000E+00 0.  1.
     999902    2    1    2    0    0 -0.71630003655E-02  0.18421542493E-01  0.12174194015E-01  0.10207163660E+01  0.10204523639E+01 0.  0.
     999903    2    3    3    0    0  0.97633488191E-02  0.69738154578E-01 -0.10763597805E+00  0.13095551428E+00  0.24598978993E-01 0.  0.
         14    1    1    2    0    0  0.71630003655E-02 -0.18421542493E-01 -0.12174194015E-01  0.23213633968E-01  0.00000000000E+00 0.  1.
     999901    1    3    3    0    0 -0.16926349185E-01 -0.51316612084E-01  0.11981017206E+00  0.88976085175E+00  0.88000000000E+00 0. -1.
        -11    1    4    4    0    0  0.98468371722E-02  0.33196536611E-01 -0.32917709910E-01  0.47778729493E-01  0.51100000000E-03 0.  1.
         11    1    4    4    0    0 -0.83488353075E-04  0.36541617967E-01 -0.74718268137E-01  0.83176784792E-01  0.51100000000E-03 0. -1.
</event>
<event>
 8    1  0.1197213E+005  0.1043930E+01  0.7957747E-01            NaN
         13   -1    0    0    0    0  0.00000000000E+00  0.00000000000E+00  0.74505805969E-08  0.10566000000E+00  0.10566000000E+00 0. -1.
     999900   -1    0    0    0    0 -0.00000000000E+00 -0.00000000000E+00 -0.74505805969E-08  0.93827000000E+00  0.93827000000E+00 0.  1.
     999902    2    1    2    0    0 -0.18523707675E-01 -0.12096056452E-01 -0.80702746734E-02  0.10203806548E+01  0.10201088711E+01 0.  0.
     999903    2    3    3    0    0 -0.73780051264E-02  0.83587338179E-01 -0.98062187792E-01  0.13056152532E+00  0.19719055673E-01 0.  0.
         14    1    1    2    0    0  0.18523707675E-01  0.12096056452E-01  0.80702746734E-02  0.23549345236E-01  0.00000000000E+00 0. -1.
     999901    1    3    3    0    0 -0.11145702549E-01 -0.95683394631E-01  0.89991913118E-01  0.88981912944E+00  0.88000000000E+00 0. -1.
        -11    1    4    4    0    0 -0.51332915965E-02  0.46670535279E-02 -0.52837653426E-02  0.87356378383E-02  0.51100000000E-03 0. -1.
         11    1    4    4    0    0 -0.22447135299E-02  0.78920284651E-01 -0.92778422449E-01  0.12182588748E+00  0.51100000000E-03 0.  1.
</event>
<event>
 8    1  0.1197213E+005  0.1043930E+01  0.7957747E-01            NaN
         13   -1    0    0    0    0  0.00000000000E+00  0.00000000000E+00  0.74505805969E-08  0.10566000000E+00  0.10566000000E+00 0. -1.
     999900   -1    0    0    0    0 -0.00000000000E+00 -0.00000000000E+00 -0.74505805969E-08  0.93827000000E+00  0.93827000000E+00 0.  1.
     999902    2    1    2    0    0 -0.20853012773E-01 -0.14807447839E-01 -0.40184603350E-02  0.10180406841E+01  0.10177114413E+01 0.  0.
     999903    2    3    3    0    0 -0.42202820749E-01 -0.78127013206E-01  0.93066023033E-01  0.13018338783E+00  0.20038002725E-01 0.  0.
         14    1    1    2    0    0  0.20853012773E-01  0.14807447839E-01  0.40184603350E-02  0.25889315879E-01  0.00000000000E+00 0. -1.
     999901    1    3    3    0    0  0.21349807977E-01  0.63319565367E-01 -0.97084483368E-01  0.88785729629E+00  0.88000000000E+00 0.  1.
        -11    1    4    4    0    0 -0.43838959221E-01 -0.71150342386E-01  0.82728150486E-01  0.11759436029E+00  0.51100000000E-03 0. -1.
         11    1    4    4    0    0  0.16361384711E-02 -0.69766708195E-02  0.10337872547E-01  0.12589027549E-01  0.51100000000E-03 0.  1.
</event>
<event>
 8    1  0.1197213E+005  0.1043930E+01  0.7957747E-01            NaN
         13   -1    0    0    0    0  0.00000000000E+00  0.00000000000E+00  0.74505805969E-08  0.10566000000E+00  0.10566000000E+00 0. -1.
     999900   -1    0    0    0    0 -0.00000000000E+00 -0.00000000000E+00 -0.74505805969E-08  0.93827000000E+00  0.93827000000E+00 0. -1.
     999902    2    1    2    0    0  0.12943376771E-01 -0.10604358026E-02 -0.22334414740E-01  0.10180943346E+01  0.10177664725E+01 0.  0.
     999903    2    3    3    0    0  0.12306346562E+00  0.35335588047E-01  0.13157463468E-01  0.12977526017E+00  0.16591532613E-01 0.  0.
         14    1    1    2    0    0 -0.12943376771E-01  0.10604358026E-02  0.22334414740E-01  0.25835665428E-01  0.00000000000E+00 0. -1.
     999901    1    3    3    0    0 -0.11012008885E+00 -0.36396023849E-01 -0.35491878207E-01  0.88831907440E+00  0.88000000000E+00 0. -1.
        -11    1    4    4    0    0  0.60902053904E-01  0.20120507830E-01  0.14510424031E-01  0.65762516160E-01  0.51100000000E-03 0.  1.
         11    1    4    4    0    0  0.62161411719E-01  0.15215080217E-01 -0.13529605638E-02  0.64012744014E-01  0.51100000000E-03 0. -1.
</event>
<event>
 8    1  0.1197213E+005  0.1043930E+01  0.7957747E-01            NaN
         13   -1    0    0    0    0  0.00000000000E+00  0.00000000000E+00  0.74505805969E-08  0.10566000000E+00  0.10566000000E+00 0. -1.
     999900   -1    0    0    0    0 -0.00000000000E+00 -0.00000000000E+00 -0.74505805969E-08  0.93827000000E+00  0.93827000000E+00 0. -1.
     999902    2    1    2    0    0  0.17262708237E-01  0.97840014982E-03  0.10435251553E-01  0.10237346333E+01  0.10235354154E+01 0.  0.
     999903    2    3    3    0    0  0.12980310350E+00  0.29920631951E-01  0.18915298477E-01  0.13605512773E+00  0.20226699480E-01 0.  0.
         14    1    1    2    0    0 -0.17262708237E-01 -0.97840014982E-03 -0.10435251553E-01  0.20195366733E-01  0.00000000000E+00 0.  1.
     999901    1    3    3    0    0 -0.11254039526E+00 -0.28942231801E-01 -0.84800469243E-02  0.88767950553E+00  0.88000000000E+00 0.  1.
        -11    1    4    4    0    0  0.22357248168E-01  0.23886836226E-02  0.10492439833E-01  0.24817428749E-01  0.51100000000E-03 0. -1.
         11    1    4    4    0    0  0.10744585533E+00  0.27531948328E-01  0.84228586443E-02  0.11123769898E+00  0.51100000000E-03 0.  1.
</event>
<event>
 8    1  0.1197213E+005  0.1043930E+01  0.7957747E-01            NaN
         13   -1    0    0    0    0  0.00000000000E+00  0.00000000000E+00  0.74505805969E-08  0.10566000000E+00  0.10566000000E+00 0.  1.
     999900   -1    0    0    0    0 -0.00000000000E+00 -0.00000000000E+00 -0.74505805969E-08  0.93827000000E+00  0.93827000000E+00 0. -1.
     999902    2    1    2    0    0  0.35407600742E-02 -0.23042761559E-01 -0.61565189976E-03  0.10206086606E+01  0.10203421746E+01 0.  0.
     999903    2    3    3    0    0 -0.11325384259E+00 -0.64231818545E-01 -0.87008495468E-02  0.13190010996E+00  0.19229530717E-01 0.  0.
         14    1    1    2    0    0 -0.35407600742E-02  0.23042761559E-01  0.61565189976E-03  0.23321339358E-01  0.00000000000E+00 0. -1.
     999901    1    3    3    0    0  0.11679460266E+00  0.41189056986E-01  0.80851976470E-02  0.88870855068E+00  0.88000000000E+00 0.  1.
        -11    1    4    4    0    0 -0.45690417648E-01 -0.15506522632E-01 -0.13050664105E-02  0.48270392875E-01  0.51100000000E-03 0.  1.
         11    1    4    4    0    0 -0.67563424939E-01 -0.48725295914E-01 -0.73957831362E-02  0.83629717090E-01  0.51100000000E-03 0. -1.
</event>
<event>
 8    1  0.1197213E+005  0.1043930E+01  0.7957747E-01            NaN
         13   -1    0    0    0    0  0.00000000000E+00  0.00000000000E+00  0.74505805969E-08  0.10566000000E+00  0.10566000000E+00 0.  1.
     999900   -1    0    0    0    0 -0.00000000000E+00 -0.00000000000E+00 -0.74505805969E-08  0.93827000000E+00  0.93827000000E+00 0.  1.
     999902    2    1    2    0    0 -0.22071750298E-01 -0.45377447363E-02  0.52575360245E-02  0.10207913965E+01  0.10205291177E+01 0.  0.
     999903    2    3    3    0    0  0.40134796505E-01 -0.99418809060E-01  0.72686381330E-01  0.13094943296E+00  0.19223487633E-01 0.  0.
         14    1    1    2    0    0  0.22071750298E-01  0.45377447363E-02 -0.52575360245E-02  0.23138603535E-01  0.00000000000E+00 0. -1.
     999901    1    3    3    0    0 -0.62206546803E-01  0.94881064323E-01 -0.67428845306E-01  0.88984196350E+00  0.88000000000E+00 0. -1.
        -11    1    4    4    0    0  0.27312364383E-01 -0.72506038392E-01  0.62147357881E-01  0.99325958662E-01  0.51100000000E-03 0.  1.
         11    1    4    4    0    0  0.12822432122E-01 -0.26912770667E-01  0.10539023449E-01  0.31623474299E-01  0.51100000000E-03 0. -1.
</event>
<event>
 8    1  0.1197213E+005  0.1043930E+01  0.7957747E-01            NaN
         13   -1    0    0    0    0  0.00000000000E+00  0.00000000000E+00  0.74505805969E-08  0.10566000000E+00  0.10566000000E+00 0. -1.
     999900   -1    0    0    0    0 -0.00000000000E+00 -0.00000000000E+00 -0.74505805969E-08  0.93827000000E+00  0.93827000000E+00 0.  1.
     999902    2    1    2    0    0  0.11594707749E-01 -0.13383818138E-01 -0.14920190821E-01  0.10207745270E+01  0.10205118613E+01 0.  0.
     999903    2    3    3    0    0  0.11773046557E+00  0.23865335902E-01 -0.53035641720E-01  0.13279643821E+00  0.19801462764E-01 0.  0.
         14    1    1    2    0    0 -0.11594707749E-01  0.13383818138E-01  0.14920190821E-01  0.23155473001E-01  0.00000000000E+00 0. -1.
     999901    1    3    3    0    0 -0.10613575783E+00 -0.37249154040E-01  0.38115450898E-01  0.88797808879E+00  0.88000000000E+00 0. -1.
        -11    1    4    4    0    0  0.51347481458E-01  0.17312479691E-01 -0.31594841700E-01  0.62727832325E-01  0.51100000000E-03 0.  1.
         11    1    4    4    0    0  0.66382984117E-01  0.65528562109E-02 -0.21440800019E-01  0.70068605889E-01  0.51100000000E-03 0. -1.
</event>
<event>
 8    1  0.1197213E+005  0.1043930E+01  0.7957747E-01            NaN
         13   -1    0    0    0    0  0.00000000000E+00  0.00000000000E+00  0.74505805969E-08  0.10566000000E+00  0.10566000000E+00 0.  1.
     999900   -1    0    0    0    0 -0.00000000000E+00 -0.00000000000E+00 -0.74505805969E-08  0.93827000000E+00  0.93827000000E+00 0.  1.
     999902    2    1    2    0    0 -0.10943255404E-01  0.14830157477E-01  0.15221911240E-01  0.10200261302E+01  0.10197460033E+01 0.  0.
     999903    2    3    3    0    0  0.99806233050E-01 -0.67863483818E-01  0.40457269557E-01  0.12888051314E+00  0.20165798138E-01 0.  0.
         14    1    1    2    0    0  0.10943255404E-01 -0.14830157477E-01 -0.15221911240E-01  0.23903869800E-01  0.00000000000E+00 0.  1.
     999901    1    3    3    0    0 -0.11074948845E+00  0.82693641295E-01 -0.25235358318E-01  0.89114561706E+00  0.88000000000E+00 0. -1.
        -11    1    4    4    0    0  0.57175361232E-01 -0.28505681815E-01  0.15659972954E-01  0.65780633180E-01  0.51100000000E-03 0. -1.
         11    1    4    4    0    0  0.42630871818E-01 -0.39357802004E-01  0.24797296604E-01  0.63099879956E-01  0.51100000000E-03 0.  1.
</event>
<event>
 8    1  0.1197213E+005  0.1043930E+01  0.7957747E-01            NaN
         13   -1    0    0    0    0  0.00000000000E+00  0.00000000000E+00  0.74505805969E-08  0.10566000000E+00  0.10566000000E+00 0. -1.
     999900   -1    0    0    0    0 -0.00000000000E+00 -0.00000000000E+00 -0.74505805969E-08  0.93827000000E+00  0.93827000000E+00 0.  1.
     999902    2    1    2    0    0  0.15464017794E-01  0.16985792110E-01 -0.32372175145E-02  0.10207323157E+01  0.10204686804E+01 0.  0.
     999903    2    3    3    0    0 -0.32041542440E-01  0.12007228010E+00 -0.41586550073E-01  0.13261392631E+00  0.20322387010E-01 0.  0.
         14    1    1    2    0    0 -0.15464017794E-01 -0.16985792110E-01  0.32372175145E-02  0.23197684306E-01  0.00000000000E+00 0.  1.
     999901    1    3    3    0    0  0.47505560233E-01 -0.10308648799E+00  0.38349332559E-01  0.88811838939E+00  0.88000000000E+00 0.  1.
        -11    1    4    4    0    0  0.20503929825E-02  0.15353587440E-01 -0.22027955773E-02  0.15654078958E-01  0.51100000000E-03 0. -1.
         11    1    4    4    0    0 -0.34091935422E-01  0.10471869266E+00 -0.39383754496E-01  0.11695984735E+00  0.51100000000E-03 0.  1.
</event>
<event>
 8    1  0.1197213E+005  0.1043930E+01  0.7957747E-01            NaN
         13   -1    0    0    0    0  0.00000000000E+00  0.00000000000E+00  0.74505805969E-08  0.10566000000E+00  0.10566000000E+00 0.  1.
     999900   -1    0    0    0    0 -0.00000000000E+00 -0.00000000000E+00 -0.74505805969E-08  0.93827000000E+00  0.93827000000E+00 0. -1.
     999902    2    1    2    0    0 -0.75710619378E-02 -0.11887255019E-01  0.18958678610E-01  0.10203067211E+01  0.10200332082E+01 0.  0.
     999903    2    3    3    0    0  0.23858476215E-01 -0.11035514793E+00 -0.62481629266E-01  0.13052232838E+00  0.19612206610E-01 0.  0.
         14    1    1    2    0    0  0.75710619378E-02  0.11887255019E-01 -0.18958678610E-01  0.23623278887E-01  0.00000000000E+00 0. -1.
     999901    1    3    3    0    0 -0.31429538153E-01  0.98467892911E-01  0.81440307876E-01  0.88978439273E+00  0.88000000000E+00 0.  1.
        -11    1    4    4    0    0  0.16108101836E-01 -0.32746838190E-01 -0.22499787675E-01  0.42875726497E-01  0.51100000000E-03 0. -1.
         11    1    4    4    0    0  0.77503743787E-02 -0.77608309740E-01 -0.39981841591E-01  0.87646601884E-01  0.51100000000E-03 0.  1.
</event>
<event>
 8    1  0.1197213E+005  0.1043930E+01  0.7957747E-01            NaN
         13   -1    0    0    0    0  0.00000000000E+00  0.00000000000E+00  0.74505805969E-08  0.10566000000E+00  0.10566000000E+00 0. -1.
     999900   -1    0    0    0    0 -0.00000000000E+00 -0.00000000000E+00 -0.74505805969E-08  0.93827000000E+00  0.93827000000E+00 0. -1.
     999902    2    1    2    0    0  0.23605373198E-01 -0.30959208420E-02 -0.38193091573E-03  0.10201194091E+01  0.10198414899E+01 0.  0.
     999903    2    3    3    0    0 -0.87952621228E-01  0.65856136538E-01  0.62921056306E-01  0.12815144970E+00  0.19774742286E-01 0.  0.
         14    1    1    2    0    0 -0.23605373198E-01  0.30959208420E-02  0.38193091573E-03  0.23810590940E-01  0.00000000000E+00 0.  1.
     999901    1    3    3    0    0  0.11155799443E+00 -0.68952057380E-01 -0.63302987222E-01  0.89196795936E+00  0.88000000000E+00 0. -1.
        -11    1    4    4    0    0 -0.49984724372E-01  0.36510537449E-01  0.24105140315E-01  0.66428991607E-01  0.51100000000E-03 0. -1.
         11    1    4    4    0    0 -0.37967896856E-01  0.29345599089E-01  0.38815915991E-01  0.61722458091E-01  0.51100000000E-03 0.  1.
</event>
<event>
 8    1  0.1197213E+005  0.1043930E+01  0.7957747E-01            NaN
         13   -1    0    0    0    0  0.00000000000E+00  0.00000000000E+00  0.74505805969E-08  0.10566000000E+00  0.10566000000E+00 0. -1.
     999900   -1    0    0    0    0 -0.00000000000E+00 -0.00000000000E+00 -0.74505805969E-08  0.93827000000E+00  0.93827000000E+00 0. -1.
     999902    2    1    2    0    0 -0.23641335713E-01  0.25912717866E-02 -0.48481728695E-03  0.10201421356E+01  0.10198647530E+01 0.  0.
     999903    2    3    3    0    0 -0.11538742583E+00  0.49483184654E-01  0.39307379028E-01  0.13323762248E+00  0.21079620357E-01 0.  0.
         14    1    1    2    0    0  0.23641335713E-01 -0.25912717866E-02  0.48481728695E-03  0.23787864376E-01  0.00000000000E+00 0.  1.
     999901    1    3    3    0    0  0.91746090121E-01 -0.46891912868E-01 -0.39792196315E-01  0.88690451314E+00  0.88000000000E+00 0. -1.
        -11    1    4    4    0    0 -0.48640047531E-01  0.12054591460E-01  0.22256638211E-01  0.54834172416E-01  0.51100000000E-03 0. -1.
         11    1    4    4    0    0 -0.66747378302E-01  0.37428593194E-01  0.17050740818E-01  0.78403450065E-01  0.51100000000E-03 0.  1.
</event>
<event>
 8    1  0.1197213E+005  0.1043930E+01  0.7957747E-01            NaN
         13   -1    0    0    0    0  0.00000000000E+00  0.00000000000E+00  0.74505805969E-08  0.10566000000E+00  0.10566000000E+00 0. -1.
     999900   -1    0    0    0    0 -0.00000000000E+00 -0.00000000000E+00 -0.74505805969E-08  0.93827000000E+00  0.93827000000E+00 0.  1.
     999902    2    1    2    0    0 -0.81389522970E-02  0.13075903016E-01 -0.18036338053E-01  0.10202122582E+01  0.10199365277E+01 0.  0.
     999903    2    3    3    0    0 -0.14666039137E-01 -0.32668445750E-01  0.12131846801E+00  0.12804920683E+00  0.19902478203E-01 0.  0.
         14    1    1    2    0    0  0.81389522970E-02 -0.13075903016E-01  0.18036338053E-01  0.23717741767E-01  0.00000000000E+00 0.  1.
     999901    1    3    3    0    0  0.65270868401E-02  0.45744348766E-01 -0.13935480606E+00  0.89216305140E+00  0.88000000000E+00 0.  1.
        -11    1    4    4    0    0 -0.24816093456E-02 -0.72158108108E-02  0.60730596476E-01  0.61210234275E-01  0.51100000000E-03 0. -1.
         11    1    4    4    0    0 -0.12184429791E-01 -0.25452634939E-01  0.60587871536E-01  0.66838972560E-01  0.51100000000E-03 0.  1.
</event>
<event>
 8    1  0.1197213E+005  0.1043930E+01  0.7957747E-01            NaN
         13   -1    0    0    0    0  0.00000000000E+00  0.00000000000E+00  0.74505805969E-08  0.10566000000E+00  0.10566000000E+00 0. -1.
     999900   -1    0    0    0    0 -0.00000000000E+00 -0.00000000000E+00 -0.74505805969E-08  0.93827000000E+00  0.93827000000E+00 0. -1.
     999902    2    1    2    0    0  0.18147474161E-01  0.28850314072E-02 -0.15218014426E-01  0.10200712031E+01  0.10197921442E+01 0.  0.
     999903    2    3    3    0    0 -0.11648972634E+00  0.33251959865E-01  0.35679333829E-01  0.12786054070E+00  0.19993844796E-01 0.  0.
         14    1    1    2    0    0 -0.18147474161E-01 -0.28850314072E-02  0.15218014426E-01  0.23858796862E-01  0.00000000000E+00 0. -1.
     999901    1    3    3    0    0  0.13463720050E+00 -0.30366928458E-01 -0.50897348255E-01  0.89221066243E+00  0.88000000000E+00 0.  1.
        -11    1    4    4    0    0 -0.93663750441E-01  0.27894958885E-01  0.20302682347E-01  0.99817267591E-01  0.51100000000E-03 0. -1.
         11    1    4    4    0    0 -0.22825975895E-01  0.53570009804E-02  0.15376651481E-01  0.28043273113E-01  0.51100000000E-03 0.  1.
</event>
<event>
 8    1  0.1197213E+005  0.1043930E+01  0.7957747E-01            NaN
         13   -1    0    0    0    0  0.00000000000E+00  0.00000000000E+00  0.74505805969E-08  0.10566000000E+00  0.10566000000E+00 0.  1.
     999900   -1    0    0    0    0 -0.00000000000E+00 -0.00000000000E+00 -0.74505805969E-08  0.93827000000E+00  0.93827000000E+00 0. -1.
     999902    2    1    2    0    0 -0.11869153875E-01 -0.34920619094E-02 -0.21147026165E-01  0.10194296321E+01  0.10191351759E+01 0.  0.
     999903    2    3    3    0    0  0.81488675162E-01  0.18744965396E-01 -0.98560013347E-01  0.13083358206E+00  0.20287238727E-01 0.  0.
         14    1    1    2    0    0  0.11869153875E-01  0.34920619094E-02  0.21147026165E-01  0.24500367869E-01  0.00000000000E+00 0.  1.
     999901    1    3    3    0    0 -0.93357829037E-01 -0.22237027306E-01  0.77412987181E-01  0.88859605008E+00  0.88000000000E+00 0.  1.
        -11    1    4    4    0    0  0.38141311090E-01 -0.15355761748E-02 -0.42884763938E-01  0.57414995471E-01  0.51100000000E-03 0.  1.
         11    1    4    4    0    0  0.43347364072E-01  0.20280541571E-01 -0.55675249408E-01  0.73418586584E-01  0.51100000000E-03 0. -1.
</event>
<event>
 8    1  0.1197213E+005  0.1043930E+01  0.7957747E-01            NaN
         13   -1    0    0    0    0  0.00000000000E+00  0.00000000000E+00  0.74505805969E-08  0.10566000000E+00  0.10566000000E+00 0.  1.
     999900   -1    0    0    0    0 -0.00000000000E+00 -0.00000000000E+00 -0.74505805969E-08  0.93827000000E+00  0.93827000000E+00 0. -1.
     999902    2    1    2    0    0 -0.33602883856E-02 -0.23221429250E-02  0.24255055268E-01  0.10193334232E+01  0.10190366215E+01 0.  0.
     999903    2    3    3    0    0 -0.12689492222E+00  0.11173212003E-01  0.19813348600E-01  0.13059124508E+00  0.20840886633E-01 0.  0.
         14    1    1    2    0    0  0.33602883856E-02  0.23221429250E-02 -0.24255055268E-01  0.24596576832E-01  0.00000000000E+00 0. -1.
     999901    1    3    3    0    0  0.12353463384E+00 -0.13495354928E-01  0.44417066687E-02  0.88874217809E+00  0.88000000000E+00 0. -1.
        -11    1    4    4    0    0 -0.81963752307E-01  0.27477572225E-03  0.19930981177E-01  0.84354237153E-01  0.51100000000E-03 0. -1.
         11    1    4    4    0    0 -0.44931169914E-01  0.10898436281E-01 -0.11763257740E-03  0.46237007923E-01  0.51100000000E-03 0.  1.
</event>
<event>
 8    1  0.1197213E+005  0.1043930E+01  0.7957747E-01            NaN
         13   -1    0    0    0    0  0.00000000000E+00  0.00000000000E+00  0.74505805969E-08  0.10566000000E+00  0.10566000000E+00 0. -1.
     999900   -1    0    0    0    0 -0.00000000000E+00 -0.00000000000E+00 -0.74505805969E-08  0.93827000000E+00  0.93827000000E+00 0. -1.
     999902    2    1    2    0    0  0.22495919171E-01 -0.45623581675E-03  0.66715823626E-02  0.10204612007E+01  0.10201912946E+01 0.  0.
     999903    2    3    3    0    0  0.99519360213E-01  0.73161652666E-01 -0.44003222501E-01  0.13258725702E+00  0.19656211634E-01 0.  0.
         14    1    1    2    0    0 -0.22495919171E-01  0.45623581675E-03 -0.66715823626E-02  0.23468799323E-01  0.00000000000E+00 0. -1.
     999901    1    3    3    0    0 -0.77023441042E-01 -0.73617888483E-01  0.50674804864E-01  0.88787394366E+00  0.88000000000E+00 0.  1.
        -11    1    4    4    0    0  0.56336792159E-01  0.30478081163E-01 -0.27158293370E-01  0.69574288368E-01  0.51100000000E-03 0. -1.
         11    1    4    4    0    0  0.43182568054E-01  0.42683571504E-01 -0.16844929131E-01  0.63012968653E-01  0.51100000000E-03 0.  1.
</event>
<event>
 8    1  0.1197213E+005  0.1043930E+01  0.7957747E-01            NaN
         13   -1    0    0    0    0  0.00000000000E+00  0.00000000000E+00  0.74505805969E-08  0.10566000000E+00  0.10566000000E+00 0. -1.
     999900   -1    0    0    0    0 -0.00000000000E+00 -0.00000000000E+00 -0.74505805969E-08  0.93827000000E+00  0.93827000000E+00 0.  1.
     999902    2    1    2    0    0  0.85616474816E-02  0.69055561504E-02 -0.21829671174E-01  0.10194857153E+01  0.10191926219E+01 0.  0.
     999903    2    3    3    0    0 -0.11305504665E+00  0.87152193884E-02 -0.61028705084E-01  0.13025545293E+00  0.19610750887E-01 0.  0.
         14    1    1    2    0    0 -0.85616474816E-02 -0.69055561504E-02  0.21829671174E-01  0.24444284749E-01  0.00000000000E+00 0. -1.
     999901    1    3    3    0    0  0.12161669413E+00 -0.18096632380E-02  0.39199033910E-01  0.88923026232E+00  0.88000000000E+00 0. -1.
        -11    1    4    4    0    0 -0.26999233291E-01 -0.61695275942E-02 -0.13259185847E-01  0.30709750884E-01  0.51100000000E-03 0.  1.
         11    1    4    4    0    0 -0.86055813361E-01  0.14884746983E-01 -0.47769519237E-01  0.99545702043E-01  0.51100000000E-03 0. -1.
</event>
<event>
 8    1  0.1197213E+005  0.1043930E+01  0.7957747E-01            NaN
         13   -1    0    0    0    0  0.00000000000E+00  0.00000000000E+00  0.74505805969E-08  0.10566000000E+00  0.10566000000E+00 0. -1.
     999900   -1    0    0    0    0 -0.00000000000E+00 -0.00000000000E+00 -0.74505805969E-08  0.93827000000E+00  0.93827000000E+00 0.  1.
     999902    2    1    2    0    0 -0.15245142946E-01  0.12829040692E-01 -0.12945933260E-01  0.10201687741E+01  0.10198920197E+01 0.  0.
     999903    2    3    3    0    0  0.47794649395E-01 -0.11385867336E+00 -0.30085158530E-01  0.12869945586E+00  0.20256040236E-01 0.  0.
         14    1    1    2    0    0  0.15245142946E-01 -0.12829040692E-01  0.12945933260E-01  0.23761225904E-01  0.00000000000E+00 0. -1.
     999901    1    3    3    0    0 -0.63039792341E-01  0.12668771405E+00  0.17139225270E-01  0.89146931823E+00  0.88000000000E+00 0. -1.
        -11    1    4    4    0    0  0.30218879239E-01 -0.46049372765E-01 -0.13330130545E-01  0.56671676311E-01  0.51100000000E-03 0. -1.
         11    1    4    4    0    0  0.17575770156E-01 -0.67809300592E-01 -0.16755027985E-01  0.72027779551E-01  0.51100000000E-03 0.  1.
</event>
<event>
 8    1  0.1197213E+005  0.1043930E+01  0.7957747E-01            NaN
         13   -1    0    0    0    0  0.00000000000E+00  0.00000000000E+00  0.74505805969E-08  0.10566000000E+00  0.10566000000E+00 0.  1.
     999900   -1    0    0    0    0 -0.00000000000E+00 -0.00000000000E+00 -0.74505805969E-08  0.93827000000E+00  0.93827000000E+00 0.  1.
     999902    2    1    2    0    0  0.86323749218E-02 -0.21984993894E-01  0.61326639880E-04  0.10203109057E+01  0.10200374908E+01 0.  0.
     999903    2    3    3    0    0 -0.81185005427E-01 -0.98609670293E-01 -0.26882236950E-01  0.13201790313E+00  0.19778774020E-01 0.  0.
         14    1    1    2    0    0 -0.86323749218E-02  0.21984993894E-01 -0.61326639880E-04  0.23619094272E-01  0.00000000000E+00 0.  1.
     999901    1    3    3    0    0  0.89817380349E-01  0.76624676399E-01  0.26943563590E-01  0.88829300260E+00  0.88000000000E+00 0.  1.
        -11    1    4    4    0    0 -0.42606369593E-01 -0.55228003383E-01 -0.24433131178E-01  0.73909905343E-01  0.51100000000E-03 0.  1.
         11    1    4    4    0    0 -0.38578635834E-01 -0.43381666910E-01 -0.24491057718E-02  0.58107997787E-01  0.51100000000E-03 0. -1.
</event>
<event>
 8    1  0.1197213E+005  0.1043930E+01  0.7957747E-01            NaN
         13   -1    0    0    0    0  0.00000000000E+00  0.00000000000E+00  0.74505805969E-08  0.10566000000E+00  0.10566000000E+00 0. -1.
     999900   -1    0    0    0    0 -0.00000000000E+00 -0.00000000000E+00 -0.74505805969E-08  0.93827000000E+00  0.93827000000E+00 0.  1.
     999902    2    1    2    0    0  0.11425254273E-03  0.55156172423E-02  0.23583741117E-01  0.10197095968E+01  0.10194219116E+01 0.  0.
     999903    2    3    3    0    0 -0.10689875620E-01 -0.65540711200E-01 -0.10661067589E+00  0.12723196837E+00  0.20304661932E-01 0.  0.
         14    1    1    2    0    0 -0.11425254273E-03 -0.55156172423E-02 -0.23583741117E-01  0.24220403223E-01  0.00000000000E+00 0.  1.
     999901    1    3    3    0    0  0.10804128163E-01  0.71056328442E-01  0.13019441700E+00  0.89247762841E+00  0.88000000000E+00 0. -1.
        -11    1    4    4    0    0 -0.11196210126E-01 -0.45418273188E-01 -0.57315793420E-01  0.73983349187E-01  0.51100000000E-03 0.  1.
         11    1    4    4    0    0  0.50633450585E-03 -0.20122438012E-01 -0.49294882466E-01  0.53248619179E-01  0.51100000000E-03 0. -1.
</event>
<event>
 8    1  0.1197213E+005  0.1043930E+01  0.7957747E-01            NaN
         13   -1    0    0    0    0  0.00000000000E+00  0.00000000000E+00  0.74505805969E-08  0.10566000000E+00  0.10566000000E+00 0. -1.
     999900   -1    0    0    0    0 -0.00000000000E+00 -0.00000000000E+00 -0.74505805969E-08  0.93827000000E+00  0.93827000000E+00 0. -1.
     999902    2    1    2    0    0  0.19962336595E-01  0.69114099558E-02 -0.10343653991E-01  0.10204086555E+01  0.10201375253E+01 0.  0.
     999903    2    3    3    0    0 -0.85488203430E-01 -0.64719838662E-01  0.62900797851E-01  0.12821159099E+00  0.31381702491E-01 0.  0.
         14    1    1    2    0    0 -0.19962336595E-01 -0.69114099558E-02  0.10343653991E-01  0.23521344515E-01  0.00000000000E+00 0. -1.
     999901    1    3    3    0    0  0.10545054003E+00  0.71631248618E-01 -0.73244451842E-01  0.89219706450E+00  0.88000000000E+00 0.  1.
        -11    1    4    4    0    0 -0.23340568679E-01 -0.36803244456E-01  0.25207043615E-01  0.50347960411E-01  0.51100000000E-03 0. -1.
         11    1    4    4    0    0 -0.62147634751E-01 -0.27916594206E-01  0.37693754235E-01  0.77863630577E-01  0.51100000000E-03 0.  1.
</event>
<event>
 8    1  0.1197213E+005  0.1043930E+01  0.7957747E-01            NaN
         13   -1    0    0    0    0  0.00000000000E+00  0.00000000000E+00  0.74505805969E-08  0.10566000000E+00  0.10566000000E+00 0. -1.
     999900   -1    0    0    0    0 -0.00000000000E+00 -0.00000000000E+00 -0.74505805969E-08  0.93827000000E+00  0.93827000000E+00 0.  1.
     999902    2    1    2    0    0  0.59045021984E-02 -0.22561212123E-01 -0.15868395485E-03  0.10206084087E+01  0.10203419169E+01 0.  0.
     999903    2    3    3    0    0  0.91441109265E-01  0.85074808801E-01  0.28310713423E-01  0.12947849074E+00  0.19078351979E-01 0.  0.
         14    1    1    2    0    0 -0.59045021984E-02  0.22561212123E-01  0.15868395485E-03  0.23321591268E-01  0.00000000000E+00 0. -1.
     999901    1    3    3    0    0 -0.85536607067E-01 -0.10763602092E+00 -0.28469397378E-01  0.89112991799E+00  0.88000000000E+00 0.  1.
        -11    1    4    4    0    0  0.61248150167E-01  0.46363687848E-01  0.22458571920E-01  0.80034842559E-01  0.51100000000E-03 0. -1.
         11    1    4    4    0    0  0.30192959099E-01  0.38711120952E-01  0.58521415033E-02  0.49443648184E-01  0.51100000000E-03 0.  1.
</event>
<event>
 8    1  0.1197213E+005  0.1043930E+01  0.7957747E-01            NaN
         13   -1    0    0    0    0  0.00000000000E+00  0.00000000000E+00  0.74505805969E-08  0.10566000000E+00  0.10566000000E+00 0.  1.
     999900   -1    0    0    0    0 -0.00000000000E+00 -0.00000000000E+00 -0.74505805969E-08  0.93827000000E+00  0.93827000000E+00 0.  1.
     999902    2    1    2    0    0 -0.16100750752E-01 -0.45818509051E-02 -0.17273944900E-01  0.10198755471E+01  0.10195918374E+01 0.  0.
     999903    2    3    3    0    0  0.11700429820E+00  0.45366126549E-01 -0.19245398323E-01  0.12846338589E+00  0.19605226894E-01 0.  0.
         14    1    1    2    0    0  0.16100750752E-01  0.45818509051E-02  0.17273944900E-01  0.24054452912E-01  0.00000000000E+00 0. -1.
     999901    1    3    3    0    0 -0.13310504895E+00 -0.49947977454E-01  0.19714534230E-02  0.89141216120E+00  0.88000000000E+00 0. -1.
        -11    1    4    4    0    0  0.19452422494E-01  0.15826211112E-01 -0.41861896968E-02  0.25429333539E-01  0.51100000000E-03 0.  1.
         11    1    4    4    0    0  0.97551875707E-01  0.29539915437E-01 -0.15059208626E-01  0.10303405235E+00  0.51100000000E-03 0. -1.
</event>
<event>
 7    1  0.1197213E+005  0.1043930E+01  0.7957747E-01            NaN
         13   -1    0    0    0    0  0.00000000000E+00  0.00000000000E+00  0.74505805969E-08  0.10566000000E+00  0.10566000000E+00 0. -1.
     999900   -1    0    0    0    0 -0.00000000000E+00 -0.00000000000E+00 -0.74505805969E-08  0.93827000000E+00  0.93827000000E+00 0. -1.
     999902    2    1    2    0    0  0.54437121470E-02 -0.23554151162E-01 -0.56561737819E-04  0.10197549046E+01  0.10194683076E+01 0.  0.
         14    1    1    2    0    0 -0.54437121470E-02  0.23554151162E-01  0.56561737819E-04  0.24175095411E-01  0.00000000000E+00 0.  1.
     999901    1    3    3    0    0  0.79736885568E-01  0.68371634323E-01 -0.46448154699E-01  0.88746272168E+00  0.88000000000E+00 0.  1.
        -11    1    3    3    0    0 -0.67202777997E-02 -0.37022044827E-02 -0.56880030982E-02  0.95646720792E-02  0.51100000000E-03 0. -1.
         11    1    3    3    0    0 -0.67572895621E-01 -0.88223581002E-01  0.52079596059E-01  0.12272751083E+00  0.51100000000E-03 0.  1.
</event>
<event>
 8    1  0.1197213E+005  0.1043930E+01  0.7957747E-01            NaN
         13   -1    0    0    0    0  0.00000000000E+00  0.00000000000E+00  0.74505805969E-08  0.10566000000E+00  0.10566000000E+00 0.  1.
     999900   -1    0    0    0    0 -0.00000000000E+00 -0.00000000000E+00 -0.74505805969E-08  0.93827000000E+00  0.93827000000E+00 0.  1.
     999902    2    1    2    0    0 -0.45210173671E-02  0.21368189473E-01 -0.33561148822E-02  0.10218324294E+01  0.10215934667E+01 0.  0.
     999903    2    3    3    0    0 -0.91618089232E-01  0.81284568565E-01 -0.51125663256E-01  0.13421888615E+00  0.19995514348E-01 0.  0.
         14    1    1    2    0    0  0.45210173671E-02 -0.21368189473E-01  0.33561148822E-02  0.22097570601E-01  0.00000000000E+00 0.  1.
     999901    1    3    3    0    0  0.87097071865E-01 -0.59916379092E-01  0.47769548374E-01  0.88761354325E+00  0.88000000000E+00 0.  1.
        -11    1    4    4    0    0 -0.12667263397E-01  0.13453600053E-01 -0.55157381575E-03  0.18493898210E-01  0.51100000000E-03 0.  1.
         11    1    4    4    0    0 -0.78950825835E-01  0.67830968512E-01 -0.50574089440E-01  0.11572498794E+00  0.51100000000E-03 0. -1.
</event>
<event>
 8    1  0.1197213E+005  0.1043930E+01  0.7957747E-01            NaN
         13   -1    0    0    0    0  0.00000000000E+00  0.00000000000E+00  0.74505805969E-08  0.10566000000E+00  0.10566000000E+00 0.  1.
     999900   -1    0    0    0    0 -0.00000000000E+00 -0.00000000000E+00 -0.74505805969E-08  0.93827000000E+00  0.93827000000E+00 0. -1.
     999902    2    1    2    0    0 -0.43338124031E-02 -0.41995830070E-02 -0.20460061894E-01  0.10225985078E+01  0.10223759952E+01 0.  0.
     999903    2    3    3    0    0 -0.79484231297E-01  0.23910986006E-01 -0.10149088041E+00  0.13524075406E+00  0.33169028855E-01 0.  0.
         14    1    1    2    0    0  0.43338124031E-02  0.41995830070E-02  0.20460061894E-01  0.21331492214E-01  0.00000000000E+00 0.  1.
     999901    1    3    3    0    0  0.75150418894E-01 -0.28110569013E-01  0.81030818516E-01  0.88735775373E+00  0.88000000000E+00 0. -1.
        -11    1    4    4    0    0 -0.19818375253E-01  0.21371315733E-01 -0.26696486684E-01  0.39528023681E-01  0.51100000000E-03 0.  1.
         11    1    4    4    0    0 -0.59665856044E-01  0.25396702736E-02 -0.74794393726E-01  0.95712730378E-01  0.51100000000E-03 0. -1.
</event>
<event>
 8    1  0.1197213E+005  0.1043930E+01  0.7957747E-01            NaN
         13   -1    0    0    0    0  0.00000000000E+00  0.00000000000E+00  0.74505805969E-08  0.10566000000E+00  0.10566000000E+00 0.  1.
     999900   -1    0    0    0    0 -0.00000000000E+00 -0.00000000000E+00 -0.74505805969E-08  0.93827000000E+00  0.93827000000E+00 0. -1.
     999902    2    1    2    0    0  0.51706819919E-02 -0.21234774186E-01  0.76187711987E-02  0.10207848653E+01  0.10205224367E+01 0.  0.
     999903    2    3    3    0    0 -0.69429278592E-03 -0.82403112754E-01  0.10321249572E+00  0.13347763340E+00  0.19305551299E-01 0.  0.
         14    1    1    2    0    0 -0.51706819919E-02  0.21234774186E-01 -0.76187711987E-02  0.23145134728E-01  0.00000000000E+00 0. -1.
     999901    1    3    3    0    0  0.58649747778E-02  0.61168338568E-01 -0.95593724517E-01  0.88730723188E+00  0.88000000000E+00 0. -1.
        -11    1    4    4    0    0 -0.31115761859E-02 -0.15071187017E-01  0.96214013525E-02  0.18156405742E-01  0.51100000000E-03 0.  1.
         11    1    4    4    0    0  0.24172834000E-02 -0.67331925737E-01  0.93591094363E-01  0.11532122765E+00  0.51100000000E-03 0. -1.
</event>
<event>
 8    1  0.1197213E+005  0.1043930E+01  0.7957747E-01            NaN
         13   -1    0    0    0    0  0.00000000000E+00  0.00000000000E+00  0.74505805969E-08  0.10566000000E+00  0.10566000000E+00 0.  1.
     999900   -1    0    0    0    0 -0.00000000000E+00 -0.00000000000E+00 -0.74505805969E-08  0.93827000000E+00  0.93827000000E+00 0. -1.
     999902    2    1    2    0    0  0.17539150963E-02 -0.99181689138E-02  0.20901360896E-01  0.10207284229E+01  0.10204646981E+01 0.  0.
     999903    2    3    3    0    0  0.45583774666E-01 -0.11352970179E+00  0.48291343854E-01  0.13314371285E+00  0.20695909745E-01 0.  0.
         14    1    1    2    0    0 -0.17539150963E-02  0.99181689138E-02 -0.20901360896E-01  0.23201577103E-01  0.00000000000E+00 0. -1.
     999901    1    3    3    0    0 -0.43829859570E-01  0.10361153288E+00 -0.27389982958E-01  0.88758471004E+00  0.88000000000E+00 0.  1.
        -11    1    4    4    0    0  0.19147220434E-01 -0.55755061661E-01  0.33868070605E-01  0.67989339448E-01  0.51100000000E-03 0.  1.
         11    1    4    4    0    0  0.26436554232E-01 -0.57774640130E-01  0.14423273249E-01  0.65154373406E-01  0.51100000000E-03 0. -1.
</event>
<event>
 8    1  0.1197213E+005  0.1043930E+01  0.7957747E-01            NaN
         13   -1    0    0    0    0  0.00000000000E+00  0.00000000000E+00  0.74505805969E-08  0.10566000000E+00  0.10566000000E+00 0.  1.
     999900   -1    0    0    0    0 -0.00000000000E+00 -0.00000000000E+00 -0.74505805969E-08  0.93827000000E+00  0.93827000000E+00 0.  1.
     999902    2    1    2    0    0 -0.24066448657E-01  0.73926256457E-02 -0.33836245421E-03  0.10187514505E+01  0.10184402577E+01 0.  0.
     999903    2    3    3    0    0  0.22928954748E-01  0.33693851934E-01  0.12026066755E+00  0.12889503037E+00  0.22142449514E-01 0.  0.
         14    1    1    2    0    0  0.24066448657E-01 -0.73926256457E-02  0.33836245421E-03  0.25178549482E-01  0.00000000000E+00 0. -1.
     999901    1    3    3    0    0 -0.46995403405E-01 -0.26301226288E-01 -0.12059903000E+00  0.88985642015E+00  0.88000000000E+00 0.  1.
        -11    1    4    4    0    0 -0.17806059227E-02  0.14358455065E-01  0.47470796437E-01  0.49629360511E-01  0.51100000000E-03 0. -1.
         11    1    4    4    0    0  0.24709560670E-01  0.19335396869E-01  0.72789871110E-01  0.79265669856E-01  0.51100000000E-03 0.  1.
</event>
<event>
 8    1  0.1197213E+005  0.1043930E+01  0.7957747E-01            NaN
         13   -1    0    0    0    0  0.00000000000E+00  0.00000000000E+00  0.74505805969E-08  0.10566000000E+00  0.10566000000E+00 0. -1.
     999900   -1    0    0    0    0 -0.00000000000E+00 -0.00000000000E+00 -0.74505805969E-08  0.93827000000E+00  0.93827000000E+00 0. -1.
     999902    2    1    2    0    0  0.33823198370E-02 -0.23619093569E-01  0.26858417711E-02  0.10199192646E+01  0.10196365975E+01 0.  0.
     999903    2    3    3    0    0  0.62902693328E-01  0.14696360700E-01 -0.11093956078E+00  0.12979484577E+00  0.19141159741E-01 0.  0.
         14    1    1    2    0    0 -0.33823198370E-02  0.23619093569E-01 -0.26858417711E-02  0.24010735401E-01  0.00000000000E+00 0. -1.
     999901    1    3    3    0    0 -0.59520373491E-01 -0.38315454269E-01  0.11362540255E+00  0.89012441883E+00  0.88000000000E+00 0.  1.
        -11    1    4    4    0    0  0.20573849310E-01 -0.38695579257E-02 -0.39438951921E-01  0.44653653866E-01  0.51100000000E-03 0.  1.
         11    1    4    4    0    0  0.42328844018E-01  0.18565918625E-01 -0.71500608858E-01  0.85141191901E-01  0.51100000000E-03 0. -1.
</event>
<event>
 8    1  0.1197213E+005  0.1043930E+01  0.7957747E-01            NaN
         13   -1    0    0    0    0  0.00000000000E+00  0.00000000000E+00  0.74505805969E-08  0.10566000000E+00  0.10566000000E+00 0. -1.
     999900   -1    0    0    0    0 -0.00000000000E+00 -0.00000000000E+00 -0.74505805969E-08  0.93827000000E+00  0.93827000000E+00 0.  1.
     999902    2    1    2    0    0 -0.31301019296E-02  0.18935474494E-01  0.12040014915E-01  0.10212736170E+01  0.10210222765E+01 0.  0.
     999903    2    3    3    0    0  0.74751779826E-01  0.10852602981E+00 -0.18838315287E-03  0.13321867002E+00  0.19530765956E-01 0.  0.
         14    1    1    2    0    0  0.31301019296E-02 -0.18935474494E-01 -0.12040014915E-01  0.22656383020E-01  0.00000000000E+00 0. -1.
     999901    1    3    3    0    0 -0.77881881755E-01 -0.89590555317E-01  0.12228398068E-01  0.88805494696E+00  0.88000000000E+00 0. -1.
        -11    1    4    4    0    0  0.50040282733E-01  0.80371891209E-01 -0.77648986855E-02  0.94995923939E-01  0.51100000000E-03 0. -1.
         11    1    4    4    0    0  0.24711497093E-01  0.28154138603E-01  0.75765155326E-02  0.38222746077E-01  0.51100000000E-03 0.  1.
</event>
<event>
 8    1  0.1197213E+005  0.1043930E+01  0.7957747E-01            NaN
         13   -1    0    0    0    0  0.00000000000E+00  0.00000000000E+00  0.74505805969E-08  0.10566000000E+00  0.10566000000E+00 0. -1.
     999900   -1    0    0    0    0 -0.00000000000E+00 -0.00000000000E+00 -0.74505805969E-08  0.93827000000E+00  0.93827000000E+00 0.  1.
     999902    2    1    2    0    0 -0.41963743760E-02 -0.76842522055E-03  0.22099351612E-01  0.10214226373E+01  0.10211746288E+01 0.  0.
     999903    2    3    3    0    0  0.28414807532E-02  0.52692565759E-01 -0.11599671584E+00  0.12902242840E+00  0.20173458909E-01 0.  0.
         14    1    1    2    0    0  0.41963743760E-02  0.76842522055E-03 -0.22099351612E-01  0.22507362726E-01  0.00000000000E+00 0.  1.
     999901    1    3    3    0    0 -0.70378551292E-02 -0.53460990979E-01  0.13809606745E+00  0.89240020888E+00  0.88000000000E+00 0. -1.
        -11    1    4    4    0    0 -0.73828048561E-02  0.33088432889E-01 -0.61864064761E-01  0.70546253113E-01  0.51100000000E-03 0.  1.
         11    1    4    4    0    0  0.10224285609E-01  0.19604132869E-01 -0.54132651079E-01  0.58476175282E-01  0.51100000000E-03 0. -1.
</event>
<event>
 8    1  0.1197213E+005  0.1043930E+01  0.7957747E-01            NaN
         13   -1    0    0    0    0  0.00000000000E+00  0.00000000000E+00  0.74505805969E-08  0.10566000000E+00  0.10566000000E+00 0.  1.
     999900   -1    0    0    0    0 -0.00000000000E+00 -0.00000000000E+00 -0.74505805969E-08  0.93827000000E+00  0.93827000000E+00 0. -1.
     999902    2    1    2    0    0  0.36396148497E-02 -0.16198997193E-01 -0.16810720672E-01  0.10203025872E+01  0.10200289774E+01 0.  0.
     999903    2    3    3    0    0  0.11525606958E+00 -0.62524576875E-01 -0.10989847384E-01  0.13202437916E+00  0.10787755130E-01 0.  0.
         14    1    1    2    0    0 -0.36396148497E-02  0.16198997193E-01  0.16810720672E-01  0.23627412804E-01  0.00000000000E+00 0. -1.
     999901    1    3    3    0    0 -0.11161645473E+00  0.46325579682E-01 -0.58208732880E-02  0.88827820803E+00  0.88000000000E+00 0.  1.
        -11    1    4    4    0    0  0.10188117886E+00 -0.58535812254E-01 -0.82371374293E-02  0.11778933516E+00  0.51100000000E-03 0.  1.
         11    1    4    4    0    0  0.13374890715E-01 -0.39887646203E-02 -0.27527099547E-02  0.14235044009E-01  0.51100000000E-03 0. -1.
</event>
<event>
 8    1  0.1197213E+005  0.1043930E+01  0.7957747E-01            NaN
         13   -1    0    0    0    0  0.00000000000E+00  0.00000000000E+00  0.74505805969E-08  0.10566000000E+00  0.10566000000E+00 0. -1.
     999900   -1    0    0    0    0 -0.00000000000E+00 -0.00000000000E+00 -0.74505805969E-08  0.93827000000E+00  0.93827000000E+00 0.  1.
     999902    2    1    2    0    0  0.13996244381E-01 -0.15069337301E-01  0.12587317797E-01  0.10198173404E+01  0.10195322395E+01 0.  0.
     999903    2    3    3    0    0 -0.52275524187E-01  0.83564834481E-01 -0.77868397524E-01  0.12723519652E+00  0.20236005263E-01 0.  0.
         14    1    1    2    0    0 -0.13996244381E-01  0.15069337301E-01 -0.12587317797E-01  0.24112659595E-01  0.00000000000E+00 0.  1.
     999901    1    3    3    0    0  0.66271768568E-01 -0.98634171781E-01  0.90455715321E-01  0.89258214389E+00  0.88000000000E+00 0.  1.
        -11    1    4    4    0    0 -0.11603769727E-01  0.36927888412E-01 -0.28446936227E-01  0.48039626520E-01  0.51100000000E-03 0.  1.
         11    1    4    4    0    0 -0.40671754460E-01  0.46636946068E-01 -0.49421461298E-01  0.79195569998E-01  0.51100000000E-03 0. -1.
</event>
<event>
 8    1  0.1197213E+005  0.1043930E+01  0.7957747E-01            NaN
         13   -1    0    0    0    0  0.00000000000E+00  0.00000000000E+00  0.74505805969E-08  0.10566000000E+00  0.10566000000E+00 0. -1.
     999900   -1    0    0    0    0 -0.00000000000E+00 -0.00000000000E+00 -0.74505805969E-08  0.93827000000E+00  0.93827000000E+00 0. -1.
     999902    2    1    2    0    0 -0.78585327234E-02  0.24429531481E-01  0.86453097176E-02  0.10168504888E+01  0.10164898508E+01 0.  0.
     999903    2    3    3    0    0 -0.27867204671E-01 -0.73211809664E-01  0.97753487611E-01  0.12675249096E+00  0.19336479859E-01 0.  0.
         14    1    1    2    0    0  0.78585327234E-02 -0.24429531481E-01 -0.86453097176E-02  0.27079511167E-01  0.00000000000E+00 0.  1.
     999901    1    3    3    0    0  0.20008671948E-01  0.97641341145E-01 -0.89108177894E-01  0.89009799788E+00  0.88000000000E+00 0. -1.
        -11    1    4    4    0    0 -0.23645849869E-01 -0.65561819312E-01  0.75057505165E-01  0.10242738194E+00  0.51100000000E-03 0.  1.
         11    1    4    4    0    0 -0.42213548023E-02 -0.76499903520E-02  0.22695982446E-01  0.24325109022E-01  0.51100000000E-03 0. -1.
</event>
<event>
 8    1  0.1197213E+005  0.1043930E+01  0.7957747E-01            NaN
         13   -1    0    0    0    0  0.00000000000E+00  0.00000000000E+00  0.74505805969E-08  0.10566000000E+00  0.10566000000E+00 0. -1.
     999900   -1    0    0    0    0 -0.00000000000E+00 -0.00000000000E+00 -0.74505805969E-08  0.93827000000E+00  0.93827000000E+00 0. -1.
     999902    2    1    2    0    0 -0.66618415224E-02 -0.19444332250E-01  0.12182002984E-01  0.10200372524E+01  0.10197573893E+01 0.  0.
     999903    2    3    3    0    0 -0.62107710118E-01  0.10984784812E+00 -0.13195887585E-01  0.12850220009E+00  0.20365819049E-01 0.  0.
         14    1    1    2    0    0  0.66618415224E-02  0.19444332250E-01 -0.12182002984E-01  0.23892747557E-01  0.00000000000E+00 0.  1.
     999901    1    3    3    0    0  0.55445868596E-01 -0.12929218037E+00  0.25377890569E-01  0.89153505236E+00  0.88000000000E+00 0.  1.
        -11    1    4    4    0    0 -0.49167474525E-01  0.71352986269E-01 -0.33905430660E-02  0.86720505672E-01  0.51100000000E-03 0. -1.
         11    1    4    4    0    0 -0.12940235593E-01  0.38494861851E-01 -0.98053445187E-02  0.41781694416E-01  0.51100000000E-03 0.  1.
</event>
<event>
 8    1  0.1197213E+005  0.1043930E+01  0.7957747E-01            NaN
         13   -1    0    0    0    0  0.00000000000E+00  0.00000000000E+00  0.74505805969E-08  0.10566000000E+00  0.10566000000E+00 0. -1.
     999900   -1    0    0    0    0 -0.00000000000E+00 -0.00000000000E+00 -0.74505805969E-08  0.93827000000E+00  0.93827000000E+00 0.  1.
     999902    2    1    2    0    0  0.15995701600E-01  0.15262713528E-02 -0.16560366826E-01  0.10208553879E+01  0.10205945744E+01 0.  0.
     999903    2    3    3    0    0  0.19317863426E-01  0.67782705848E-01  0.10694091352E+00  0.12975858165E+00  0.20814789670E-01 0.  0.
         14    1    1    2    0    0 -0.15995701600E-01 -0.15262713528E-02  0.16560366826E-01  0.23074612095E-01  0.00000000000E+00 0. -1.
     999901    1    3    3    0    0 -0.33221618265E-02 -0.66256434495E-01 -0.12350128034E+00  0.89109680625E+00  0.88000000000E+00 0.  1.
        -11    1    4    4    0    0  0.21220759436E-01  0.38924629481E-01  0.69657117445E-01  0.82570106837E-01  0.51100000000E-03 0.  1.
         11    1    4    4    0    0 -0.19028960100E-02  0.28858076368E-01  0.37283796070E-01  0.47188474814E-01  0.51100000000E-03 0. -1.
</event>
<event>
 8    1  0.1197213E+005  0.1043930E+01  0.7957747E-01            NaN
         13   -1    0    0    0    0  0.00000000000E+00  0.00000000000E+00  0.74505805969E-08  0.10566000000E+00  0.10566000000E+00 0. -1.
     999900   -1    0    0    0    0 -0.00000000000E+00 -0.00000000000E+00 -0.74505805969E-08  0.93827000000E+00  0.93827000000E+00 0. -1.
     999902    2    1    2    0    0 -0.19492681898E-01 -0.15238468733E-01  0.58730992233E-02  0.10185003152E+01  0.10181828044E+01 0.  0.
     999903    2    3    3    0    0  0.45041072281E-01  0.10278194148E+00  0.55716471885E-01  0.12688504809E+00  0.20066502026E-01 0.  0.
         14    1    1    2    0    0  0.19492681898E-01  0.15238468733E-01 -0.58730992233E-02  0.25429684846E-01  0.00000000000E+00 0. -1.
     999901    1    3    3    0    0 -0.64533754179E-01 -0.11802041021E+00 -0.49843372662E-01  0.89161526706E+00  0.88000000000E+00 0. -1.
        -11    1    4    4    0    0  0.19411401615E-01  0.68207574963E-01  0.33060507690E-01  0.78245345451E-01  0.51100000000E-03 0. -1.
         11    1    4    4    0    0  0.25629670666E-01  0.34574366518E-01  0.22655964196E-01  0.48639702643E-01  0.51100000000E-03 0.  1.
</event>
<event>
 8    1  0.1197213E+005  0.1043930E+01  0.7957747E-01            NaN
         13   -1    0    0    0    0  0.00000000000E+00  0.00000000000E+00  0.74505805969E-08  0.10566000000E+00  0.10566000000E+00 0. -1.
     999900   -1    0    0    0    0 -0.00000000000E+00 -0.00000000000E+00 -0.74505805969E-08  0.93827000000E+00  0.93827000000E+00 0.  1.
     999902    2    1    2    0    0 -0.49750002512E-02 -0.15833540196E-01 -0.17017649788E-01  0.10201591770E+01  0.10198821963E+01 0.  0.
     999903    2    3    3    0    0  0.93856449708E-01 -0.28908301134E-01  0.81236871837E-01  0.12909657767E+00  0.20537136941E-01 0.  0.
         14    1    1    2    0    0  0.49750002512E-02  0.15833540196E-01  0.17017649788E-01  0.23770823018E-01  0.00000000000E+00 0. -1.
     999901    1    3    3    0    0 -0.98831449959E-01  0.13074760937E-01 -0.98254521625E-01  0.89106259931E+00  0.88000000000E+00 0. -1.
        -11    1    4    4    0    0  0.73184508887E-01 -0.24861801371E-01  0.73469311022E-01  0.10663996573E+00  0.51100000000E-03 0.  1.
         11    1    4    4    0    0  0.20671940821E-01 -0.40464997629E-02  0.77675608153E-02  0.22456611936E-01  0.51100000000E-03 0. -1.
</event>
<event>
 8    1  0.1197213E+005  0.1043930E+01  0.7957747E-01            NaN
         13   -1    0    0    0    0  0.00000000000E+00  0.00000000000E+00  0.74505805969E-08  0.10566000000E+00  0.10566000000E+00 0.  1.
     999900   -1    0    0    0    0 -0.00000000000E+00 -0.00000000000E+00 -0.74505805969E-08  0.93827000000E+00  0.93827000000E+00 0. -1.
     999902    2    1    2    0    0  0.51691935833E-03 -0.23048780353E-01 -0.51185233826E-02  0.10203140570E+01  0.10200407159E+01 0.  0.
     999903    2    3    3    0    0  0.72135343373E-01 -0.10272665829E+00  0.38501025079E-01  0.13274410039E+00  0.19554875890E-01 0.  0.
         14    1    1    2    0    0 -0.51691935833E-03  0.23048780353E-01  0.51185233826E-02  0.23615942984E-01  0.00000000000E+00 0. -1.
     999901    1    3    3    0    0 -0.71618424015E-01  0.79677877933E-01 -0.43619548462E-01  0.88756995662E+00  0.88000000000E+00 0. -1.
        -11    1    4    4    0    0  0.11328891711E-01 -0.30931372628E-01  0.93777826134E-02  0.34253430891E-01  0.51100000000E-03 0. -1.
         11    1    4    4    0    0  0.60806451662E-01 -0.71795285658E-01  0.29123242466E-01  0.98490669503E-01  0.51100000000E-03 0.  1.
</event>
<event>
 8    1  0.1197213E+005  0.1043930E+01  0.7957747E-01            NaN
         13   -1    0    0    0    0  0.00000000000E+00  0.00000000000E+00  0.74505805969E-08  0.10566000000E+00  0.10566000000E+00 0.  1.
     999900   -1    0    0    0    0 -0.00000000000E+00 -0.00000000000E+00 -0.74505805969E-08  0.93827000000E+00  0.93827000000E+00 0. -1.
     999902    2    1    2    0    0 -0.48877342271E-02  0.19320925018E-01  0.72851033585E-02  0.10227106499E+01  0.10224904951E+01 0.  0.
     999903    2    3    3    0    0 -0.90047001579E-01  0.27173402002E-01  0.93935644740E-01  0.13432893093E+00  0.19326149688E-01 0.  0.
         14    1    1    2    0    0  0.48877342271E-02 -0.19320925018E-01 -0.72851033585E-02  0.21219350140E-01  0.00000000000E+00 0. -1.
     999901    1    3    3    0    0  0.85159267352E-01 -0.78524769841E-02 -0.86650541381E-01  0.88838171893E+00  0.88000000000E+00 0. -1.
        -11    1    4    4    0    0 -0.66870081174E-01  0.21211473942E-01  0.80865446127E-01  0.10705613425E+00  0.51100000000E-03 0. -1.
         11    1    4    4    0    0 -0.23176920405E-01  0.59619280602E-02  0.13070198613E-01  0.27272796674E-01  0.51100000000E-03 0.  1.
</event>
<event>
 8    1  0.1197213E+005  0.1043930E+01  0.7957747E-01            NaN
         13   -1    0    0    0    0  0.00000000000E+00  0.00000000000E+00  0.74505805969E-08  0.10566000000E+00  0.10566000000E+00 0. -1.
     999900   -1    0    0    0    0 -0.00000000000E+00 -0.00000000000E+00 -0.74505805969E-08  0.93827000000E+00  0.93827000000E+00 0. -1.
     999902    2    1    2    0    0 -0.32951989357E-02 -0.22823053224E-01  0.58990713451E-02  0.10201277073E+01  0.10198499841E+01 0.  0.
     999903    2    3    3    0    0 -0.22324716333E-01 -0.85822365187E-01  0.97000091971E-01  0.13298035101E+00  0.20270288245E-01 0.  0.
         14    1    1    2    0    0  0.32951989357E-02  0.22823053224E-01 -0.58990713451E-02  0.23802292688E-01  0.00000000000E+00 0.  1.
     999901    1    3    3    0    0  0.19029517398E-01  0.62999311963E-01 -0.91101020626E-01  0.88714735631E+00  0.88000000000E+00 0. -1.
        -11    1    4    4    0    0 -0.18435714808E-01 -0.57583206009E-01  0.52211317734E-01  0.79887320742E-01  0.51100000000E-03 0.  1.
         11    1    4    4    0    0 -0.38890015255E-02 -0.28239159178E-01  0.44788774238E-01  0.53093030264E-01  0.51100000000E-03 0. -1.
</event>
<event>
 8    1  0.1197213E+005  0.1043930E+01  0.7957747E-01            NaN
         13   -1    0    0    0    0  0.00000000000E+00  0.00000000000E+00  0.74505805969E-08  0.10566000000E+00  0.10566000000E+00 0.  1.
     999900   -1    0    0    0    0 -0.00000000000E+00 -0.00000000000E+00 -0.74505805969E-08  0.93827000000E+00  0.93827000000E+00 0.  1.
     999902    2    1    2    0    0  0.19783212802E-01 -0.14106218900E-01 -0.28116447329E-02  0.10194705179E+01  0.10191770555E+01 0.  0.
     999903    2    3    3    0    0 -0.20484745354E-01 -0.60859988115E-01  0.11150854146E+00  0.12993326268E+00  0.18025953091E-01 0.  0.
         14    1    1    2    0    0 -0.19783212802E-01  0.14106218900E-01  0.28116447329E-02  0.24459482140E-01  0.00000000000E+00 0.  1.
     999901    1    3    3    0    0  0.40267958156E-01  0.46753769215E-01 -0.11432018620E+00  0.88953725518E+00  0.88000000000E+00 0.  1.
        -11    1    4    4    0    0 -0.63690652902E-02 -0.40154956438E-01  0.57852577370E-01  0.70711861442E-01  0.51100000000E-03 0.  1.
         11    1    4    4    0    0 -0.14115680063E-01 -0.20705031678E-01  0.53655964092E-01  0.59221401234E-01  0.51100000000E-03 0. -1.
</event>
<event>
 8    1  0.1197213E+005  0.1043930E+01  0.7957747E-01            NaN
         13   -1    0    0    0    0  0.00000000000E+00  0.00000000000E+00  0.74505805969E-08  0.10566000000E+00  0.10566000000E+00 0. -1.
     999900   -1    0    0    0    0 -0.00000000000E+00 -0.00000000000E+00 -0.74505805969E-08  0.93827000000E+00  0.93827000000E+00 0. -1.
     999902    2    1    2    0    0 -0.18385489303E-01  0.76061819818E-02 -0.13328789480E-01  0.10199813706E+01  0.10197001812E+01 0.  0.
     999903    2    3    3    0    0 -0.11933359852E-01  0.17324529669E-01  0.12562048965E+00  0.12900270731E+00  0.20460856956E-01 0.  0.
         14    1    1    2    0    0  0.18385489303E-01 -0.76061819818E-02  0.13328789480E-01  0.23948629403E-01  0.00000000000E+00 0. -1.
     999901    1    3    3    0    0 -0.64521294519E-02 -0.97183476869E-02 -0.13894927913E+00  0.89097866328E+00  0.88000000000E+00 0. -1.
        -11    1    4    4    0    0 -0.13170299741E-01  0.49299953949E-02  0.93407357093E-01  0.94461405504E-01  0.51100000000E-03 0.  1.
         11    1    4    4    0    0  0.12369398889E-02  0.12394534274E-01  0.32213132562E-01  0.34541301808E-01  0.51100000000E-03 0. -1.
</event>
<event>
 8    1  0.1197213E+005  0.1043930E+01  0.7957747E-01            NaN
         13   -1    0    0    0    0  0.00000000000E+00  0.00000000000E+00  0.74505805969E-08  0.10566000000E+00  0.10566000000E+00 0.  1.
     999900   -1    0    0    0    0 -0.00000000000E+00 -0.00000000000E+00 -0.74505805969E-08  0.93827000000E+00  0.93827000000E+00 0. -1.
     999902    2    1    2    0    0 -0.32324541169E-02 -0.81425321965E-02  0.21982800166E-01  0.10202658268E+01  0.10199913550E+01 0.  0.
     999903    2    3    3    0    0 -0.51685024274E-01  0.11017680775E+00 -0.37974182135E-01  0.12900719010E+00  0.19762233876E-01 0.  0.
         14    1    1    2    0    0  0.32324541169E-02  0.81425321965E-02 -0.21982800166E-01  0.23664173202E-01  0.00000000000E+00 0. -1.
     999901    1    3    3    0    0  0.48452570157E-01 -0.11831933995E+00  0.59956982302E-01  0.89125863670E+00  0.88000000000E+00 0.  1.
        -11    1    4    4    0    0 -0.46072378905E-01  0.77971862419E-01 -0.29140730535E-01  0.95140520937E-01  0.51100000000E-03 0. -1.
         11    1    4    4    0    0 -0.56126453689E-02  0.32204945335E-01 -0.88334516003E-02  0.33866669163E-01  0.51100000000E-03 0.  1.
</event>
<event>
 8    1  0.1197213E+005  0.1043930E+01  0.7957747E-01            NaN
         13   -1    0    0    0    0  0.00000000000E+00  0.00000000000E+00  0.74505805969E-08  0.10566000000E+00  0.10566000000E+00 0.  1.
     999900   -1    0    0    0    0 -0.00000000000E+00 -0.00000000000E+00 -0.74505805969E-08  0.93827000000E+00  0.93827000000E+00 0. -1.
     999902    2    1    2    0    0 -0.10334545573E-01 -0.99622381659E-02 -0.17143769773E-01  0.10215702624E+01  0.10213255325E+01 0.  0.
     999903    2    3    3    0    0 -0.88852145980E-01 -0.53608160610E-01 -0.83280314994E-01  0.13452797330E+00  0.19840010213E-01 0.  0.
         14    1    1    2    0    0  0.10334545573E-01  0.99622381659E-02  0.17143769773E-01  0.22359737555E-01  0.00000000000E+00 0.  1.
     999901    1    3    3    0    0  0.78517600407E-01  0.43645922444E-01  0.66136545221E-01  0.88704228915E+00  0.88000000000E+00 0.  1.
        -11    1    4    4    0    0 -0.14449242467E-01 -0.33692964802E-02 -0.18993555011E-01  0.24107032575E-01  0.51100000000E-03 0. -1.
         11    1    4    4    0    0 -0.74402903513E-01 -0.50238864129E-01 -0.64286759984E-01  0.11042094072E+00  0.51100000000E-03 0.  1.
</event>
<event>
 8    1  0.1197213E+005  0.1043930E+01  0.7957747E-01            NaN
         13   -1    0    0    0    0  0.00000000000E+00  0.00000000000E+00  0.74505805969E-08  0.10566000000E+00  0.10566000000E+00 0.  1.
     999900   -1    0    0    0    0 -0.00000000000E+00 -0.00000000000E+00 -0.74505805969E-08  0.93827000000E+00  0.93827000000E+00 0. -1.
     999902    2    1    2    0    0 -0.18219852690E-01 -0.76198551678E-02 -0.13496168651E-01  0.10200098873E+01  0.10197293750E+01 0.  0.
     999903    2    3    3    0    0 -0.57122909433E-01  0.10281499369E+00 -0.48116428034E-01  0.13157988663E+00  0.34119293809E-01 0.  0.
         14    1    1    2    0    0  0.18219852690E-01  0.76198551678E-02  0.13496168651E-01  0.23920112731E-01  0.00000000000E+00 0.  1.
     999901    1    3    3    0    0  0.38903056742E-01 -0.11043484886E+00  0.34620259383E-01  0.88843000063E+00  0.88000000000E+00 0. -1.
        -11    1    4    4    0    0 -0.35148348632E-02  0.18149478547E-01 -0.20549332200E-01  0.27645864257E-01  0.51100000000E-03 0. -1.
         11    1    4    4    0    0 -0.53608074569E-01  0.84665515145E-01 -0.27567095834E-01  0.10393402238E+00  0.51100000000E-03 0.  1.
</event>
<event>
 8    1  0.1197213E+005  0.1043930E+01  0.7957747E-01            NaN
         13   -1    0    0    0    0  0.00000000000E+00  0.00000000000E+00  0.74505805969E-08  0.10566000000E+00  0.10566000000E+00 0.  1.
     999900   -1    0    0    0    0 -0.00000000000E+00 -0.00000000000E+00 -0.74505805969E-08  0.93827000000E+00  0.93827000000E+00 0.  1.
     999902    2    1    2    0    0 -0.12054083821E-01  0.16922955025E-01 -0.14553869525E-01  0.10185626497E+01  0.10182467132E+01 0.  0.
     999903    2    3    3    0    0 -0.38519792011E-01  0.12291548653E+00  0.15543705109E-01  0.13129678511E+00  0.20130767660E-01 0.  0.
         14    1    1    2    0    0  0.12054083821E-01 -0.16922955025E-01  0.14553869525E-01  0.25367350309E-01  0.00000000000E+00 0.  1.
     999901    1    3    3    0    0  0.26465708190E-01 -0.10599253151E+00 -0.30097574634E-01  0.88726586458E+00  0.88000000000E+00 0.  1.
        -11    1    4    4    0    0 -0.29290287325E-01  0.78122548592E-01  0.18513071533E-01  0.85463726040E-01  0.51100000000E-03 0.  1.
         11    1    4    4    0    0 -0.92295046862E-02  0.44792937941E-01 -0.29693664237E-02  0.45833059074E-01  0.51100000000E-03 0. -1.
</event>
<event>
 8    1  0.1197213E+005  0.1043930E+01  0.7957747E-01            NaN
         13   -1    0    0    0    0  0.00000000000E+00  0.00000000000E+00  0.74505805969E-08  0.10566000000E+00  0.10566000000E+00 0. -1.
     999900   -1    0    0    0    0 -0.00000000000E+00 -0.00000000000E+00 -0.74505805969E-08  0.93827000000E+00  0.93827000000E+00 0. -1.
     999902    2    1    2    0    0  0.96827918937E-02  0.94572972874E-02  0.19864748282E-01  0.10198924220E+01  0.10196091150E+01 0.  0.
     999903    2    3    3    0    0  0.38289067833E-01  0.12442540548E+00  0.76247336903E-02  0.13186888467E+00  0.19583971418E-01 0.  0.
         14    1    1    2    0    0 -0.96827918937E-02 -0.94572972874E-02 -0.19864748282E-01  0.24037577980E-01  0.00000000000E+00 0. -1.
     999901    1    3    3    0    0 -0.28606275939E-01 -0.11496810819E+00  0.12240014592E-01  0.88802353735E+00  0.88000000000E+00 0. -1.
        -11    1    4    4    0    0  0.14039325988E-01  0.76618242953E-01  0.75506625496E-02  0.78260663512E-01  0.51100000000E-03 0.  1.
         11    1    4    4    0    0  0.24249741845E-01  0.47807162527E-01  0.74071140642E-04  0.53608221161E-01  0.51100000000E-03 0. -1.
</event>
<event>
 8    1  0.1197213E+005  0.1043930E+01  0.7957747E-01            NaN
         13   -1    0    0    0    0  0.00000000000E+00  0.00000000000E+00  0.74505805969E-08  0.10566000000E+00  0.10566000000E+00 0.  1.
     999900   -1    0    0    0    0 -0.00000000000E+00 -0.00000000000E+00 -0.74505805969E-08  0.93827000000E+00  0.93827000000E+00 0.  1.
     999902    2    1    2    0    0  0.88799139620E-02  0.12342155734E-01 -0.17837116638E-01  0.10204919026E+01  0.10202227104E+01 0.  0.
     999903    2    3    3    0    0 -0.58662009319E-01 -0.10839156394E+00 -0.34205382366E-01  0.12953373153E+00  0.20469903482E-01 0.  0.
         14    1    1    2    0    0 -0.88799139620E-02 -0.12342155734E-01  0.17837116638E-01  0.23438097408E-01  0.00000000000E+00 0.  1.
     999901    1    3    3    0    0  0.67541923281E-01  0.12073371968E+00  0.16368265728E-01  0.89095817107E+00  0.88000000000E+00 0. -1.
        -11    1    4    4    0    0 -0.20688811998E-01 -0.59353163794E-01 -0.19123052234E-01  0.65702185976E-01  0.51100000000E-03 0.  1.
         11    1    4    4    0    0 -0.37973197321E-01 -0.49038400149E-01 -0.15082330132E-01  0.63831545549E-01  0.51100000000E-03 0. -1.
</event>
<event>
 8    1  0.1197213E+005  0.1043930E+01  0.7957747E-01            NaN
         13   -1    0    0    0    0  0.00000000000E+00  0.00000000000E+00  0.74505805969E-08  0.10566000000E+00  0.10566000000E+00 0. -1.
     999900   -1    0    0    0    0 -0.00000000000E+00 -0.00000000000E+00 -0.74505805969E-08  0.93827000000E+00  0.93827000000E+00 0. -1.
     999902    2    1    2    0    0 -0.19415636676E-01  0.13650686218E-01 -0.72905640273E-03  0.10201846909E+01  0.10199083115E+01 0.  0.
     999903    2    3    3    0    0  0.14966397509E-01  0.11844490856E+00  0.51904376364E-01  0.13173985210E+00  0.20202349596E-01 0.  0.
         14    1    1    2    0    0  0.19415636676E-01 -0.13650686218E-01  0.72905640273E-03  0.23745309115E-01  0.00000000000E+00 0.  1.
     999901    1    3    3    0    0 -0.34382034185E-01 -0.10479422234E+00 -0.52633432767E-01  0.88844483878E+00  0.88000000000E+00 0. -1.
        -11    1    4    4    0    0  0.42890425652E-02  0.24386273121E-01  0.20035145522E-01  0.31855209620E-01  0.51100000000E-03 0. -1.
         11    1    4    4    0    0  0.10677354944E-01  0.94058635436E-01  0.31869230843E-01  0.99884642484E-01  0.51100000000E-03 0.  1.
</event>
<event>
 8    1  0.1197213E+005  0.1043930E+01  0.7957747E-01            NaN
         13   -1    0    0    0    0  0.00000000000E+00  0.00000000000E+00  0.74505805969E-08  0.10566000000E+00  0.10566000000E+00 0. -1.
     999900   -1    0    0    0    0 -0.00000000000E+00 -0.00000000000E+00 -0.74505805969E-08  0.93827000000E+00  0.93827000000E+00 0. -1.
     999902    2    1    2    0    0 -0.10848362824E-01 -0.16736936731E-01  0.82839959200E-02  0.10223328563E+01  0.10221047072E+01 0.  0.
     999903    2    3    3    0    0 -0.10994045524E+00 -0.72983795083E-01 -0.17252950712E-01  0.13461945239E+00  0.20277934088E-01 0.  0.
         14    1    1    2    0    0  0.10848362824E-01  0.16736936731E-01 -0.82839959200E-02  0.21597143689E-01  0.00000000000E+00 0. -1.
     999901    1    3    3    0    0  0.99092092417E-01  0.56246858352E-01  0.25536946632E-01  0.88771340392E+00  0.88000000000E+00 0.  1.
        -11    1    4    4    0    0 -0.28959330451E-01 -0.91742980313E-02 -0.28145196551E-02  0.30512181279E-01  0.51100000000E-03 0.  1.
         11    1    4    4    0    0 -0.80981124790E-01 -0.63809497052E-01 -0.14438431057E-01  0.10410727111E+00  0.51100000000E-03 0. -1.
</event>
<event>
 8    1  0.1197213E+005  0.1043930E+01  0.7957747E-01            NaN
         13   -1    0    0    0    0  0.00000000000E+00  0.00000000000E+00  0.74505805969E-08  0.10566000000E+00  0.10566000000E+00 0. -1.
     999900   -1    0    0    0    0 -0.00000000000E+00 -0.00000000000E+00 -0.74505805969E-08  0.93827000000E+00  0.93827000000E+00 0. -1.
     999902    2    1    2    0    0  0.69094969409E-02  0.79347124522E-02 -0.22358079943E-01  0.10192199909E+01  0.10189204117E+01 0.  0.
     999903    2    3    3    0    0  0.62867089732E-01 -0.79927574339E-01 -0.80412458776E-01  0.13117644214E+00  0.20010180815E-01 0.  0.
         14    1    1    2    0    0 -0.69094969409E-02 -0.79347124522E-02  0.22358079943E-01  0.24710009074E-01  0.00000000000E+00 0. -1.
     999901    1    3    3    0    0 -0.55957592791E-01  0.87862286791E-01  0.58054378833E-01  0.88804354878E+00  0.88000000000E+00 0. -1.
        -11    1    4    4    0    0  0.32666685757E-01 -0.28398009406E-01 -0.40950308887E-01  0.59588154993E-01  0.51100000000E-03 0.  1.
         11    1    4    4    0    0  0.30200403975E-01 -0.51529564932E-01 -0.39462149890E-01  0.71588287151E-01  0.51100000000E-03 0. -1.
</event>
<event>
 8    1  0.1197213E+005  0.1043930E+01  0.7957747E-01            NaN
         13   -1    0    0    0    0  0.00000000000E+00  0.00000000000E+00  0.74505805969E-08  0.10566000000E+00  0.10566000000E+00 0.  1.
     999900   -1    0    0    0    0 -0.00000000000E+00 -0.00000000000E+00 -0.74505805969E-08  0.93827000000E+00  0.93827000000E+00 0. -1.
     999902    2    1    2    0    0 -0.63270873855E-02  0.11744764190E-01  0.19255965983E-01  0.10205042930E+01  0.10202353887E+01 0.  0.
     999903    2    3    3    0    0  0.52061571174E-01 -0.11562966558E+00  0.17544663009E-01  0.12941708666E+00  0.18982633260E-01 0.  0.
         14    1    1    2    0    0  0.63270873855E-02 -0.11744764190E-01 -0.19255965983E-01  0.23425706960E-01  0.00000000000E+00 0. -1.
     999901    1    3    3    0    0 -0.58388658559E-01  0.12737442977E+00  0.17113029735E-02  0.89108720638E+00  0.88000000000E+00 0. -1.
        -11    1    4    4    0    0  0.46332549709E-01 -0.88160909168E-01  0.86216349777E-02  0.99968218842E-01  0.51100000000E-03 0.  1.
         11    1    4    4    0    0  0.57290214650E-02 -0.27468756412E-01  0.89230280315E-02  0.29448867822E-01  0.51100000000E-03 0. -1.
</event>
<event>
 8    1  0.1197213E+005  0.1043930E+01  0.7957747E-01            NaN
         13   -1    0    0    0    0  0.00000000000E+00  0.00000000000E+00  0.74505805969E-08  0.10566000000E+00  0.10566000000E+00 0. -1.
     999900   -1    0    0    0    0 -0.00000000000E+00 -0.00000000000E+00 -0.74505805969E-08  0.93827000000E+00  0.93827000000E+00 0. -1.
     999902    2    1    2    0    0  0.14294989837E-03  0.40674265242E-02 -0.19611209177E-01  0.10239009232E+01  0.10237050047E+01 0.  0.
     999903    2    3    3    0    0 -0.12289880590E+00 -0.47762942020E-01  0.51773797774E-02  0.13348521413E+00  0.20151476536E-01 0.  0.
         14    1    1    2    0    0 -0.14294989837E-03 -0.40674265242E-02  0.19611209177E-01  0.20029076828E-01  0.00000000000E+00 0.  1.
     999901    1    3    3    0    0  0.12304175580E+00  0.51830368544E-01 -0.24788588955E-01  0.89041570905E+00  0.88000000000E+00 0.  1.
        -11    1    4    4    0    0 -0.53287388171E-01 -0.12603605233E-01  0.85523640616E-02  0.55423827502E-01  0.51100000000E-03 0.  1.
         11    1    4    4    0    0 -0.69611417730E-01 -0.35159336787E-01 -0.33749842842E-02  0.78061386623E-01  0.51100000000E-03 0. -1.
</event>
<event>
 8    1  0.1197213E+005  0.1043930E+01  0.7957747E-01            NaN
         13   -1    0    0    0    0  0.00000000000E+00  0.00000000000E+00  0.74505805969E-08  0.10566000000E+00  0.10566000000E+00 0. -1.
     999900   -1    0    0    0    0 -0.00000000000E+00 -0.00000000000E+00 -0.74505805969E-08  0.93827000000E+00  0.93827000000E+00 0.  1.
     999902    2    1    2    0    0  0.90299060226E-02  0.12039344840E-01 -0.17862183473E-01  0.10205731461E+01  0.10203058384E+01 0.  0.
     999903    2    3    3    0    0 -0.28339399976E-01  0.11712712189E+00  0.48286949210E-01  0.13107013109E+00  0.18051745794E-01 0.  0.
         14    1    1    2    0    0 -0.90299060226E-02 -0.12039344840E-01  0.17862183473E-01  0.23356853927E-01  0.00000000000E+00 0. -1.
     999901    1    3    3    0    0  0.37369305999E-01 -0.10508777705E+00 -0.66149132683E-01  0.88950301499E+00  0.88000000000E+00 0. -1.
        -11    1    4    4    0    0 -0.34520916305E-02  0.16836718834E-01  0.44860468288E-03  0.17200418742E-01  0.51100000000E-03 0.  1.
         11    1    4    4    0    0 -0.24887308345E-01  0.10029040305E+00  0.47838344527E-01  0.11386971234E+00  0.51100000000E-03 0. -1.
</event>
<event>
 8    1  0.1197213E+005  0.1043930E+01  0.7957747E-01            NaN
         13   -1    0    0    0    0  0.00000000000E+00  0.00000000000E+00  0.74505805969E-08  0.10566000000E+00  0.10566000000E+00 0. -1.
     999900   -1    0    0    0    0 -0.00000000000E+00 -0.00000000000E+00 -0.74505805969E-08  0.93827000000E+00  0.93827000000E+00 0. -1.
     999902    2    1    2    0    0 -0.48085358132E-02  0.20250920965E-01  0.12314145906E-01  0.10197461209E+01  0.10194593132E+01 0.  0.
     999903    2    3    3    0    0 -0.99835846952E-01 -0.15002365333E-02  0.83426652819E-01  0.13151175359E+00  0.19128196088E-01 0.  0.
         14    1    1    2    0    0  0.48085358132E-02 -0.20250920965E-01 -0.12314145906E-01  0.24183879052E-01  0.00000000000E+00 0. -1.
     999901    1    3    3    0    0  0.95027311139E-01  0.21751157499E-01 -0.71112506913E-01  0.88823436736E+00  0.88000000000E+00 0. -1.
        -11    1    4    4    0    0 -0.45013955501E-01 -0.93213585414E-03  0.50055898701E-01  0.67327402912E-01  0.51100000000E-03 0. -1.
         11    1    4    4    0    0 -0.54821891451E-01 -0.56810067920E-03  0.33370754118E-01  0.64184350679E-01  0.51100000000E-03 0.  1.
</event>
<event>
 8    1  0.1197213E+005  0.1043930E+01  0.7957747E-01            NaN
         13   -1    0    0    0    0  0.00000000000E+00  0.00000000000E+00  0.74505805969E-08  0.10566000000E+00  0.10566000000E+00 0.  1.
     999900   -1    0    0    0    0 -0.00000000000E+00 -0.00000000000E+00 -0.74505805969E-08  0.93827000000E+00  0.93827000000E+00 0.  1.
     999902    2    1    2    0    0 -0.12562756055E-01 -0.31989043545E-02 -0.20538239056E-01  0.10196426557E+01  0.10193533589E+01 0.  0.
     999903    2    3    3    0    0  0.96741478881E-01 -0.81230857737E-01 -0.19034246498E-01  0.12945241565E+00  0.20934645740E-01 0.  0.
         14    1    1    2    0    0  0.12562756055E-01  0.31989043545E-02  0.20538239056E-01  0.24287344283E-01  0.00000000000E+00 0.  1.
     999901    1    3    3    0    0 -0.10930423494E+00  0.78031953383E-01 -0.15039925581E-02  0.89019024007E+00  0.88000000000E+00 0. -1.
        -11    1    4    4    0    0  0.50529245916E-01 -0.55832793391E-01 -0.10541121831E-01  0.76038686740E-01  0.51100000000E-03 0.  1.
         11    1    4    4    0    0  0.46212232964E-01 -0.25398064346E-01 -0.84931246673E-02  0.53413728906E-01  0.51100000000E-03 0. -1.
</event>
<event>
 8    1  0.1197213E+005  0.1043930E+01  0.7957747E-01            NaN
         13   -1    0    0    0    0  0.00000000000E+00  0.00000000000E+00  0.74505805969E-08  0.10566000000E+00  0.10566000000E+00 0.  1.
     999900   -1    0    0    0    0 -0.00000000000E+00 -0.00000000000E+00 -0.74505805969E-08  0.93827000000E+00  0.93827000000E+00 0. -1.
     999902    2    1    2    0    0 -0.13730588432E-01 -0.13840161910E-01  0.14448790479E-01  0.10196638366E+01  0.10193750502E+01 0.  0.
     999903    2    3    3    0    0 -0.10685121002E+00  0.67982426552E-01 -0.22943990511E-01  0.13018949395E+00  0.19598118026E-01 0.  0.
         14    1    1    2    0    0  0.13730588432E-01  0.13840161910E-01 -0.14448790479E-01  0.24266163411E-01  0.00000000000E+00 0.  1.
     999901    1    3    3    0    0  0.93120621591E-01 -0.81822588462E-01  0.37392780990E-01  0.88947434264E+00  0.88000000000E+00 0. -1.
        -11    1    4    4    0    0 -0.42442566515E-01  0.33975444906E-01 -0.17643909012E-01  0.57160046844E-01  0.51100000000E-03 0. -1.
         11    1    4    4    0    0 -0.64408643509E-01  0.34006981646E-01 -0.53000814983E-02  0.73029447103E-01  0.51100000000E-03 0.  1.
</event>
<event>
 8    1  0.1197213E+005  0.1043930E+01  0.7957747E-01            NaN
         13   -1    0    0    0    0  0.00000000000E+00  0.00000000000E+00  0.74505805969E-08  0.10566000000E+00  0.10566000000E+00 0.  1.
     999900   -1    0    0    0    0 -0.00000000000E+00 -0.00000000000E+00 -0.74505805969E-08  0.93827000000E+00  0.93827000000E+00 0. -1.
     999902    2    1    2    0    0  0.12793050029E-01  0.12836812297E-01 -0.13236364946E-01  0.10214879137E+01  0.10212413577E+01 0.  0.
     999903    2    3    3    0    0 -0.79069721237E-01  0.73825567592E-01  0.70506828151E-01  0.13066171328E+00  0.19975866835E-01 0.  0.
         14    1    1    2    0    0 -0.12793050029E-01 -0.12836812297E-01  0.13236364946E-01  0.22442086266E-01  0.00000000000E+00 0.  1.
     999901    1    3    3    0    0  0.91862771265E-01 -0.60988755295E-01 -0.83743193097E-01  0.89082620045E+00  0.88000000000E+00 0. -1.
        -11    1    4    4    0    0 -0.40972652621E-01  0.37464864291E-01  0.47977213027E-01  0.73378800821E-01  0.51100000000E-03 0.  1.
         11    1    4    4    0    0 -0.38097068616E-01  0.36360703301E-01  0.22529615125E-01  0.57282912464E-01  0.51100000000E-03 0. -1.
</event>
<event>
 8    1  0.1197213E+005  0.1043930E+01  0.7957747E-01            NaN
         13   -1    0    0    0    0  0.00000000000E+00  0.00000000000E+00  0.74505805969E-08  0.10566000000E+00  0.10566000000E+00 0.  1.
     999900   -1    0    0    0    0 -0.00000000000E+00 -0.00000000000E+00 -0.74505805969E-08  0.93827000000E+00  0.93827000000E+00 0. -1.
     999902    2    1    2    0    0  0.63487066776E-02  0.22611123652E-01 -0.24084081275E-02  0.10203213275E+01  0.10200481566E+01 0.  0.
     999903    2    3    3    0    0 -0.38924268528E-01  0.22570677844E-01  0.12081555679E+00  0.13058328205E+00  0.20761999207E-01 0.  0.
         14    1    1    2    0    0 -0.63487066776E-02 -0.22611123652E-01  0.24084081275E-02  0.23608672538E-01  0.00000000000E+00 0.  1.
     999901    1    3    3    0    0  0.45272975205E-01  0.40445807822E-04 -0.12322396491E+00  0.88973804541E+00  0.88000000000E+00 0. -1.
        -11    1    4    4    0    0 -0.29038199156E-01  0.23921663130E-01  0.77775287281E-01  0.86398607684E-01  0.51100000000E-03 0. -1.
         11    1    4    4    0    0 -0.98860693715E-02 -0.13509852861E-02  0.43040269507E-01  0.44184674369E-01  0.51100000000E-03 0.  1.
</event>
<event>
 8    1  0.1197213E+005  0.1043930E+01  0.7957747E-01            NaN
         13   -1    0    0    0    0  0.00000000000E+00  0.00000000000E+00  0.74505805969E-08  0.10566000000E+00  0.10566000000E+00 0. -1.
     999900   -1    0    0    0    0 -0.00000000000E+00 -0.00000000000E+00 -0.74505805969E-08  0.93827000000E+00  0.93827000000E+00 0. -1.
     999902    2    1    2    0    0 -0.14973782227E-02  0.23400443192E-01  0.38090894317E-03  0.10204786040E+01  0.10202091027E+01 0.  0.
     999903    2    3    3    0    0 -0.11883223424E+00  0.54742773397E-01  0.19431275811E-02  0.13213618655E+00  0.18393610774E-01 0.  0.
         14    1    1    2    0    0  0.14973782227E-02 -0.23400443192E-01 -0.38090894317E-03  0.23451396009E-01  0.00000000000E+00 0.  1.
     999901    1    3    3    0    0  0.11733485602E+00 -0.31342330204E-01 -0.15622186380E-02  0.88834241744E+00  0.88000000000E+00 0. -1.
        -11    1    4    4    0    0 -0.83643790883E-01  0.31770862965E-01 -0.46470836158E-02  0.89596473111E-01  0.51100000000E-03 0. -1.
         11    1    4    4    0    0 -0.35188443358E-01  0.22971910432E-01  0.65902111969E-02  0.42539713439E-01  0.51100000000E-03 0.  1.
</event>
<event>
 8    1  0.1197213E+005  0.1043930E+01  0.7957747E-01            NaN
         13   -1    0    0    0    0  0.00000000000E+00  0.00000000000E+00  0.74505805969E-08  0.10566000000E+00  0.10566000000E+00 0. -1.
     999900   -1    0    0    0    0 -0.00000000000E+00 -0.00000000000E+00 -0.74505805969E-08  0.93827000000E+00  0.93827000000E+00 0.  1.
     999902    2    1    2    0    0 -0.12767607440E-01 -0.19884213337E-01  0.71767306772E-03  0.10202887480E+01  0.10200148139E+01 0.  0.
     999903    2    3    3    0    0  0.81034136468E-01  0.96611051382E-01 -0.17222935787E-02  0.12766572161E+00  0.19883250684E-01 0.  0.
         14    1    1    2    0    0  0.12767607440E-01  0.19884213337E-01 -0.71767306772E-03  0.23641251964E-01  0.00000000000E+00 0.  1.
     999901    1    3    3    0    0 -0.93801743909E-01 -0.11649526472E+00  0.24399666465E-02  0.89262302642E+00  0.88000000000E+00 0.  1.
        -11    1    4    4    0    0  0.30928940555E-01  0.23536350712E-01  0.26002564307E-02  0.38956150005E-01  0.51100000000E-03 0.  1.
         11    1    4    4    0    0  0.50105195914E-01  0.73074700670E-01 -0.43225500094E-02  0.88709571609E-01  0.51100000000E-03 0. -1.
</event>
<event>
 8    1  0.1197213E+005  0.1043930E+01  0.7957747E-01            NaN
         13   -1    0    0    0    0  0.00000000000E+00  0.00000000000E+00  0.74505805969E-08  0.10566000000E+00  0.10566000000E+00 0. -1.
     999900   -1    0    0    0    0 -0.00000000000E+00 -0.00000000000E+00 -0.74505805969E-08  0.93827000000E+00  0.93827000000E+00 0. -1.
     999902    2    1    2    0    0 -0.60428186830E-02  0.74423022588E-02 -0.21331313134E-01  0.10205434988E+01  0.10202755042E+01 0.  0.
     999903    2    3    3    0    0 -0.95039765266E-01 -0.85254530886E-01  0.21088609134E-01  0.13019940281E+00  0.14361860550E-01 0.  0.
         14    1    1    2    0    0  0.60428186830E-02 -0.74423022588E-02  0.21331313134E-01  0.23386501247E-01  0.00000000000E+00 0. -1.
     999901    1    3    3    0    0  0.88996946583E-01  0.92696833145E-01 -0.42419922268E-01  0.89034409594E+00  0.88000000000E+00 0. -1.
        -11    1    4    4    0    0 -0.31218235610E-01 -0.27659881277E-01  0.13741834868E-01  0.43917495528E-01  0.51100000000E-03 0. -1.
         11    1    4    4    0    0 -0.63821529656E-01 -0.57594649609E-01  0.73467742663E-02  0.86281907282E-01  0.51100000000E-03 0.  1.
</event>
<event>
 8    1  0.1197213E+005  0.1043930E+01  0.7957747E-01            NaN
         13   -1    0    0    0    0  0.00000000000E+00  0.00000000000E+00  0.74505805969E-08  0.10566000000E+00  0.10566000000E+00 0.  1.
     999900   -1    0    0    0    0 -0.00000000000E+00 -0.00000000000E+00 -0.74505805969E-08  0.93827000000E+00  0.93827000000E+00 0.  1.
     999902    2    1    2    0    0 -0.53459540585E-02  0.19340253676E-01 -0.12548865097E-01  0.10202635965E+01  0.10199890724E+01 0.  0.
     999903    2    3    3    0    0 -0.81453409615E-01  0.32809887332E-01  0.94445637233E-01  0.13042001515E+00  0.19448787000E-01 0.  0.
         14    1    1    2    0    0  0.53459540585E-02 -0.19340253676E-01  0.12548865097E-01  0.23666403450E-01  0.00000000000E+00 0.  1.
     999901    1    3    3    0    0  0.76107455556E-01 -0.13469633657E-01 -0.10699450233E+00  0.88984358140E+00  0.88000000000E+00 0.  1.
        -11    1    4    4    0    0 -0.60454524369E-01  0.14890184482E-01  0.63074292937E-01  0.88628971906E-01  0.51100000000E-03 0. -1.
         11    1    4    4    0    0 -0.20998885245E-01  0.17919702851E-01  0.31371344296E-01  0.41791043248E-01  0.51100000000E-03 0.  1.
</event>
<event>
 8    1  0.1197213E+005  0.1043930E+01  0.7957747E-01            NaN
         13   -1    0    0    0    0  0.00000000000E+00  0.00000000000E+00  0.74505805969E-08  0.10566000000E+00  0.10566000000E+00 0. -1.
     999900   -1    0    0    0    0 -0.00000000000E+00 -0.00000000000E+00 -0.74505805969E-08  0.93827000000E+00  0.93827000000E+00 0. -1.
     999902    2    1    2    0    0  0.19571847682E-01  0.66639398263E-02 -0.97454354310E-02  0.10210730792E+01  0.10208172188E+01 0.  0.
     999903    2    3    3    0    0  0.53284070630E-02  0.15677007839E-01  0.12804481552E+00  0.13019134507E+00  0.16737713444E-01 0.  0.
         14    1    1    2    0    0 -0.19571847682E-01 -0.66639398263E-02  0.97454354310E-02  0.22856920778E-01  0.00000000000E+00 0.  1.
     999901    1    3    3    0    0  0.14243440619E-01 -0.90130680125E-02 -0.13779025095E+00  0.89088173416E+00  0.88000000000E+00 0. -1.
        -11    1    4    4    0    0  0.21514778957E-02  0.16276721195E-01  0.64381942196E-01  0.66444383600E-01  0.51100000000E-03 0. -1.
         11    1    4    4    0    0  0.31769291673E-02 -0.59971335629E-03  0.63662873326E-01  0.63746961466E-01  0.51100000000E-03 0.  1.
</event>
<event>
 8    1  0.1197213E+005  0.1043930E+01  0.7957747E-01            NaN
         13   -1    0    0    0    0  0.00000000000E+00  0.00000000000E+00  0.74505805969E-08  0.10566000000E+00  0.10566000000E+00 0.  1.
     999900   -1    0    0    0    0 -0.00000000000E+00 -0.00000000000E+00 -0.74505805969E-08  0.93827000000E+00  0.93827000000E+00 0.  1.
     999902    2    1    2    0    0 -0.54476074800E-02  0.18609415946E-01 -0.13539707310E-01  0.10202802545E+01  0.10200061212E+01 0.  0.
     999903    2    3    3    0    0 -0.35804579981E-01  0.11729946418E+00 -0.48925182077E-01  0.13353711060E+00  0.19933745777E-01 0.  0.
         14    1    1    2    0    0  0.54476074800E-02 -0.18609415946E-01  0.13539707310E-01  0.23649745520E-01  0.00000000000E+00 0.  1.
     999901    1    3    3    0    0  0.30356972501E-01 -0.98690048233E-01  0.35385474766E-01  0.88674314388E+00  0.88000000000E+00 0.  1.
        -11    1    4    4    0    0 -0.10028355646E-01  0.66672159209E-01 -0.27546737594E-01  0.72834254329E-01  0.51100000000E-03 0.  1.
         11    1    4    4    0    0 -0.25776224334E-01  0.50627304971E-01 -0.21378444483E-01  0.60702856268E-01  0.51100000000E-03 0. -1.
</event>
<event>
 8    1  0.1197213E+005  0.1043930E+01  0.7957747E-01            NaN
         13   -1    0    0    0    0  0.00000000000E+00  0.00000000000E+00  0.74505805969E-08  0.10566000000E+00  0.10566000000E+00 0.  1.
     999900   -1    0    0    0    0 -0.00000000000E+00 -0.00000000000E+00 -0.74505805969E-08  0.93827000000E+00  0.93827000000E+00 0.  1.
     999902    2    1    2    0    0  0.14996159292E-01  0.11058217247E-01  0.11350867139E-01  0.10221123203E+01  0.10218794372E+01 0.  0.
     999903    2    3    3    0    0  0.78031765838E-01  0.59332316813E-01 -0.87584432459E-01  0.13301611073E+00  0.20321727461E-01 0.  0.
         14    1    1    2    0    0 -0.14996159292E-01 -0.11058217247E-01 -0.11350867139E-01  0.21817679689E-01  0.00000000000E+00 0.  1.
     999901    1    3    3    0    0 -0.63035606546E-01 -0.48274099566E-01  0.98935299597E-01  0.88909620958E+00  0.88000000000E+00 0. -1.
        -11    1    4    4    0    0  0.26489635254E-01  0.32496268780E-01 -0.39186999437E-01  0.57389810127E-01  0.51100000000E-03 0. -1.
         11    1    4    4    0    0  0.51542130584E-01  0.26836048033E-01 -0.48397433022E-01  0.75626300605E-01  0.51100000000E-03 0.  1.
</event>
<event>
 8    1  0.1197213E+005  0.1043930E+01  0.7957747E-01            NaN
         13   -1    0    0    0    0  0.00000000000E+00  0.00000000000E+00  0.74505805969E-08  0.10566000000E+00  0.10566000000E+00 0. -1.
     999900   -1    0    0    0    0 -0.00000000000E+00 -0.00000000000E+00 -0.74505805969E-08  0.93827000000E+00  0.93827000000E+00 0.  1.
     999902    2    1    2    0    0  0.17285545577E-02  0.43333346613E-02 -0.23704644614E-01  0.10197706154E+01  0.10194843952E+01 0.  0.
     999903    2    3    3    0    0 -0.45724978807E-01  0.77807018389E-01 -0.95087421017E-01  0.13255828406E+00  0.19630976560E-01 0.  0.
         14    1    1    2    0    0 -0.17285545577E-02 -0.43333346613E-02  0.23704644614E-01  0.24159384645E-01  0.00000000000E+00 0. -1.
     999901    1    3    3    0    0  0.47453533365E-01 -0.73473683727E-01  0.71382776403E-01  0.88721233129E+00  0.88000000000E+00 0.  1.
        -11    1    4    4    0    0 -0.57223836302E-02  0.21582567232E-01 -0.32258866553E-01  0.39235806033E-01  0.51100000000E-03 0. -1.
         11    1    4    4    0    0 -0.40002595177E-01  0.56224451156E-01 -0.62828554464E-01  0.93322478030E-01  0.51100000000E-03 0.  1.
</event>
<event>
 8    1  0.1197213E+005  0.1043930E+01  0.7957747E-01            NaN
         13   -1    0    0    0    0  0.00000000000E+00  0.00000000000E+00  0.74505805969E-08  0.10566000000E+00  0.10566000000E+00 0. -1.
     999900   -1    0    0    0    0 -0.00000000000E+00 -0.00000000000E+00 -0.74505805969E-08  0.93827000000E+00  0.93827000000E+00 0. -1.
     999902    2    1    2    0    0  0.11177061159E-01  0.18191591518E-01 -0.10124255672E-01  0.10203003311E+01  0.10200266685E+01 0.  0.
     999903    2    3    3    0    0  0.12358991565E+00  0.14641940863E-01  0.40060170167E-01  0.13172409553E+00  0.16048876208E-01 0.  0.
         14    1    1    2    0    0 -0.11177061159E-01 -0.18191591518E-01  0.10124255672E-01  0.23629668873E-01  0.00000000000E+00 0. -1.
     999901    1    3    3    0    0 -0.11241285449E+00  0.35496506547E-02 -0.50184425839E-01  0.88857623560E+00  0.88000000000E+00 0. -1.
        -11    1    4    4    0    0  0.55334948225E-01  0.51756346486E-02  0.26152809935E-01  0.61424541330E-01  0.51100000000E-03 0.  1.
         11    1    4    4    0    0  0.68254967421E-01  0.94663062146E-02  0.13907360231E-01  0.70299554199E-01  0.51100000000E-03 0. -1.
</event>
<event>
 8    1  0.1197213E+005  0.1043930E+01  0.7957747E-01            NaN
         13   -1    0    0    0    0  0.00000000000E+00  0.00000000000E+00  0.74505805969E-08  0.10566000000E+00  0.10566000000E+00 0. -1.
     999900   -1    0    0    0    0 -0.00000000000E+00 -0.00000000000E+00 -0.74505805969E-08  0.93827000000E+00  0.93827000000E+00 0.  1.
     999902    2    1    2    0    0 -0.16991360852E-01  0.14939146024E-01  0.73119312476E-02  0.10201529361E+01  0.10198758083E+01 0.  0.
     999903    2    3    3    0    0 -0.32967624009E-01 -0.12032033353E+00 -0.27365890246E-01  0.12900035711E+00  0.18120521338E-01 0.  0.
         14    1    1    2    0    0  0.16991360852E-01 -0.14939146024E-01 -0.73119312476E-02  0.23777063866E-01  0.00000000000E+00 0.  1.
     999901    1    3    3    0    0  0.15976263157E-01  0.13525947955E+00  0.34677821494E-01  0.89115257902E+00  0.88000000000E+00 0. -1.
        -11    1    4    4    0    0 -0.60570159963E-02 -0.52921514953E-01 -0.15358812744E-01  0.55439412313E-01  0.51100000000E-03 0. -1.
         11    1    4    4    0    0 -0.26910608012E-01 -0.67398818574E-01 -0.12007077502E-01  0.73560944800E-01  0.51100000000E-03 0.  1.
</event>
<event>
 8    1  0.1197213E+005  0.1043930E+01  0.7957747E-01            NaN
         13   -1    0    0    0    0  0.00000000000E+00  0.00000000000E+00  0.74505805969E-08  0.10566000000E+00  0.10566000000E+00 0.  1.
     999900   -1    0    0    0    0 -0.00000000000E+00 -0.00000000000E+00 -0.74505805969E-08  0.93827000000E+00  0.93827000000E+00 0. -1.
     999902    2    1    2    0    0  0.58331722722E-02 -0.22380459789E-01  0.78031197508E-03  0.10207887000E+01  0.10205263594E+01 0.  0.
     999903    2    3    3    0    0 -0.79893246250E-01  0.46259792027E-02 -0.10066999132E+00  0.13041207709E+00  0.21645605061E-01 0.  0.
         14    1    1    2    0    0 -0.58331722722E-02  0.22380459789E-01 -0.78031197508E-03  0.23141300004E-01  0.00000000000E+00 0.  1.
     999901    1    3    3    0    0  0.85726418522E-01 -0.27006438991E-01  0.10145030330E+00  0.89037662291E+00  0.88000000000E+00 0.  1.
        -11    1    4    4    0    0 -0.39506707290E-01  0.38811724094E-02 -0.66746746186E-01  0.77661011245E-01  0.51100000000E-03 0.  1.
         11    1    4    4    0    0 -0.40386538960E-01  0.74480679331E-03 -0.33923245134E-01  0.52751065845E-01  0.51100000000E-03 0. -1.
</event>
<event>
 8    1  0.1197213E+005  0.1043930E+01  0.7957747E-01            NaN
         13   -1    0    0    0    0  0.00000000000E+00  0.00000000000E+00  0.74505805969E-08  0.10566000000E+00  0.10566000000E+00 0.  1.
     999900   -1    0    0    0    0 -0.00000000000E+00 -0.00000000000E+00 -0.74505805969E-08  0.93827000000E+00  0.93827000000E+00 0.  1.
     999902    2    1    2    0    0 -0.50476668474E-02  0.20161504527E-01  0.97028089475E-02  0.10209929185E+01  0.10207352399E+01 0.  0.
     999903    2    3    3    0    0 -0.54567959415E-01  0.88209601265E-01  0.78269901295E-01  0.13432260267E+00  0.34026286759E-01 0.  0.
         14    1    1    2    0    0  0.50476668474E-02 -0.20161504527E-01 -0.97028089475E-02  0.22937081481E-01  0.00000000000E+00 0.  1.
     999901    1    3    3    0    0  0.49520292567E-01 -0.68048096738E-01 -0.68567092348E-01  0.88667031584E+00  0.88000000000E+00 0.  1.
        -11    1    4    4    0    0 -0.27099873489E-01  0.71515299343E-01  0.61020949013E-01  0.97839963832E-01  0.51100000000E-03 0.  1.
         11    1    4    4    0    0 -0.27468085926E-01  0.16694301922E-01  0.17248952283E-01  0.36482638843E-01  0.51100000000E-03 0. -1.
</event>
<event>
 8    1  0.1197213E+005  0.1043930E+01  0.7957747E-01            NaN
         13   -1    0    0    0    0  0.00000000000E+00  0.00000000000E+00  0.74505805969E-08  0.10566000000E+00  0.10566000000E+00 0.  1.
     999900   -1    0    0    0    0 -0.00000000000E+00 -0.00000000000E+00 -0.74505805969E-08  0.93827000000E+00  0.93827000000E+00 0.  1.
     999902    2    1    2    0    0  0.77624519282E-03  0.28694083471E-01  0.88379724933E-02  0.10138956407E+01  0.10134506931E+01 0.  0.
     999903    2    3    3    0    0  0.14869696098E-01  0.11632860892E+00  0.51986294290E-01  0.12837872209E+00  0.50068329390E-02 0.  0.
         14    1    1    2    0    0 -0.77624519282E-03 -0.28694083471E-01 -0.88379724933E-02  0.30034359335E-01  0.00000000000E+00 0. -1.
     999901    1    3    3    0    0 -0.14093450905E-01 -0.87634525449E-01 -0.43148321797E-01  0.88551691858E+00  0.88000000000E+00 0.  1.
        -11    1    4    4    0    0  0.40576873571E-02  0.48889969536E-01  0.20580246723E-01  0.53202458816E-01  0.51100000000E-03 0.  1.
         11    1    4    4    0    0  0.10812008741E-01  0.67438639384E-01  0.31406047567E-01  0.75176263274E-01  0.51100000000E-03 0. -1.
</event>
<event>
 8    1  0.1197213E+005  0.1043930E+01  0.7957747E-01            NaN
         13   -1    0    0    0    0  0.00000000000E+00  0.00000000000E+00  0.74505805969E-08  0.10566000000E+00  0.10566000000E+00 0. -1.
     999900   -1    0    0    0    0 -0.00000000000E+00 -0.00000000000E+00 -0.74505805969E-08  0.93827000000E+00  0.93827000000E+00 0.  1.
     999902    2    1    2    0    0  0.16895716613E-01 -0.15568045264E-01 -0.40963118722E-02  0.10205931398E+01  0.10203262948E+01 0.  0.
     999903    2    3    3    0    0 -0.31192202983E-01  0.58402486794E-01 -0.10995882433E+00  0.12986817710E+00  0.19773628512E-01 0.  0.
         14    1    1    2    0    0 -0.16895716613E-01  0.15568045264E-01  0.40963118722E-02  0.23336860203E-01  0.00000000000E+00 0. -1.
     999901    1    3    3    0    0  0.48087919596E-01 -0.73970532058E-01  0.10586251246E+00  0.89072496270E+00  0.88000000000E+00 0. -1.
        -11    1    4    4    0    0 -0.22037129652E-01  0.29767031561E-01 -0.44966819272E-01  0.58257936865E-01  0.51100000000E-03 0.  1.
         11    1    4    4    0    0 -0.91550733306E-02  0.28635455233E-01 -0.64992005060E-01  0.71610240237E-01  0.51100000000E-03 0. -1.
</event>
<event>
 8    1  0.1197213E+005  0.1043930E+01  0.7957747E-01            NaN
         13   -1    0    0    0    0  0.00000000000E+00  0.00000000000E+00  0.74505805969E-08  0.10566000000E+00  0.10566000000E+00 0.  1.
     999900   -1    0    0    0    0 -0.00000000000E+00 -0.00000000000E+00 -0.74505805969E-08  0.93827000000E+00  0.93827000000E+00 0. -1.
     999902    2    1    2    0    0 -0.63048566122E-03  0.12777978376E-01  0.19624489196E-01  0.10205036298E+01  0.10202347101E+01 0.  0.
     999903    2    3    3    0    0  0.10962639088E+00 -0.12934177968E-02  0.70511871568E-01  0.13205323239E+00  0.21130869495E-01 0.  0.
         14    1    1    2    0    0  0.63048566122E-03 -0.12777978376E-01 -0.19624489196E-01  0.23426370179E-01  0.00000000000E+00 0. -1.
     999901    1    3    3    0    0 -0.11025687654E+00  0.14071396173E-01 -0.50887382372E-01  0.88845039743E+00  0.88000000000E+00 0. -1.
        -11    1    4    4    0    0  0.49010305372E-01  0.57933112943E-02  0.21747883479E-01  0.53933329632E-01  0.51100000000E-03 0. -1.
         11    1    4    4    0    0  0.60616085506E-01 -0.70867290911E-02  0.48763988088E-01  0.78119902756E-01  0.51100000000E-03 0.  1.
</event>
<event>
 8    1  0.1197213E+005  0.1043930E+01  0.7957747E-01            NaN
         13   -1    0    0    0    0  0.00000000000E+00  0.00000000000E+00  0.74505805969E-08  0.10566000000E+00  0.10566000000E+00 0. -1.
     999900   -1    0    0    0    0 -0.00000000000E+00 -0.00000000000E+00 -0.74505805969E-08  0.93827000000E+00  0.93827000000E+00 0. -1.
     999902    2    1    2    0    0 -0.26440597201E-01  0.13754190702E-01  0.74599003865E-02  0.10132065064E+01  0.10127405846E+01 0.  0.
     999903    2    3    3    0    0  0.12467975866E-01  0.12201484799E+00 -0.16440397416E-01  0.12539713997E+00  0.20275169352E-01 0.  0.
         14    1    1    2    0    0  0.26440597201E-01 -0.13754190702E-01 -0.74599003865E-02  0.30723493551E-01  0.00000000000E+00 0.  1.
     999901    1    3    3    0    0 -0.38908573067E-01 -0.10826065729E+00  0.23900297803E-01  0.88780936648E+00  0.88000000000E+00 0.  1.
        -11    1    4    4    0    0  0.25571247406E-02  0.69240247341E-01 -0.18300576344E-01  0.71665353932E-01  0.51100000000E-03 0. -1.
         11    1    4    4    0    0  0.99108511255E-02  0.52774600652E-01  0.18601789273E-02  0.53731786036E-01  0.51100000000E-03 0.  1.
</event>
<event>
 8    1  0.1197213E+005  0.1043930E+01  0.7957747E-01            NaN
         13   -1    0    0    0    0  0.00000000000E+00  0.00000000000E+00  0.74505805969E-08  0.10566000000E+00  0.10566000000E+00 0. -1.
     999900   -1    0    0    0    0 -0.00000000000E+00 -0.00000000000E+00 -0.74505805969E-08  0.93827000000E+00  0.93827000000E+00 0. -1.
     999902    2    1    2    0    0 -0.59544251457E-02 -0.20058365478E-01 -0.12496846213E-01  0.10195586158E+01  0.10192672891E+01 0.  0.
     999903    2    3    3    0    0  0.85290929868E-01  0.88141106402E-01  0.27910906429E-01  0.12733351692E+00  0.19784046053E-01 0.  0.
         14    1    1    2    0    0  0.59544251457E-02  0.20058365478E-01  0.12496846213E-01  0.24371384240E-01  0.00000000000E+00 0. -1.
     999901    1    3    3    0    0 -0.91245355014E-01 -0.10819947188E+00 -0.40407752642E-01  0.89222509884E+00  0.88000000000E+00 0. -1.
        -11    1    4    4    0    0  0.31529711010E-01  0.36328034820E-01  0.20529890680E-01  0.52302832835E-01  0.51100000000E-03 0.  1.
         11    1    4    4    0    0  0.53761218858E-01  0.51813071582E-01  0.73810157486E-02  0.75030684085E-01  0.51100000000E-03 0. -1.
</event>
<event>
 8    1  0.1197213E+005  0.1043930E+01  0.7957747E-01            NaN
         13   -1    0    0    0    0  0.00000000000E+00  0.00000000000E+00  0.74505805969E-08  0.10566000000E+00  0.10566000000E+00 0. -1.
     999900   -1    0    0    0    0 -0.00000000000E+00 -0.00000000000E+00 -0.74505805969E-08  0.93827000000E+00  0.93827000000E+00 0.  1.
     999902    2    1    2    0    0 -0.10051971795E-01  0.20641473157E-01 -0.74805357857E-02  0.10197831375E+01  0.10194972176E+01 0.  0.
     999903    2    3    3    0    0 -0.76091587243E-01  0.31288655325E-01  0.99814930908E-01  0.13074606831E+00  0.19042172778E-01 0.  0.
         14    1    1    2    0    0  0.10051971795E-01 -0.20641473157E-01  0.74805357857E-02  0.24146862461E-01  0.00000000000E+00 0. -1.
     999901    1    3    3    0    0  0.66039615448E-01 -0.10647182167E-01 -0.10729546669E+00  0.88903706923E+00  0.88000000000E+00 0.  1.
        -11    1    4    4    0    0 -0.59871148554E-01  0.15645528602E-01  0.71769874003E-01  0.94765568272E-01  0.51100000000E-03 0.  1.
         11    1    4    4    0    0 -0.16220438689E-01  0.15643126722E-01  0.28045056906E-01  0.35980500035E-01  0.51100000000E-03 0. -1.
</event>
<event>
 8    1  0.1197213E+005  0.1043930E+01  0.7957747E-01            NaN
         13   -1    0    0    0    0  0.00000000000E+00  0.00000000000E+00  0.74505805969E-08  0.10566000000E+00  0.10566000000E+00 0.  1.
     999900   -1    0    0    0    0 -0.00000000000E+00 -0.00000000000E+00 -0.74505805969E-08  0.93827000000E+00  0.93827000000E+00 0.  1.
     999902    2    1    2    0    0  0.19666229971E-01 -0.13323891827E-01  0.39268828757E-02  0.10198528925E+01  0.10195686418E+01 0.  0.
     999903    2    3    3    0    0  0.26901442033E-01  0.11013027656E+00  0.59336322759E-01  0.12948022561E+00  0.19798086443E-01 0.  0.
         14    1    1    2    0    0 -0.19666229971E-01  0.13323891827E-01 -0.39268828757E-02  0.24077107464E-01  0.00000000000E+00 0. -1.
     999901    1    3    3    0    0 -0.72352120623E-02 -0.12345416838E+00 -0.55409439883E-01  0.89037266693E+00  0.88000000000E+00 0.  1.
        -11    1    4    4    0    0  0.27133174920E-01  0.74676658766E-01  0.37732600571E-01  0.87959211073E-01  0.51100000000E-03 0.  1.
         11    1    4    4    0    0 -0.23173288707E-03  0.35453617792E-01  0.21603722188E-01  0.41521014535E-01  0.51100000000E-03 0. -1.
</event>
<event>
 8    1  0.1197213E+005  0.1043930E+01  0.7957747E-01            NaN
         13   -1    0    0    0    0  0.00000000000E+00  0.00000000000E+00  0.74505805969E-08  0.10566000000E+00  0.10566000000E+00 0.  1.
     999900   -1    0    0    0    0 -0.00000000000E+00 -0.00000000000E+00 -0.74505805969E-08  0.93827000000E+00  0.93827000000E+00 0.  1.
     999902    2    1    2    0    0 -0.44408791119E-02  0.61355797446E-03 -0.23224678308E-01  0.10202765955E+01  0.10200023764E+01 0.  0.
     999903    2    3    3    0    0  0.12176366809E+00 -0.33961699806E-01  0.20254617846E-01  0.12953898805E+00  0.19756314430E-01 0.  0.
         14    1    1    2    0    0  0.44408791119E-02 -0.61355797446E-03  0.23224678308E-01  0.23653404474E-01  0.00000000000E+00 0.  1.
     999901    1    3    3    0    0 -0.12620454720E+00  0.34575257780E-01 -0.43479296155E-01  0.89073760748E+00  0.88000000000E+00 0. -1.
        -11    1    4    4    0    0  0.62689385039E-01 -0.27513807900E-01  0.89477594418E-02  0.69045580175E-01  0.51100000000E-03 0.  1.
         11    1    4    4    0    0  0.59074283050E-01 -0.64478919058E-02  0.11306858405E-01  0.60493407871E-01  0.51100000000E-03 0. -1.
</event>
<event>
 8    1  0.1197213E+005  0.1043930E+01  0.7957747E-01            NaN
         13   -1    0    0    0    0  0.00000000000E+00  0.00000000000E+00  0.74505805969E-08  0.10566000000E+00  0.10566000000E+00 0. -1.
     999900   -1    0    0    0    0 -0.00000000000E+00 -0.00000000000E+00 -0.74505805969E-08  0.93827000000E+00  0.93827000000E+00 0.  1.
     999902    2    1    2    0    0 -0.15079814369E-01  0.17995986888E-01  0.86242862051E-03  0.10204353170E+01  0.10201648083E+01 0.  0.
     999903    2    3    3    0    0  0.52435974973E-01  0.61584319855E-01 -0.10115510658E+00  0.13090403478E+00  0.19009229624E-01 0.  0.
         14    1    1    2    0    0  0.15079814369E-01 -0.17995986888E-01 -0.86242862051E-03  0.23494682986E-01  0.00000000000E+00 0.  1.
     999901    1    3    3    0    0 -0.67515789342E-01 -0.43588332967E-01  0.10201753520E+00  0.88953128223E+00  0.88000000000E+00 0. -1.
        -11    1    4    4    0    0  0.38824819346E-01  0.32210516676E-01 -0.56495732146E-01  0.75742411195E-01  0.51100000000E-03 0.  1.
         11    1    4    4    0    0  0.13611155627E-01  0.29373803179E-01 -0.44659374437E-01  0.55161623587E-01  0.51100000000E-03 0. -1.
</event>
<event>
 8    1  0.1197213E+005  0.1043930E+01  0.7957747E-01            NaN
         13   -1    0    0    0    0  0.00000000000E+00  0.00000000000E+00  0.74505805969E-08  0.10566000000E+00  0.10566000000E+00 0. -1.
     999900   -1    0    0    0    0 -0.00000000000E+00 -0.00000000000E+00 -0.74505805969E-08  0.93827000000E+00  0.93827000000E+00 0. -1.
     999902    2    1    2    0    0  0.21560188436E-01  0.39432502094E-03  0.91784165143E-02  0.10204941184E+01  0.10202249777E+01 0.  0.
     999903    2    3    3    0    0  0.73671650746E-01  0.78624467804E-01 -0.73084286947E-01  0.13167315096E+00  0.19677058318E-01 0.  0.
         14    1    1    2    0    0 -0.21560188436E-01 -0.39432502094E-03 -0.91784165143E-02  0.23435881621E-01  0.00000000000E+00 0. -1.
     999901    1    3    3    0    0 -0.52111462310E-01 -0.78230142783E-01  0.82262703461E-01  0.88882096742E+00  0.88000000000E+00 0.  1.
        -11    1    4    4    0    0  0.39579084107E-01  0.43905986841E-01 -0.51651340642E-01  0.78500711401E-01  0.51100000000E-03 0.  1.
         11    1    4    4    0    0  0.34092566638E-01  0.34718480963E-01 -0.21432946305E-01  0.53172439559E-01  0.51100000000E-03 0. -1.
</event>
<event>
 8    1  0.1197213E+005  0.1043930E+01  0.7957747E-01            NaN
         13   -1    0    0    0    0  0.00000000000E+00  0.00000000000E+00  0.74505805969E-08  0.10566000000E+00  0.10566000000E+00 0. -1.
     999900   -1    0    0    0    0 -0.00000000000E+00 -0.00000000000E+00 -0.74505805969E-08  0.93827000000E+00  0.93827000000E+00 0. -1.
     999902    2    1    2    0    0 -0.86497567240E-02  0.94297091940E-03  0.22068247348E-01  0.10202083848E+01  0.10199325632E+01 0.  0.
     999903    2    3    3    0    0 -0.53064697320E-01  0.11804081792E+00  0.96330874188E-02  0.13125437818E+00  0.19632081484E-01 0.  0.
         14    1    1    2    0    0  0.86497567240E-02 -0.94297091940E-03 -0.22068247348E-01  0.23721615176E-01  0.00000000000E+00 0.  1.
     999901    1    3    3    0    0  0.44414940596E-01 -0.11709784700E+00  0.12435159929E-01  0.88895400664E+00  0.88000000000E+00 0.  1.
        -11    1    4    4    0    0 -0.13209148319E-01  0.52722586741E-01  0.53055412421E-02  0.54612843186E-01  0.51100000000E-03 0. -1.
         11    1    4    4    0    0 -0.39855549001E-01  0.65318231174E-01  0.43275461767E-02  0.76641534998E-01  0.51100000000E-03 0.  1.
</event>
<event>
 8    1  0.1197213E+005  0.1043930E+01  0.7957747E-01            NaN
         13   -1    0    0    0    0  0.00000000000E+00  0.00000000000E+00  0.74505805969E-08  0.10566000000E+00  0.10566000000E+00 0.  1.
     999900   -1    0    0    0    0 -0.00000000000E+00 -0.00000000000E+00 -0.74505805969E-08  0.93827000000E+00  0.93827000000E+00 0. -1.
     999902    2    1    2    0    0  0.11386637265E-01 -0.16327634040E-01  0.16408249046E-01  0.10181331440E+01  0.10178062788E+01 0.  0.
     999903    2    3    3    0    0  0.25242129713E-01  0.20435909177E-01 -0.12074194602E+00  0.12664354297E+00  0.20129032519E-01 0.  0.
         14    1    1    2    0    0 -0.11386637265E-01  0.16327634040E-01 -0.16408249046E-01  0.25796855977E-01  0.00000000000E+00 0. -1.
     999901    1    3    3    0    0 -0.13855492448E-01 -0.36763543217E-01  0.13715019507E+00  0.89148960105E+00  0.88000000000E+00 0.  1.
        -11    1    4    4    0    0  0.27396531213E-01  0.21043695187E-01 -0.10052208187E+00  0.10629373026E+00  0.51100000000E-03 0.  1.
         11    1    4    4    0    0 -0.21544015002E-02 -0.60778600947E-03 -0.20219864156E-01  0.20349812706E-01  0.51100000000E-03 0. -1.
</event>
<event>
 8    1  0.1197213E+005  0.1043930E+01  0.7957747E-01            NaN
         13   -1    0    0    0    0  0.00000000000E+00  0.00000000000E+00  0.74505805969E-08  0.10566000000E+00  0.10566000000E+00 0.  1.
     999900   -1    0    0    0    0 -0.00000000000E+00 -0.00000000000E+00 -0.74505805969E-08  0.93827000000E+00  0.93827000000E+00 0. -1.
     999902    2    1    2    0    0  0.13865549289E-03  0.22850711425E-01  0.50704617017E-02  0.10205230818E+01  0.10202546136E+01 0.  0.
     999903    2    3    3    0    0  0.57921021140E-01 -0.10485599749E+00 -0.41251942703E-01  0.12822628676E+00  0.19764436227E-01 0.  0.
         14    1    1    2    0    0 -0.13865549289E-03 -0.22850711425E-01 -0.50704617017E-02  0.23406918204E-01  0.00000000000E+00 0. -1.
     999901    1    3    3    0    0 -0.57782365647E-01  0.12770670892E+00  0.46322404405E-01  0.89229679504E+00  0.88000000000E+00 0.  1.
        -11    1    4    4    0    0  0.38419679419E-01 -0.53034119871E-01 -0.16277673104E-01  0.67482689631E-01  0.51100000000E-03 0.  1.
         11    1    4    4    0    0  0.19501341721E-01 -0.51821877621E-01 -0.24974269599E-01  0.60743597129E-01  0.51100000000E-03 0. -1.
</event>
<event>
 8    1  0.1197213E+005  0.1043930E+01  0.7957747E-01            NaN
         13   -1    0    0    0    0  0.00000000000E+00  0.00000000000E+00  0.74505805969E-08  0.10566000000E+00  0.10566000000E+00 0. -1.
     999900   -1    0    0    0    0 -0.00000000000E+00 -0.00000000000E+00 -0.74505805969E-08  0.93827000000E+00  0.93827000000E+00 0.  1.
     999902    2    1    2    0    0  0.16066198644E-01 -0.59575410780E-02  0.17281623708E-01  0.10195934112E+01  0.10193029259E+01 0.  0.
     999903    2    3    3    0    0  0.71782293286E-02 -0.11607645044E+00  0.58180569016E-01  0.13174325838E+00  0.21119616340E-01 0.  0.
         14    1    1    2    0    0 -0.16066198644E-01  0.59575410780E-02 -0.17281623708E-01  0.24336588762E-01  0.00000000000E+00 0. -1.
     999901    1    3    3    0    0  0.88879693154E-02  0.11011890937E+00 -0.40898945307E-01  0.88785015286E+00  0.88000000000E+00 0.  1.
        -11    1    4    4    0    0 -0.20098296145E-02 -0.21452888008E-01  0.19637085477E-01  0.29157195784E-01  0.51100000000E-03 0.  1.
         11    1    4    4    0    0  0.91880589432E-02 -0.94623562435E-01  0.38543483539E-01  0.10258606260E+00  0.51100000000E-03 0. -1.
</event>
<event>
 8    1  0.1197213E+005  0.1043930E+01  0.7957747E-01            NaN
         13   -1    0    0    0    0  0.00000000000E+00  0.00000000000E+00  0.74505805969E-08  0.10566000000E+00  0.10566000000E+00 0.  1.
     999900   -1    0    0    0    0 -0.00000000000E+00 -0.00000000000E+00 -0.74505805969E-08  0.93827000000E+00  0.93827000000E+00 0.  1.
     999902    2    1    2    0    0 -0.45092521242E-02 -0.93250886068E-02 -0.21172302913E-01  0.10203597424E+01  0.10200874702E+01 0.  0.
     999903    2    3    3    0    0  0.81555104857E-01  0.12411253013E-01  0.96522026978E-01  0.12809773079E+00  0.16948528316E-01 0.  0.
         14    1    1    2    0    0  0.45092521242E-02  0.93250886068E-02  0.21172302913E-01  0.23570257591E-01  0.00000000000E+00 0.  1.
     999901    1    3    3    0    0 -0.86064356981E-01 -0.21736341620E-01 -0.11769432989E+00  0.89226201162E+00  0.88000000000E+00 0.  1.
        -11    1    4    4    0    0  0.57378155829E-01  0.98966433132E-02  0.78949526803E-01  0.98099364007E-01  0.51100000000E-03 0.  1.
         11    1    4    4    0    0  0.24176949028E-01  0.25146097002E-02  0.17572500176E-01  0.29998366784E-01  0.51100000000E-03 0. -1.
</event>
<event>
 8    1  0.1197213E+005  0.1043930E+01  0.7957747E-01            NaN
         13   -1    0    0    0    0  0.00000000000E+00  0.00000000000E+00  0.74505805969E-08  0.10566000000E+00  0.10566000000E+00 0. -1.
     999900   -1    0    0    0    0 -0.00000000000E+00 -0.00000000000E+00 -0.74505805969E-08  0.93827000000E+00  0.93827000000E+00 0.  1.
     999902    2    1    2    0    0 -0.13799706214E-01  0.60782739610E-02  0.17244969724E-01  0.10210222221E+01  0.10207652090E+01 0.  0.
     999903    2    3    3    0    0  0.19168384094E-01  0.75983261293E-01  0.10566602241E+00  0.13322050734E+00  0.21012195014E-01 0.  0.
         14    1    1    2    0    0  0.13799706214E-01 -0.60782739610E-02 -0.17244969724E-01  0.22907777865E-01  0.00000000000E+00 0. -1.
     999901    1    3    3    0    0 -0.32968090308E-01 -0.69904987332E-01 -0.88421052683E-01  0.88780171479E+00  0.88000000000E+00 0.  1.
        -11    1    4    4    0    0  0.30095182634E-02  0.35403079867E-01  0.61968471696E-01  0.71433800610E-01  0.51100000000E-03 0. -1.
         11    1    4    4    0    0  0.16158865831E-01  0.40580181426E-01  0.43697550712E-01  0.61786706732E-01  0.51100000000E-03 0.  1.
</event>
<event>
 8    1  0.1197213E+005  0.1043930E+01  0.7957747E-01            NaN
         13   -1    0    0    0    0  0.00000000000E+00  0.00000000000E+00  0.74505805969E-08  0.10566000000E+00  0.10566000000E+00 0. -1.
     999900   -1    0    0    0    0 -0.00000000000E+00 -0.00000000000E+00 -0.74505805969E-08  0.93827000000E+00  0.93827000000E+00 0. -1.
     999902    2    1    2    0    0 -0.18905726009E-01 -0.73954860371E-02  0.12163320274E-01  0.10202642854E+01  0.10199897774E+01 0.  0.
     999903    2    3    3    0    0  0.28035025621E-01  0.10048663423E+00  0.74627145428E-01  0.13023972643E+00  0.22575411082E-01 0.  0.
         14    1    1    2    0    0  0.18905726009E-01  0.73954860371E-02 -0.12163320274E-01  0.23665714647E-01  0.00000000000E+00 0.  1.
     999901    1    3    3    0    0 -0.46940751631E-01 -0.10788212026E+00 -0.62463825153E-01  0.89002455892E+00  0.88000000000E+00 0. -1.
        -11    1    4    4    0    0  0.18640120609E-01  0.29435029006E-01  0.28410767097E-01  0.44958957249E-01  0.51100000000E-03 0. -1.
         11    1    4    4    0    0  0.93949050120E-02  0.71051605221E-01  0.46216378330E-01  0.85280769179E-01  0.51100000000E-03 0.  1.
</event>
<event>
 8    1  0.1197213E+005  0.1043930E+01  0.7957747E-01            NaN
         13   -1    0    0    0    0  0.00000000000E+00  0.00000000000E+00  0.74505805969E-08  0.10566000000E+00  0.10566000000E+00 0.  1.
     999900   -1    0    0    0    0 -0.00000000000E+00 -0.00000000000E+00 -0.74505805969E-08  0.93827000000E+00  0.93827000000E+00 0.  1.
     999902    2    1    2    0    0  0.20005199546E-01  0.35625678520E-02  0.11091325319E-01  0.10207801102E+01  0.10205175726E+01 0.  0.
     999903    2    3    3    0    0  0.89811799837E-01  0.73817066770E-01  0.62990413241E-01  0.13370504499E+00  0.19852661257E-01 0.  0.
         14    1    1    2    0    0 -0.20005199546E-01 -0.35625678520E-02 -0.11091325319E-01  0.23149889760E-01  0.00000000000E+00 0.  1.
     999901    1    3    3    0    0 -0.69806600291E-01 -0.70254498918E-01 -0.51899087923E-01  0.88707506525E+00  0.88000000000E+00 0.  1.
        -11    1    4    4    0    0  0.71782910010E-01  0.51743812481E-01  0.40123399690E-01  0.97161497638E-01  0.51100000000E-03 0. -1.
         11    1    4    4    0    0  0.18028889826E-01  0.22073254289E-01  0.22867013551E-01  0.36543547352E-01  0.51100000000E-03 0.  1.
</event>
<event>
 8    1  0.1197213E+005  0.1043930E+01  0.7957747E-01            NaN
         13   -1    0    0    0    0  0.00000000000E+00  0.00000000000E+00  0.74505805969E-08  0.10566000000E+00  0.10566000000E+00 0.  1.
     999900   -1    0    0    0    0 -0.00000000000E+00 -0.00000000000E+00 -0.74505805969E-08  0.93827000000E+00  0.93827000000E+00 0. -1.
     999902    2    1    2    0    0 -0.16437563719E-01 -0.15708709800E-01 -0.64134009420E-02  0.10203060974E+01  0.10200325698E+01 0.  0.
     999903    2    3    3    0    0 -0.39184556086E-01 -0.56009987555E-01  0.11034270830E+00  0.13138899903E+00  0.20371736524E-01 0.  0.
         14    1    1    2    0    0  0.16437563719E-01  0.15708709800E-01  0.64134009420E-02  0.23623902646E-01  0.00000000000E+00 0. -1.
     999901    1    3    3    0    0  0.22746992367E-01  0.40301277755E-01 -0.11675610924E+00  0.88891709833E+00  0.88000000000E+00 0. -1.
        -11    1    4    4    0    0 -0.10257834322E-01 -0.58165775266E-02  0.30802795265E-01  0.32986801243E-01  0.51100000000E-03 0.  1.
         11    1    4    4    0    0 -0.28926721765E-01 -0.50193410029E-01  0.79539913035E-01  0.98402197785E-01  0.51100000000E-03 0. -1.
</event>
<event>
 8    1  0.1197213E+005  0.1043930E+01  0.7957747E-01            NaN
         13   -1    0    0    0    0  0.00000000000E+00  0.00000000000E+00  0.74505805969E-08  0.10566000000E+00  0.10566000000E+00 0.  1.
     999900   -1    0    0    0    0 -0.00000000000E+00 -0.00000000000E+00 -0.74505805969E-08  0.93827000000E+00  0.93827000000E+00 0.  1.
     999902    2    1    2    0    0  0.24026643057E-01  0.23540839159E-02  0.65649404779E-03  0.10197793836E+01  0.10194933737E+01 0.  0.
     999903    2    3    3    0    0  0.10037210165E+00  0.41586094612E-01  0.73443411337E-01  0.13261214174E+00  0.19699832856E-01 0.  0.
         14    1    1    2    0    0 -0.24026643057E-01 -0.23540839159E-02 -0.65649404779E-03  0.24150616391E-01  0.00000000000E+00 0. -1.
     999901    1    3    3    0    0 -0.76345458592E-01 -0.39232010696E-01 -0.72786917289E-01  0.88716724187E+00  0.88000000000E+00 0.  1.
        -11    1    4    4    0    0  0.30532651080E-01  0.63275141291E-02  0.29250915869E-01  0.42756957529E-01  0.51100000000E-03 0.  1.
         11    1    4    4    0    0  0.69839450569E-01  0.35258580482E-01  0.44192495468E-01  0.89855184214E-01  0.51100000000E-03 0. -1.
</event>
<event>
 8    1  0.1197213E+005  0.1043930E+01  0.7957747E-01            NaN
         13   -1    0    0    0    0  0.00000000000E+00  0.00000000000E+00  0.74505805969E-08  0.10566000000E+00  0.10566000000E+00 0.  1.
     999900   -1    0    0    0    0 -0.00000000000E+00 -0.00000000000E+00 -0.74505805969E-08  0.93827000000E+00  0.93827000000E+00 0.  1.
     999902    2    1    2    0    0 -0.18927690989E-01  0.11899978452E-01  0.13278149222E-01  0.10179266114E+01  0.10175944231E+01 0.  0.
     999903    2    3    3    0    0 -0.10831513782E+00  0.17993734825E-01 -0.66250504765E-01  0.12980947027E+00  0.20135183524E-01 0.  0.
         14    1    1    2    0    0  0.18927690989E-01 -0.11899978452E-01 -0.13278149222E-01  0.26003388627E-01  0.00000000000E+00 0. -1.
     999901    1    3    3    0    0  0.89387446833E-01 -0.60937563738E-02  0.79528653987E-01  0.88811714110E+00  0.88000000000E+00 0. -1.
        -11    1    4    4    0    0 -0.53714705402E-01  0.16934393042E-01 -0.26403319401E-01  0.62204820074E-01  0.51100000000E-03 0.  1.
         11    1    4    4    0    0 -0.54600432420E-01  0.10593417834E-02 -0.39847185364E-01  0.67604650195E-01  0.51100000000E-03 0. -1.
</event>
<event>
 8    1  0.1197213E+005  0.1043930E+01  0.7957747E-01            NaN
         13   -1    0    0    0    0  0.00000000000E+00  0.00000000000E+00  0.74505805969E-08  0.10566000000E+00  0.10566000000E+00 0. -1.
     999900   -1    0    0    0    0 -0.00000000000E+00 -0.00000000000E+00 -0.74505805969E-08  0.93827000000E+00  0.93827000000E+00 0.  1.
     999902    2    1    2    0    0  0.20221010215E-01 -0.13325554856E-01 -0.14613740054E-02  0.10196690173E+01  0.10193803557E+01 0.  0.
     999903    2    3    3    0    0  0.71925184730E-01  0.10394672849E+00  0.22919702737E-01  0.13005081438E+00  0.20242208045E-01 0.  0.
         14    1    1    2    0    0 -0.20221010215E-01  0.13325554856E-01  0.14613740054E-02  0.24260982674E-01  0.00000000000E+00 0. -1.
     999901    1    3    3    0    0 -0.51704174515E-01 -0.11727228334E+00 -0.24381076743E-01  0.88961820294E+00  0.88000000000E+00 0.  1.
        -11    1    4    4    0    0  0.10310724911E-01  0.24523645212E-01  0.11122801188E-01  0.28839175611E-01  0.51100000000E-03 0. -1.
         11    1    4    4    0    0  0.61614459819E-01  0.79423083276E-01  0.11796901549E-01  0.10121163877E+00  0.51100000000E-03 0.  1.
</event>
<event>
 8    1  0.1197213E+005  0.1043930E+01  0.7957747E-01            NaN
         13   -1    0    0    0    0  0.00000000000E+00  0.00000000000E+00  0.74505805969E-08  0.10566000000E+00  0.10566000000E+00 0. -1.
     999900   -1    0    0    0    0 -0.00000000000E+00 -0.00000000000E+00 -0.74505805969E-08  0.93827000000E+00  0.93827000000E+00 0. -1.
     999902    2    1    2    0    0  0.19091821933E-01  0.14530839242E-01  0.59434824808E-02  0.10192122344E+01  0.10189124647E+01 0.  0.
     999903    2    3    3    0    0  0.70386334209E-01  0.51676276331E-02  0.10931227929E+00  0.13162905242E+00  0.19902075722E-01 0.  0.
         14    1    1    2    0    0 -0.19091821933E-01 -0.14530839242E-01 -0.59434824808E-02  0.24717765631E-01  0.00000000000E+00 0.  1.
     999901    1    3    3    0    0 -0.51294512276E-01  0.93632116087E-02 -0.10336879681E+00  0.88758318195E+00  0.88000000000E+00 0. -1.
        -11    1    4    4    0    0  0.32254078430E-01  0.11821807009E-01  0.45890373009E-01  0.57325981476E-01  0.51100000000E-03 0. -1.
         11    1    4    4    0    0  0.38132255779E-01 -0.66541793759E-02  0.63421906286E-01  0.74303070945E-01  0.51100000000E-03 0.  1.
</event>
<event>
 8    1  0.1197213E+005  0.1043930E+01  0.7957747E-01            NaN
         13   -1    0    0    0    0  0.00000000000E+00  0.00000000000E+00  0.74505805969E-08  0.10566000000E+00  0.10566000000E+00 0. -1.
     999900   -1    0    0    0    0 -0.00000000000E+00 -0.00000000000E+00 -0.74505805969E-08  0.93827000000E+00  0.93827000000E+00 0.  1.
     999902    2    1    2    0    0 -0.20325895087E-01  0.22694231539E-03  0.10319092223E-01  0.10211335709E+01  0.10208790783E+01 0.  0.
     999903    2    3    3    0    0 -0.60978101513E-01  0.69122574616E-01  0.94478881525E-01  0.13350635178E+00  0.20035661378E-01 0.  0.
         14    1    1    2    0    0  0.20325895087E-01 -0.22694231539E-03 -0.10319092223E-01  0.22796429067E-01  0.00000000000E+00 0.  1.
     999901    1    3    3    0    0  0.40652206427E-01 -0.68895632301E-01 -0.84159789302E-01  0.88762721915E+00  0.88000000000E+00 0.  1.
        -11    1    4    4    0    0 -0.21837802541E-01  0.35562191558E-01  0.52164133487E-01  0.66805067410E-01  0.51100000000E-03 0. -1.
         11    1    4    4    0    0 -0.39140298973E-01  0.33560383058E-01  0.42314748038E-01  0.66701284375E-01  0.51100000000E-03 0.  1.
</event>
<event>
 8    1  0.1197213E+005  0.1043930E+01  0.7957747E-01            NaN
         13   -1    0    0    0    0  0.00000000000E+00  0.00000000000E+00  0.74505805969E-08  0.10566000000E+00  0.10566000000E+00 0.  1.
     999900   -1    0    0    0    0 -0.00000000000E+00 -0.00000000000E+00 -0.74505805969E-08  0.93827000000E+00  0.93827000000E+00 0.  1.
     999902    2    1    2    0    0  0.36763862193E-02  0.10241992163E-01 -0.20475727923E-01  0.10207422952E+01  0.10204788893E+01 0.  0.
     999903    2    3    3    0    0  0.19075393732E-01 -0.10469230502E+00 -0.74278279600E-01  0.13150569191E+00  0.21263461800E-01 0.  0.
         14    1    1    2    0    0 -0.36763862193E-02 -0.10241992163E-01  0.20475727923E-01  0.23187704782E-01  0.00000000000E+00 0.  1.
     999901    1    3    3    0    0 -0.15399007512E-01  0.11493429718E+00  0.53802551677E-01  0.88923660331E+00  0.88000000000E+00 0.  1.
        -11    1    4    4    0    0  0.22056333142E-01 -0.65581738935E-01 -0.44687484150E-01  0.82369160940E-01  0.51100000000E-03 0.  1.
         11    1    4    4    0    0 -0.29809394099E-02 -0.39110566082E-01 -0.29590795450E-01  0.49136530967E-01  0.51100000000E-03 0. -1.
</event>
<event>
 8    1  0.1197213E+005  0.1043930E+01  0.7957747E-01            NaN
         13   -1    0    0    0    0  0.00000000000E+00  0.00000000000E+00  0.74505805969E-08  0.10566000000E+00  0.10566000000E+00 0. -1.
     999900   -1    0    0    0    0 -0.00000000000E+00 -0.00000000000E+00 -0.74505805969E-08  0.93827000000E+00  0.93827000000E+00 0.  1.
     999902    2    1    2    0    0 -0.27118164676E-02  0.15647042217E-01 -0.62076331422E-02  0.10268795282E+01  0.10267379641E+01 0.  0.
     999903    2    3    3    0    0 -0.26149108668E-01  0.76729263009E-01 -0.11024045581E+00  0.13833961772E+00  0.20340502635E-01 0.  0.
         14    1    1    2    0    0  0.27118164676E-02 -0.15647042217E-01  0.62076331422E-02  0.17050471780E-01  0.00000000000E+00 0. -1.
     999901    1    3    3    0    0  0.23437292200E-01 -0.61082220792E-01  0.10403282267E+00  0.88853991050E+00  0.88000000000E+00 0. -1.
        -11    1    4    4    0    0 -0.18951696843E-01  0.69992941094E-01 -0.88150620600E-01  0.11414452089E+00  0.51100000000E-03 0. -1.
         11    1    4    4    0    0 -0.71974118251E-02  0.67363219144E-02 -0.22089835209E-01  0.24195096828E-01  0.51100000000E-03 0.  1.
</event>
<event>
 8    1  0.1197213E+005  0.1043930E+01  0.7957747E-01            NaN
         13   -1    0    0    0    0  0.00000000000E+00  0.00000000000E+00  0.74505805969E-08  0.10566000000E+00  0.10566000000E+00 0. -1.
     999900   -1    0    0    0    0 -0.00000000000E+00 -0.00000000000E+00 -0.74505805969E-08  0.93827000000E+00  0.93827000000E+00 0.  1.
     999902    2    1    2    0    0 -0.18825757080E-01  0.10501109579E-01  0.72708587391E-02  0.10211803227E+01  0.10209268845E+01 0.  0.
     999903    2    3    3    0    0 -0.36100496054E-01 -0.12358123513E+00 -0.10305147175E-01  0.13068304151E+00  0.19907129043E-01 0.  0.
         14    1    1    2    0    0  0.18825757080E-01 -0.10501109579E-01 -0.72708587391E-02  0.22749677335E-01  0.00000000000E+00 0.  1.
     999901    1    3    3    0    0  0.17274738974E-01  0.13408234471E+00  0.17576005914E-01  0.89049728116E+00  0.88000000000E+00 0. -1.
        -11    1    4    4    0    0 -0.15068408502E-01 -0.44462174876E-01  0.56071272382E-02  0.47282585868E-01  0.51100000000E-03 0. -1.
         11    1    4    4    0    0 -0.21032087552E-01 -0.79119060256E-01 -0.15912274413E-01  0.83400455637E-01  0.51100000000E-03 0.  1.
</event>
<event>
 8    1  0.1197213E+005  0.1043930E+01  0.7957747E-01            NaN
         13   -1    0    0    0    0  0.00000000000E+00  0.00000000000E+00  0.74505805969E-08  0.10566000000E+00  0.10566000000E+00 0.  1.
     999900   -1    0    0    0    0 -0.00000000000E+00 -0.00000000000E+00 -0.74505805969E-08  0.93827000000E+00  0.93827000000E+00 0.  1.
     999902    2    1    2    0    0 -0.21097056669E-01 -0.76226625454E-02 -0.61229170990E-02  0.10206774539E+01  0.10204125558E+01 0.  0.
     999903    2    3    3    0    0  0.49502798371E-01 -0.10624233635E+00  0.53569182175E-01  0.13035541877E+00  0.19619297784E-01 0.  0.
         14    1    1    2    0    0  0.21097056669E-01  0.76226625454E-02  0.61229170990E-02  0.23252546058E-01  0.00000000000E+00 0.  1.
     999901    1    3    3    0    0 -0.70599855039E-01  0.98619673802E-01 -0.59692099274E-01  0.89032203517E+00  0.88000000000E+00 0. -1.
        -11    1    4    4    0    0  0.27274035917E-01 -0.49983545556E-01  0.16010417621E-01  0.59150844922E-01  0.51100000000E-03 0.  1.
         11    1    4    4    0    0  0.22228762453E-01 -0.56258790791E-01  0.37558764554E-01  0.71204573850E-01  0.51100000000E-03 0. -1.
</event>
<event>
 8    1  0.1197213E+005  0.1043930E+01  0.7957747E-01            NaN
         13   -1    0    0    0    0  0.00000000000E+00  0.00000000000E+00  0.74505805969E-08  0.10566000000E+00  0.10566000000E+00 0.  1.
     999900   -1    0    0    0    0 -0.00000000000E+00 -0.00000000000E+00 -0.74505805969E-08  0.93827000000E+00  0.93827000000E+00 0. -1.
     999902    2    1    2    0    0  0.48081850665E-02 -0.11858388585E-01  0.19017408676E-01  0.10210083540E+01  0.10207510260E+01 0.  0.
     999903    2    3    3    0    0 -0.75081611980E-01 -0.85845425407E-01 -0.60025514944E-01  0.13078127898E+00  0.22225997541E-01 0.  0.
         14    1    1    2    0    0 -0.48081850665E-02  0.11858388585E-01 -0.19017408676E-01  0.22921646019E-01  0.00000000000E+00 0. -1.
     999901    1    3    3    0    0  0.79889797046E-01  0.73987036822E-01  0.79042923621E-01  0.89022707500E+00  0.88000000000E+00 0. -1.
        -11    1    4    4    0    0 -0.66667614788E-01 -0.63310308692E-01 -0.50567049369E-01  0.10492880277E+00  0.51100000000E-03 0.  1.
         11    1    4    4    0    0 -0.84139971913E-02 -0.22535116714E-01 -0.94584655755E-02  0.25852476208E-01  0.51100000000E-03 0. -1.
</event>
<event>
 8    1  0.1197213E+005  0.1043930E+01  0.7957747E-01            NaN
         13   -1    0    0    0    0  0.00000000000E+00  0.00000000000E+00  0.74505805969E-08  0.10566000000E+00  0.10566000000E+00 0.  1.
     999900   -1    0    0    0    0 -0.00000000000E+00 -0.00000000000E+00 -0.74505805969E-08  0.93827000000E+00  0.93827000000E+00 0. -1.
     999902    2    1    2    0    0 -0.13297966523E-01  0.22372031077E-01  0.12034512889E-02  0.10178763633E+01  0.10175428733E+01 0.  0.
     999903    2    3    3    0    0  0.82622442585E-01 -0.12981898517E-01 -0.93356067440E-01  0.12692623690E+00  0.19997914347E-01 0.  0.
         14    1    1    2    0    0  0.13297966523E-01 -0.22372031077E-01 -0.12034512889E-02  0.26053636659E-01  0.00000000000E+00 0.  1.
     999901    1    3    3    0    0 -0.95920409108E-01  0.35353929593E-01  0.94559518729E-01  0.89095012644E+00  0.88000000000E+00 0.  1.
        -11    1    4    4    0    0  0.24233683907E-01 -0.35103391269E-02 -0.41854747138E-01  0.48494070725E-01  0.51100000000E-03 0. -1.
         11    1    4    4    0    0  0.58388758678E-01 -0.94715593898E-02 -0.51501320302E-01  0.78432166176E-01  0.51100000000E-03 0.  1.
</event>
<event>
 8    1  0.1197213E+005  0.1043930E+01  0.7957747E-01            NaN
         13   -1    0    0    0    0  0.00000000000E+00  0.00000000000E+00  0.74505805969E-08  0.10566000000E+00  0.10566000000E+00 0.  1.
     999900   -1    0    0    0    0 -0.00000000000E+00 -0.00000000000E+00 -0.74505805969E-08  0.93827000000E+00  0.93827000000E+00 0.  1.
     999902    2    1    2    0    0  0.40790466849E-02  0.12284066398E-01  0.19164206471E-01  0.10208041764E+01  0.10205421906E+01 0.  0.
     999903    2    3    3    0    0  0.13783304504E-01  0.12576310898E+00 -0.32354032005E-01  0.13197022414E+00  0.19053021027E-01 0.  0.
         14    1    1    2    0    0 -0.40790466849E-02 -0.12284066398E-01 -0.19164206471E-01  0.23125823635E-01  0.00000000000E+00 0.  1.
     999901    1    3    3    0    0 -0.97042578196E-02 -0.11347904258E+00  0.51518238476E-01  0.88883395222E+00  0.88000000000E+00 0. -1.
        -11    1    4    4    0    0  0.62629448473E-02  0.70817185604E-01 -0.27748937758E-01  0.76318824170E-01  0.51100000000E-03 0.  1.
         11    1    4    4    0    0  0.75203596572E-02  0.54945923376E-01 -0.46050942473E-02  0.55651399974E-01  0.51100000000E-03 0. -1.
</event>
<event>
 8    1  0.1197213E+005  0.1043930E+01  0.7957747E-01            NaN
         13   -1    0    0    0    0  0.00000000000E+00  0.00000000000E+00  0.74505805969E-08  0.10566000000E+00  0.10566000000E+00 0.  1.
     999900   -1    0    0    0    0 -0.00000000000E+00 -0.00000000000E+00 -0.74505805969E-08  0.93827000000E+00  0.93827000000E+00 0. -1.
     999902    2    1    2    0    0 -0.19471639172E-01  0.58512969209E-02  0.12222931381E-01  0.10202069635E+01  0.10199311084E+01 0.  0.
     999903    2    3    3    0    0  0.12204005789E+00 -0.35082958518E-01 -0.31754077258E-02  0.12782908252E+00  0.14338807981E-01 0.  0.
         14    1    1    2    0    0  0.19471639172E-01 -0.58512969209E-02 -0.12222931381E-01  0.23723036468E-01  0.00000000000E+00 0. -1.
     999901    1    3    3    0    0 -0.14151169707E+00  0.40934255439E-01  0.15398339107E-01  0.89237788101E+00  0.88000000000E+00 0. -1.
        -11    1    4    4    0    0  0.17261450552E-01 -0.10302641137E-01 -0.10996614856E-02  0.20138829806E-01  0.51100000000E-03 0.  1.
         11    1    4    4    0    0  0.10477860734E+00 -0.24780317381E-01 -0.20757462402E-02  0.10769025271E+00  0.51100000000E-03 0. -1.
</event>
<event>
 8    1  0.1197213E+005  0.1043930E+01  0.7957747E-01            NaN
         13   -1    0    0    0    0  0.00000000000E+00  0.00000000000E+00  0.74505805969E-08  0.10566000000E+00  0.10566000000E+00 0. -1.
     999900   -1    0    0    0    0 -0.00000000000E+00 -0.00000000000E+00 -0.74505805969E-08  0.93827000000E+00  0.93827000000E+00 0.  1.
     999902    2    1    2    0    0  0.12158122418E-01 -0.13711925697E-01  0.19095275798E-01  0.10174636741E+01  0.10171193941E+01 0.  0.
     999903    2    3    3    0    0  0.11066703689E+00 -0.65756625432E-01  0.19286191122E-02  0.13027296684E+00  0.19904760160E-01 0.  0.
         14    1    1    2    0    0 -0.12158122418E-01  0.13711925697E-01 -0.19095275798E-01  0.26466325866E-01  0.00000000000E+00 0.  1.
     999901    1    3    3    0    0 -0.98508914469E-01  0.52044699735E-01  0.17166656686E-01  0.88719070729E+00  0.88000000000E+00 0. -1.
        -11    1    4    4    0    0  0.21066261151E-01 -0.18606501345E-01 -0.58867166914E-02  0.28721138654E-01  0.51100000000E-03 0. -1.
         11    1    4    4    0    0  0.89600775736E-01 -0.47150124087E-01  0.78153358036E-02  0.10155182819E+00  0.51100000000E-03 0.  1.
</event>
<event>
 8    1  0.1197213E+005  0.1043930E+01  0.7957747E-01            NaN
         13   -1    0    0    0    0  0.00000000000E+00  0.00000000000E+00  0.74505805969E-08  0.10566000000E+00  0.10566000000E+00 0. -1.
     999900   -1    0    0    0    0 -0.00000000000E+00 -0.00000000000E+00 -0.74505805969E-08  0.93827000000E+00  0.93827000000E+00 0. -1.
     999902    2    1    2    0    0 -0.87218724532E-02  0.12540469191E-01 -0.85865034669E-02  0.10264068020E+01  0.10262572098E+01 0.  0.
     999903    2    3    3    0    0  0.11927719612E+00  0.19024820976E-01 -0.58519110850E-01  0.13572219246E+00  0.20175080284E-01 0.  0.
         14    1    1    2    0    0  0.87218724532E-02 -0.12540469191E-01  0.85865034669E-02  0.17523198007E-01  0.00000000000E+00 0.  1.
     999901    1    3    3    0    0 -0.12799906857E+00 -0.64843517847E-02  0.49932607383E-01  0.89068460953E+00  0.88000000000E+00 0.  1.
        -11    1    4    4    0    0  0.61910477856E-01  0.17432817844E-02 -0.36480776564E-01  0.71882226451E-01  0.51100000000E-03 0.  1.
         11    1    4    4    0    0  0.57366718265E-01  0.17281539191E-01 -0.22038334286E-01  0.63839966012E-01  0.51100000000E-03 0. -1.
</event>
<event>
 8    1  0.1197213E+005  0.1043930E+01  0.7957747E-01            NaN
         13   -1    0    0    0    0  0.00000000000E+00  0.00000000000E+00  0.74505805969E-08  0.10566000000E+00  0.10566000000E+00 0.  1.
     999900   -1    0    0    0    0 -0.00000000000E+00 -0.00000000000E+00 -0.74505805969E-08  0.93827000000E+00  0.93827000000E+00 0. -1.
     999902    2    1    2    0    0 -0.37951954267E-02 -0.13738242555E-01 -0.10346254176E-01  0.10263178510E+01  0.10261667230E+01 0.  0.
     999903    2    3    3    0    0  0.49093845422E-01  0.11867470118E-01  0.12279262935E+00  0.13436557343E+00  0.20616376843E-01 0.  0.
         14    1    1    2    0    0  0.37951954267E-02  0.13738242555E-01  0.10346254176E-01  0.17612148997E-01  0.00000000000E+00 0.  1.
     999901    1    3    3    0    0 -0.52889040849E-01 -0.25605712672E-01 -0.13313888353E+00  0.89195227757E+00  0.88000000000E+00 0. -1.
        -11    1    4    4    0    0  0.16981349008E-01  0.61472830399E-02  0.70111373899E-01  0.72401803665E-01  0.51100000000E-03 0. -1.
         11    1    4    4    0    0  0.32112496415E-01  0.57201870777E-02  0.52681255453E-01  0.61963769763E-01  0.51100000000E-03 0.  1.
</event>
<event>
 8    1  0.1197213E+005  0.1043930E+01  0.7957747E-01            NaN
         13   -1    0    0    0    0  0.00000000000E+00  0.00000000000E+00  0.74505805969E-08  0.10566000000E+00  0.10566000000E+00 0. -1.
     999900   -1    0    0    0    0 -0.00000000000E+00 -0.00000000000E+00 -0.74505805969E-08  0.93827000000E+00  0.93827000000E+00 0.  1.
     999902    2    1    2    0    0  0.18957774530E-01  0.16444305353E-01 -0.42078986639E-02  0.10184836092E+01  0.10181656758E+01 0.  0.
     999903    2    3    3    0    0  0.33228300796E-01 -0.51804979888E-01  0.11075427661E+00  0.12827132294E+00  0.19978653313E-01 0.  0.
         14    1    1    2    0    0 -0.18957774530E-01 -0.16444305353E-01  0.42078986639E-02  0.25446390802E-01  0.00000000000E+00 0.  1.
     999901    1    3    3    0    0 -0.14270526266E-01  0.68249285241E-01 -0.11496217527E+00  0.89021228625E+00  0.88000000000E+00 0.  1.
        -11    1    4    4    0    0  0.25883158006E-02 -0.70078867216E-02  0.30367464694E-01  0.31277050499E-01  0.51100000000E-03 0.  1.
         11    1    4    4    0    0  0.30639984996E-01 -0.44797093166E-01  0.80386811912E-01  0.96994272445E-01  0.51100000000E-03 0. -1.
</event>
<event>
 8    1  0.1197213E+005  0.1043930E+01  0.7957747E-01            NaN
         13   -1    0    0    0    0  0.00000000000E+00  0.00000000000E+00  0.74505805969E-08  0.10566000000E+00  0.10566000000E+00 0.  1.
     999900   -1    0    0    0    0 -0.00000000000E+00 -0.00000000000E+00 -0.74505805969E-08  0.93827000000E+00  0.93827000000E+00 0.  1.
     999902    2    1    2    0    0  0.18328970746E-02 -0.21456494182E-01  0.99288788600E-02  0.10202166432E+01  0.10199410159E+01 0.  0.
     999903    2    3    3    0    0 -0.37340655618E-01  0.10478457925E+00 -0.59398173395E-01  0.12764865364E+00  0.19796544229E-01 0.  0.
         14    1    1    2    0    0 -0.18328970746E-02  0.21456494182E-01 -0.99288788600E-02  0.23713356779E-01  0.00000000000E+00 0. -1.
     999901    1    3    3    0    0  0.39173552693E-01 -0.12624107343E+00  0.69327052255E-01  0.89256798958E+00  0.88000000000E+00 0. -1.
        -11    1    4    4    0    0 -0.12702081630E-01  0.47892028670E-01 -0.36548705039E-01  0.61571570135E-01  0.51100000000E-03 0.  1.
         11    1    4    4    0    0 -0.24638573988E-01  0.56892550577E-01 -0.22849468356E-01  0.66077083505E-01  0.51100000000E-03 0. -1.
</event>
<event>
 8    1  0.1197213E+005  0.1043930E+01  0.7957747E-01            NaN
         13   -1    0    0    0    0  0.00000000000E+00  0.00000000000E+00  0.74505805969E-08  0.10566000000E+00  0.10566000000E+00 0. -1.
     999900   -1    0    0    0    0 -0.00000000000E+00 -0.00000000000E+00 -0.74505805969E-08  0.93827000000E+00  0.93827000000E+00 0. -1.
     999902    2    1    2    0    0 -0.17957285154E-01  0.11902554414E-01 -0.73561342387E-02  0.10211649478E+01  0.10209111631E+01 0.  0.
     999903    2    3    3    0    0  0.11589369738E+00 -0.16048357736E-01  0.49892719844E-01  0.12876662287E+00  0.20066409571E-01 0.  0.
         14    1    1    2    0    0  0.17957285154E-01 -0.11902554414E-01  0.73561342387E-02  0.22765052221E-01  0.00000000000E+00 0. -1.
     999901    1    3    3    0    0 -0.13385098253E+00  0.27950912149E-01 -0.57248854082E-01  0.89239832491E+00  0.88000000000E+00 0. -1.
        -11    1    4    4    0    0  0.33137392403E-01  0.37672520459E-02  0.10293014314E-01  0.34906822083E-01  0.51100000000E-03 0. -1.
         11    1    4    4    0    0  0.82756304974E-01 -0.19815609781E-01  0.39599705530E-01  0.93859800783E-01  0.51100000000E-03 0.  1.
</event>
<event>
 8    1  0.1197213E+005  0.1043930E+01  0.7957747E-01            NaN
         13   -1    0    0    0    0  0.00000000000E+00  0.00000000000E+00  0.74505805969E-08  0.10566000000E+00  0.10566000000E+00 0. -1.
     999900   -1    0    0    0    0 -0.00000000000E+00 -0.00000000000E+00 -0.74505805969E-08  0.93827000000E+00  0.93827000000E+00 0.  1.
     999902    2    1    2    0    0  0.46718682240E-02  0.17480339860E-01 -0.79981269959E-02  0.10241472128E+01  0.10239561293E+01 0.  0.
     999903    2    3    3    0    0  0.11208317041E+00 -0.21503064576E-01 -0.68786081079E-01  0.13467991771E+00  0.19548309595E-01 0.  0.
         14    1    1    2    0    0 -0.46718682240E-02 -0.17480339860E-01  0.79981269959E-02  0.19782787209E-01  0.00000000000E+00 0. -1.
     999901    1    3    3    0    0 -0.10741130219E+00  0.38983404435E-01  0.60787954083E-01  0.88946729508E+00  0.88000000000E+00 0.  1.
        -11    1    4    4    0    0  0.50363329041E-01 -0.35472914848E-02 -0.21487071361E-01  0.54872611982E-01  0.51100000000E-03 0. -1.
         11    1    4    4    0    0  0.61719841371E-01 -0.17955773091E-01 -0.47299009718E-01  0.79807305727E-01  0.51100000000E-03 0.  1.
</event>
<event>
 8    1  0.1197213E+005  0.1043930E+01  0.7957747E-01            NaN
         13   -1    0    0    0    0  0.00000000000E+00  0.00000000000E+00  0.74505805969E-08  0.10566000000E+00  0.10566000000E+00 0.  1.
     999900   -1    0    0    0    0 -0.00000000000E+00 -0.00000000000E+00 -0.74505805969E-08  0.93827000000E+00  0.93827000000E+00 0.  1.
     999902    2    1    2    0    0 -0.10064025007E-01  0.41388399681E-02  0.20453661765E-01  0.10207617701E+01  0.10204988116E+01 0.  0.
     999903    2    3    3    0    0 -0.47825208117E-01  0.12089033417E+00 -0.93602981070E-02  0.13174788354E+00  0.19187657741E-01 0.  0.
         14    1    1    2    0    0  0.10064025007E-01 -0.41388399681E-02 -0.20453661765E-01  0.23168229868E-01  0.00000000000E+00 0. -1.
     999901    1    3    3    0    0  0.37761183111E-01 -0.11675149420E+00  0.29813959872E-01  0.88901388659E+00  0.88000000000E+00 0. -1.
        -11    1    4    4    0    0 -0.37309918265E-01  0.10679852718E+00 -0.12712476411E-01  0.11384122095E+00  0.51100000000E-03 0.  1.
         11    1    4    4    0    0 -0.10515289852E-01  0.14091806988E-01  0.33521783042E-02  0.17906662593E-01  0.51100000000E-03 0. -1.
</event>
<event>
 8    1  0.1197213E+005  0.1043930E+01  0.7957747E-01            NaN
         13   -1    0    0    0    0  0.00000000000E+00  0.00000000000E+00  0.74505805969E-08  0.10566000000E+00  0.10566000000E+00 0. -1.
     999900   -1    0    0    0    0 -0.00000000000E+00 -0.00000000000E+00 -0.74505805969E-08  0.93827000000E+00  0.93827000000E+00 0. -1.
     999902    2    1    2    0    0  0.15252641571E-01  0.59237911021E-02  0.18182236698E-02  0.10274666980E+01  0.10273347921E+01 0.  0.
     999903    2    3    3    0    0  0.18093861566E-01  0.59963171671E-01 -0.12061420937E+00  0.13734421886E+00  0.19816083626E-01 0.  0.
         14    1    1    2    0    0 -0.15252641571E-01 -0.59237911021E-02 -0.18182236698E-02  0.16463302014E-01  0.00000000000E+00 0.  1.
     999901    1    3    3    0    0 -0.28412199958E-02 -0.54039380569E-01  0.12243243304E+00  0.89012247912E+00  0.88000000000E+00 0.  1.
        -11    1    4    4    0    0  0.97807059904E-02  0.13476619938E-01 -0.18858729693E-01  0.25163352345E-01  0.51100000000E-03 0. -1.
         11    1    4    4    0    0  0.83131555760E-02  0.46486551734E-01 -0.10175547967E+00  0.11218086652E+00  0.51100000000E-03 0.  1.
</event>
<event>
 8    1  0.1197213E+005  0.1043930E+01  0.7957747E-01            NaN
         13   -1    0    0    0    0  0.00000000000E+00  0.00000000000E+00  0.74505805969E-08  0.10566000000E+00  0.10566000000E+00 0. -1.
     999900   -1    0    0    0    0 -0.00000000000E+00 -0.00000000000E+00 -0.74505805969E-08  0.93827000000E+00  0.93827000000E+00 0. -1.
     999902    2    1    2    0    0 -0.19045011304E-01 -0.25388529728E-02  0.13831843012E-01  0.10202555811E+01  0.10199808688E+01 0.  0.
     999903    2    3    3    0    0  0.12486373095E+00  0.18542916202E-02  0.22524897397E-01  0.12851313227E+00  0.20343658939E-01 0.  0.
         14    1    1    2    0    0  0.19045011304E-01  0.25388529728E-02 -0.13831843012E-01  0.23674418918E-01  0.00000000000E+00 0.  1.
     999901    1    3    3    0    0 -0.14390874225E+00 -0.43931445930E-02 -0.86930543853E-02  0.89174244881E+00  0.88000000000E+00 0. -1.
        -11    1    4    4    0    0  0.61473829463E-01  0.97846662200E-02  0.60899936283E-02  0.62546946730E-01  0.51100000000E-03 0. -1.
         11    1    4    4    0    0  0.63389901488E-01 -0.79303745998E-02  0.16434903769E-01  0.65966185541E-01  0.51100000000E-03 0.  1.
</event>
<event>
 8    1  0.1197213E+005  0.1043930E+01  0.7957747E-01            NaN
         13   -1    0    0    0    0  0.00000000000E+00  0.00000000000E+00  0.74505805969E-08  0.10566000000E+00  0.10566000000E+00 0.  1.
     999900   -1    0    0    0    0 -0.00000000000E+00 -0.00000000000E+00 -0.74505805969E-08  0.93827000000E+00  0.93827000000E+00 0. -1.
     999902    2    1    2    0    0 -0.10370532852E-01 -0.17385992158E-01 -0.10650374315E-01  0.10210553164E+01  0.10207990537E+01 0.  0.
     999903    2    3    3    0    0 -0.99367817921E-01  0.20557670486E-01  0.80674184714E-01  0.13105508421E+00  0.19249154898E-01 0.  0.
         14    1    1    2    0    0  0.10370532852E-01  0.17385992158E-01  0.10650374315E-01  0.22874683560E-01  0.00000000000E+00 0.  1.
     999901    1    3    3    0    0  0.88997285069E-01 -0.37943662644E-01 -0.91324559028E-01  0.89000023223E+00  0.88000000000E+00 0. -1.
        -11    1    4    4    0    0 -0.56240515336E-01  0.82244143729E-02  0.56291823866E-01  0.79997919424E-01  0.51100000000E-03 0. -1.
         11    1    4    4    0    0 -0.43127302585E-01  0.12333256114E-01  0.24382360847E-01  0.51057164788E-01  0.51100000000E-03 0.  1.
</event>
<event>
 8    1  0.1197213E+005  0.1043930E+01  0.7957747E-01            NaN
         13   -1    0    0    0    0  0.00000000000E+00  0.00000000000E+00  0.74505805969E-08  0.10566000000E+00  0.10566000000E+00 0.  1.
     999900   -1    0    0    0    0 -0.00000000000E+00 -0.00000000000E+00 -0.74505805969E-08  0.93827000000E+00  0.93827000000E+00 0. -1.
     999902    2    1    2    0    0  0.46427650328E-02  0.71924384929E-02 -0.18100144481E-01  0.10239074710E+01  0.10237116818E+01 0.  0.
     999903    2    3    3    0    0 -0.10487809868E+00  0.11406549290E-02  0.77286763686E-01  0.13198252686E+00  0.21105138670E-01 0.  0.
         14    1    1    2    0    0 -0.46427650328E-02 -0.71924384929E-02  0.18100144481E-01  0.20022529032E-01  0.00000000000E+00 0.  1.
     999901    1    3    3    0    0  0.10952086371E+00  0.60517835639E-02 -0.95386908167E-01  0.89192494411E+00  0.88000000000E+00 0. -1.
        -11    1    4    4    0    0 -0.66249697830E-01 -0.94546048181E-02  0.48986858272E-01  0.82936032092E-01  0.51100000000E-03 0.  1.
         11    1    4    4    0    0 -0.38628400852E-01  0.10595259747E-01  0.28299905414E-01  0.49046494767E-01  0.51100000000E-03 0. -1.
</event>
<event>
 8    1  0.1197213E+005  0.1043930E+01  0.7957747E-01            NaN
         13   -1    0    0    0    0  0.00000000000E+00  0.00000000000E+00  0.74505805969E-08  0.10566000000E+00  0.10566000000E+00 0. -1.
     999900   -1    0    0    0    0 -0.00000000000E+00 -0.00000000000E+00 -0.74505805969E-08  0.93827000000E+00  0.93827000000E+00 0. -1.
     999902    2    1    2    0    0  0.24106654463E-01  0.24158910689E-02  0.31261697585E-02  0.10195017324E+01  0.10192090277E+01 0.  0.
     999903    2    3    3    0    0 -0.71885271993E-01  0.34370325854E-02 -0.10374090524E+00  0.12785378375E+00  0.20127321644E-01 0.  0.
         14    1    1    2    0    0 -0.24106654463E-01 -0.24158910689E-02 -0.31261697585E-02  0.24428267569E-01  0.00000000000E+00 0.  1.
     999901    1    3    3    0    0  0.95991926456E-01 -0.10211415165E-02  0.10686707500E+00  0.89164794868E+00  0.88000000000E+00 0.  1.
        -11    1    4    4    0    0 -0.25310924126E-01  0.16426989520E-02 -0.54135611021E-01  0.59785172423E-01  0.51100000000E-03 0.  1.
         11    1    4    4    0    0 -0.46574347867E-01  0.17943336334E-02 -0.49605294216E-01  0.68068611324E-01  0.51100000000E-03 0. -1.
</event>
<event>
 8    1  0.1197213E+005  0.1043930E+01  0.7957747E-01            NaN
         13   -1    0    0    0    0  0.00000000000E+00  0.00000000000E+00  0.74505805969E-08  0.10566000000E+00  0.10566000000E+00 0. -1.
     999900   -1    0    0    0    0 -0.00000000000E+00 -0.00000000000E+00 -0.74505805969E-08  0.93827000000E+00  0.93827000000E+00 0.  1.
     999902    2    1    2    0    0  0.56755804552E-02 -0.11018735796E-01 -0.19996123851E-01  0.10204040628E+01  0.10201328255E+01 0.  0.
     999903    2    3    3    0    0 -0.81191928270E-01  0.80611416467E-01 -0.59523210798E-01  0.13051393504E+00  0.20013618765E-01 0.  0.
         14    1    1    2    0    0 -0.56755804552E-02  0.11018735796E-01  0.19996123851E-01  0.23525937199E-01  0.00000000000E+00 0. -1.
     999901    1    3    3    0    0  0.86867508725E-01 -0.91630152262E-01  0.39527086947E-01  0.88989012776E+00  0.88000000000E+00 0.  1.
        -11    1    4    4    0    0 -0.64144054787E-01  0.54070883346E-01 -0.49510349808E-01  0.97414865649E-01  0.51100000000E-03 0. -1.
         11    1    4    4    0    0 -0.17047873484E-01  0.26540533121E-01 -0.10012860990E-01  0.33099069395E-01  0.51100000000E-03 0.  1.
</event>
<event>
 7    1  0.1467291E+005  0.1043930E+01  0.7957747E-01            NaN
         13   -1    0    0    0    0  0.00000000000E+00  0.00000000000E+00  0.74505805969E-08  0.10566000000E+00  0.10566000000E+00 0. -1.
     999900   -1    0    0    0    0 -0.00000000000E+00 -0.00000000000E+00 -0.74505805969E-08  0.93827000000E+00  0.93827000000E+00 0.  1.
     999903    2    1    2    0    0 -0.57977984713E-01  0.61881577268E-02 -0.37842547287E-02  0.62948594509E-01  0.23419328758E-01 0.  0.
         14    1    1    2    0    0 -0.55763185500E-01  0.69235546609E-01  0.16259726967E-01  0.90374069801E-01  0.00000000000E+00 0. -1.
     999901    1    1    2    0    0  0.11374117021E+00 -0.75423704335E-01 -0.12475472239E-01  0.89060733569E+00  0.88000000000E+00 0. -1.
        -11    1    3    3    0    0 -0.27753011990E-01  0.48890488547E-02  0.97208550415E-02  0.29814235139E-01  0.51100000000E-03 0.  1.
         11    1    3    3    0    0 -0.30224972723E-01  0.12991088721E-02 -0.13505109770E-01  0.33134359370E-01  0.51100000000E-03 0. -1.
</event>
<event>
 8    1  0.1197213E+005  0.1043930E+01  0.7957747E-01            NaN
         13   -1    0    0    0    0  0.00000000000E+00  0.00000000000E+00  0.74505805969E-08  0.10566000000E+00  0.10566000000E+00 0.  1.
     999900   -1    0    0    0    0 -0.00000000000E+00 -0.00000000000E+00 -0.74505805969E-08  0.93827000000E+00  0.93827000000E+00 0. -1.
     999902    2    1    2    0    0  0.70162729995E-02 -0.31583829512E-02  0.22302768689E-01  0.10203372689E+01  0.10200644712E+01 0.  0.
     999903    2    3    3    0    0 -0.10603778336E+00 -0.25464900640E-01 -0.64981584264E-01  0.12854280902E+00  0.20203336227E-01 0.  0.
         14    1    1    2    0    0 -0.70162729995E-02  0.31583829512E-02 -0.22302768689E-01  0.23592731102E-01  0.00000000000E+00 0. -1.
     999901    1    3    3    0    0  0.11305405636E+00  0.22306517689E-01  0.87284352953E-01  0.89179445987E+00  0.88000000000E+00 0.  1.
        -11    1    4    4    0    0 -0.41076272538E-01 -0.35479992174E-02 -0.15755337735E-01  0.44140007388E-01  0.51100000000E-03 0.  1.
         11    1    4    4    0    0 -0.64961510818E-01 -0.21916901423E-01 -0.49226246529E-01  0.84402801637E-01  0.51100000000E-03 0. -1.
</event>
<event>
 8    1  0.1197213E+005  0.1043930E+01  0.7957747E-01            NaN
         13   -1    0    0    0    0  0.00000000000E+00  0.00000000000E+00  0.74505805969E-08  0.10566000000E+00  0.10566000000E+00 0.  1.
     999900   -1    0    0    0    0 -0.00000000000E+00 -0.00000000000E+00 -0.74505805969E-08  0.93827000000E+00  0.93827000000E+00 0.  1.
     999902    2    1    2    0    0 -0.11467590397E-01  0.16316289189E-01 -0.11612356591E-01  0.10208524406E+01  0.10205915597E+01 0.  0.
     999903    2    3    3    0    0 -0.71781455094E-01  0.43083253307E-01  0.99350509833E-01  0.13143297242E+00  0.19883622025E-01 0.  0.
         14    1    1    2    0    0  0.11467590397E-01 -0.16316289189E-01  0.11612356591E-01  0.23077559403E-01  0.00000000000E+00 0.  1.
     999901    1    3    3    0    0  0.60313864698E-01 -0.26766964119E-01 -0.11096286642E+00  0.88941946817E+00  0.88000000000E+00 0.  1.
        -11    1    4    4    0    0 -0.10780263164E-01  0.15833180170E-01  0.24436147832E-01  0.31053020948E-01  0.51100000000E-03 0. -1.
         11    1    4    4    0    0 -0.61001191930E-01  0.27250073138E-01  0.74914362001E-01  0.10037995147E+00  0.51100000000E-03 0.  1.
</event>
<event>
 8    1  0.1197213E+005  0.1043930E+01  0.7957747E-01            NaN
         13   -1    0    0    0    0  0.00000000000E+00  0.00000000000E+00  0.74505805969E-08  0.10566000000E+00  0.10566000000E+00 0. -1.
     999900   -1    0    0    0    0 -0.00000000000E+00 -0.00000000000E+00 -0.74505805969E-08  0.93827000000E+00  0.93827000000E+00 0. -1.
     999902    2    1    2    0    0 -0.13138489307E-01  0.18196601577E-01  0.26852376667E-03  0.10214843252E+01  0.10212376895E+01 0.  0.
     999903    2    3    3    0    0 -0.14149755251E-01  0.12865641173E+00  0.30066896837E-01  0.13407780321E+00  0.17892768764E-01 0.  0.
         14    1    1    2    0    0  0.13138489307E-01 -0.18196601577E-01 -0.26852376667E-03  0.22445674756E-01  0.00000000000E+00 0. -1.
     999901    1    3    3    0    0  0.10112659438E-02 -0.11045981015E+00 -0.29798373070E-01  0.88740652204E+00  0.88000000000E+00 0.  1.
        -11    1    4    4    0    0 -0.74379517534E-02  0.36855105612E-01  0.16394085647E-01  0.41020106059E-01  0.51100000000E-03 0.  1.
         11    1    4    4    0    0 -0.67118034975E-02  0.91801306119E-01  0.13672811190E-01  0.93057697147E-01  0.51100000000E-03 0. -1.
</event>
<event>
 8    1  0.1197213E+005  0.1043930E+01  0.7957747E-01            NaN
         13   -1    0    0    0    0  0.00000000000E+00  0.00000000000E+00  0.74505805969E-08  0.10566000000E+00  0.10566000000E+00 0. -1.
     999900   -1    0    0    0    0 -0.00000000000E+00 -0.00000000000E+00 -0.74505805969E-08  0.93827000000E+00  0.93827000000E+00 0. -1.
     999902    2    1    2    0    0  0.12440114443E-01  0.19475860499E-01 -0.12285173953E-02  0.10207875100E+01  0.10205251421E+01 0.  0.
     999903    2    3    3    0    0  0.45680514452E-01 -0.11401960816E+00 -0.35593589851E-01  0.12943633196E+00  0.19991997053E-01 0.  0.
         14    1    1    2    0    0 -0.12440114443E-01 -0.19475860499E-01  0.12285173953E-02  0.23142490024E-01  0.00000000000E+00 0.  1.
     999901    1    3    3    0    0 -0.33240400009E-01  0.13349546866E+00  0.34365072456E-01  0.89135117802E+00  0.88000000000E+00 0.  1.
        -11    1    4    4    0    0  0.35759267420E-01 -0.63899113992E-01 -0.18111476233E-01  0.75432808961E-01  0.51100000000E-03 0. -1.
         11    1    4    4    0    0  0.99212470320E-02 -0.50120494171E-01 -0.17482113618E-01  0.54003522998E-01  0.51100000000E-03 0.  1.
</event>
<event>
 8    1  0.1197213E+005  0.1043930E+01  0.7957747E-01            NaN
         13   -1    0    0    0    0  0.00000000000E+00  0.00000000000E+00  0.74505805969E-08  0.10566000000E+00  0.10566000000E+00 0.  1.
     999900   -1    0    0    0    0 -0.00000000000E+00 -0.00000000000E+00 -0.74505805969E-08  0.93827000000E+00  0.93827000000E+00 0. -1.
     999902    2    1    2    0    0  0.22049289498E-01 -0.60911765387E-03  0.95144393813E-02  0.10199077864E+01  0.10196248457E+01 0.  0.
     999903    2    3    3    0    0  0.81436720597E-01 -0.10053135103E+00 -0.20592570231E-02  0.13218864713E+00  0.27038969843E-01 0.  0.
         14    1    1    2    0    0 -0.22049289498E-01  0.60911765387E-03 -0.95144393813E-02  0.24022213646E-01  0.00000000000E+00 0. -1.
     999901    1    3    3    0    0 -0.59387431098E-01  0.99922233373E-01  0.11573696404E-01  0.88771913922E+00  0.88000000000E+00 0.  1.
        -11    1    4    4    0    0  0.17519297907E-01 -0.15094818684E-01 -0.99842550321E-02  0.25193765495E-01  0.51100000000E-03 0. -1.
         11    1    4    4    0    0  0.63917422690E-01 -0.85436532342E-01  0.79249980090E-02  0.10699488164E+00  0.51100000000E-03 0.  1.
</event>
<event>
 8    1  0.1197213E+005  0.1043930E+01  0.7957747E-01            NaN
         13   -1    0    0    0    0  0.00000000000E+00  0.00000000000E+00  0.74505805969E-08  0.10566000000E+00  0.10566000000E+00 0.  1.
     999900   -1    0    0    0    0 -0.00000000000E+00 -0.00000000000E+00 -0.74505805969E-08  0.93827000000E+00  0.93827000000E+00 0.  1.
     999902    2    1    2    0    0 -0.13233979150E-01 -0.92065129887E-02  0.17399010276E-01  0.10202103110E+01  0.10199345347E+01 0.  0.
     999903    2    3    3    0    0  0.83932035640E-01  0.72990688015E-01  0.64263094659E-01  0.12982058924E+00  0.18746010589E-01 0.  0.
         14    1    1    2    0    0  0.13233979150E-01  0.92065129887E-02 -0.17399010276E-01  0.23719688955E-01  0.00000000000E+00 0. -1.
     999901    1    3    3    0    0 -0.97166014790E-01 -0.82197201003E-01 -0.46864084383E-01  0.89038972180E+00  0.88000000000E+00 0.  1.
        -11    1    4    4    0    0  0.19315790214E-01  0.28032749892E-01  0.20847167801E-01  0.39922429090E-01  0.51100000000E-03 0.  1.
         11    1    4    4    0    0  0.64616245426E-01  0.44957938122E-01  0.43415926858E-01  0.89898160154E-01  0.51100000000E-03 0. -1.
</event>
<event>
 8    1  0.1197213E+005  0.1043930E+01  0.7957747E-01            NaN
         13   -1    0    0    0    0  0.00000000000E+00  0.00000000000E+00  0.74505805969E-08  0.10566000000E+00  0.10566000000E+00 0. -1.
     999900   -1    0    0    0    0 -0.00000000000E+00 -0.00000000000E+00 -0.74505805969E-08  0.93827000000E+00  0.93827000000E+00 0.  1.
     999902    2    1    2    0    0  0.17323636144E-01  0.62809030948E-02 -0.15219236311E-01  0.10200305593E+01  0.10197505374E+01 0.  0.
     999903    2    3    3    0    0 -0.76725473094E-01  0.49160023029E-01  0.87654408613E-01  0.12802896696E+00  0.20115042786E-01 0.  0.
         14    1    1    2    0    0 -0.17323636144E-01 -0.62809030948E-02  0.15219236311E-01  0.23899440722E-01  0.00000000000E+00 0.  1.
     999901    1    3    3    0    0  0.94049109238E-01 -0.42879119934E-01 -0.10287364492E+00  0.89200159232E+00  0.88000000000E+00 0.  1.
        -11    1    4    4    0    0 -0.59845047280E-01  0.33926598662E-01  0.54222973698E-01  0.87594724603E-01  0.51100000000E-03 0. -1.
         11    1    4    4    0    0 -0.16880425814E-01  0.15233424367E-01  0.33431434915E-01  0.40434242358E-01  0.51100000000E-03 0.  1.
</event>
<event>
 8    1  0.1197213E+005  0.1043930E+01  0.7957747E-01            NaN
         13   -1    0    0    0    0  0.00000000000E+00  0.00000000000E+00  0.74505805969E-08  0.10566000000E+00  0.10566000000E+00 0.  1.
     999900   -1    0    0    0    0 -0.00000000000E+00 -0.00000000000E+00 -0.74505805969E-08  0.93827000000E+00  0.93827000000E+00 0. -1.
     999902    2    1    2    0    0 -0.12914578845E-01  0.13371673746E-01 -0.15320141491E-01  0.10198406924E+01  0.10195561501E+01 0.  0.
     999903    2    3    3    0    0 -0.75459355457E-01 -0.75792981458E-01  0.69230374220E-01  0.12910449434E+00  0.20891035880E-01 0.  0.
         14    1    1    2    0    0  0.12914578845E-01 -0.13371673746E-01  0.15320141491E-01  0.24089307604E-01  0.00000000000E+00 0.  1.
     999901    1    3    3    0    0  0.62544776611E-01  0.89164655204E-01 -0.84550515711E-01  0.89073619806E+00  0.88000000000E+00 0. -1.
        -11    1    4    4    0    0 -0.41065937907E-01 -0.51324046309E-01  0.50651230303E-01  0.82984198724E-01  0.51100000000E-03 0. -1.
         11    1    4    4    0    0 -0.34393417550E-01 -0.24468935149E-01  0.18579143918E-01  0.46120295617E-01  0.51100000000E-03 0.  1.
</event>
<event>
 8    1  0.1197213E+005  0.1043930E+01  0.7957747E-01            NaN
         13   -1    0    0    0    0  0.00000000000E+00  0.00000000000E+00  0.74505805969E-08  0.10566000000E+00  0.10566000000E+00 0. -1.
     999900   -1    0    0    0    0 -0.00000000000E+00 -0.00000000000E+00 -0.74505805969E-08  0.93827000000E+00  0.93827000000E+00 0.  1.
     999902    2    1    2    0    0 -0.70216725983E-02  0.19152930798E-01  0.95528478197E-02  0.10214045578E+01  0.10211561463E+01 0.  0.
     999903    2    3    3    0    0  0.12200837674E-01 -0.87538733381E-01 -0.91702285578E-01  0.12898917351E+00  0.20420759540E-01 0.  0.
         14    1    1    2    0    0  0.70216725983E-02 -0.19152930798E-01 -0.95528478197E-02  0.22525442186E-01  0.00000000000E+00 0. -1.
     999901    1    3    3    0    0 -0.19222510273E-01  0.10669166418E+00  0.10125513340E+00  0.89241538431E+00  0.88000000000E+00 0. -1.
        -11    1    4    4    0    0  0.91972305759E-02 -0.51654604107E-01 -0.67942757054E-01  0.85844432160E-01  0.51100000000E-03 0. -1.
         11    1    4    4    0    0  0.30036070985E-02 -0.35884129274E-01 -0.23759528524E-01  0.43144741348E-01  0.51100000000E-03 0.  1.
</event>
<event>
 8    1  0.1197213E+005  0.1043930E+01  0.7957747E-01            NaN
         13   -1    0    0    0    0  0.00000000000E+00  0.00000000000E+00  0.74505805969E-08  0.10566000000E+00  0.10566000000E+00 0. -1.
     999900   -1    0    0    0    0 -0.00000000000E+00 -0.00000000000E+00 -0.74505805969E-08  0.93827000000E+00  0.93827000000E+00 0. -1.
     999902    2    1    2    0    0 -0.67011918790E-02  0.14674618919E-01 -0.18633202087E-01  0.10192835675E+01  0.10189855467E+01 0.  0.
     999903    2    3    3    0    0  0.12832052838E-02 -0.12024091011E+00 -0.38858383847E-01  0.12873597839E+00  0.24565322209E-01 0.  0.
         14    1    1    2    0    0  0.67011918790E-02 -0.14674618919E-01  0.18633202087E-01  0.24646432460E-01  0.00000000000E+00 0. -1.
     999901    1    3    3    0    0 -0.79843971628E-02  0.13491552903E+00  0.20225181760E-01  0.89054758915E+00  0.88000000000E+00 0.  1.
        -11    1    4    4    0    0  0.82415587646E-02 -0.10113899606E+00 -0.38078619998E-01  0.10838478785E+00  0.51100000000E-03 0. -1.
         11    1    4    4    0    0 -0.69583534808E-02 -0.19101914049E-01 -0.77976384846E-03  0.20351190534E-01  0.51100000000E-03 0.  1.
</event>
<event>
 8    1  0.1197213E+005  0.1043930E+01  0.7957747E-01            NaN
         13   -1    0    0    0    0  0.00000000000E+00  0.00000000000E+00  0.74505805969E-08  0.10566000000E+00  0.10566000000E+00 0. -1.
     999900   -1    0    0    0    0 -0.00000000000E+00 -0.00000000000E+00 -0.74505805969E-08  0.93827000000E+00  0.93827000000E+00 0.  1.
     999902    2    1    2    0    0 -0.10207518897E-01  0.34095750046E-02 -0.19748013611E-01  0.10214399425E+01  0.10211923195E+01 0.  0.
     999903    2    3    3    0    0  0.95866308610E-01 -0.34666229369E-01 -0.81790921348E-01  0.13208582511E+00  0.19100099332E-01 0.  0.
         14    1    1    2    0    0  0.10207518897E-01 -0.34095750046E-02  0.19748013611E-01  0.22490057478E-01  0.00000000000E+00 0. -1.
     999901    1    3    3    0    0 -0.10607382751E+00  0.38075804373E-01  0.62042907737E-01  0.88935411741E+00  0.88000000000E+00 0. -1.
        -11    1    4    4    0    0  0.18897787970E-01  0.88580723069E-03 -0.15471957627E-01  0.24444910276E-01  0.51100000000E-03 0.  1.
         11    1    4    4    0    0  0.76968520640E-01 -0.35552036599E-01 -0.66318963721E-01  0.10764091483E+00  0.51100000000E-03 0. -1.
</event>
<event>
 8    1  0.1197213E+005  0.1043930E+01  0.7957747E-01            NaN
         13   -1    0    0    0    0  0.00000000000E+00  0.00000000000E+00  0.74505805969E-08  0.10566000000E+00  0.10566000000E+00 0. -1.
     999900   -1    0    0    0    0 -0.00000000000E+00 -0.00000000000E+00 -0.74505805969E-08  0.93827000000E+00  0.93827000000E+00 0. -1.
     999902    2    1    2    0    0 -0.13915520946E-01 -0.45494520505E-02  0.19176737189E-01  0.10198035314E+01  0.10195181000E+01 0.  0.
     999903    2    3    3    0    0 -0.10825655540E+00  0.13409850662E-01 -0.68225841507E-01  0.13027445483E+00  0.20429445654E-01 0.  0.
         14    1    1    2    0    0  0.13915520946E-01  0.45494520505E-02 -0.19176737189E-01  0.24126468585E-01  0.00000000000E+00 0.  1.
     999901    1    3    3    0    0  0.94341034450E-01 -0.17959302712E-01  0.87402578696E-01  0.88952907659E+00  0.88000000000E+00 0. -1.
        -11    1    4    4    0    0 -0.51751182886E-01  0.96098118770E-02 -0.44275809890E-01  0.68783296495E-01  0.51100000000E-03 0. -1.
         11    1    4    4    0    0 -0.56505372510E-01  0.38000387845E-02 -0.23950031617E-01  0.61491158330E-01  0.51100000000E-03 0.  1.
</event>
<event>
 8    1  0.1197213E+005  0.1043930E+01  0.7957747E-01            NaN
         13   -1    0    0    0    0  0.00000000000E+00  0.00000000000E+00  0.74505805969E-08  0.10566000000E+00  0.10566000000E+00 0. -1.
     999900   -1    0    0    0    0 -0.00000000000E+00 -0.00000000000E+00 -0.74505805969E-08  0.93827000000E+00  0.93827000000E+00 0. -1.
     999902    2    1    2    0    0 -0.60097349946E-02  0.21561988784E-01 -0.74355376850E-02  0.10203434891E+01  0.10200708369E+01 0.  0.
     999903    2    3    3    0    0  0.32839769682E-01 -0.37297668583E-01 -0.11912605114E+00  0.13048478456E+00  0.19123189731E-01 0.  0.
         14    1    1    2    0    0  0.60097349946E-02 -0.21561988784E-01  0.74355376850E-02  0.23586510884E-01  0.00000000000E+00 0. -1.
     999901    1    3    3    0    0 -0.38849504677E-01  0.58859657367E-01  0.11169051346E+00  0.88985870456E+00  0.88000000000E+00 0.  1.
        -11    1    4    4    0    0  0.70218787180E-02 -0.97284766486E-02 -0.12358772787E-01  0.17232249546E-01  0.51100000000E-03 0.  1.
         11    1    4    4    0    0  0.25817890964E-01 -0.27569191935E-01 -0.10676727836E+00  0.11325253501E+00  0.51100000000E-03 0. -1.
</event>
<event>
 8    1  0.1197213E+005  0.1043930E+01  0.7957747E-01            NaN
         13   -1    0    0    0    0  0.00000000000E+00  0.00000000000E+00  0.74505805969E-08  0.10566000000E+00  0.10566000000E+00 0. -1.
     999900   -1    0    0    0    0 -0.00000000000E+00 -0.00000000000E+00 -0.74505805969E-08  0.93827000000E+00  0.93827000000E+00 0.  1.
     999902    2    1    2    0    0  0.36906254634E-02  0.23455278846E-01 -0.67701878816E-02  0.10192397941E+01  0.10189407008E+01 0.  0.
     999903    2    3    3    0    0 -0.45535586249E-01 -0.85978069607E-01 -0.80772072180E-01  0.12801863384E+00  0.19973104328E-01 0.  0.
         14    1    1    2    0    0 -0.36906254634E-02 -0.23455278846E-01  0.67701878816E-02  0.24690205872E-01  0.00000000000E+00 0. -1.
     999901    1    3    3    0    0  0.49226211712E-01  0.10943334845E+00  0.74001884299E-01  0.89122116029E+00  0.88000000000E+00 0.  1.
        -11    1    4    4    0    0 -0.31503090608E-01 -0.38527813867E-01 -0.38167000233E-01  0.62720157740E-01  0.51100000000E-03 0.  1.
         11    1    4    4    0    0 -0.14032495641E-01 -0.47450255740E-01 -0.42605071948E-01  0.65298476096E-01  0.51100000000E-03 0. -1.
</event>
<event>
 8    1  0.1197213E+005  0.1043930E+01  0.7957747E-01            NaN
         13   -1    0    0    0    0  0.00000000000E+00  0.00000000000E+00  0.74505805969E-08  0.10566000000E+00  0.10566000000E+00 0.  1.
     999900   -1    0    0    0    0 -0.00000000000E+00 -0.00000000000E+00 -0.74505805969E-08  0.93827000000E+00  0.93827000000E+00 0. -1.
     999902    2    1    2    0    0  0.16748097736E-01 -0.15964686023E-01 -0.32867788064E-02  0.10205596578E+01  0.10202920378E+01 0.  0.
     999903    2    3    3    0    0 -0.25399601893E-01 -0.99357073256E-01  0.80770208694E-01  0.13162979785E+00  0.16899978946E-01 0.  0.
         14    1    1    2    0    0 -0.16748097736E-01  0.15964686023E-01  0.32867788064E-02  0.23370342157E-01  0.00000000000E+00 0. -1.
     999901    1    3    3    0    0  0.42147699630E-01  0.83392387234E-01 -0.84056987500E-01  0.88892985999E+00  0.88000000000E+00 0. -1.
        -11    1    4    4    0    0 -0.11672398170E-01 -0.56093621060E-01  0.55049539436E-01  0.79457234508E-01  0.51100000000E-03 0.  1.
         11    1    4    4    0    0 -0.13727203723E-01 -0.43263452197E-01  0.25720669258E-01  0.52172563346E-01  0.51100000000E-03 0. -1.
</event>
<event>
 8    1  0.1197213E+005  0.1043930E+01  0.7957747E-01            NaN
         13   -1    0    0    0    0  0.00000000000E+00  0.00000000000E+00  0.74505805969E-08  0.10566000000E+00  0.10566000000E+00 0.  1.
     999900   -1    0    0    0    0 -0.00000000000E+00 -0.00000000000E+00 -0.74505805969E-08  0.93827000000E+00  0.93827000000E+00 0. -1.
     999902    2    1    2    0    0 -0.22676157865E-01 -0.69116964171E-02  0.81912435805E-02  0.10188486094E+01  0.10185398435E+01 0.  0.
     999903    2    3    3    0    0  0.88034598380E-01 -0.25011467726E-01 -0.86375369859E-01  0.12670102204E+00  0.14723465516E-01 0.  0.
         14    1    1    2    0    0  0.22676157865E-01  0.69116964171E-02 -0.81912435805E-02  0.25081390597E-01  0.00000000000E+00 0. -1.
     999901    1    3    3    0    0 -0.11071075624E+00  0.18099771309E-01  0.94566613439E-01  0.89214758737E+00  0.88000000000E+00 0.  1.
        -11    1    4    4    0    0  0.78486528664E-01 -0.21237544390E-01 -0.69620640779E-01  0.10704421151E+00  0.51100000000E-03 0.  1.
         11    1    4    4    0    0  0.95480697158E-02 -0.37739233363E-02 -0.16754729080E-01  0.19656810529E-01  0.51100000000E-03 0. -1.
</event>
<event>
 8    1  0.1197213E+005  0.1043930E+01  0.7957747E-01            NaN
         13   -1    0    0    0    0  0.00000000000E+00  0.00000000000E+00  0.74505805969E-08  0.10566000000E+00  0.10566000000E+00 0. -1.
     999900   -1    0    0    0    0 -0.00000000000E+00 -0.00000000000E+00 -0.74505805969E-08  0.93827000000E+00  0.93827000000E+00 0.  1.
     999902    2    1    2    0    0 -0.61781130418E-02  0.18290324075E-01 -0.12933800976E-01  0.10206923529E+01  0.10204277980E+01 0.  0.
     999903    2    3    3    0    0  0.66622587183E-01 -0.89462967104E-01 -0.63234509811E-01  0.12971487000E+00  0.19625306652E-01 0.  0.
         14    1    1    2    0    0  0.61781130418E-02 -0.18290324075E-01  0.12933800976E-01  0.23237647110E-01  0.00000000000E+00 0. -1.
     999901    1    3    3    0    0 -0.72800700225E-01  0.10775329118E+00  0.50300708835E-01  0.89097748289E+00  0.88000000000E+00 0.  1.
        -11    1    4    4    0    0  0.56274883482E-01 -0.62863444923E-01 -0.42798423613E-01  0.94607829503E-01  0.51100000000E-03 0. -1.
         11    1    4    4    0    0  0.10347703701E-01 -0.26599522180E-01 -0.20436086199E-01  0.35107040494E-01  0.51100000000E-03 0.  1.
</event>
<event>
 8    1  0.1197213E+005  0.1043930E+01  0.7957747E-01            NaN
         13   -1    0    0    0    0  0.00000000000E+00  0.00000000000E+00  0.74505805969E-08  0.10566000000E+00  0.10566000000E+00 0.  1.
     999900   -1    0    0    0    0 -0.00000000000E+00 -0.00000000000E+00 -0.74505805969E-08  0.93827000000E+00  0.93827000000E+00 0.  1.
     999902    2    1    2    0    0  0.13493092977E-01  0.78287814903E-02 -0.18127564661E-01  0.10200142734E+01  0.10197338653E+01 0.  0.
     999903    2    3    3    0    0 -0.24608993221E-01 -0.74516482082E-01 -0.10334859145E+00  0.13125382491E+00  0.19706002912E-01 0.  0.
         14    1    1    2    0    0 -0.13493092977E-01 -0.78287814903E-02  0.18127564661E-01  0.23915726589E-01  0.00000000000E+00 0.  1.
     999901    1    3    3    0    0  0.38102086199E-01  0.82345263572E-01  0.85221026788E-01  0.88876044850E+00  0.88000000000E+00 0. -1.
        -11    1    4    4    0    0 -0.33690119641E-02 -0.34382934806E-01 -0.34886467217E-01  0.49100541375E-01  0.51100000000E-03 0. -1.
         11    1    4    4    0    0 -0.21239981257E-01 -0.40133547276E-01 -0.68462124233E-01  0.82153283539E-01  0.51100000000E-03 0.  1.
</event>
<event>
 8    1  0.1197213E+005  0.1043930E+01  0.7957747E-01            NaN
         13   -1    0    0    0    0  0.00000000000E+00  0.00000000000E+00  0.74505805969E-08  0.10566000000E+00  0.10566000000E+00 0.  1.
     999900   -1    0    0    0    0 -0.00000000000E+00 -0.00000000000E+00 -0.74505805969E-08  0.93827000000E+00  0.93827000000E+00 0.  1.
     999902    2    1    2    0    0  0.61629182128E-02 -0.21886852783E-01  0.57312045105E-02  0.10204808510E+01  0.10202114019E+01 0.  0.
     999903    2    3    3    0    0  0.31786207220E-01 -0.42251424046E-01  0.11987088118E+00  0.13250611343E+00  0.19831695283E-01 0.  0.
         14    1    1    2    0    0 -0.61629182128E-02  0.21886852783E-01 -0.57312045105E-02  0.23449149042E-01  0.00000000000E+00 0. -1.
     999901    1    3    3    0    0 -0.25623289007E-01  0.20364571263E-01 -0.11413967667E+00  0.88797473753E+00  0.88000000000E+00 0.  1.
        -11    1    4    4    0    0  0.29043068377E-01 -0.42928081713E-01  0.10208384713E+00  0.11448883345E+00  0.51100000000E-03 0. -1.
         11    1    4    4    0    0  0.27431388431E-02  0.67665766710E-03  0.17787034051E-01  0.18017279974E-01  0.51100000000E-03 0.  1.
</event>
<event>
 8    1  0.1197213E+005  0.1043930E+01  0.7957747E-01            NaN
         13   -1    0    0    0    0  0.00000000000E+00  0.00000000000E+00  0.74505805969E-08  0.10566000000E+00  0.10566000000E+00 0. -1.
     999900   -1    0    0    0    0 -0.00000000000E+00 -0.00000000000E+00 -0.74505805969E-08  0.93827000000E+00  0.93827000000E+00 0.  1.
     999902    2    1    2    0    0 -0.39069307025E-02  0.23749518473E-01 -0.54039547776E-02  0.10192620762E+01  0.10189635291E+01 0.  0.
     999903    2    3    3    0    0 -0.99885672645E-01 -0.53584742658E-01 -0.58365072345E-01  0.12909502067E+00  0.20262538023E-01 0.  0.
         14    1    1    2    0    0  0.39069307025E-02 -0.23749518473E-01  0.54039547776E-02  0.24667923757E-01  0.00000000000E+00 0. -1.
     999901    1    3    3    0    0  0.95978741943E-01  0.77334261131E-01  0.52961117567E-01  0.89016705557E+00  0.88000000000E+00 0. -1.
        -11    1    4    4    0    0 -0.72231759240E-01 -0.28867538496E-01 -0.35370838131E-01  0.85452437841E-01  0.51100000000E-03 0. -1.
         11    1    4    4    0    0 -0.27653913405E-01 -0.24717204162E-01 -0.22994234213E-01  0.43642582832E-01  0.51100000000E-03 0.  1.
</event>
<event>
 8    1  0.1197213E+005  0.1043930E+01  0.7957747E-01            NaN
         13   -1    0    0    0    0  0.00000000000E+00  0.00000000000E+00  0.74505805969E-08  0.10566000000E+00  0.10566000000E+00 0. -1.
     999900   -1    0    0    0    0 -0.00000000000E+00 -0.00000000000E+00 -0.74505805969E-08  0.93827000000E+00  0.93827000000E+00 0.  1.
     999902    2    1    2    0    0  0.21865250714E-02  0.13329629157E-01 -0.17005058485E-01  0.10222129118E+01  0.10219821941E+01 0.  0.
     999903    2    3    3    0    0 -0.10053525516E+00  0.50054145927E-01 -0.70315543946E-01  0.13387600380E+00  0.19124686149E-01 0.  0.
         14    1    1    2    0    0 -0.21865250714E-02 -0.13329629157E-01  0.17005058485E-01  0.21717088189E-01  0.00000000000E+00 0. -1.
     999901    1    3    3    0    0  0.10272178023E+00 -0.36724516770E-01  0.53310485461E-01  0.88833690801E+00  0.88000000000E+00 0. -1.
        -11    1    4    4    0    0 -0.48706477874E-01  0.29014849968E-01 -0.45427764344E-01  0.72650708186E-01  0.51100000000E-03 0. -1.
         11    1    4    4    0    0 -0.51828777284E-01  0.21039295959E-01 -0.24887779602E-01  0.61225295619E-01  0.51100000000E-03 0.  1.
</event>
<event>
 8    1  0.1197213E+005  0.1043930E+01  0.7957747E-01            NaN
         13   -1    0    0    0    0  0.00000000000E+00  0.00000000000E+00  0.74505805969E-08  0.10566000000E+00  0.10566000000E+00 0.  1.
     999900   -1    0    0    0    0 -0.00000000000E+00 -0.00000000000E+00 -0.74505805969E-08  0.93827000000E+00  0.93827000000E+00 0.  1.
     999902    2    1    2    0    0 -0.12417080806E-02 -0.21407305154E-01 -0.81609014129E-02  0.10209862674E+01  0.10207284376E+01 0.  0.
     999903    2    3    3    0    0 -0.67487834927E-01 -0.29461970600E-01 -0.10860880903E+00  0.13276151596E+00  0.20177491061E-01 0.  0.
         14    1    1    2    0    0  0.12417080806E-02  0.21407305154E-01  0.81609014129E-02  0.22943732582E-01  0.00000000000E+00 0.  1.
     999901    1    3    3    0    0  0.66246126846E-01  0.80546654455E-02  0.10044790762E+00  0.88822475146E+00  0.88000000000E+00 0. -1.
        -11    1    4    4    0    0 -0.21198505386E-02  0.25028940250E-02 -0.73871520696E-02  0.80987271534E-02  0.51100000000E-03 0.  1.
         11    1    4    4    0    0 -0.65367984388E-01 -0.31964864625E-01 -0.10122165696E+00  0.12466278881E+00  0.51100000000E-03 0. -1.
</event>
<event>
 8    1  0.1197213E+005  0.1043930E+01  0.7957747E-01            NaN
         13   -1    0    0    0    0  0.00000000000E+00  0.00000000000E+00  0.74505805969E-08  0.10566000000E+00  0.10566000000E+00 0.  1.
     999900   -1    0    0    0    0 -0.00000000000E+00 -0.00000000000E+00 -0.74505805969E-08  0.93827000000E+00  0.93827000000E+00 0.  1.
     999902    2    1    2    0    0  0.89483478720E-02  0.20444740801E-01  0.13553826088E-01  0.10178193402E+01  0.10174843697E+01 0.  0.
     999903    2    3    3    0    0  0.11545681855E+00  0.53336564525E-01 -0.16720542405E-01  0.13027077034E+00  0.22711913164E-01 0.  0.
         14    1    1    2    0    0 -0.89483478720E-02 -0.20444740801E-01 -0.13553826088E-01  0.26110659848E-01  0.00000000000E+00 0. -1.
     999901    1    3    3    0    0 -0.10650847068E+00 -0.32891823724E-01  0.30274368493E-01  0.88754856982E+00  0.88000000000E+00 0. -1.
        -11    1    4    4    0    0  0.36077162340E-01  0.65355612995E-02 -0.30303922085E-03  0.36669171763E-01  0.51100000000E-03 0.  1.
         11    1    4    4    0    0  0.79379656214E-01  0.46801003225E-01 -0.16417503184E-01  0.93601598573E-01  0.51100000000E-03 0. -1.
</event>
<event>
 8    1  0.1197213E+005  0.1043930E+01  0.7957747E-01            NaN
         13   -1    0    0    0    0  0.00000000000E+00  0.00000000000E+00  0.74505805969E-08  0.10566000000E+00  0.10566000000E+00 0. -1.
     999900   -1    0    0    0    0 -0.00000000000E+00 -0.00000000000E+00 -0.74505805969E-08  0.93827000000E+00  0.93827000000E+00 0. -1.
     999902    2    1    2    0    0 -0.54983080314E-02  0.24504583635E-01  0.45883661797E-02  0.10184004267E+01  0.10180803848E+01 0.  0.
     999903    2    3    3    0    0  0.61246012923E-01  0.11235649263E+00  0.22219248278E-01  0.13133582344E+00  0.19502512397E-01 0.  0.
         14    1    1    2    0    0  0.54983080314E-02 -0.24504583635E-01 -0.45883661797E-02  0.25529573332E-01  0.00000000000E+00 0.  1.
     999901    1    3    3    0    0 -0.66744320954E-01 -0.87851908996E-01 -0.17630882099E-01  0.88706460323E+00  0.88000000000E+00 0.  1.
        -11    1    4    4    0    0  0.24691480877E-01  0.54512464810E-01  0.15956364665E-02  0.59867229970E-01  0.51100000000E-03 0.  1.
         11    1    4    4    0    0  0.36554532046E-01  0.57844027821E-01  0.20623611812E-01  0.71468593472E-01  0.51100000000E-03 0. -1.
</event>
<event>
 8    1  0.1197213E+005  0.1043930E+01  0.7957747E-01            NaN
         13   -1    0    0    0    0  0.00000000000E+00  0.00000000000E+00  0.74505805969E-08  0.10566000000E+00  0.10566000000E+00 0.  1.
     999900   -1    0    0    0    0 -0.00000000000E+00 -0.00000000000E+00 -0.74505805969E-08  0.93827000000E+00  0.93827000000E+00 0. -1.
     999902    2    1    2    0    0 -0.12648322208E-01 -0.28146550264E-02 -0.19391449243E-01  0.10206076793E+01  0.10203411706E+01 0.  0.
     999903    2    3    3    0    0 -0.73324982193E-01 -0.39719896039E-01  0.97629133996E-01  0.13002502130E+00  0.20514268323E-01 0.  0.
         14    1    1    2    0    0  0.12648322208E-01  0.28146550264E-02  0.19391449243E-01  0.23322320668E-01  0.00000000000E+00 0.  1.
     999901    1    3    3    0    0  0.60676659986E-01  0.36905241013E-01 -0.11702058324E+00  0.89058265803E+00  0.88000000000E+00 0.  1.
        -11    1    4    4    0    0 -0.54607615284E-01 -0.19699212623E-01  0.72087472548E-01  0.92557633096E-01  0.51100000000E-03 0. -1.
         11    1    4    4    0    0 -0.18717366909E-01 -0.20020683416E-01  0.25541661448E-01  0.37467388206E-01  0.51100000000E-03 0.  1.
</event>
<event>
 8    1  0.1197213E+005  0.1043930E+01  0.7957747E-01            NaN
         13   -1    0    0    0    0  0.00000000000E+00  0.00000000000E+00  0.74505805969E-08  0.10566000000E+00  0.10566000000E+00 0. -1.
     999900   -1    0    0    0    0 -0.00000000000E+00 -0.00000000000E+00 -0.74505805969E-08  0.93827000000E+00  0.93827000000E+00 0.  1.
     999902    2    1    2    0    0  0.30705298414E-02 -0.43496695468E-02  0.18211857951E-01  0.10249558189E+01  0.10247801770E+01 0.  0.
     999903    2    3    3    0    0  0.61199704364E-01  0.80632845293E-01  0.88751041801E-01  0.13614942534E+00  0.20318933184E-01 0.  0.
         14    1    1    2    0    0 -0.30705298414E-02  0.43496695468E-02 -0.18211857951E-01  0.18974181107E-01  0.00000000000E+00 0.  1.
     999901    1    3    3    0    0 -0.58129174522E-01 -0.84982514840E-01 -0.70539183851E-01  0.88880639355E+00  0.88000000000E+00 0.  1.
        -11    1    4    4    0    0  0.13549804633E-01  0.26680482538E-01  0.16568481912E-01  0.34208494090E-01  0.51100000000E-03 0.  1.
         11    1    4    4    0    0  0.47649899730E-01  0.53952362755E-01  0.72182559889E-01  0.10194093125E+00  0.51100000000E-03 0. -1.
</event>
<event>
 8    1  0.1197213E+005  0.1043930E+01  0.7957747E-01            NaN
         13   -1    0    0    0    0  0.00000000000E+00  0.00000000000E+00  0.74505805969E-08  0.10566000000E+00  0.10566000000E+00 0. -1.
     999900   -1    0    0    0    0 -0.00000000000E+00 -0.00000000000E+00 -0.74505805969E-08  0.93827000000E+00  0.93827000000E+00 0. -1.
     999902    2    1    2    0    0 -0.17679912092E-01 -0.11691389168E-01 -0.10724417001E-01  0.10201754006E+01  0.10198988023E+01 0.  0.
     999903    2    3    3    0    0 -0.11467012629E+00  0.60975302984E-01  0.63259159483E-02  0.13170578174E+00  0.20956390296E-01 0.  0.
         14    1    1    2    0    0  0.17679912092E-01  0.11691389168E-01  0.10724417001E-01  0.23754599392E-01  0.00000000000E+00 0. -1.
     999901    1    3    3    0    0  0.96990214195E-01 -0.72666692152E-01 -0.17050332950E-01  0.88846961887E+00  0.88000000000E+00 0. -1.
        -11    1    4    4    0    0 -0.24746871927E-01  0.46317755141E-02 -0.20032181179E-02  0.25261334455E-01  0.51100000000E-03 0. -1.
         11    1    4    4    0    0 -0.89923254360E-01  0.56343527470E-01  0.83291340662E-02  0.10644444728E+00  0.51100000000E-03 0.  1.
</event>
<event>
 8    1  0.1197213E+005  0.1043930E+01  0.7957747E-01            NaN
         13   -1    0    0    0    0  0.00000000000E+00  0.00000000000E+00  0.74505805969E-08  0.10566000000E+00  0.10566000000E+00 0. -1.
     999900   -1    0    0    0    0 -0.00000000000E+00 -0.00000000000E+00 -0.74505805969E-08  0.93827000000E+00  0.93827000000E+00 0. -1.
     999902    2    1    2    0    0  0.12099794367E-01 -0.39433385180E-02  0.19401803662E-01  0.10207268768E+01  0.10204631164E+01 0.  0.
     999903    2    3    3    0    0  0.88189536775E-01 -0.77476390094E-01  0.59796763202E-01  0.13346788902E+00  0.21401847882E-01 0.  0.
         14    1    1    2    0    0 -0.12099794367E-01  0.39433385180E-02 -0.19401803662E-01  0.23203123232E-01  0.00000000000E+00 0. -1.
     999901    1    3    3    0    0 -0.76089742408E-01  0.73533051576E-01 -0.40394959540E-01  0.88725898774E+00  0.88000000000E+00 0. -1.
        -11    1    4    4    0    0  0.32049839565E-01 -0.17860567241E-01  0.11780198482E-01  0.38538633546E-01  0.51100000000E-03 0. -1.
         11    1    4    4    0    0  0.56139697210E-01 -0.59615822853E-01  0.48016564721E-01  0.94929255479E-01  0.51100000000E-03 0.  1.
</event>
<event>
 8    1  0.1197213E+005  0.1043930E+01  0.7957747E-01            NaN
         13   -1    0    0    0    0  0.00000000000E+00  0.00000000000E+00  0.74505805969E-08  0.10566000000E+00  0.10566000000E+00 0.  1.
     999900   -1    0    0    0    0 -0.00000000000E+00 -0.00000000000E+00 -0.74505805969E-08  0.93827000000E+00  0.93827000000E+00 0. -1.
     999902    2    1    2    0    0 -0.35367489333E-02 -0.19650605745E-01  0.80455924739E-02  0.10224035870E+01  0.10221769456E+01 0.  0.
     999903    2    3    3    0    0  0.75599452838E-02  0.12399527050E+00 -0.32101028053E-01  0.12978439297E+00  0.19532864020E-01 0.  0.
         14    1    1    2    0    0  0.35367489333E-02  0.19650605745E-01 -0.80455924739E-02  0.21526413018E-01  0.00000000000E+00 0. -1.
     999901    1    3    3    0    0 -0.11096694217E-01 -0.14364587624E+00  0.40146620527E-01  0.89261919402E+00  0.88000000000E+00 0. -1.
        -11    1    4    4    0    0  0.62184991347E-02  0.11187316220E-01 -0.15445109102E-02  0.12902418791E-01  0.51100000000E-03 0.  1.
         11    1    4    4    0    0  0.13414461491E-02  0.11280795428E+00 -0.30556517143E-01  0.11688197418E+00  0.51100000000E-03 0. -1.
</event>
<event>
 8    1  0.1197213E+005  0.1043930E+01  0.7957747E-01            NaN
         13   -1    0    0    0    0  0.00000000000E+00  0.00000000000E+00  0.74505805969E-08  0.10566000000E+00  0.10566000000E+00 0.  1.
     999900   -1    0    0    0    0 -0.00000000000E+00 -0.00000000000E+00 -0.74505805969E-08  0.93827000000E+00  0.93827000000E+00 0.  1.
     999902    2    1    2    0    0  0.28343840375E-02 -0.21178855770E-01  0.10723750134E-01  0.10200223343E+01  0.10197421173E+01 0.  0.
     999903    2    3    3    0    0  0.76116579279E-01  0.61039994539E-01  0.83726654565E-01  0.13015737622E+00  0.20277458527E-01 0.  0.
         14    1    1    2    0    0 -0.28343840375E-02  0.21178855770E-01 -0.10723750134E-01  0.23907665748E-01  0.00000000000E+00 0. -1.
     999901    1    3    3    0    0 -0.73282195242E-01 -0.82218850308E-01 -0.73002904431E-01  0.88986495804E+00  0.88000000000E+00 0.  1.
        -11    1    4    4    0    0  0.30300836927E-01  0.29506216376E-01  0.48346757011E-01  0.64237275454E-01  0.51100000000E-03 0. -1.
         11    1    4    4    0    0  0.45815742352E-01  0.31533778162E-01  0.35379897554E-01  0.65920100761E-01  0.51100000000E-03 0.  1.
</event>
<event>
 8    1  0.1197213E+005  0.1043930E+01  0.7957747E-01            NaN
         13   -1    0    0    0    0  0.00000000000E+00  0.00000000000E+00  0.74505805969E-08  0.10566000000E+00  0.10566000000E+00 0. -1.
     999900   -1    0    0    0    0 -0.00000000000E+00 -0.00000000000E+00 -0.74505805969E-08  0.93827000000E+00  0.93827000000E+00 0.  1.
     999902    2    1    2    0    0 -0.47647793287E-03  0.16249364556E-01  0.19748935711E-01  0.10183509198E+01  0.10180296197E+01 0.  0.
     999903    2    3    3    0    0  0.10037175242E+00 -0.34201509299E-01 -0.67492652742E-01  0.12687643844E+00  0.17266746561E-01 0.  0.
         14    1    1    2    0    0  0.47647793287E-03 -0.16249364556E-01 -0.19748935711E-01  0.25579080152E-01  0.00000000000E+00 0.  1.
     999901    1    3    3    0    0 -0.10084823035E+00  0.50450873855E-01  0.87241588453E-01  0.89147448140E+00  0.88000000000E+00 0. -1.
        -11    1    4    4    0    0  0.34135760402E-01 -0.19329597105E-01 -0.20082300789E-01  0.44073159501E-01  0.51100000000E-03 0.  1.
         11    1    4    4    0    0  0.66235992014E-01 -0.14871912194E-01 -0.47410351953E-01  0.82803278943E-01  0.51100000000E-03 0. -1.
</event>
<event>
 8    1  0.1197213E+005  0.1043930E+01  0.7957747E-01            NaN
         13   -1    0    0    0    0  0.00000000000E+00  0.00000000000E+00  0.74505805969E-08  0.10566000000E+00  0.10566000000E+00 0.  1.
     999900   -1    0    0    0    0 -0.00000000000E+00 -0.00000000000E+00 -0.74505805969E-08  0.93827000000E+00  0.93827000000E+00 0.  1.
     999902    2    1    2    0    0 -0.10203801505E-01 -0.18831066941E-01 -0.10471357402E-01  0.10200893630E+01  0.10198107337E+01 0.  0.
     999903    2    3    3    0    0  0.11525343724E+00  0.29203473142E-01 -0.46331162303E-01  0.12917255351E+00  0.20069238683E-01 0.  0.
         14    1    1    2    0    0  0.10203801505E-01  0.18831066941E-01  0.10471357402E-01  0.23840637012E-01  0.00000000000E+00 0.  1.
     999901    1    3    3    0    0 -0.12545723875E+00 -0.48034540083E-01  0.35859804901E-01  0.89091680947E+00  0.88000000000E+00 0. -1.
        -11    1    4    4    0    0  0.70822653946E-01  0.98518479042E-02 -0.33920122386E-01  0.79143812410E-01  0.51100000000E-03 0.  1.
         11    1    4    4    0    0  0.44430783297E-01  0.19351625237E-01 -0.12411039916E-01  0.50028741105E-01  0.51100000000E-03 0. -1.
</event>
<event>
 8    1  0.1197213E+005  0.1043930E+01  0.7957747E-01            NaN
         13   -1    0    0    0    0  0.00000000000E+00  0.00000000000E+00  0.74505805969E-08  0.10566000000E+00  0.10566000000E+00 0.  1.
     999900   -1    0    0    0    0 -0.00000000000E+00 -0.00000000000E+00 -0.74505805969E-08  0.93827000000E+00  0.93827000000E+00 0. -1.
     999902    2    1    2    0    0  0.26982236490E-02  0.25844925295E-01  0.16483634009E-01  0.10131574349E+01  0.10126900005E+01 0.  0.
     999903    2    3    3    0    0  0.23820340070E-01 -0.11693615979E+00 -0.46094574010E-02  0.12114986732E+00  0.20360972126E-01 0.  0.
         14    1    1    2    0    0 -0.26982236490E-02 -0.25844925295E-01 -0.16483634009E-01  0.30772565128E-01  0.00000000000E+00 0.  1.
     999901    1    3    3    0    0 -0.21122116422E-01  0.14278108509E+00  0.21093091410E-01  0.89200756755E+00  0.88000000000E+00 0.  1.
        -11    1    4    4    0    0  0.18097030136E-01 -0.77443305187E-01  0.62897666749E-02  0.79779635897E-01  0.51100000000E-03 0.  1.
         11    1    4    4    0    0  0.57233099341E-02 -0.39492854608E-01 -0.10899224076E-01  0.41370231425E-01  0.51100000000E-03 0. -1.
</event>
<event>
 8    1  0.1197213E+005  0.1043930E+01  0.7957747E-01            NaN
         13   -1    0    0    0    0  0.00000000000E+00  0.00000000000E+00  0.74505805969E-08  0.10566000000E+00  0.10566000000E+00 0. -1.
     999900   -1    0    0    0    0 -0.00000000000E+00 -0.00000000000E+00 -0.74505805969E-08  0.93827000000E+00  0.93827000000E+00 0.  1.
     999902    2    1    2    0    0  0.16025807974E-01 -0.34634487745E-02  0.17311439771E-01  0.10200865953E+01  0.10198079006E+01 0.  0.
     999903    2    3    3    0    0  0.45332229692E-01  0.92464088587E-01 -0.76134358110E-01  0.12947271946E+00  0.19029605149E-01 0.  0.
         14    1    1    2    0    0 -0.16025807974E-01  0.34634487745E-02 -0.17311439771E-01  0.23843404655E-01  0.00000000000E+00 0.  1.
     999901    1    3    3    0    0 -0.29306421718E-01 -0.95927537362E-01  0.93445797881E-01  0.89061387589E+00  0.88000000000E+00 0. -1.
        -11    1    4    4    0    0  0.29860093610E-01  0.46939852092E-01 -0.49700677142E-01  0.74601563885E-01  0.51100000000E-03 0. -1.
         11    1    4    4    0    0  0.15472136081E-01  0.45524236496E-01 -0.26433680969E-01  0.54871155574E-01  0.51100000000E-03 0.  1.
</event>
<event>
 8    1  0.1197213E+005  0.1043930E+01  0.7957747E-01            NaN
         13   -1    0    0    0    0  0.00000000000E+00  0.00000000000E+00  0.74505805969E-08  0.10566000000E+00  0.10566000000E+00 0.  1.
     999900   -1    0    0    0    0 -0.00000000000E+00 -0.00000000000E+00 -0.74505805969E-08  0.93827000000E+00  0.93827000000E+00 0. -1.
     999902    2    1    2    0    0  0.10100386229E-01 -0.23841901292E-01 -0.17989306861E-01  0.10124011367E+01  0.10119100713E+01 0.  0.
     999903    2    3    3    0    0  0.74323557993E-01  0.60933215032E-01 -0.76102119611E-01  0.12409458199E+00  0.19263558973E-01 0.  0.
         14    1    1    2    0    0 -0.10100386229E-01  0.23841901292E-01  0.17989306861E-01  0.31528863293E-01  0.00000000000E+00 0. -1.
     999901    1    3    3    0    0 -0.64223171765E-01 -0.84775116324E-01  0.58112812750E-01  0.88830655471E+00  0.88000000000E+00 0.  1.
        -11    1    4    4    0    0  0.30542532026E-01  0.13369245160E-01 -0.24505128898E-01  0.41380495913E-01  0.51100000000E-03 0. -1.
         11    1    4    4    0    0  0.43781025968E-01  0.47563969872E-01 -0.51596990713E-01  0.82714086082E-01  0.51100000000E-03 0.  1.
</event>
<event>
 8    1  0.1197213E+005  0.1043930E+01  0.7957747E-01            NaN
         13   -1    0    0    0    0  0.00000000000E+00  0.00000000000E+00  0.74505805969E-08  0.10566000000E+00  0.10566000000E+00 0. -1.
     999900   -1    0    0    0    0 -0.00000000000E+00 -0.00000000000E+00 -0.74505805969E-08  0.93827000000E+00  0.93827000000E+00 0.  1.
     999902    2    1    2    0    0 -0.20942446942E-01 -0.62079392755E-02 -0.90917022233E-02  0.10202702527E+01  0.10199958847E+01 0.  0.
     999903    2    3    3    0    0  0.10161471349E+00  0.39479710881E-01 -0.65506967975E-01  0.12881621507E+00  0.20451328639E-01 0.  0.
         14    1    1    2    0    0  0.20942446942E-01  0.62079392755E-02  0.90917022233E-02  0.23659747321E-01  0.00000000000E+00 0. -1.
     999901    1    3    3    0    0 -0.12255716044E+00 -0.45687650156E-01  0.56415265752E-01  0.89145403760E+00  0.88000000000E+00 0. -1.
        -11    1    4    4    0    0  0.60787992835E-01  0.33942749350E-01 -0.43624920360E-01  0.82162552929E-01  0.51100000000E-03 0. -1.
         11    1    4    4    0    0  0.40826720659E-01  0.55369615305E-02 -0.21882047615E-01  0.46653662145E-01  0.51100000000E-03 0.  1.
</event>
<event>
 8    1  0.1197213E+005  0.1043930E+01  0.7957747E-01            NaN
         13   -1    0    0    0    0  0.00000000000E+00  0.00000000000E+00  0.74505805969E-08  0.10566000000E+00  0.10566000000E+00 0. -1.
     999900   -1    0    0    0    0 -0.00000000000E+00 -0.00000000000E+00 -0.74505805969E-08  0.93827000000E+00  0.93827000000E+00 0.  1.
     999902    2    1    2    0    0  0.17098963315E-01  0.82511494628E-02 -0.12195370735E-01  0.10213649146E+01  0.10211156181E+01 0.  0.
     999903    2    3    3    0    0 -0.60894525886E-01  0.10328464589E+00 -0.51417064688E-01  0.13195348497E+00  0.19802683995E-01 0.  0.
         14    1    1    2    0    0 -0.17098963315E-01 -0.82511494628E-02  0.12195370735E-01  0.22565085448E-01  0.00000000000E+00 0. -1.
     999901    1    3    3    0    0  0.77993489201E-01 -0.95033496431E-01  0.39221693953E-01  0.88941142959E+00  0.88000000000E+00 0. -1.
        -11    1    4    4    0    0 -0.33616793927E-01  0.72909099267E-01 -0.28924325244E-01  0.85338756153E-01  0.51100000000E-03 0. -1.
         11    1    4    4    0    0 -0.27277731959E-01  0.30375546626E-01 -0.22492739443E-01  0.46614728813E-01  0.51100000000E-03 0.  1.
</event>
<event>
 8    1  0.1197213E+005  0.1043930E+01  0.7957747E-01            NaN
         13   -1    0    0    0    0  0.00000000000E+00  0.00000000000E+00  0.74505805969E-08  0.10566000000E+00  0.10566000000E+00 0.  1.
     999900   -1    0    0    0    0 -0.00000000000E+00 -0.00000000000E+00 -0.74505805969E-08  0.93827000000E+00  0.93827000000E+00 0. -1.
     999902    2    1    2    0    0  0.12580091318E-01 -0.20147606620E-01  0.43406215944E-03  0.10201734607E+01  0.10198968167E+01 0.  0.
     999903    2    3    3    0    0  0.42117155939E-01 -0.32238144752E-01 -0.11863989378E+00  0.13158062576E+00  0.20612711584E-01 0.  0.
         14    1    1    2    0    0 -0.12580091318E-01  0.20147606620E-01 -0.43406215944E-03  0.23756539311E-01  0.00000000000E+00 0.  1.
     999901    1    3    3    0    0 -0.29537064621E-01  0.12090538132E-01  0.11907395594E+00  0.88859283493E+00  0.88000000000E+00 0.  1.
        -11    1    4    4    0    0  0.11098006731E-01 -0.16129421443E-01 -0.25899964256E-01  0.32471422188E-01  0.51100000000E-03 0.  1.
         11    1    4    4    0    0  0.31019149208E-01 -0.16108723310E-01 -0.92739929523E-01  0.99109203575E-01  0.51100000000E-03 0. -1.
</event>
<event>
 8    1  0.1197213E+005  0.1043930E+01  0.7957747E-01            NaN
         13   -1    0    0    0    0  0.00000000000E+00  0.00000000000E+00  0.74505805969E-08  0.10566000000E+00  0.10566000000E+00 0. -1.
     999900   -1    0    0    0    0 -0.00000000000E+00 -0.00000000000E+00 -0.74505805969E-08  0.93827000000E+00  0.93827000000E+00 0.  1.
     999902    2    1    2    0    0  0.21174676292E-01 -0.66819580963E-02  0.74974450902E-02  0.10204944039E+01  0.10202252699E+01 0.  0.
     999903    2    3    3    0    0  0.90578458880E-01  0.92332769295E-01  0.19177544662E-01  0.13214918613E+00  0.19126726733E-01 0.  0.
         14    1    1    2    0    0 -0.21174676292E-01  0.66819580963E-02 -0.74974450902E-02  0.23435596066E-01  0.00000000000E+00 0.  1.
     999901    1    3    3    0    0 -0.69403782588E-01 -0.99014727392E-01 -0.11680099572E-01  0.88834521781E+00  0.88000000000E+00 0. -1.
        -11    1    4    4    0    0  0.22016033467E-01  0.18435651540E-01  0.11877583487E-01  0.31079206679E-01  0.51100000000E-03 0.  1.
         11    1    4    4    0    0  0.68562425413E-01  0.73897117756E-01  0.72999611750E-02  0.10106997945E+00  0.51100000000E-03 0. -1.
</event>
<event>
 8    1  0.1197213E+005  0.1043930E+01  0.7957747E-01            NaN
         13   -1    0    0    0    0  0.00000000000E+00  0.00000000000E+00  0.74505805969E-08  0.10566000000E+00  0.10566000000E+00 0. -1.
     999900   -1    0    0    0    0 -0.00000000000E+00 -0.00000000000E+00 -0.74505805969E-08  0.93827000000E+00  0.93827000000E+00 0.  1.
     999902    2    1    2    0    0  0.17832325073E-02  0.24053240630E-01 -0.10189949481E-01  0.10177465439E+01  0.10174096787E+01 0.  0.
     999903    2    3    3    0    0  0.66770828239E-01  0.10652539283E+00  0.31408730293E-01  0.13052870501E+00  0.15659874589E-01 0.  0.
         14    1    1    2    0    0 -0.17832325073E-02 -0.24053240630E-01  0.10189949481E-01  0.26183456101E-01  0.00000000000E+00 0.  1.
     999901    1    3    3    0    0 -0.64987595732E-01 -0.82472152195E-01 -0.41598679774E-01  0.88721783889E+00  0.88000000000E+00 0.  1.
        -11    1    4    4    0    0  0.65027322964E-02  0.89864372425E-02  0.75145996697E-02  0.13407904789E-01  0.51100000000E-03 0.  1.
         11    1    4    4    0    0  0.60268095943E-01  0.97538955583E-01  0.23894130623E-01  0.11712080022E+00  0.51100000000E-03 0. -1.
</event>
<event>
 8    1  0.1197213E+005  0.1043930E+01  0.7957747E-01            NaN
         13   -1    0    0    0    0  0.00000000000E+00  0.00000000000E+00  0.74505805969E-08  0.10566000000E+00  0.10566000000E+00 0.  1.
     999900   -1    0    0    0    0 -0.00000000000E+00 -0.00000000000E+00 -0.74505805969E-08  0.93827000000E+00  0.93827000000E+00 0.  1.
     999902    2    1    2    0    0  0.17714493752E-01  0.10419203715E-01 -0.12103167394E-01  0.10200794286E+01  0.10198005643E+01 0.  0.
     999903    2    3    3    0    0 -0.42033675842E-01 -0.16110134461E-01  0.11802748468E+00  0.12811102324E+00  0.21344338832E-01 0.  0.
         14    1    1    2    0    0 -0.17714493752E-01 -0.10419203715E-01  0.12103167394E-01  0.23850571396E-01  0.00000000000E+00 0.  1.
     999901    1    3    3    0    0  0.59748169594E-01  0.26529338176E-01 -0.13013065207E+00  0.89196840536E+00  0.88000000000E+00 0.  1.
        -11    1    4    4    0    0 -0.60043171229E-02 -0.45977806759E-02  0.47297889529E-01  0.47901387101E-01  0.51100000000E-03 0.  1.
         11    1    4    4    0    0 -0.36029358719E-01 -0.11512353785E-01  0.70729595147E-01  0.80209636142E-01  0.51100000000E-03 0. -1.
</event>
<event>
 8    1  0.1197213E+005  0.1043930E+01  0.7957747E-01            NaN
         13   -1    0    0    0    0  0.00000000000E+00  0.00000000000E+00  0.74505805969E-08  0.10566000000E+00  0.10566000000E+00 0. -1.
     999900   -1    0    0    0    0 -0.00000000000E+00 -0.00000000000E+00 -0.74505805969E-08  0.93827000000E+00  0.93827000000E+00 0. -1.
     999902    2    1    2    0    0  0.18244327906E-02  0.13688709930E-01 -0.19115068681E-01  0.10203483295E+01  0.10200757904E+01 0.  0.
     999903    2    3    3    0    0  0.57949512856E-02  0.89980406425E-01 -0.96694533126E-01  0.13363825211E+00  0.19475489485E-01 0.  0.
         14    1    1    2    0    0 -0.18244327906E-02 -0.13688709930E-01  0.19115068681E-01  0.23581670536E-01  0.00000000000E+00 0. -1.
     999901    1    3    3    0    0 -0.39705184951E-02 -0.76291696495E-01  0.77579464445E-01  0.88671007735E+00  0.88000000000E+00 0.  1.
        -11    1    4    4    0    0  0.20499011708E-02  0.50683700199E-01 -0.67984519597E-01  0.84824498740E-01  0.51100000000E-03 0. -1.
         11    1    4    4    0    0  0.37450501148E-02  0.39296706226E-01 -0.28710013529E-01  0.48813753374E-01  0.51100000000E-03 0.  1.
</event>
<event>
 8    1  0.1197213E+005  0.1043930E+01  0.7957747E-01            NaN
         13   -1    0    0    0    0  0.00000000000E+00  0.00000000000E+00  0.74505805969E-08  0.10566000000E+00  0.10566000000E+00 0.  1.
     999900   -1    0    0    0    0 -0.00000000000E+00 -0.00000000000E+00 -0.74505805969E-08  0.93827000000E+00  0.93827000000E+00 0. -1.
     999902    2    1    2    0    0 -0.89834745882E-02  0.19050532296E-01 -0.90008546179E-02  0.10210249573E+01  0.10207680062E+01 0.  0.
     999903    2    3    3    0    0  0.75532480162E-02 -0.60068995055E-01 -0.11437940081E+00  0.13105978901E+00  0.20704715492E-01 0.  0.
         14    1    1    2    0    0  0.89834745882E-02 -0.19050532296E-01  0.90008546179E-02  0.22905042683E-01  0.00000000000E+00 0.  1.
     999901    1    3    3    0    0 -0.16536722604E-01  0.79119527351E-01  0.10537854619E+00  0.88996516831E+00  0.88000000000E+00 0.  1.
        -11    1    4    4    0    0  0.13852087599E-01 -0.43342599282E-01 -0.73581180707E-01  0.86515388912E-01  0.51100000000E-03 0. -1.
         11    1    4    4    0    0 -0.62988395833E-02 -0.16726395773E-01 -0.40798220101E-01  0.44544400098E-01  0.51100000000E-03 0.  1.
</event>
<event>
 8    1  0.1197213E+005  0.1043930E+01  0.7957747E-01            NaN
         13   -1    0    0    0    0  0.00000000000E+00  0.00000000000E+00  0.74505805969E-08  0.10566000000E+00  0.10566000000E+00 0.  1.
     999900   -1    0    0    0    0 -0.00000000000E+00 -0.00000000000E+00 -0.74505805969E-08  0.93827000000E+00  0.93827000000E+00 0.  1.
     999902    2    1    2    0    0  0.14940184863E-01  0.17494385237E-01  0.66581046730E-02  0.10199801984E+01  0.10196989811E+01 0.  0.
     999903    2    3    3    0    0 -0.12208912398E+00 -0.64763787171E-02  0.34488900338E-01  0.12861821683E+00  0.20136131169E-01 0.  0.
         14    1    1    2    0    0 -0.14940184863E-01 -0.17494385237E-01 -0.66581046730E-02  0.23949801594E-01  0.00000000000E+00 0. -1.
     999901    1    3    3    0    0  0.13702930885E+00  0.23970763954E-01 -0.27830795665E-01  0.89136198157E+00  0.88000000000E+00 0. -1.
        -11    1    4    4    0    0 -0.81431346070E-01 -0.80907433064E-02  0.13874954054E-01  0.83001805529E-01  0.51100000000E-03 0. -1.
         11    1    4    4    0    0 -0.40657777913E-01  0.16143645893E-02  0.20613946284E-01  0.45616411304E-01  0.51100000000E-03 0.  1.
</event>
<event>
 7    1  0.1197213E+005  0.1043930E+01  0.7957747E-01            NaN
         13   -1    0    0    0    0  0.00000000000E+00  0.00000000000E+00  0.74505805969E-08  0.10566000000E+00  0.10566000000E+00 0.  1.
     999900   -1    0    0    0    0 -0.00000000000E+00 -0.00000000000E+00 -0.74505805969E-08  0.93827000000E+00  0.93827000000E+00 0.  1.
     999903    2    1    2    0    0 -0.49302956238E-01  0.72618900727E-01  0.24744118251E-01  0.92191185828E-01  0.13515070100E-01 0.  0.
         14    1    1    2    0    0  0.13473796514E-01  0.51106760636E-01  0.29827899902E-01  0.60688942879E-01  0.00000000000E+00 0.  1.
     999901    1    1    2    0    0  0.35829159723E-01 -0.12372566136E+00 -0.54572018153E-01  0.89104987129E+00  0.88000000000E+00 0.  1.
        -11    1    3    3    0    0 -0.28012996018E-01  0.31066952680E-01  0.80305017236E-02  0.42598516097E-01  0.51100000000E-03 0.  1.
         11    1    3    3    0    0 -0.21289960220E-01  0.41551948047E-01  0.16713616527E-01  0.49592669731E-01  0.51100000000E-03 0. -1.
</event>
<event>
 8    1  0.1197213E+005  0.1043930E+01  0.7957747E-01            NaN
         13   -1    0    0    0    0  0.00000000000E+00  0.00000000000E+00  0.74505805969E-08  0.10566000000E+00  0.10566000000E+00 0. -1.
     999900   -1    0    0    0    0 -0.00000000000E+00 -0.00000000000E+00 -0.74505805969E-08  0.93827000000E+00  0.93827000000E+00 0. -1.
     999902    2    1    2    0    0 -0.22769930799E-01  0.37183026897E-02  0.71519558478E-02  0.10197753732E+01  0.10194892671E+01 0.  0.
     999903    2    3    3    0    0  0.10464838732E+00  0.52041033963E-01 -0.47305657693E-01  0.12762283813E+00  0.19753718092E-01 0.  0.
         14    1    1    2    0    0  0.22769930799E-01 -0.37183026897E-02 -0.71519558478E-02  0.24154626801E-01  0.00000000000E+00 0. -1.
     999901    1    3    3    0    0 -0.12741831812E+00 -0.48322731274E-01  0.54457613540E-01  0.89215253507E+00  0.88000000000E+00 0. -1.
        -11    1    4    4    0    0  0.35360078749E-01  0.19929664985E-01 -0.67412633469E-02  0.41148906037E-01  0.51100000000E-03 0. -1.
         11    1    4    4    0    0  0.69288308573E-01  0.32111368979E-01 -0.40564394346E-01  0.86473932097E-01  0.51100000000E-03 0.  1.
</event>
<event>
 8    1  0.1197213E+005  0.1043930E+01  0.7957747E-01            NaN
         13   -1    0    0    0    0  0.00000000000E+00  0.00000000000E+00  0.74505805969E-08  0.10566000000E+00  0.10566000000E+00 0.  1.
     999900   -1    0    0    0    0 -0.00000000000E+00 -0.00000000000E+00 -0.74505805969E-08  0.93827000000E+00  0.93827000000E+00 0.  1.
     999902    2    1    2    0    0  0.28277094955E-02  0.12953986261E-01 -0.18611329988E-01  0.10210786695E+01  0.10208229357E+01 0.  0.
     999903    2    3    3    0    0 -0.24251968106E-01 -0.10660776843E+00 -0.69686709668E-01  0.13111405419E+00  0.19526480848E-01 0.  0.
         14    1    1    2    0    0 -0.28277094955E-02 -0.12953986261E-01  0.18611329988E-01  0.22851330486E-01  0.00000000000E+00 0.  1.
     999901    1    3    3    0    0  0.27079677602E-01  0.11956175469E+00  0.51075379680E-01  0.88996461533E+00  0.88000000000E+00 0. -1.
        -11    1    4    4    0    0 -0.21041522017E-01 -0.98348373472E-01 -0.69469797977E-01  0.12223527382E+00  0.51100000000E-03 0.  1.
         11    1    4    4    0    0 -0.32104460890E-02 -0.82593949586E-02 -0.21691169160E-03  0.88787803697E-02  0.51100000000E-03 0. -1.
</event>
<event>
 8    1  0.1197213E+005  0.1043930E+01  0.7957747E-01            NaN
         13   -1    0    0    0    0  0.00000000000E+00  0.00000000000E+00  0.74505805969E-08  0.10566000000E+00  0.10566000000E+00 0.  1.
     999900   -1    0    0    0    0 -0.00000000000E+00 -0.00000000000E+00 -0.74505805969E-08  0.93827000000E+00  0.93827000000E+00 0.  1.
     999902    2    1    2    0    0  0.14903460468E-01 -0.15173473038E-01 -0.99187387476E-02  0.10204623884E+01  0.10201925099E+01 0.  0.
     999903    2    3    3    0    0  0.94327474466E-01 -0.38754306279E-01  0.81240780934E-01  0.13188246076E+00  0.19833060155E-01 0.  0.
         14    1    1    2    0    0 -0.14903460468E-01  0.15173473038E-01  0.99187387476E-02  0.23467611645E-01  0.00000000000E+00 0. -1.
     999901    1    3    3    0    0 -0.79424013998E-01  0.23580833241E-01 -0.91159519682E-01  0.88857992759E+00  0.88000000000E+00 0.  1.
        -11    1    4    4    0    0  0.46788634596E-01 -0.16590976280E-01  0.51722592379E-01  0.71693266801E-01  0.51100000000E-03 0. -1.
         11    1    4    4    0    0  0.47538839871E-01 -0.22163329998E-01  0.29518188555E-01  0.60189193959E-01  0.51100000000E-03 0.  1.
</event>
<event>
 8    1  0.1197213E+005  0.1043930E+01  0.7957747E-01            NaN
         13   -1    0    0    0    0  0.00000000000E+00  0.00000000000E+00  0.74505805969E-08  0.10566000000E+00  0.10566000000E+00 0.  1.
     999900   -1    0    0    0    0 -0.00000000000E+00 -0.00000000000E+00 -0.74505805969E-08  0.93827000000E+00  0.93827000000E+00 0.  1.
     999902    2    1    2    0    0 -0.32621288649E-02 -0.21433665168E-01 -0.91405661578E-02  0.10204014336E+01  0.10201301350E+01 0.  0.
     999903    2    3    3    0    0 -0.10177845697E-01  0.81074371347E-01 -0.98963444394E-01  0.12988255444E+00  0.19976796241E-01 0.  0.
         14    1    1    2    0    0  0.32621288649E-02  0.21433665168E-01  0.91405661578E-02  0.23528566402E-01  0.00000000000E+00 0. -1.
     999901    1    3    3    0    0  0.69157168321E-02 -0.10250803651E+00  0.89822878237E-01  0.89051887916E+00  0.88000000000E+00 0. -1.
        -11    1    4    4    0    0 -0.88512772427E-02  0.48576434656E-01 -0.44646835173E-01  0.66570384742E-01  0.51100000000E-03 0. -1.
         11    1    4    4    0    0 -0.13265684542E-02  0.32497936691E-01 -0.54316609222E-01  0.63312169694E-01  0.51100000000E-03 0.  1.
</event>
<event>
 8    1  0.1197213E+005  0.1043930E+01  0.7957747E-01            NaN
         13   -1    0    0    0    0  0.00000000000E+00  0.00000000000E+00  0.74505805969E-08  0.10566000000E+00  0.10566000000E+00 0.  1.
     999900   -1    0    0    0    0 -0.00000000000E+00 -0.00000000000E+00 -0.74505805969E-08  0.93827000000E+00  0.93827000000E+00 0. -1.
     999902    2    1    2    0    0  0.17006701751E-01  0.19273116661E-01  0.74725619830E-02  0.10171621067E+01  0.10168098304E+01 0.  0.
     999903    2    3    3    0    0  0.92442736518E-01 -0.54610084478E-01  0.67901372130E-01  0.12879227162E+00  0.21188016173E-01 0.  0.
         14    1    1    2    0    0 -0.17006701751E-01 -0.19273116661E-01 -0.74725619830E-02  0.26767893322E-01  0.00000000000E+00 0. -1.
     999901    1    3    3    0    0 -0.75436034767E-01  0.73883201139E-01 -0.60428810147E-01  0.88836983506E+00  0.88000000000E+00 0. -1.
        -11    1    4    4    0    0  0.86658520991E-01 -0.44115597589E-01  0.57894400153E-01  0.11317202791E+00  0.51100000000E-03 0.  1.
         11    1    4    4    0    0  0.57842155272E-02 -0.10494486889E-01  0.10006971977E-01  0.15620243707E-01  0.51100000000E-03 0. -1.
</event>
<event>
 8    1  0.1197213E+005  0.1043930E+01  0.7957747E-01            NaN
         13   -1    0    0    0    0  0.00000000000E+00  0.00000000000E+00  0.74505805969E-08  0.10566000000E+00  0.10566000000E+00 0.  1.
     999900   -1    0    0    0    0 -0.00000000000E+00 -0.00000000000E+00 -0.74505805969E-08  0.93827000000E+00  0.93827000000E+00 0. -1.
     999902    2    1    2    0    0  0.15126787600E-01  0.70168847509E-02  0.17187640644E-01  0.10199827378E+01  0.10197015809E+01 0.  0.
     999903    2    3    3    0    0  0.20885552816E-01 -0.11480459131E+00  0.55424188458E-01  0.13074954625E+00  0.20181741147E-01 0.  0.
         14    1    1    2    0    0 -0.15126787600E-01 -0.70168847509E-02 -0.17187640644E-01  0.23947262173E-01  0.00000000000E+00 0. -1.
     999901    1    3    3    0    0 -0.57587652160E-02  0.12182147607E+00 -0.38236547814E-01  0.88923319157E+00  0.88000000000E+00 0. -1.
        -11    1    4    4    0    0  0.18088862810E-01 -0.80192928466E-01  0.29233296906E-01  0.87252275058E-01  0.51100000000E-03 0. -1.
         11    1    4    4    0    0  0.27966900055E-02 -0.34611662849E-01  0.26190891552E-01  0.43497271195E-01  0.51100000000E-03 0.  1.
</event>
<event>
 8    1  0.1197213E+005  0.1043930E+01  0.7957747E-01            NaN
         13   -1    0    0    0    0  0.00000000000E+00  0.00000000000E+00  0.74505805969E-08  0.10566000000E+00  0.10566000000E+00 0. -1.
     999900   -1    0    0    0    0 -0.00000000000E+00 -0.00000000000E+00 -0.74505805969E-08  0.93827000000E+00  0.93827000000E+00 0. -1.
     999902    2    1    2    0    0  0.15639389396E-01 -0.12372821830E-02  0.16167734153E-01  0.10214018621E+01  0.10211533905E+01 0.  0.
     999903    2    3    3    0    0 -0.47721464609E-01 -0.69812016328E-01 -0.95851851973E-01  0.12940103273E+00  0.20149291249E-01 0.  0.
         14    1    1    2    0    0 -0.15639389396E-01  0.12372821830E-02 -0.16167734153E-01  0.22528137861E-01  0.00000000000E+00 0.  1.
     999901    1    3    3    0    0  0.63360854004E-01  0.68574734145E-01  0.11201958613E+00  0.89200082940E+00  0.88000000000E+00 0.  1.
        -11    1    4    4    0    0 -0.82994181934E-02 -0.21253095877E-01 -0.37274027776E-01  0.43705705513E-01  0.51100000000E-03 0. -1.
         11    1    4    4    0    0 -0.39422046415E-01 -0.48558920451E-01 -0.58577824196E-01  0.85695327221E-01  0.51100000000E-03 0.  1.
</event>
<event>
 8    1  0.1197213E+005  0.1043930E+01  0.7957747E-01            NaN
         13   -1    0    0    0    0  0.00000000000E+00  0.00000000000E+00  0.74505805969E-08  0.10566000000E+00  0.10566000000E+00 0. -1.
     999900   -1    0    0    0    0 -0.00000000000E+00 -0.00000000000E+00 -0.74505805969E-08  0.93827000000E+00  0.93827000000E+00 0. -1.
     999902    2    1    2    0    0 -0.11210703895E-02  0.25600247262E-01 -0.30726966655E-02  0.10181216501E+01  0.10177944898E+01 0.  0.
     999903    2    3    3    0    0  0.93725667309E-01 -0.42040591101E-01  0.72276980167E-01  0.12725198487E+00  0.20425321986E-01 0.  0.
         14    1    1    2    0    0  0.11210703895E-02 -0.25600247262E-01  0.30726966655E-02  0.25808349880E-01  0.00000000000E+00 0. -1.
     999901    1    3    3    0    0 -0.94846737699E-01  0.67640838363E-01 -0.75349676833E-01  0.89086966525E+00  0.88000000000E+00 0. -1.
        -11    1    4    4    0    0  0.31605557012E-01 -0.44006085861E-02  0.18645436942E-01  0.36962007923E-01  0.51100000000E-03 0.  1.
         11    1    4    4    0    0  0.62120110297E-01 -0.37639982515E-01  0.53631543225E-01  0.90289976945E-01  0.51100000000E-03 0. -1.
</event>
<event>
 8    1  0.1197213E+005  0.1043930E+01  0.7957747E-01            NaN
         13   -1    0    0    0    0  0.00000000000E+00  0.00000000000E+00  0.74505805969E-08  0.10566000000E+00  0.10566000000E+00 0. -1.
     999900   -1    0    0    0    0 -0.00000000000E+00 -0.00000000000E+00 -0.74505805969E-08  0.93827000000E+00  0.93827000000E+00 0. -1.
     999902    2    1    2    0    0  0.55036401092E-02  0.89440540259E-02  0.20866521842E-01  0.10205698225E+01  0.10203024379E+01 0.  0.
     999903    2    3    3    0    0 -0.12450932325E+00  0.31062090476E-01  0.15016559615E-01  0.13072331880E+00  0.19891303981E-01 0.  0.
         14    1    1    2    0    0 -0.55036401092E-02 -0.89440540259E-02 -0.20866521842E-01  0.23360177454E-01  0.00000000000E+00 0.  1.
     999901    1    3    3    0    0  0.13001296336E+00 -0.22118036450E-01  0.58499622279E-02  0.88984650375E+00  0.88000000000E+00 0.  1.
        -11    1    4    4    0    0 -0.30871106153E-02  0.97919376789E-03  0.39601695594E-02  0.51413165946E-02  0.51100000000E-03 0.  1.
         11    1    4    4    0    0 -0.12142221263E+00  0.30082896708E-01  0.11056390055E-01  0.12558200220E+00  0.51100000000E-03 0. -1.
</event>
<event>
 8    1  0.1197213E+005  0.1043930E+01  0.7957747E-01            NaN
         13   -1    0    0    0    0  0.00000000000E+00  0.00000000000E+00  0.74505805969E-08  0.10566000000E+00  0.10566000000E+00 0.  1.
     999900   -1    0    0    0    0 -0.00000000000E+00 -0.00000000000E+00 -0.74505805969E-08  0.93827000000E+00  0.93827000000E+00 0. -1.
     999902    2    1    2    0    0 -0.82901116391E-02  0.17764387838E-01 -0.12792368938E-01  0.10205217935E+01  0.10202532955E+01 0.  0.
     999903    2    3    3    0    0 -0.53111783393E-01 -0.26854653037E-01 -0.11647942157E+00  0.13218016672E+00  0.19029106671E-01 0.  0.
         14    1    1    2    0    0  0.82901116391E-02 -0.17764387838E-01  0.12792368938E-01  0.23408206452E-01  0.00000000000E+00 0.  1.
     999901    1    3    3    0    0  0.44821671754E-01  0.44619040875E-01  0.10368705263E+00  0.88834162683E+00  0.88000000000E+00 0.  1.
        -11    1    4    4    0    0 -0.11373262562E-01 -0.24170045308E-02 -0.40260526515E-01  0.41908998180E-01  0.51100000000E-03 0. -1.
         11    1    4    4    0    0 -0.41738520831E-01 -0.24437648506E-01 -0.76218895055E-01  0.90271168543E-01  0.51100000000E-03 0.  1.
</event>
<event>
 8    1  0.1197213E+005  0.1043930E+01  0.7957747E-01            NaN
         13   -1    0    0    0    0  0.00000000000E+00  0.00000000000E+00  0.74505805969E-08  0.10566000000E+00  0.10566000000E+00 0.  1.
     999900   -1    0    0    0    0 -0.00000000000E+00 -0.00000000000E+00 -0.74505805969E-08  0.93827000000E+00  0.93827000000E+00 0.  1.
     999902    2    1    2    0    0 -0.20984430461E-01 -0.53679603157E-02 -0.86171848650E-02  0.10206186896E+01  0.10203524353E+01 0.  0.
     999903    2    3    3    0    0  0.11666006743E+00  0.16400150326E-01  0.43662371541E-01  0.12812050443E+00  0.25098300795E-01 0.  0.
         14    1    1    2    0    0  0.20984430461E-01  0.53679603157E-02  0.86171848650E-02  0.23311310446E-01  0.00000000000E+00 0.  1.
     999901    1    3    3    0    0 -0.13764449789E+00 -0.21768110641E-01 -0.52279556406E-01  0.89249818513E+00  0.88000000000E+00 0.  1.
        -11    1    4    4    0    0  0.27912943834E-01  0.19477328781E-02  0.22084927342E-01  0.35650122490E-01  0.51100000000E-03 0. -1.
         11    1    4    4    0    0  0.88747123593E-01  0.14452417447E-01  0.21577444199E-01  0.92470381936E-01  0.51100000000E-03 0.  1.
</event>
<event>
 8    1  0.1197213E+005  0.1043930E+01  0.7957747E-01            NaN
         13   -1    0    0    0    0  0.00000000000E+00  0.00000000000E+00  0.74505805969E-08  0.10566000000E+00  0.10566000000E+00 0.  1.
     999900   -1    0    0    0    0 -0.00000000000E+00 -0.00000000000E+00 -0.74505805969E-08  0.93827000000E+00  0.93827000000E+00 0.  1.
     999902    2    1    2    0    0  0.88978515172E-02  0.19150527025E-01 -0.10542517847E-01  0.10203278999E+01  0.10200548829E+01 0.  0.
     999903    2    3    3    0    0 -0.11002958305E-01  0.12987015848E+00  0.15151977418E-01  0.13279475341E+00  0.20433818952E-01 0.  0.
         14    1    1    2    0    0 -0.88978515172E-02 -0.19150527025E-01  0.10542517847E-01  0.23602100108E-01  0.00000000000E+00 0.  1.
     999901    1    3    3    0    0  0.19900809823E-01 -0.11071963146E+00 -0.25694495264E-01  0.88753314648E+00  0.88000000000E+00 0. -1.
        -11    1    4    4    0    0 -0.48878674199E-02  0.40044799428E-01  0.14149377205E-01  0.42754452463E-01  0.51100000000E-03 0. -1.
         11    1    4    4    0    0 -0.61150908854E-02  0.89825359056E-01  0.10026002127E-02  0.90040300945E-01  0.51100000000E-03 0.  1.
</event>
<event>
 8    1  0.1197213E+005  0.1043930E+01  0.7957747E-01            NaN
         13   -1    0    0    0    0  0.00000000000E+00  0.00000000000E+00  0.74505805969E-08  0.10566000000E+00  0.10566000000E+00 0. -1.
     999900   -1    0    0    0    0 -0.00000000000E+00 -0.00000000000E+00 -0.74505805969E-08  0.93827000000E+00  0.93827000000E+00 0. -1.
     999902    2    1    2    0    0 -0.14420669439E-01 -0.62190274226E-02 -0.17715517599E-01  0.10202557192E+01  0.10199810101E+01 0.  0.
     999903    2    3    3    0    0 -0.58775451102E-01 -0.18866083967E-01  0.11204352874E+00  0.12954549423E+00  0.20440155751E-01 0.  0.
         14    1    1    2    0    0  0.14420669439E-01  0.62190274226E-02  0.17715517599E-01  0.23674280832E-01  0.00000000000E+00 0. -1.
     999901    1    3    3    0    0  0.44354781663E-01  0.12647056544E-01 -0.12975904634E+00  0.89071022493E+00  0.88000000000E+00 0. -1.
        -11    1    4    4    0    0 -0.20860846714E-01 -0.45124886337E-02  0.21306429202E-01  0.30162269902E-01  0.51100000000E-03 0. -1.
         11    1    4    4    0    0 -0.37914604388E-01 -0.14353595333E-01  0.90737099539E-01  0.99383224332E-01  0.51100000000E-03 0.  1.
</event>
<event>
 8    1  0.1197213E+005  0.1043930E+01  0.7957747E-01            NaN
         13   -1    0    0    0    0  0.00000000000E+00  0.00000000000E+00  0.74505805969E-08  0.10566000000E+00  0.10566000000E+00 0. -1.
     999900   -1    0    0    0    0 -0.00000000000E+00 -0.00000000000E+00 -0.74505805969E-08  0.93827000000E+00  0.93827000000E+00 0. -1.
     999902    2    1    2    0    0  0.19494437983E-01 -0.93338698074E-02 -0.95901653676E-02  0.10202841651E+01  0.10200101235E+01 0.  0.
     999903    2    3    3    0    0  0.76403477496E-01  0.10091523983E+00 -0.24378538962E-01  0.13145785979E+00  0.25796874546E-01 0.  0.
         14    1    1    2    0    0 -0.19494437983E-01  0.93338698074E-02  0.95901653676E-02  0.23645834932E-01  0.00000000000E+00 0.  1.
     999901    1    3    3    0    0 -0.56909039512E-01 -0.11024910964E+00  0.14788373594E-01  0.88882630527E+00  0.88000000000E+00 0. -1.
        -11    1    4    4    0    0  0.47243950755E-01  0.44158814063E-01 -0.54543435268E-02  0.64899943965E-01  0.51100000000E-03 0. -1.
         11    1    4    4    0    0  0.29159526740E-01  0.56756425767E-01 -0.18924195435E-01  0.66557915828E-01  0.51100000000E-03 0.  1.
</event>
<event>
 8    1  0.1197213E+005  0.1043930E+01  0.7957747E-01            NaN
         13   -1    0    0    0    0  0.00000000000E+00  0.00000000000E+00  0.74505805969E-08  0.10566000000E+00  0.10566000000E+00 0.  1.
     999900   -1    0    0    0    0 -0.00000000000E+00 -0.00000000000E+00 -0.74505805969E-08  0.93827000000E+00  0.93827000000E+00 0. -1.
     999902    2    1    2    0    0  0.18891826237E-01 -0.44174692057E-02 -0.14379372619E-01  0.10197808491E+01  0.10194948743E+01 0.  0.
     999903    2    3    3    0    0 -0.67807087307E-01  0.88945246526E-01  0.58167759968E-01  0.12765059809E+00  0.20053152498E-01 0.  0.
         14    1    1    2    0    0 -0.18891826237E-01  0.44174692057E-02  0.14379372619E-01  0.24149150910E-01  0.00000000000E+00 0.  1.
     999901    1    3    3    0    0  0.86698913544E-01 -0.93362715731E-01 -0.72547132587E-01  0.89213025100E+00  0.88000000000E+00 0. -1.
        -11    1    4    4    0    0 -0.13627318570E-01  0.12143011212E-01  0.25500043118E-02  0.18436924247E-01  0.51100000000E-03 0.  1.
         11    1    4    4    0    0 -0.54179768737E-01  0.76802235314E-01  0.55617755657E-01  0.10921367385E+00  0.51100000000E-03 0. -1.
</event>
<event>
 8    1  0.1197213E+005  0.1043930E+01  0.7957747E-01            NaN
         13   -1    0    0    0    0  0.00000000000E+00  0.00000000000E+00  0.74505805969E-08  0.10566000000E+00  0.10566000000E+00 0. -1.
     999900   -1    0    0    0    0 -0.00000000000E+00 -0.00000000000E+00 -0.74505805969E-08  0.93827000000E+00  0.93827000000E+00 0. -1.
     999902    2    1    2    0    0 -0.76646782682E-02  0.62176479393E-02 -0.21611852860E-01  0.10201712411E+01  0.10198945448E+01 0.  0.
     999903    2    3    3    0    0 -0.33862319402E-01 -0.63729270449E-01 -0.10950871510E+00  0.13264391976E+00  0.19853820286E-01 0.  0.
         14    1    1    2    0    0  0.76646782682E-02 -0.62176479393E-02  0.21611852860E-01  0.23758758867E-01  0.00000000000E+00 0. -1.
     999901    1    3    3    0    0  0.26197641134E-01  0.69946918389E-01  0.87896862237E-01  0.88752732137E+00  0.88000000000E+00 0. -1.
        -11    1    4    4    0    0 -0.72711155756E-02 -0.16340910325E-01 -0.13847568912E-01  0.22625444918E-01  0.51100000000E-03 0. -1.
         11    1    4    4    0    0 -0.26591203827E-01 -0.47388360124E-01 -0.95661146185E-01  0.11001847484E+00  0.51100000000E-03 0.  1.
</event>
<event>
 8    1  0.1197213E+005  0.1043930E+01  0.7957747E-01            NaN
         13   -1    0    0    0    0  0.00000000000E+00  0.00000000000E+00  0.74505805969E-08  0.10566000000E+00  0.10566000000E+00 0. -1.
     999900   -1    0    0    0    0 -0.00000000000E+00 -0.00000000000E+00 -0.74505805969E-08  0.93827000000E+00  0.93827000000E+00 0.  1.
     999902    2    1    2    0    0 -0.32535051420E-02 -0.10824108463E-01  0.21400166580E-01  0.10197284763E+01  0.10194412448E+01 0.  0.
     999903    2    3    3    0    0  0.88544258149E-01 -0.43028121420E-01 -0.79925543422E-01  0.12858829243E+00  0.21338968471E-01 0.  0.
         14    1    1    2    0    0  0.32535051420E-02  0.10824108463E-01 -0.21400166580E-01  0.24201523699E-01  0.00000000000E+00 0.  1.
     999901    1    3    3    0    0 -0.91797763291E-01  0.32204012957E-01  0.10132571000E+00  0.89114018387E+00  0.88000000000E+00 0.  1.
        -11    1    4    4    0    0  0.47089564934E-01 -0.11049989543E-01 -0.37948304878E-01  0.61480601483E-01  0.51100000000E-03 0. -1.
         11    1    4    4    0    0  0.41454693215E-01 -0.31978131876E-01 -0.41977238544E-01  0.67107690950E-01  0.51100000000E-03 0.  1.
</event>
<event>
 8    1  0.1197213E+005  0.1043930E+01  0.7957747E-01            NaN
         13   -1    0    0    0    0  0.00000000000E+00  0.00000000000E+00  0.74505805969E-08  0.10566000000E+00  0.10566000000E+00 0. -1.
     999900   -1    0    0    0    0 -0.00000000000E+00 -0.00000000000E+00 -0.74505805969E-08  0.93827000000E+00  0.93827000000E+00 0.  1.
     999902    2    1    2    0    0  0.11250675521E-02  0.23680750977E-01 -0.74213177879E-03  0.10202109253E+01  0.10199351635E+01 0.  0.
     999903    2    3    3    0    0 -0.10160547347E+00  0.81091111208E-01  0.13730059169E-01  0.13225881072E+00  0.20110642260E-01 0.  0.
         14    1    1    2    0    0 -0.11250675521E-02 -0.23680750977E-01  0.74213177879E-03  0.23719074675E-01  0.00000000000E+00 0. -1.
     999901    1    3    3    0    0  0.10273054102E+00 -0.57410360231E-01 -0.14472190948E-01  0.88795211461E+00  0.88000000000E+00 0.  1.
        -11    1    4    4    0    0 -0.57686638299E-01  0.33246990958E-01  0.60178838110E-02  0.66854967598E-01  0.51100000000E-03 0. -1.
         11    1    4    4    0    0 -0.43918835173E-01  0.47844120251E-01  0.77121753583E-02  0.65403843123E-01  0.51100000000E-03 0.  1.
</event>
<event>
 7    1  0.1527609E+005  0.1043930E+01  0.7957747E-01            NaN
         13   -1    0    0    0    0  0.00000000000E+00  0.00000000000E+00  0.74505805969E-08  0.10566000000E+00  0.10566000000E+00 0.  1.
     999900   -1    0    0    0    0 -0.00000000000E+00 -0.00000000000E+00 -0.74505805969E-08  0.93827000000E+00  0.93827000000E+00 0.  1.
     999903    2    1    2    0    0  0.36519291787E-02 -0.54776245862E-01  0.88721250397E-01  0.10602317572E+00  0.18859475621E-01 0.  0.
         14    1    1    2    0    0  0.34109559673E-01 -0.45204442653E-02  0.31876334943E-01  0.46904127823E-01  0.00000000000E+00 0.  1.
     999901    1    1    2    0    0 -0.37761488851E-01  0.59296690127E-01 -0.12059758534E+00  0.89100269646E+00  0.88000000000E+00 0.  1.
        -11    1    3    3    0    0  0.11195164591E-01 -0.38425744087E-01  0.61913903716E-01  0.73725586557E-01  0.51100000000E-03 0. -1.
         11    1    3    3    0    0 -0.75432354122E-02 -0.16350501775E-01  0.26807346681E-01  0.32297589165E-01  0.51100000000E-03 0.  1.
</event>
<event>
 8    1  0.1197213E+005  0.1043930E+01  0.7957747E-01            NaN
         13   -1    0    0    0    0  0.00000000000E+00  0.00000000000E+00  0.74505805969E-08  0.10566000000E+00  0.10566000000E+00 0. -1.
     999900   -1    0    0    0    0 -0.00000000000E+00 -0.00000000000E+00 -0.74505805969E-08  0.93827000000E+00  0.93827000000E+00 0.  1.
     999902    2    1    2    0    0  0.37299593524E-02  0.21752270040E-01  0.11440914203E-01  0.10190710305E+01  0.10187677835E+01 0.  0.
     999903    2    3    3    0    0 -0.36164838342E-01 -0.26055782464E-02 -0.12106292782E+00  0.12792448370E+00  0.19843297805E-01 0.  0.
         14    1    1    2    0    0 -0.37299593524E-02 -0.21752270040E-01 -0.11440914203E-01  0.24858969538E-01  0.00000000000E+00 0.  1.
     999901    1    3    3    0    0  0.39894797695E-01  0.24357848286E-01  0.13250384202E+00  0.89114654676E+00  0.88000000000E+00 0. -1.
        -11    1    4    4    0    0 -0.33811724300E-01  0.37775518792E-02 -0.92546360480E-01  0.98603207643E-01  0.51100000000E-03 0. -1.
         11    1    4    4    0    0 -0.23531140425E-02 -0.63831301256E-02 -0.28516567338E-01  0.29321276057E-01  0.51100000000E-03 0.  1.
</event>
<event>
 8    1  0.1197213E+005  0.1043930E+01  0.7957747E-01            NaN
         13   -1    0    0    0    0  0.00000000000E+00  0.00000000000E+00  0.74505805969E-08  0.10566000000E+00  0.10566000000E+00 0. -1.
     999900   -1    0    0    0    0 -0.00000000000E+00 -0.00000000000E+00 -0.74505805969E-08  0.93827000000E+00  0.93827000000E+00 0.  1.
     999902    2    1    2    0    0 -0.22744206420E-02  0.30104674253E-03  0.23480247267E-01  0.10203379329E+01  0.10200651507E+01 0.  0.
     999903    2    3    3    0    0 -0.41288402738E-01  0.84611499038E-02 -0.11900940797E+00  0.12798599564E+00  0.20996491007E-01 0.  0.
         14    1    1    2    0    0  0.22744206420E-02 -0.30104674253E-03 -0.23480247267E-01  0.23592067102E-01  0.00000000000E+00 0.  1.
     999901    1    3    3    0    0  0.39013982096E-01 -0.81601031613E-02  0.14248965524E+00  0.89235193726E+00  0.88000000000E+00 0. -1.
        -11    1    4    4    0    0 -0.52761635342E-02  0.94621800745E-02 -0.22705291114E-01  0.25162712870E-01  0.51100000000E-03 0.  1.
         11    1    4    4    0    0 -0.36012239204E-01 -0.10010301707E-02 -0.96304116860E-01  0.10282328277E+00  0.51100000000E-03 0. -1.
</event>
<event>
 8    1  0.1197213E+005  0.1043930E+01  0.7957747E-01            NaN
         13   -1    0    0    0    0  0.00000000000E+00  0.00000000000E+00  0.74505805969E-08  0.10566000000E+00  0.10566000000E+00 0.  1.
     999900   -1    0    0    0    0 -0.00000000000E+00 -0.00000000000E+00 -0.74505805969E-08  0.93827000000E+00  0.93827000000E+00 0. -1.
     999902    2    1    2    0    0 -0.15273598183E-01 -0.20743520973E-01  0.38001146821E-02  0.10178912340E+01  0.10175581295E+01 0.  0.
     999903    2    3    3    0    0  0.41844723077E-01  0.10689121785E+00  0.47437509120E-01  0.12578285976E+00  0.19856919034E-01 0.  0.
         14    1    1    2    0    0  0.15273598183E-01  0.20743520973E-01 -0.38001146821E-02  0.26038766011E-01  0.00000000000E+00 0.  1.
     999901    1    3    3    0    0 -0.57118321260E-01 -0.12763473883E+00 -0.43637394438E-01  0.89210837423E+00  0.88000000000E+00 0. -1.
        -11    1    4    4    0    0  0.17881236572E-01  0.47069209620E-01  0.10278579989E-01  0.51392211892E-01  0.51100000000E-03 0. -1.
         11    1    4    4    0    0  0.23963486505E-01  0.59822008235E-01  0.37158929131E-01  0.74390647866E-01  0.51100000000E-03 0.  1.
</event>
<event>
 8    1  0.1197213E+005  0.1043930E+01  0.7957747E-01            NaN
         13   -1    0    0    0    0  0.00000000000E+00  0.00000000000E+00  0.74505805969E-08  0.10566000000E+00  0.10566000000E+00 0. -1.
     999900   -1    0    0    0    0 -0.00000000000E+00 -0.00000000000E+00 -0.74505805969E-08  0.93827000000E+00  0.93827000000E+00 0. -1.
     999902    2    1    2    0    0 -0.11512807194E-01  0.12439920758E-01  0.17060912901E-01  0.10198806527E+01  0.10195970648E+01 0.  0.
     999903    2    3    3    0    0 -0.70559600383E-01  0.82087719891E-01 -0.70668319862E-01  0.13081723649E+00  0.20052106310E-01 0.  0.
         14    1    1    2    0    0  0.11512807194E-01 -0.12439920758E-01 -0.17060912901E-01  0.24049347329E-01  0.00000000000E+00 0.  1.
     999901    1    3    3    0    0  0.59046793190E-01 -0.69647799133E-01  0.87729232763E-01  0.88906341618E+00  0.88000000000E+00 0.  1.
        -11    1    4    4    0    0 -0.34850819833E-01  0.36799153757E-01 -0.44640395103E-01  0.67540975387E-01  0.51100000000E-03 0.  1.
         11    1    4    4    0    0 -0.35708780550E-01  0.45288566134E-01 -0.26027924759E-01  0.63276261103E-01  0.51100000000E-03 0. -1.
</event>
<event>
 8    1  0.1197213E+005  0.1043930E+01  0.7957747E-01            NaN
         13   -1    0    0    0    0  0.00000000000E+00  0.00000000000E+00  0.74505805969E-08  0.10566000000E+00  0.10566000000E+00 0. -1.
     999900   -1    0    0    0    0 -0.00000000000E+00 -0.00000000000E+00 -0.74505805969E-08  0.93827000000E+00  0.93827000000E+00 0. -1.
     999902    2    1    2    0    0  0.21194356458E-01 -0.19187288071E-03  0.10128045585E-01  0.10204392599E+01  0.10201688431E+01 0.  0.
     999903    2    3    3    0    0  0.97025233501E-01 -0.35715026207E-01  0.82171985236E-01  0.13353309491E+00  0.19733049603E-01 0.  0.
         14    1    1    2    0    0 -0.21194356458E-01  0.19187288071E-03 -0.10128045585E-01  0.23490740053E-01  0.00000000000E+00 0. -1.
     999901    1    3    3    0    0 -0.75830877043E-01  0.35523153327E-01 -0.72043939651E-01  0.88690616503E+00  0.88000000000E+00 0. -1.
        -11    1    4    4    0    0  0.77795685800E-01 -0.21443553591E-01  0.57087144771E-01  0.98849369947E-01  0.51100000000E-03 0.  1.
         11    1    4    4    0    0  0.19229547700E-01 -0.14271472616E-01  0.25084840465E-01  0.34683724966E-01  0.51100000000E-03 0. -1.
</event>
<event>
 8    1  0.1197213E+005  0.1043930E+01  0.7957747E-01            NaN
         13   -1    0    0    0    0  0.00000000000E+00  0.00000000000E+00  0.74505805969E-08  0.10566000000E+00  0.10566000000E+00 0.  1.
     999900   -1    0    0    0    0 -0.00000000000E+00 -0.00000000000E+00 -0.74505805969E-08  0.93827000000E+00  0.93827000000E+00 0.  1.
     999902    2    1    2    0    0 -0.15697269576E-01 -0.11781740206E-01  0.86067933638E-02  0.10224989345E+01  0.10222743177E+01 0.  0.
     999903    2    3    3    0    0  0.25731681359E-01 -0.13026224797E+00  0.40571525927E-02  0.13358122861E+00  0.14039639497E-01 0.  0.
         14    1    1    2    0    0  0.15697269576E-01  0.11781740206E-01 -0.86067933638E-02  0.21431065453E-01  0.00000000000E+00 0.  1.
     999901    1    3    3    0    0 -0.41428950935E-01  0.11848050777E+00  0.45496407711E-02  0.88891770594E+00  0.88000000000E+00 0.  1.
        -11    1    4    4    0    0  0.14120943800E-01 -0.95710672505E-01  0.70507955636E-02  0.97004684033E-01  0.51100000000E-03 0.  1.
         11    1    4    4    0    0  0.11610737559E-01 -0.34551575468E-01 -0.29936429709E-02  0.36576544578E-01  0.51100000000E-03 0. -1.
</event>
<event>
 8    1  0.1197213E+005  0.1043930E+01  0.7957747E-01            NaN
         13   -1    0    0    0    0  0.00000000000E+00  0.00000000000E+00  0.74505805969E-08  0.10566000000E+00  0.10566000000E+00 0. -1.
     999900   -1    0    0    0    0 -0.00000000000E+00 -0.00000000000E+00 -0.74505805969E-08  0.93827000000E+00  0.93827000000E+00 0.  1.
     999902    2    1    2    0    0 -0.30776558767E-01  0.15374303132E-01 -0.11117439863E-01  0.10077752875E+01  0.10071265397E+01 0.  0.
     999903    2    3    3    0    0 -0.10022717664E+00 -0.23224472773E-01  0.61309051561E-01  0.12123208468E+00  0.18803071022E-01 0.  0.
         14    1    1    2    0    0  0.30776558767E-01 -0.15374303132E-01  0.11117439863E-01  0.36154712492E-01  0.00000000000E+00 0. -1.
     999901    1    3    3    0    0  0.69450617870E-01  0.38598775904E-01 -0.72426491424E-01  0.88654320283E+00  0.88000000000E+00 0.  1.
        -11    1    4    4    0    0 -0.57784342473E-01 -0.54353736814E-02  0.28149187709E-01  0.64507452374E-01  0.51100000000E-03 0.  1.
         11    1    4    4    0    0 -0.42442834163E-01 -0.17789099091E-01  0.33159863852E-01  0.56724632303E-01  0.51100000000E-03 0. -1.
</event>
<event>
 8    1  0.1197213E+005  0.1043930E+01  0.7957747E-01            NaN
         13   -1    0    0    0    0  0.00000000000E+00  0.00000000000E+00  0.74505805969E-08  0.10566000000E+00  0.10566000000E+00 0. -1.
     999900   -1    0    0    0    0 -0.00000000000E+00 -0.00000000000E+00 -0.74505805969E-08  0.93827000000E+00  0.93827000000E+00 0.  1.
     999902    2    1    2    0    0 -0.44987147245E-02  0.22854589333E-01 -0.10877518159E-02  0.10206114689E+01  0.10203450478E+01 0.  0.
     999903    2    3    3    0    0 -0.53230821137E-01  0.34072911367E-01  0.11314251658E+00  0.13182059185E+00  0.24103024072E-01 0.  0.
         14    1    1    2    0    0  0.44987147245E-02 -0.22854589333E-01  0.10877518159E-02  0.23318531080E-01  0.00000000000E+00 0. -1.
     999901    1    3    3    0    0  0.48732106412E-01 -0.11218322034E-01 -0.11423026840E+00  0.88879087707E+00  0.88000000000E+00 0.  1.
        -11    1    4    4    0    0 -0.30425168276E-01  0.61679375443E-02  0.44052743564E-01  0.53894708967E-01  0.51100000000E-03 0.  1.
         11    1    4    4    0    0 -0.22805652861E-01  0.27904973822E-01  0.69089773017E-01  0.77925882882E-01  0.51100000000E-03 0. -1.
</event>
<event>
 8    1  0.1197213E+005  0.1043930E+01  0.7957747E-01            NaN
         13   -1    0    0    0    0  0.00000000000E+00  0.00000000000E+00  0.74505805969E-08  0.10566000000E+00  0.10566000000E+00 0.  1.
     999900   -1    0    0    0    0 -0.00000000000E+00 -0.00000000000E+00 -0.74505805969E-08  0.93827000000E+00  0.93827000000E+00 0.  1.
     999902    2    1    2    0    0 -0.32323069768E-02 -0.16260455608E-01 -0.17087232673E-01  0.10201219395E+01  0.10198440801E+01 0.  0.
     999903    2    3    3    0    0 -0.11138994062E+00  0.90518629256E-02 -0.67268803527E-01  0.13172057904E+00  0.18318403927E-01 0.  0.
         14    1    1    2    0    0  0.32323069768E-02  0.16260455608E-01  0.17087232673E-01  0.23808060513E-01  0.00000000000E+00 0.  1.
     999901    1    3    3    0    0  0.10815763364E+00 -0.25312318534E-01  0.50181570854E-01  0.88840136044E+00  0.88000000000E+00 0. -1.
        -11    1    4    4    0    0 -0.28710457924E-01 -0.54416222076E-02 -0.19571563517E-01  0.35173979956E-01  0.51100000000E-03 0. -1.
         11    1    4    4    0    0 -0.82679482694E-01  0.14493485133E-01 -0.47697240009E-01  0.96546599087E-01  0.51100000000E-03 0.  1.
</event>
<event>
 8    1  0.1197213E+005  0.1043930E+01  0.7957747E-01            NaN
         13   -1    0    0    0    0  0.00000000000E+00  0.00000000000E+00  0.74505805969E-08  0.10566000000E+00  0.10566000000E+00 0.  1.
     999900   -1    0    0    0    0 -0.00000000000E+00 -0.00000000000E+00 -0.74505805969E-08  0.93827000000E+00  0.93827000000E+00 0.  1.
     999902    2    1    2    0    0 -0.15185322456E-01  0.14443938056E-01  0.11734001436E-01  0.10199110876E+01  0.10196282256E+01 0.  0.
     999903    2    3    3    0    0 -0.16368804463E-01 -0.22518305332E-01 -0.12433632538E+00  0.12868567169E+00  0.18040744277E-01 0.  0.
         14    1    1    2    0    0  0.15185322456E-01 -0.14443938056E-01 -0.11734001436E-01  0.24018912430E-01  0.00000000000E+00 0. -1.
     999901    1    3    3    0    0  0.11834820067E-02  0.36962243388E-01  0.13607032682E+00  0.89122541588E+00  0.88000000000E+00 0. -1.
        -11    1    4    4    0    0 -0.52040957114E-02 -0.40531889633E-02 -0.68563830304E-01  0.68882297435E-01  0.51100000000E-03 0. -1.
         11    1    4    4    0    0 -0.11164708751E-01 -0.18465116368E-01 -0.55772495080E-01  0.59803374257E-01  0.51100000000E-03 0.  1.
</event>
<event>
 8    1  0.1197213E+005  0.1043930E+01  0.7957747E-01            NaN
         13   -1    0    0    0    0  0.00000000000E+00  0.00000000000E+00  0.74505805969E-08  0.10566000000E+00  0.10566000000E+00 0. -1.
     999900   -1    0    0    0    0 -0.00000000000E+00 -0.00000000000E+00 -0.74505805969E-08  0.93827000000E+00  0.93827000000E+00 0.  1.
     999902    2    1    2    0    0 -0.25337298466E-01 -0.12175078772E-01  0.10789610872E-01  0.10138197536E+01  0.10133725207E+01 0.  0.
     999903    2    3    3    0    0  0.71445967106E-01  0.84237112866E-02 -0.96245288155E-01  0.12182884541E+00  0.20090469247E-01 0.  0.
         14    1    1    2    0    0  0.25337298466E-01  0.12175078772E-01 -0.10789610872E-01  0.30110246419E-01  0.00000000000E+00 0.  1.
     999901    1    3    3    0    0 -0.96783265572E-01 -0.20598790059E-01  0.10703489903E+00  0.89199090817E+00  0.88000000000E+00 0. -1.
        -11    1    4    4    0    0  0.87251101712E-02  0.80393919176E-02 -0.13164155212E-01  0.17728944508E-01  0.51100000000E-03 0. -1.
         11    1    4    4    0    0  0.62720856935E-01  0.38431936899E-03 -0.83081132943E-01  0.10409990090E+00  0.51100000000E-03 0.  1.
</event>
<event>
 8    1  0.1197213E+005  0.1043930E+01  0.7957747E-01            NaN
         13   -1    0    0    0    0  0.00000000000E+00  0.00000000000E+00  0.74505805969E-08  0.10566000000E+00  0.10566000000E+00 0. -1.
     999900   -1    0    0    0    0 -0.00000000000E+00 -0.00000000000E+00 -0.74505805969E-08  0.93827000000E+00  0.93827000000E+00 0. -1.
     999902    2    1    2    0    0  0.22258610383E-01  0.78153684656E-02  0.79737555642E-02  0.10190280624E+01  0.10187237532E+01 0.  0.
     999903    2    3    3    0    0  0.14447652826E-01 -0.80841434665E-01 -0.96591411801E-01  0.12837947059E+00  0.20182056481E-01 0.  0.
         14    1    1    2    0    0 -0.22258610383E-01 -0.78153684656E-02 -0.79737555642E-02  0.24901937640E-01  0.00000000000E+00 0.  1.
     999901    1    3    3    0    0  0.78109575572E-02  0.88656803131E-01  0.10456516737E+00  0.89064859177E+00  0.88000000000E+00 0.  1.
        -11    1    4    4    0    0  0.62754142583E-03 -0.12107853183E-01 -0.26964382576E-01  0.29569121827E-01  0.51100000000E-03 0.  1.
         11    1    4    4    0    0  0.13820111400E-01 -0.68733581482E-01 -0.69627029226E-01  0.98810348761E-01  0.51100000000E-03 0. -1.
</event>
<event>
 8    1  0.1197213E+005  0.1043930E+01  0.7957747E-01            NaN
         13   -1    0    0    0    0  0.00000000000E+00  0.00000000000E+00  0.74505805969E-08  0.10566000000E+00  0.10566000000E+00 0.  1.
     999900   -1    0    0    0    0 -0.00000000000E+00 -0.00000000000E+00 -0.74505805969E-08  0.93827000000E+00  0.93827000000E+00 0. -1.
     999902    2    1    2    0    0  0.63463480872E-02  0.21128672691E-01  0.84365012095E-02  0.10203106965E+01  0.10200372767E+01 0.  0.
     999903    2    3    3    0    0  0.11031964630E+00 -0.28752239957E-01  0.61740882480E-01  0.13118758399E+00  0.20028229107E-01 0.  0.
         14    1    1    2    0    0 -0.63463480872E-02 -0.21128672691E-01 -0.84365012095E-02  0.23619303469E-01  0.00000000000E+00 0. -1.
     999901    1    3    3    0    0 -0.10397329822E+00  0.49880912648E-01 -0.53304381271E-01  0.88912311254E+00  0.88000000000E+00 0. -1.
        -11    1    4    4    0    0  0.75515269366E-01 -0.17646086701E-01  0.52010306022E-01  0.93377049304E-01  0.51100000000E-03 0.  1.
         11    1    4    4    0    0  0.34804376938E-01 -0.11106153256E-01  0.97305764580E-02  0.37810534688E-01  0.51100000000E-03 0. -1.
</event>
<event>
 8    1  0.1197213E+005  0.1043930E+01  0.7957747E-01            NaN
         13   -1    0    0    0    0  0.00000000000E+00  0.00000000000E+00  0.74505805969E-08  0.10566000000E+00  0.10566000000E+00 0.  1.
     999900   -1    0    0    0    0 -0.00000000000E+00 -0.00000000000E+00 -0.74505805969E-08  0.93827000000E+00  0.93827000000E+00 0.  1.
     999902    2    1    2    0    0 -0.31893872767E-02 -0.22865810110E-01  0.62954899048E-02  0.10199998797E+01  0.10197191299E+01 0.  0.
     999903    2    3    3    0    0  0.68119420275E-01 -0.76363549555E-01  0.81377591749E-01  0.13231509548E+00  0.20330394352E-01 0.  0.
         14    1    1    2    0    0  0.31893872767E-02  0.22865810110E-01 -0.62954899048E-02  0.23930120274E-01  0.00000000000E+00 0. -1.
     999901    1    3    3    0    0 -0.71308807552E-01  0.53497739445E-01 -0.75082101844E-01  0.88768478424E+00  0.88000000000E+00 0.  1.
        -11    1    4    4    0    0  0.20327338844E-01 -0.26488866498E-01  0.38703761421E-01  0.51118519364E-01  0.51100000000E-03 0. -1.
         11    1    4    4    0    0  0.47792081431E-01 -0.49874683057E-01  0.42673830328E-01  0.81196576118E-01  0.51100000000E-03 0.  1.
</event>
<event>
 8    1  0.1197213E+005  0.1043930E+01  0.7957747E-01            NaN
         13   -1    0    0    0    0  0.00000000000E+00  0.00000000000E+00  0.74505805969E-08  0.10566000000E+00  0.10566000000E+00 0. -1.
     999900   -1    0    0    0    0 -0.00000000000E+00 -0.00000000000E+00 -0.74505805969E-08  0.93827000000E+00  0.93827000000E+00 0.  1.
     999902    2    1    2    0    0 -0.20066567119E-01  0.12724503609E-01 -0.31277824285E-02  0.10199641257E+01  0.10196825264E+01 0.  0.
     999903    2    3    3    0    0  0.11310177967E+00 -0.54503472696E-01 -0.88208835284E-02  0.12739153998E+00  0.19701659083E-01 0.  0.
         14    1    1    2    0    0  0.20066567119E-01 -0.12724503609E-01  0.31277824285E-02  0.23965874300E-01  0.00000000000E+00 0.  1.
     999901    1    3    3    0    0 -0.13316834679E+00  0.67227976305E-01  0.56931010999E-02  0.89257258572E+00  0.88000000000E+00 0. -1.
        -11    1    4    4    0    0  0.31861133318E-01 -0.58879746588E-02 -0.18118278664E-02  0.32455260022E-01  0.51100000000E-03 0.  1.
         11    1    4    4    0    0  0.81240646353E-01 -0.48615498037E-01 -0.70090556620E-02  0.94936279954E-01  0.51100000000E-03 0. -1.
</event>
<event>
 8    1  0.1197213E+005  0.1043930E+01  0.7957747E-01            NaN
         13   -1    0    0    0    0  0.00000000000E+00  0.00000000000E+00  0.74505805969E-08  0.10566000000E+00  0.10566000000E+00 0.  1.
     999900   -1    0    0    0    0 -0.00000000000E+00 -0.00000000000E+00 -0.74505805969E-08  0.93827000000E+00  0.93827000000E+00 0. -1.
     999902    2    1    2    0    0 -0.91721255749E-02  0.14635342008E-01 -0.16450015120E-01  0.10200778697E+01  0.10197989685E+01 0.  0.
     999903    2    3    3    0    0  0.92756598899E-01 -0.83659602814E-01 -0.25079994387E-01  0.12871608141E+00  0.18333240649E-01 0.  0.
         14    1    1    2    0    0  0.91721255749E-02 -0.14635342008E-01  0.16450015120E-01  0.23852130318E-01  0.00000000000E+00 0.  1.
     999901    1    3    3    0    0 -0.10192872447E+00  0.98294944822E-01  0.86299792671E-02  0.89136178827E+00  0.88000000000E+00 0. -1.
        -11    1    4    4    0    0  0.43833359081E-01 -0.27425160181E-01 -0.99497827366E-02  0.52657023053E-01  0.51100000000E-03 0. -1.
         11    1    4    4    0    0  0.48923239818E-01 -0.56234442633E-01 -0.15130211650E-01  0.76059058357E-01  0.51100000000E-03 0.  1.
</event>
<event>
 8    1  0.1197213E+005  0.1043930E+01  0.7957747E-01            NaN
         13   -1    0    0    0    0  0.00000000000E+00  0.00000000000E+00  0.74505805969E-08  0.10566000000E+00  0.10566000000E+00 0.  1.
     999900   -1    0    0    0    0 -0.00000000000E+00 -0.00000000000E+00 -0.74505805969E-08  0.93827000000E+00  0.93827000000E+00 0. -1.
     999902    2    1    2    0    0  0.21219801284E-01 -0.54840423275E-02  0.88766141812E-02  0.10202836691E+01  0.10200096158E+01 0.  0.
     999903    2    3    3    0    0 -0.22479846602E-01 -0.10438985086E+00  0.73698902563E-01  0.13129888447E+00  0.20131675514E-01 0.  0.
         14    1    1    2    0    0 -0.21219801284E-01  0.54840423275E-02 -0.88766141812E-02  0.23646330923E-01  0.00000000000E+00 0. -1.
     999901    1    3    3    0    0  0.43699647886E-01  0.98905808533E-01 -0.64822288382E-01  0.88898478460E+00  0.88000000000E+00 0. -1.
        -11    1    4    4    0    0  0.31655067349E-02 -0.52199449526E-02  0.55543519515E-02  0.82692324189E-02  0.51100000000E-03 0.  1.
         11    1    4    4    0    0 -0.25645353337E-01 -0.99169905908E-01  0.68144550611E-01  0.12302965205E+00  0.51100000000E-03 0. -1.
</event>
<event>
 8    1  0.1197213E+005  0.1043930E+01  0.7957747E-01            NaN
         13   -1    0    0    0    0  0.00000000000E+00  0.00000000000E+00  0.74505805969E-08  0.10566000000E+00  0.10566000000E+00 0.  1.
     999900   -1    0    0    0    0 -0.00000000000E+00 -0.00000000000E+00 -0.74505805969E-08  0.93827000000E+00  0.93827000000E+00 0.  1.
     999902    2    1    2    0    0  0.22398642584E-01  0.67951820621E-02  0.23098707283E-02  0.10204096005E+01  0.10201384924E+01 0.  0.
     999903    2    3    3    0    0 -0.72497920934E-01 -0.10119461361E+00 -0.22786207583E-01  0.12839112152E+00  0.21651107700E-01 0.  0.
         14    1    1    2    0    0 -0.22398642584E-01 -0.67951820621E-02 -0.23098707283E-02  0.23520399479E-01  0.00000000000E+00 0.  1.
     999901    1    3    3    0    0  0.94896563517E-01  0.10798979567E+00  0.25096078312E-01  0.89201847900E+00  0.88000000000E+00 0.  1.
        -11    1    4    4    0    0 -0.32049276176E-01 -0.36518637747E-01 -0.18477191934E-01  0.51984947332E-01  0.51100000000E-03 0. -1.
         11    1    4    4    0    0 -0.40448644757E-01 -0.64675975865E-01 -0.43090156492E-02  0.76406174185E-01  0.51100000000E-03 0.  1.
</event>
<event>
 8    1  0.1197213E+005  0.1043930E+01  0.7957747E-01            NaN
         13   -1    0    0    0    0  0.00000000000E+00  0.00000000000E+00  0.74505805969E-08  0.10566000000E+00  0.10566000000E+00 0. -1.
     999900   -1    0    0    0    0 -0.00000000000E+00 -0.00000000000E+00 -0.74505805969E-08  0.93827000000E+00  0.93827000000E+00 0.  1.
     999902    2    1    2    0    0  0.15126458907E-01 -0.17216367601E-01 -0.32018202778E-02  0.10207898892E+01  0.10205275759E+01 0.  0.
     999903    2    3    3    0    0  0.89534882833E-01 -0.45730575139E-01 -0.85070436049E-01  0.13340488609E+00  0.21262732585E-01 0.  0.
         14    1    1    2    0    0 -0.15126458907E-01  0.17216367601E-01  0.32018202778E-02  0.23140110750E-01  0.00000000000E+00 0.  1.
     999901    1    3    3    0    0 -0.74408423926E-01  0.28514207538E-01  0.81868615771E-01  0.88738500316E+00  0.88000000000E+00 0. -1.
        -11    1    4    4    0    0  0.57894610473E-01 -0.31612922332E-01 -0.42313211210E-01  0.78369839506E-01  0.51100000000E-03 0.  1.
         11    1    4    4    0    0  0.31640272360E-01 -0.14117652806E-01 -0.42757224838E-01  0.55035046585E-01  0.51100000000E-03 0. -1.
</event>
<event>
 8    1  0.1197213E+005  0.1043930E+01  0.7957747E-01            NaN
         13   -1    0    0    0    0  0.00000000000E+00  0.00000000000E+00  0.74505805969E-08  0.10566000000E+00  0.10566000000E+00 0. -1.
     999900   -1    0    0    0    0 -0.00000000000E+00 -0.00000000000E+00 -0.74505805969E-08  0.93827000000E+00  0.93827000000E+00 0.  1.
     999902    2    1    2    0    0  0.33508781469E-02  0.19509383389E-01  0.13235857722E-01  0.10201175588E+01  0.10198395960E+01 0.  0.
     999903    2    3    3    0    0 -0.29102561855E-01 -0.39318625641E-01 -0.11659144018E+00  0.12805865512E+00  0.20311124988E-01 0.  0.
         14    1    1    2    0    0 -0.33508781469E-02 -0.19509383389E-01 -0.13235857722E-01  0.23812441164E-01  0.00000000000E+00 0.  1.
     999901    1    3    3    0    0  0.32453440002E-01  0.58828009030E-01  0.12982729791E+00  0.89205890371E+00  0.88000000000E+00 0. -1.
        -11    1    4    4    0    0 -0.10179908009E-01 -0.29953190132E-01 -0.75371497121E-01  0.81743182135E-01  0.51100000000E-03 0.  1.
         11    1    4    4    0    0 -0.18922653845E-01 -0.93654355087E-02 -0.41219943064E-01  0.46315472987E-01  0.51100000000E-03 0. -1.
</event>
<event>
 8    1  0.1197213E+005  0.1043930E+01  0.7957747E-01            NaN
         13   -1    0    0    0    0  0.00000000000E+00  0.00000000000E+00  0.74505805969E-08  0.10566000000E+00  0.10566000000E+00 0.  1.
     999900   -1    0    0    0    0 -0.00000000000E+00 -0.00000000000E+00 -0.74505805969E-08  0.93827000000E+00  0.93827000000E+00 0.  1.
     999902    2    1    2    0    0  0.15933899046E-01  0.11802277171E-02 -0.17324342105E-01  0.10203627578E+01  0.10200905561E+01 0.  0.
     999903    2    3    3    0    0  0.63094223092E-01 -0.10548390829E+00  0.40273895094E-01  0.13080169130E+00  0.19477164192E-01 0.  0.
         14    1    1    2    0    0 -0.15933899046E-01 -0.11802277171E-02  0.17324342105E-01  0.23567242215E-01  0.00000000000E+00 0.  1.
     999901    1    3    3    0    0 -0.47160324046E-01  0.10666413601E+00 -0.57598237198E-01  0.88956106648E+00  0.88000000000E+00 0.  1.
        -11    1    4    4    0    0  0.41391156164E-02 -0.18039477957E-01  0.10177585999E-01  0.21128166527E-01  0.51100000000E-03 0.  1.
         11    1    4    4    0    0  0.58955107476E-01 -0.87444430336E-01  0.30096309095E-01  0.10967352477E+00  0.51100000000E-03 0. -1.
</event>
<event>
 8    1  0.1197213E+005  0.1043930E+01  0.7957747E-01            NaN
         13   -1    0    0    0    0  0.00000000000E+00  0.00000000000E+00  0.74505805969E-08  0.10566000000E+00  0.10566000000E+00 0.  1.
     999900   -1    0    0    0    0 -0.00000000000E+00 -0.00000000000E+00 -0.74505805969E-08  0.93827000000E+00  0.93827000000E+00 0. -1.
     999902    2    1    2    0    0 -0.28432897521E-01 -0.11827744000E-01 -0.15608495848E-01  0.10094053663E+01  0.10088147715E+01 0.  0.
     999903    2    3    3    0    0 -0.21256361695E-01  0.96661978017E-01  0.63350471471E-01  0.11920536575E+00  0.20031627050E-01 0.  0.
         14    1    1    2    0    0  0.28432897521E-01  0.11827744000E-01  0.15608495848E-01  0.34524633701E-01  0.00000000000E+00 0.  1.
     999901    1    3    3    0    0 -0.71765358258E-02 -0.10848972202E+00 -0.78958967319E-01  0.89020000054E+00  0.88000000000E+00 0. -1.
        -11    1    4    4    0    0 -0.80860666557E-02  0.64187573815E-01  0.31981022199E-01  0.72169772122E-01  0.51100000000E-03 0.  1.
         11    1    4    4    0    0 -0.13170295040E-01  0.32474404202E-01  0.31369449272E-01  0.47035593632E-01  0.51100000000E-03 0. -1.
</event>
<event>
 8    1  0.1197213E+005  0.1043930E+01  0.7957747E-01            NaN
         13   -1    0    0    0    0  0.00000000000E+00  0.00000000000E+00  0.74505805969E-08  0.10566000000E+00  0.10566000000E+00 0.  1.
     999900   -1    0    0    0    0 -0.00000000000E+00 -0.00000000000E+00 -0.74505805969E-08  0.93827000000E+00  0.93827000000E+00 0.  1.
     999902    2    1    2    0    0  0.23594180466E-01 -0.39575678444E-02  0.38203158328E-02  0.10197031036E+01  0.10194152623E+01 0.  0.
     999903    2    3    3    0    0 -0.48707406082E-01 -0.82170409404E-01  0.85171767280E-01  0.12955546044E+00  0.20149436727E-01 0.  0.
         14    1    1    2    0    0 -0.23594180466E-01  0.39575678444E-02 -0.38203158328E-02  0.24226896379E-01  0.00000000000E+00 0. -1.
     999901    1    3    3    0    0  0.72301586548E-01  0.78212841559E-01 -0.81351451447E-01  0.89014764318E+00  0.88000000000E+00 0.  1.
        -11    1    4    4    0    0 -0.26323713765E-01 -0.37199094942E-01  0.53002837129E-01  0.69901877197E-01  0.51100000000E-03 0. -1.
         11    1    4    4    0    0 -0.22383692317E-01 -0.44971314462E-01  0.32168930151E-01  0.59653583247E-01  0.51100000000E-03 0.  1.
</event>
<event>
 8    1  0.1197213E+005  0.1043930E+01  0.7957747E-01            NaN
         13   -1    0    0    0    0  0.00000000000E+00  0.00000000000E+00  0.74505805969E-08  0.10566000000E+00  0.10566000000E+00 0. -1.
     999900   -1    0    0    0    0 -0.00000000000E+00 -0.00000000000E+00 -0.74505805969E-08  0.93827000000E+00  0.93827000000E+00 0.  1.
     999902    2    1    2    0    0 -0.12635166960E-01 -0.16051475396E-01 -0.12384299548E-01  0.10200413378E+01  0.10197615715E+01 0.  0.
     999903    2    3    3    0    0 -0.51005693847E-01  0.43308463841E-01  0.10837975705E+00  0.12898586417E+00  0.20346438825E-01 0.  0.
         14    1    1    2    0    0  0.12635166960E-01  0.16051475396E-01  0.12384299548E-01  0.23888662202E-01  0.00000000000E+00 0. -1.
     999901    1    3    3    0    0  0.38370526887E-01 -0.59359939236E-01 -0.12076405659E+00  0.89105547363E+00  0.88000000000E+00 0.  1.
        -11    1    4    4    0    0 -0.22797295521E-01  0.22347145675E-01  0.70037798463E-01  0.76971851592E-01  0.51100000000E-03 0. -1.
         11    1    4    4    0    0 -0.28208398326E-01  0.20961318166E-01  0.38341958583E-01  0.52014012577E-01  0.51100000000E-03 0.  1.
</event>
<event>
 8    1  0.1197213E+005  0.1043930E+01  0.7957747E-01            NaN
         13   -1    0    0    0    0  0.00000000000E+00  0.00000000000E+00  0.74505805969E-08  0.10566000000E+00  0.10566000000E+00 0. -1.
     999900   -1    0    0    0    0 -0.00000000000E+00 -0.00000000000E+00 -0.74505805969E-08  0.93827000000E+00  0.93827000000E+00 0.  1.
     999902    2    1    2    0    0 -0.11294415236E-01  0.16016275718E-01  0.11098205292E-01  0.10214076763E+01  0.10211593344E+01 0.  0.
     999903    2    3    3    0    0 -0.12485363852E+00  0.43431496175E-01  0.82513439079E-02  0.13368283374E+00  0.18118759621E-01 0.  0.
         14    1    1    2    0    0  0.11294415236E-01 -0.16016275718E-01 -0.11098205292E-01  0.22522323684E-01  0.00000000000E+00 0.  1.
     999901    1    3    3    0    0  0.11355922328E+00 -0.27415220456E-01  0.28468613845E-02  0.88772484257E+00  0.88000000000E+00 0.  1.
        -11    1    4    4    0    0 -0.27725756254E-01  0.17435540371E-01 -0.44736078900E-03  0.32759378513E-01  0.51100000000E-03 0.  1.
         11    1    4    4    0    0 -0.97127882262E-01  0.25995955804E-01  0.86987046969E-02  0.10092345523E+00  0.51100000000E-03 0. -1.
</event>
<event>
 8    1  0.1197213E+005  0.1043930E+01  0.7957747E-01            NaN
         13   -1    0    0    0    0  0.00000000000E+00  0.00000000000E+00  0.74505805969E-08  0.10566000000E+00  0.10566000000E+00 0.  1.
     999900   -1    0    0    0    0 -0.00000000000E+00 -0.00000000000E+00 -0.74505805969E-08  0.93827000000E+00  0.93827000000E+00 0. -1.
     999902    2    1    2    0    0 -0.51803409658E-02  0.12888171084E-02 -0.22957086054E-01  0.10203604268E+01  0.10200881706E+01 0.  0.
     999903    2    3    3    0    0 -0.34609742527E-01 -0.11984376295E+00 -0.36607903726E-01  0.13147036808E+00  0.19594827677E-01 0.  0.
         14    1    1    2    0    0  0.51803409658E-02 -0.12888171084E-02  0.22957086054E-01  0.23569573228E-01  0.00000000000E+00 0.  1.
     999901    1    3    3    0    0  0.29429401561E-01  0.12113258006E+00  0.13650817672E-01  0.88889005870E+00  0.88000000000E+00 0.  1.
        -11    1    4    4    0    0 -0.28719354197E-01 -0.80107286070E-01 -0.17066121124E-01  0.86795692279E-01  0.51100000000E-03 0. -1.
         11    1    4    4    0    0 -0.58903883297E-02 -0.39736476877E-01 -0.19541782602E-01  0.44674675797E-01  0.51100000000E-03 0.  1.
</event>
<event>
 8    1  0.1197213E+005  0.1043930E+01  0.7957747E-01            NaN
         13   -1    0    0    0    0  0.00000000000E+00  0.00000000000E+00  0.74505805969E-08  0.10566000000E+00  0.10566000000E+00 0. -1.
     999900   -1    0    0    0    0 -0.00000000000E+00 -0.00000000000E+00 -0.74505805969E-08  0.93827000000E+00  0.93827000000E+00 0. -1.
     999902    2    1    2    0    0  0.16436524385E-01  0.16825801031E-01 -0.11372613924E-01  0.10178033228E+01  0.10174679359E+01 0.  0.
     999903    2    3    3    0    0 -0.70681993535E-01 -0.40450888687E-01 -0.96304154309E-01  0.12758783096E+00  0.19285898140E-01 0.  0.
         14    1    1    2    0    0 -0.16436524385E-01 -0.16825801031E-01  0.11372613924E-01  0.26126677202E-01  0.00000000000E+00 0. -1.
     999901    1    3    3    0    0  0.87118517920E-01  0.57276689718E-01  0.84931540386E-01  0.89021549183E+00  0.88000000000E+00 0.  1.
        -11    1    4    4    0    0 -0.19574305545E-01 -0.95760494110E-02 -0.14004934339E-01  0.25908559719E-01  0.51100000000E-03 0. -1.
         11    1    4    4    0    0 -0.51107687990E-01 -0.30874839276E-01 -0.82299219970E-01  0.10167927124E+00  0.51100000000E-03 0.  1.
</event>
<event>
 8    1  0.1197213E+005  0.1043930E+01  0.7957747E-01            NaN
         13   -1    0    0    0    0  0.00000000000E+00  0.00000000000E+00  0.74505805969E-08  0.10566000000E+00  0.10566000000E+00 0. -1.
     999900   -1    0    0    0    0 -0.00000000000E+00 -0.00000000000E+00 -0.74505805969E-08  0.93827000000E+00  0.93827000000E+00 0.  1.
     999902    2    1    2    0    0  0.69191700802E-02  0.16535088124E-01  0.15618376822E-01  0.10201556914E+01  0.10198786286E+01 0.  0.
     999903    2    3    3    0    0 -0.41441464127E-01  0.31115261364E-01  0.12054682975E+00  0.13248384179E+00  0.18299610209E-01 0.  0.
         14    1    1    2    0    0 -0.69191700802E-02 -0.16535088124E-01 -0.15618376822E-01  0.23774308579E-01  0.00000000000E+00 0.  1.
     999901    1    3    3    0    0  0.48360634207E-01 -0.14580173240E-01 -0.10492845293E+00  0.88767184963E+00  0.88000000000E+00 0.  1.
        -11    1    4    4    0    0 -0.33259120503E-01  0.14963899914E-01  0.87521870942E-01  0.94817859138E-01  0.51100000000E-03 0. -1.
         11    1    4    4    0    0 -0.81823436239E-02  0.16151361449E-01  0.33024958808E-01  0.37665982652E-01  0.51100000000E-03 0.  1.
</event>
<event>
 8    1  0.1197213E+005  0.1043930E+01  0.7957747E-01            NaN
         13   -1    0    0    0    0  0.00000000000E+00  0.00000000000E+00  0.74505805969E-08  0.10566000000E+00  0.10566000000E+00 0.  1.
     999900   -1    0    0    0    0 -0.00000000000E+00 -0.00000000000E+00 -0.74505805969E-08  0.93827000000E+00  0.93827000000E+00 0.  1.
     999902    2    1    2    0    0  0.13249227550E-01  0.18961187213E-01 -0.23444503249E-02  0.10206799441E+01  0.10204151034E+01 0.  0.
     999903    2    3    3    0    0  0.11128267103E+00 -0.66028499046E-01  0.17611212709E-01  0.13094288672E+00  0.96067274425E-02 0.  0.
         14    1    1    2    0    0 -0.13249227550E-01 -0.18961187213E-01  0.23444503249E-02  0.23250055882E-01  0.00000000000E+00 0. -1.
     999901    1    3    3    0    0 -0.98033443483E-01  0.84989686259E-01 -0.19955663034E-01  0.88973705739E+00  0.88000000000E+00 0.  1.
        -11    1    4    4    0    0  0.39867303823E-01 -0.22701044876E-01  0.10792151556E-01  0.47132483584E-01  0.51100000000E-03 0.  1.
         11    1    4    4    0    0  0.71415367211E-01 -0.43327454169E-01  0.68190611535E-02  0.83810403141E-01  0.51100000000E-03 0. -1.
</event>
<event>
 8    1  0.1197213E+005  0.1043930E+01  0.7957747E-01            NaN
         13   -1    0    0    0    0  0.00000000000E+00  0.00000000000E+00  0.74505805969E-08  0.10566000000E+00  0.10566000000E+00 0.  1.
     999900   -1    0    0    0    0 -0.00000000000E+00 -0.00000000000E+00 -0.74505805969E-08  0.93827000000E+00  0.93827000000E+00 0.  1.
     999902    2    1    2    0    0  0.18827388154E-01  0.67627646980E-02  0.98360850924E-02  0.10216375326E+01  0.10213942892E+01 0.  0.
     999903    2    3    3    0    0 -0.11940043682E-01 -0.11444251981E+00  0.59958652959E-01  0.13138496866E+00  0.20671597465E-01 0.  0.
         14    1    1    2    0    0 -0.18827388154E-01 -0.67627646980E-02 -0.98360850924E-02  0.22292467361E-01  0.00000000000E+00 0. -1.
     999901    1    3    3    0    0  0.30767431836E-01  0.12120528451E+00 -0.50122567866E-01  0.89025256398E+00  0.88000000000E+00 0.  1.
        -11    1    4    4    0    0 -0.89145589477E-02 -0.22528617004E-01  0.68352646978E-02  0.25179156258E-01  0.51100000000E-03 0.  1.
         11    1    4    4    0    0 -0.30254847340E-02 -0.91913902809E-01  0.53123388261E-01  0.10620581241E+00  0.51100000000E-03 0. -1.
</event>
<event>
 8    1  0.1197213E+005  0.1043930E+01  0.7957747E-01            NaN
         13   -1    0    0    0    0  0.00000000000E+00  0.00000000000E+00  0.74505805969E-08  0.10566000000E+00  0.10566000000E+00 0.  1.
     999900   -1    0    0    0    0 -0.00000000000E+00 -0.00000000000E+00 -0.74505805969E-08  0.93827000000E+00  0.93827000000E+00 0. -1.
     999902    2    1    2    0    0 -0.83914661623E-03 -0.25957261466E-01  0.94941802482E-02  0.10162781818E+01  0.10159019243E+01 0.  0.
     999903    2    3    3    0    0  0.76559784620E-01 -0.10172422209E+00  0.13827633673E-01  0.12962717624E+00  0.20069464064E-01 0.  0.
         14    1    1    2    0    0  0.83914661623E-03  0.25957261466E-01 -0.94941802482E-02  0.27651818176E-01  0.00000000000E+00 0. -1.
     999901    1    3    3    0    0 -0.77398931236E-01  0.75766960621E-01 -0.43334534245E-02  0.88665100558E+00  0.88000000000E+00 0. -1.
        -11    1    4    4    0    0  0.28494966530E-01 -0.37869390405E-01 -0.45619393505E-02  0.47614349295E-01  0.51100000000E-03 0.  1.
         11    1    4    4    0    0  0.48064818090E-01 -0.63854831682E-01  0.18389573023E-01  0.82012826949E-01  0.51100000000E-03 0. -1.
</event>
<event>
 8    1  0.1197213E+005  0.1043930E+01  0.7957747E-01            NaN
         13   -1    0    0    0    0  0.00000000000E+00  0.00000000000E+00  0.74505805969E-08  0.10566000000E+00  0.10566000000E+00 0. -1.
     999900   -1    0    0    0    0 -0.00000000000E+00 -0.00000000000E+00 -0.74505805969E-08  0.93827000000E+00  0.93827000000E+00 0.  1.
     999902    2    1    2    0    0 -0.54024412822E-02 -0.84376130842E-02 -0.22086104280E-01  0.10196776663E+01  0.10193892130E+01 0.  0.
     999903    2    3    3    0    0 -0.85647349435E-01  0.92764521234E-01  0.18912647825E-01  0.12930582549E+00  0.20532496040E-01 0.  0.
         14    1    1    2    0    0  0.54024412822E-02  0.84376130842E-02  0.22086104280E-01  0.24252333674E-01  0.00000000000E+00 0. -1.
     999901    1    3    3    0    0  0.80244908153E-01 -0.10120213432E+00 -0.40998752105E-01  0.89037184083E+00  0.88000000000E+00 0.  1.
        -11    1    4    4    0    0 -0.37395000127E-01  0.40722700472E-01 -0.19734378616E-02  0.55325219803E-01  0.51100000000E-03 0.  1.
         11    1    4    4    0    0 -0.48252349308E-01  0.52041820762E-01  0.20886085687E-01  0.73980605690E-01  0.51100000000E-03 0. -1.
</event>
<event>
 8    1  0.1197213E+005  0.1043930E+01  0.7957747E-01            NaN
         13   -1    0    0    0    0  0.00000000000E+00  0.00000000000E+00  0.74505805969E-08  0.10566000000E+00  0.10566000000E+00 0.  1.
     999900   -1    0    0    0    0 -0.00000000000E+00 -0.00000000000E+00 -0.74505805969E-08  0.93827000000E+00  0.93827000000E+00 0.  1.
     999902    2    1    2    0    0  0.22211510056E-01  0.88837562261E-02 -0.12474535008E-02  0.10199752835E+01  0.10196939494E+01 0.  0.
     999903    2    3    3    0    0 -0.40451262703E-01 -0.11281317028E+00  0.40727047156E-01  0.12840440928E+00  0.21584344060E-01 0.  0.
         14    1    1    2    0    0 -0.22211510056E-01 -0.88837562261E-02  0.12474535008E-02  0.23954716527E-01  0.00000000000E+00 0. -1.
     999901    1    3    3    0    0  0.62662772759E-01  0.12169692651E+00 -0.41974500657E-01  0.89157087420E+00  0.88000000000E+00 0.  1.
        -11    1    4    4    0    0 -0.32539209650E-01 -0.71527260929E-01  0.18013912340E-01  0.80620787514E-01  0.51100000000E-03 0. -1.
         11    1    4    4    0    0 -0.79120530530E-02 -0.41285909351E-01  0.22713134816E-01  0.47783621762E-01  0.51100000000E-03 0.  1.
</event>
<event>
 8    1  0.1197213E+005  0.1043930E+01  0.7957747E-01            NaN
         13   -1    0    0    0    0  0.00000000000E+00  0.00000000000E+00  0.74505805969E-08  0.10566000000E+00  0.10566000000E+00 0. -1.
     999900   -1    0    0    0    0 -0.00000000000E+00 -0.00000000000E+00 -0.74505805969E-08  0.93827000000E+00  0.93827000000E+00 0. -1.
     999902    2    1    2    0    0  0.12950654025E-01  0.15858401963E-01  0.13150757189E-01  0.10195958518E+01  0.10193054254E+01 0.  0.
     999903    2    3    3    0    0  0.49053773568E-02  0.13058757908E+00  0.56373066109E-02  0.13208023929E+00  0.18336625902E-01 0.  0.
         14    1    1    2    0    0 -0.12950654025E-01 -0.15858401963E-01 -0.13150757189E-01  0.24334148170E-01  0.00000000000E+00 0.  1.
     999901    1    3    3    0    0  0.80452766681E-02 -0.11472917711E+00  0.75134505781E-02  0.88751561254E+00  0.88000000000E+00 0. -1.
        -11    1    4    4    0    0 -0.61529838309E-02  0.33334073752E-01 -0.15393256247E-02  0.33935973941E-01  0.51100000000E-03 0.  1.
         11    1    4    4    0    0  0.11058361188E-01  0.97253505325E-01  0.71766322355E-02  0.98144265352E-01  0.51100000000E-03 0. -1.
</event>
<event>
 8    1  0.1197213E+005  0.1043930E+01  0.7957747E-01            NaN
         13   -1    0    0    0    0  0.00000000000E+00  0.00000000000E+00  0.74505805969E-08  0.10566000000E+00  0.10566000000E+00 0. -1.
     999900   -1    0    0    0    0 -0.00000000000E+00 -0.00000000000E+00 -0.74505805969E-08  0.93827000000E+00  0.93827000000E+00 0.  1.
     999902    2    1    2    0    0  0.39030135883E-02  0.17310034487E-01  0.15701441074E-01  0.10202359910E+01  0.10199608185E+01 0.  0.
     999903    2    3    3    0    0 -0.22596262395E-01 -0.37123241746E-01 -0.11870269932E+00  0.12797500559E+00  0.19963593844E-01 0.  0.
         14    1    1    2    0    0 -0.39030135883E-02 -0.17310034487E-01 -0.15701441074E-01  0.23694008965E-01  0.00000000000E+00 0. -1.
     999901    1    3    3    0    0  0.26499275984E-01  0.54433276233E-01  0.13440414039E+00  0.89226098544E+00  0.88000000000E+00 0. -1.
        -11    1    4    4    0    0 -0.13779461051E-01 -0.75358036012E-02 -0.27321021946E-01  0.31517633857E-01  0.51100000000E-03 0.  1.
         11    1    4    4    0    0 -0.88168013447E-02 -0.29587438145E-01 -0.91381677371E-01  0.96457371736E-01  0.51100000000E-03 0. -1.
</event>
<event>
 8    1  0.1197213E+005  0.1043930E+01  0.7957747E-01            NaN
         13   -1    0    0    0    0  0.00000000000E+00  0.00000000000E+00  0.74505805969E-08  0.10566000000E+00  0.10566000000E+00 0.  1.
     999900   -1    0    0    0    0 -0.00000000000E+00 -0.00000000000E+00 -0.74505805969E-08  0.93827000000E+00  0.93827000000E+00 0.  1.
     999902    2    1    2    0    0  0.10017574360E-04 -0.21422927060E-01  0.76160867769E-02  0.10211935385E+01  0.10209403981E+01 0.  0.
     999903    2    3    3    0    0 -0.10931820493E+00 -0.66451687015E-01 -0.28281474171E-01  0.13256038339E+00  0.20152340521E-01 0.  0.
         14    1    1    2    0    0 -0.10017574360E-04  0.21422927060E-01 -0.76160867769E-02  0.22736461509E-01  0.00000000000E+00 0. -1.
     999901    1    3    3    0    0  0.10932822250E+00  0.45028759955E-01  0.35897560948E-01  0.88863315510E+00  0.88000000000E+00 0. -1.
        -11    1    4    4    0    0 -0.82557455720E-01 -0.57008577081E-01 -0.15845497513E-01  0.10157289140E+00  0.51100000000E-03 0. -1.
         11    1    4    4    0    0 -0.26760749205E-01 -0.94431099336E-02 -0.12435976658E-01  0.30987491988E-01  0.51100000000E-03 0.  1.
</event>
<event>
 8    1  0.1197213E+005  0.1043930E+01  0.7957747E-01            NaN
         13   -1    0    0    0    0  0.00000000000E+00  0.00000000000E+00  0.74505805969E-08  0.10566000000E+00  0.10566000000E+00 0.  1.
     999900   -1    0    0    0    0 -0.00000000000E+00 -0.00000000000E+00 -0.74505805969E-08  0.93827000000E+00  0.93827000000E+00 0.  1.
     999902    2    1    2    0    0 -0.10170749045E-01  0.15434542008E-01  0.16092338278E-01  0.10194221936E+01  0.10191275564E+01 0.  0.
     999903    2    3    3    0    0 -0.89602423451E-02  0.10106801771E+00  0.83293666329E-01  0.13271447627E+00  0.19500441388E-01 0.  0.
         14    1    1    2    0    0  0.10170749045E-01 -0.15434542008E-01 -0.16092338278E-01  0.24507806397E-01  0.00000000000E+00 0. -1.
     999901    1    3    3    0    0 -0.12105067002E-02 -0.85633475701E-01 -0.67201328052E-01  0.88670771733E+00  0.88000000000E+00 0. -1.
        -11    1    4    4    0    0  0.58313483601E-03  0.23783524209E-01  0.10127266108E-01  0.25861529535E-01  0.51100000000E-03 0.  1.
         11    1    4    4    0    0 -0.95433771812E-02  0.77284493500E-01  0.73166400221E-01  0.10685294673E+00  0.51100000000E-03 0. -1.
</event>
<event>
 8    1  0.1197213E+005  0.1043930E+01  0.7957747E-01            NaN
         13   -1    0    0    0    0  0.00000000000E+00  0.00000000000E+00  0.74505805969E-08  0.10566000000E+00  0.10566000000E+00 0.  1.
     999900   -1    0    0    0    0 -0.00000000000E+00 -0.00000000000E+00 -0.74505805969E-08  0.93827000000E+00  0.93827000000E+00 0. -1.
     999902    2    1    2    0    0  0.88039685903E-02 -0.20077875973E-01 -0.10529025899E-01  0.10196094048E+01  0.10193193057E+01 0.  0.
     999903    2    3    3    0    0  0.10126230519E+00 -0.73576311019E-01 -0.38895844068E-01  0.13269604770E+00  0.20683964657E-01 0.  0.
         14    1    1    2    0    0 -0.88039685903E-02  0.20077875973E-01  0.10529025899E-01  0.24320595241E-01  0.00000000000E+00 0. -1.
     999901    1    3    3    0    0 -0.92458336597E-01  0.53498435046E-01  0.28366818170E-01  0.88691335706E+00  0.88000000000E+00 0.  1.
        -11    1    4    4    0    0  0.76931171343E-01 -0.54665744068E-01 -0.38350058630E-01  0.10187117756E+00  0.51100000000E-03 0.  1.
         11    1    4    4    0    0  0.24331133845E-01 -0.18910566951E-01 -0.54578543892E-03  0.30824870143E-01  0.51100000000E-03 0. -1.
</event>
<event>
 8    1  0.1197213E+005  0.1043930E+01  0.7957747E-01            NaN
         13   -1    0    0    0    0  0.00000000000E+00  0.00000000000E+00  0.74505805969E-08  0.10566000000E+00  0.10566000000E+00 0. -1.
     999900   -1    0    0    0    0 -0.00000000000E+00 -0.00000000000E+00 -0.74505805969E-08  0.93827000000E+00  0.93827000000E+00 0.  1.
     999902    2    1    2    0    0  0.16778219077E-01 -0.16567288148E-01 -0.55038869805E-02  0.10197168539E+01  0.10194293432E+01 0.  0.
     999903    2    3    3    0    0 -0.45668974645E-02  0.71901906305E-01  0.10407122843E+00  0.12826347975E+00  0.20735451994E-01 0.  0.
         14    1    1    2    0    0 -0.16778219077E-01  0.16567288148E-01  0.55038869805E-02  0.24213146096E-01  0.00000000000E+00 0.  1.
     999901    1    3    3    0    0  0.21345116541E-01 -0.88469194453E-01 -0.10957511541E+00  0.89145337415E+00  0.88000000000E+00 0.  1.
        -11    1    4    4    0    0 -0.31725466463E-02  0.23399319455E-02  0.13373893418E-01  0.13952149651E-01  0.51100000000E-03 0. -1.
         11    1    4    4    0    0 -0.13943508182E-02  0.69561974360E-01  0.90697335009E-01  0.11431133010E+00  0.51100000000E-03 0.  1.
</event>
<event>
 8    1  0.1197213E+005  0.1043930E+01  0.7957747E-01            NaN
         13   -1    0    0    0    0  0.00000000000E+00  0.00000000000E+00  0.74505805969E-08  0.10566000000E+00  0.10566000000E+00 0. -1.
     999900   -1    0    0    0    0 -0.00000000000E+00 -0.00000000000E+00 -0.74505805969E-08  0.93827000000E+00  0.93827000000E+00 0.  1.
     999902    2    1    2    0    0  0.21180955527E-02 -0.15966957200E-01  0.17373379946E-01  0.10202389810E+01  0.10199638787E+01 0.  0.
     999903    2    3    3    0    0  0.25649653284E-01  0.12438050477E+00 -0.21805031552E-02  0.12859247108E+00  0.20071231727E-01 0.  0.
         14    1    1    2    0    0 -0.21180955527E-02  0.15966957200E-01 -0.17373379946E-01  0.23691019010E-01  0.00000000000E+00 0.  1.
     999901    1    3    3    0    0 -0.23531557731E-01 -0.14034746197E+00  0.19553883101E-01  0.89164650991E+00  0.88000000000E+00 0.  1.
        -11    1    4    4    0    0 -0.28274171434E-02  0.15158620052E-01 -0.29880656289E-02  0.15715206228E-01  0.51100000000E-03 0.  1.
         11    1    4    4    0    0  0.28477070427E-01  0.10922188472E+00  0.80756247369E-03  0.11287726485E+00  0.51100000000E-03 0. -1.
</event>
<event>
 8    1  0.1197213E+005  0.1043930E+01  0.7957747E-01            NaN
         13   -1    0    0    0    0  0.00000000000E+00  0.00000000000E+00  0.74505805969E-08  0.10566000000E+00  0.10566000000E+00 0.  1.
     999900   -1    0    0    0    0 -0.00000000000E+00 -0.00000000000E+00 -0.74505805969E-08  0.93827000000E+00  0.93827000000E+00 0.  1.
     999902    2    1    2    0    0 -0.20111586681E-01  0.11949584819E-01  0.52847447204E-03  0.10205302611E+01  0.10202619595E+01 0.  0.
     999903    2    3    3    0    0 -0.20110948357E-01 -0.61125595681E-01 -0.11172468768E+00  0.13039501607E+00  0.19485011826E-01 0.  0.
         14    1    1    2    0    0  0.20111586681E-01 -0.11949584819E-01 -0.52847447204E-03  0.23399738918E-01  0.00000000000E+00 0. -1.
     999901    1    3    3    0    0 -0.63832384277E-06  0.73075180500E-01  0.11225316215E+00  0.89013524502E+00  0.88000000000E+00 0. -1.
        -11    1    4    4    0    0  0.31004103931E-02 -0.21015084811E-02 -0.54572066025E-02  0.66386073392E-02  0.51100000000E-03 0. -1.
         11    1    4    4    0    0 -0.23211358750E-01 -0.59024087200E-01 -0.10626748108E+00  0.12375640873E+00  0.51100000000E-03 0.  1.
</event>
<event>
 8    1  0.1197213E+005  0.1043930E+01  0.7957747E-01            NaN
         13   -1    0    0    0    0  0.00000000000E+00  0.00000000000E+00  0.74505805969E-08  0.10566000000E+00  0.10566000000E+00 0. -1.
     999900   -1    0    0    0    0 -0.00000000000E+00 -0.00000000000E+00 -0.74505805969E-08  0.93827000000E+00  0.93827000000E+00 0. -1.
     999902    2    1    2    0    0 -0.13138795183E-01 -0.18081755083E-01  0.10333173294E-01  0.10193057787E+01  0.10190083013E+01 0.  0.
     999903    2    3    3    0    0 -0.78890291522E-01 -0.51718787829E-01 -0.88043596675E-01  0.13074925368E+00  0.21099320137E-01 0.  0.
         14    1    1    2    0    0  0.13138795183E-01  0.18081755083E-01 -0.10333173294E-01  0.24624221329E-01  0.00000000000E+00 0. -1.
     999901    1    3    3    0    0  0.65751496339E-01  0.33637032747E-01  0.98376769969E-01  0.88855652500E+00  0.88000000000E+00 0.  1.
        -11    1    4    4    0    0 -0.48502694063E-01 -0.37327564380E-01 -0.44208550543E-01  0.75501757967E-01  0.51100000000E-03 0.  1.
         11    1    4    4    0    0 -0.30387597459E-01 -0.14391223449E-01 -0.43835046132E-01  0.55247495708E-01  0.51100000000E-03 0. -1.
</event>
<event>
 8    1  0.1197213E+005  0.1043930E+01  0.7957747E-01            NaN
         13   -1    0    0    0    0  0.00000000000E+00  0.00000000000E+00  0.74505805969E-08  0.10566000000E+00  0.10566000000E+00 0. -1.
     999900   -1    0    0    0    0 -0.00000000000E+00 -0.00000000000E+00 -0.74505805969E-08  0.93827000000E+00  0.93827000000E+00 0. -1.
     999902    2    1    2    0    0  0.17060942679E-01 -0.17125585535E-01 -0.19606305990E-03  0.10197556358E+01  0.10194690563E+01 0.  0.
     999903    2    3    3    0    0  0.85888463827E-01  0.90601066989E-01 -0.29597420297E-01  0.13003281425E+00  0.21145778202E-01 0.  0.
         14    1    1    2    0    0 -0.17060942679E-01  0.17125585535E-01  0.19606305990E-03  0.24174364226E-01  0.00000000000E+00 0. -1.
     999901    1    3    3    0    0 -0.68827521148E-01 -0.10772665252E+00  0.29401357237E-01  0.88972282152E+00  0.88000000000E+00 0.  1.
        -11    1    4    4    0    0  0.30668615823E-01  0.42075290061E-01 -0.20498035594E-01  0.55958239915E-01  0.51100000000E-03 0. -1.
         11    1    4    4    0    0  0.55219848004E-01  0.48525776928E-01 -0.90993847027E-02  0.74074574336E-01  0.51100000000E-03 0.  1.
</event>
<event>
 8    1  0.1197213E+005  0.1043930E+01  0.7957747E-01            NaN
         13   -1    0    0    0    0  0.00000000000E+00  0.00000000000E+00  0.74505805969E-08  0.10566000000E+00  0.10566000000E+00 0.  1.
     999900   -1    0    0    0    0 -0.00000000000E+00 -0.00000000000E+00 -0.74505805969E-08  0.93827000000E+00  0.93827000000E+00 0. -1.
     999902    2    1    2    0    0 -0.33811082056E-02 -0.22000262434E-01 -0.72202652578E-02  0.10205296652E+01  0.10202613498E+01 0.  0.
     999903    2    3    3    0    0  0.86714381433E-01  0.70393900495E-01  0.60258673120E-01  0.12856145625E+00  0.20548848450E-01 0.  0.
         14    1    1    2    0    0  0.33811082056E-02  0.22000262434E-01  0.72202652578E-02  0.23400334832E-01  0.00000000000E+00 0. -1.
     999901    1    3    3    0    0 -0.90095489638E-01 -0.92394162929E-01 -0.67478938378E-01  0.89196820892E+00  0.88000000000E+00 0. -1.
        -11    1    4    4    0    0  0.28990488034E-01  0.17560860404E-01  0.92031972731E-02  0.35125377942E-01  0.51100000000E-03 0. -1.
         11    1    4    4    0    0  0.57723893399E-01  0.52833040091E-01  0.51055475847E-01  0.93436078307E-01  0.51100000000E-03 0.  1.
</event>
<event>
 8    1  0.1197213E+005  0.1043930E+01  0.7957747E-01            NaN
         13   -1    0    0    0    0  0.00000000000E+00  0.00000000000E+00  0.74505805969E-08  0.10566000000E+00  0.10566000000E+00 0. -1.
     999900   -1    0    0    0    0 -0.00000000000E+00 -0.00000000000E+00 -0.74505805969E-08  0.93827000000E+00  0.93827000000E+00 0.  1.
     999902    2    1    2    0    0  0.44115601350E-02  0.13330999910E-01 -0.17203226426E-01  0.10217235050E+01  0.10214821546E+01 0.  0.
     999903    2    3    3    0    0 -0.44595387460E-01 -0.12032166717E+00  0.54401189319E-02  0.12999628356E+00  0.20084488364E-01 0.  0.
         14    1    1    2    0    0 -0.44115601350E-02 -0.13330999910E-01  0.17203226426E-01  0.22206495016E-01  0.00000000000E+00 0. -1.
     999901    1    3    3    0    0  0.49006947595E-01  0.13365266708E+00 -0.22643345358E-01  0.89172722142E+00  0.88000000000E+00 0.  1.
        -11    1    4    4    0    0 -0.21337465443E-01 -0.50780146201E-01  0.11995623245E-01  0.56374345032E-01  0.51100000000E-03 0. -1.
         11    1    4    4    0    0 -0.23257922017E-01 -0.69541520971E-01 -0.65555043135E-02  0.73621938533E-01  0.51100000000E-03 0.  1.
</event>
<event>
 8    1  0.1197213E+005  0.1043930E+01  0.7957747E-01            NaN
         13   -1    0    0    0    0  0.00000000000E+00  0.00000000000E+00  0.74505805969E-08  0.10566000000E+00  0.10566000000E+00 0.  1.
     999900   -1    0    0    0    0 -0.00000000000E+00 -0.00000000000E+00 -0.74505805969E-08  0.93827000000E+00  0.93827000000E+00 0. -1.
     999902    2    1    2    0    0 -0.11592190285E-01 -0.10066631828E-01 -0.17556171778E-01  0.10206075833E+01  0.10203410724E+01 0.  0.
     999903    2    3    3    0    0 -0.14708294237E-02 -0.94894937580E-01  0.87025552036E-01  0.13030672387E+00  0.19979566057E-01 0.  0.
         14    1    1    2    0    0  0.11592190285E-01  0.10066631828E-01  0.17556171778E-01  0.23322416673E-01  0.00000000000E+00 0. -1.
     999901    1    3    3    0    0 -0.10121360862E-01  0.84828305751E-01 -0.10458172381E+00  0.89030085946E+00  0.88000000000E+00 0.  1.
        -11    1    4    4    0    0 -0.55405246843E-03 -0.58179115160E-01  0.39869169865E-01  0.70533171215E-01  0.51100000000E-03 0. -1.
         11    1    4    4    0    0 -0.91677695529E-03 -0.36715822420E-01  0.47156382171E-01  0.59773552650E-01  0.51100000000E-03 0.  1.
</event>
<event>
 7    1  0.1197213E+005  0.1043930E+01  0.7957747E-01            NaN
         13   -1    0    0    0    0  0.00000000000E+00  0.00000000000E+00  0.74505805969E-08  0.10566000000E+00  0.10566000000E+00 0. -1.
     999900   -1    0    0    0    0 -0.00000000000E+00 -0.00000000000E+00 -0.74505805969E-08  0.93827000000E+00  0.93827000000E+00 0. -1.
     999902    2    1    2    0    0 -0.75117623772E-03 -0.20078856826E-01  0.97449467478E-02  0.10215986600E+01  0.10213545582E+01 0.  0.
         14    1    1    2    0    0  0.75117623772E-03  0.20078856826E-01 -0.97449467478E-02  0.22331339957E-01  0.00000000000E+00 0.  1.
     999901    1    3    3    0    0  0.91734907399E-01 -0.58359666606E-01 -0.67660447506E-01  0.88926884578E+00  0.88000000000E+00 0.  1.
        -11    1    3    3    0    0 -0.81826130800E-01  0.46039276390E-01  0.70679329179E-01  0.11752003806E+00  0.51100000000E-03 0.  1.
         11    1    3    3    0    0 -0.10659952837E-01 -0.77584666100E-02  0.67260650750E-02  0.14809776197E-01  0.51100000000E-03 0. -1.
</event>
<event>
 8    1  0.1197213E+005  0.1043930E+01  0.7957747E-01            NaN
         13   -1    0    0    0    0  0.00000000000E+00  0.00000000000E+00  0.74505805969E-08  0.10566000000E+00  0.10566000000E+00 0.  1.
     999900   -1    0    0    0    0 -0.00000000000E+00 -0.00000000000E+00 -0.74505805969E-08  0.93827000000E+00  0.93827000000E+00 0. -1.
     999902    2    1    2    0    0  0.12166401852E-02 -0.19915045862E-01 -0.16351350672E-01  0.10181335674E+01  0.10178067131E+01 0.  0.
     999903    2    3    3    0    0  0.10895445954E+00  0.50495085483E-01 -0.40714363987E-01  0.12843778754E+00  0.20439616504E-01 0.  0.
         14    1    1    2    0    0 -0.12166401852E-02  0.19915045862E-01  0.16351350672E-01  0.25796432579E-01  0.00000000000E+00 0.  1.
     999901    1    3    3    0    0 -0.10773781935E+00 -0.70410131346E-01  0.24363013315E-01  0.88969577988E+00  0.88000000000E+00 0. -1.
        -11    1    4    4    0    0  0.99655316407E-01  0.51952726366E-01 -0.37385252718E-01  0.11844064381E+00  0.51100000000E-03 0.  1.
         11    1    4    4    0    0  0.92991431307E-02 -0.14576408826E-02 -0.33291112691E-02  0.99971437296E-02  0.51100000000E-03 0. -1.
</event>
<event>
 8    1  0.1197213E+005  0.1043930E+01  0.7957747E-01            NaN
         13   -1    0    0    0    0  0.00000000000E+00  0.00000000000E+00  0.74505805969E-08  0.10566000000E+00  0.10566000000E+00 0.  1.
     999900   -1    0    0    0    0 -0.00000000000E+00 -0.00000000000E+00 -0.74505805969E-08  0.93827000000E+00  0.93827000000E+00 0.  1.
     999902    2    1    2    0    0  0.15388257615E-01  0.12650792273E-01 -0.12419852092E-01  0.10204546141E+01  0.10201845547E+01 0.  0.
     999903    2    3    3    0    0  0.56501675498E-01 -0.87630759729E-01  0.74177839349E-01  0.12958657506E+00  0.20463118061E-01 0.  0.
         14    1    1    2    0    0 -0.15388257615E-01 -0.12650792273E-01  0.12419852092E-01  0.23475385909E-01  0.00000000000E+00 0.  1.
     999901    1    3    3    0    0 -0.41113417883E-01  0.10028155200E+00 -0.86597691442E-01  0.89086803903E+00  0.88000000000E+00 0.  1.
        -11    1    4    4    0    0  0.32112933624E-01 -0.66015289842E-01  0.55402266978E-01  0.91972448626E-01  0.51100000000E-03 0. -1.
         11    1    4    4    0    0  0.24388741874E-01 -0.21615469886E-01  0.18775572371E-01  0.37614126435E-01  0.51100000000E-03 0.  1.
</event>
<event>
 8    1  0.1197213E+005  0.1043930E+01  0.7957747E-01            NaN
         13   -1    0    0    0    0  0.00000000000E+00  0.00000000000E+00  0.74505805969E-08  0.10566000000E+00  0.10566000000E+00 0. -1.
     999900   -1    0    0    0    0 -0.00000000000E+00 -0.00000000000E+00 -0.74505805969E-08  0.93827000000E+00  0.93827000000E+00 0. -1.
     999902    2    1    2    0    0  0.13079248985E-02 -0.20615183028E-01 -0.11709740384E-01  0.10201852225E+01  0.10199088556E+01 0.  0.
     999903    2    3    3    0    0 -0.12129316323E+00 -0.30519628405E-02 -0.45647780897E-01  0.13086453562E+00  0.17901420596E-01 0.  0.
         14    1    1    2    0    0 -0.13079248985E-02  0.20615183028E-01  0.11709740384E-01  0.23744777503E-01  0.00000000000E+00 0. -1.
     999901    1    3    3    0    0  0.12260108813E+00 -0.17563220188E-01  0.33938040513E-01  0.88932068688E+00  0.88000000000E+00 0. -1.
        -11    1    4    4    0    0 -0.11727731159E+00 -0.61716860491E-02 -0.44737558460E-01  0.12567325802E+00  0.51100000000E-03 0. -1.
         11    1    4    4    0    0 -0.40158516365E-02  0.31197232085E-02 -0.91022243616E-03  0.51912776026E-02  0.51100000000E-03 0.  1.
</event>
<event>
 8    1  0.1197213E+005  0.1043930E+01  0.7957747E-01            NaN
         13   -1    0    0    0    0  0.00000000000E+00  0.00000000000E+00  0.74505805969E-08  0.10566000000E+00  0.10566000000E+00 0. -1.
     999900   -1    0    0    0    0 -0.00000000000E+00 -0.00000000000E+00 -0.74505805969E-08  0.93827000000E+00  0.93827000000E+00 0.  1.
     999902    2    1    2    0    0  0.13298785124E-01  0.16355702429E-01 -0.12379604560E-01  0.10194837059E+01  0.10191905637E+01 0.  0.
     999903    2    3    3    0    0  0.12061498372E+00 -0.39417149233E-01  0.23579286700E-01  0.13048403246E+00  0.19194114008E-01 0.  0.
         14    1    1    2    0    0 -0.13298785124E-01 -0.16355702429E-01  0.12379604560E-01  0.24446294131E-01  0.00000000000E+00 0. -1.
     999901    1    3    3    0    0 -0.10731619860E+00  0.55772851661E-01 -0.35958891260E-01  0.88899967341E+00  0.88000000000E+00 0.  1.
        -11    1    4    4    0    0  0.65097405549E-01 -0.14393863065E-01  0.19425744718E-01  0.69444050731E-01  0.51100000000E-03 0.  1.
         11    1    4    4    0    0  0.55517578176E-01 -0.25023286168E-01  0.41535419824E-02  0.61039981726E-01  0.51100000000E-03 0. -1.
</event>
<event>
 8    1  0.1197213E+005  0.1043930E+01  0.7957747E-01            NaN
         13   -1    0    0    0    0  0.00000000000E+00  0.00000000000E+00  0.74505805969E-08  0.10566000000E+00  0.10566000000E+00 0.  1.
     999900   -1    0    0    0    0 -0.00000000000E+00 -0.00000000000E+00 -0.74505805969E-08  0.93827000000E+00  0.93827000000E+00 0. -1.
     999902    2    1    2    0    0 -0.21969796670E-01  0.50961642285E-03 -0.96667261493E-02  0.10199221415E+01  0.10196395429E+01 0.  0.
     999903    2    3    3    0    0 -0.67447359309E-03 -0.11229547611E+00 -0.64034283141E-01  0.13080217720E+00  0.19952224792E-01 0.  0.
         14    1    1    2    0    0  0.21969796670E-01 -0.50961642285E-03  0.96667261493E-02  0.24007858485E-01  0.00000000000E+00 0.  1.
     999901    1    3    3    0    0 -0.21295323076E-01  0.11280509253E+00  0.54367556992E-01  0.88911996431E+00  0.88000000000E+00 0.  1.
        -11    1    4    4    0    0  0.92357256561E-02 -0.59170374805E-01 -0.36691755711E-01  0.70235161715E-01  0.51100000000E-03 0. -1.
         11    1    4    4    0    0 -0.99101992492E-02 -0.53125101305E-01 -0.27342527430E-01  0.60567015488E-01  0.51100000000E-03 0.  1.
</event>
<event>
 8    1  0.1197213E+005  0.1043930E+01  0.7957747E-01            NaN
         13   -1    0    0    0    0  0.00000000000E+00  0.00000000000E+00  0.74505805969E-08  0.10566000000E+00  0.10566000000E+00 0. -1.
     999900   -1    0    0    0    0 -0.00000000000E+00 -0.00000000000E+00 -0.74505805969E-08  0.93827000000E+00  0.93827000000E+00 0. -1.
     999902    2    1    2    0    0  0.52920748495E-02 -0.20926522244E-01 -0.88720922287E-02  0.10205924892E+01  0.10203256292E+01 0.  0.
     999903    2    3    3    0    0  0.72510776141E-01 -0.26854468189E-01  0.10370080000E+00  0.13085873667E+00  0.19778218433E-01 0.  0.
         14    1    1    2    0    0 -0.52920748495E-02  0.20926522244E-01  0.88720922287E-02  0.23337510791E-01  0.00000000000E+00 0.  1.
     999901    1    3    3    0    0 -0.67218701291E-01  0.59279459455E-02 -0.11257289222E+00  0.88973375254E+00  0.88000000000E+00 0. -1.
        -11    1    4    4    0    0  0.10834058638E-01  0.19707596646E-02  0.90333040711E-02  0.14252102430E-01  0.51100000000E-03 0. -1.
         11    1    4    4    0    0  0.61676717502E-01 -0.28825227854E-01  0.94667495924E-01  0.11660663424E+00  0.51100000000E-03 0.  1.
</event>
<event>
 8    1  0.1197213E+005  0.1043930E+01  0.7957747E-01            NaN
         13   -1    0    0    0    0  0.00000000000E+00  0.00000000000E+00  0.74505805969E-08  0.10566000000E+00  0.10566000000E+00 0. -1.
     999900   -1    0    0    0    0 -0.00000000000E+00 -0.00000000000E+00 -0.74505805969E-08  0.93827000000E+00  0.93827000000E+00 0.  1.
     999902    2    1    2    0    0  0.10641288179E-01 -0.13765061134E-01 -0.12247052056E-01  0.10226531533E+01  0.10224317912E+01 0.  0.
     999903    2    3    3    0    0  0.11357179166E+00 -0.57901314277E-01  0.35920009726E-01  0.13424853644E+00  0.21938741559E-01 0.  0.
         14    1    1    2    0    0 -0.10641288179E-01  0.13765061134E-01  0.12247052056E-01  0.21276846716E-01  0.00000000000E+00 0. -1.
     999901    1    3    3    0    0 -0.10293050348E+00  0.44136253143E-01 -0.48167061783E-01  0.88840461684E+00  0.88000000000E+00 0.  1.
        -11    1    4    4    0    0  0.22921608846E-01 -0.16236959631E-01 -0.33763155694E-03  0.28096514485E-01  0.51100000000E-03 0.  1.
         11    1    4    4    0    0  0.90650182816E-01 -0.41664354646E-01  0.36257641283E-01  0.10615202196E+00  0.51100000000E-03 0. -1.
</event>
<event>
 8    1  0.1197213E+005  0.1043930E+01  0.7957747E-01            NaN
         13   -1    0    0    0    0  0.00000000000E+00  0.00000000000E+00  0.74505805969E-08  0.10566000000E+00  0.10566000000E+00 0.  1.
     999900   -1    0    0    0    0 -0.00000000000E+00 -0.00000000000E+00 -0.74505805969E-08  0.93827000000E+00  0.93827000000E+00 0.  1.
     999902    2    1    2    0    0  0.22315495963E-01 -0.58368573263E-02  0.13600395397E-02  0.10208237244E+01  0.10205621864E+01 0.  0.
     999903    2    3    3    0    0 -0.39692822565E-01 -0.33386752273E-01 -0.11851495949E+00  0.13010825713E+00  0.13862451444E-01 0.  0.
         14    1    1    2    0    0 -0.22315495963E-01  0.58368573263E-02 -0.13600395397E-02  0.23106275577E-01  0.00000000000E+00 0.  1.
     999901    1    3    3    0    0  0.62008318528E-01  0.27549894946E-01  0.11987499903E+00  0.89071546729E+00  0.88000000000E+00 0. -1.
        -11    1    4    4    0    0 -0.37220605859E-01 -0.25568444133E-01 -0.94712141952E-01  0.10492745013E+00  0.51100000000E-03 0.  1.
         11    1    4    4    0    0 -0.24722167058E-02 -0.78183081396E-02 -0.23802817540E-01  0.25180807006E-01  0.51100000000E-03 0. -1.
</event>
<event>
 8    1  0.1197213E+005  0.1043930E+01  0.7957747E-01            NaN
         13   -1    0    0    0    0  0.00000000000E+00  0.00000000000E+00  0.74505805969E-08  0.10566000000E+00  0.10566000000E+00 0. -1.
     999900   -1    0    0    0    0 -0.00000000000E+00 -0.00000000000E+00 -0.74505805969E-08  0.93827000000E+00  0.93827000000E+00 0.  1.
     999902    2    1    2    0    0  0.15039361102E-01  0.16878869810E-01  0.10243655177E-01  0.10191104291E+01  0.10188081545E+01 0.  0.
     999903    2    3    3    0    0 -0.68719808274E-01  0.92048605101E-01 -0.56064474351E-01  0.12946844740E+00  0.20579014492E-01 0.  0.
         14    1    1    2    0    0 -0.15039361102E-01 -0.16878869810E-01 -0.10243655177E-01  0.24819570903E-01  0.00000000000E+00 0.  1.
     999901    1    3    3    0    0  0.83759169376E-01 -0.75169735291E-01  0.66308129528E-01  0.88964198170E+00  0.88000000000E+00 0. -1.
        -11    1    4    4    0    0 -0.27594679809E-01  0.43720823977E-01 -0.14827267138E-01  0.53787412791E-01  0.51100000000E-03 0.  1.
         11    1    4    4    0    0 -0.41125128465E-01  0.48327781124E-01 -0.41237207213E-01  0.75681034608E-01  0.51100000000E-03 0. -1.
</event>
<event>
 8    1  0.1197213E+005  0.1043930E+01  0.7957747E-01            NaN
         13   -1    0    0    0    0  0.00000000000E+00  0.00000000000E+00  0.74505805969E-08  0.10566000000E+00  0.10566000000E+00 0. -1.
     999900   -1    0    0    0    0 -0.00000000000E+00 -0.00000000000E+00 -0.74505805969E-08  0.93827000000E+00  0.93827000000E+00 0.  1.
     999902    2    1    2    0    0  0.18762966800E-01 -0.13305272054E-01 -0.45116666508E-02  0.10204899846E+01  0.10202207478E+01 0.  0.
     999903    2    3    3    0    0  0.66717196315E-01  0.13547037844E-01  0.11035200427E+00  0.13132502936E+00  0.20832473937E-01 0.  0.
         14    1    1    2    0    0 -0.18762966800E-01  0.13305272054E-01  0.45116666508E-02  0.23440015434E-01  0.00000000000E+00 0. -1.
     999901    1    3    3    0    0 -0.47954229515E-01 -0.26852309898E-01 -0.11486367092E+00  0.88916495521E+00  0.88000000000E+00 0.  1.
        -11    1    4    4    0    0  0.18345296835E-01  0.12639751378E-01  0.27674470297E-01  0.35530981665E-01  0.51100000000E-03 0. -1.
         11    1    4    4    0    0  0.48371899480E-01  0.90728646563E-03  0.82677533974E-01  0.95794047691E-01  0.51100000000E-03 0.  1.
</event>
<event>
 8    1  0.1197213E+005  0.1043930E+01  0.7957747E-01            NaN
         13   -1    0    0    0    0  0.00000000000E+00  0.00000000000E+00  0.74505805969E-08  0.10566000000E+00  0.10566000000E+00 0. -1.
     999900   -1    0    0    0    0 -0.00000000000E+00 -0.00000000000E+00 -0.74505805969E-08  0.93827000000E+00  0.93827000000E+00 0.  1.
     999902    2    1    2    0    0 -0.14594218105E-01  0.15508143456E-01 -0.10077999360E-01  0.10203702932E+01  0.10200982675E+01 0.  0.
     999903    2    3    3    0    0 -0.22244931912E-01 -0.12324024913E+00 -0.25103276754E-01  0.12933976123E+00  0.20386351503E-01 0.  0.
         14    1    1    2    0    0  0.14594218105E-01 -0.15508143456E-01  0.10077999360E-01  0.23559706845E-01  0.00000000000E+00 0. -1.
     999901    1    3    3    0    0  0.76507138075E-02  0.13874839259E+00  0.15025277395E-01  0.89103053193E+00  0.88000000000E+00 0. -1.
        -11    1    4    4    0    0 -0.12492048366E-01 -0.29983493138E-01 -0.12145523288E-01  0.34681925986E-01  0.51100000000E-03 0.  1.
         11    1    4    4    0    0 -0.97528835467E-02 -0.93256755996E-01 -0.12957753466E-01  0.94657835240E-01  0.51100000000E-03 0. -1.
</event>
<event>
 8    1  0.1197213E+005  0.1043930E+01  0.7957747E-01            NaN
         13   -1    0    0    0    0  0.00000000000E+00  0.00000000000E+00  0.74505805969E-08  0.10566000000E+00  0.10566000000E+00 0. -1.
     999900   -1    0    0    0    0 -0.00000000000E+00 -0.00000000000E+00 -0.74505805969E-08  0.93827000000E+00  0.93827000000E+00 0. -1.
     999902    2    1    2    0    0  0.12879396821E-01 -0.16305230146E-01 -0.10173972531E-01  0.10207945486E+01  0.10205323422E+01 0.  0.
     999903    2    3    3    0    0  0.84239605748E-01 -0.76236607397E-02 -0.10090842544E+00  0.13321334671E+00  0.20220139440E-01 0.  0.
         14    1    1    2    0    0 -0.12879396821E-01  0.16305230146E-01  0.10173972531E-01  0.23135451361E-01  0.00000000000E+00 0.  1.
     999901    1    3    3    0    0 -0.71360208928E-01 -0.86815694068E-02  0.90734452906E-01  0.88758120192E+00  0.88000000000E+00 0.  1.
        -11    1    4    4    0    0  0.62169341647E-01 -0.99697261616E-02 -0.61702965320E-01  0.88158604406E-01  0.51100000000E-03 0. -1.
         11    1    4    4    0    0  0.22070264101E-01  0.23460654219E-02 -0.39205460118E-01  0.45054742309E-01  0.51100000000E-03 0.  1.
</event>
<event>
 8    1  0.1197213E+005  0.1043930E+01  0.7957747E-01            NaN
         13   -1    0    0    0    0  0.00000000000E+00  0.00000000000E+00  0.74505805969E-08  0.10566000000E+00  0.10566000000E+00 0.  1.
     999900   -1    0    0    0    0 -0.00000000000E+00 -0.00000000000E+00 -0.74505805969E-08  0.93827000000E+00  0.93827000000E+00 0. -1.
     999902    2    1    2    0    0 -0.14463999006E-01 -0.17182401745E-01  0.91213736637E-02  0.10196886788E+01  0.10194004905E+01 0.  0.
     999903    2    3    3    0    0  0.77994024675E-01  0.51281137149E-01 -0.84060117263E-01  0.12732186376E+00  0.20782944076E-01 0.  0.
         14    1    1    2    0    0  0.14463999006E-01  0.17182401745E-01 -0.91213736637E-02  0.24241321220E-01  0.00000000000E+00 0.  1.
     999901    1    3    3    0    0 -0.92458023681E-01 -0.68463538893E-01  0.93181490927E-01  0.89236681502E+00  0.88000000000E+00 0.  1.
        -11    1    4    4    0    0  0.47150153936E-01  0.35324309056E-01 -0.39970031874E-01  0.71195564437E-01  0.51100000000E-03 0.  1.
         11    1    4    4    0    0  0.30843870739E-01  0.15956828093E-01 -0.44090085389E-01  0.56126299322E-01  0.51100000000E-03 0. -1.
</event>
<event>
 8    1  0.1197213E+005  0.1043930E+01  0.7957747E-01            NaN
         13   -1    0    0    0    0  0.00000000000E+00  0.00000000000E+00  0.74505805969E-08  0.10566000000E+00  0.10566000000E+00 0. -1.
     999900   -1    0    0    0    0 -0.00000000000E+00 -0.00000000000E+00 -0.74505805969E-08  0.93827000000E+00  0.93827000000E+00 0.  1.
     999902    2    1    2    0    0 -0.12879724490E-02 -0.22717049484E-01 -0.39556996116E-02  0.10208351787E+01  0.10205739029E+01 0.  0.
     999903    2    3    3    0    0  0.27615964795E-01 -0.90372189700E-01 -0.92093007941E-01  0.13337766385E+00  0.19460342245E-01 0.  0.
         14    1    1    2    0    0  0.12879724490E-02  0.22717049484E-01  0.39556996116E-02  0.23094821275E-01  0.00000000000E+00 0. -1.
     999901    1    3    3    0    0 -0.28903937244E-01  0.67655140215E-01  0.88137308329E-01  0.88745751487E+00  0.88000000000E+00 0. -1.
        -11    1    4    4    0    0  0.90080452524E-02 -0.38406525801E-01 -0.51424693278E-01  0.64814861746E-01  0.51100000000E-03 0. -1.
         11    1    4    4    0    0  0.18607919542E-01 -0.51965663898E-01 -0.40668314663E-01  0.68562802106E-01  0.51100000000E-03 0.  1.
</event>
<event>
 8    1  0.1197213E+005  0.1043930E+01  0.7957747E-01            NaN
         13   -1    0    0    0    0  0.00000000000E+00  0.00000000000E+00  0.74505805969E-08  0.10566000000E+00  0.10566000000E+00 0.  1.
     999900   -1    0    0    0    0 -0.00000000000E+00 -0.00000000000E+00 -0.74505805969E-08  0.93827000000E+00  0.93827000000E+00 0.  1.
     999902    2    1    2    0    0  0.10038072087E-01  0.35919184607E-02  0.21522991673E-01  0.10199111753E+01  0.10196283154E+01 0.  0.
     999903    2    3    3    0    0  0.96239137463E-01  0.50310309530E-01  0.74005952630E-01  0.13291191209E+00  0.19889608524E-01 0.  0.
         14    1    1    2    0    0 -0.10038072087E-01 -0.35919184607E-02 -0.21522991673E-01  0.24018824701E-01  0.00000000000E+00 0. -1.
     999901    1    3    3    0    0 -0.86201065376E-01 -0.46718391069E-01 -0.52482960956E-01  0.88699926321E+00  0.88000000000E+00 0.  1.
        -11    1    4    4    0    0  0.26275555186E-01  0.14473285734E-01  0.10273075591E-01  0.31712426640E-01  0.51100000000E-03 0. -1.
         11    1    4    4    0    0  0.69963582276E-01  0.35837023796E-01  0.63732877039E-01  0.10119948545E+00  0.51100000000E-03 0.  1.
</event>
<event>
 7    1  0.1197213E+005  0.1043930E+01  0.7957747E-01            NaN
         13   -1    0    0    0    0  0.00000000000E+00  0.00000000000E+00  0.74505805969E-08  0.10566000000E+00  0.10566000000E+00 0. -1.
     999900   -1    0    0    0    0 -0.00000000000E+00 -0.00000000000E+00 -0.74505805969E-08  0.93827000000E+00  0.93827000000E+00 0. -1.
     999903    2    1    2    0    0 -0.35987493642E-01  0.74772340028E-01  0.64590155297E-01  0.10717761582E+00  0.20715951356E-01 0.  0.
         14    1    1    2    0    0  0.20852192935E-02 -0.16285344569E-01 -0.51509294280E-01  0.54062630203E-01  0.00000000000E+00 0.  1.
     999901    1    1    2    0    0  0.33902274349E-01 -0.58486995458E-01 -0.13080861017E-01  0.88268975397E+00  0.88000000000E+00 0.  1.
        -11    1    3    3    0    0 -0.63755253616E-02  0.36902750935E-01  0.28114769554E-01  0.46831204749E-01  0.51100000000E-03 0. -1.
         11    1    3    3    0    0 -0.29611968281E-01  0.37869589093E-01  0.36475385743E-01  0.60346411074E-01  0.51100000000E-03 0.  1.
</event>
<event>
 8    1  0.1197213E+005  0.1043930E+01  0.7957747E-01            NaN
         13   -1    0    0    0    0  0.00000000000E+00  0.00000000000E+00  0.74505805969E-08  0.10566000000E+00  0.10566000000E+00 0. -1.
     999900   -1    0    0    0    0 -0.00000000000E+00 -0.00000000000E+00 -0.74505805969E-08  0.93827000000E+00  0.93827000000E+00 0.  1.
     999902    2    1    2    0    0 -0.19741943804E-01 -0.12346603865E-01 -0.32422677678E-02  0.10204205280E+01  0.10201496747E+01 0.  0.
     999903    2    3    3    0    0 -0.12707154348E+00  0.29070134905E-01 -0.15422727132E-01  0.13284892370E+00  0.20462798178E-01 0.  0.
         14    1    1    2    0    0  0.19741943804E-01  0.12346603865E-01  0.32422677678E-02  0.23509471973E-01  0.00000000000E+00 0.  1.
     999901    1    3    3    0    0  0.10732959968E+00 -0.41416738770E-01  0.12180459364E-01  0.88757160433E+00  0.88000000000E+00 0. -1.
        -11    1    4    4    0    0 -0.48527275960E-01  0.68189710588E-02  0.32134216380E-02  0.49111934171E-01  0.51100000000E-03 0. -1.
         11    1    4    4    0    0 -0.78544267524E-01  0.22251163846E-01 -0.18636148770E-01  0.83736989529E-01  0.51100000000E-03 0.  1.
</event>
<event>
 8    1  0.1197213E+005  0.1043930E+01  0.7957747E-01            NaN
         13   -1    0    0    0    0  0.00000000000E+00  0.00000000000E+00  0.74505805969E-08  0.10566000000E+00  0.10566000000E+00 0. -1.
     999900   -1    0    0    0    0 -0.00000000000E+00 -0.00000000000E+00 -0.74505805969E-08  0.93827000000E+00  0.93827000000E+00 0. -1.
     999902    2    1    2    0    0  0.15763617592E-01 -0.88808132456E-02 -0.15480442269E-01  0.10201181421E+01  0.10198401930E+01 0.  0.
     999903    2    3    3    0    0  0.76255312869E-01 -0.81512685877E-01  0.65484715373E-01  0.13136058750E+00  0.22542522065E-01 0.  0.
         14    1    1    2    0    0 -0.15763617592E-01  0.88808132456E-02  0.15480442269E-01  0.23811857893E-01  0.00000000000E+00 0. -1.
     999901    1    3    3    0    0 -0.60491695277E-01  0.72631872632E-01 -0.80965157642E-01  0.88875755461E+00  0.88000000000E+00 0. -1.
        -11    1    4    4    0    0  0.35436205131E-01 -0.52701004256E-01  0.31163808291E-01  0.70742947012E-01  0.51100000000E-03 0. -1.
         11    1    4    4    0    0  0.40819107738E-01 -0.28811681621E-01  0.34320907082E-01  0.60617640488E-01  0.51100000000E-03 0.  1.
</event>
<event>
 8    1  0.1197213E+005  0.1043930E+01  0.7957747E-01            NaN
         13   -1    0    0    0    0  0.00000000000E+00  0.00000000000E+00  0.74505805969E-08  0.10566000000E+00  0.10566000000E+00 0. -1.
     999900   -1    0    0    0    0 -0.00000000000E+00 -0.00000000000E+00 -0.74505805969E-08  0.93827000000E+00  0.93827000000E+00 0.  1.
     999902    2    1    2    0    0 -0.21370188558E-02  0.16384436716E-02 -0.26095407864E-01  0.10176960209E+01  0.10173578374E+01 0.  0.
     999903    2    3    3    0    0  0.23772392564E-01  0.12212803099E+00  0.21195627461E-01  0.12785025884E+00  0.20397339524E-01 0.  0.
         14    1    1    2    0    0  0.21370188558E-02 -0.16384436716E-02  0.26095407864E-01  0.26233979089E-01  0.00000000000E+00 0. -1.
     999901    1    3    3    0    0 -0.25909411420E-01 -0.12048958732E+00 -0.47291035325E-01  0.88984576207E+00  0.88000000000E+00 0.  1.
        -11    1    4    4    0    0  0.19212411094E-01  0.10570142735E+00  0.11040077749E-01  0.10800024500E+00  0.51100000000E-03 0.  1.
         11    1    4    4    0    0  0.45599814698E-02  0.16426603647E-01  0.10155549712E-01  0.19850013837E-01  0.51100000000E-03 0. -1.
</event>
<event>
 8    1  0.1197213E+005  0.1043930E+01  0.7957747E-01            NaN
         13   -1    0    0    0    0  0.00000000000E+00  0.00000000000E+00  0.74505805969E-08  0.10566000000E+00  0.10566000000E+00 0. -1.
     999900   -1    0    0    0    0 -0.00000000000E+00 -0.00000000000E+00 -0.74505805969E-08  0.93827000000E+00  0.93827000000E+00 0.  1.
     999902    2    1    2    0    0 -0.46999551087E-02 -0.10085721626E-02 -0.23357495260E-01  0.10200830006E+01  0.10198042208E+01 0.  0.
     999903    2    3    3    0    0  0.66239030619E-01  0.99500328917E-01 -0.49951104042E-01  0.13112765924E+00  0.20283628647E-01 0.  0.
         14    1    1    2    0    0  0.46999551087E-02  0.10085721626E-02  0.23357495260E-01  0.23846999405E-01  0.00000000000E+00 0. -1.
     999901    1    3    3    0    0 -0.70938985728E-01 -0.10050890108E+00  0.26593608782E-01  0.88895534135E+00  0.88000000000E+00 0. -1.
        -11    1    4    4    0    0  0.10252698331E-01  0.24729732590E-01 -0.41567730538E-02  0.27096445897E-01  0.51100000000E-03 0. -1.
         11    1    4    4    0    0  0.55986332288E-01  0.74770596328E-01 -0.45794330988E-01  0.10403121334E+00  0.51100000000E-03 0.  1.
</event>
<event>
 8    1  0.1197213E+005  0.1043930E+01  0.7957747E-01            NaN
         13   -1    0    0    0    0  0.00000000000E+00  0.00000000000E+00  0.74505805969E-08  0.10566000000E+00  0.10566000000E+00 0. -1.
     999900   -1    0    0    0    0 -0.00000000000E+00 -0.00000000000E+00 -0.74505805969E-08  0.93827000000E+00  0.93827000000E+00 0. -1.
     999902    2    1    2    0    0  0.75085485686E-02 -0.16325379904E-01 -0.14087276503E-01  0.10210969606E+01  0.10208416406E+01 0.  0.
     999903    2    3    3    0    0  0.10876503105E+00  0.23198068306E-01 -0.69201422396E-01  0.13269809334E+00  0.21259462873E-01 0.  0.
         14    1    1    2    0    0 -0.75085485686E-02  0.16325379904E-01  0.14087276503E-01  0.22833039436E-01  0.00000000000E+00 0. -1.
     999901    1    3    3    0    0 -0.10125648249E+00 -0.39523448210E-01  0.55114145894E-01  0.88839886722E+00  0.88000000000E+00 0. -1.
        -11    1    4    4    0    0  0.86856784557E-01  0.98331018016E-02 -0.56248804760E-01  0.10394700608E+00  0.51100000000E-03 0. -1.
         11    1    4    4    0    0  0.21908246497E-01  0.13364966505E-01 -0.12952617636E-01  0.28751087264E-01  0.51100000000E-03 0.  1.
</event>
<event>
 8    1  0.1197213E+005  0.1043930E+01  0.7957747E-01            NaN
         13   -1    0    0    0    0  0.00000000000E+00  0.00000000000E+00  0.74505805969E-08  0.10566000000E+00  0.10566000000E+00 0. -1.
     999900   -1    0    0    0    0 -0.00000000000E+00 -0.00000000000E+00 -0.74505805969E-08  0.93827000000E+00  0.93827000000E+00 0.  1.
     999902    2    1    2    0    0 -0.56128144946E-02 -0.93196532089E-02  0.20994966327E-01  0.10202836846E+01  0.10200096317E+01 0.  0.
     999903    2    3    3    0    0 -0.50607835404E-01 -0.93094405699E-01  0.76142897731E-01  0.13344432177E+00  0.27962917626E-01 0.  0.
         14    1    1    2    0    0  0.56128144946E-02  0.93196532089E-02 -0.20994966327E-01  0.23646315433E-01  0.00000000000E+00 0.  1.
     999901    1    3    3    0    0  0.44995020910E-01  0.83774752490E-01 -0.55147931404E-01  0.88683936279E+00  0.88000000000E+00 0.  1.
        -11    1    4    4    0    0 -0.84272452485E-03 -0.23836965834E-01  0.21803241961E-01  0.32319554543E-01  0.51100000000E-03 0. -1.
         11    1    4    4    0    0 -0.49765110880E-01 -0.69257439864E-01  0.54339655769E-01  0.10112476723E+00  0.51100000000E-03 0.  1.
</event>
<event>
 8    1  0.1197213E+005  0.1043930E+01  0.7957747E-01            NaN
         13   -1    0    0    0    0  0.00000000000E+00  0.00000000000E+00  0.74505805969E-08  0.10566000000E+00  0.10566000000E+00 0.  1.
     999900   -1    0    0    0    0 -0.00000000000E+00 -0.00000000000E+00 -0.74505805969E-08  0.93827000000E+00  0.93827000000E+00 0. -1.
     999902    2    1    2    0    0 -0.89472333453E-02  0.20704048709E-01 -0.54503046500E-02  0.10207261978E+01  0.10204624218E+01 0.  0.
     999903    2    3    3    0    0  0.11293809975E+00  0.61029026011E-01 -0.24372673196E-01  0.13120936585E+00  0.11929547286E-01 0.  0.
         14    1    1    2    0    0  0.89472333453E-02 -0.20704048709E-01  0.54503046500E-02  0.23203802237E-01  0.00000000000E+00 0.  1.
     999901    1    3    3    0    0 -0.12188533309E+00 -0.40324977302E-01  0.18922368546E-01  0.88951683191E+00  0.88000000000E+00 0. -1.
        -11    1    4    4    0    0  0.78264363874E-01  0.44889413264E-01 -0.12064740611E-01  0.91028507418E-01  0.51100000000E-03 0. -1.
         11    1    4    4    0    0  0.34673735875E-01  0.16139612747E-01 -0.12307932585E-01  0.40180858436E-01  0.51100000000E-03 0.  1.
</event>
<event>
 8    1  0.1197213E+005  0.1043930E+01  0.7957747E-01            NaN
         13   -1    0    0    0    0  0.00000000000E+00  0.00000000000E+00  0.74505805969E-08  0.10566000000E+00  0.10566000000E+00 0.  1.
     999900   -1    0    0    0    0 -0.00000000000E+00 -0.00000000000E+00 -0.74505805969E-08  0.93827000000E+00  0.93827000000E+00 0. -1.
     999902    2    1    2    0    0  0.22700352127E-01 -0.46480508592E-02  0.26695383381E-02  0.10206054036E+01  0.10203388423E+01 0.  0.
     999903    2    3    3    0    0  0.22188834816E-01 -0.25281737591E-01 -0.12509894519E+00  0.13113882407E+00  0.20399373598E-01 0.  0.
         14    1    1    2    0    0 -0.22700352127E-01  0.46480508592E-02 -0.26695383381E-02  0.23324596426E-01  0.00000000000E+00 0.  1.
     999901    1    3    3    0    0  0.51151731098E-03  0.20633686732E-01  0.12776848353E+00  0.88946657951E+00  0.88000000000E+00 0.  1.
        -11    1    4    4    0    0  0.24893814935E-02 -0.11200506576E-01 -0.70217993763E-01  0.71151079660E-01  0.51100000000E-03 0. -1.
         11    1    4    4    0    0  0.19699453323E-01 -0.14081231015E-01 -0.54880951429E-01  0.59987744406E-01  0.51100000000E-03 0.  1.
</event>
<event>
 8    1  0.1197213E+005  0.1043930E+01  0.7957747E-01            NaN
         13   -1    0    0    0    0  0.00000000000E+00  0.00000000000E+00  0.74505805969E-08  0.10566000000E+00  0.10566000000E+00 0.  1.
     999900   -1    0    0    0    0 -0.00000000000E+00 -0.00000000000E+00 -0.74505805969E-08  0.93827000000E+00  0.93827000000E+00 0.  1.
     999902    2    1    2    0    0  0.75389562859E-02  0.23856899114E-02 -0.22273313688E-01  0.10202946900E+01  0.10200208951E+01 0.  0.
     999903    2    3    3    0    0 -0.24356226919E-02 -0.11932898570E+00  0.45390073972E-01  0.12928835523E+00  0.20245515489E-01 0.  0.
         14    1    1    2    0    0 -0.75389562859E-02 -0.23856899114E-02  0.22273313688E-01  0.23635310044E-01  0.00000000000E+00 0.  1.
     999901    1    3    3    0    0  0.99745789778E-02  0.12171467561E+00 -0.67663387660E-01  0.89100633472E+00  0.88000000000E+00 0.  1.
        -11    1    4    4    0    0 -0.93994097693E-03 -0.71612461180E-01  0.16538970928E-01  0.73505283931E-01  0.51100000000E-03 0. -1.
         11    1    4    4    0    0 -0.14956817149E-02 -0.47716524521E-01  0.28851103044E-01  0.55783071303E-01  0.51100000000E-03 0.  1.
</event>
<event>
 8    1  0.1197213E+005  0.1043930E+01  0.7957747E-01            NaN
         13   -1    0    0    0    0  0.00000000000E+00  0.00000000000E+00  0.74505805969E-08  0.10566000000E+00  0.10566000000E+00 0.  1.
     999900   -1    0    0    0    0 -0.00000000000E+00 -0.00000000000E+00 -0.74505805969E-08  0.93827000000E+00  0.93827000000E+00 0.  1.
     999902    2    1    2    0    0  0.10849381991E-01  0.23438936400E-02  0.18838986565E-01  0.10220642656E+01  0.10218303443E+01 0.  0.
     999903    2    3    3    0    0 -0.84254010964E-01 -0.98215441236E-01 -0.12307462367E-02  0.13102014245E+00  0.20487843504E-01 0.  0.
         14    1    1    2    0    0 -0.10849381991E-01 -0.23438936400E-02 -0.18838986565E-01  0.21865734421E-01  0.00000000000E+00 0. -1.
     999901    1    3    3    0    0  0.95103392955E-01  0.10055933488E+00  0.20069732801E-01  0.89104412313E+00  0.88000000000E+00 0. -1.
        -11    1    4    4    0    0 -0.27384092153E-01 -0.18425129484E-01  0.69216195614E-03  0.33016876120E-01  0.51100000000E-03 0.  1.
         11    1    4    4    0    0 -0.56869918811E-01 -0.79790311752E-01 -0.19229081928E-02  0.98003266333E-01  0.51100000000E-03 0. -1.
</event>
<event>
 8    1  0.1197213E+005  0.1043930E+01  0.7957747E-01            NaN
         13   -1    0    0    0    0  0.00000000000E+00  0.00000000000E+00  0.74505805969E-08  0.10566000000E+00  0.10566000000E+00 0. -1.
     999900   -1    0    0    0    0 -0.00000000000E+00 -0.00000000000E+00 -0.74505805969E-08  0.93827000000E+00  0.93827000000E+00 0. -1.
     999902    2    1    2    0    0 -0.16494243146E-01 -0.47362991014E-02 -0.15601263567E-01  0.10207375010E+01  0.10204739849E+01 0.  0.
     999903    2    3    3    0    0  0.11373953258E-01  0.12788539514E+00  0.82760697858E-02  0.13004379537E+00  0.18943449547E-01 0.  0.
         14    1    1    2    0    0  0.16494243146E-01  0.47362991014E-02  0.15601263567E-01  0.23192499025E-01  0.00000000000E+00 0.  1.
     999901    1    3    3    0    0 -0.27868196404E-01 -0.13262169424E+00 -0.23877333353E-01  0.89069370560E+00  0.88000000000E+00 0.  1.
        -11    1    4    4    0    0  0.10181314079E-01  0.77053841489E-01 -0.36678276656E-02  0.77811745420E-01  0.51100000000E-03 0. -1.
         11    1    4    4    0    0  0.11926391790E-02  0.50831553651E-01  0.11943897451E-01  0.52232049951E-01  0.51100000000E-03 0.  1.
</event>
<event>
 8    1  0.1197213E+005  0.1043930E+01  0.7957747E-01            NaN
         13   -1    0    0    0    0  0.00000000000E+00  0.00000000000E+00  0.74505805969E-08  0.10566000000E+00  0.10566000000E+00 0. -1.
     999900   -1    0    0    0    0 -0.00000000000E+00 -0.00000000000E+00 -0.74505805969E-08  0.93827000000E+00  0.93827000000E+00 0.  1.
     999902    2    1    2    0    0 -0.26247993476E-02 -0.16207354560E-01  0.19726597783E-01  0.10182647205E+01  0.10179412234E+01 0.  0.
     999903    2    3    3    0    0  0.90043103269E-01  0.57511839392E-01  0.69493007634E-01  0.12893994555E+00  0.19515617634E-01 0.  0.
         14    1    1    2    0    0  0.26247993476E-02  0.16207354560E-01 -0.19726597783E-01  0.25665279534E-01  0.00000000000E+00 0.  1.
     999901    1    3    3    0    0 -0.92667902616E-01 -0.73719193952E-01 -0.49766409851E-01  0.88932477492E+00  0.88000000000E+00 0.  1.
        -11    1    4    4    0    0  0.26706832424E-01  0.84513100400E-02  0.23447818376E-01  0.36534105259E-01  0.51100000000E-03 0. -1.
         11    1    4    4    0    0  0.63336270844E-01  0.49060529352E-01  0.46045189259E-01  0.92405840290E-01  0.51100000000E-03 0.  1.
</event>
<event>
 8    1  0.1197213E+005  0.1043930E+01  0.7957747E-01            NaN
         13   -1    0    0    0    0  0.00000000000E+00  0.00000000000E+00  0.74505805969E-08  0.10566000000E+00  0.10566000000E+00 0. -1.
     999900   -1    0    0    0    0 -0.00000000000E+00 -0.00000000000E+00 -0.74505805969E-08  0.93827000000E+00  0.93827000000E+00 0. -1.
     999902    2    1    2    0    0  0.16900865006E-01  0.10617393688E-01  0.12554449070E-01  0.10203507193E+01  0.10200782362E+01 0.  0.
     999903    2    3    3    0    0  0.22828187732E-01 -0.58475330000E-01  0.11408167106E+00  0.13180318854E+00  0.20419658790E-01 0.  0.
         14    1    1    2    0    0 -0.16900865006E-01 -0.10617393688E-01 -0.12554449070E-01  0.23579280696E-01  0.00000000000E+00 0.  1.
     999901    1    3    3    0    0 -0.59273227263E-02  0.69092723688E-01 -0.10152722198E+00  0.88854753076E+00  0.88000000000E+00 0. -1.
        -11    1    4    4    0    0  0.20569071030E-01 -0.46910583138E-01  0.73836392744E-01  0.89865251949E-01  0.51100000000E-03 0.  1.
         11    1    4    4    0    0  0.22591167022E-02 -0.11564746861E-01  0.40245278311E-01  0.41937936592E-01  0.51100000000E-03 0. -1.
</event>
<event>
 8    1  0.1197213E+005  0.1043930E+01  0.7957747E-01            NaN
         13   -1    0    0    0    0  0.00000000000E+00  0.00000000000E+00  0.74505805969E-08  0.10566000000E+00  0.10566000000E+00 0. -1.
     999900   -1    0    0    0    0 -0.00000000000E+00 -0.00000000000E+00 -0.74505805969E-08  0.93827000000E+00  0.93827000000E+00 0. -1.
     999902    2    1    2    0    0 -0.21482798334E-03  0.33960539970E-01  0.14142315242E-03  0.10099684861E+01  0.10093973244E+01 0.  0.
     999903    2    3    3    0    0 -0.32554946194E-01  0.11160514962E+00  0.41483766276E-01  0.12499178697E+00  0.19659857653E-01 0.  0.
         14    1    1    2    0    0  0.21482798334E-03 -0.33960539970E-01 -0.14142315242E-03  0.33961513903E-01  0.00000000000E+00 0. -1.
     999901    1    3    3    0    0  0.32340118211E-01 -0.77644609651E-01 -0.41342343124E-01  0.88497669912E+00  0.88000000000E+00 0.  1.
        -11    1    4    4    0    0 -0.14956500768E-01  0.23024292496E-01  0.12207671362E-01  0.30051677511E-01  0.51100000000E-03 0. -1.
         11    1    4    4    0    0 -0.17598445427E-01  0.88580857125E-01  0.29276094914E-01  0.94940109463E-01  0.51100000000E-03 0.  1.
</event>
<event>
 8    1  0.1197213E+005  0.1043930E+01  0.7957747E-01            NaN
         13   -1    0    0    0    0  0.00000000000E+00  0.00000000000E+00  0.74505805969E-08  0.10566000000E+00  0.10566000000E+00 0.  1.
     999900   -1    0    0    0    0 -0.00000000000E+00 -0.00000000000E+00 -0.74505805969E-08  0.93827000000E+00  0.93827000000E+00 0. -1.
     999902    2    1    2    0    0 -0.38459882706E-02  0.22393685528E-01  0.83170553995E-02  0.10197340874E+01  0.10194469907E+01 0.  0.
     999903    2    3    3    0    0  0.98052465431E-01 -0.51717539287E-03 -0.81433149613E-01  0.12902465006E+00  0.20036192764E-01 0.  0.
         14    1    1    2    0    0  0.38459882706E-02 -0.22393685528E-01 -0.83170553995E-02  0.24195912626E-01  0.00000000000E+00 0.  1.
     999901    1    3    3    0    0 -0.10189845370E+00  0.22910860921E-01  0.89750205013E-01  0.89070943731E+00  0.88000000000E+00 0. -1.
        -11    1    4    4    0    0  0.95109714569E-01  0.30780814913E-02 -0.75512615556E-01  0.12148147439E+00  0.51100000000E-03 0.  1.
         11    1    4    4    0    0  0.29427508617E-02 -0.35952568841E-02 -0.59205340570E-02  0.75431756719E-02  0.51100000000E-03 0. -1.
</event>
<event>
 8    1  0.1197213E+005  0.1043930E+01  0.7957747E-01            NaN
         13   -1    0    0    0    0  0.00000000000E+00  0.00000000000E+00  0.74505805969E-08  0.10566000000E+00  0.10566000000E+00 0. -1.
     999900   -1    0    0    0    0 -0.00000000000E+00 -0.00000000000E+00 -0.74505805969E-08  0.93827000000E+00  0.93827000000E+00 0.  1.
     999902    2    1    2    0    0 -0.89372465089E-02  0.76740797666E-03 -0.27495450362E-01  0.10150083285E+01  0.10145961975E+01 0.  0.
     999903    2    3    3    0    0  0.45349085001E-01 -0.90627856521E-01 -0.74428629353E-01  0.12736942478E+00  0.20332280062E-01 0.  0.
         14    1    1    2    0    0  0.89372465089E-02 -0.76740797666E-03  0.27495450362E-01  0.28921671472E-01  0.00000000000E+00 0. -1.
     999901    1    3    3    0    0 -0.54286331510E-01  0.91395264498E-01  0.46933178991E-01  0.88763890375E+00  0.88000000000E+00 0. -1.
        -11    1    4    4    0    0  0.14502075751E-01 -0.50882370922E-01 -0.34893821890E-01  0.63381115475E-01  0.51100000000E-03 0.  1.
         11    1    4    4    0    0  0.30847009250E-01 -0.39745485599E-01 -0.39534807463E-01  0.63988309302E-01  0.51100000000E-03 0. -1.
</event>
<event>
 8    1  0.1197213E+005  0.1043930E+01  0.7957747E-01            NaN
         13   -1    0    0    0    0  0.00000000000E+00  0.00000000000E+00  0.74505805969E-08  0.10566000000E+00  0.10566000000E+00 0.  1.
     999900   -1    0    0    0    0 -0.00000000000E+00 -0.00000000000E+00 -0.74505805969E-08  0.93827000000E+00  0.93827000000E+00 0. -1.
     999902    2    1    2    0    0  0.15123553066E-02  0.10068990619E-01 -0.21628083559E-01  0.10200250677E+01  0.10197449156E+01 0.  0.
     999903    2    3    3    0    0  0.70294181807E-01  0.11424619146E-01  0.10469916729E+00  0.12834611666E+00  0.20952711321E-01 0.  0.
         14    1    1    2    0    0 -0.15123553066E-02 -0.10068990619E-01  0.21628083559E-01  0.23904932317E-01  0.00000000000E+00 0.  1.
     999901    1    3    3    0    0 -0.68781826500E-01 -0.13556285271E-02 -0.12632725085E+00  0.89167895102E+00  0.88000000000E+00 0.  1.
        -11    1    4    4    0    0  0.20678632956E-01  0.10092441125E-01  0.46282820917E-01  0.51689688157E-01  0.51100000000E-03 0. -1.
         11    1    4    4    0    0  0.49615548851E-01  0.13321780216E-02  0.58416346376E-01  0.76656428505E-01  0.51100000000E-03 0.  1.
</event>
<event>
 8    1  0.1197213E+005  0.1043930E+01  0.7957747E-01            NaN
         13   -1    0    0    0    0  0.00000000000E+00  0.00000000000E+00  0.74505805969E-08  0.10566000000E+00  0.10566000000E+00 0.  1.
     999900   -1    0    0    0    0 -0.00000000000E+00 -0.00000000000E+00 -0.74505805969E-08  0.93827000000E+00  0.93827000000E+00 0.  1.
     999902    2    1    2    0    0 -0.42277470659E-03  0.23459419653E-01  0.53070142134E-02  0.10198740754E+01  0.10195903305E+01 0.  0.
     999903    2    3    3    0    0 -0.22061343307E-01  0.11544035117E+00  0.59561314817E-01  0.13315413733E+00  0.19217089235E-01 0.  0.
         14    1    1    2    0    0  0.42277470659E-03 -0.23459419653E-01 -0.53070142134E-02  0.24055924608E-01  0.00000000000E+00 0. -1.
     999901    1    3    3    0    0  0.21638568600E-01 -0.91980931522E-01 -0.54254300604E-01  0.88671993806E+00  0.88000000000E+00 0.  1.
        -11    1    4    4    0    0 -0.17018553060E-01  0.41518484959E-01  0.25386414136E-01  0.51557219526E-01  0.51100000000E-03 0.  1.
         11    1    4    4    0    0 -0.50427902472E-02  0.73921866216E-01  0.34174900681E-01  0.81596917809E-01  0.51100000000E-03 0. -1.
</event>
<event>
 8    1  0.1197213E+005  0.1043930E+01  0.7957747E-01            NaN
         13   -1    0    0    0    0  0.00000000000E+00  0.00000000000E+00  0.74505805969E-08  0.10566000000E+00  0.10566000000E+00 0.  1.
     999900   -1    0    0    0    0 -0.00000000000E+00 -0.00000000000E+00 -0.74505805969E-08  0.93827000000E+00  0.93827000000E+00 0.  1.
     999902    2    1    2    0    0 -0.13550166466E-01  0.10775830527E-01  0.11067584910E-01  0.10233820811E+01  0.10231757752E+01 0.  0.
     999903    2    3    3    0    0  0.73985467458E-01 -0.83984427442E-01  0.67515931517E-01  0.13218714759E+00  0.19692829476E-01 0.  0.
         14    1    1    2    0    0  0.13550166466E-01 -0.10775830527E-01 -0.11067584910E-01  0.20547918886E-01  0.00000000000E+00 0. -1.
     999901    1    3    3    0    0 -0.87535633924E-01  0.94760257969E-01 -0.56448346607E-01  0.89119493352E+00  0.88000000000E+00 0. -1.
        -11    1    4    4    0    0  0.48791577838E-01 -0.67818228992E-01  0.46589220044E-01  0.95659535838E-01  0.51100000000E-03 0.  1.
         11    1    4    4    0    0  0.25193889620E-01 -0.16166198450E-01  0.20926711473E-01  0.36527611756E-01  0.51100000000E-03 0. -1.
</event>
<event>
 8    1  0.1197213E+005  0.1043930E+01  0.7957747E-01            NaN
         13   -1    0    0    0    0  0.00000000000E+00  0.00000000000E+00  0.74505805969E-08  0.10566000000E+00  0.10566000000E+00 0. -1.
     999900   -1    0    0    0    0 -0.00000000000E+00 -0.00000000000E+00 -0.74505805969E-08  0.93827000000E+00  0.93827000000E+00 0.  1.
     999902    2    1    2    0    0 -0.10318916080E-01  0.70003298948E-02  0.19801698678E-01  0.10205293180E+01  0.10202609945E+01 0.  0.
     999903    2    3    3    0    0  0.22741850695E-01 -0.53215431105E-01  0.11734845523E+00  0.13247846253E+00  0.20755943952E-01 0.  0.
         14    1    1    2    0    0  0.10318916080E-01 -0.70003298948E-02 -0.19801698678E-01  0.23400682004E-01  0.00000000000E+00 0.  1.
     999901    1    3    3    0    0 -0.33060766775E-01  0.60215761000E-01 -0.97546756554E-01  0.88805085546E+00  0.88000000000E+00 0.  1.
        -11    1    4    4    0    0 -0.11859865557E-02 -0.61122107148E-02  0.27903924754E-01  0.28594681702E-01  0.51100000000E-03 0. -1.
         11    1    4    4    0    0  0.23927837251E-01 -0.47103220390E-01  0.89444530478E-01  0.10388378083E+00  0.51100000000E-03 0.  1.
</event>
<event>
 8    1  0.1197213E+005  0.1043930E+01  0.7957747E-01            NaN
         13   -1    0    0    0    0  0.00000000000E+00  0.00000000000E+00  0.74505805969E-08  0.10566000000E+00  0.10566000000E+00 0. -1.
     999900   -1    0    0    0    0 -0.00000000000E+00 -0.00000000000E+00 -0.74505805969E-08  0.93827000000E+00  0.93827000000E+00 0.  1.
     999902    2    1    2    0    0  0.14006192060E-01  0.17841287150E-01 -0.44825070367E-02  0.10208090612E+01  0.10205471873E+01 0.  0.
     999903    2    3    3    0    0  0.91300806963E-01  0.74074719152E-01 -0.60773520414E-01  0.13384494997E+00  0.19953658286E-01 0.  0.
         14    1    1    2    0    0 -0.14006192060E-01 -0.17841287150E-01  0.44825070367E-02  0.23120938833E-01  0.00000000000E+00 0. -1.
     999901    1    3    3    0    0 -0.77294614903E-01 -0.56233432002E-01  0.56291013378E-01  0.88696411120E+00  0.88000000000E+00 0.  1.
        -11    1    4    4    0    0  0.40068695885E-01  0.34156248988E-01 -0.16266760062E-01  0.55109149320E-01  0.51100000000E-03 0. -1.
         11    1    4    4    0    0  0.51232111078E-01  0.39918470164E-01 -0.44506760352E-01  0.78735800649E-01  0.51100000000E-03 0.  1.
</event>
<event>
 8    1  0.1197213E+005  0.1043930E+01  0.7957747E-01            NaN
         13   -1    0    0    0    0  0.00000000000E+00  0.00000000000E+00  0.74505805969E-08  0.10566000000E+00  0.10566000000E+00 0.  1.
     999900   -1    0    0    0    0 -0.00000000000E+00 -0.00000000000E+00 -0.74505805969E-08  0.93827000000E+00  0.93827000000E+00 0. -1.
     999902    2    1    2    0    0 -0.13407582678E-01  0.13973618246E-01 -0.14730324851E-01  0.10195987906E+01  0.10193084352E+01 0.  0.
     999903    2    3    3    0    0  0.48567897580E-01 -0.95884755770E-01  0.64731287905E-01  0.12706085282E+00  0.20039800919E-01 0.  0.
         14    1    1    2    0    0  0.13407582678E-01 -0.13973618246E-01  0.14730324851E-01  0.24331209390E-01  0.00000000000E+00 0.  1.
     999901    1    3    3    0    0 -0.61975480258E-01  0.10985837402E+00 -0.79461612756E-01  0.89253793779E+00  0.88000000000E+00 0. -1.
        -11    1    4    4    0    0  0.17031106133E-01 -0.17716894630E-01  0.19661488461E-01  0.31476692662E-01  0.51100000000E-03 0. -1.
         11    1    4    4    0    0  0.31536791447E-01 -0.78167861140E-01  0.45069799443E-01  0.95584160157E-01  0.51100000000E-03 0.  1.
</event>
<event>
 8    1  0.1197213E+005  0.1043930E+01  0.7957747E-01            NaN
         13   -1    0    0    0    0  0.00000000000E+00  0.00000000000E+00  0.74505805969E-08  0.10566000000E+00  0.10566000000E+00 0. -1.
     999900   -1    0    0    0    0 -0.00000000000E+00 -0.00000000000E+00 -0.74505805969E-08  0.93827000000E+00  0.93827000000E+00 0. -1.
     999902    2    1    2    0    0  0.20135077961E-01  0.37503198184E-02  0.12179931706E-01  0.10201006693E+01  0.10198223074E+01 0.  0.
     999903    2    3    3    0    0  0.60604448665E-01 -0.62035032773E-01  0.98003364033E-01  0.13255847648E+00  0.21115061794E-01 0.  0.
         14    1    1    2    0    0 -0.20135077961E-01 -0.37503198184E-02 -0.12179931706E-01  0.23829330658E-01  0.00000000000E+00 0.  1.
     999901    1    3    3    0    0 -0.40469370704E-01  0.65785352592E-01 -0.85823432327E-01  0.88754219287E+00  0.88000000000E+00 0. -1.
        -11    1    4    4    0    0  0.46175543246E-01 -0.55931274041E-01  0.72024005953E-01  0.10221647012E+00  0.51100000000E-03 0. -1.
         11    1    4    4    0    0  0.14428905420E-01 -0.61037587328E-02  0.25979358080E-01  0.30342006353E-01  0.51100000000E-03 0.  1.
</event>
<event>
 8    1  0.1197213E+005  0.1043930E+01  0.7957747E-01            NaN
         13   -1    0    0    0    0  0.00000000000E+00  0.00000000000E+00  0.74505805969E-08  0.10566000000E+00  0.10566000000E+00 0. -1.
     999900   -1    0    0    0    0 -0.00000000000E+00 -0.00000000000E+00 -0.74505805969E-08  0.93827000000E+00  0.93827000000E+00 0. -1.
     999902    2    1    2    0    0 -0.66673144114E-02 -0.22790908492E-01  0.29666076351E-02  0.10199992802E+01  0.10197185161E+01 0.  0.
     999903    2    3    3    0    0  0.40626299371E-01  0.47253317699E-01 -0.11083293411E+00  0.12865579124E+00  0.19621444945E-01 0.  0.
         14    1    1    2    0    0  0.66673144114E-02  0.22790908492E-01 -0.29666076351E-02  0.23930719843E-01  0.00000000000E+00 0.  1.
     999901    1    3    3    0    0 -0.47293613782E-01 -0.70044226190E-01  0.11379954175E+00  0.89134348891E+00  0.88000000000E+00 0.  1.
        -11    1    4    4    0    0  0.47263285879E-02  0.18324084801E-01 -0.26925680474E-01  0.32914490057E-01  0.51100000000E-03 0. -1.
         11    1    4    4    0    0  0.35899970783E-01  0.28929232898E-01 -0.83907253641E-01  0.95741301186E-01  0.51100000000E-03 0.  1.
</event>
<event>
 8    1  0.1197213E+005  0.1043930E+01  0.7957747E-01            NaN
         13   -1    0    0    0    0  0.00000000000E+00  0.00000000000E+00  0.74505805969E-08  0.10566000000E+00  0.10566000000E+00 0.  1.
     999900   -1    0    0    0    0 -0.00000000000E+00 -0.00000000000E+00 -0.74505805969E-08  0.93827000000E+00  0.93827000000E+00 0. -1.
     999902    2    1    2    0    0 -0.22793918682E-01 -0.16975731390E-02  0.53216247232E-02  0.10204616346E+01  0.10201917386E+01 0.  0.
     999903    2    3    3    0    0  0.45023096922E-01 -0.61732333147E-01  0.10372637554E+00  0.13035668857E+00  0.19893342098E-01 0.  0.
         14    1    1    2    0    0  0.22793918682E-01  0.16975731390E-02 -0.53216247232E-02  0.23468365370E-01  0.00000000000E+00 0.  1.
     999901    1    3    3    0    0 -0.67817015604E-01  0.60034760008E-01 -0.98404750820E-01  0.89010494606E+00  0.88000000000E+00 0. -1.
        -11    1    4    4    0    0  0.93818031909E-02 -0.22095113898E-01  0.20757645478E-01  0.31738828839E-01  0.51100000000E-03 0.  1.
         11    1    4    4    0    0  0.35641293731E-01 -0.39637219249E-01  0.82968730065E-01  0.98617859733E-01  0.51100000000E-03 0. -1.
</event>
<event>
 8    1  0.1197213E+005  0.1043930E+01  0.7957747E-01            NaN
         13   -1    0    0    0    0  0.00000000000E+00  0.00000000000E+00  0.74505805969E-08  0.10566000000E+00  0.10566000000E+00 0. -1.
     999900   -1    0    0    0    0 -0.00000000000E+00 -0.00000000000E+00 -0.74505805969E-08  0.93827000000E+00  0.93827000000E+00 0. -1.
     999902    2    1    2    0    0  0.21856930649E-01 -0.93939462114E-02 -0.11871346580E-02  0.10201102407E+01  0.10198321050E+01 0.  0.
     999903    2    3    3    0    0 -0.93244294494E-03 -0.12279558101E+00 -0.42749952478E-01  0.13156831480E+00  0.20075827667E-01 0.  0.
         14    1    1    2    0    0 -0.21856930649E-01  0.93939462114E-02  0.11871346580E-02  0.23819759266E-01  0.00000000000E+00 0.  1.
     999901    1    3    3    0    0  0.22789373594E-01  0.11340163480E+00  0.41562817820E-01  0.88854192594E+00  0.88000000000E+00 0.  1.
        -11    1    4    4    0    0  0.65080464295E-03 -0.91704364971E-01 -0.22503529717E-01  0.94428724825E-01  0.51100000000E-03 0. -1.
         11    1    4    4    0    0 -0.15832475879E-02 -0.31091216037E-01 -0.20246422761E-01  0.37139589971E-01  0.51100000000E-03 0.  1.
</event>
<event>
 8    1  0.1197213E+005  0.1043930E+01  0.7957747E-01            NaN
         13   -1    0    0    0    0  0.00000000000E+00  0.00000000000E+00  0.74505805969E-08  0.10566000000E+00  0.10566000000E+00 0. -1.
     999900   -1    0    0    0    0 -0.00000000000E+00 -0.00000000000E+00 -0.74505805969E-08  0.93827000000E+00  0.93827000000E+00 0.  1.
     999902    2    1    2    0    0 -0.93423062065E-02 -0.98967028158E-02 -0.19119010034E-01  0.10204617245E+01  0.10201918306E+01 0.  0.
     999903    2    3    3    0    0 -0.54293653886E-01  0.11441598960E+00  0.19479307233E-01  0.12975183946E+00  0.20427356775E-01 0.  0.
         14    1    1    2    0    0  0.93423062065E-02  0.98967028158E-02  0.19119010034E-01  0.23468275535E-01  0.00000000000E+00 0. -1.
     999901    1    3    3    0    0  0.44951347679E-01 -0.12431269241E+00 -0.38598317268E-01  0.89070988501E+00  0.88000000000E+00 0. -1.
        -11    1    4    4    0    0 -0.26510917480E-01  0.37604031570E-01  0.10983920012E-02  0.46025639832E-01  0.51100000000E-03 0. -1.
         11    1    4    4    0    0 -0.27782736406E-01  0.76811958027E-01  0.18380915232E-01  0.83726199627E-01  0.51100000000E-03 0.  1.
</event>
<event>
 8    1  0.1197213E+005  0.1043930E+01  0.7957747E-01            NaN
         13   -1    0    0    0    0  0.00000000000E+00  0.00000000000E+00  0.74505805969E-08  0.10566000000E+00  0.10566000000E+00 0.  1.
     999900   -1    0    0    0    0 -0.00000000000E+00 -0.00000000000E+00 -0.74505805969E-08  0.93827000000E+00  0.93827000000E+00 0.  1.
     999902    2    1    2    0    0 -0.35696020011E-02 -0.13091035691E-01 -0.21255052465E-01  0.10187130508E+01  0.10184008961E+01 0.  0.
     999903    2    3    3    0    0  0.90975473164E-01 -0.71586816570E-01  0.52752429185E-01  0.12863573110E+00  0.19055799837E-01 0.  0.
         14    1    1    2    0    0  0.35696020011E-02  0.13091035691E-01  0.21255052465E-01  0.25216949245E-01  0.00000000000E+00 0.  1.
     999901    1    3    3    0    0 -0.94545075166E-01  0.58495780879E-01 -0.74007481651E-01  0.89007731965E+00  0.88000000000E+00 0.  1.
        -11    1    4    4    0    0  0.37310368861E-01 -0.17818450091E-01  0.18168102557E-01  0.45165272719E-01  0.51100000000E-03 0. -1.
         11    1    4    4    0    0  0.53665104303E-01 -0.53768366478E-01  0.34584326628E-01  0.83470458385E-01  0.51100000000E-03 0.  1.
</event>
<event>
 8    1  0.1197213E+005  0.1043930E+01  0.7957747E-01            NaN
         13   -1    0    0    0    0  0.00000000000E+00  0.00000000000E+00  0.74505805969E-08  0.10566000000E+00  0.10566000000E+00 0. -1.
     999900   -1    0    0    0    0 -0.00000000000E+00 -0.00000000000E+00 -0.74505805969E-08  0.93827000000E+00  0.93827000000E+00 0.  1.
     999902    2    1    2    0    0 -0.22505533939E-01  0.18587579625E-02  0.67688069971E-02  0.10203552087E+01  0.10200828305E+01 0.  0.
     999903    2    3    3    0    0  0.26998246602E-02 -0.11490048834E-02  0.12985541080E+00  0.13142626392E+00  0.20045594719E-01 0.  0.
         14    1    1    2    0    0  0.22505533939E-01 -0.18587579625E-02 -0.67688069971E-02  0.23574791350E-01  0.00000000000E+00 0.  1.
     999901    1    3    3    0    0 -0.25205358599E-01  0.30077628458E-02 -0.12308660381E+00  0.88892894473E+00  0.88000000000E+00 0.  1.
        -11    1    4    4    0    0 -0.69359405536E-02 -0.50992749513E-02  0.37224888935E-01  0.38210775360E-01  0.51100000000E-03 0. -1.
         11    1    4    4    0    0  0.96357652139E-02  0.39502700679E-02  0.92630521870E-01  0.93215488562E-01  0.51100000000E-03 0.  1.
</event>
<event>
 8    1  0.1197213E+005  0.1043930E+01  0.7957747E-01            NaN
         13   -1    0    0    0    0  0.00000000000E+00  0.00000000000E+00  0.74505805969E-08  0.10566000000E+00  0.10566000000E+00 0. -1.
     999900   -1    0    0    0    0 -0.00000000000E+00 -0.00000000000E+00 -0.74505805969E-08  0.93827000000E+00  0.93827000000E+00 0.  1.
     999902    2    1    2    0    0 -0.11649791880E-01 -0.14281250742E-01 -0.30995110192E-01  0.10078693756E+01  0.10072240613E+01 0.  0.
     999903    2    3    3    0    0 -0.47469339107E-01 -0.58778694486E-01  0.88133973463E-01  0.11800713853E+00  0.21208827977E-01 0.  0.
         14    1    1    2    0    0  0.11649791880E-01  0.14281250742E-01  0.30995110192E-01  0.36060624363E-01  0.00000000000E+00 0. -1.
     999901    1    3    3    0    0  0.35819547227E-01  0.44497443744E-01 -0.11912908366E+00  0.88986223711E+00  0.88000000000E+00 0.  1.
        -11    1    4    4    0    0 -0.47652333702E-01 -0.47895154166E-01  0.76597279145E-01  0.10213762771E+00  0.51100000000E-03 0.  1.
         11    1    4    4    0    0  0.18299459565E-03 -0.10883540320E-01  0.11536694318E-01  0.15869510821E-01  0.51100000000E-03 0. -1.
</event>
<event>
 8    1  0.1197213E+005  0.1043930E+01  0.7957747E-01            NaN
         13   -1    0    0    0    0  0.00000000000E+00  0.00000000000E+00  0.74505805969E-08  0.10566000000E+00  0.10566000000E+00 0. -1.
     999900   -1    0    0    0    0 -0.00000000000E+00 -0.00000000000E+00 -0.74505805969E-08  0.93827000000E+00  0.93827000000E+00 0. -1.
     999902    2    1    2    0    0  0.11895805185E-01  0.15729232235E-02 -0.19919575510E-01  0.10206754573E+01  0.10204105131E+01 0.  0.
     999903    2    3    3    0    0 -0.33708230838E-01 -0.12414753807E+00  0.22489501527E-02  0.13029531037E+00  0.20565847713E-01 0.  0.
         14    1    1    2    0    0 -0.11895805185E-01 -0.15729232235E-02  0.19919575510E-01  0.23254542717E-01  0.00000000000E+00 0. -1.
     999901    1    3    3    0    0  0.45604036023E-01  0.12572046129E+00 -0.22168525663E-01  0.89038014691E+00  0.88000000000E+00 0. -1.
        -11    1    4    4    0    0 -0.90519536254E-02 -0.44235102132E-01 -0.85903641762E-02  0.45964525482E-01  0.51100000000E-03 0.  1.
         11    1    4    4    0    0 -0.24656277212E-01 -0.79912435938E-01  0.10839314329E-01  0.84330784887E-01  0.51100000000E-03 0. -1.
</event>
<event>
 8    1  0.1197213E+005  0.1043930E+01  0.7957747E-01            NaN
         13   -1    0    0    0    0  0.00000000000E+00  0.00000000000E+00  0.74505805969E-08  0.10566000000E+00  0.10566000000E+00 0.  1.
     999900   -1    0    0    0    0 -0.00000000000E+00 -0.00000000000E+00 -0.74505805969E-08  0.93827000000E+00  0.93827000000E+00 0.  1.
     999902    2    1    2    0    0 -0.55012847108E-03  0.23408216961E-01  0.37700186588E-02  0.10202137544E+01  0.10199380591E+01 0.  0.
     999903    2    3    3    0    0  0.90767345027E-02  0.77640222657E-02  0.12918634321E+00  0.13113182808E+00  0.19072962909E-01 0.  0.
         14    1    1    2    0    0  0.55012847108E-03 -0.23408216961E-01 -0.37700186588E-02  0.23716245557E-01  0.00000000000E+00 0.  1.
     999901    1    3    3    0    0 -0.96268629738E-02  0.15644194695E-01 -0.12541632455E+00  0.88908192636E+00  0.88000000000E+00 0.  1.
        -11    1    4    4    0    0 -0.20773655708E-02 -0.78750651462E-03  0.16299146798E-02  0.28023841793E-02  0.51100000000E-03 0.  1.
         11    1    4    4    0    0  0.11154100073E-01  0.85515287803E-02  0.12755642853E+00  0.12832944390E+00  0.51100000000E-03 0. -1.
</event>
<event>
 8    1  0.1197213E+005  0.1043930E+01  0.7957747E-01            NaN
         13   -1    0    0    0    0  0.00000000000E+00  0.00000000000E+00  0.74505805969E-08  0.10566000000E+00  0.10566000000E+00 0.  1.
     999900   -1    0    0    0    0 -0.00000000000E+00 -0.00000000000E+00 -0.74505805969E-08  0.93827000000E+00  0.93827000000E+00 0. -1.
     999902    2    1    2    0    0  0.14834629256E-01  0.12542305424E-01  0.14049514804E-01  0.10199557531E+01  0.10196739546E+01 0.  0.
     999903    2    3    3    0    0  0.53381491496E-01 -0.88361529433E-01 -0.74459765646E-01  0.12894434055E+00  0.20616564754E-01 0.  0.
         14    1    1    2    0    0 -0.14834629256E-01 -0.12542305424E-01 -0.14049514804E-01  0.23974246949E-01  0.00000000000E+00 0. -1.
     999901    1    3    3    0    0 -0.38546862240E-01  0.10090383486E+00  0.88509280450E-01  0.89101141250E+00  0.88000000000E+00 0.  1.
        -11    1    4    4    0    0  0.12429891644E-01 -0.79009182200E-02 -0.13678953229E-01  0.20107252359E-01  0.51100000000E-03 0. -1.
         11    1    4    4    0    0  0.40951599853E-01 -0.80460611214E-01 -0.60780812417E-01  0.10883708819E+00  0.51100000000E-03 0.  1.
</event>
<event>
 8    1  0.1197213E+005  0.1043930E+01  0.7957747E-01            NaN
         13   -1    0    0    0    0  0.00000000000E+00  0.00000000000E+00  0.74505805969E-08  0.10566000000E+00  0.10566000000E+00 0.  1.
     999900   -1    0    0    0    0 -0.00000000000E+00 -0.00000000000E+00 -0.74505805969E-08  0.93827000000E+00  0.93827000000E+00 0. -1.
     999902    2    1    2    0    0 -0.64822913086E-02 -0.20009727106E-01  0.10030361203E-01  0.10206272657E+01  0.10203612096E+01 0.  0.
     999903    2    3    3    0    0 -0.36519502127E-01 -0.12179006001E+00 -0.33938513324E-01  0.13316192434E+00  0.20341648293E-01 0.  0.
         14    1    1    2    0    0  0.64822913086E-02  0.20009727106E-01 -0.10030361203E-01  0.23302734289E-01  0.00000000000E+00 0. -1.
     999901    1    3    3    0    0  0.30037210818E-01  0.10178033291E+00  0.43968874527E-01  0.88746534137E+00  0.88000000000E+00 0.  1.
        -11    1    4    4    0    0 -0.20585123669E-01 -0.38570734264E-01 -0.15945177635E-01  0.46539861075E-01  0.51100000000E-03 0.  1.
         11    1    4    4    0    0 -0.15934378458E-01 -0.83219325748E-01 -0.17993335689E-01  0.86622063269E-01  0.51100000000E-03 0. -1.
</event>
<event>
 8    1  0.1197213E+005  0.1043930E+01  0.7957747E-01            NaN
         13   -1    0    0    0    0  0.00000000000E+00  0.00000000000E+00  0.74505805969E-08  0.10566000000E+00  0.10566000000E+00 0. -1.
     999900   -1    0    0    0    0 -0.00000000000E+00 -0.00000000000E+00 -0.74505805969E-08  0.93827000000E+00  0.93827000000E+00 0.  1.
     999902    2    1    2    0    0  0.15335800296E-01  0.15942720100E-01 -0.81995550846E-02  0.10203378446E+01  0.10200650603E+01 0.  0.
     999903    2    3    3    0    0 -0.10722880251E+00 -0.48205293333E-01  0.46310966000E-01  0.12786462569E+00  0.19567588947E-01 0.  0.
         14    1    1    2    0    0 -0.15335800296E-01 -0.15942720100E-01  0.81995550846E-02  0.23592155444E-01  0.00000000000E+00 0. -1.
     999901    1    3    3    0    0  0.12256460281E+00  0.64148013434E-01 -0.54510521084E-01  0.89247321887E+00  0.88000000000E+00 0. -1.
        -11    1    4    4    0    0 -0.63114315612E-01 -0.25293516094E-01  0.16754498660E-01  0.70029658988E-01  0.51100000000E-03 0. -1.
         11    1    4    4    0    0 -0.44114486898E-01 -0.22911777239E-01  0.29556467339E-01  0.57834966699E-01  0.51100000000E-03 0.  1.
</event>
<event>
 8    1  0.1197213E+005  0.1043930E+01  0.7957747E-01            NaN
         13   -1    0    0    0    0  0.00000000000E+00  0.00000000000E+00  0.74505805969E-08  0.10566000000E+00  0.10566000000E+00 0. -1.
     999900   -1    0    0    0    0 -0.00000000000E+00 -0.00000000000E+00 -0.74505805969E-08  0.93827000000E+00  0.93827000000E+00 0. -1.
     999902    2    1    2    0    0  0.19975059060E-01  0.83815497439E-02 -0.85292819114E-02  0.10206490634E+01  0.10203835105E+01 0.  0.
     999903    2    3    3    0    0 -0.25345940388E-01 -0.10645465558E+00  0.65091503464E-01  0.12898692607E+00  0.20632810921E-01 0.  0.
         14    1    1    2    0    0 -0.19975059060E-01 -0.83815497439E-02  0.85292819114E-02  0.23280936632E-01  0.00000000000E+00 0. -1.
     999901    1    3    3    0    0  0.45320999448E-01  0.11483620532E+00 -0.73620785375E-01  0.89166213729E+00  0.88000000000E+00 0. -1.
        -11    1    4    4    0    0 -0.15663522322E-01 -0.53218983806E-01  0.44386608051E-01  0.71049547952E-01  0.51100000000E-03 0. -1.
         11    1    4    4    0    0 -0.96824180664E-02 -0.53235671772E-01  0.20704895412E-01  0.57937378122E-01  0.51100000000E-03 0.  1.
</event>
<event>
 8    1  0.1197213E+005  0.1043930E+01  0.7957747E-01            NaN
         13   -1    0    0    0    0  0.00000000000E+00  0.00000000000E+00  0.74505805969E-08  0.10566000000E+00  0.10566000000E+00 0. -1.
     999900   -1    0    0    0    0 -0.00000000000E+00 -0.00000000000E+00 -0.74505805969E-08  0.93827000000E+00  0.93827000000E+00 0.  1.
     999902    2    1    2    0    0  0.16239110027E-01  0.13772887168E-01 -0.30492991590E-01  0.10067382852E+01  0.10060510679E+01 0.  0.
     999903    2    3    3    0    0 -0.12160454549E-01 -0.27986349393E-01  0.10841249227E+00  0.11441261450E+00  0.20146103066E-01 0.  0.
         14    1    1    2    0    0 -0.16239110027E-01 -0.13772887168E-01  0.30492991590E-01  0.37191714824E-01  0.00000000000E+00 0. -1.
     999901    1    3    3    0    0  0.28399564576E-01  0.41759236561E-01 -0.13890548386E+00  0.89232567068E+00  0.88000000000E+00 0.  1.
        -11    1    4    4    0    0  0.27139807418E-02 -0.24666429586E-02  0.36227055303E-01  0.36415802557E-01  0.51100000000E-03 0. -1.
         11    1    4    4    0    0 -0.14874435290E-01 -0.25519706435E-01  0.72185436966E-01  0.77996811940E-01  0.51100000000E-03 0.  1.
</event>
<event>
 8    1  0.1197213E+005  0.1043930E+01  0.7957747E-01            NaN
         13   -1    0    0    0    0  0.00000000000E+00  0.00000000000E+00  0.74505805969E-08  0.10566000000E+00  0.10566000000E+00 0.  1.
     999900   -1    0    0    0    0 -0.00000000000E+00 -0.00000000000E+00 -0.74505805969E-08  0.93827000000E+00  0.93827000000E+00 0.  1.
     999902    2    1    2    0    0  0.21643722867E-01 -0.49959504358E-02 -0.53322538387E-02  0.10210861126E+01  0.10208305472E+01 0.  0.
     999903    2    3    3    0    0  0.20764187462E-01  0.98371345081E-01 -0.82576636357E-01  0.13167492199E+00  0.20280808523E-01 0.  0.
         14    1    1    2    0    0 -0.21643722867E-01  0.49959504358E-02  0.53322538387E-02  0.22843887395E-01  0.00000000000E+00 0.  1.
     999901    1    3    3    0    0  0.87953540531E-03 -0.10336729552E+00  0.77244382519E-01  0.88941119062E+00  0.88000000000E+00 0. -1.
        -11    1    4    4    0    0  0.10109943942E-01  0.84241324327E-01 -0.67531038254E-01  0.10844129259E+00  0.51100000000E-03 0.  1.
         11    1    4    4    0    0  0.10654243520E-01  0.14130020754E-01 -0.15045598103E-01  0.23233629393E-01  0.51100000000E-03 0. -1.
</event>
<event>
 8    1  0.1197213E+005  0.1043930E+01  0.7957747E-01            NaN
         13   -1    0    0    0    0  0.00000000000E+00  0.00000000000E+00  0.74505805969E-08  0.10566000000E+00  0.10566000000E+00 0. -1.
     999900   -1    0    0    0    0 -0.00000000000E+00 -0.00000000000E+00 -0.74505805969E-08  0.93827000000E+00  0.93827000000E+00 0.  1.
     999902    2    1    2    0    0 -0.11885351381E-01  0.48756532960E-02 -0.19636135277E-01  0.10204648901E+01  0.10201950699E+01 0.  0.
     999903    2    3    3    0    0 -0.80356173520E-01 -0.61135738176E-01  0.78994464462E-01  0.12986186269E+00  0.20719190622E-01 0.  0.
         14    1    1    2    0    0  0.11885351381E-01 -0.48756532960E-02  0.19636135277E-01  0.23465109868E-01  0.00000000000E+00 0. -1.
     999901    1    3    3    0    0  0.68470822138E-01  0.66011391472E-01 -0.98630599739E-01  0.89060302744E+00  0.88000000000E+00 0.  1.
        -11    1    4    4    0    0 -0.32312156466E-01 -0.23580656340E-01  0.44344168168E-01  0.59722601923E-01  0.51100000000E-03 0. -1.
         11    1    4    4    0    0 -0.48044017054E-01 -0.37555081836E-01  0.34650296293E-01  0.70139260764E-01  0.51100000000E-03 0.  1.
</event>
<event>
 8    1  0.1197213E+005  0.1043930E+01  0.7957747E-01            NaN
         13   -1    0    0    0    0  0.00000000000E+00  0.00000000000E+00  0.74505805969E-08  0.10566000000E+00  0.10566000000E+00 0.  1.
     999900   -1    0    0    0    0 -0.00000000000E+00 -0.00000000000E+00 -0.74505805969E-08  0.93827000000E+00  0.93827000000E+00 0. -1.
     999902    2    1    2    0    0  0.17258094194E-01  0.15113852819E-01 -0.11444370025E-01  0.10182932302E+01  0.10179704606E+01 0.  0.
     999903    2    3    3    0    0 -0.91158670570E-01  0.68184097653E-01  0.54137354500E-01  0.12763526643E+00  0.20023328702E-01 0.  0.
         14    1    1    2    0    0 -0.17258094194E-01 -0.15113852819E-01  0.11444370025E-01  0.25636769834E-01  0.00000000000E+00 0. -1.
     999901    1    3    3    0    0  0.10841676476E+00 -0.53070244835E-01 -0.65581724525E-01  0.89065796373E+00  0.88000000000E+00 0. -1.
        -11    1    4    4    0    0 -0.83305531309E-01  0.68073057611E-01  0.51935225277E-01  0.11946246885E+00  0.51100000000E-03 0. -1.
         11    1    4    4    0    0 -0.78531392618E-02  0.11104004194E-03  0.22021292229E-02  0.81727975792E-02  0.51100000000E-03 0.  1.
</event>
<event>
 8    1  0.1197213E+005  0.1043930E+01  0.7957747E-01            NaN
         13   -1    0    0    0    0  0.00000000000E+00  0.00000000000E+00  0.74505805969E-08  0.10566000000E+00  0.10566000000E+00 0.  1.
     999900   -1    0    0    0    0 -0.00000000000E+00 -0.00000000000E+00 -0.74505805969E-08  0.93827000000E+00  0.93827000000E+00 0. -1.
     999902    2    1    2    0    0 -0.79349121565E-02  0.94798478012E-02 -0.19881350669E-01  0.10205184975E+01  0.10202499229E+01 0.  0.
     999903    2    3    3    0    0 -0.11174182099E+00 -0.51346678431E-01 -0.43492961474E-01  0.13201793543E+00  0.20356365948E-01 0.  0.
         14    1    1    2    0    0  0.79349121565E-02 -0.94798478012E-02  0.19881350669E-01  0.23411502508E-01  0.00000000000E+00 0.  1.
     999901    1    3    3    0    0  0.10380690883E+00  0.60826526232E-01  0.23611610805E-01  0.88850056206E+00  0.88000000000E+00 0.  1.
        -11    1    4    4    0    0 -0.87021018733E-01 -0.32051020836E-01 -0.37781887305E-01  0.10013819335E+00  0.51100000000E-03 0. -1.
         11    1    4    4    0    0 -0.24720802255E-01 -0.19295657595E-01 -0.57110741694E-02  0.31879742084E-01  0.51100000000E-03 0.  1.
</event>
<event>
 8    1  0.1197213E+005  0.1043930E+01  0.7957747E-01            NaN
         13   -1    0    0    0    0  0.00000000000E+00  0.00000000000E+00  0.74505805969E-08  0.10566000000E+00  0.10566000000E+00 0.  1.
     999900   -1    0    0    0    0 -0.00000000000E+00 -0.00000000000E+00 -0.74505805969E-08  0.93827000000E+00  0.93827000000E+00 0.  1.
     999902    2    1    2    0    0 -0.21921615989E-01 -0.36044396607E-02  0.90426636599E-02  0.10199441917E+01  0.10196621182E+01 0.  0.
     999903    2    3    3    0    0  0.39706450145E-01 -0.11642549580E+00 -0.35174028032E-01  0.12950512863E+00  0.20071567900E-01 0.  0.
         14    1    1    2    0    0  0.21921615989E-01  0.36044396607E-02 -0.90426636599E-02  0.23985808281E-01  0.00000000000E+00 0. -1.
     999901    1    3    3    0    0 -0.61628066134E-01  0.11282105614E+00  0.44216691692E-01  0.89043906309E+00  0.88000000000E+00 0.  1.
        -11    1    4    4    0    0  0.16507275302E-01 -0.65379976042E-01 -0.10508466777E-01  0.68247493728E-01  0.51100000000E-03 0. -1.
         11    1    4    4    0    0  0.23199174842E-01 -0.51045519763E-01 -0.24665561255E-01  0.61257634905E-01  0.51100000000E-03 0.  1.
</event>
<event>
 8    1  0.1197213E+005  0.1043930E+01  0.7957747E-01            NaN
         13   -1    0    0    0    0  0.00000000000E+00  0.00000000000E+00  0.74505805969E-08  0.10566000000E+00  0.10566000000E+00 0. -1.
     999900   -1    0    0    0    0 -0.00000000000E+00 -0.00000000000E+00 -0.74505805969E-08  0.93827000000E+00  0.93827000000E+00 0.  1.
     999902    2    1    2    0    0 -0.12587394111E-01  0.63060968299E-02  0.18445639488E-01  0.10207254538E+01  0.10204616608E+01 0.  0.
     999903    2    3    3    0    0  0.30812723192E-01 -0.37731016181E-01 -0.11621810309E+00  0.12833699520E+00  0.24303978211E-01 0.  0.
         14    1    1    2    0    0  0.12587394111E-01 -0.63060968299E-02 -0.18445639488E-01  0.23204546189E-01  0.00000000000E+00 0.  1.
     999901    1    3    3    0    0 -0.43400117303E-01  0.44037113011E-01  0.13466374258E+00  0.89238845862E+00  0.88000000000E+00 0. -1.
        -11    1    4    4    0    0  0.32210441649E-02 -0.16048874620E-01 -0.19594324087E-01  0.25537035057E-01  0.51100000000E-03 0.  1.
         11    1    4    4    0    0  0.27591679027E-01 -0.21682141562E-01 -0.96623779005E-01  0.10279996014E+00  0.51100000000E-03 0. -1.
</event>
<event>
 8    1  0.1197213E+005  0.1043930E+01  0.7957747E-01            NaN
         13   -1    0    0    0    0  0.00000000000E+00  0.00000000000E+00  0.74505805969E-08  0.10566000000E+00  0.10566000000E+00 0. -1.
     999900   -1    0    0    0    0 -0.00000000000E+00 -0.00000000000E+00 -0.74505805969E-08  0.93827000000E+00  0.93827000000E+00 0.  1.
     999902    2    1    2    0    0 -0.17168963401E-01  0.16182181956E-01 -0.36556850727E-02  0.10200553199E+01  0.10197758848E+01 0.  0.
     999903    2    3    3    0    0  0.34342911156E-01  0.73116660783E-01 -0.10164014947E+00  0.13129440526E+00  0.19545312460E-01 0.  0.
         14    1    1    2    0    0  0.17168963401E-01 -0.16182181956E-01  0.36556850727E-02  0.23874680112E-01  0.00000000000E+00 0.  1.
     999901    1    3    3    0    0 -0.51511874556E-01 -0.56934478828E-01  0.97984464395E-01  0.88876091462E+00  0.88000000000E+00 0. -1.
        -11    1    4    4    0    0  0.31708853639E-01  0.66145427678E-01 -0.80675873815E-01  0.10903910646E+00  0.51100000000E-03 0. -1.
         11    1    4    4    0    0  0.26340575166E-02  0.69712331049E-02 -0.20964275653E-01  0.22255298800E-01  0.51100000000E-03 0.  1.
</event>
<event>
 8    1  0.1197213E+005  0.1043930E+01  0.7957747E-01            NaN
         13   -1    0    0    0    0  0.00000000000E+00  0.00000000000E+00  0.74505805969E-08  0.10566000000E+00  0.10566000000E+00 0.  1.
     999900   -1    0    0    0    0 -0.00000000000E+00 -0.00000000000E+00 -0.74505805969E-08  0.93827000000E+00  0.93827000000E+00 0. -1.
     999902    2    1    2    0    0 -0.20095608637E-01 -0.12021391108E-01  0.65482965801E-02  0.10196148295E+01  0.10193248613E+01 0.  0.
     999903    2    3    3    0    0  0.60386017691E-01 -0.90926226386E-01  0.67048657653E-01  0.13036595602E+00  0.24201450765E-01 0.  0.
         14    1    1    2    0    0  0.20095608637E-01  0.12021391108E-01 -0.65482965801E-02  0.24315170548E-01  0.00000000000E+00 0. -1.
     999901    1    3    3    0    0 -0.80481626328E-01  0.78904835278E-01 -0.60500361073E-01  0.88924887343E+00  0.88000000000E+00 0. -1.
        -11    1    4    4    0    0  0.61287489138E-01 -0.80432359054E-01  0.58775722890E-01  0.11696310286E+00  0.51100000000E-03 0.  1.
         11    1    4    4    0    0 -0.90147144752E-03 -0.10493867331E-01  0.82729347635E-02  0.13402853164E-01  0.51100000000E-03 0. -1.
</event>
<event>
 8    1  0.1197213E+005  0.1043930E+01  0.7957747E-01            NaN
         13   -1    0    0    0    0  0.00000000000E+00  0.00000000000E+00  0.74505805969E-08  0.10566000000E+00  0.10566000000E+00 0. -1.
     999900   -1    0    0    0    0 -0.00000000000E+00 -0.00000000000E+00 -0.74505805969E-08  0.93827000000E+00  0.93827000000E+00 0. -1.
     999902    2    1    2    0    0 -0.15777486029E-01 -0.17306545660E-01  0.50091534060E-02  0.10199813632E+01  0.10197001736E+01 0.  0.
     999903    2    3    3    0    0 -0.38829557766E-01  0.30535790427E-01  0.11946481571E+00  0.13098170863E+00  0.21075975663E-01 0.  0.
         14    1    1    2    0    0  0.15777486029E-01  0.17306545660E-01 -0.50091534060E-02  0.23948636828E-01  0.00000000000E+00 0. -1.
     999901    1    3    3    0    0  0.23052071737E-01 -0.47842336087E-01 -0.11445566231E+00  0.88899965454E+00  0.88000000000E+00 0. -1.
        -11    1    4    4    0    0 -0.29745542031E-01  0.20602733886E-01  0.10569808754E+00  0.11172115621E+00  0.51100000000E-03 0.  1.
         11    1    4    4    0    0 -0.90840157350E-02  0.99330565406E-02  0.13766728174E-01  0.19260552426E-01  0.51100000000E-03 0. -1.
</event>
<event>
 8    1  0.1197213E+005  0.1043930E+01  0.7957747E-01            NaN
         13   -1    0    0    0    0  0.00000000000E+00  0.00000000000E+00  0.74505805969E-08  0.10566000000E+00  0.10566000000E+00 0. -1.
     999900   -1    0    0    0    0 -0.00000000000E+00 -0.00000000000E+00 -0.74505805969E-08  0.93827000000E+00  0.93827000000E+00 0.  1.
     999902    2    1    2    0    0 -0.78936404989E-02  0.18734206687E-01  0.12536168786E-01  0.10200462066E+01  0.10197665556E+01 0.  0.
     999903    2    3    3    0    0  0.12030396393E+00  0.14203360564E-01  0.43404956064E-01  0.13021024620E+00  0.19898211355E-01 0.  0.
         14    1    1    2    0    0  0.78936404989E-02 -0.18734206687E-01 -0.12536168786E-01  0.23883793425E-01  0.00000000000E+00 0. -1.
     999901    1    3    3    0    0 -0.12819760443E+00  0.45308461231E-02 -0.30868787278E-01  0.88983596038E+00  0.88000000000E+00 0.  1.
        -11    1    4    4    0    0  0.39026097144E-01  0.14055631620E-01  0.14700370723E-01  0.44010897047E-01  0.51100000000E-03 0. -1.
         11    1    4    4    0    0  0.81277866790E-01  0.14772894383E-03  0.28704585341E-01  0.86199349153E-01  0.51100000000E-03 0.  1.
</event>
<event>
 8    1  0.1197213E+005  0.1043930E+01  0.7957747E-01            NaN
         13   -1    0    0    0    0  0.00000000000E+00  0.00000000000E+00  0.74505805969E-08  0.10566000000E+00  0.10566000000E+00 0.  1.
     999900   -1    0    0    0    0 -0.00000000000E+00 -0.00000000000E+00 -0.74505805969E-08  0.93827000000E+00  0.93827000000E+00 0. -1.
     999902    2    1    2    0    0 -0.12185326130E-01  0.18963934733E-01  0.48469274305E-02  0.10208734240E+01  0.10206130227E+01 0.  0.
     999903    2    3    3    0    0  0.76157428034E-01  0.48080586873E-01 -0.92475398244E-01  0.13063533405E+00  0.20054788518E-01 0.  0.
         14    1    1    2    0    0  0.12185326130E-01 -0.18963934733E-01 -0.48469274305E-02  0.23056576046E-01  0.00000000000E+00 0.  1.
     999901    1    3    3    0    0 -0.88342754164E-01 -0.29116652140E-01  0.97322325674E-01  0.89023808991E+00  0.88000000000E+00 0. -1.
        -11    1    4    4    0    0  0.29336718793E-01  0.75416807666E-02 -0.32233828231E-01  0.44235741452E-01  0.51100000000E-03 0. -1.
         11    1    4    4    0    0  0.46820709241E-01  0.40538906107E-01 -0.60241570013E-01  0.86399592596E-01  0.51100000000E-03 0.  1.
</event>
<event>
 8    1  0.1197213E+005  0.1043930E+01  0.7957747E-01            NaN
         13   -1    0    0    0    0  0.00000000000E+00  0.00000000000E+00  0.74505805969E-08  0.10566000000E+00  0.10566000000E+00 0. -1.
     999900   -1    0    0    0    0 -0.00000000000E+00 -0.00000000000E+00 -0.74505805969E-08  0.93827000000E+00  0.93827000000E+00 0.  1.
     999902    2    1    2    0    0  0.21072277770E-01  0.77532721824E-02 -0.94468732021E-02  0.10195702477E+01  0.10192792024E+01 0.  0.
     999903    2    3    3    0    0 -0.11000839040E+00 -0.18962562692E-01 -0.56073197900E-01  0.12823984230E+00  0.28979801349E-01 0.  0.
         14    1    1    2    0    0 -0.21072277770E-01 -0.77532721824E-02  0.94468732021E-02  0.24359752323E-01  0.00000000000E+00 0. -1.
     999901    1    3    3    0    0  0.13108066817E+00  0.26715834874E-01  0.46626324698E-01  0.89133040538E+00  0.88000000000E+00 0. -1.
        -11    1    4    4    0    0 -0.54687600154E-01  0.42961841183E-02 -0.21078678987E-01  0.58768721591E-01  0.51100000000E-03 0.  1.
         11    1    4    4    0    0 -0.55320790250E-01 -0.23258746810E-01 -0.34994518913E-01  0.69471120705E-01  0.51100000000E-03 0. -1.
</event>
<event>
 8    1  0.1197213E+005  0.1043930E+01  0.7957747E-01            NaN
         13   -1    0    0    0    0  0.00000000000E+00  0.00000000000E+00  0.74505805969E-08  0.10566000000E+00  0.10566000000E+00 0. -1.
     999900   -1    0    0    0    0 -0.00000000000E+00 -0.00000000000E+00 -0.74505805969E-08  0.93827000000E+00  0.93827000000E+00 0. -1.
     999902    2    1    2    0    0 -0.62787371802E-02  0.20669442933E-01 -0.30224734486E-02  0.10221175321E+01  0.10218847614E+01 0.  0.
     999903    2    3    3    0    0  0.29796061824E-01 -0.11462046573E+00 -0.49347509470E-01  0.12984472654E+00  0.19970474572E-01 0.  0.
         14    1    1    2    0    0  0.62787371802E-02 -0.20669442933E-01  0.30224734486E-02  0.21812467937E-01  0.00000000000E+00 0. -1.
     999901    1    3    3    0    0 -0.36074799004E-01  0.13528990867E+00  0.46325036022E-01  0.89227280552E+00  0.88000000000E+00 0.  1.
        -11    1    4    4    0    0  0.20645890827E-02 -0.23486244372E-01 -0.17622606684E-01  0.29439490317E-01  0.51100000000E-03 0.  1.
         11    1    4    4    0    0  0.27731472741E-01 -0.91134221362E-01 -0.31724902786E-01  0.10040523623E+00  0.51100000000E-03 0. -1.
</event>
<event>
 8    1  0.1197213E+005  0.1043930E+01  0.7957747E-01            NaN
         13   -1    0    0    0    0  0.00000000000E+00  0.00000000000E+00  0.74505805969E-08  0.10566000000E+00  0.10566000000E+00 0. -1.
     999900   -1    0    0    0    0 -0.00000000000E+00 -0.00000000000E+00 -0.74505805969E-08  0.93827000000E+00  0.93827000000E+00 0. -1.
     999902    2    1    2    0    0 -0.53125266713E-02  0.20604603442E-01 -0.10326792207E-01  0.10202780390E+01  0.10200038537E+01 0.  0.
     999903    2    3    3    0    0  0.17152664068E-01 -0.27074342258E-01 -0.12558734981E+00  0.13119819848E+00  0.20335952311E-01 0.  0.
         14    1    1    2    0    0  0.53125266713E-02 -0.20604603442E-01  0.10326792207E-01  0.23651961017E-01  0.00000000000E+00 0.  1.
     999901    1    3    3    0    0 -0.22465190739E-01  0.47678945700E-01  0.11526055761E+00  0.88907984051E+00  0.88000000000E+00 0.  1.
        -11    1    4    4    0    0  0.17977156186E-01 -0.16313323890E-01 -0.10680151833E+00  0.10952683744E+00  0.51100000000E-03 0.  1.
         11    1    4    4    0    0 -0.82449211802E-03 -0.10761018368E-01 -0.18785831480E-01  0.21671361031E-01  0.51100000000E-03 0. -1.
</event>
<event>
 8    1  0.1197213E+005  0.1043930E+01  0.7957747E-01            NaN
         13   -1    0    0    0    0  0.00000000000E+00  0.00000000000E+00  0.74505805969E-08  0.10566000000E+00  0.10566000000E+00 0. -1.
     999900   -1    0    0    0    0 -0.00000000000E+00 -0.00000000000E+00 -0.74505805969E-08  0.93827000000E+00  0.93827000000E+00 0. -1.
     999902    2    1    2    0    0  0.47415202216E-03  0.14026234198E-01 -0.15960576674E-01  0.10226767632E+01  0.10224558973E+01 0.  0.
     999903    2    3    3    0    0  0.65451598731E-02  0.13247040061E+00  0.92205936121E-02  0.13436377275E+00  0.19425702704E-01 0.  0.
         14    1    1    2    0    0 -0.47415202216E-03 -0.14026234198E-01  0.15960576674E-01  0.21253236782E-01  0.00000000000E+00 0.  1.
     999901    1    3    3    0    0 -0.60710078509E-02 -0.11844416641E+00 -0.25181170286E-01  0.88831299047E+00  0.88000000000E+00 0. -1.
        -11    1    4    4    0    0  0.11482048201E-01  0.52883010808E-01  0.72163880394E-02  0.54596590007E-01  0.51100000000E-03 0. -1.
         11    1    4    4    0    0 -0.49368883278E-02  0.79587389804E-01  0.20042055727E-02  0.79767182746E-01  0.51100000000E-03 0.  1.
</event>
<event>
 8    1  0.1197213E+005  0.1043930E+01  0.7957747E-01            NaN
         13   -1    0    0    0    0  0.00000000000E+00  0.00000000000E+00  0.74505805969E-08  0.10566000000E+00  0.10566000000E+00 0. -1.
     999900   -1    0    0    0    0 -0.00000000000E+00 -0.00000000000E+00 -0.74505805969E-08  0.93827000000E+00  0.93827000000E+00 0.  1.
     999902    2    1    2    0    0  0.53135163836E-02 -0.10348206555E-01  0.20995285110E-01  0.10199274828E+01  0.10196450114E+01 0.  0.
     999903    2    3    3    0    0 -0.74085450597E-01  0.86692251985E-01  0.59469300095E-01  0.13020769748E+00  0.20328459984E-01 0.  0.
         14    1    1    2    0    0 -0.53135163836E-02  0.10348206555E-01 -0.20995285110E-01  0.24002517204E-01  0.00000000000E+00 0.  1.
     999901    1    3    3    0    0  0.79398966980E-01 -0.97040458540E-01 -0.38474014985E-01  0.88971978531E+00  0.88000000000E+00 0.  1.
        -11    1    4    4    0    0 -0.65710199148E-01  0.65116297635E-01  0.50361054107E-01  0.10533023963E+00  0.51100000000E-03 0.  1.
         11    1    4    4    0    0 -0.83752514488E-02  0.21575954350E-01  0.91082459881E-02  0.24877457847E-01  0.51100000000E-03 0. -1.
</event>
<event>
 8    1  0.1197213E+005  0.1043930E+01  0.7957747E-01            NaN
         13   -1    0    0    0    0  0.00000000000E+00  0.00000000000E+00  0.74505805969E-08  0.10566000000E+00  0.10566000000E+00 0. -1.
     999900   -1    0    0    0    0 -0.00000000000E+00 -0.00000000000E+00 -0.74505805969E-08  0.93827000000E+00  0.93827000000E+00 0. -1.
     999902    2    1    2    0    0  0.13622144458E-01 -0.16147533908E-01 -0.10561916780E-01  0.10203109450E+01  0.10200375311E+01 0.  0.
     999903    2    3    3    0    0 -0.69772890710E-01  0.10292674401E+00 -0.24457649841E-01  0.12827590820E+00  0.19858526599E-01 0.  0.
         14    1    1    2    0    0 -0.13622144458E-01  0.16147533908E-01  0.10561916780E-01  0.23619054956E-01  0.00000000000E+00 0. -1.
     999901    1    3    3    0    0  0.83395035168E-01 -0.11907427792E+00  0.13895733061E-01  0.89203503684E+00  0.88000000000E+00 0.  1.
        -11    1    4    4    0    0 -0.97241199977E-02  0.59624058860E-02 -0.54403254310E-02  0.12647808327E-01  0.51100000000E-03 0. -1.
         11    1    4    4    0    0 -0.60048770712E-01  0.96964338127E-01 -0.19017324410E-01  0.11562809988E+00  0.51100000000E-03 0.  1.
</event>
<event>
 8    1  0.1197213E+005  0.1043930E+01  0.7957747E-01            NaN
         13   -1    0    0    0    0  0.00000000000E+00  0.00000000000E+00  0.74505805969E-08  0.10566000000E+00  0.10566000000E+00 0.  1.
     999900   -1    0    0    0    0 -0.00000000000E+00 -0.00000000000E+00 -0.74505805969E-08  0.93827000000E+00  0.93827000000E+00 0. -1.
     999902    2    1    2    0    0 -0.14107983489E-01 -0.10146938092E-01 -0.14818575653E-01  0.10210917484E+01  0.10208363106E+01 0.  0.
     999903    2    3    3    0    0  0.68456018035E-02 -0.13073212660E+00  0.27728873460E-02  0.13244710629E+00  0.19919735700E-01 0.  0.
         14    1    1    2    0    0  0.14107983489E-01  0.10146938092E-01  0.14818575653E-01  0.22838251578E-01  0.00000000000E+00 0.  1.
     999901    1    3    3    0    0 -0.20953585293E-01  0.12058518851E+00 -0.17591462999E-01  0.88864464213E+00  0.88000000000E+00 0.  1.
        -11    1    4    4    0    0 -0.47478344837E-02 -0.26085094516E-01 -0.45422692712E-02  0.26904784320E-01  0.51100000000E-03 0. -1.
         11    1    4    4    0    0  0.11593436287E-01 -0.10464703208E+00  0.73151566172E-02  0.10554232197E+00  0.51100000000E-03 0.  1.
</event>
<event>
 8    1  0.1197213E+005  0.1043930E+01  0.7957747E-01            NaN
         13   -1    0    0    0    0  0.00000000000E+00  0.00000000000E+00  0.74505805969E-08  0.10566000000E+00  0.10566000000E+00 0.  1.
     999900   -1    0    0    0    0 -0.00000000000E+00 -0.00000000000E+00 -0.74505805969E-08  0.93827000000E+00  0.93827000000E+00 0.  1.
     999902    2    1    2    0    0 -0.63973363827E-02 -0.72321598578E-02  0.18953317983E-01  0.10226589325E+01  0.10224376920E+01 0.  0.
     999903    2    3    3    0    0  0.10913547914E+00  0.55247487466E-01  0.46401664471E-01  0.13248762906E+00  0.20905016363E-01 0.  0.
         14    1    1    2    0    0  0.63973363827E-02  0.72321598578E-02 -0.18953317983E-01  0.21271067476E-01  0.00000000000E+00 0. -1.
     999901    1    3    3    0    0 -0.11553281552E+00 -0.62479647324E-01 -0.27448346488E-01  0.89017130347E+00  0.88000000000E+00 0. -1.
        -11    1    4    4    0    0  0.29042125362E-01  0.92525445536E-02  0.36209584081E-02  0.30698975342E-01  0.51100000000E-03 0. -1.
         11    1    4    4    0    0  0.80093353776E-01  0.45994942913E-01  0.42780706063E-01  0.10178865371E+00  0.51100000000E-03 0.  1.
</event>
<event>
 8    1  0.1197213E+005  0.1043930E+01  0.7957747E-01            NaN
         13   -1    0    0    0    0  0.00000000000E+00  0.00000000000E+00  0.74505805969E-08  0.10566000000E+00  0.10566000000E+00 0.  1.
     999900   -1    0    0    0    0 -0.00000000000E+00 -0.00000000000E+00 -0.74505805969E-08  0.93827000000E+00  0.93827000000E+00 0.  1.
     999902    2    1    2    0    0 -0.12248174824E-01 -0.16387056863E-01 -0.11709070656E-01  0.10203576485E+01  0.10200853274E+01 0.  0.
     999903    2    3    3    0    0  0.60782591976E-01  0.60858696831E-01  0.92494900280E-01  0.12785618245E+00  0.19839161903E-01 0.  0.
         14    1    1    2    0    0  0.12248174824E-01  0.16387056863E-01  0.11709070656E-01  0.23572351491E-01  0.00000000000E+00 0.  1.
     999901    1    3    3    0    0 -0.73030766801E-01 -0.77245753694E-01 -0.10420397094E+00  0.89250146606E+00  0.88000000000E+00 0.  1.
        -11    1    4    4    0    0  0.23325422341E-01  0.31522145834E-01  0.30357973496E-01  0.49594240403E-01  0.51100000000E-03 0. -1.
         11    1    4    4    0    0  0.37457169635E-01  0.29336550997E-01  0.62136926783E-01  0.78261942045E-01  0.51100000000E-03 0.  1.
</event>
<event>
 7    1  0.1197213E+005  0.1043930E+01  0.7957747E-01            NaN
         13   -1    0    0    0    0  0.00000000000E+00  0.00000000000E+00  0.74505805969E-08  0.10566000000E+00  0.10566000000E+00 0. -1.
     999900   -1    0    0    0    0 -0.00000000000E+00 -0.00000000000E+00 -0.74505805969E-08  0.93827000000E+00  0.93827000000E+00 0. -1.
     999903    2    1    2    0    0  0.32444631361E-01 -0.57788086512E-01  0.12562699169E-01  0.70512888922E-01  0.20545779292E-01 0.  0.
         14    1    1    2    0    0 -0.53957897719E-01 -0.12863238231E-01 -0.68987959998E-01  0.88522631280E-01  0.00000000000E+00 0.  1.
     999901    1    1    2    0    0  0.21513266358E-01  0.70651324744E-01  0.56425260829E-01  0.88489447980E+00  0.88000000000E+00 0. -1.
        -11    1    3    3    0    0  0.43827687807E-02 -0.26088271395E-01  0.40181504826E-03  0.26461843150E-01  0.51100000000E-03 0.  1.
         11    1    3    3    0    0  0.28061862581E-01 -0.31699815118E-01  0.12160884121E-01  0.44051045772E-01  0.51100000000E-03 0. -1.
</event>
<event>
 7    1  0.1197213E+005  0.1043930E+01  0.7957747E-01            NaN
         13   -1    0    0    0    0  0.00000000000E+00  0.00000000000E+00  0.74505805969E-08  0.10566000000E+00  0.10566000000E+00 0.  1.
     999900   -1    0    0    0    0 -0.00000000000E+00 -0.00000000000E+00 -0.74505805969E-08  0.93827000000E+00  0.93827000000E+00 0. -1.
     999903    2    1    2    0    0 -0.10185141237E+00  0.18244393402E-01 -0.37688296983E-01  0.11183252075E+00  0.19481706209E-01 0.  0.
         14    1    1    2    0    0 -0.85726843957E-02 -0.15778152756E-01  0.41463713827E-01  0.45184959738E-01  0.00000000000E+00 0.  1.
     999901    1    1    2    0    0  0.11042409676E+00 -0.24662406460E-02 -0.37754168442E-02  0.88691251951E+00  0.88000000000E+00 0. -1.
        -11    1    3    3    0    0 -0.55009298072E-01  0.14339728105E-02 -0.25164979548E-01  0.60511292079E-01  0.51100000000E-03 0.  1.
         11    1    3    3    0    0 -0.46842114295E-01  0.16810420592E-01 -0.12523317435E-01  0.51321228675E-01  0.51100000000E-03 0. -1.
</event>
<event>
 8    1  0.1197213E+005  0.1043930E+01  0.7957747E-01            NaN
         13   -1    0    0    0    0  0.00000000000E+00  0.00000000000E+00  0.74505805969E-08  0.10566000000E+00  0.10566000000E+00 0.  1.
     999900   -1    0    0    0    0 -0.00000000000E+00 -0.00000000000E+00 -0.74505805969E-08  0.93827000000E+00  0.93827000000E+00 0. -1.
     999902    2    1    2    0    0 -0.20214038776E-01 -0.25561751444E-02  0.12510525421E-01  0.10200206997E+01  0.10197404440E+01 0.  0.
     999903    2    3    3    0    0  0.40093177362E-01  0.58830328650E-01  0.10782221529E+00  0.13070097013E+00  0.19714031603E-01 0.  0.
         14    1    1    2    0    0  0.20214038776E-01  0.25561751444E-02 -0.12510525421E-01  0.23909300310E-01  0.00000000000E+00 0. -1.
     999901    1    3    3    0    0 -0.60307216138E-01 -0.61386503794E-01 -0.95311689868E-01  0.88931972956E+00  0.88000000000E+00 0. -1.
        -11    1    4    4    0    0  0.17793259336E-01  0.11161788850E-01  0.26227593519E-01  0.33605555954E-01  0.51100000000E-03 0.  1.
         11    1    4    4    0    0  0.22299918026E-01  0.47668539799E-01  0.81594621770E-01  0.97095414173E-01  0.51100000000E-03 0. -1.
</event>
<event>
 8    1  0.1197213E+005  0.1043930E+01  0.7957747E-01            NaN
         13   -1    0    0    0    0  0.00000000000E+00  0.00000000000E+00  0.74505805969E-08  0.10566000000E+00  0.10566000000E+00 0. -1.
     999900   -1    0    0    0    0 -0.00000000000E+00 -0.00000000000E+00 -0.74505805969E-08  0.93827000000E+00  0.93827000000E+00 0.  1.
     999902    2    1    2    0    0  0.20705600033E-01 -0.10982808615E-01 -0.42830307237E-02  0.10201037894E+01  0.10198255012E+01 0.  0.
     999903    2    3    3    0    0 -0.11350606853E+00  0.37412311781E-01  0.40657539946E-01  0.12748152075E+00  0.17753701347E-01 0.  0.
         14    1    1    2    0    0 -0.20705600033E-01  0.10982808615E-01  0.42830307237E-02  0.23826210567E-01  0.00000000000E+00 0.  1.
     999901    1    3    3    0    0  0.13421166857E+00 -0.48395120396E-01 -0.44940570670E-01  0.89262226868E+00  0.88000000000E+00 0. -1.
        -11    1    4    4    0    0 -0.78354871096E-01  0.33831300704E-01  0.31518981827E-01  0.90982141480E-01  0.51100000000E-03 0.  1.
         11    1    4    4    0    0 -0.35151197437E-01  0.35810110767E-02  0.91385581192E-02  0.36499379270E-01  0.51100000000E-03 0. -1.
</event>
<event>
 8    1  0.1197213E+005  0.1043930E+01  0.7957747E-01            NaN
         13   -1    0    0    0    0  0.00000000000E+00  0.00000000000E+00  0.74505805969E-08  0.10566000000E+00  0.10566000000E+00 0.  1.
     999900   -1    0    0    0    0 -0.00000000000E+00 -0.00000000000E+00 -0.74505805969E-08  0.93827000000E+00  0.93827000000E+00 0.  1.
     999902    2    1    2    0    0  0.17915156336E-01  0.10915402002E-01 -0.10707520775E-01  0.10203768722E+01  0.10201050002E+01 0.  0.
     999903    2    3    3    0    0  0.71305622141E-01 -0.64977224307E-01 -0.87952336023E-01  0.13213310272E+00  0.20420871522E-01 0.  0.
         14    1    1    2    0    0 -0.17915156336E-01 -0.10915402002E-01  0.10707520775E-01  0.23553127787E-01  0.00000000000E+00 0.  1.
     999901    1    3    3    0    0 -0.53390465805E-01  0.75892626310E-01  0.77244815248E-01  0.88824376950E+00  0.88000000000E+00 0. -1.
        -11    1    4    4    0    0  0.82177783817E-02 -0.17789958305E-01 -0.21175933583E-01  0.28856468636E-01  0.51100000000E-03 0. -1.
         11    1    4    4    0    0  0.63087843759E-01 -0.47187266002E-01 -0.66776402440E-01  0.10327663408E+00  0.51100000000E-03 0.  1.
</event>
<event>
 8    1  0.1197213E+005  0.1043930E+01  0.7957747E-01            NaN
         13   -1    0    0    0    0  0.00000000000E+00  0.00000000000E+00  0.74505805969E-08  0.10566000000E+00  0.10566000000E+00 0.  1.
     999900   -1    0    0    0    0 -0.00000000000E+00 -0.00000000000E+00 -0.74505805969E-08  0.93827000000E+00  0.93827000000E+00 0.  1.
     999902    2    1    2    0    0 -0.16383678793E-01  0.14789982352E-01 -0.87922057095E-02  0.10201713933E+01  0.10198947007E+01 0.  0.
     999903    2    3    3    0    0  0.52780008107E-02 -0.12686418690E+00  0.22984366066E-02  0.12851106880E+00  0.19683312292E-01 0.  0.
         14    1    1    2    0    0  0.16383678793E-01 -0.14789982352E-01  0.87922057095E-02  0.23758606651E-01  0.00000000000E+00 0.  1.
     999901    1    3    3    0    0 -0.21661679604E-01  0.14165416925E+00 -0.11090642316E-01  0.89166032455E+00  0.88000000000E+00 0. -1.
        -11    1    4    4    0    0  0.12330105083E-01 -0.88435741802E-01 -0.10038397125E-02  0.89298268374E-01  0.51100000000E-03 0.  1.
         11    1    4    4    0    0 -0.70521042723E-02 -0.38428445097E-01  0.33022763191E-02  0.39212800424E-01  0.51100000000E-03 0. -1.
</event>
<event>
 8    1  0.1197213E+005  0.1043930E+01  0.7957747E-01            NaN
         13   -1    0    0    0    0  0.00000000000E+00  0.00000000000E+00  0.74505805969E-08  0.10566000000E+00  0.10566000000E+00 0. -1.
     999900   -1    0    0    0    0 -0.00000000000E+00 -0.00000000000E+00 -0.74505805969E-08  0.93827000000E+00  0.93827000000E+00 0.  1.
     999902    2    1    2    0    0  0.11026333567E-01  0.68941539099E-02 -0.19507712225E-01  0.10204851663E+01  0.10202158176E+01 0.  0.
     999903    2    3    3    0    0  0.77495859616E-01  0.23571772336E-02  0.10208398631E+00  0.12962977783E+00  0.19276267706E-01 0.  0.
         14    1    1    2    0    0 -0.11026333567E-01 -0.68941539099E-02  0.19507712225E-01  0.23444833680E-01  0.00000000000E+00 0. -1.
     999901    1    3    3    0    0 -0.66469526049E-01  0.45369766763E-02 -0.12159169854E+00  0.89085538849E+00  0.88000000000E+00 0.  1.
        -11    1    4    4    0    0  0.40312866334E-01  0.86476539384E-02  0.43337924252E-01  0.59819277078E-01  0.51100000000E-03 0. -1.
         11    1    4    4    0    0  0.37182993282E-01 -0.62904767048E-02  0.58746062059E-01  0.69810500751E-01  0.51100000000E-03 0.  1.
</event>
<event>
 8    1  0.1197213E+005  0.1043930E+01  0.7957747E-01            NaN
         13   -1    0    0    0    0  0.00000000000E+00  0.00000000000E+00  0.74505805969E-08  0.10566000000E+00  0.10566000000E+00 0.  1.
     999900   -1    0    0    0    0 -0.00000000000E+00 -0.00000000000E+00 -0.74505805969E-08  0.93827000000E+00  0.93827000000E+00 0. -1.
     999902    2    1    2    0    0 -0.84234770409E-02  0.15012387086E-01  0.16017965661E-01  0.10204161327E+01  0.10201451769E+01 0.  0.
     999903    2    3    3    0    0  0.31850559001E-01  0.12679540257E+00  0.16688978330E-02  0.13231516081E+00  0.20322016104E-01 0.  0.
         14    1    1    2    0    0  0.84234770409E-02 -0.15012387086E-01 -0.16017965661E-01  0.23513867300E-01  0.00000000000E+00 0. -1.
     999901    1    3    3    0    0 -0.40274036042E-01 -0.11178301548E+00  0.14349067828E-01  0.88810097189E+00  0.88000000000E+00 0. -1.
        -11    1    4    4    0    0  0.31880065835E-01  0.98679779672E-01  0.59373587559E-02  0.10387276286E+00  0.51100000000E-03 0. -1.
         11    1    4    4    0    0 -0.29506833574E-04  0.28115622896E-01 -0.42684609229E-02  0.28442397950E-01  0.51100000000E-03 0.  1.
</event>
<event>
 8    1  0.1197213E+005  0.1043930E+01  0.7957747E-01            NaN
         13   -1    0    0    0    0  0.00000000000E+00  0.00000000000E+00  0.74505805969E-08  0.10566000000E+00  0.10566000000E+00 0.  1.
     999900   -1    0    0    0    0 -0.00000000000E+00 -0.00000000000E+00 -0.74505805969E-08  0.93827000000E+00  0.93827000000E+00 0.  1.
     999902    2    1    2    0    0 -0.15361202571E-01  0.16748235138E-01 -0.97886380560E-02  0.10191855590E+01  0.10188851340E+01 0.  0.
     999903    2    3    3    0    0  0.41360562858E-02  0.12836648484E+00  0.19871184522E-01  0.13142518490E+00  0.19561540368E-01 0.  0.
         14    1    1    2    0    0  0.15361202571E-01 -0.16748235138E-01  0.97886380560E-02  0.24744440985E-01  0.00000000000E+00 0.  1.
     999901    1    3    3    0    0 -0.19497258857E-01 -0.11161824970E+00 -0.29659822578E-01  0.88776037411E+00  0.88000000000E+00 0.  1.
        -11    1    4    4    0    0 -0.43843566689E-02  0.74284785655E-01  0.44738404073E-02  0.74550173254E-01  0.51100000000E-03 0.  1.
         11    1    4    4    0    0  0.85204129547E-02  0.54081699181E-01  0.15397344115E-01  0.56875011649E-01  0.51100000000E-03 0. -1.
</event>
<event>
 8    1  0.1197213E+005  0.1043930E+01  0.7957747E-01            NaN
         13   -1    0    0    0    0  0.00000000000E+00  0.00000000000E+00  0.74505805969E-08  0.10566000000E+00  0.10566000000E+00 0. -1.
     999900   -1    0    0    0    0 -0.00000000000E+00 -0.00000000000E+00 -0.74505805969E-08  0.93827000000E+00  0.93827000000E+00 0. -1.
     999902    2    1    2    0    0 -0.18924496082E-01 -0.15416594352E-01 -0.38520947874E-02  0.10192187360E+01  0.10189191260E+01 0.  0.
     999903    2    3    3    0    0 -0.94057947946E-02  0.12529575313E+00 -0.13953622288E-01  0.12793168278E+00  0.19604008711E-01 0.  0.
         14    1    1    2    0    0  0.18924496082E-01  0.15416594352E-01  0.38520947874E-02  0.24711263983E-01  0.00000000000E+00 0. -1.
     999901    1    3    3    0    0 -0.95187012872E-02 -0.14071234748E+00  0.10101527501E-01  0.89128705324E+00  0.88000000000E+00 0. -1.
        -11    1    4    4    0    0  0.29432675508E-02  0.84646804471E-02 -0.45747952301E-02  0.10074895103E-01  0.51100000000E-03 0. -1.
         11    1    4    4    0    0 -0.12349062345E-01  0.11683107268E+00 -0.93788270578E-02  0.11785678768E+00  0.51100000000E-03 0.  1.
</event>
<event>
 8    1  0.1197213E+005  0.1043930E+01  0.7957747E-01            NaN
         13   -1    0    0    0    0  0.00000000000E+00  0.00000000000E+00  0.74505805969E-08  0.10566000000E+00  0.10566000000E+00 0. -1.
     999900   -1    0    0    0    0 -0.00000000000E+00 -0.00000000000E+00 -0.74505805969E-08  0.93827000000E+00  0.93827000000E+00 0.  1.
     999902    2    1    2    0    0  0.94353496416E-02  0.17915017138E-01  0.12545778805E-01  0.10201104654E+01  0.10198323350E+01 0.  0.
     999903    2    3    3    0    0  0.11091877497E+00  0.32324229290E-01  0.61747262878E-01  0.13279581038E+00  0.21775498619E-01 0.  0.
         14    1    1    2    0    0 -0.94353496416E-02 -0.17915017138E-01 -0.12545778805E-01  0.23819534583E-01  0.00000000000E+00 0.  1.
     999901    1    3    3    0    0 -0.10148342533E+00 -0.14409212152E-01 -0.49201484073E-01  0.88731465504E+00  0.88000000000E+00 0. -1.
        -11    1    4    4    0    0  0.56119431841E-01  0.26909443900E-01  0.37147749122E-01  0.72482585405E-01  0.51100000000E-03 0.  1.
         11    1    4    4    0    0  0.54799343132E-01  0.54147853899E-02  0.24599513756E-01  0.60313224973E-01  0.51100000000E-03 0. -1.
</event>
<event>
 8    1  0.1197213E+005  0.1043930E+01  0.7957747E-01            NaN
         13   -1    0    0    0    0  0.00000000000E+00  0.00000000000E+00  0.74505805969E-08  0.10566000000E+00  0.10566000000E+00 0. -1.
     999900   -1    0    0    0    0 -0.00000000000E+00 -0.00000000000E+00 -0.74505805969E-08  0.93827000000E+00  0.93827000000E+00 0. -1.
     999902    2    1    2    0    0  0.11703077486E-01 -0.20164497703E-01  0.25102568332E-02  0.10204806849E+01  0.10202112320E+01 0.  0.
     999903    2    3    3    0    0  0.79049845689E-01 -0.10535973243E+00 -0.12452594640E-01  0.13367873285E+00  0.19115051159E-01 0.  0.
         14    1    1    2    0    0 -0.11703077486E-01  0.20164497703E-01 -0.25102568332E-02  0.23449315121E-01  0.00000000000E+00 0.  1.
     999901    1    3    3    0    0 -0.67346768203E-01  0.85195234726E-01  0.14962851473E-01  0.88680195203E+00  0.88000000000E+00 0. -1.
        -11    1    4    4    0    0  0.72260923895E-01 -0.84918975833E-01 -0.90994973060E-02  0.11187464213E+00  0.51100000000E-03 0.  1.
         11    1    4    4    0    0  0.67889217947E-02 -0.20440756596E-01 -0.33530973340E-02  0.21804090719E-01  0.51100000000E-03 0. -1.
</event>
<event>
 8    1  0.1197213E+005  0.1043930E+01  0.7957747E-01            NaN
         13   -1    0    0    0    0  0.00000000000E+00  0.00000000000E+00  0.74505805969E-08  0.10566000000E+00  0.10566000000E+00 0. -1.
     999900   -1    0    0    0    0 -0.00000000000E+00 -0.00000000000E+00 -0.74505805969E-08  0.93827000000E+00  0.93827000000E+00 0.  1.
     999902    2    1    2    0    0  0.12834496878E-02  0.10724993544E-01 -0.20523314132E-01  0.10207377782E+01  0.10204742685E+01 0.  0.
     999903    2    3    3    0    0  0.11089139058E+00 -0.62760734779E-01  0.14464567391E-01  0.13021085281E+00  0.22579462877E-01 0.  0.
         14    1    1    2    0    0 -0.12834496878E-02 -0.10724993544E-01  0.20523314132E-01  0.23192221813E-01  0.00000000000E+00 0. -1.
     999901    1    3    3    0    0 -0.10960794089E+00  0.73485728323E-01 -0.34987881523E-01  0.89052692538E+00  0.88000000000E+00 0.  1.
        -11    1    4    4    0    0  0.35592002705E-01 -0.92794113636E-02  0.41527454365E-03  0.36787656976E-01  0.51100000000E-03 0. -1.
         11    1    4    4    0    0  0.75299387876E-01 -0.53481323416E-01  0.14049292847E-01  0.93423195831E-01  0.51100000000E-03 0.  1.
</event>
<event>
 8    1  0.1197213E+005  0.1043930E+01  0.7957747E-01            NaN
         13   -1    0    0    0    0  0.00000000000E+00  0.00000000000E+00  0.74505805969E-08  0.10566000000E+00  0.10566000000E+00 0. -1.
     999900   -1    0    0    0    0 -0.00000000000E+00 -0.00000000000E+00 -0.74505805969E-08  0.93827000000E+00  0.93827000000E+00 0.  1.
     999902    2    1    2    0    0 -0.50212554767E-02 -0.13851918344E-01 -0.14850142986E-01  0.10230107410E+01  0.10227968327E+01 0.  0.
     999903    2    3    3    0    0  0.85662604695E-01 -0.10112620752E-01 -0.10073078064E+00  0.13418397009E+00  0.20452401314E-01 0.  0.
         14    1    1    2    0    0  0.50212554767E-02  0.13851918344E-01  0.14850142986E-01  0.20919258951E-01  0.00000000000E+00 0.  1.
     999901    1    3    3    0    0 -0.90683860171E-01 -0.37392975917E-02  0.85880637658E-01  0.88882677096E+00  0.88000000000E+00 0. -1.
        -11    1    4    4    0    0  0.17102182177E-01 -0.77477931700E-03 -0.33917621592E-01  0.37996724775E-01  0.51100000000E-03 0.  1.
         11    1    4    4    0    0  0.68560422518E-01 -0.93378414354E-02 -0.66813159052E-01  0.96187245318E-01  0.51100000000E-03 0. -1.
</event>
<event>
 8    1  0.1197213E+005  0.1043930E+01  0.7957747E-01            NaN
         13   -1    0    0    0    0  0.00000000000E+00  0.00000000000E+00  0.74505805969E-08  0.10566000000E+00  0.10566000000E+00 0.  1.
     999900   -1    0    0    0    0 -0.00000000000E+00 -0.00000000000E+00 -0.74505805969E-08  0.93827000000E+00  0.93827000000E+00 0. -1.
     999902    2    1    2    0    0 -0.22706236625E-01 -0.72547861970E-02 -0.18011908615E-01  0.10140530196E+01  0.10136127923E+01 0.  0.
     999903    2    3    3    0    0 -0.11345052868E+00 -0.16830156687E-01 -0.54857041082E-01  0.12856796721E+00  0.19135062168E-01 0.  0.
         14    1    1    2    0    0  0.22706236625E-01  0.72547861970E-02  0.18011908615E-01  0.29876980376E-01  0.00000000000E+00 0.  1.
     999901    1    3    3    0    0  0.90744292056E-01  0.95753704900E-02  0.36845132467E-01  0.88548505241E+00  0.88000000000E+00 0. -1.
        -11    1    4    4    0    0 -0.24380226085E-01 -0.45272238643E-02 -0.35859438075E-02  0.25060153508E-01  0.51100000000E-03 0.  1.
         11    1    4    4    0    0 -0.89070302597E-01 -0.12302932823E-01 -0.51271097274E-01  0.10350781370E+00  0.51100000000E-03 0. -1.
</event>
<event>
 8    1  0.1197213E+005  0.1043930E+01  0.7957747E-01            NaN
         13   -1    0    0    0    0  0.00000000000E+00  0.00000000000E+00  0.74505805969E-08  0.10566000000E+00  0.10566000000E+00 0. -1.
     999900   -1    0    0    0    0 -0.00000000000E+00 -0.00000000000E+00 -0.74505805969E-08  0.93827000000E+00  0.93827000000E+00 0.  1.
     999902    2    1    2    0    0 -0.82733283128E-02  0.94267423461E-02  0.19308958951E-01  0.10209050716E+01  0.10206453928E+01 0.  0.
     999903    2    3    3    0    0  0.10246735492E+00 -0.68793436606E-01  0.36918744754E-01  0.13034794267E+00  0.19887098782E-01 0.  0.
         14    1    1    2    0    0  0.82733283128E-02 -0.94267423461E-02 -0.19308958951E-01  0.23024928412E-01  0.00000000000E+00 0.  1.
     999901    1    3    3    0    0 -0.11074068324E+00  0.78220178952E-01 -0.17609785804E-01  0.89055712892E+00  0.88000000000E+00 0.  1.
        -11    1    4    4    0    0  0.49259135143E-01 -0.23964742931E-01  0.96876162449E-02  0.55631666596E-01  0.51100000000E-03 0. -1.
         11    1    4    4    0    0  0.53208219780E-01 -0.44828693675E-01  0.27231128509E-01  0.74716276069E-01  0.51100000000E-03 0.  1.
</event>
<event>
 8    1  0.1197213E+005  0.1043930E+01  0.7957747E-01            NaN
         13   -1    0    0    0    0  0.00000000000E+00  0.00000000000E+00  0.74505805969E-08  0.10566000000E+00  0.10566000000E+00 0.  1.
     999900   -1    0    0    0    0 -0.00000000000E+00 -0.00000000000E+00 -0.74505805969E-08  0.93827000000E+00  0.93827000000E+00 0.  1.
     999902    2    1    2    0    0 -0.33070207572E-02  0.23507730588E-01  0.14008093565E-02  0.10201495027E+01  0.10198722939E+01 0.  0.
     999903    2    3    3    0    0  0.10093831009E+00 -0.46303993560E-02 -0.79178160454E-01  0.12989571097E+00  0.19842671041E-01 0.  0.
         14    1    1    2    0    0  0.33070207572E-02 -0.23507730588E-01 -0.14008093565E-02  0.23780497273E-01  0.00000000000E+00 0. -1.
     999901    1    3    3    0    0 -0.10424533085E+00  0.28138129944E-01  0.80578969811E-01  0.89025379176E+00  0.88000000000E+00 0. -1.
        -11    1    4    4    0    0  0.77295500502E-01  0.92216828686E-03 -0.68782206540E-01  0.10347317454E+00  0.51100000000E-03 0. -1.
         11    1    4    4    0    0  0.23642809587E-01 -0.55525676429E-02 -0.10395953914E-01  0.26422536430E-01  0.51100000000E-03 0.  1.
</event>
<event>
 8    1  0.1197213E+005  0.1043930E+01  0.7957747E-01            NaN
         13   -1    0    0    0    0  0.00000000000E+00  0.00000000000E+00  0.74505805969E-08  0.10566000000E+00  0.10566000000E+00 0.  1.
     999900   -1    0    0    0    0 -0.00000000000E+00 -0.00000000000E+00 -0.74505805969E-08  0.93827000000E+00  0.93827000000E+00 0. -1.
     999902    2    1    2    0    0  0.93164664562E-02 -0.19682325037E-01  0.86218234102E-02  0.10205093616E+01  0.10202405749E+01 0.  0.
     999903    2    3    3    0    0 -0.11291074084E+00  0.26910347083E-01  0.54198433488E-01  0.12967402622E+00  0.20121647741E-01 0.  0.
         14    1    1    2    0    0 -0.93164664562E-02  0.19682325037E-01 -0.86218234102E-02  0.23420638442E-01  0.00000000000E+00 0. -1.
     999901    1    3    3    0    0  0.12222720729E+00 -0.46592672121E-01 -0.45576610078E-01  0.89083533534E+00  0.88000000000E+00 0. -1.
        -11    1    4    4    0    0 -0.63812932909E-01  0.66090314537E-02  0.35660661203E-01  0.73401046189E-01  0.51100000000E-03 0. -1.
         11    1    4    4    0    0 -0.49097807926E-01  0.20301315630E-01  0.18537772286E-01  0.56272980033E-01  0.51100000000E-03 0.  1.
</event>
<event>
 8    1  0.1197213E+005  0.1043930E+01  0.7957747E-01            NaN
         13   -1    0    0    0    0  0.00000000000E+00  0.00000000000E+00  0.74505805969E-08  0.10566000000E+00  0.10566000000E+00 0. -1.
     999900   -1    0    0    0    0 -0.00000000000E+00 -0.00000000000E+00 -0.74505805969E-08  0.93827000000E+00  0.93827000000E+00 0.  1.
     999902    2    1    2    0    0  0.77831935644E-02 -0.17404576976E-01  0.14116092633E-01  0.10202074059E+01  0.10199315612E+01 0.  0.
     999903    2    3    3    0    0 -0.34432720580E-01  0.54992281825E-01 -0.10828461508E+00  0.12779190743E+00  0.19885935621E-01 0.  0.
         14    1    1    2    0    0 -0.77831935644E-02  0.17404576976E-01 -0.14116092633E-01  0.23722594145E-01  0.00000000000E+00 0.  1.
     999901    1    3    3    0    0  0.42215914145E-01 -0.72396858801E-01  0.12240070771E+00  0.89241549842E+00  0.88000000000E+00 0. -1.
        -11    1    4    4    0    0 -0.12093295164E-01  0.18662512151E-01 -0.56391016879E-01  0.60619675464E-01  0.51100000000E-03 0. -1.
         11    1    4    4    0    0 -0.22339425416E-01  0.36329769674E-01 -0.51893598202E-01  0.67172231970E-01  0.51100000000E-03 0.  1.
</event>
<event>
 8    1  0.1197213E+005  0.1043930E+01  0.7957747E-01            NaN
         13   -1    0    0    0    0  0.00000000000E+00  0.00000000000E+00  0.74505805969E-08  0.10566000000E+00  0.10566000000E+00 0. -1.
     999900   -1    0    0    0    0 -0.00000000000E+00 -0.00000000000E+00 -0.74505805969E-08  0.93827000000E+00  0.93827000000E+00 0. -1.
     999902    2    1    2    0    0 -0.64819022041E-02  0.11721905448E-01  0.19083633438E-01  0.10206147005E+01  0.10203483541E+01 0.  0.
     999903    2    3    3    0    0  0.73150566548E-01 -0.96163750062E-01 -0.39101646721E-01  0.12855743132E+00  0.19990051514E-01 0.  0.
         14    1    1    2    0    0  0.64819022041E-02 -0.11721905448E-01 -0.19083633438E-01  0.23315299456E-01  0.00000000000E+00 0.  1.
     999901    1    3    3    0    0 -0.79632468752E-01  0.10788565551E+00  0.58185280159E-01  0.89205726922E+00  0.88000000000E+00 0. -1.
        -11    1    4    4    0    0  0.37799980661E-01 -0.36927238362E-01 -0.23471758019E-01  0.57824251111E-01  0.51100000000E-03 0.  1.
         11    1    4    4    0    0  0.35350585887E-01 -0.59236511701E-01 -0.15629888701E-01  0.70733180211E-01  0.51100000000E-03 0. -1.
</event>
<event>
 8    1  0.1197213E+005  0.1043930E+01  0.7957747E-01            NaN
         13   -1    0    0    0    0  0.00000000000E+00  0.00000000000E+00  0.74505805969E-08  0.10566000000E+00  0.10566000000E+00 0.  1.
     999900   -1    0    0    0    0 -0.00000000000E+00 -0.00000000000E+00 -0.74505805969E-08  0.93827000000E+00  0.93827000000E+00 0. -1.
     999902    2    1    2    0    0 -0.21418483661E-01  0.87054587392E-02  0.31613500701E-02  0.10205948208E+01  0.10203280147E+01 0.  0.
     999903    2    3    3    0    0  0.56940271732E-01 -0.92139564650E-01  0.67337568484E-01  0.12906332932E+00  0.19776271797E-01 0.  0.
         14    1    1    2    0    0  0.21418483661E-01 -0.87054587392E-02 -0.31613500701E-02  0.23335179204E-01  0.00000000000E+00 0.  1.
     999901    1    3    3    0    0 -0.78358755394E-01  0.10084502339E+00 -0.64176218414E-01  0.89153149148E+00  0.88000000000E+00 0.  1.
        -11    1    4    4    0    0  0.13035460452E-01 -0.29418129041E-01  0.11009074549E-01  0.34011915395E-01  0.51100000000E-03 0. -1.
         11    1    4    4    0    0  0.43904811281E-01 -0.62721435610E-01  0.56328493935E-01  0.95051413922E-01  0.51100000000E-03 0.  1.
</event>
<event>
 8    1  0.1197213E+005  0.1043930E+01  0.7957747E-01            NaN
         13   -1    0    0    0    0  0.00000000000E+00  0.00000000000E+00  0.74505805969E-08  0.10566000000E+00  0.10566000000E+00 0.  1.
     999900   -1    0    0    0    0 -0.00000000000E+00 -0.00000000000E+00 -0.74505805969E-08  0.93827000000E+00  0.93827000000E+00 0. -1.
     999902    2    1    2    0    0  0.87809893006E-02  0.21390909294E-01  0.29898613570E-02  0.10206144249E+01  0.10203480721E+01 0.  0.
     999903    2    3    3    0    0  0.15209158048E-01 -0.11582385467E+00  0.50301421454E-01  0.12870209927E+00  0.19685364050E-01 0.  0.
         14    1    1    2    0    0 -0.87809893006E-02 -0.21390909294E-01 -0.29898613570E-02  0.23315575147E-01  0.00000000000E+00 0. -1.
     999901    1    3    3    0    0 -0.64281687478E-02  0.13721476396E+00 -0.47311560097E-01  0.89191232558E+00  0.88000000000E+00 0. -1.
        -11    1    4    4    0    0  0.21431651910E-02 -0.77641854704E-01  0.27825994567E-01  0.82506956395E-01  0.51100000000E-03 0. -1.
         11    1    4    4    0    0  0.13065992857E-01 -0.38181999965E-01  0.22475426887E-01  0.46195142877E-01  0.51100000000E-03 0.  1.
</event>
<event>
 8    1  0.1197213E+005  0.1043930E+01  0.7957747E-01            NaN
         13   -1    0    0    0    0  0.00000000000E+00  0.00000000000E+00  0.74505805969E-08  0.10566000000E+00  0.10566000000E+00 0.  1.
     999900   -1    0    0    0    0 -0.00000000000E+00 -0.00000000000E+00 -0.74505805969E-08  0.93827000000E+00  0.93827000000E+00 0.  1.
     999902    2    1    2    0    0 -0.26624885632E-01 -0.66096527087E-02 -0.27388916714E-06  0.10164969534E+01  0.10161267068E+01 0.  0.
     999903    2    3    3    0    0 -0.60960382093E-01  0.61460562930E-01  0.92739533790E-01  0.12834541653E+00  0.19451371066E-01 0.  0.
         14    1    1    2    0    0  0.26624885632E-01  0.66096527087E-02  0.27388916714E-06  0.27433046566E-01  0.00000000000E+00 0. -1.
     999901    1    3    3    0    0  0.34335496461E-01 -0.68070215639E-01 -0.92739807679E-01  0.88815153690E+00  0.88000000000E+00 0.  1.
        -11    1    4    4    0    0 -0.14202713377E-01  0.20261448636E-01  0.15926524474E-01  0.29430573745E-01  0.51100000000E-03 0. -1.
         11    1    4    4    0    0 -0.46757668716E-01  0.41199114294E-01  0.76813009315E-01  0.98914842786E-01  0.51100000000E-03 0.  1.
</event>
<event>
 8    1  0.1197213E+005  0.1043930E+01  0.7957747E-01            NaN
         13   -1    0    0    0    0  0.00000000000E+00  0.00000000000E+00  0.74505805969E-08  0.10566000000E+00  0.10566000000E+00 0. -1.
     999900   -1    0    0    0    0 -0.00000000000E+00 -0.00000000000E+00 -0.74505805969E-08  0.93827000000E+00  0.93827000000E+00 0. -1.
     999902    2    1    2    0    0 -0.17503614969E-01  0.74483484036E-02  0.13696154201E-01  0.10204898833E+01  0.10202206442E+01 0.  0.
     999903    2    3    3    0    0 -0.56469136037E-01 -0.11255999455E+00  0.31340557680E-01  0.13131518776E+00  0.20073173231E-01 0.  0.
         14    1    1    2    0    0  0.17503614969E-01 -0.74483484036E-02 -0.13696154201E-01  0.23440116698E-01  0.00000000000E+00 0.  1.
     999901    1    3    3    0    0  0.38965521068E-01  0.12000834295E+00 -0.17644403479E-01  0.88917469554E+00  0.88000000000E+00 0.  1.
        -11    1    4    4    0    0 -0.20835162918E-01 -0.47735743202E-01  0.32555101647E-02  0.52188740742E-01  0.51100000000E-03 0. -1.
         11    1    4    4    0    0 -0.35633973120E-01 -0.64824251350E-01  0.28085047515E-01  0.79126447022E-01  0.51100000000E-03 0.  1.
</event>
<event>
 8    1  0.1197213E+005  0.1043930E+01  0.7957747E-01            NaN
         13   -1    0    0    0    0  0.00000000000E+00  0.00000000000E+00  0.74505805969E-08  0.10566000000E+00  0.10566000000E+00 0. -1.
     999900   -1    0    0    0    0 -0.00000000000E+00 -0.00000000000E+00 -0.74505805969E-08  0.93827000000E+00  0.93827000000E+00 0. -1.
     999902    2    1    2    0    0 -0.17286502952E-02 -0.19437435323E-01  0.82292004048E-02  0.10227516652E+01  0.10225323696E+01 0.  0.
     999903    2    3    3    0    0  0.72400136268E-01 -0.10952718718E+00 -0.20837003889E-01  0.13457595930E+00  0.20940955762E-01 0.  0.
         14    1    1    2    0    0  0.17286502952E-02  0.19437435323E-01 -0.82292004048E-02  0.21178334757E-01  0.00000000000E+00 0.  1.
     999901    1    3    3    0    0 -0.74128786563E-01  0.90089751859E-01  0.29066204293E-01  0.88817570594E+00  0.88000000000E+00 0.  1.
        -11    1    4    4    0    0  0.27695731149E-01 -0.51300998849E-01 -0.13239078295E-03  0.58302012445E-01  0.51100000000E-03 0.  1.
         11    1    4    4    0    0  0.44704405119E-01 -0.58226188333E-01 -0.20704613106E-01  0.76273946860E-01  0.51100000000E-03 0. -1.
</event>
<event>
 8    1  0.1197213E+005  0.1043930E+01  0.7957747E-01            NaN
         13   -1    0    0    0    0  0.00000000000E+00  0.00000000000E+00  0.74505805969E-08  0.10566000000E+00  0.10566000000E+00 0.  1.
     999900   -1    0    0    0    0 -0.00000000000E+00 -0.00000000000E+00 -0.74505805969E-08  0.93827000000E+00  0.93827000000E+00 0. -1.
     999902    2    1    2    0    0  0.68765735093E-03 -0.24423427202E-01 -0.31820233834E-02  0.10192905613E+01  0.10189927116E+01 0.  0.
     999903    2    3    3    0    0 -0.48077342321E-01 -0.51928877358E-01  0.10779748923E+00  0.13055492722E+00  0.20402234923E-01 0.  0.
         14    1    1    2    0    0 -0.68765735093E-03  0.24423427202E-01  0.31820233834E-02  0.24639438747E-01  0.00000000000E+00 0.  1.
     999901    1    3    3    0    0  0.48764999672E-01  0.27505450156E-01 -0.11097951261E+00  0.88873563403E+00  0.88000000000E+00 0. -1.
        -11    1    4    4    0    0 -0.51016582200E-02 -0.83410483906E-02  0.30031184804E-01  0.31586914800E-01  0.51100000000E-03 0. -1.
         11    1    4    4    0    0 -0.42975684101E-01 -0.43587828968E-01  0.77766304422E-01  0.98968012420E-01  0.51100000000E-03 0.  1.
</event>
<event>
 8    1  0.1197213E+005  0.1043930E+01  0.7957747E-01            NaN
         13   -1    0    0    0    0  0.00000000000E+00  0.00000000000E+00  0.74505805969E-08  0.10566000000E+00  0.10566000000E+00 0. -1.
     999900   -1    0    0    0    0 -0.00000000000E+00 -0.00000000000E+00 -0.74505805969E-08  0.93827000000E+00  0.93827000000E+00 0.  1.
     999902    2    1    2    0    0  0.41528453795E-02 -0.25147903153E-01 -0.16727931342E-01  0.10134425133E+01  0.10129838305E+01 0.  0.
     999903    2    3    3    0    0  0.97058491644E-01  0.54443735048E-01  0.47321340545E-01  0.12267397030E+00  0.20618502202E-01 0.  0.
         14    1    1    2    0    0 -0.41528453795E-02  0.25147903153E-01  0.16727931342E-01  0.30487486691E-01  0.00000000000E+00 0. -1.
     999901    1    3    3    0    0 -0.92905646264E-01 -0.79591638201E-01 -0.64049271887E-01  0.89076854301E+00  0.88000000000E+00 0.  1.
        -11    1    4    4    0    0  0.60554849238E-01  0.44919514549E-01  0.33284617192E-01  0.82418319664E-01  0.51100000000E-03 0.  1.
         11    1    4    4    0    0  0.36503642406E-01  0.95242204991E-02  0.14036723352E-01  0.40255650640E-01  0.51100000000E-03 0. -1.
</event>
<event>
 8    1  0.1197213E+005  0.1043930E+01  0.7957747E-01            NaN
         13   -1    0    0    0    0  0.00000000000E+00  0.00000000000E+00  0.74505805969E-08  0.10566000000E+00  0.10566000000E+00 0. -1.
     999900   -1    0    0    0    0 -0.00000000000E+00 -0.00000000000E+00 -0.74505805969E-08  0.93827000000E+00  0.93827000000E+00 0. -1.
     999902    2    1    2    0    0 -0.51846347054E-02  0.74439958628E-02  0.27624019911E-01  0.10148545810E+01  0.10144379925E+01 0.  0.
     999903    2    3    3    0    0  0.12326739406E-01  0.23447660552E-01 -0.11792341027E+00  0.12258398311E+00  0.20473420196E-01 0.  0.
         14    1    1    2    0    0  0.51846347054E-02 -0.74439958628E-02 -0.27624019911E-01  0.29075418956E-01  0.00000000000E+00 0.  1.
     999901    1    3    3    0    0 -0.17511374111E-01 -0.16003664689E-01  0.14554743018E+00  0.89227059794E+00  0.88000000000E+00 0.  1.
        -11    1    4    4    0    0  0.92220054057E-03 -0.24915949766E-02 -0.31856242843E-01  0.31970921607E-01  0.51100000000E-03 0. -1.
         11    1    4    4    0    0  0.11404538865E-01  0.25939255529E-01 -0.86067167431E-01  0.90613061502E-01  0.51100000000E-03 0.  1.
</event>
<event>
 8    1  0.1197213E+005  0.1043930E+01  0.7957747E-01            NaN
         13   -1    0    0    0    0  0.00000000000E+00  0.00000000000E+00  0.74505805969E-08  0.10566000000E+00  0.10566000000E+00 0. -1.
     999900   -1    0    0    0    0 -0.00000000000E+00 -0.00000000000E+00 -0.74505805969E-08  0.93827000000E+00  0.93827000000E+00 0. -1.
     999902    2    1    2    0    0 -0.14568439456E-01  0.12605756879E-01  0.87170972786E-02  0.10227844965E+01  0.10225658873E+01 0.  0.
     999903    2    3    3    0    0 -0.27346250656E-02 -0.34184114075E-01  0.12734818649E+00  0.13351363418E+00  0.20791779158E-01 0.  0.
         14    1    1    2    0    0  0.14568439456E-01 -0.12605756879E-01 -0.87170972786E-02  0.21145503532E-01  0.00000000000E+00 0. -1.
     999901    1    3    3    0    0 -0.11833814390E-01  0.46789870955E-01 -0.11863108921E+00  0.88927086229E+00  0.88000000000E+00 0. -1.
        -11    1    4    4    0    0 -0.18731312582E-02 -0.18182565796E-01  0.10122054756E+00  0.10285900392E+00  0.51100000000E-03 0.  1.
         11    1    4    4    0    0 -0.86149380737E-03 -0.16001548280E-01  0.26127638932E-01  0.30654630256E-01  0.51100000000E-03 0. -1.
</event>
<event>
 8    1  0.1197213E+005  0.1043930E+01  0.7957747E-01            NaN
         13   -1    0    0    0    0  0.00000000000E+00  0.00000000000E+00  0.74505805969E-08  0.10566000000E+00  0.10566000000E+00 0. -1.
     999900   -1    0    0    0    0 -0.00000000000E+00 -0.00000000000E+00 -0.74505805969E-08  0.93827000000E+00  0.93827000000E+00 0.  1.
     999902    2    1    2    0    0 -0.52807140754E-02  0.21408539933E-01 -0.10562670650E-01  0.10194804287E+01  0.10191872071E+01 0.  0.
     999903    2    3    3    0    0 -0.90183048660E-01  0.12707655250E-01 -0.92875567977E-01  0.13152799484E+00  0.19474997626E-01 0.  0.
         14    1    1    2    0    0  0.52807140754E-02 -0.21408539933E-01  0.10562670650E-01  0.24449571253E-01  0.00000000000E+00 0. -1.
     999901    1    3    3    0    0  0.84902334585E-01  0.87008846826E-02  0.82312897327E-01  0.88795243391E+00  0.88000000000E+00 0. -1.
        -11    1    4    4    0    0 -0.62407628725E-01  0.17758216726E-01 -0.65614151930E-01  0.92279707623E-01  0.51100000000E-03 0.  1.
         11    1    4    4    0    0 -0.27775419935E-01 -0.50505614760E-02 -0.27261416046E-01  0.39248287219E-01  0.51100000000E-03 0. -1.
</event>
<event>
 8    1  0.1197213E+005  0.1043930E+01  0.7957747E-01            NaN
         13   -1    0    0    0    0  0.00000000000E+00  0.00000000000E+00  0.74505805969E-08  0.10566000000E+00  0.10566000000E+00 0. -1.
     999900   -1    0    0    0    0 -0.00000000000E+00 -0.00000000000E+00 -0.74505805969E-08  0.93827000000E+00  0.93827000000E+00 0.  1.
     999902    2    1    2    0    0  0.23605389253E-01 -0.60784960068E-03 -0.71202361681E-03  0.10203060532E+01  0.10200325247E+01 0.  0.
     999903    2    3    3    0    0 -0.81713606343E-01 -0.95792137755E-01 -0.18356405360E-01  0.12875489725E+00  0.19688037742E-01 0.  0.
         14    1    1    2    0    0 -0.23605389253E-01  0.60784960068E-03  0.71202361681E-03  0.23623946761E-01  0.00000000000E+00 0.  1.
     999901    1    3    3    0    0  0.10531899560E+00  0.95184288154E-01  0.17644381743E-01  0.89155115599E+00  0.88000000000E+00 0. -1.
        -11    1    4    4    0    0 -0.29830490368E-01 -0.21324299256E-01 -0.46976075202E-02  0.36971780208E-01  0.51100000000E-03 0.  1.
         11    1    4    4    0    0 -0.51883115975E-01 -0.74467838498E-01 -0.13658797840E-01  0.91783117039E-01  0.51100000000E-03 0. -1.
</event>
<event>
 8    1  0.1197213E+005  0.1043930E+01  0.7957747E-01            NaN
         13   -1    0    0    0    0  0.00000000000E+00  0.00000000000E+00  0.74505805969E-08  0.10566000000E+00  0.10566000000E+00 0.  1.
     999900   -1    0    0    0    0 -0.00000000000E+00 -0.00000000000E+00 -0.74505805969E-08  0.93827000000E+00  0.93827000000E+00 0.  1.
     999902    2    1    2    0    0 -0.11664785606E-01 -0.10519198247E-01  0.17853367488E-01  0.10201505239E+01  0.10198733391E+01 0.  0.
     999903    2    3    3    0    0 -0.65129169403E-01 -0.41611628781E-01  0.10690931307E+00  0.13349605846E+00  0.20451406934E-01 0.  0.
         14    1    1    2    0    0  0.11664785606E-01  0.10519198247E-01 -0.17853367488E-01  0.23779476144E-01  0.00000000000E+00 0.  1.
     999901    1    3    3    0    0  0.53464383797E-01  0.31092430533E-01 -0.89055945580E-01  0.88665446540E+00  0.88000000000E+00 0.  1.
        -11    1    4    4    0    0 -0.33497857038E-01 -0.93939853443E-02  0.46815063593E-01  0.58328935247E-01  0.51100000000E-03 0. -1.
         11    1    4    4    0    0 -0.31631312365E-01 -0.32217643436E-01  0.60094249475E-01  0.75167123209E-01  0.51100000000E-03 0.  1.
</event>
<event>
 8    1  0.1197213E+005  0.1043930E+01  0.7957747E-01            NaN
         13   -1    0    0    0    0  0.00000000000E+00  0.00000000000E+00  0.74505805969E-08  0.10566000000E+00  0.10566000000E+00 0.  1.
     999900   -1    0    0    0    0 -0.00000000000E+00 -0.00000000000E+00 -0.74505805969E-08  0.93827000000E+00  0.93827000000E+00 0. -1.
     999902    2    1    2    0    0 -0.15263030928E-01 -0.18709803147E-01  0.28002323990E-02  0.10196224261E+01  0.10193326413E+01 0.  0.
     999903    2    3    3    0    0 -0.10457880011E+00 -0.52153273008E-01  0.59543457453E-01  0.13265254731E+00  0.19864180473E-01 0.  0.
         14    1    1    2    0    0  0.15263030928E-01  0.18709803147E-01 -0.28002323990E-02  0.24307573890E-01  0.00000000000E+00 0.  1.
     999901    1    3    3    0    0  0.89315769181E-01  0.33443469861E-01 -0.56743225054E-01  0.88696987880E+00  0.88000000000E+00 0. -1.
        -11    1    4    4    0    0 -0.55385980345E-01 -0.33971264237E-01  0.23868084822E-01  0.69221385472E-01  0.51100000000E-03 0. -1.
         11    1    4    4    0    0 -0.49192819765E-01 -0.18182008771E-01  0.35675372632E-01  0.63431161843E-01  0.51100000000E-03 0.  1.
</event>
<event>
 8    1  0.1197213E+005  0.1043930E+01  0.7957747E-01            NaN
         13   -1    0    0    0    0  0.00000000000E+00  0.00000000000E+00  0.74505805969E-08  0.10566000000E+00  0.10566000000E+00 0. -1.
     999900   -1    0    0    0    0 -0.00000000000E+00 -0.00000000000E+00 -0.74505805969E-08  0.93827000000E+00  0.93827000000E+00 0. -1.
     999902    2    1    2    0    0  0.17715039006E-02  0.97580884429E-02  0.20855590169E-01  0.10208364044E+01  0.10205751567E+01 0.  0.
     999903    2    3    3    0    0 -0.83421684767E-01 -0.32924271970E-01 -0.90276413796E-01  0.12874336801E+00  0.19540694562E-01 0.  0.
         14    1    1    2    0    0 -0.17715039006E-02 -0.97580884429E-02 -0.20855590169E-01  0.23093595593E-01  0.00000000000E+00 0.  1.
     999901    1    3    3    0    0  0.85193188668E-01  0.42682360413E-01  0.11113200397E+00  0.89209303640E+00  0.88000000000E+00 0.  1.
        -11    1    4    4    0    0 -0.80704146532E-01 -0.28647086410E-01 -0.79624647482E-01  0.11693656586E+00  0.51100000000E-03 0.  1.
         11    1    4    4    0    0 -0.27175382352E-02 -0.42771855598E-02 -0.10651766314E-01  0.11806802149E-01  0.51100000000E-03 0. -1.
</event>
<event>
 8    1  0.1197213E+005  0.1043930E+01  0.7957747E-01            NaN
         13   -1    0    0    0    0  0.00000000000E+00  0.00000000000E+00  0.74505805969E-08  0.10566000000E+00  0.10566000000E+00 0. -1.
     999900   -1    0    0    0    0 -0.00000000000E+00 -0.00000000000E+00 -0.74505805969E-08  0.93827000000E+00  0.93827000000E+00 0.  1.
     999902    2    1    2    0    0 -0.11366480348E-01  0.17855755412E-01 -0.98658234068E-02  0.10205770698E+01  0.10203098530E+01 0.  0.
     999903    2    3    3    0    0  0.91457395902E-01  0.87636987230E-01  0.25275093210E-01  0.13115194432E+00  0.22744347992E-01 0.  0.
         14    1    1    2    0    0  0.11366480348E-01 -0.17855755412E-01  0.98658234068E-02  0.23352930187E-01  0.00000000000E+00 0. -1.
     999901    1    3    3    0    0 -0.10282387625E+00 -0.69781231818E-01 -0.35140916617E-01  0.88942512550E+00  0.88000000000E+00 0.  1.
        -11    1    4    4    0    0  0.55207242688E-01  0.37184027809E-01  0.13435446418E-01  0.67906287711E-01  0.51100000000E-03 0. -1.
         11    1    4    4    0    0  0.36250153214E-01  0.50452959421E-01  0.11839646792E-01  0.63245656607E-01  0.51100000000E-03 0.  1.
</event>
<event>
 8    1  0.1197213E+005  0.1043930E+01  0.7957747E-01            NaN
         13   -1    0    0    0    0  0.00000000000E+00  0.00000000000E+00  0.74505805969E-08  0.10566000000E+00  0.10566000000E+00 0.  1.
     999900   -1    0    0    0    0 -0.00000000000E+00 -0.00000000000E+00 -0.74505805969E-08  0.93827000000E+00  0.93827000000E+00 0. -1.
     999902    2    1    2    0    0  0.67606296593E-02 -0.76612696825E-02  0.20749199027E-01  0.10208014370E+01  0.10205393884E+01 0.  0.
     999903    2    3    3    0    0  0.11940334634E+00  0.16150700106E-01 -0.45935484539E-01  0.13080017938E+00  0.21922909391E-01 0.  0.
         14    1    1    2    0    0 -0.67606296593E-02  0.76612696825E-02 -0.20749199027E-01  0.23128563007E-01  0.00000000000E+00 0. -1.
     999901    1    3    3    0    0 -0.11264271668E+00 -0.23811969788E-01  0.66684683566E-01  0.89000125761E+00  0.88000000000E+00 0.  1.
        -11    1    4    4    0    0  0.13874903225E-01  0.88052587381E-02 -0.90608492245E-02  0.18772470019E-01  0.51100000000E-03 0. -1.
         11    1    4    4    0    0  0.10552844311E+00  0.73454413679E-02 -0.36874635315E-01  0.11202770936E+00  0.51100000000E-03 0.  1.
</event>
<event>
 8    1  0.1197213E+005  0.1043930E+01  0.7957747E-01            NaN
         13   -1    0    0    0    0  0.00000000000E+00  0.00000000000E+00  0.74505805969E-08  0.10566000000E+00  0.10566000000E+00 0.  1.
     999900   -1    0    0    0    0 -0.00000000000E+00 -0.00000000000E+00 -0.74505805969E-08  0.93827000000E+00  0.93827000000E+00 0. -1.
     999902    2    1    2    0    0 -0.71888476527E-02  0.20568303206E-01 -0.85929399520E-02  0.10205083595E+01  0.10202395496E+01 0.  0.
     999903    2    3    3    0    0  0.98537435943E-01  0.39042834947E-01  0.73220879786E-01  0.13022028450E+00  0.19027769577E-01 0.  0.
         14    1    1    2    0    0  0.71888476527E-02 -0.20568303206E-01  0.85929399520E-02  0.23421640514E-01  0.00000000000E+00 0.  1.
     999901    1    3    3    0    0 -0.10572628360E+00 -0.18474531741E-01 -0.81813819738E-01  0.89028807499E+00  0.88000000000E+00 0. -1.
        -11    1    4    4    0    0  0.14902226035E-01  0.13812033496E-01  0.13897434849E-01  0.24622112551E-01  0.51100000000E-03 0. -1.
         11    1    4    4    0    0  0.83635209908E-01  0.25230801451E-01  0.59323444937E-01  0.10559817195E+00  0.51100000000E-03 0.  1.
</event>
<event>
 8    1  0.1197213E+005  0.1043930E+01  0.7957747E-01            NaN
         13   -1    0    0    0    0  0.00000000000E+00  0.00000000000E+00  0.74505805969E-08  0.10566000000E+00  0.10566000000E+00 0. -1.
     999900   -1    0    0    0    0 -0.00000000000E+00 -0.00000000000E+00 -0.74505805969E-08  0.93827000000E+00  0.93827000000E+00 0.  1.
     999902    2    1    2    0    0  0.21603184050E-01 -0.72119188644E-02  0.48124401838E-02  0.10206519220E+01  0.10203864351E+01 0.  0.
     999903    2    3    3    0    0 -0.84827832979E-01  0.46411530652E-01 -0.82229639378E-01  0.12836309021E+00  0.19120091809E-01 0.  0.
         14    1    1    2    0    0 -0.21603184050E-01  0.72119188644E-02 -0.48124401838E-02  0.23278077999E-01  0.00000000000E+00 0.  1.
     999901    1    3    3    0    0  0.10643101703E+00 -0.53623449516E-01  0.87042079562E-01  0.89228883179E+00  0.88000000000E+00 0. -1.
        -11    1    4    4    0    0 -0.26267894023E-01  0.48534415969E-02 -0.23932699237E-01  0.35869114368E-01  0.51100000000E-03 0. -1.
         11    1    4    4    0    0 -0.58559938956E-01  0.41558089055E-01 -0.58296940141E-01  0.92493975843E-01  0.51100000000E-03 0.  1.
</event>
<event>
 8    1  0.1197213E+005  0.1043930E+01  0.7957747E-01            NaN
         13   -1    0    0    0    0  0.00000000000E+00  0.00000000000E+00  0.74505805969E-08  0.10566000000E+00  0.10566000000E+00 0.  1.
     999900   -1    0    0    0    0 -0.00000000000E+00 -0.00000000000E+00 -0.74505805969E-08  0.93827000000E+00  0.93827000000E+00 0.  1.
     999902    2    1    2    0    0 -0.67936104053E-02  0.22410850232E-01  0.52328812562E-02  0.10199345338E+01  0.10196522304E+01 0.  0.
     999903    2    3    3    0    0  0.29169913822E-01 -0.10514409001E+00  0.63771695648E-01  0.12808789306E+00  0.20821038576E-01 0.  0.
         14    1    1    2    0    0  0.67936104053E-02 -0.22410850232E-01 -0.52328812562E-02  0.23995466169E-01  0.00000000000E+00 0. -1.
     999901    1    3    3    0    0 -0.35963524228E-01  0.12755494024E+00 -0.58538814392E-01  0.89184664077E+00  0.88000000000E+00 0.  1.
        -11    1    4    4    0    0  0.20847140319E-01 -0.39096257508E-01  0.21725726768E-01  0.49349659930E-01  0.51100000000E-03 0.  1.
         11    1    4    4    0    0  0.83227735028E-02 -0.66047832502E-01  0.42045968880E-01  0.78738233135E-01  0.51100000000E-03 0. -1.
</event>
<event>
 8    1  0.1197213E+005  0.1043930E+01  0.7957747E-01            NaN
         13   -1    0    0    0    0  0.00000000000E+00  0.00000000000E+00  0.74505805969E-08  0.10566000000E+00  0.10566000000E+00 0. -1.
     999900   -1    0    0    0    0 -0.00000000000E+00 -0.00000000000E+00 -0.74505805969E-08  0.93827000000E+00  0.93827000000E+00 0. -1.
     999902    2    1    2    0    0 -0.65450101819E-02  0.10548614711E-01  0.19715938508E-01  0.10206313163E+01  0.10203653538E+01 0.  0.
     999903    2    3    3    0    0  0.86307350587E-01  0.45495794320E-01 -0.82326816749E-01  0.12919674767E+00  0.19881367804E-01 0.  0.
         14    1    1    2    0    0  0.65450101819E-02 -0.10548614711E-01 -0.19715938508E-01  0.23298683694E-01  0.00000000000E+00 0.  1.
     999901    1    3    3    0    0 -0.92852360769E-01 -0.34947179609E-01  0.10204275526E+00  0.89143456864E+00  0.88000000000E+00 0.  1.
        -11    1    4    4    0    0  0.70039928079E-01  0.40161135764E-01 -0.76164137186E-01  0.11099434790E+00  0.51100000000E-03 0.  1.
         11    1    4    4    0    0  0.16267422508E-01  0.53346585561E-02 -0.61626795634E-02  0.18202399770E-01  0.51100000000E-03 0. -1.
</event>
<event>
 8    1  0.1197213E+005  0.1043930E+01  0.7957747E-01            NaN
         13   -1    0    0    0    0  0.00000000000E+00  0.00000000000E+00  0.74505805969E-08  0.10566000000E+00  0.10566000000E+00 0.  1.
     999900   -1    0    0    0    0 -0.00000000000E+00 -0.00000000000E+00 -0.74505805969E-08  0.93827000000E+00  0.93827000000E+00 0. -1.
     999902    2    1    2    0    0 -0.19840089787E-04  0.98712383972E-02  0.22382357857E-01  0.10194675454E+01  0.10191740109E+01 0.  0.
     999903    2    3    3    0    0 -0.99164836398E-02 -0.11129246793E+00  0.63761191498E-01  0.13014713344E+00  0.19708798391E-01 0.  0.
         14    1    1    2    0    0  0.19840089787E-04 -0.98712383972E-02 -0.22382357857E-01  0.24462454586E-01  0.00000000000E+00 0.  1.
     999901    1    3    3    0    0  0.98966435500E-02  0.12116370633E+00 -0.41378833641E-01  0.88932041198E+00  0.88000000000E+00 0. -1.
        -11    1    4    4    0    0 -0.10941282940E-01 -0.43208424530E-01  0.17821092026E-01  0.48005542021E-01  0.51100000000E-03 0.  1.
         11    1    4    4    0    0  0.10247993002E-02 -0.68084043404E-01  0.45940099472E-01  0.82141591416E-01  0.51100000000E-03 0. -1.
</event>
<event>
 8    1  0.1197213E+005  0.1043930E+01  0.7957747E-01            NaN
         13   -1    0    0    0    0  0.00000000000E+00  0.00000000000E+00  0.74505805969E-08  0.10566000000E+00  0.10566000000E+00 0. -1.
     999900   -1    0    0    0    0 -0.00000000000E+00 -0.00000000000E+00 -0.74505805969E-08  0.93827000000E+00  0.93827000000E+00 0. -1.
     999902    2    1    2    0    0  0.20950166298E-01 -0.90818637954E-02  0.27725033787E-02  0.10209283372E+01  0.10206691889E+01 0.  0.
     999903    2    3    3    0    0 -0.10958280766E+00 -0.37191933731E-01  0.54193925184E-01  0.12937172319E+00  0.20209640375E-01 0.  0.
         14    1    1    2    0    0 -0.20950166298E-01  0.90818637954E-02 -0.27725033787E-02  0.23001662829E-01  0.00000000000E+00 0.  1.
     999901    1    3    3    0    0  0.13053297396E+00  0.28110069936E-01 -0.51421421805E-01  0.89155661399E+00  0.88000000000E+00 0.  1.
        -11    1    4    4    0    0 -0.11367797912E-01 -0.10168181712E-01  0.38223702238E-02  0.15731827097E-01  0.51100000000E-03 0.  1.
         11    1    4    4    0    0 -0.98215009747E-01 -0.27023752019E-01  0.50371554960E-01  0.11363989609E+00  0.51100000000E-03 0. -1.
</event>
<event>
 8    1  0.1197213E+005  0.1043930E+01  0.7957747E-01            NaN
         13   -1    0    0    0    0  0.00000000000E+00  0.00000000000E+00  0.74505805969E-08  0.10566000000E+00  0.10566000000E+00 0.  1.
     999900   -1    0    0    0    0 -0.00000000000E+00 -0.00000000000E+00 -0.74505805969E-08  0.93827000000E+00  0.93827000000E+00 0.  1.
     999902    2    1    2    0    0  0.11815403360E-01 -0.11825111005E-01  0.16207807276E-01  0.10206463142E+01  0.10203806979E+01 0.  0.
     999903    2    3    3    0    0 -0.68960805596E-01 -0.91219954057E-01  0.63538541857E-01  0.13212589494E+00  0.18531947718E-01 0.  0.
         14    1    1    2    0    0 -0.11815403360E-01  0.11825111005E-01 -0.16207807276E-01  0.23283685781E-01  0.00000000000E+00 0. -1.
     999901    1    3    3    0    0  0.80776208956E-01  0.79394843052E-01 -0.47330734581E-01  0.88852041928E+00  0.88000000000E+00 0.  1.
        -11    1    4    4    0    0 -0.55027479110E-01 -0.75009134962E-01  0.59314389370E-01  0.11033064711E+00  0.51100000000E-03 0.  1.
         11    1    4    4    0    0 -0.13933326485E-01 -0.16210819095E-01  0.42241524867E-02  0.21795247829E-01  0.51100000000E-03 0. -1.
</event>
<event>
 8    1  0.1197213E+005  0.1043930E+01  0.7957747E-01            NaN
         13   -1    0    0    0    0  0.00000000000E+00  0.00000000000E+00  0.74505805969E-08  0.10566000000E+00  0.10566000000E+00 0. -1.
     999900   -1    0    0    0    0 -0.00000000000E+00 -0.00000000000E+00 -0.74505805969E-08  0.93827000000E+00  0.93827000000E+00 0.  1.
     999902    2    1    2    0    0 -0.39458400232E-02  0.16664968420E-01  0.16067230476E-01  0.10204470973E+01  0.10201768629E+01 0.  0.
     999903    2    3    3    0    0  0.16239774713E-01 -0.11094912947E+00  0.62109854275E-01  0.12982218169E+00  0.20560283250E-01 0.  0.
         14    1    1    2    0    0  0.39458400232E-02 -0.16664968420E-01 -0.16067230476E-01  0.23482902740E-01  0.00000000000E+00 0.  1.
     999901    1    3    3    0    0 -0.20185614736E-01  0.12761409789E+00 -0.46042623799E-01  0.89062491557E+00  0.88000000000E+00 0.  1.
        -11    1    4    4    0    0  0.69867511985E-02 -0.44580160233E-01  0.13727843998E-01  0.47169059780E-01  0.51100000000E-03 0. -1.
         11    1    4    4    0    0  0.92530235142E-02 -0.66368969242E-01  0.48382010277E-01  0.82653121912E-01  0.51100000000E-03 0.  1.
</event>
<event>
 8    1  0.1197213E+005  0.1043930E+01  0.7957747E-01            NaN
         13   -1    0    0    0    0  0.00000000000E+00  0.00000000000E+00  0.74505805969E-08  0.10566000000E+00  0.10566000000E+00 0. -1.
     999900   -1    0    0    0    0 -0.00000000000E+00 -0.00000000000E+00 -0.74505805969E-08  0.93827000000E+00  0.93827000000E+00 0.  1.
     999902    2    1    2    0    0  0.41509800492E-03 -0.29596601452E-03  0.23699909540E-01  0.10202246079E+01  0.10199491678E+01 0.  0.
     999903    2    3    3    0    0 -0.59156624760E-01  0.15803632486E-01 -0.11065186613E+00  0.12789149362E+00  0.19056169811E-01 0.  0.
         14    1    1    2    0    0 -0.41509800492E-03  0.29596601452E-03 -0.23699909540E-01  0.23705392097E-01  0.00000000000E+00 0.  1.
     999901    1    3    3    0    0  0.59571722765E-01 -0.16099598501E-01  0.13435177567E+00  0.89233311429E+00  0.88000000000E+00 0. -1.
        -11    1    4    4    0    0 -0.48274716626E-01  0.13835789891E-01 -0.10250561624E+00  0.11414700973E+00  0.51100000000E-03 0.  1.
         11    1    4    4    0    0 -0.10881908134E-01  0.19678425949E-02 -0.81462498914E-02  0.13744483890E-01  0.51100000000E-03 0. -1.
</event>
<event>
 8    1  0.1197213E+005  0.1043930E+01  0.7957747E-01            NaN
         13   -1    0    0    0    0  0.00000000000E+00  0.00000000000E+00  0.74505805969E-08  0.10566000000E+00  0.10566000000E+00 0.  1.
     999900   -1    0    0    0    0 -0.00000000000E+00 -0.00000000000E+00 -0.74505805969E-08  0.93827000000E+00  0.93827000000E+00 0. -1.
     999902    2    1    2    0    0 -0.98099759929E-02  0.85128795178E-02 -0.19503614730E-01  0.10204972081E+01  0.10202281392E+01 0.  0.
     999903    2    3    3    0    0  0.39501963398E-01 -0.99287200079E-01 -0.73006489687E-01  0.13093828252E+00  0.19913138403E-01 0.  0.
         14    1    1    2    0    0  0.98099759929E-02 -0.85128795178E-02  0.19503614730E-01  0.23432791856E-01  0.00000000000E+00 0. -1.
     999901    1    3    3    0    0 -0.49311939391E-01  0.10780007960E+00  0.53502874958E-01  0.88955892562E+00  0.88000000000E+00 0. -1.
        -11    1    4    4    0    0  0.33229186823E-01 -0.62183428528E-01 -0.53788469751E-01  0.88681555239E-01  0.51100000000E-03 0.  1.
         11    1    4    4    0    0  0.62727765755E-02 -0.37103771551E-01 -0.19218019936E-01  0.42256727281E-01  0.51100000000E-03 0. -1.
</event>
<event>
 8    1  0.1197213E+005  0.1043930E+01  0.7957747E-01            NaN
         13   -1    0    0    0    0  0.00000000000E+00  0.00000000000E+00  0.74505805969E-08  0.10566000000E+00  0.10566000000E+00 0. -1.
     999900   -1    0    0    0    0 -0.00000000000E+00 -0.00000000000E+00 -0.74505805969E-08  0.93827000000E+00  0.93827000000E+00 0.  1.
     999902    2    1    2    0    0 -0.15647788299E-01  0.17723542009E-01  0.46871693339E-04  0.10202872545E+01  0.10200132853E+01 0.  0.
     999903    2    3    3    0    0  0.89665568366E-01  0.12851172304E-01 -0.91187352279E-01  0.12931120163E+00  0.14184035806E-01 0.  0.
         14    1    1    2    0    0  0.15647788299E-01 -0.17723542009E-01 -0.46871693339E-04  0.23642745546E-01  0.00000000000E+00 0. -1.
     999901    1    3    3    0    0 -0.10531335667E+00  0.48723697049E-02  0.91234223973E-01  0.89097605282E+00  0.88000000000E+00 0. -1.
        -11    1    4    4    0    0  0.94554416845E-02  0.51835349243E-02 -0.14473306884E-01  0.18055806404E-01  0.51100000000E-03 0. -1.
         11    1    4    4    0    0  0.80210126682E-01  0.76676373797E-02 -0.76714045396E-01  0.11125539523E+00  0.51100000000E-03 0.  1.
</event>
<event>
 8    1  0.1197213E+005  0.1043930E+01  0.7957747E-01            NaN
         13   -1    0    0    0    0  0.00000000000E+00  0.00000000000E+00  0.74505805969E-08  0.10566000000E+00  0.10566000000E+00 0. -1.
     999900   -1    0    0    0    0 -0.00000000000E+00 -0.00000000000E+00 -0.74505805969E-08  0.93827000000E+00  0.93827000000E+00 0.  1.
     999902    2    1    2    0    0 -0.13814611512E-01  0.10252215535E-01 -0.15765389086E-01  0.10205954996E+01  0.10203287093E+01 0.  0.
     999903    2    3    3    0    0  0.11056283940E+00 -0.95233626457E-02  0.61270102211E-01  0.12829774063E+00  0.19785068484E-01 0.  0.
         14    1    1    2    0    0  0.13814611512E-01 -0.10252215535E-01  0.15765389086E-01  0.23334500373E-01  0.00000000000E+00 0. -1.
     999901    1    3    3    0    0 -0.12437745091E+00  0.19775578181E-01 -0.77035491297E-01  0.89229775899E+00  0.88000000000E+00 0.  1.
        -11    1    4    4    0    0  0.87812603133E-01 -0.61219839387E-03  0.52613903004E-01  0.10237144116E+00  0.51100000000E-03 0. -1.
         11    1    4    4    0    0  0.22750236264E-01 -0.89111642519E-02  0.86561992077E-02  0.25926299468E-01  0.51100000000E-03 0.  1.
</event>
<event>
 8    1  0.1197213E+005  0.1043930E+01  0.7957747E-01            NaN
         13   -1    0    0    0    0  0.00000000000E+00  0.00000000000E+00  0.74505805969E-08  0.10566000000E+00  0.10566000000E+00 0. -1.
     999900   -1    0    0    0    0 -0.00000000000E+00 -0.00000000000E+00 -0.74505805969E-08  0.93827000000E+00  0.93827000000E+00 0.  1.
     999902    2    1    2    0    0  0.15440802039E-01  0.88014127431E-02  0.67894800078E-02  0.10249042208E+01  0.10247276134E+01 0.  0.
     999903    2    3    3    0    0 -0.11983736112E+00 -0.32465342994E-01 -0.41522502042E-01  0.13230286852E+00  0.19103382587E-01 0.  0.
         14    1    1    2    0    0 -0.15440802039E-01 -0.88014127431E-02 -0.67894800078E-02  0.19025779161E-01  0.00000000000E+00 0.  1.
     999901    1    3    3    0    0  0.13527816316E+00  0.41266755738E-01  0.48311982049E-01  0.89260135232E+00  0.88000000000E+00 0. -1.
        -11    1    4    4    0    0 -0.38629435252E-01 -0.56716271645E-02 -0.21097459995E-01  0.44382029718E-01  0.51100000000E-03 0.  1.
         11    1    4    4    0    0 -0.81207925868E-01 -0.26793715830E-01 -0.20425042046E-01  0.87920838800E-01  0.51100000000E-03 0. -1.
</event>
<event>
 8    1  0.1197213E+005  0.1043930E+01  0.7957747E-01            NaN
         13   -1    0    0    0    0  0.00000000000E+00  0.00000000000E+00  0.74505805969E-08  0.10566000000E+00  0.10566000000E+00 0.  1.
     999900   -1    0    0    0    0 -0.00000000000E+00 -0.00000000000E+00 -0.74505805969E-08  0.93827000000E+00  0.93827000000E+00 0. -1.
     999902    2    1    2    0    0  0.12834500997E-01 -0.11478174837E-01  0.17119241298E-01  0.10196495277E+01  0.10193603965E+01 0.  0.
     999903    2    3    3    0    0 -0.72493402444E-01 -0.88658755919E-01  0.59221020163E-01  0.13116190650E+00  0.24096640624E-01 0.  0.
         14    1    1    2    0    0 -0.12834500997E-01  0.11478174837E-01 -0.17119241298E-01  0.24280472320E-01  0.00000000000E+00 0. -1.
     999901    1    3    3    0    0  0.85327903441E-01  0.77180581082E-01 -0.42101778865E-01  0.88848762118E+00  0.88000000000E+00 0. -1.
        -11    1    4    4    0    0 -0.64449896032E-01 -0.74359788061E-01  0.40905838589E-01  0.10656789353E+00  0.51100000000E-03 0.  1.
         11    1    4    4    0    0 -0.80435064113E-02 -0.14298967858E-01  0.18315181574E-01  0.24594012976E-01  0.51100000000E-03 0. -1.
</event>
<event>
 8    1  0.1197213E+005  0.1043930E+01  0.7957747E-01            NaN
         13   -1    0    0    0    0  0.00000000000E+00  0.00000000000E+00  0.74505805969E-08  0.10566000000E+00  0.10566000000E+00 0.  1.
     999900   -1    0    0    0    0 -0.00000000000E+00 -0.00000000000E+00 -0.74505805969E-08  0.93827000000E+00  0.93827000000E+00 0. -1.
     999902    2    1    2    0    0  0.23176885505E-01 -0.43055939287E-02 -0.44901428472E-03  0.10203523034E+01  0.10200798574E+01 0.  0.
     999903    2    3    3    0    0 -0.23641650702E-01  0.62172457998E-01  0.10975884541E+00  0.12975863681E+00  0.19130015667E-01 0.  0.
         14    1    1    2    0    0 -0.23176885505E-01  0.43055939287E-02  0.44901428472E-03  0.23577696551E-01  0.00000000000E+00 0.  1.
     999901    1    3    3    0    0  0.46818536207E-01 -0.66478051927E-01 -0.11020785969E+00  0.89059366664E+00  0.88000000000E+00 0. -1.
        -11    1    4    4    0    0 -0.26651017639E-01  0.50237902563E-01  0.88954502071E-01  0.10558071867E+00  0.51100000000E-03 0. -1.
         11    1    4    4    0    0  0.30093669369E-02  0.11934555435E-01  0.20804343339E-01  0.24177918140E-01  0.51100000000E-03 0.  1.
</event>
<event>
 8    1  0.1197213E+005  0.1043930E+01  0.7957747E-01            NaN
         13   -1    0    0    0    0  0.00000000000E+00  0.00000000000E+00  0.74505805969E-08  0.10566000000E+00  0.10566000000E+00 0. -1.
     999900   -1    0    0    0    0 -0.00000000000E+00 -0.00000000000E+00 -0.74505805969E-08  0.93827000000E+00  0.93827000000E+00 0. -1.
     999902    2    1    2    0    0  0.59229430377E-03  0.25502017360E-01 -0.97024234098E-02  0.10166382298E+01  0.10162718384E+01 0.  0.
     999903    2    3    3    0    0  0.81462454022E-01  0.98419067019E-01 -0.12881918326E-01  0.12992125799E+00  0.19777393402E-01 0.  0.
         14    1    1    2    0    0 -0.59229430377E-03 -0.25502017360E-01  0.97024234098E-02  0.27291770225E-01  0.00000000000E+00 0.  1.
     999901    1    3    3    0    0 -0.80870159718E-01 -0.72917049659E-01  0.31794949157E-02  0.88671697179E+00  0.88000000000E+00 0. -1.
        -11    1    4    4    0    0  0.17172816018E-01  0.34647202864E-01 -0.21571153605E-02  0.38733042018E-01  0.51100000000E-03 0. -1.
         11    1    4    4    0    0  0.64289638004E-01  0.63771864155E-01 -0.10724802965E-01  0.91188215972E-01  0.51100000000E-03 0.  1.
</event>
<event>
 8    1  0.1197213E+005  0.1043930E+01  0.7957747E-01            NaN
         13   -1    0    0    0    0  0.00000000000E+00  0.00000000000E+00  0.74505805969E-08  0.10566000000E+00  0.10566000000E+00 0. -1.
     999900   -1    0    0    0    0 -0.00000000000E+00 -0.00000000000E+00 -0.74505805969E-08  0.93827000000E+00  0.93827000000E+00 0. -1.
     999902    2    1    2    0    0  0.20284549743E-01 -0.11777741065E-01 -0.30211232499E-02  0.10202803630E+01  0.10200062323E+01 0.  0.
     999903    2    3    3    0    0 -0.11414064912E+00 -0.53188642414E-01  0.19960123936E-01  0.12881351869E+00  0.18368358293E-01 0.  0.
         14    1    1    2    0    0 -0.20284549743E-01  0.11777741065E-01  0.30211232499E-02  0.23649636965E-01  0.00000000000E+00 0.  1.
     999901    1    3    3    0    0  0.13442519887E+00  0.41410901349E-01 -0.22981247186E-01  0.89146684434E+00  0.88000000000E+00 0.  1.
        -11    1    4    4    0    0 -0.79255689045E-01 -0.33979797047E-01  0.53816697330E-02  0.86402050575E-01  0.51100000000E-03 0. -1.
         11    1    4    4    0    0 -0.34884960077E-01 -0.19208845367E-01  0.14578454203E-01  0.42411468117E-01  0.51100000000E-03 0.  1.
</event>
<event>
 8    1  0.1197213E+005  0.1043930E+01  0.7957747E-01            NaN
         13   -1    0    0    0    0  0.00000000000E+00  0.00000000000E+00  0.74505805969E-08  0.10566000000E+00  0.10566000000E+00 0.  1.
     999900   -1    0    0    0    0 -0.00000000000E+00 -0.00000000000E+00 -0.74505805969E-08  0.93827000000E+00  0.93827000000E+00 0. -1.
     999902    2    1    2    0    0  0.21719822599E-01 -0.39505356614E-02  0.12291006570E-02  0.10218196379E+01  0.10215803954E+01 0.  0.
     999903    2    3    3    0    0 -0.50938849572E-01 -0.65434179711E-01 -0.99527895994E-01  0.13097088891E+00  0.19265860740E-01 0.  0.
         14    1    1    2    0    0 -0.21719822599E-01  0.39505356614E-02 -0.12291006570E-02  0.22110362145E-01  0.00000000000E+00 0. -1.
     999901    1    3    3    0    0  0.72658672171E-01  0.61483644049E-01  0.10075699665E+00  0.89084874895E+00  0.88000000000E+00 0. -1.
        -11    1    4    4    0    0 -0.29742221792E-01 -0.43179243275E-01 -0.48642357082E-01  0.71521932513E-01  0.51100000000E-03 0. -1.
         11    1    4    4    0    0 -0.21196627781E-01 -0.22254936436E-01 -0.50885538912E-01  0.59448956395E-01  0.51100000000E-03 0.  1.
</event>
<event>
 8    1  0.1197213E+005  0.1043930E+01  0.7957747E-01            NaN
         13   -1    0    0    0    0  0.00000000000E+00  0.00000000000E+00  0.74505805969E-08  0.10566000000E+00  0.10566000000E+00 0. -1.
     999900   -1    0    0    0    0 -0.00000000000E+00 -0.00000000000E+00 -0.74505805969E-08  0.93827000000E+00  0.93827000000E+00 0.  1.
     999902    2    1    2    0    0 -0.25996138175E-01  0.20160994914E-02 -0.15680482143E-01  0.10135040016E+01  0.10130471953E+01 0.  0.
     999903    2    3    3    0    0  0.63130929488E-01  0.46151008481E-01  0.90794731923E-01  0.12152390342E+00  0.20222411202E-01 0.  0.
         14    1    1    2    0    0  0.25996138175E-01 -0.20160994914E-02  0.15680482143E-01  0.30425998380E-01  0.00000000000E+00 0. -1.
     999901    1    3    3    0    0 -0.89127067662E-01 -0.44134908989E-01 -0.10647521407E+00  0.89198009820E+00  0.88000000000E+00 0.  1.
        -11    1    4    4    0    0  0.10471230238E-01  0.17706007437E-01  0.28306724647E-01  0.34995444608E-01  0.51100000000E-03 0. -1.
         11    1    4    4    0    0  0.52659699250E-01  0.28445001044E-01  0.62488007276E-01  0.86528458809E-01  0.51100000000E-03 0.  1.
</event>
<event>
 8    1  0.1197213E+005  0.1043930E+01  0.7957747E-01            NaN
         13   -1    0    0    0    0  0.00000000000E+00  0.00000000000E+00  0.74505805969E-08  0.10566000000E+00  0.10566000000E+00 0.  1.
     999900   -1    0    0    0    0 -0.00000000000E+00 -0.00000000000E+00 -0.74505805969E-08  0.93827000000E+00  0.93827000000E+00 0. -1.
     999902    2    1    2    0    0  0.20947312218E-01  0.88702452399E-02  0.64108801380E-02  0.10202959034E+01  0.10200221370E+01 0.  0.
     999903    2    3    3    0    0 -0.92078093991E-01  0.17498093326E-01 -0.81556949155E-01  0.12867517615E+00  0.33484419324E-01 0.  0.
         14    1    1    2    0    0 -0.20947312218E-01 -0.88702452399E-02 -0.64108801380E-02  0.23634096638E-01  0.00000000000E+00 0. -1.
     999901    1    3    3    0    0  0.11302540621E+00 -0.86278480865E-02  0.87967829293E-01  0.89162072722E+00  0.88000000000E+00 0.  1.
        -11    1    4    4    0    0 -0.70484297814E-01  0.27251411546E-01 -0.58031370461E-01  0.95281565626E-01  0.51100000000E-03 0. -1.
         11    1    4    4    0    0 -0.21593796177E-01 -0.97533182193E-02 -0.23525578695E-01  0.33393610519E-01  0.51100000000E-03 0.  1.
</event>
<event>
 8    1  0.1197213E+005  0.1043930E+01  0.7957747E-01            NaN
         13   -1    0    0    0    0  0.00000000000E+00  0.00000000000E+00  0.74505805969E-08  0.10566000000E+00  0.10566000000E+00 0. -1.
     999900   -1    0    0    0    0 -0.00000000000E+00 -0.00000000000E+00 -0.74505805969E-08  0.93827000000E+00  0.93827000000E+00 0. -1.
     999902    2    1    2    0    0 -0.26263387141E-01  0.56963997826E-02 -0.13854806084E-02  0.10170202614E+01  0.10166641914E+01 0.  0.
     999903    2    3    3    0    0 -0.29649750691E-01  0.12008595663E+00 -0.31675579428E-01  0.12909350302E+00  0.19027493121E-01 0.  0.
         14    1    1    2    0    0  0.26263387141E-01 -0.56963997826E-02  0.13854806084E-02  0.26909738592E-01  0.00000000000E+00 0. -1.
     999901    1    3    3    0    0  0.33863635498E-02 -0.11438955685E+00  0.30290098820E-01  0.88792675839E+00  0.88000000000E+00 0.  1.
        -11    1    4    4    0    0 -0.90383469837E-02  0.74428588995E-01 -0.16821496473E-01  0.76840942476E-01  0.51100000000E-03 0.  1.
         11    1    4    4    0    0 -0.20611403707E-01  0.45657367634E-01 -0.14854082955E-01  0.52252560544E-01  0.51100000000E-03 0. -1.
</event>
<event>
 8    1  0.1197213E+005  0.1043930E+01  0.7957747E-01            NaN
         13   -1    0    0    0    0  0.00000000000E+00  0.00000000000E+00  0.74505805969E-08  0.10566000000E+00  0.10566000000E+00 0.  1.
     999900   -1    0    0    0    0 -0.00000000000E+00 -0.00000000000E+00 -0.74505805969E-08  0.93827000000E+00  0.93827000000E+00 0.  1.
     999902    2    1    2    0    0 -0.19329795935E-01  0.70190983203E-02  0.92567747795E-02  0.10213779129E+01  0.10211289068E+01 0.  0.
     999903    2    3    3    0    0 -0.11387003372E+00 -0.19410096993E-01  0.65146038690E-01  0.13415755205E+00  0.20275748336E-01 0.  0.
         14    1    1    2    0    0  0.19329795935E-01 -0.70190983203E-02 -0.92567747795E-02  0.22552087075E-01  0.00000000000E+00 0. -1.
     999901    1    3    3    0    0  0.94540237786E-01  0.26429195313E-01 -0.55889263911E-01  0.88722036087E+00  0.88000000000E+00 0.  1.
        -11    1    4    4    0    0 -0.73920595678E-01 -0.99961379301E-02  0.31060577677E-01  0.80803451941E-01  0.51100000000E-03 0.  1.
         11    1    4    4    0    0 -0.39949438044E-01 -0.94139590630E-02  0.34085461013E-01  0.53354100112E-01  0.51100000000E-03 0. -1.
</event>
<event>
 8    1  0.1197213E+005  0.1043930E+01  0.7957747E-01            NaN
         13   -1    0    0    0    0  0.00000000000E+00  0.00000000000E+00  0.74505805969E-08  0.10566000000E+00  0.10566000000E+00 0. -1.
     999900   -1    0    0    0    0 -0.00000000000E+00 -0.00000000000E+00 -0.74505805969E-08  0.93827000000E+00  0.93827000000E+00 0.  1.
     999902    2    1    2    0    0  0.11348912132E-01 -0.13492611517E-01 -0.15982013004E-01  0.10201335063E+01  0.10198559200E+01 0.  0.
     999903    2    3    3    0    0  0.12894580151E+00  0.16331515675E-01  0.39740747998E-02  0.13158595418E+00  0.20132857153E-01 0.  0.
         14    1    1    2    0    0 -0.11348912132E-01  0.13492611517E-01  0.15982013004E-01  0.23796493686E-01  0.00000000000E+00 0. -1.
     999901    1    3    3    0    0 -0.11759688938E+00 -0.29824127192E-01 -0.19956087803E-01  0.88854755213E+00  0.88000000000E+00 0.  1.
        -11    1    4    4    0    0  0.88170671128E-01  0.20533964589E-01  0.27042590475E-02  0.90571988423E-01  0.51100000000E-03 0. -1.
         11    1    4    4    0    0  0.40775130381E-01 -0.42024489138E-02  0.12698157524E-02  0.41013965762E-01  0.51100000000E-03 0.  1.
</event>
<event>
 8    1  0.1197213E+005  0.1043930E+01  0.7957747E-01            NaN
         13   -1    0    0    0    0  0.00000000000E+00  0.00000000000E+00  0.74505805969E-08  0.10566000000E+00  0.10566000000E+00 0.  1.
     999900   -1    0    0    0    0 -0.00000000000E+00 -0.00000000000E+00 -0.74505805969E-08  0.93827000000E+00  0.93827000000E+00 0. -1.
     999902    2    1    2    0    0 -0.38578047928E-02  0.12646545281E-01  0.18484814036E-01  0.10212032291E+01  0.10209503068E+01 0.  0.
     999903    2    3    3    0    0 -0.80806742255E-01 -0.38393468175E-01  0.96353951502E-01  0.13295223726E+00  0.19708511595E-01 0.  0.
         14    1    1    2    0    0  0.38578047928E-02 -0.12646545281E-01 -0.18484814036E-01  0.22726770895E-01  0.00000000000E+00 0. -1.
     999901    1    3    3    0    0  0.76948937462E-01  0.51040013456E-01 -0.77869137466E-01  0.88825099185E+00  0.88000000000E+00 0. -1.
        -11    1    4    4    0    0 -0.62772024010E-01 -0.20632237072E-01  0.73627300358E-01  0.98930564963E-01  0.51100000000E-03 0.  1.
         11    1    4    4    0    0 -0.18034718245E-01 -0.17761231103E-01  0.22726651144E-01  0.34021672294E-01  0.51100000000E-03 0. -1.
</event>
<event>
 8    1  0.1197213E+005  0.1043930E+01  0.7957747E-01            NaN
         13   -1    0    0    0    0  0.00000000000E+00  0.00000000000E+00  0.74505805969E-08  0.10566000000E+00  0.10566000000E+00 0.  1.
     999900   -1    0    0    0    0 -0.00000000000E+00 -0.00000000000E+00 -0.74505805969E-08  0.93827000000E+00  0.93827000000E+00 0.  1.
     999902    2    1    2    0    0  0.18570040044E-01  0.13073103013E-01 -0.84451515910E-02  0.10197004108E+01  0.10194125047E+01 0.  0.
     999903    2    3    3    0    0 -0.11542733992E+00  0.52464148735E-01 -0.10122894526E-01  0.12868426772E+00  0.19524601476E-01 0.  0.
         14    1    1    2    0    0 -0.18570040044E-01 -0.13073103013E-01  0.84451515910E-02  0.24229589246E-01  0.00000000000E+00 0.  1.
     999901    1    3    3    0    0  0.13399737996E+00 -0.39391045722E-01  0.16777429350E-02  0.89101614303E+00  0.88000000000E+00 0. -1.
        -11    1    4    4    0    0 -0.71690404774E-01  0.22050339661E-01 -0.53996705952E-02  0.75200725923E-01  0.51100000000E-03 0.  1.
         11    1    4    4    0    0 -0.43736935144E-01  0.30413809073E-01 -0.47232239308E-02  0.53483541800E-01  0.51100000000E-03 0. -1.
</event>
<event>
 8    1  0.1197213E+005  0.1043930E+01  0.7957747E-01            NaN
         13   -1    0    0    0    0  0.00000000000E+00  0.00000000000E+00  0.74505805969E-08  0.10566000000E+00  0.10566000000E+00 0.  1.
     999900   -1    0    0    0    0 -0.00000000000E+00 -0.00000000000E+00 -0.74505805969E-08  0.93827000000E+00  0.93827000000E+00 0.  1.
     999902    2    1    2    0    0 -0.16403756271E-01  0.17448564656E-01 -0.10065004458E-01  0.10179523184E+01  0.10176207951E+01 0.  0.
     999903    2    3    3    0    0  0.10129707529E+00 -0.12722679158E-01  0.71386063615E-01  0.12587717232E+00  0.18059025571E-01 0.  0.
         14    1    1    2    0    0  0.16403756271E-01 -0.17448564656E-01  0.10065004458E-01  0.25977681634E-01  0.00000000000E+00 0.  1.
     999901    1    3    3    0    0 -0.11770083156E+00  0.30171243814E-01 -0.81451068073E-01  0.89207514605E+00  0.88000000000E+00 0.  1.
        -11    1    4    4    0    0  0.52622779483E-01 -0.15353427316E-02  0.45688460922E-01  0.69708039567E-01  0.51100000000E-03 0.  1.
         11    1    4    4    0    0  0.48674295810E-01 -0.11187336427E-01  0.25697602693E-01  0.56169132752E-01  0.51100000000E-03 0. -1.
</event>
<event>
 8    1  0.1197213E+005  0.1043930E+01  0.7957747E-01            NaN
         13   -1    0    0    0    0  0.00000000000E+00  0.00000000000E+00  0.74505805969E-08  0.10566000000E+00  0.10566000000E+00 0. -1.
     999900   -1    0    0    0    0 -0.00000000000E+00 -0.00000000000E+00 -0.74505805969E-08  0.93827000000E+00  0.93827000000E+00 0. -1.
     999902    2    1    2    0    0  0.11531946843E-01  0.15029503734E-01 -0.14021794232E-01  0.10203613239E+01  0.10200890886E+01 0.  0.
     999903    2    3    3    0    0  0.47408321482E-01 -0.65138331962E-01  0.98687610179E-01  0.12883599840E+00  0.19207260182E-01 0.  0.
         14    1    1    2    0    0 -0.11531946843E-01 -0.15029503734E-01  0.14021794232E-01  0.23568676118E-01  0.00000000000E+00 0. -1.
     999901    1    3    3    0    0 -0.35876374640E-01  0.80167835696E-01 -0.11270940441E+00  0.89152532548E+00  0.88000000000E+00 0. -1.
        -11    1    4    4    0    0  0.36614423164E-01 -0.36353742846E-01  0.68375275691E-01  0.85660084341E-01  0.51100000000E-03 0.  1.
         11    1    4    4    0    0  0.10793898319E-01 -0.28784589116E-01  0.30312334489E-01  0.43175914057E-01  0.51100000000E-03 0. -1.
</event>
<event>
 8    1  0.1197213E+005  0.1043930E+01  0.7957747E-01            NaN
         13   -1    0    0    0    0  0.00000000000E+00  0.00000000000E+00  0.74505805969E-08  0.10566000000E+00  0.10566000000E+00 0. -1.
     999900   -1    0    0    0    0 -0.00000000000E+00 -0.00000000000E+00 -0.74505805969E-08  0.93827000000E+00  0.93827000000E+00 0.  1.
     999902    2    1    2    0    0  0.12116638718E-01 -0.80619498087E-02 -0.20936483681E-01  0.10184320723E+01  0.10181128334E+01 0.  0.
     999903    2    3    3    0    0 -0.35031158694E-01 -0.10230682336E-01 -0.12433771235E+00  0.13112184904E+00  0.20030567691E-01 0.  0.
         14    1    1    2    0    0 -0.12116638718E-01  0.80619498087E-02  0.20936483681E-01  0.25497927709E-01  0.00000000000E+00 0. -1.
     999901    1    3    3    0    0  0.47147797412E-01  0.21687325269E-02  0.10340122867E+00  0.88731022325E+00  0.88000000000E+00 0. -1.
        -11    1    4    4    0    0 -0.12678824930E-01 -0.66964592575E-02 -0.80670179703E-01  0.81936159188E-01  0.51100000000E-03 0. -1.
         11    1    4    4    0    0 -0.22352333764E-01 -0.35342230780E-02 -0.43667532647E-01  0.49185689849E-01  0.51100000000E-03 0.  1.
</event>
<event>
 8    1  0.1197213E+005  0.1043930E+01  0.7957747E-01            NaN
         13   -1    0    0    0    0  0.00000000000E+00  0.00000000000E+00  0.74505805969E-08  0.10566000000E+00  0.10566000000E+00 0. -1.
     999900   -1    0    0    0    0 -0.00000000000E+00 -0.00000000000E+00 -0.74505805969E-08  0.93827000000E+00  0.93827000000E+00 0. -1.
     999902    2    1    2    0    0  0.97523297471E-02 -0.20474507193E-01  0.90503803606E-02  0.10195123268E+01  0.10192198790E+01 0.  0.
     999903    2    3    3    0    0  0.11671087882E+00 -0.58447841679E-01 -0.96386555705E-02  0.13202633512E+00  0.17334071957E-01 0.  0.
         14    1    1    2    0    0 -0.97523297471E-02  0.20474507193E-01 -0.90503803606E-02  0.24417673209E-01  0.00000000000E+00 0. -1.
     999901    1    3    3    0    0 -0.10695854908E+00  0.37973334486E-01  0.18689035931E-01  0.88748599167E+00  0.88000000000E+00 0.  1.
        -11    1    4    4    0    0  0.57541373747E-01 -0.33868919770E-01 -0.12313760086E-01  0.67897004555E-01  0.51100000000E-03 0. -1.
         11    1    4    4    0    0  0.59169505076E-01 -0.24578921909E-01  0.26751045154E-02  0.64129330562E-01  0.51100000000E-03 0.  1.
</event>
<event>
 8    1  0.1197213E+005  0.1043930E+01  0.7957747E-01            NaN
         13   -1    0    0    0    0  0.00000000000E+00  0.00000000000E+00  0.74505805969E-08  0.10566000000E+00  0.10566000000E+00 0.  1.
     999900   -1    0    0    0    0 -0.00000000000E+00 -0.00000000000E+00 -0.74505805969E-08  0.93827000000E+00  0.93827000000E+00 0.  1.
     999902    2    1    2    0    0 -0.65053854425E-02 -0.10988589524E-01  0.19975735194E-01  0.10202213700E+01  0.10199458538E+01 0.  0.
     999903    2    3    3    0    0  0.11579058189E+00  0.40216456096E-01 -0.33590502863E-01  0.12867910955E+00  0.20128814121E-01 0.  0.
         14    1    1    2    0    0  0.65053854425E-02  0.10988589524E-01 -0.19975735194E-01  0.23708629990E-01  0.00000000000E+00 0. -1.
     999901    1    3    3    0    0 -0.12229596733E+00 -0.51205045620E-01  0.53566238057E-01  0.89154226046E+00  0.88000000000E+00 0. -1.
        -11    1    4    4    0    0  0.72015548811E-01  0.34395701135E-01 -0.17738882318E-01  0.81757156226E-01  0.51100000000E-03 0.  1.
         11    1    4    4    0    0  0.43775033076E-01  0.58207549604E-02 -0.15851620545E-01  0.46921953327E-01  0.51100000000E-03 0. -1.
</event>
<event>
 8    1  0.1197213E+005  0.1043930E+01  0.7957747E-01            NaN
         13   -1    0    0    0    0  0.00000000000E+00  0.00000000000E+00  0.74505805969E-08  0.10566000000E+00  0.10566000000E+00 0. -1.
     999900   -1    0    0    0    0 -0.00000000000E+00 -0.00000000000E+00 -0.74505805969E-08  0.93827000000E+00  0.93827000000E+00 0. -1.
     999902    2    1    2    0    0 -0.23026934645E-01  0.43660188772E-02  0.27474942160E-02  0.10203323187E+01  0.10200594051E+01 0.  0.
     999903    2    3    3    0    0  0.12183205618E+00  0.48757483945E-02 -0.32738225990E-01  0.12778337133E+00  0.19747802699E-01 0.  0.
         14    1    1    2    0    0  0.23026934645E-01 -0.43660188772E-02 -0.27474942160E-02  0.23597681336E-01  0.00000000000E+00 0. -1.
     999901    1    3    3    0    0 -0.14485899083E+00 -0.50972951726E-03  0.35485720206E-01  0.89254894733E+00  0.88000000000E+00 0.  1.
        -11    1    4    4    0    0  0.50902111803E-01  0.82313931768E-02 -0.21586829613E-01  0.55901995970E-01  0.51100000000E-03 0.  1.
         11    1    4    4    0    0  0.70929944379E-01 -0.33556447824E-02 -0.11151396377E-01  0.71881375361E-01  0.51100000000E-03 0. -1.
</event>
<event>
 8    1  0.1197213E+005  0.1043930E+01  0.7957747E-01            NaN
         13   -1    0    0    0    0  0.00000000000E+00  0.00000000000E+00  0.74505805969E-08  0.10566000000E+00  0.10566000000E+00 0. -1.
     999900   -1    0    0    0    0 -0.00000000000E+00 -0.00000000000E+00 -0.74505805969E-08  0.93827000000E+00  0.93827000000E+00 0.  1.
     999902    2    1    2    0    0  0.23007914139E-03  0.13586368736E-01 -0.19895530006E-01  0.10198369623E+01  0.10195523308E+01 0.  0.
     999903    2    3    3    0    0  0.11474597357E+00 -0.56501978846E-01 -0.44633840406E-02  0.12951993018E+00  0.19909255460E-01 0.  0.
         14    1    1    2    0    0 -0.23007914139E-03 -0.13586368736E-01  0.19895530006E-01  0.24093037709E-01  0.00000000000E+00 0. -1.
     999901    1    3    3    0    0 -0.11451589442E+00  0.70088347581E-01 -0.15432145965E-01  0.89031703211E+00  0.88000000000E+00 0. -1.
        -11    1    4    4    0    0  0.65835526171E-01 -0.31665149119E-01  0.72833623233E-02  0.73418707852E-01  0.51100000000E-03 0.  1.
         11    1    4    4    0    0  0.48910447395E-01 -0.24836829727E-01 -0.11746746364E-01  0.56101222326E-01  0.51100000000E-03 0. -1.
</event>
<event>
 8    1  0.1197213E+005  0.1043930E+01  0.7957747E-01            NaN
         13   -1    0    0    0    0  0.00000000000E+00  0.00000000000E+00  0.74505805969E-08  0.10566000000E+00  0.10566000000E+00 0.  1.
     999900   -1    0    0    0    0 -0.00000000000E+00 -0.00000000000E+00 -0.74505805969E-08  0.93827000000E+00  0.93827000000E+00 0.  1.
     999902    2    1    2    0    0 -0.15290183489E-01  0.12937538943E-01  0.12052410830E-01  0.10205541528E+01  0.10202864052E+01 0.  0.
     999903    2    3    3    0    0 -0.29897969682E-01  0.63736907518E-01 -0.10836137347E+00  0.13078258509E+00  0.20139894079E-01 0.  0.
         14    1    1    2    0    0  0.15290183489E-01 -0.12937538943E-01 -0.12052410830E-01  0.23375847190E-01  0.00000000000E+00 0. -1.
     999901    1    3    3    0    0  0.14607786193E-01 -0.50799368575E-01  0.12041378430E+00  0.88977156771E+00  0.88000000000E+00 0. -1.
        -11    1    4    4    0    0 -0.24836007306E-01  0.46513036848E-01 -0.94027939895E-01  0.10780447327E+00  0.51100000000E-03 0. -1.
         11    1    4    4    0    0 -0.50619623768E-02  0.17223870670E-01 -0.14333433571E-01  0.22978111822E-01  0.51100000000E-03 0.  1.
</event>
<event>
 8    1  0.1197213E+005  0.1043930E+01  0.7957747E-01            NaN
         13   -1    0    0    0    0  0.00000000000E+00  0.00000000000E+00  0.74505805969E-08  0.10566000000E+00  0.10566000000E+00 0. -1.
     999900   -1    0    0    0    0 -0.00000000000E+00 -0.00000000000E+00 -0.74505805969E-08  0.93827000000E+00  0.93827000000E+00 0. -1.
     999902    2    1    2    0    0  0.16290800487E-02 -0.75082571389E-02 -0.23499197620E-01  0.10192067293E+01  0.10189068244E+01 0.  0.
     999903    2    3    3    0    0  0.35530403798E-01 -0.49656120715E-01  0.10980786672E+00  0.12752488266E+00  0.21833189981E-01 0.  0.
         14    1    1    2    0    0 -0.16290800487E-02  0.75082571389E-02  0.23499197620E-01  0.24723270736E-01  0.00000000000E+00 0. -1.
     999901    1    3    3    0    0 -0.33901323749E-01  0.42147863576E-01 -0.13330706435E+00  0.89168184660E+00  0.88000000000E+00 0. -1.
        -11    1    4    4    0    0  0.15938850718E-01 -0.15844593950E-01  0.22194293184E-01  0.31590281584E-01  0.51100000000E-03 0.  1.
         11    1    4    4    0    0  0.19591553080E-01 -0.33811526766E-01  0.87613573541E-01  0.95934601078E-01  0.51100000000E-03 0. -1.
</event>
<event>
 8    1  0.1197213E+005  0.1043930E+01  0.7957747E-01            NaN
         13   -1    0    0    0    0  0.00000000000E+00  0.00000000000E+00  0.74505805969E-08  0.10566000000E+00  0.10566000000E+00 0.  1.
     999900   -1    0    0    0    0 -0.00000000000E+00 -0.00000000000E+00 -0.74505805969E-08  0.93827000000E+00  0.93827000000E+00 0. -1.
     999902    2    1    2    0    0  0.23490776573E-01  0.12751271456E-01 -0.28143434079E-02  0.10170537645E+01  0.10166985924E+01 0.  0.
     999903    2    3    3    0    0  0.22633597710E-02  0.97996148781E-01 -0.81862282506E-01  0.12915406911E+00  0.19260641143E-01 0.  0.
         14    1    1    2    0    0 -0.23490776573E-01 -0.12751271456E-01  0.28143434079E-02  0.26876235536E-01  0.00000000000E+00 0. -1.
     999901    1    3    3    0    0  0.21227416802E-01 -0.85244877325E-01  0.79047939098E-01  0.88789969535E+00  0.88000000000E+00 0.  1.
        -11    1    4    4    0    0  0.66192316866E-02  0.55294956001E-01 -0.35879936109E-01  0.66249357155E-01  0.51100000000E-03 0. -1.
         11    1    4    4    0    0 -0.43558719156E-02  0.42701192780E-01 -0.45982346397E-01  0.62904711955E-01  0.51100000000E-03 0.  1.
</event>
<event>
 8    1  0.1197213E+005  0.1043930E+01  0.7957747E-01            NaN
         13   -1    0    0    0    0  0.00000000000E+00  0.00000000000E+00  0.74505805969E-08  0.10566000000E+00  0.10566000000E+00 0. -1.
     999900   -1    0    0    0    0 -0.00000000000E+00 -0.00000000000E+00 -0.74505805969E-08  0.93827000000E+00  0.93827000000E+00 0.  1.
     999902    2    1    2    0    0  0.91040657800E-02  0.95631203879E-02 -0.19352967206E-01  0.10205019266E+01  0.10202329673E+01 0.  0.
     999903    2    3    3    0    0 -0.37231778717E-01  0.11841773514E+00  0.36065389549E-01  0.13085731667E+00  0.20345998650E-01 0.  0.
         14    1    1    2    0    0 -0.91040657800E-02 -0.95631203879E-02  0.19352967206E-01  0.23428073437E-01  0.00000000000E+00 0. -1.
     999901    1    3    3    0    0  0.46335844497E-01 -0.10885461475E+00 -0.55418356756E-01  0.88964460989E+00  0.88000000000E+00 0.  1.
        -11    1    4    4    0    0 -0.16892010664E-01  0.30469004185E-01  0.40494060430E-02  0.35076474318E-01  0.51100000000E-03 0. -1.
         11    1    4    4    0    0 -0.20339768052E-01  0.87948730958E-01  0.32015983506E-01  0.95780842356E-01  0.51100000000E-03 0.  1.
</event>
<event>
 8    1  0.1197213E+005  0.1043930E+01  0.7957747E-01            NaN
         13   -1    0    0    0    0  0.00000000000E+00  0.00000000000E+00  0.74505805969E-08  0.10566000000E+00  0.10566000000E+00 0.  1.
     999900   -1    0    0    0    0 -0.00000000000E+00 -0.00000000000E+00 -0.74505805969E-08  0.93827000000E+00  0.93827000000E+00 0.  1.
     999902    2    1    2    0    0  0.97654876478E-02 -0.20631439033E-01 -0.47859855870E-02  0.10206077642E+01  0.10203412574E+01 0.  0.
     999903    2    3    3    0    0  0.26901047986E-01 -0.52493740055E-01  0.11590612682E+00  0.13163340029E+00  0.20343615928E-01 0.  0.
         14    1    1    2    0    0 -0.97654876478E-02  0.20631439033E-01  0.47859855870E-02  0.23322235820E-01  0.00000000000E+00 0. -1.
     999901    1    3    3    0    0 -0.17135560338E-01  0.31862301021E-01 -0.12069211241E+00  0.88897436389E+00  0.88000000000E+00 0.  1.
        -11    1    4    4    0    0  0.18758589646E-01 -0.37741798219E-01  0.60613510332E-01  0.73828089330E-01  0.51100000000E-03 0.  1.
         11    1    4    4    0    0  0.81424583402E-02 -0.14751941836E-01  0.55292616492E-01  0.57805310961E-01  0.51100000000E-03 0. -1.
</event>
<event>
 8    1  0.1197213E+005  0.1043930E+01  0.7957747E-01            NaN
         13   -1    0    0    0    0  0.00000000000E+00  0.00000000000E+00  0.74505805969E-08  0.10566000000E+00  0.10566000000E+00 0.  1.
     999900   -1    0    0    0    0 -0.00000000000E+00 -0.00000000000E+00 -0.74505805969E-08  0.93827000000E+00  0.93827000000E+00 0.  1.
     999902    2    1    2    0    0 -0.19602095700E-01 -0.12898411982E-01 -0.13305095830E-02  0.10204272035E+01  0.10201565057E+01 0.  0.
     999903    2    3    3    0    0  0.10562415985E+00  0.61001684842E-01 -0.34919497784E-01  0.12786288676E+00  0.15870658060E-01 0.  0.
         14    1    1    2    0    0  0.19602095700E-01  0.12898411982E-01  0.13305095830E-02  0.23502796498E-01  0.00000000000E+00 0. -1.
     999901    1    3    3    0    0 -0.12522625555E+00 -0.73900096824E-01  0.33588988201E-01  0.89256431674E+00  0.88000000000E+00 0. -1.
        -11    1    4    4    0    0  0.42959953336E-01  0.29096832664E-01 -0.22025722758E-01  0.56369999519E-01  0.51100000000E-03 0.  1.
         11    1    4    4    0    0  0.62664206516E-01  0.31904852178E-01 -0.12893775026E-01  0.71492887242E-01  0.51100000000E-03 0. -1.
</event>
<event>
 8    1  0.1197213E+005  0.1043930E+01  0.7957747E-01            NaN
         13   -1    0    0    0    0  0.00000000000E+00  0.00000000000E+00  0.74505805969E-08  0.10566000000E+00  0.10566000000E+00 0. -1.
     999900   -1    0    0    0    0 -0.00000000000E+00 -0.00000000000E+00 -0.74505805969E-08  0.93827000000E+00  0.93827000000E+00 0. -1.
     999902    2    1    2    0    0 -0.10568522221E-01  0.19914187621E-01  0.39179408753E-02  0.10210472818E+01  0.10207908370E+01 0.  0.
     999903    2    3    3    0    0  0.18025637698E-03  0.23457438220E-01  0.12855180211E+00  0.13219313730E+00  0.19979384952E-01 0.  0.
         14    1    1    2    0    0  0.10568522221E-01 -0.19914187621E-01 -0.39179408753E-02  0.22882718178E-01  0.00000000000E+00 0.  1.
     999901    1    3    3    0    0 -0.10748778598E-01 -0.35432505995E-02 -0.12463386124E+00  0.88885414452E+00  0.88000000000E+00 0. -1.
        -11    1    4    4    0    0 -0.88882921184E-02  0.49274410899E-02  0.43033842483E-01  0.44220517097E-01  0.51100000000E-03 0. -1.
         11    1    4    4    0    0  0.90685484954E-02  0.18529997130E-01  0.85517959628E-01  0.87972620203E-01  0.51100000000E-03 0.  1.
</event>
<event>
 8    1  0.1197213E+005  0.1043930E+01  0.7957747E-01            NaN
         13   -1    0    0    0    0  0.00000000000E+00  0.00000000000E+00  0.74505805969E-08  0.10566000000E+00  0.10566000000E+00 0. -1.
     999900   -1    0    0    0    0 -0.00000000000E+00 -0.00000000000E+00 -0.74505805969E-08  0.93827000000E+00  0.93827000000E+00 0.  1.
     999902    2    1    2    0    0 -0.15332762138E-01 -0.12498417847E-01 -0.12378293809E-01  0.10205949148E+01  0.10203281109E+01 0.  0.
     999903    2    3    3    0    0 -0.52521858837E-01 -0.92197870794E-01  0.75569049117E-01  0.13184873797E+00  0.20357197370E-01 0.  0.
         14    1    1    2    0    0  0.15332762138E-01  0.12498417847E-01  0.12378293809E-01  0.23335085196E-01  0.00000000000E+00 0. -1.
     999901    1    3    3    0    0  0.37189096699E-01  0.79699452946E-01 -0.87947342926E-01  0.88874617684E+00  0.88000000000E+00 0.  1.
        -11    1    4    4    0    0 -0.12224239922E-01 -0.30634030855E-01  0.13721322589E-01  0.35726904465E-01  0.51100000000E-03 0.  1.
         11    1    4    4    0    0 -0.40297618915E-01 -0.61563839939E-01  0.61847726528E-01  0.96121833503E-01  0.51100000000E-03 0. -1.
</event>
<event>
 8    1  0.1197213E+005  0.1043930E+01  0.7957747E-01            NaN
         13   -1    0    0    0    0  0.00000000000E+00  0.00000000000E+00  0.74505805969E-08  0.10566000000E+00  0.10566000000E+00 0.  1.
     999900   -1    0    0    0    0 -0.00000000000E+00 -0.00000000000E+00 -0.74505805969E-08  0.93827000000E+00  0.93827000000E+00 0. -1.
     999902    2    1    2    0    0 -0.15453777831E-01 -0.57810275722E-02  0.16796744455E-01  0.10203849336E+01  0.10201132498E+01 0.  0.
     999903    2    3    3    0    0  0.70931145286E-01 -0.10505337050E+00  0.24338618124E-01  0.13056796763E+00  0.19702482398E-01 0.  0.
         14    1    1    2    0    0  0.15453777831E-01  0.57810275722E-02 -0.16796744455E-01  0.23545066433E-01  0.00000000000E+00 0. -1.
     999901    1    3    3    0    0 -0.86384923117E-01  0.99272342932E-01 -0.75418736681E-02  0.88981696594E+00  0.88000000000E+00 0. -1.
        -11    1    4    4    0    0  0.56975960572E-01 -0.87231005753E-01  0.27365595699E-01  0.10772485970E+00  0.51100000000E-03 0. -1.
         11    1    4    4    0    0  0.13955184715E-01 -0.17822364751E-01 -0.30269775757E-02  0.22843107932E-01  0.51100000000E-03 0.  1.
</event>
<event>
 8    1  0.1197213E+005  0.1043930E+01  0.7957747E-01            NaN
         13   -1    0    0    0    0  0.00000000000E+00  0.00000000000E+00  0.74505805969E-08  0.10566000000E+00  0.10566000000E+00 0.  1.
     999900   -1    0    0    0    0 -0.00000000000E+00 -0.00000000000E+00 -0.74505805969E-08  0.93827000000E+00  0.93827000000E+00 0.  1.
     999902    2    1    2    0    0 -0.51407653402E-02 -0.21026297745E-01 -0.17144331663E-02  0.10222165952E+01  0.10219859567E+01 0.  0.
     999903    2    3    3    0    0  0.45755163925E-01  0.75378595833E-01 -0.93695252084E-01  0.13073200751E+00  0.23164407782E-01 0.  0.
         14    1    1    2    0    0  0.51407653402E-02  0.21026297745E-01  0.17144331663E-02  0.21713404759E-01  0.00000000000E+00 0. -1.
     999901    1    3    3    0    0 -0.50895929265E-01 -0.96404893578E-01  0.91980818917E-01  0.89148458774E+00  0.88000000000E+00 0. -1.
        -11    1    4    4    0    0  0.38082167385E-01  0.68878275548E-01 -0.71394461041E-01  0.10626334506E+00  0.51100000000E-03 0.  1.
         11    1    4    4    0    0  0.76729965397E-02  0.65003202853E-02 -0.22300791042E-01  0.24468662445E-01  0.51100000000E-03 0. -1.
</event>
<event>
 8    1  0.1197213E+005  0.1043930E+01  0.7957747E-01            NaN
         13   -1    0    0    0    0  0.00000000000E+00  0.00000000000E+00  0.74505805969E-08  0.10566000000E+00  0.10566000000E+00 0. -1.
     999900   -1    0    0    0    0 -0.00000000000E+00 -0.00000000000E+00 -0.74505805969E-08  0.93827000000E+00  0.93827000000E+00 0. -1.
     999902    2    1    2    0    0 -0.14517766614E-01  0.27388428017E-02 -0.18293986499E-01  0.10204153929E+01  0.10201444198E+01 0.  0.
     999903    2    3    3    0    0  0.48080385700E-01 -0.11034705605E+00  0.41941284971E-01  0.12893615186E+00  0.19423274752E-01 0.  0.
         14    1    1    2    0    0  0.14517766614E-01 -0.27388428017E-02  0.18293986499E-01  0.23514607149E-01  0.00000000000E+00 0. -1.
     999901    1    3    3    0    0 -0.62598152314E-01  0.11308589885E+00 -0.60235271470E-01  0.89147924099E+00  0.88000000000E+00 0.  1.
        -11    1    4    4    0    0  0.12986399158E-01 -0.31169243988E-01  0.27761824976E-02  0.33884165095E-01  0.51100000000E-03 0. -1.
         11    1    4    4    0    0  0.35093986542E-01 -0.79177812065E-01  0.39165102473E-01  0.95051986763E-01  0.51100000000E-03 0.  1.
</event>
<event>
 8    1  0.1197213E+005  0.1043930E+01  0.7957747E-01            NaN
         13   -1    0    0    0    0  0.00000000000E+00  0.00000000000E+00  0.74505805969E-08  0.10566000000E+00  0.10566000000E+00 0.  1.
     999900   -1    0    0    0    0 -0.00000000000E+00 -0.00000000000E+00 -0.74505805969E-08  0.93827000000E+00  0.93827000000E+00 0.  1.
     999902    2    1    2    0    0 -0.11237246529E-02 -0.38780066349E-02  0.20484287612E-01  0.10230515965E+01  0.10228385315E+01 0.  0.
     999903    2    3    3    0    0 -0.56306093302E-01 -0.87421787608E-01 -0.78679552646E-01  0.13183999182E+00  0.19451641259E-01 0.  0.
         14    1    1    2    0    0  0.11237246529E-02  0.38780066349E-02 -0.20484287612E-01  0.20878403471E-01  0.00000000000E+00 0. -1.
     999901    1    3    3    0    0  0.55182368649E-01  0.83543780973E-01  0.99163840258E-01  0.89121160471E+00  0.88000000000E+00 0. -1.
        -11    1    4    4    0    0 -0.11447507193E-01 -0.34730733704E-01 -0.26156998784E-01  0.44963529566E-01  0.51100000000E-03 0. -1.
         11    1    4    4    0    0 -0.44858586108E-01 -0.52691053903E-01 -0.52522553861E-01  0.86876462257E-01  0.51100000000E-03 0.  1.
</event>
<event>
 8    1  0.1197213E+005  0.1043930E+01  0.7957747E-01            NaN
         13   -1    0    0    0    0  0.00000000000E+00  0.00000000000E+00  0.74505805969E-08  0.10566000000E+00  0.10566000000E+00 0.  1.
     999900   -1    0    0    0    0 -0.00000000000E+00 -0.00000000000E+00 -0.74505805969E-08  0.93827000000E+00  0.93827000000E+00 0. -1.
     999902    2    1    2    0    0 -0.63084415873E-02  0.22030711892E-01 -0.59459756217E-02  0.10202550485E+01  0.10199803237E+01 0.  0.
     999903    2    3    3    0    0 -0.69042557223E-01  0.38249165749E-01 -0.10438688443E+00  0.13239851729E+00  0.20071680336E-01 0.  0.
         14    1    1    2    0    0  0.63084415873E-02 -0.22030711892E-01  0.59459756217E-02  0.23674951486E-01  0.00000000000E+00 0. -1.
     999901    1    3    3    0    0  0.62734115635E-01 -0.16218453856E-01  0.98440908808E-01  0.88785653122E+00  0.88000000000E+00 0.  1.
        -11    1    4    4    0    0 -0.38989695299E-01  0.15651245352E-01 -0.41060678570E-01  0.58748602249E-01  0.51100000000E-03 0. -1.
         11    1    4    4    0    0 -0.30052861923E-01  0.22597920397E-01 -0.63326205859E-01  0.73649915041E-01  0.51100000000E-03 0.  1.
</event>
<event>
 8    1  0.1197213E+005  0.1043930E+01  0.7957747E-01            NaN
         13   -1    0    0    0    0  0.00000000000E+00  0.00000000000E+00  0.74505805969E-08  0.10566000000E+00  0.10566000000E+00 0.  1.
     999900   -1    0    0    0    0 -0.00000000000E+00 -0.00000000000E+00 -0.74505805969E-08  0.93827000000E+00  0.93827000000E+00 0. -1.
     999902    2    1    2    0    0  0.10546382213E-01 -0.15641059090E-01 -0.48112580658E-02  0.10244616382E+01  0.10242766379E+01 0.  0.
     999903    2    3    3    0    0 -0.10693291971E+00 -0.31561678581E-01  0.70390521123E-01  0.13333305034E+00  0.19801211485E-01 0.  0.
         14    1    1    2    0    0 -0.10546382213E-01  0.15641059090E-01  0.48112580658E-02  0.19468361807E-01  0.00000000000E+00 0. -1.
     999901    1    3    3    0    0  0.11747930192E+00  0.15920619490E-01 -0.75201779188E-01  0.89112858786E+00  0.88000000000E+00 0. -1.
        -11    1    4    4    0    0 -0.77666848169E-01 -0.19920364936E-01  0.60059524506E-01  0.10018167422E+00  0.51100000000E-03 0. -1.
         11    1    4    4    0    0 -0.29266071537E-01 -0.11641313645E-01  0.10330996616E-01  0.33151376120E-01  0.51100000000E-03 0.  1.
</event>
<event>
 8    1  0.1197213E+005  0.1043930E+01  0.7957747E-01            NaN
         13   -1    0    0    0    0  0.00000000000E+00  0.00000000000E+00  0.74505805969E-08  0.10566000000E+00  0.10566000000E+00 0. -1.
     999900   -1    0    0    0    0 -0.00000000000E+00 -0.00000000000E+00 -0.74505805969E-08  0.93827000000E+00  0.93827000000E+00 0. -1.
     999902    2    1    2    0    0 -0.20313790537E-01  0.69008981600E-02  0.99887508955E-02  0.10202646746E+01  0.10199901758E+01 0.  0.
     999903    2    3    3    0    0  0.11801552665E+00  0.36683716973E-01 -0.29325851296E-01  0.12809448107E+00  0.16578024753E-01 0.  0.
         14    1    1    2    0    0  0.20313790537E-01 -0.69008981600E-02 -0.99887508955E-02  0.23665325391E-01  0.00000000000E+00 0.  1.
     999901    1    3    3    0    0 -0.13832931719E+00 -0.29782818813E-01  0.39314602192E-01  0.89217019354E+00  0.88000000000E+00 0. -1.
        -11    1    4    4    0    0  0.90451581550E-01  0.24960469849E-01 -0.15519981070E-01  0.95108593689E-01  0.51100000000E-03 0. -1.
         11    1    4    4    0    0  0.27563945103E-01  0.11723247124E-01 -0.13805870226E-01  0.32985887383E-01  0.51100000000E-03 0.  1.
</event>
<event>
 8    1  0.1197213E+005  0.1043930E+01  0.7957747E-01            NaN
         13   -1    0    0    0    0  0.00000000000E+00  0.00000000000E+00  0.74505805969E-08  0.10566000000E+00  0.10566000000E+00 0.  1.
     999900   -1    0    0    0    0 -0.00000000000E+00 -0.00000000000E+00 -0.74505805969E-08  0.93827000000E+00  0.93827000000E+00 0. -1.
     999902    2    1    2    0    0 -0.80370390687E-02 -0.16846704035E-01 -0.13792745264E-01  0.10207212677E+01  0.10204573784E+01 0.  0.
     999903    2    3    3    0    0  0.40817273633E-01  0.12020376960E+00  0.40884212080E-02  0.12859498049E+00  0.20123562424E-01 0.  0.
         14    1    1    2    0    0  0.80370390687E-02  0.16846704035E-01  0.13792745264E-01  0.23208732316E-01  0.00000000000E+00 0.  1.
     999901    1    3    3    0    0 -0.48854312701E-01 -0.13705047364E+00 -0.17881166472E-01  0.89212628720E+00  0.88000000000E+00 0.  1.
        -11    1    4    4    0    0  0.14229949891E-01  0.18999074710E-01 -0.16315335090E-02  0.23798725519E-01  0.51100000000E-03 0.  1.
         11    1    4    4    0    0  0.26587323742E-01  0.10120469489E+00  0.57199547170E-02  0.10479625497E+00  0.51100000000E-03 0. -1.
</event>
<event>
 8    1  0.1197213E+005  0.1043930E+01  0.7957747E-01            NaN
         13   -1    0    0    0    0  0.00000000000E+00  0.00000000000E+00  0.74505805969E-08  0.10566000000E+00  0.10566000000E+00 0.  1.
     999900   -1    0    0    0    0 -0.00000000000E+00 -0.00000000000E+00 -0.74505805969E-08  0.93827000000E+00  0.93827000000E+00 0.  1.
     999902    2    1    2    0    0 -0.12868956069E-01  0.18849798005E-03 -0.19863781588E-01  0.10202611306E+01  0.10199865485E+01 0.  0.
     999903    2    3    3    0    0  0.90549541085E-01  0.71263585880E-01  0.52851271835E-01  0.12838976502E+00  0.20321337639E-01 0.  0.
         14    1    1    2    0    0  0.12868956069E-01 -0.18849798005E-03  0.19863781588E-01  0.23668869444E-01  0.00000000000E+00 0.  1.
     999901    1    3    3    0    0 -0.10341849715E+00 -0.71075087900E-01 -0.72715053423E-01  0.89187136554E+00  0.88000000000E+00 0.  1.
        -11    1    4    4    0    0  0.27106083278E-01  0.29174334561E-01  0.10165123311E-01  0.41103192098E-01  0.51100000000E-03 0. -1.
         11    1    4    4    0    0  0.63443457808E-01  0.42089251319E-01  0.42686148524E-01  0.87286572919E-01  0.51100000000E-03 0.  1.
</event>
<event>
 8    1  0.1197213E+005  0.1043930E+01  0.7957747E-01            NaN
         13   -1    0    0    0    0  0.00000000000E+00  0.00000000000E+00  0.74505805969E-08  0.10566000000E+00  0.10566000000E+00 0. -1.
     999900   -1    0    0    0    0 -0.00000000000E+00 -0.00000000000E+00 -0.74505805969E-08  0.93827000000E+00  0.93827000000E+00 0. -1.
     999902    2    1    2    0    0  0.11759494103E-01  0.12074724165E-01  0.16435056421E-01  0.10203886376E+01  0.10201170403E+01 0.  0.
     999903    2    3    3    0    0  0.65793252920E-01 -0.88625623760E-01 -0.64416451588E-01  0.12932344719E+00  0.19794480091E-01 0.  0.
         14    1    1    2    0    0 -0.11759494103E-01 -0.12074724165E-01 -0.16435056421E-01  0.23541362424E-01  0.00000000000E+00 0.  1.
     999901    1    3    3    0    0 -0.54033758817E-01  0.10070034793E+00  0.80851508009E-01  0.89106519038E+00  0.88000000000E+00 0.  1.
        -11    1    4    4    0    0  0.32735410885E-01 -0.57275420645E-01 -0.31447849780E-01  0.73084261730E-01  0.51100000000E-03 0. -1.
         11    1    4    4    0    0  0.33057842035E-01 -0.31350203115E-01 -0.32968601808E-01  0.56239185463E-01  0.51100000000E-03 0.  1.
</event>
<event>
 8    1  0.1197213E+005  0.1043930E+01  0.7957747E-01            NaN
         13   -1    0    0    0    0  0.00000000000E+00  0.00000000000E+00  0.74505805969E-08  0.10566000000E+00  0.10566000000E+00 0. -1.
     999900   -1    0    0    0    0 -0.00000000000E+00 -0.00000000000E+00 -0.74505805969E-08  0.93827000000E+00  0.93827000000E+00 0.  1.
     999902    2    1    2    0    0  0.19190644109E-01 -0.14936762890E-03 -0.13624968245E-01  0.10203940086E+01  0.10201225367E+01 0.  0.
     999903    2    3    3    0    0  0.45019030182E-01  0.11206151839E+00  0.47175622745E-01  0.13081258998E+00  0.17375193079E-01 0.  0.
         14    1    1    2    0    0 -0.19190644109E-01  0.14936762890E-03  0.13624968245E-01  0.23535991411E-01  0.00000000000E+00 0.  1.
     999901    1    3    3    0    0 -0.25828386073E-01 -0.11221088602E+00 -0.60800590990E-01  0.88958141861E+00  0.88000000000E+00 0. -1.
        -11    1    4    4    0    0  0.16561401383E-01  0.45893153796E-01  0.28073622053E-01  0.56292547973E-01  0.51100000000E-03 0. -1.
         11    1    4    4    0    0  0.28457628799E-01  0.66168364591E-01  0.19102000692E-01  0.74520042008E-01  0.51100000000E-03 0.  1.
</event>
<event>
 8    1  0.1197213E+005  0.1043930E+01  0.7957747E-01            NaN
         13   -1    0    0    0    0  0.00000000000E+00  0.00000000000E+00  0.74505805969E-08  0.10566000000E+00  0.10566000000E+00 0.  1.
     999900   -1    0    0    0    0 -0.00000000000E+00 -0.00000000000E+00 -0.74505805969E-08  0.93827000000E+00  0.93827000000E+00 0.  1.
     999902    2    1    2    0    0  0.13894400549E-01  0.17678342291E-01 -0.58904395234E-02  0.10206861744E+01  0.10204214772E+01 0.  0.
     999903    2    3    3    0    0  0.47087955572E-01 -0.11365652561E+00  0.34251126536E-01  0.12941629102E+00  0.20984645301E-01 0.  0.
         14    1    1    2    0    0 -0.13894400549E-01 -0.17678342291E-01  0.58904395234E-02  0.23243825644E-01  0.00000000000E+00 0.  1.
     999901    1    3    3    0    0 -0.33193555023E-01  0.13133486790E+00 -0.40141566059E-01  0.89126988334E+00  0.88000000000E+00 0.  1.
        -11    1    4    4    0    0  0.20404650359E-01 -0.46258215512E-01  0.24790335739E-01  0.56311580742E-01  0.51100000000E-03 0.  1.
         11    1    4    4    0    0  0.26683305213E-01 -0.67398310096E-01  0.94607907971E-02  0.73104710275E-01  0.51100000000E-03 0. -1.
</event>
<event>
 8    1  0.1197213E+005  0.1043930E+01  0.7957747E-01            NaN
         13   -1    0    0    0    0  0.00000000000E+00  0.00000000000E+00  0.74505805969E-08  0.10566000000E+00  0.10566000000E+00 0.  1.
     999900   -1    0    0    0    0 -0.00000000000E+00 -0.00000000000E+00 -0.74505805969E-08  0.93827000000E+00  0.93827000000E+00 0.  1.
     999902    2    1    2    0    0 -0.16918492034E-01  0.28078958624E-02  0.52344103882E-02  0.10259990574E+01  0.10258423597E+01 0.  0.
     999903    2    3    3    0    0 -0.47979435565E-01  0.12087838929E+00 -0.36528805542E-01  0.13658937120E+00  0.20216118730E-01 0.  0.
         14    1    1    2    0    0  0.16918492034E-01 -0.28078958624E-02 -0.52344103882E-02  0.17930942641E-01  0.00000000000E+00 0. -1.
     999901    1    3    3    0    0  0.31060943531E-01 -0.11807049342E+00  0.41763215930E-01  0.88940968616E+00  0.88000000000E+00 0. -1.
        -11    1    4    4    0    0 -0.37931606562E-01  0.74831528166E-01 -0.17176353594E-01  0.85637915831E-01  0.51100000000E-03 0.  1.
         11    1    4    4    0    0 -0.10047829004E-01  0.46046861121E-01 -0.19352451948E-01  0.50951455368E-01  0.51100000000E-03 0. -1.
</event>
<event>
 8    1  0.1197213E+005  0.1043930E+01  0.7957747E-01            NaN
         13   -1    0    0    0    0  0.00000000000E+00  0.00000000000E+00  0.74505805969E-08  0.10566000000E+00  0.10566000000E+00 0.  1.
     999900   -1    0    0    0    0 -0.00000000000E+00 -0.00000000000E+00 -0.74505805969E-08  0.93827000000E+00  0.93827000000E+00 0.  1.
     999902    2    1    2    0    0  0.14554772678E-01 -0.23787822877E-02  0.18103471576E-01  0.10205797174E+01  0.10203125619E+01 0.  0.
     999903    2    3    3    0    0  0.26024506035E-01 -0.12543283648E+00 -0.19509548903E-01  0.13114810435E+00  0.20212159600E-01 0.  0.
         14    1    1    2    0    0 -0.14554772678E-01  0.23787822877E-02 -0.18103471576E-01  0.23350282567E-01  0.00000000000E+00 0. -1.
     999901    1    3    3    0    0 -0.11469733357E-01  0.12305405419E+00  0.37613020479E-01  0.88943161308E+00  0.88000000000E+00 0.  1.
        -11    1    4    4    0    0  0.12546436026E-01 -0.37695416645E-01 -0.14301446541E-01  0.42227360647E-01  0.51100000000E-03 0. -1.
         11    1    4    4    0    0  0.13478070009E-01 -0.87737419833E-01 -0.52081023618E-02  0.88920743706E-01  0.51100000000E-03 0.  1.
</event>
<event>
 8    1  0.1197213E+005  0.1043930E+01  0.7957747E-01            NaN
         13   -1    0    0    0    0  0.00000000000E+00  0.00000000000E+00  0.74505805969E-08  0.10566000000E+00  0.10566000000E+00 0.  1.
     999900   -1    0    0    0    0 -0.00000000000E+00 -0.00000000000E+00 -0.74505805969E-08  0.93827000000E+00  0.93827000000E+00 0.  1.
     999902    2    1    2    0    0 -0.96794514219E-02 -0.16320731003E-01 -0.12924649709E-01  0.10209712411E+01  0.10207130696E+01 0.  0.
     999903    2    3    3    0    0 -0.60744467327E-01  0.93335676163E-01  0.63101159571E-01  0.12944889861E+00  0.19334483586E-01 0.  0.
         14    1    1    2    0    0  0.96794514219E-02  0.16320731003E-01  0.12924649709E-01  0.22958758904E-01  0.00000000000E+00 0.  1.
     999901    1    3    3    0    0  0.51065015905E-01 -0.10965640717E+00 -0.76025809281E-01  0.89152234249E+00  0.88000000000E+00 0. -1.
        -11    1    4    4    0    0 -0.36308266181E-01  0.39203410261E-01  0.33703257623E-01  0.63177276489E-01  0.51100000000E-03 0. -1.
         11    1    4    4    0    0 -0.24436201146E-01  0.54132265902E-01  0.29397901949E-01  0.66271622117E-01  0.51100000000E-03 0.  1.
</event>
<event>
 8    1  0.1197213E+005  0.1043930E+01  0.7957747E-01            NaN
         13   -1    0    0    0    0  0.00000000000E+00  0.00000000000E+00  0.74505805969E-08  0.10566000000E+00  0.10566000000E+00 0.  1.
     999900   -1    0    0    0    0 -0.00000000000E+00 -0.00000000000E+00 -0.74505805969E-08  0.93827000000E+00  0.93827000000E+00 0.  1.
     999902    2    1    2    0    0 -0.63969317775E-02  0.13595574336E-01 -0.16140849491E-01  0.10218780749E+01  0.10216401091E+01 0.  0.
     999903    2    3    3    0    0 -0.80570129058E-01  0.91638672878E-01 -0.53458846823E-01  0.13453089294E+00  0.18748887689E-01 0.  0.
         14    1    1    2    0    0  0.63969317775E-02 -0.13595574336E-01  0.16140849491E-01  0.22051925086E-01  0.00000000000E+00 0. -1.
     999901    1    3    3    0    0  0.74173197280E-01 -0.78043098542E-01  0.37317997332E-01  0.88734718197E+00  0.88000000000E+00 0. -1.
        -11    1    4    4    0    0 -0.59933172479E-01  0.70453387285E-01 -0.31585946722E-01  0.97742509149E-01  0.51100000000E-03 0.  1.
         11    1    4    4    0    0 -0.20636956579E-01  0.21185285593E-01 -0.21872900101E-01  0.36788383796E-01  0.51100000000E-03 0. -1.
</event>
<event>
 8    1  0.1197213E+005  0.1043930E+01  0.7957747E-01            NaN
         13   -1    0    0    0    0  0.00000000000E+00  0.00000000000E+00  0.74505805969E-08  0.10566000000E+00  0.10566000000E+00 0.  1.
     999900   -1    0    0    0    0 -0.00000000000E+00 -0.00000000000E+00 -0.74505805969E-08  0.93827000000E+00  0.93827000000E+00 0.  1.
     999902    2    1    2    0    0  0.21114932583E-01 -0.18236528268E-01 -0.22793919335E-01  0.10079025924E+01  0.10072584880E+01 0.  0.
     999903    2    3    3    0    0  0.25611846433E-02 -0.55870433020E-01  0.10208747838E+00  0.11809591908E+00  0.19918029778E-01 0.  0.
         14    1    1    2    0    0 -0.21114932583E-01  0.18236528268E-01  0.22793919335E-01  0.36027407621E-01  0.00000000000E+00 0.  1.
     999901    1    3    3    0    0  0.18553747939E-01  0.37633904751E-01 -0.12488139771E+00  0.88980667330E+00  0.88000000000E+00 0.  1.
        -11    1    4    4    0    0  0.10970905335E-01 -0.32754228009E-01  0.54556683031E-01  0.64574708677E-01  0.51100000000E-03 0.  1.
         11    1    4    4    0    0 -0.84097206913E-02 -0.23116205011E-01  0.47530795344E-01  0.53521210405E-01  0.51100000000E-03 0. -1.
</event>
<event>
 8    1  0.1197213E+005  0.1043930E+01  0.7957747E-01            NaN
         13   -1    0    0    0    0  0.00000000000E+00  0.00000000000E+00  0.74505805969E-08  0.10566000000E+00  0.10566000000E+00 0.  1.
     999900   -1    0    0    0    0 -0.00000000000E+00 -0.00000000000E+00 -0.74505805969E-08  0.93827000000E+00  0.93827000000E+00 0.  1.
     999902    2    1    2    0    0 -0.18107026043E-01  0.10288737970E-02  0.15646092220E-01  0.10199774808E+01  0.10196961990E+01 0.  0.
     999903    2    3    3    0    0  0.68027161719E-01 -0.94142718271E-01  0.54602283522E-01  0.12981215062E+00  0.19474058352E-01 0.  0.
         14    1    1    2    0    0  0.18107026043E-01 -0.10288737970E-02 -0.15646092220E-01  0.23952519182E-01  0.00000000000E+00 0. -1.
     999901    1    3    3    0    0 -0.86134187762E-01  0.95171592068E-01 -0.38956191302E-01  0.89016533019E+00  0.88000000000E+00 0. -1.
        -11    1    4    4    0    0  0.27210500973E-01 -0.26516550816E-01  0.10861764075E-01  0.39519335397E-01  0.51100000000E-03 0. -1.
         11    1    4    4    0    0  0.40816660746E-01 -0.67626167455E-01  0.43740519447E-01  0.90292815227E-01  0.51100000000E-03 0.  1.
</event>
<event>
 8    1  0.1197213E+005  0.1043930E+01  0.7957747E-01            NaN
         13   -1    0    0    0    0  0.00000000000E+00  0.00000000000E+00  0.74505805969E-08  0.10566000000E+00  0.10566000000E+00 0.  1.
     999900   -1    0    0    0    0 -0.00000000000E+00 -0.00000000000E+00 -0.74505805969E-08  0.93827000000E+00  0.93827000000E+00 0.  1.
     999902    2    1    2    0    0  0.13620086437E-02  0.21661150409E-01  0.99862916415E-02  0.10200388609E+01  0.10197590359E+01 0.  0.
     999903    2    3    3    0    0  0.14248841167E-01 -0.13946723524E-01 -0.12564442446E+00  0.12884321335E+00  0.20408617260E-01 0.  0.
         14    1    1    2    0    0 -0.13620086437E-02 -0.21661150409E-01 -0.99862916415E-02  0.23891139054E-01  0.00000000000E+00 0. -1.
     999901    1    3    3    0    0 -0.12886832524E-01  0.35607873933E-01  0.13563071610E+00  0.89119564759E+00  0.88000000000E+00 0. -1.
        -11    1    4    4    0    0  0.19236389076E-01 -0.12235806099E-01 -0.91986506016E-01  0.94770945049E-01  0.51100000000E-03 0. -1.
         11    1    4    4    0    0 -0.49875479090E-02 -0.17109174251E-02 -0.33657918441E-01  0.34072268304E-01  0.51100000000E-03 0.  1.
</event>
<event>
 8    1  0.1197213E+005  0.1043930E+01  0.7957747E-01            NaN
         13   -1    0    0    0    0  0.00000000000E+00  0.00000000000E+00  0.74505805969E-08  0.10566000000E+00  0.10566000000E+00 0. -1.
     999900   -1    0    0    0    0 -0.00000000000E+00 -0.00000000000E+00 -0.74505805969E-08  0.93827000000E+00  0.93827000000E+00 0.  1.
     999902    2    1    2    0    0 -0.17168338021E-01  0.15642592329E-01  0.36263267895E-02  0.10204227081E+01  0.10201519056E+01 0.  0.
     999903    2    3    3    0    0 -0.99260084237E-01 -0.70748465440E-01 -0.44394671261E-01  0.13109234999E+00  0.18878763299E-01 0.  0.
         14    1    1    2    0    0  0.17168338021E-01 -0.15642592329E-01 -0.36263267895E-02  0.23507291872E-01  0.00000000000E+00 0.  1.
     999901    1    3    3    0    0  0.82091746216E-01  0.86391057769E-01  0.48020998050E-01  0.88933035814E+00  0.88000000000E+00 0. -1.
        -11    1    4    4    0    0 -0.81181223314E-01 -0.56627577384E-01 -0.43529707400E-01  0.10813033842E+00  0.51100000000E-03 0. -1.
         11    1    4    4    0    0 -0.18078860922E-01 -0.14120888057E-01 -0.86496386082E-03  0.22962011568E-01  0.51100000000E-03 0.  1.
</event>
<event>
 8    1  0.1197213E+005  0.1043930E+01  0.7957747E-01            NaN
         13   -1    0    0    0    0  0.00000000000E+00  0.00000000000E+00  0.74505805969E-08  0.10566000000E+00  0.10566000000E+00 0. -1.
     999900   -1    0    0    0    0 -0.00000000000E+00 -0.00000000000E+00 -0.74505805969E-08  0.93827000000E+00  0.93827000000E+00 0. -1.
     999902    2    1    2    0    0  0.49903527519E-03  0.14305498168E-01 -0.17718530279E-01  0.10211518827E+01  0.10208978033E+01 0.  0.
     999903    2    3    3    0    0  0.11882703377E+00  0.27778464049E-01 -0.47831450173E-01  0.13261948372E+00  0.20213184235E-01 0.  0.
         14    1    1    2    0    0 -0.49903527519E-03 -0.14305498168E-01  0.17718530279E-01  0.22778117334E-01  0.00000000000E+00 0. -1.
     999901    1    3    3    0    0 -0.11832799849E+00 -0.13472965881E-01  0.30112919894E-01  0.88853239895E+00  0.88000000000E+00 0.  1.
        -11    1    4    4    0    0  0.76711057674E-01  0.22532988230E-01 -0.40212903231E-01  0.89496707399E-01  0.51100000000E-03 0. -1.
         11    1    4    4    0    0  0.42115976093E-01  0.52454758193E-02 -0.76185469415E-02  0.43122776318E-01  0.51100000000E-03 0.  1.
</event>
<event>
 8    1  0.1197213E+005  0.1043930E+01  0.7957747E-01            NaN
         13   -1    0    0    0    0  0.00000000000E+00  0.00000000000E+00  0.74505805969E-08  0.10566000000E+00  0.10566000000E+00 0. -1.
     999900   -1    0    0    0    0 -0.00000000000E+00 -0.00000000000E+00 -0.74505805969E-08  0.93827000000E+00  0.93827000000E+00 0.  1.
     999902    2    1    2    0    0  0.14078306287E-01  0.15099294778E-01 -0.63880150322E-02  0.10223199526E+01  0.10220915279E+01 0.  0.
     999903    2    3    3    0    0  0.23365630900E-01  0.10547119630E+00  0.75762593820E-01  0.13383694351E+00  0.22410508007E-01 0.  0.
         14    1    1    2    0    0 -0.14078306287E-01 -0.15099294778E-01  0.63880150322E-02  0.21610047357E-01  0.00000000000E+00 0. -1.
     999901    1    3    3    0    0 -0.92873246126E-02 -0.90371901523E-01 -0.82150608852E-01  0.88848300913E+00  0.88000000000E+00 0.  1.
        -11    1    4    4    0    0  0.57528689553E-02  0.47078792535E-01  0.21021702064E-01  0.51881415617E-01  0.51100000000E-03 0.  1.
         11    1    4    4    0    0  0.17612761944E-01  0.58392403767E-01  0.54740891756E-01  0.81955527893E-01  0.51100000000E-03 0. -1.
</event>
<event>
 8    1  0.1197213E+005  0.1043930E+01  0.7957747E-01            NaN
         13   -1    0    0    0    0  0.00000000000E+00  0.00000000000E+00  0.74505805969E-08  0.10566000000E+00  0.10566000000E+00 0. -1.
     999900   -1    0    0    0    0 -0.00000000000E+00 -0.00000000000E+00 -0.74505805969E-08  0.93827000000E+00  0.93827000000E+00 0.  1.
     999902    2    1    2    0    0 -0.35596333021E-02 -0.47143007964E-02 -0.22694161156E-01  0.10204796147E+01  0.10202101369E+01 0.  0.
     999903    2    3    3    0    0 -0.30970288149E-01  0.56637369901E-01  0.10894088636E+00  0.12815503403E+00  0.19714096721E-01 0.  0.
         14    1    1    2    0    0  0.35596333021E-02  0.47143007964E-02  0.22694161156E-01  0.23450385324E-01  0.00000000000E+00 0. -1.
     999901    1    3    3    0    0  0.27410654847E-01 -0.61351670697E-01 -0.13163504751E+00  0.89232458065E+00  0.88000000000E+00 0.  1.
        -11    1    4    4    0    0 -0.14454575412E-01  0.20912512859E-01  0.61254743178E-01  0.66322489604E-01  0.51100000000E-03 0.  1.
         11    1    4    4    0    0 -0.16515712737E-01  0.35724857042E-01  0.47686143177E-01  0.61832544424E-01  0.51100000000E-03 0. -1.
</event>
<event>
 8    1  0.1197213E+005  0.1043930E+01  0.7957747E-01            NaN
         13   -1    0    0    0    0  0.00000000000E+00  0.00000000000E+00  0.74505805969E-08  0.10566000000E+00  0.10566000000E+00 0.  1.
     999900   -1    0    0    0    0 -0.00000000000E+00 -0.00000000000E+00 -0.74505805969E-08  0.93827000000E+00  0.93827000000E+00 0.  1.
     999902    2    1    2    0    0  0.19267946179E-01 -0.11471663391E-01 -0.74078429497E-02  0.10203137143E+01  0.10200403652E+01 0.  0.
     999903    2    3    3    0    0  0.99826703644E-01 -0.34397403311E-01 -0.78757348932E-01  0.13346194829E+00  0.21466707138E-01 0.  0.
         14    1    1    2    0    0 -0.19267946179E-01  0.11471663391E-01  0.74078429497E-02  0.23616285654E-01  0.00000000000E+00 0. -1.
     999901    1    3    3    0    0 -0.80558757466E-01  0.22925739919E-01  0.71349505982E-01  0.88685176606E+00  0.88000000000E+00 0. -1.
        -11    1    4    4    0    0  0.24415019016E-01 -0.10731975624E-01 -0.31876879453E-01  0.41565189991E-01  0.51100000000E-03 0.  1.
         11    1    4    4    0    0  0.75411684628E-01 -0.23665427687E-01 -0.46880469479E-01  0.91896758298E-01  0.51100000000E-03 0. -1.
</event>
<event>
 8    1  0.1197213E+005  0.1043930E+01  0.7957747E-01            NaN
         13   -1    0    0    0    0  0.00000000000E+00  0.00000000000E+00  0.74505805969E-08  0.10566000000E+00  0.10566000000E+00 0.  1.
     999900   -1    0    0    0    0 -0.00000000000E+00 -0.00000000000E+00 -0.74505805969E-08  0.93827000000E+00  0.93827000000E+00 0. -1.
     999902    2    1    2    0    0  0.23255387161E-01 -0.19777105451E-02  0.43922482990E-02  0.10201809744E+01  0.10199045075E+01 0.  0.
     999903    2    3    3    0    0  0.39525800335E-01  0.11551721557E+00 -0.42952672917E-01  0.13096147082E+00  0.19986464004E-01 0.  0.
         14    1    1    2    0    0 -0.23255387161E-01  0.19777105451E-02 -0.43922482990E-02  0.23749025582E-01  0.00000000000E+00 0.  1.
     999901    1    3    3    0    0 -0.16270413175E-01 -0.11749492612E+00  0.47344921216E-01  0.88921950359E+00  0.88000000000E+00 0.  1.
        -11    1    4    4    0    0  0.29611889152E-01  0.63817149722E-01 -0.17559341437E-01  0.72512648348E-01  0.51100000000E-03 0. -1.
         11    1    4    4    0    0  0.99139111831E-02  0.51700065851E-01 -0.25393331480E-01  0.58448822474E-01  0.51100000000E-03 0.  1.
</event>
<event>
 8    1  0.1197213E+005  0.1043930E+01  0.7957747E-01            NaN
         13   -1    0    0    0    0  0.00000000000E+00  0.00000000000E+00  0.74505805969E-08  0.10566000000E+00  0.10566000000E+00 0. -1.
     999900   -1    0    0    0    0 -0.00000000000E+00 -0.00000000000E+00 -0.74505805969E-08  0.93827000000E+00  0.93827000000E+00 0.  1.
     999902    2    1    2    0    0  0.23010013306E-01 -0.51500124795E-02  0.50200134354E-02  0.10198222445E+01  0.10195372610E+01 0.  0.
     999903    2    3    3    0    0 -0.61923816584E-01  0.85238557980E-01 -0.70048138314E-01  0.12795954399E+00  0.19150258242E-01 0.  0.
         14    1    1    2    0    0 -0.23010013306E-01  0.51500124795E-02 -0.50200134354E-02  0.24107755511E-01  0.00000000000E+00 0. -1.
     999901    1    3    3    0    0  0.84933829891E-01 -0.90388570459E-01  0.75068151749E-01  0.89186270050E+00  0.88000000000E+00 0. -1.
        -11    1    4    4    0    0 -0.10587107832E-01  0.86907416895E-02 -0.16168794636E-01  0.21196860248E-01  0.51100000000E-03 0. -1.
         11    1    4    4    0    0 -0.51336708752E-01  0.76547816290E-01 -0.53879343677E-01  0.10676268374E+00  0.51100000000E-03 0.  1.
</event>
<event>
 8    1  0.1197213E+005  0.1043930E+01  0.7957747E-01            NaN
         13   -1    0    0    0    0  0.00000000000E+00  0.00000000000E+00  0.74505805969E-08  0.10566000000E+00  0.10566000000E+00 0.  1.
     999900   -1    0    0    0    0 -0.00000000000E+00 -0.00000000000E+00 -0.74505805969E-08  0.93827000000E+00  0.93827000000E+00 0. -1.
     999902    2    1    2    0    0 -0.20369407631E-01 -0.11325698128E-01 -0.48410832135E-03  0.10206186601E+01  0.10203524052E+01 0.  0.
     999903    2    3    3    0    0 -0.44236653256E-01 -0.73199862529E-01  0.99241086227E-01  0.13250652079E+00  0.19851536213E-01 0.  0.
         14    1    1    2    0    0  0.20369407631E-01  0.11325698128E-01  0.48410832135E-03  0.23311339863E-01  0.00000000000E+00 0.  1.
     999901    1    3    3    0    0  0.23867245625E-01  0.61874164401E-01 -0.99725194548E-01  0.88811213935E+00  0.88000000000E+00 0.  1.
        -11    1    4    4    0    0 -0.18223319221E-01 -0.38589269778E-01  0.35844449880E-01  0.55734251709E-01  0.51100000000E-03 0. -1.
         11    1    4    4    0    0 -0.26013334035E-01 -0.34610592751E-01  0.63396636347E-01  0.76772269077E-01  0.51100000000E-03 0.  1.
</event>
<event>
 8    1  0.1197213E+005  0.1043930E+01  0.7957747E-01            NaN
         13   -1    0    0    0    0  0.00000000000E+00  0.00000000000E+00  0.74505805969E-08  0.10566000000E+00  0.10566000000E+00 0.  1.
     999900   -1    0    0    0    0 -0.00000000000E+00 -0.00000000000E+00 -0.74505805969E-08  0.93827000000E+00  0.93827000000E+00 0. -1.
     999902    2    1    2    0    0  0.87837459033E-02 -0.19814379145E-01 -0.90625933923E-02  0.10204375669E+01  0.10201671106E+01 0.  0.
     999903    2    3    3    0    0  0.49866857028E-01 -0.12123892300E+00 -0.10533434599E-01  0.13365860715E+00  0.23834641620E-01 0.  0.
         14    1    1    2    0    0 -0.87837459033E-02  0.19814379145E-01  0.90625933923E-02  0.23492433079E-01  0.00000000000E+00 0.  1.
     999901    1    3    3    0    0 -0.41083111124E-01  0.10142454386E+00  0.14708412069E-02  0.88677895977E+00  0.88000000000E+00 0. -1.
        -11    1    4    4    0    0  0.40115927605E-01 -0.11201867360E+00 -0.48764293517E-02  0.11908615187E+00  0.51100000000E-03 0.  1.
         11    1    4    4    0    0  0.97509294224E-02 -0.92202494014E-02 -0.56570052475E-02  0.14572455284E-01  0.51100000000E-03 0. -1.
</event>
<event>
 8    1  0.1197213E+005  0.1043930E+01  0.7957747E-01            NaN
         13   -1    0    0    0    0  0.00000000000E+00  0.00000000000E+00  0.74505805969E-08  0.10566000000E+00  0.10566000000E+00 0.  1.
     999900   -1    0    0    0    0 -0.00000000000E+00 -0.00000000000E+00 -0.74505805969E-08  0.93827000000E+00  0.93827000000E+00 0. -1.
     999902    2    1    2    0    0 -0.61107612914E-02  0.38471690509E-02 -0.20678612386E-01  0.10220268696E+01  0.10217921388E+01 0.  0.
     999903    2    3    3    0    0 -0.69595057733E-01  0.11142470784E+00 -0.70533888577E-02  0.13310120929E+00  0.20180288497E-01 0.  0.
         14    1    1    2    0    0  0.61107612914E-02 -0.38471690509E-02  0.20678612386E-01  0.21903130450E-01  0.00000000000E+00 0.  1.
     999901    1    3    3    0    0  0.63484296442E-01 -0.10757753879E+00 -0.13625223529E-01  0.88892566026E+00  0.88000000000E+00 0. -1.
        -11    1    4    4    0    0 -0.33366932118E-01  0.39136984924E-01  0.35221053556E-02  0.51553099762E-01  0.51100000000E-03 0.  1.
         11    1    4    4    0    0 -0.36228125615E-01  0.72287722912E-01 -0.10575494213E-01  0.81548109532E-01  0.51100000000E-03 0. -1.
</event>
<event>
 8    1  0.1197213E+005  0.1043930E+01  0.7957747E-01            NaN
         13   -1    0    0    0    0  0.00000000000E+00  0.00000000000E+00  0.74505805969E-08  0.10566000000E+00  0.10566000000E+00 0. -1.
     999900   -1    0    0    0    0 -0.00000000000E+00 -0.00000000000E+00 -0.74505805969E-08  0.93827000000E+00  0.93827000000E+00 0. -1.
     999902    2    1    2    0    0  0.18610066629E-01  0.10967678781E-01 -0.92989053509E-02  0.10204120452E+01  0.10201409941E+01 0.  0.
     999903    2    3    3    0    0 -0.46232075029E-01  0.11378948617E+00  0.39760275976E-01  0.13070218760E+00  0.20413974978E-01 0.  0.
         14    1    1    2    0    0 -0.18610066629E-01 -0.10967678781E-01  0.92989053509E-02  0.23517954811E-01  0.00000000000E+00 0. -1.
     999901    1    3    3    0    0  0.64842141658E-01 -0.10282180739E+00 -0.49059181327E-01  0.88970985758E+00  0.88000000000E+00 0. -1.
        -11    1    4    4    0    0 -0.10413211844E-01  0.16314679325E-01  0.13442440131E-01  0.23570406446E-01  0.51100000000E-03 0.  1.
         11    1    4    4    0    0 -0.35818863185E-01  0.97474806847E-01  0.26317835845E-01  0.10713178116E+00  0.51100000000E-03 0. -1.
</event>
<event>
 8    1  0.1197213E+005  0.1043930E+01  0.7957747E-01            NaN
         13   -1    0    0    0    0  0.00000000000E+00  0.00000000000E+00  0.74505805969E-08  0.10566000000E+00  0.10566000000E+00 0.  1.
     999900   -1    0    0    0    0 -0.00000000000E+00 -0.00000000000E+00 -0.74505805969E-08  0.93827000000E+00  0.93827000000E+00 0.  1.
     999902    2    1    2    0    0 -0.14539893917E-01  0.18569534441E-01 -0.53845160399E-02  0.10197384904E+01  0.10194514994E+01 0.  0.
     999903    2    3    3    0    0 -0.95875614147E-01 -0.25704415297E-02 -0.88102025689E-01  0.13187330672E+00  0.20733102420E-01 0.  0.
         14    1    1    2    0    0  0.14539893917E-01 -0.18569534441E-01  0.53845160399E-02  0.24191509615E-01  0.00000000000E+00 0. -1.
     999901    1    3    3    0    0  0.81335720230E-01  0.21139975971E-01  0.82717509649E-01  0.88786518367E+00  0.88000000000E+00 0. -1.
        -11    1    4    4    0    0 -0.45906353665E-01  0.59770796221E-02 -0.52071024793E-01  0.69676190565E-01  0.51100000000E-03 0. -1.
         11    1    4    4    0    0 -0.49969260482E-01 -0.85475211518E-02 -0.36031000896E-01  0.62197116151E-01  0.51100000000E-03 0.  1.
</event>
<event>
 8    1  0.1197213E+005  0.1043930E+01  0.7957747E-01            NaN
         13   -1    0    0    0    0  0.00000000000E+00  0.00000000000E+00  0.74505805969E-08  0.10566000000E+00  0.10566000000E+00 0. -1.
     999900   -1    0    0    0    0 -0.00000000000E+00 -0.00000000000E+00 -0.74505805969E-08  0.93827000000E+00  0.93827000000E+00 0.  1.
     999902    2    1    2    0    0  0.21936195412E-01  0.12059714167E-02 -0.45577635499E-02  0.10214928824E+01  0.10212464368E+01 0.  0.
     999903    2    3    3    0    0  0.29366032244E-01  0.32256283975E-01 -0.12389351409E+00  0.13286453169E+00  0.20013726330E-01 0.  0.
         14    1    1    2    0    0 -0.21936195412E-01 -0.12059714167E-02  0.45577635499E-02  0.22437117568E-01  0.00000000000E+00 0. -1.
     999901    1    3    3    0    0 -0.74298368325E-02 -0.31050312558E-01  0.11933575054E+00  0.88862835074E+00  0.88000000000E+00 0. -1.
        -11    1    4    4    0    0 -0.12345339986E-02  0.30484246089E-03 -0.68244402885E-04  0.13721448241E-02  0.51100000000E-03 0. -1.
         11    1    4    4    0    0  0.30600566243E-01  0.31951441514E-01 -0.12382526969E+00  0.13149238687E+00  0.51100000000E-03 0.  1.
</event>
<event>
 8    1  0.1197213E+005  0.1043930E+01  0.7957747E-01            NaN
         13   -1    0    0    0    0  0.00000000000E+00  0.00000000000E+00  0.74505805969E-08  0.10566000000E+00  0.10566000000E+00 0. -1.
     999900   -1    0    0    0    0 -0.00000000000E+00 -0.00000000000E+00 -0.74505805969E-08  0.93827000000E+00  0.93827000000E+00 0. -1.
     999902    2    1    2    0    0  0.14901056574E-01 -0.15890553067E-01 -0.93046814878E-02  0.10202418540E+01  0.10199668192E+01 0.  0.
     999903    2    3    3    0    0  0.89490862536E-01  0.42109191740E-01 -0.85033320671E-01  0.13194998960E+00  0.19958347231E-01 0.  0.
         14    1    1    2    0    0 -0.14901056574E-01  0.15890553067E-01  0.93046814878E-02  0.23688146010E-01  0.00000000000E+00 0. -1.
     999901    1    3    3    0    0 -0.74589805962E-01 -0.57999744808E-01  0.75728639183E-01  0.88829186439E+00  0.88000000000E+00 0.  1.
        -11    1    4    4    0    0  0.29806339523E-01  0.23121753361E-01 -0.38657988242E-01  0.54016058077E-01  0.51100000000E-03 0. -1.
         11    1    4    4    0    0  0.59684523013E-01  0.18987438380E-01 -0.46375332429E-01  0.77933931522E-01  0.51100000000E-03 0.  1.
</event>
<event>
 8    1  0.1197213E+005  0.1043930E+01  0.7957747E-01            NaN
         13   -1    0    0    0    0  0.00000000000E+00  0.00000000000E+00  0.74505805969E-08  0.10566000000E+00  0.10566000000E+00 0. -1.
     999900   -1    0    0    0    0 -0.00000000000E+00 -0.00000000000E+00 -0.74505805969E-08  0.93827000000E+00  0.93827000000E+00 0. -1.
     999902    2    1    2    0    0  0.13303722532E-01  0.81001933805E-02 -0.17881644120E-01  0.10202159670E+01  0.10199403237E+01 0.  0.
     999903    2    3    3    0    0  0.10959627752E+00 -0.68850538097E-01  0.87552630262E-02  0.13122598050E+00  0.19795521844E-01 0.  0.
         14    1    1    2    0    0 -0.13303722532E-01 -0.81001933805E-02  0.17881644120E-01  0.23714033028E-01  0.00000000000E+00 0. -1.
     999901    1    3    3    0    0 -0.96292554990E-01  0.76950731477E-01 -0.26636907147E-01  0.88898998647E+00  0.88000000000E+00 0. -1.
        -11    1    4    4    0    0  0.76550185026E-01 -0.50158577187E-01  0.15013095661E-01  0.92744098762E-01  0.51100000000E-03 0.  1.
         11    1    4    4    0    0  0.33046092496E-01 -0.18691960910E-01 -0.62578326348E-02  0.38481881739E-01  0.51100000000E-03 0. -1.
</event>
<event>
 8    1  0.1197213E+005  0.1043930E+01  0.7957747E-01            NaN
         13   -1    0    0    0    0  0.00000000000E+00  0.00000000000E+00  0.74505805969E-08  0.10566000000E+00  0.10566000000E+00 0. -1.
     999900   -1    0    0    0    0 -0.00000000000E+00 -0.00000000000E+00 -0.74505805969E-08  0.93827000000E+00  0.93827000000E+00 0. -1.
     999902    2    1    2    0    0 -0.10745812234E-01 -0.87631894074E-02 -0.19080849869E-01  0.10203430375E+01  0.10200703747E+01 0.  0.
     999903    2    3    3    0    0  0.29158292906E-01  0.11666521578E+00  0.40946109651E-01  0.12853147762E+00  0.19564718910E-01 0.  0.
         14    1    1    2    0    0  0.10745812234E-01  0.87631894074E-02  0.19080849869E-01  0.23586962519E-01  0.00000000000E+00 0. -1.
     999901    1    3    3    0    0 -0.39904105140E-01 -0.12542840518E+00 -0.60026959519E-01  0.89181155986E+00  0.88000000000E+00 0. -1.
        -11    1    4    4    0    0  0.15378195236E-01  0.93051764242E-01  0.28836922245E-01  0.98625295552E-01  0.51100000000E-03 0. -1.
         11    1    4    4    0    0  0.13780097670E-01  0.23613451535E-01  0.12109187405E-01  0.29906182067E-01  0.51100000000E-03 0.  1.
</event>
<event>
 8    1  0.1197213E+005  0.1043930E+01  0.7957747E-01            NaN
         13   -1    0    0    0    0  0.00000000000E+00  0.00000000000E+00  0.74505805969E-08  0.10566000000E+00  0.10566000000E+00 0. -1.
     999900   -1    0    0    0    0 -0.00000000000E+00 -0.00000000000E+00 -0.74505805969E-08  0.93827000000E+00  0.93827000000E+00 0.  1.
     999902    2    1    2    0    0  0.16297810129E-01 -0.15278348396E-01  0.55619185072E-02  0.10209086733E+01  0.10206490767E+01 0.  0.
     999903    2    3    3    0    0  0.10371841179E+00 -0.81142947869E-01  0.15430284452E-01  0.13407278562E+00  0.19892994587E-01 0.  0.
         14    1    1    2    0    0 -0.16297810129E-01  0.15278348396E-01 -0.55619185072E-02  0.23021326682E-01  0.00000000000E+00 0.  1.
     999901    1    3    3    0    0 -0.87420601659E-01  0.65864599473E-01 -0.98683659449E-02  0.88683588770E+00  0.88000000000E+00 0. -1.
        -11    1    4    4    0    0  0.44992672490E-01 -0.23117780040E-01  0.43383741129E-02  0.50772580619E-01  0.51100000000E-03 0. -1.
         11    1    4    4    0    0  0.58725739298E-01 -0.58025167829E-01  0.11091910339E-01  0.83300205003E-01  0.51100000000E-03 0.  1.
</event>
<event>
 8    1  0.1197213E+005  0.1043930E+01  0.7957747E-01            NaN
         13   -1    0    0    0    0  0.00000000000E+00  0.00000000000E+00  0.74505805969E-08  0.10566000000E+00  0.10566000000E+00 0. -1.
     999900   -1    0    0    0    0 -0.00000000000E+00 -0.00000000000E+00 -0.74505805969E-08  0.93827000000E+00  0.93827000000E+00 0.  1.
     999902    2    1    2    0    0  0.25901389122E-01  0.12545693757E-01 -0.58145797469E-02  0.10145687036E+01  0.10141437613E+01 0.  0.
     999903    2    3    3    0    0 -0.50700877195E-01  0.74452506333E-03 -0.11258887070E+00  0.12473280634E+00  0.17631956971E-01 0.  0.
         14    1    1    2    0    0 -0.25901389122E-01 -0.12545693757E-01  0.58145797469E-02  0.29361296428E-01  0.00000000000E+00 0.  1.
     999901    1    3    3    0    0  0.76602266317E-01  0.11801168694E-01  0.10677429095E+00  0.88983589723E+00  0.88000000000E+00 0. -1.
        -11    1    4    4    0    0 -0.22916890648E-01 -0.59400482806E-02 -0.65497094832E-01  0.69646238972E-01  0.51100000000E-03 0.  1.
         11    1    4    4    0    0 -0.27783986547E-01  0.66845733439E-02 -0.47091775869E-01  0.55086567371E-01  0.51100000000E-03 0. -1.
</event>
<event>
 8    1  0.1197213E+005  0.1043930E+01  0.7957747E-01            NaN
         13   -1    0    0    0    0  0.00000000000E+00  0.00000000000E+00  0.74505805969E-08  0.10566000000E+00  0.10566000000E+00 0.  1.
     999900   -1    0    0    0    0 -0.00000000000E+00 -0.00000000000E+00 -0.74505805969E-08  0.93827000000E+00  0.93827000000E+00 0.  1.
     999902    2    1    2    0    0 -0.91415585089E-02 -0.11871324393E-01 -0.19817507089E-01  0.10190858856E+01  0.10187830054E+01 0.  0.
     999903    2    3    3    0    0  0.58686282738E-01  0.11164611523E+00 -0.36158528672E-02  0.12772755833E+00  0.19807067844E-01 0.  0.
         14    1    1    2    0    0  0.91415585089E-02  0.11871324393E-01  0.19817507089E-01  0.24844114435E-01  0.00000000000E+00 0.  1.
     999901    1    3    3    0    0 -0.67827841247E-01 -0.12351743962E+00 -0.16201654222E-01  0.89135832724E+00  0.88000000000E+00 0. -1.
        -11    1    4    4    0    0  0.34447920569E-01  0.52124447717E-01 -0.94584477943E-02  0.63192884386E-01  0.51100000000E-03 0. -1.
         11    1    4    4    0    0  0.24238362169E-01  0.59521667512E-01  0.58425949271E-02  0.64534673940E-01  0.51100000000E-03 0.  1.
</event>
<event>
 8    1  0.1197213E+005  0.1043930E+01  0.7957747E-01            NaN
         13   -1    0    0    0    0  0.00000000000E+00  0.00000000000E+00  0.74505805969E-08  0.10566000000E+00  0.10566000000E+00 0. -1.
     999900   -1    0    0    0    0 -0.00000000000E+00 -0.00000000000E+00 -0.74505805969E-08  0.93827000000E+00  0.93827000000E+00 0.  1.
     999902    2    1    2    0    0  0.30932142857E-01 -0.70598693037E-02 -0.18368620577E-01  0.10072687747E+01  0.10066013804E+01 0.  0.
     999903    2    3    3    0    0  0.67295190853E-01 -0.93467524082E-01  0.31137152385E-01  0.12090577030E+00  0.19592403218E-01 0.  0.
         14    1    1    2    0    0 -0.30932142857E-01  0.70598693037E-02  0.18368620577E-01  0.36661225269E-01  0.00000000000E+00 0. -1.
     999901    1    3    3    0    0 -0.36363047996E-01  0.86407654778E-01 -0.49505772963E-01  0.88636300443E+00  0.88000000000E+00 0.  1.
        -11    1    4    4    0    0  0.48182360423E-01 -0.68768007091E-01  0.13537183828E-01  0.85053483892E-01  0.51100000000E-03 0. -1.
         11    1    4    4    0    0  0.19112830430E-01 -0.24699516990E-01  0.17599968557E-01  0.35852286410E-01  0.51100000000E-03 0.  1.
</event>
<event>
 8    1  0.1220557E+005  0.1043930E+01  0.7957747E-01            NaN
         13   -1    0    0    0    0  0.00000000000E+00  0.00000000000E+00  0.74505805969E-08  0.10566000000E+00  0.10566000000E+00 0. -1.
     999900   -1    0    0    0    0 -0.00000000000E+00 -0.00000000000E+00 -0.74505805969E-08  0.93827000000E+00  0.93827000000E+00 0.  1.
     999902    2    1    2    0    0 -0.57716598050E-02 -0.65346536477E-02 -0.28010233281E-01  0.10145942381E+01  0.10141700455E+01 0.  0.
     999903    2    3    3    0    0 -0.62621824988E-01 -0.49074469723E-01  0.92299215559E-01  0.12357463078E+00  0.20536495204E-01 0.  0.
         14    1    1    2    0    0  0.57716598050E-02  0.65346536477E-02  0.28010233281E-01  0.29335761856E-01  0.00000000000E+00 0. -1.
     999901    1    3    3    0    0  0.56850165184E-01  0.42539816075E-01 -0.12030944884E+00  0.89101960737E+00  0.88000000000E+00 0.  1.
        -11    1    4    4    0    0 -0.34586175653E-01 -0.14640283388E-01  0.38017829962E-01  0.53443034720E-01  0.51100000000E-03 0.  1.
         11    1    4    4    0    0 -0.28035649335E-01 -0.34434186335E-01  0.54281385596E-01  0.70131596057E-01  0.51100000000E-03 0. -1.
</event>
<event>
 8    1  0.1197213E+005  0.1043930E+01  0.7957747E-01            NaN
         13   -1    0    0    0    0  0.00000000000E+00  0.00000000000E+00  0.74505805969E-08  0.10566000000E+00  0.10566000000E+00 0. -1.
     999900   -1    0    0    0    0 -0.00000000000E+00 -0.00000000000E+00 -0.74505805969E-08  0.93827000000E+00  0.93827000000E+00 0.  1.
     999902    2    1    2    0    0 -0.22810821833E-01 -0.97146706385E-02  0.36778870936E-03  0.10191339582E+01  0.10188322635E+01 0.  0.
     999903    2    3    3    0    0 -0.12624891233E+00  0.49799300622E-02 -0.33920075302E-01  0.13229066460E+00  0.19663694041E-01 0.  0.
         14    1    1    2    0    0  0.22810821833E-01  0.97146706385E-02 -0.36778870936E-03  0.24796041757E-01  0.00000000000E+00 0.  1.
     999901    1    3    3    0    0  0.10343809050E+00 -0.14694600701E-01  0.34287864012E-01  0.88684329364E+00  0.88000000000E+00 0.  1.
        -11    1    4    4    0    0 -0.40884685661E-01 -0.51063392280E-02 -0.45680984656E-02  0.41457940934E-01  0.51100000000E-03 0. -1.
         11    1    4    4    0    0 -0.85364226674E-01  0.10086269290E-01 -0.29351976837E-01  0.90832723668E-01  0.51100000000E-03 0.  1.
</event>
<event>
 8    1  0.1197213E+005  0.1043930E+01  0.7957747E-01            NaN
         13   -1    0    0    0    0  0.00000000000E+00  0.00000000000E+00  0.74505805969E-08  0.10566000000E+00  0.10566000000E+00 0.  1.
     999900   -1    0    0    0    0 -0.00000000000E+00 -0.00000000000E+00 -0.74505805969E-08  0.93827000000E+00  0.93827000000E+00 0.  1.
     999902    2    1    2    0    0 -0.20572963669E-01  0.66848981385E-02 -0.85138753732E-02  0.10206830481E+01  0.10204182789E+01 0.  0.
     999903    2    3    3    0    0  0.62531435337E-01 -0.60464215584E-01  0.89246853263E-01  0.12884645734E+00  0.32715546472E-01 0.  0.
         14    1    1    2    0    0  0.20572963669E-01 -0.66848981385E-02  0.85138753732E-02  0.23246951867E-01  0.00000000000E+00 0.  1.
     999901    1    3    3    0    0 -0.83104399006E-01  0.67149113723E-01 -0.97760728636E-01  0.89183659079E+00  0.88000000000E+00 0.  1.
        -11    1    4    4    0    0  0.19731750158E-01 -0.61525402071E-02  0.80324166811E-02  0.22180544493E-01  0.51100000000E-03 0. -1.
         11    1    4    4    0    0  0.42799685179E-01 -0.54311675377E-01  0.81214436582E-01  0.10666591285E+00  0.51100000000E-03 0.  1.
</event>
<event>
 8    1  0.1197213E+005  0.1043930E+01  0.7957747E-01            NaN
         13   -1    0    0    0    0  0.00000000000E+00  0.00000000000E+00  0.74505805969E-08  0.10566000000E+00  0.10566000000E+00 0.  1.
     999900   -1    0    0    0    0 -0.00000000000E+00 -0.00000000000E+00 -0.74505805969E-08  0.93827000000E+00  0.93827000000E+00 0.  1.
     999902    2    1    2    0    0 -0.34217892218E-02 -0.22834776209E-01 -0.53712083386E-02  0.10202237661E+01  0.10199483062E+01 0.  0.
     999903    2    3    3    0    0 -0.12211668639E+00 -0.40530736411E-01 -0.22336208569E-01  0.13191670386E+00  0.18651671623E-01 0.  0.
         14    1    1    2    0    0  0.34217892218E-02  0.22834776209E-01  0.53712083386E-02  0.23706233885E-01  0.00000000000E+00 0. -1.
     999901    1    3    3    0    0  0.11869489717E+00  0.17695960201E-01  0.16965000230E-01  0.88830706226E+00  0.88000000000E+00 0. -1.
        -11    1    4    4    0    0 -0.96257645028E-01 -0.24825846104E-01 -0.21154798493E-01  0.10163485367E+00  0.51100000000E-03 0.  1.
         11    1    4    4    0    0 -0.25859041364E-01 -0.15704890307E-01 -0.11814100759E-02  0.30281850184E-01  0.51100000000E-03 0. -1.
</event>
<event>
 8    1  0.1197213E+005  0.1043930E+01  0.7957747E-01            NaN
         13   -1    0    0    0    0  0.00000000000E+00  0.00000000000E+00  0.74505805969E-08  0.10566000000E+00  0.10566000000E+00 0. -1.
     999900   -1    0    0    0    0 -0.00000000000E+00 -0.00000000000E+00 -0.74505805969E-08  0.93827000000E+00  0.93827000000E+00 0.  1.
     999902    2    1    2    0    0  0.39816303525E-02 -0.68085064257E-02 -0.22384380636E-01  0.10201966977E+01  0.10199206010E+01 0.  0.
     999903    2    3    3    0    0 -0.11499794771E+00  0.37047665939E-01 -0.45808270979E-01  0.13079904624E+00  0.20320808946E-01 0.  0.
         14    1    1    2    0    0 -0.39816303525E-02  0.68085064257E-02  0.22384380636E-01  0.23733302266E-01  0.00000000000E+00 0. -1.
     999901    1    3    3    0    0  0.11897957807E+00 -0.43856172364E-01  0.23423890343E-01  0.88939765150E+00  0.88000000000E+00 0.  1.
        -11    1    4    4    0    0 -0.40976291179E-01  0.13246152938E-01 -0.26897729880E-01  0.50776628483E-01  0.51100000000E-03 0.  1.
         11    1    4    4    0    0 -0.74021656535E-01  0.23801513001E-01 -0.18910541099E-01  0.80022417753E-01  0.51100000000E-03 0. -1.
</event>
<event>
 8    1  0.1197213E+005  0.1043930E+01  0.7957747E-01            NaN
         13   -1    0    0    0    0  0.00000000000E+00  0.00000000000E+00  0.74505805969E-08  0.10566000000E+00  0.10566000000E+00 0. -1.
     999900   -1    0    0    0    0 -0.00000000000E+00 -0.00000000000E+00 -0.74505805969E-08  0.93827000000E+00  0.93827000000E+00 0.  1.
     999902    2    1    2    0    0 -0.16460155940E-01 -0.75657172396E-02  0.14680395134E-01  0.10206128215E+01  0.10203464317E+01 0.  0.
     999903    2    3    3    0    0 -0.24108874874E-01 -0.80941119796E-02  0.12942419422E+00  0.13313047154E+00  0.18065101863E-01 0.  0.
         14    1    1    2    0    0  0.16460155940E-01  0.75657172396E-02 -0.14680395134E-01  0.23317178479E-01  0.00000000000E+00 0.  1.
     999901    1    3    3    0    0  0.76487189340E-02  0.52839474004E-03 -0.11474379909E+00  0.88748234998E+00  0.88000000000E+00 0.  1.
        -11    1    4    4    0    0 -0.11575949351E-01 -0.39027933150E-02  0.10148954901E+00  0.10222340280E+00  0.51100000000E-03 0. -1.
         11    1    4    4    0    0 -0.12532925523E-01 -0.41913186646E-02  0.27934645208E-01  0.30907068742E-01  0.51100000000E-03 0.  1.
</event>
<event>
 8    1  0.1197213E+005  0.1043930E+01  0.7957747E-01            NaN
         13   -1    0    0    0    0  0.00000000000E+00  0.00000000000E+00  0.74505805969E-08  0.10566000000E+00  0.10566000000E+00 0.  1.
     999900   -1    0    0    0    0 -0.00000000000E+00 -0.00000000000E+00 -0.74505805969E-08  0.93827000000E+00  0.93827000000E+00 0.  1.
     999902    2    1    2    0    0  0.15615247815E-01 -0.10778826232E-01 -0.92163198333E-02  0.10228359342E+01  0.10226183984E+01 0.  0.
     999903    2    3    3    0    0  0.11085497802E+00 -0.53149065454E-01 -0.53600721662E-01  0.13557282866E+00  0.19831923743E-01 0.  0.
         14    1    1    2    0    0 -0.15615247815E-01  0.10778826232E-01  0.92163198333E-02  0.21094065766E-01  0.00000000000E+00 0.  1.
     999901    1    3    3    0    0 -0.95239730203E-01  0.42370239222E-01  0.44384401829E-01  0.88726310557E+00  0.88000000000E+00 0.  1.
        -11    1    4    4    0    0  0.52595522667E-01 -0.16051747523E-01 -0.17971208719E-01  0.57854758378E-01  0.51100000000E-03 0. -1.
         11    1    4    4    0    0  0.58259455351E-01 -0.37097317931E-01 -0.35629512943E-01  0.77718070286E-01  0.51100000000E-03 0.  1.
</event>
<event>
 8    1  0.1197213E+005  0.1043930E+01  0.7957747E-01            NaN
         13   -1    0    0    0    0  0.00000000000E+00  0.00000000000E+00  0.74505805969E-08  0.10566000000E+00  0.10566000000E+00 0. -1.
     999900   -1    0    0    0    0 -0.00000000000E+00 -0.00000000000E+00 -0.74505805969E-08  0.93827000000E+00  0.93827000000E+00 0.  1.
     999902    2    1    2    0    0  0.53663492723E-02  0.23639183356E-01 -0.10517300528E-01  0.10175061035E+01  0.10171629409E+01 0.  0.
     999903    2    3    3    0    0 -0.11538295834E+00  0.53339403267E-01 -0.13734329780E-02  0.12871697856E+00  0.20195426084E-01 0.  0.
         14    1    1    2    0    0 -0.53663492723E-02 -0.23639183356E-01  0.10517300528E-01  0.26423896470E-01  0.00000000000E+00 0.  1.
     999901    1    3    3    0    0  0.12074930761E+00 -0.29700219911E-01 -0.91438675497E-02  0.88878912497E+00  0.88000000000E+00 0. -1.
        -11    1    4    4    0    0 -0.10245988725E+00  0.47727105466E-01  0.52217087577E-02  0.11315225342E+00  0.51100000000E-03 0. -1.
         11    1    4    4    0    0 -0.12923071096E-01  0.56122978008E-02 -0.65951417357E-02  0.15564725140E-01  0.51100000000E-03 0.  1.
</event>
<event>
 8    1  0.1197213E+005  0.1043930E+01  0.7957747E-01            NaN
         13   -1    0    0    0    0  0.00000000000E+00  0.00000000000E+00  0.74505805969E-08  0.10566000000E+00  0.10566000000E+00 0. -1.
     999900   -1    0    0    0    0 -0.00000000000E+00 -0.00000000000E+00 -0.74505805969E-08  0.93827000000E+00  0.93827000000E+00 0. -1.
     999902    2    1    2    0    0 -0.12347619416E-01 -0.99520735224E-02 -0.18545374585E-01  0.10195283937E+01  0.10192363353E+01 0.  0.
     999903    2    3    3    0    0 -0.11047674483E+00 -0.61584033414E-01  0.29005397395E-01  0.13129629538E+00  0.19992493106E-01 0.  0.
         14    1    1    2    0    0  0.12347619416E-01  0.99520735224E-02  0.18545374585E-01  0.24401606323E-01  0.00000000000E+00 0. -1.
     999901    1    3    3    0    0  0.98129125418E-01  0.51631959892E-01 -0.47550771980E-01  0.88823209830E+00  0.88000000000E+00 0.  1.
        -11    1    4    4    0    0 -0.76007681107E-02 -0.87442355330E-02  0.70655108576E-02  0.13579981429E-01  0.51100000000E-03 0.  1.
         11    1    4    4    0    0 -0.10287597672E+00 -0.52839797881E-01  0.21939886537E-01  0.11771631395E+00  0.51100000000E-03 0. -1.
</event>
<event>
 8    1  0.1197213E+005  0.1043930E+01  0.7957747E-01            NaN
         13   -1    0    0    0    0  0.00000000000E+00  0.00000000000E+00  0.74505805969E-08  0.10566000000E+00  0.10566000000E+00 0. -1.
     999900   -1    0    0    0    0 -0.00000000000E+00 -0.00000000000E+00 -0.74505805969E-08  0.93827000000E+00  0.93827000000E+00 0.  1.
     999902    2    1    2    0    0 -0.62060856225E-02 -0.18778786257E-01  0.10687460083E-01  0.10214493391E+01  0.10212019253E+01 0.  0.
     999903    2    3    3    0    0  0.12852964985E+00 -0.34350898130E-02 -0.13724177612E-01  0.13072767915E+00  0.19227644462E-01 0.  0.
         14    1    1    2    0    0  0.62060856225E-02  0.18778786257E-01 -0.10687460083E-01  0.22480660913E-01  0.00000000000E+00 0. -1.
     999901    1    3    3    0    0 -0.13473573547E+00 -0.15343696444E-01  0.24411637695E-01  0.89072165994E+00  0.88000000000E+00 0.  1.
        -11    1    4    4    0    0  0.25135264913E-01 -0.78926812421E-03  0.49246168039E-02  0.25630401052E-01  0.51100000000E-03 0.  1.
         11    1    4    4    0    0  0.10339438494E+00 -0.26458216888E-02 -0.18648794416E-01  0.10509727809E+00  0.51100000000E-03 0. -1.
</event>
<event>
 8    1  0.1197213E+005  0.1043930E+01  0.7957747E-01            NaN
         13   -1    0    0    0    0  0.00000000000E+00  0.00000000000E+00  0.74505805969E-08  0.10566000000E+00  0.10566000000E+00 0. -1.
     999900   -1    0    0    0    0 -0.00000000000E+00 -0.00000000000E+00 -0.74505805969E-08  0.93827000000E+00  0.93827000000E+00 0. -1.
     999902    2    1    2    0    0  0.12572119672E-01  0.35299127780E-02  0.20344586018E-01  0.10197552062E+01  0.10194686164E+01 0.  0.
     999903    2    3    3    0    0 -0.40630119238E-01  0.61697704500E-01 -0.10233113823E+00  0.12775559655E+00  0.19809524699E-01 0.  0.
         14    1    1    2    0    0 -0.12572119672E-01 -0.35299127780E-02 -0.20344586018E-01  0.24174793846E-01  0.00000000000E+00 0.  1.
     999901    1    3    3    0    0  0.53202238910E-01 -0.58167791722E-01  0.12267572424E+00  0.89199960961E+00  0.88000000000E+00 0. -1.
        -11    1    4    4    0    0 -0.11780743253E-01  0.14576534327E-01 -0.41720546233E-01  0.45739767856E-01  0.51100000000E-03 0. -1.
         11    1    4    4    0    0 -0.28849375985E-01  0.47121170174E-01 -0.60610591993E-01  0.82015828692E-01  0.51100000000E-03 0.  1.
</event>
<event>
 7    1  0.1282563E+005  0.1043930E+01  0.7957747E-01            NaN
         13   -1    0    0    0    0  0.00000000000E+00  0.00000000000E+00  0.74505805969E-08  0.10566000000E+00  0.10566000000E+00 0. -1.
     999900   -1    0    0    0    0 -0.00000000000E+00 -0.00000000000E+00 -0.74505805969E-08  0.93827000000E+00  0.93827000000E+00 0.  1.
     999903    2    1    2    0    0 -0.29714263739E-01  0.83830364566E-02 -0.68818778248E-01  0.77687720304E-01  0.18604969138E-01 0.  0.
         14    1    1    2    0    0 -0.56848498404E-02  0.40764209963E-01 -0.62096364672E-01  0.74498300900E-01  0.00000000000E+00 0.  1.
     999901    1    1    2    0    0  0.35399113579E-01 -0.49147246419E-01  0.13091514292E+00  0.89174397880E+00  0.88000000000E+00 0. -1.
        -11    1    3    3    0    0 -0.19636571163E-01 -0.38978793302E-02 -0.41558867591E-01  0.46132298737E-01  0.51100000000E-03 0.  1.
         11    1    3    3    0    0 -0.10077692576E-01  0.12280915787E-01 -0.27259910658E-01  0.31555421567E-01  0.51100000000E-03 0. -1.
</event>
<event>
 8    1  0.1197213E+005  0.1043930E+01  0.7957747E-01            NaN
         13   -1    0    0    0    0  0.00000000000E+00  0.00000000000E+00  0.74505805969E-08  0.10566000000E+00  0.10566000000E+00 0.  1.
     999900   -1    0    0    0    0 -0.00000000000E+00 -0.00000000000E+00 -0.74505805969E-08  0.93827000000E+00  0.93827000000E+00 0. -1.
     999902    2    1    2    0    0  0.24698511218E-01 -0.10182692476E-01  0.10160313033E-01  0.10153479139E+01  0.10149455408E+01 0.  0.
     999903    2    3    3    0    0 -0.47912928631E-01 -0.12038528737E-01 -0.11183161591E+00  0.12396814300E+00  0.20523529339E-01 0.  0.
         14    1    1    2    0    0 -0.24698511218E-01  0.10182692476E-01 -0.10160313033E-01  0.28582086057E-01  0.00000000000E+00 0.  1.
     999901    1    3    3    0    0  0.72611439849E-01  0.18558362613E-02  0.12199192894E+00  0.89137977095E+00  0.88000000000E+00 0.  1.
        -11    1    4    4    0    0 -0.16468752008E-01 -0.12335316940E-01 -0.30768984079E-01  0.37018526969E-01  0.51100000000E-03 0. -1.
         11    1    4    4    0    0 -0.31444176623E-01  0.29678820297E-03 -0.81062631832E-01  0.86949616028E-01  0.51100000000E-03 0.  1.
</event>
<event>
 8    1  0.1197213E+005  0.1043930E+01  0.7957747E-01            NaN
         13   -1    0    0    0    0  0.00000000000E+00  0.00000000000E+00  0.74505805969E-08  0.10566000000E+00  0.10566000000E+00 0.  1.
     999900   -1    0    0    0    0 -0.00000000000E+00 -0.00000000000E+00 -0.74505805969E-08  0.93827000000E+00  0.93827000000E+00 0. -1.
     999902    2    1    2    0    0  0.10212348262E-02 -0.19966733236E-01 -0.11576313662E-01  0.10208275241E+01  0.10205660731E+01 0.  0.
     999903    2    3    3    0    0  0.12512528062E+00  0.26469390560E-01  0.17250593391E-01  0.13044046309E+00  0.18978065001E-01 0.  0.
         14    1    1    2    0    0 -0.10212348262E-02  0.19966733236E-01  0.11576313662E-01  0.23102475942E-01  0.00000000000E+00 0.  1.
     999901    1    3    3    0    0 -0.12410404579E+00 -0.46436123796E-01 -0.28826907052E-01  0.89038706097E+00  0.88000000000E+00 0. -1.
        -11    1    4    4    0    0  0.54746993722E-01  0.20783784887E-01  0.10662552673E-01  0.59524366324E-01  0.51100000000E-03 0.  1.
         11    1    4    4    0    0  0.70378286897E-01  0.56856056737E-02  0.65880407177E-02  0.70916096762E-01  0.51100000000E-03 0. -1.
</event>
<event>
 8    1  0.1197213E+005  0.1043930E+01  0.7957747E-01            NaN
         13   -1    0    0    0    0  0.00000000000E+00  0.00000000000E+00  0.74505805969E-08  0.10566000000E+00  0.10566000000E+00 0. -1.
     999900   -1    0    0    0    0 -0.00000000000E+00 -0.00000000000E+00 -0.74505805969E-08  0.93827000000E+00  0.93827000000E+00 0. -1.
     999902    2    1    2    0    0  0.22930270014E-01  0.18858479538E-03  0.73566162670E-02  0.10198477939E+01  0.10195634213E+01 0.  0.
     999903    2    3    3    0    0 -0.83304684119E-01  0.72886792276E-01 -0.60753943323E-01  0.12787809534E+00  0.20238842684E-01 0.  0.
         14    1    1    2    0    0 -0.22930270014E-01 -0.18858479538E-03 -0.73566162670E-02  0.24082206087E-01  0.00000000000E+00 0.  1.
     999901    1    3    3    0    0  0.10623495413E+00 -0.72698207480E-01  0.68110559590E-01  0.89196969858E+00  0.88000000000E+00 0.  1.
        -11    1    4    4    0    0 -0.58572531192E-01  0.60982685626E-01 -0.50986424809E-01  0.98739586753E-01  0.51100000000E-03 0. -1.
         11    1    4    4    0    0 -0.24732152927E-01  0.11904106650E-01 -0.97675185137E-02  0.29138508583E-01  0.51100000000E-03 0.  1.
</event>
<event>
 8    1  0.1197213E+005  0.1043930E+01  0.7957747E-01            NaN
         13   -1    0    0    0    0  0.00000000000E+00  0.00000000000E+00  0.74505805969E-08  0.10566000000E+00  0.10566000000E+00 0.  1.
     999900   -1    0    0    0    0 -0.00000000000E+00 -0.00000000000E+00 -0.74505805969E-08  0.93827000000E+00  0.93827000000E+00 0.  1.
     999902    2    1    2    0    0 -0.13063145042E-01  0.78144083658E-02 -0.18655113040E-01  0.10198525421E+01  0.10195682830E+01 0.  0.
     999903    2    3    3    0    0  0.52707890105E-01 -0.11207527505E+00 -0.31166101130E-01  0.12920340238E+00  0.19575606517E-01 0.  0.
         14    1    1    2    0    0  0.13063145042E-01 -0.78144083658E-02  0.18655113040E-01  0.24077457902E-01  0.00000000000E+00 0. -1.
     999901    1    3    3    0    0 -0.65771035147E-01  0.11988968342E+00  0.12510988090E-01  0.89064913972E+00  0.88000000000E+00 0. -1.
        -11    1    4    4    0    0  0.29597649658E-01 -0.42748160115E-01 -0.84811731707E-02  0.52684129279E-01  0.51100000000E-03 0.  1.
         11    1    4    4    0    0  0.23110240448E-01 -0.69327114935E-01 -0.22684927959E-01  0.76519273103E-01  0.51100000000E-03 0. -1.
</event>
<event>
 8    1  0.1197213E+005  0.1043930E+01  0.7957747E-01            NaN
         13   -1    0    0    0    0  0.00000000000E+00  0.00000000000E+00  0.74505805969E-08  0.10566000000E+00  0.10566000000E+00 0. -1.
     999900   -1    0    0    0    0 -0.00000000000E+00 -0.00000000000E+00 -0.74505805969E-08  0.93827000000E+00  0.93827000000E+00 0.  1.
     999902    2    1    2    0    0  0.22396057277E-01 -0.50827551170E-02 -0.64410813205E-02  0.10200782640E+01  0.10197993721E+01 0.  0.
     999903    2    3    3    0    0  0.97651628689E-01 -0.83416989581E-01 -0.29477815193E-01  0.13310005434E+00  0.18773602243E-01 0.  0.
         14    1    1    2    0    0 -0.22396057277E-01  0.50827551170E-02  0.64410813205E-02  0.23851735990E-01  0.00000000000E+00 0. -1.
     999901    1    3    3    0    0 -0.75255571411E-01  0.78334234464E-01  0.23036733873E-01  0.88697820967E+00  0.88000000000E+00 0.  1.
        -11    1    4    4    0    0  0.37000639452E-01 -0.32485502078E-01 -0.20461262000E-02  0.49282886670E-01  0.51100000000E-03 0.  1.
         11    1    4    4    0    0  0.60650989237E-01 -0.50931487503E-01 -0.27431688993E-01  0.83817167673E-01  0.51100000000E-03 0. -1.
</event>
<event>
 8    1  0.1197213E+005  0.1043930E+01  0.7957747E-01            NaN
         13   -1    0    0    0    0  0.00000000000E+00  0.00000000000E+00  0.74505805969E-08  0.10566000000E+00  0.10566000000E+00 0. -1.
     999900   -1    0    0    0    0 -0.00000000000E+00 -0.00000000000E+00 -0.74505805969E-08  0.93827000000E+00  0.93827000000E+00 0. -1.
     999902    2    1    2    0    0  0.56840051425E-02 -0.14488508711E-01  0.15508941725E-01  0.10219583803E+01  0.10217221633E+01 0.  0.
     999903    2    3    3    0    0 -0.38291572118E-01  0.11753999271E+00 -0.33698484163E-01  0.12966540859E+00  0.19890600006E-01 0.  0.
         14    1    1    2    0    0 -0.56840051425E-02  0.14488508711E-01 -0.15508941725E-01  0.21971619707E-01  0.00000000000E+00 0.  1.
     999901    1    3    3    0    0  0.43975577261E-01 -0.13202850142E+00  0.49207425888E-01  0.89229297170E+00  0.88000000000E+00 0.  1.
        -11    1    4    4    0    0 -0.24108507439E-01  0.71553226569E-01 -0.10482283044E-01  0.76231382922E-01  0.51100000000E-03 0.  1.
         11    1    4    4    0    0 -0.14183064679E-01  0.45986766142E-01 -0.23216201119E-01  0.53434025670E-01  0.51100000000E-03 0. -1.
</event>
<event>
 8    1  0.1197213E+005  0.1043930E+01  0.7957747E-01            NaN
         13   -1    0    0    0    0  0.00000000000E+00  0.00000000000E+00  0.74505805969E-08  0.10566000000E+00  0.10566000000E+00 0.  1.
     999900   -1    0    0    0    0 -0.00000000000E+00 -0.00000000000E+00 -0.74505805969E-08  0.93827000000E+00  0.93827000000E+00 0.  1.
     999902    2    1    2    0    0 -0.22331454584E-01 -0.88366872063E-03 -0.66285634854E-02  0.10206187884E+01  0.10203525364E+01 0.  0.
     999903    2    3    3    0    0  0.58100453935E-01 -0.11335840523E+00 -0.11237305681E-01  0.12980955021E+00  0.22326027506E-01 0.  0.
         14    1    1    2    0    0  0.22331454584E-01  0.88366872063E-03  0.66285634854E-02  0.23311211640E-01  0.00000000000E+00 0.  1.
     999901    1    3    3    0    0 -0.80431908518E-01  0.11247473651E+00  0.46087421960E-02  0.89080923815E+00  0.88000000000E+00 0. -1.
        -11    1    4    4    0    0  0.37811289175E-01 -0.80622936513E-01  0.20251213025E-02  0.89073642108E-01  0.51100000000E-03 0.  1.
         11    1    4    4    0    0  0.20289164760E-01 -0.32735468717E-01 -0.13262426984E-01  0.40735908107E-01  0.51100000000E-03 0. -1.
</event>
<event>
 8    1  0.1197213E+005  0.1043930E+01  0.7957747E-01            NaN
         13   -1    0    0    0    0  0.00000000000E+00  0.00000000000E+00  0.74505805969E-08  0.10566000000E+00  0.10566000000E+00 0. -1.
     999900   -1    0    0    0    0 -0.00000000000E+00 -0.00000000000E+00 -0.74505805969E-08  0.93827000000E+00  0.93827000000E+00 0. -1.
     999902    2    1    2    0    0  0.40853972124E-02  0.21425177857E-01 -0.82983987953E-02  0.10205935020E+01  0.10203266654E+01 0.  0.
     999903    2    3    3    0    0 -0.49492668912E-01 -0.61336923149E-01  0.99380130086E-01  0.12856500463E+00  0.20995421921E-01 0.  0.
         14    1    1    2    0    0 -0.40853972124E-02 -0.21425177857E-01  0.82983987953E-02  0.23336498005E-01  0.00000000000E+00 0.  1.
     999901    1    3    3    0    0  0.53578066125E-01  0.82762101005E-01 -0.10767852888E+00  0.89202849737E+00  0.88000000000E+00 0. -1.
        -11    1    4    4    0    0 -0.26573020233E-01 -0.45806830424E-01  0.74035432721E-01  0.91026905567E-01  0.51100000000E-03 0.  1.
         11    1    4    4    0    0 -0.22919648680E-01 -0.15530092724E-01  0.25344697365E-01  0.37538099062E-01  0.51100000000E-03 0. -1.
</event>
<event>
 8    1  0.1197213E+005  0.1043930E+01  0.7957747E-01            NaN
         13   -1    0    0    0    0  0.00000000000E+00  0.00000000000E+00  0.74505805969E-08  0.10566000000E+00  0.10566000000E+00 0.  1.
     999900   -1    0    0    0    0 -0.00000000000E+00 -0.00000000000E+00 -0.74505805969E-08  0.93827000000E+00  0.93827000000E+00 0. -1.
     999902    2    1    2    0    0 -0.23221394895E-01 -0.37268315277E-02 -0.64485806865E-02  0.10195433921E+01  0.10192516969E+01 0.  0.
     999903    2    3    3    0    0 -0.12585280623E+00  0.18791548269E-01  0.30800442155E-01  0.13251026205E+00  0.20451190465E-01 0.  0.
         14    1    1    2    0    0  0.23221394895E-01  0.37268315277E-02  0.64485806865E-02  0.24386607943E-01  0.00000000000E+00 0.  1.
     999901    1    3    3    0    0  0.10263141133E+00 -0.22518379796E-01 -0.37249022841E-01  0.88703313000E+00  0.88000000000E+00 0. -1.
        -11    1    4    4    0    0 -0.32827024073E-01  0.13282607507E-01  0.46468211252E-02  0.35719675800E-01  0.51100000000E-03 0.  1.
         11    1    4    4    0    0 -0.93025782153E-01  0.55089407613E-02  0.26153621030E-01  0.96790586254E-01  0.51100000000E-03 0. -1.
</event>
<event>
 8    1  0.1197213E+005  0.1043930E+01  0.7957747E-01            NaN
         13   -1    0    0    0    0  0.00000000000E+00  0.00000000000E+00  0.74505805969E-08  0.10566000000E+00  0.10566000000E+00 0. -1.
     999900   -1    0    0    0    0 -0.00000000000E+00 -0.00000000000E+00 -0.74505805969E-08  0.93827000000E+00  0.93827000000E+00 0. -1.
     999902    2    1    2    0    0  0.78403737542E-02 -0.22285314288E-01 -0.14796049644E-02  0.10202594291E+01  0.10199848072E+01 0.  0.
     999903    2    3    3    0    0  0.11328719494E+00 -0.63479066812E-01 -0.18517085521E-01  0.13284394974E+00  0.21001239662E-01 0.  0.
         14    1    1    2    0    0 -0.78403737542E-02  0.22285314288E-01  0.14796049644E-02  0.23670570851E-01  0.00000000000E+00 0. -1.
     999901    1    3    3    0    0 -0.10544682118E+00  0.41193752524E-01  0.17037480556E-01  0.88741547941E+00  0.88000000000E+00 0. -1.
        -11    1    4    4    0    0  0.32544234065E-01 -0.80479630520E-02 -0.27292514629E-02  0.33639364065E-01  0.51100000000E-03 0.  1.
         11    1    4    4    0    0  0.80742960872E-01 -0.55431103760E-01 -0.15787834058E-01  0.99204585679E-01  0.51100000000E-03 0. -1.
</event>
<event>
 8    1  0.1197213E+005  0.1043930E+01  0.7957747E-01            NaN
         13   -1    0    0    0    0  0.00000000000E+00  0.00000000000E+00  0.74505805969E-08  0.10566000000E+00  0.10566000000E+00 0. -1.
     999900   -1    0    0    0    0 -0.00000000000E+00 -0.00000000000E+00 -0.74505805969E-08  0.93827000000E+00  0.93827000000E+00 0.  1.
     999902    2    1    2    0    0  0.36871516435E-02 -0.43200939717E-04  0.23408520856E-01  0.10202328313E+01  0.10199575846E+01 0.  0.
     999903    2    3    3    0    0 -0.62184156997E-02 -0.98252362921E-01  0.86487301959E-01  0.13247042372E+00  0.19394954193E-01 0.  0.
         14    1    1    2    0    0 -0.36871516435E-02  0.43200939717E-04 -0.23408520856E-01  0.23697168654E-01  0.00000000000E+00 0.  1.
     999901    1    3    3    0    0  0.99055673432E-02  0.98209161981E-01 -0.63078781102E-01  0.88776240762E+00  0.88000000000E+00 0. -1.
        -11    1    4    4    0    0  0.20349782787E-02 -0.54246366280E-01  0.57780816438E-01  0.79282364120E-01  0.51100000000E-03 0.  1.
         11    1    4    4    0    0 -0.82533939783E-02 -0.44005996640E-01  0.28706485521E-01  0.53188059604E-01  0.51100000000E-03 0. -1.
</event>
<event>
 8    1  0.1197213E+005  0.1043930E+01  0.7957747E-01            NaN
         13   -1    0    0    0    0  0.00000000000E+00  0.00000000000E+00  0.74505805969E-08  0.10566000000E+00  0.10566000000E+00 0. -1.
     999900   -1    0    0    0    0 -0.00000000000E+00 -0.00000000000E+00 -0.74505805969E-08  0.93827000000E+00  0.93827000000E+00 0.  1.
     999902    2    1    2    0    0 -0.81923916160E-02  0.11341189422E-01  0.19926613693E-01  0.10195823555E+01  0.10192916030E+01 0.  0.
     999903    2    3    3    0    0  0.92225000696E-01 -0.44116707208E-01 -0.71511395431E-01  0.12743879058E+00  0.25981359834E-01 0.  0.
         14    1    1    2    0    0  0.81923916160E-02 -0.11341189422E-01 -0.19926613693E-01  0.24347644469E-01  0.00000000000E+00 0. -1.
     999901    1    3    3    0    0 -0.10041739231E+00  0.55457896630E-01  0.91438009125E-01  0.89214356495E+00  0.88000000000E+00 0. -1.
        -11    1    4    4    0    0  0.58231983257E-01 -0.21335164952E-01 -0.56352020996E-01  0.83797163013E-01  0.51100000000E-03 0.  1.
         11    1    4    4    0    0  0.33993017439E-01 -0.22781542256E-01 -0.15159374435E-01  0.43641627564E-01  0.51100000000E-03 0. -1.
</event>
<event>
 8    1  0.1197213E+005  0.1043930E+01  0.7957747E-01            NaN
         13   -1    0    0    0    0  0.00000000000E+00  0.00000000000E+00  0.74505805969E-08  0.10566000000E+00  0.10566000000E+00 0.  1.
     999900   -1    0    0    0    0 -0.00000000000E+00 -0.00000000000E+00 -0.74505805969E-08  0.93827000000E+00  0.93827000000E+00 0. -1.
     999902    2    1    2    0    0  0.24086675924E-02 -0.74884198808E-02  0.22511144293E-01  0.10200840417E+01  0.10198052865E+01 0.  0.
     999903    2    3    3    0    0  0.13985675626E-01  0.77271698831E-01  0.10449617289E+00  0.13214268675E+00  0.19383625854E-01 0.  0.
         14    1    1    2    0    0 -0.24086675924E-02  0.74884198808E-02 -0.22511144293E-01  0.23845958343E-01  0.00000000000E+00 0.  1.
     999901    1    3    3    0    0 -0.11577008033E-01 -0.84760118711E-01 -0.81985028592E-01  0.88794135491E+00  0.88000000000E+00 0. -1.
        -11    1    4    4    0    0  0.71821273182E-02  0.19690075994E-01  0.16136251334E-01  0.26456034729E-01  0.51100000000E-03 0.  1.
         11    1    4    4    0    0  0.68035483075E-02  0.57581622836E-01  0.88359921552E-01  0.10568665202E+00  0.51100000000E-03 0. -1.
</event>
<event>
 8    1  0.1197213E+005  0.1043930E+01  0.7957747E-01            NaN
         13   -1    0    0    0    0  0.00000000000E+00  0.00000000000E+00  0.74505805969E-08  0.10566000000E+00  0.10566000000E+00 0. -1.
     999900   -1    0    0    0    0 -0.00000000000E+00 -0.00000000000E+00 -0.74505805969E-08  0.93827000000E+00  0.93827000000E+00 0. -1.
     999902    2    1    2    0    0 -0.71583194632E-02  0.14340228122E-01 -0.16847312837E-01  0.10206767071E+01  0.10204117918E+01 0.  0.
     999903    2    3    3    0    0  0.63753024749E-02 -0.10901072597E+00  0.64392397544E-01  0.12826508273E+00  0.19533758687E-01 0.  0.
         14    1    1    2    0    0  0.71583194632E-02 -0.14340228122E-01  0.16847312837E-01  0.23253292884E-01  0.00000000000E+00 0. -1.
     999901    1    3    3    0    0 -0.13533621938E-01  0.12335095409E+00 -0.81239710380E-01  0.89241162439E+00  0.88000000000E+00 0. -1.
        -11    1    4    4    0    0 -0.41518504447E-02 -0.40222101540E-01  0.15937575495E-01  0.43466340403E-01  0.51100000000E-03 0.  1.
         11    1    4    4    0    0  0.10527152920E-01 -0.68788624429E-01  0.48454822049E-01  0.84798742327E-01  0.51100000000E-03 0. -1.
</event>
<event>
 8    1  0.1197213E+005  0.1043930E+01  0.7957747E-01            NaN
         13   -1    0    0    0    0  0.00000000000E+00  0.00000000000E+00  0.74505805969E-08  0.10566000000E+00  0.10566000000E+00 0.  1.
     999900   -1    0    0    0    0 -0.00000000000E+00 -0.00000000000E+00 -0.74505805969E-08  0.93827000000E+00  0.93827000000E+00 0. -1.
     999902    2    1    2    0    0  0.99317539147E-02 -0.10780667270E-01  0.17524660537E-01  0.10210832005E+01  0.10208275692E+01 0.  0.
     999903    2    3    3    0    0 -0.19151698345E-01 -0.90891325206E-01  0.93955311180E-01  0.13366829802E+00  0.20287751186E-01 0.  0.
         14    1    1    2    0    0 -0.99317539147E-02  0.10780667270E-01 -0.17524660537E-01  0.22846799547E-01  0.00000000000E+00 0.  1.
     999901    1    3    3    0    0  0.29083452260E-01  0.80110657936E-01 -0.76430650642E-01  0.88741490244E+00  0.88000000000E+00 0.  1.
        -11    1    4    4    0    0 -0.61425380924E-02 -0.64959247851E-02  0.45882866414E-02  0.10061873997E-01  0.51100000000E-03 0.  1.
         11    1    4    4    0    0 -0.13009160253E-01 -0.84395400421E-01  0.89367024538E-01  0.12360642402E+00  0.51100000000E-03 0. -1.
</event>
<event>
 8    1  0.1197213E+005  0.1043930E+01  0.7957747E-01            NaN
         13   -1    0    0    0    0  0.00000000000E+00  0.00000000000E+00  0.74505805969E-08  0.10566000000E+00  0.10566000000E+00 0. -1.
     999900   -1    0    0    0    0 -0.00000000000E+00 -0.00000000000E+00 -0.74505805969E-08  0.93827000000E+00  0.93827000000E+00 0.  1.
     999902    2    1    2    0    0  0.84362485363E-03  0.14387933451E-01 -0.19698848130E-01  0.10195216213E+01  0.10192293988E+01 0.  0.
     999903    2    3    3    0    0 -0.10968382260E+00  0.50840434757E-01 -0.47252072745E-01  0.13143137722E+00  0.20643589594E-01 0.  0.
         14    1    1    2    0    0 -0.84362485363E-03 -0.14387933451E-01  0.19698848130E-01  0.24408378675E-01  0.00000000000E+00 0.  1.
     999901    1    3    3    0    0  0.11052744746E+00 -0.36452501306E-01  0.27553224615E-01  0.88809024411E+00  0.88000000000E+00 0. -1.
        -11    1    4    4    0    0 -0.29118265621E-01  0.15407553591E-01 -0.34727314490E-02  0.33129851873E-01  0.51100000000E-03 0. -1.
         11    1    4    4    0    0 -0.80565556983E-01  0.35432881166E-01 -0.43779341296E-01  0.98301525344E-01  0.51100000000E-03 0.  1.
</event>
<event>
 8    1  0.1197213E+005  0.1043930E+01  0.7957747E-01            NaN
         13   -1    0    0    0    0  0.00000000000E+00  0.00000000000E+00  0.74505805969E-08  0.10566000000E+00  0.10566000000E+00 0. -1.
     999900   -1    0    0    0    0 -0.00000000000E+00 -0.00000000000E+00 -0.74505805969E-08  0.93827000000E+00  0.93827000000E+00 0. -1.
     999902    2    1    2    0    0  0.11226259642E-01 -0.83979138890E-02 -0.19286795856E-01  0.10200860415E+01  0.10198073336E+01 0.  0.
     999903    2    3    3    0    0 -0.16759697898E-01  0.11925511847E+00  0.40494722071E-01  0.12842896594E+00  0.18748493871E-01 0.  0.
         14    1    1    2    0    0 -0.11226259642E-01  0.83979138890E-02  0.19286795856E-01  0.23843958515E-01  0.00000000000E+00 0. -1.
     999901    1    3    3    0    0  0.27985957540E-01 -0.12765303235E+00 -0.59781517927E-01  0.89165707555E+00  0.88000000000E+00 0. -1.
        -11    1    4    4    0    0 -0.36492554413E-02  0.33534959690E-01  0.20357837230E-01  0.39403213630E-01  0.51100000000E-03 0. -1.
         11    1    4    4    0    0 -0.13110442456E-01  0.85720158775E-01  0.20136884841E-01  0.89025752308E-01  0.51100000000E-03 0.  1.
</event>
<event>
 8    1  0.1197213E+005  0.1043930E+01  0.7957747E-01            NaN
         13   -1    0    0    0    0  0.00000000000E+00  0.00000000000E+00  0.74505805969E-08  0.10566000000E+00  0.10566000000E+00 0.  1.
     999900   -1    0    0    0    0 -0.00000000000E+00 -0.00000000000E+00 -0.74505805969E-08  0.93827000000E+00  0.93827000000E+00 0. -1.
     999902    2    1    2    0    0  0.62424101445E-02  0.20882971606E-01 -0.10871083319E-01  0.10195733451E+01  0.10192823747E+01 0.  0.
     999903    2    3    3    0    0 -0.11530811931E-01  0.13276078871E-01 -0.12807980293E+00  0.13159156811E+00  0.24549765482E-01 0.  0.
         14    1    1    2    0    0 -0.62424101445E-02 -0.20882971606E-01  0.10871083319E-01  0.24356654944E-01  0.00000000000E+00 0.  1.
     999901    1    3    3    0    0  0.17773222075E-01  0.76068927349E-02  0.11720871961E+00  0.88798177695E+00  0.88000000000E+00 0.  1.
        -11    1    4    4    0    0 -0.90717511233E-02 -0.55440632070E-02 -0.58873102565E-01  0.59827557463E-01  0.51100000000E-03 0. -1.
         11    1    4    4    0    0 -0.24590608076E-02  0.18820142078E-01 -0.69206700362E-01  0.71764010645E-01  0.51100000000E-03 0.  1.
</event>
<event>
 8    1  0.1197213E+005  0.1043930E+01  0.7957747E-01            NaN
         13   -1    0    0    0    0  0.00000000000E+00  0.00000000000E+00  0.74505805969E-08  0.10566000000E+00  0.10566000000E+00 0.  1.
     999900   -1    0    0    0    0 -0.00000000000E+00 -0.00000000000E+00 -0.74505805969E-08  0.93827000000E+00  0.93827000000E+00 0.  1.
     999902    2    1    2    0    0  0.84062492121E-03 -0.21072414525E-01  0.10456040224E-01  0.10203910518E+01  0.10201195109E+01 0.  0.
     999903    2    3    3    0    0 -0.11008884124E+00 -0.20916697222E-01  0.65900303479E-01  0.13169569511E+00  0.21067627421E-01 0.  0.
         14    1    1    2    0    0 -0.84062492121E-03  0.21072414525E-01 -0.10456040224E-01  0.23538948178E-01  0.00000000000E+00 0. -1.
     999901    1    3    3    0    0  0.11092946616E+00 -0.15571730243E-03 -0.55444263255E-01  0.88869535671E+00  0.88000000000E+00 0.  1.
        -11    1    4    4    0    0 -0.22067672176E-01  0.31383160212E-02  0.83218448537E-02  0.23798012638E-01  0.51100000000E-03 0. -1.
         11    1    4    4    0    0 -0.88021169059E-01 -0.24055013244E-01  0.57578458626E-01  0.10789768247E+00  0.51100000000E-03 0.  1.
</event>
<event>
 8    1  0.1197213E+005  0.1043930E+01  0.7957747E-01            NaN
         13   -1    0    0    0    0  0.00000000000E+00  0.00000000000E+00  0.74505805969E-08  0.10566000000E+00  0.10566000000E+00 0.  1.
     999900   -1    0    0    0    0 -0.00000000000E+00 -0.00000000000E+00 -0.74505805969E-08  0.93827000000E+00  0.93827000000E+00 0. -1.
     999902    2    1    2    0    0  0.84876667327E-02 -0.22285968915E-01 -0.20409580152E-03  0.10200815923E+01  0.10198027791E+01 0.  0.
     999903    2    3    3    0    0 -0.79645576269E-01  0.59311819116E-01 -0.78969282288E-01  0.12843725613E+00  0.19966760159E-01 0.  0.
         14    1    1    2    0    0 -0.84876667327E-02  0.22285968915E-01  0.20409580152E-03  0.23848407749E-01  0.00000000000E+00 0. -1.
     999901    1    3    3    0    0  0.88133243001E-01 -0.81597788031E-01  0.78765186486E-01  0.89164433612E+00  0.88000000000E+00 0. -1.
        -11    1    4    4    0    0 -0.16340155214E-01  0.16691180524E-01 -0.28894087001E-01  0.37158115726E-01  0.51100000000E-03 0.  1.
         11    1    4    4    0    0 -0.63305421055E-01  0.42620638592E-01 -0.50075195287E-01  0.91279140404E-01  0.51100000000E-03 0. -1.
</event>
<event>
 8    1  0.1197213E+005  0.1043930E+01  0.7957747E-01            NaN
         13   -1    0    0    0    0  0.00000000000E+00  0.00000000000E+00  0.74505805969E-08  0.10566000000E+00  0.10566000000E+00 0. -1.
     999900   -1    0    0    0    0 -0.00000000000E+00 -0.00000000000E+00 -0.74505805969E-08  0.93827000000E+00  0.93827000000E+00 0. -1.
     999902    2    1    2    0    0  0.48703254193E-02 -0.22465839796E-01  0.11749687441E-01  0.10181135482E+01  0.10177861798E+01 0.  0.
     999903    2    3    3    0    0 -0.10297950486E+00 -0.49409753882E-01  0.58161586598E-01  0.12990657641E+00  0.21138737847E-01 0.  0.
         14    1    1    2    0    0 -0.48703254193E-02  0.22465839796E-01 -0.11749687441E-01  0.25816451777E-01  0.00000000000E+00 0.  1.
     999901    1    3    3    0    0  0.10784983028E+00  0.26943914086E-01 -0.46411899157E-01  0.88820697182E+00  0.88000000000E+00 0.  1.
        -11    1    4    4    0    0 -0.63608465129E-01 -0.22943977473E-01  0.25323427549E-01  0.72208033086E-01  0.51100000000E-03 0.  1.
         11    1    4    4    0    0 -0.39371039734E-01 -0.26465776409E-01  0.32838159049E-01  0.57698543322E-01  0.51100000000E-03 0. -1.
</event>
<event>
 8    1  0.1197213E+005  0.1043930E+01  0.7957747E-01            NaN
         13   -1    0    0    0    0  0.00000000000E+00  0.00000000000E+00  0.74505805969E-08  0.10566000000E+00  0.10566000000E+00 0. -1.
     999900   -1    0    0    0    0 -0.00000000000E+00 -0.00000000000E+00 -0.74505805969E-08  0.93827000000E+00  0.93827000000E+00 0.  1.
     999902    2    1    2    0    0  0.16521809348E-01 -0.10304654446E-01  0.12864853471E-01  0.10205920365E+01  0.10203251660E+01 0.  0.
     999903    2    3    3    0    0 -0.12309753747E+00 -0.18950663307E-02  0.33750621631E-01  0.12930055861E+00  0.20565383286E-01 0.  0.
         14    1    1    2    0    0 -0.16521809348E-01  0.10304654446E-01 -0.12864853471E-01  0.23337963540E-01  0.00000000000E+00 0.  1.
     999901    1    3    3    0    0  0.13961934681E+00 -0.84095881150E-02 -0.20885768161E-01  0.89129147785E+00  0.88000000000E+00 0.  1.
        -11    1    4    4    0    0 -0.39951660697E-01 -0.68868289423E-02  0.35566233153E-02  0.40699807073E-01  0.51100000000E-03 0.  1.
         11    1    4    4    0    0 -0.83145876768E-01  0.49917626117E-02  0.30193998316E-01  0.88600751536E-01  0.51100000000E-03 0. -1.
</event>
<event>
 8    1  0.1197213E+005  0.1043930E+01  0.7957747E-01            NaN
         13   -1    0    0    0    0  0.00000000000E+00  0.00000000000E+00  0.74505805969E-08  0.10566000000E+00  0.10566000000E+00 0.  1.
     999900   -1    0    0    0    0 -0.00000000000E+00 -0.00000000000E+00 -0.74505805969E-08  0.93827000000E+00  0.93827000000E+00 0. -1.
     999902    2    1    2    0    0 -0.17618975107E-02  0.19303596487E-01  0.13371843702E-01  0.10203813414E+01  0.10201095737E+01 0.  0.
     999903    2    3    3    0    0  0.81129615927E-01  0.13293174354E-01  0.10128260203E+00  0.13210467859E+00  0.20850840914E-01 0.  0.
         14    1    1    2    0    0  0.17618975107E-02 -0.19303596487E-01 -0.13371843702E-01  0.23548658648E-01  0.00000000000E+00 0. -1.
     999901    1    3    3    0    0 -0.82891513438E-01  0.60104221329E-02 -0.87910758329E-01  0.88827666276E+00  0.88000000000E+00 0. -1.
        -11    1    4    4    0    0  0.20935061011E-01  0.11476059622E-01  0.21413171438E-01  0.32074316143E-01  0.51100000000E-03 0.  1.
         11    1    4    4    0    0  0.60194554916E-01  0.18171147317E-02  0.79869430592E-01  0.10003036245E+00  0.51100000000E-03 0. -1.
</event>
<event>
 8    1  0.1197213E+005  0.1043930E+01  0.7957747E-01            NaN
         13   -1    0    0    0    0  0.00000000000E+00  0.00000000000E+00  0.74505805969E-08  0.10566000000E+00  0.10566000000E+00 0.  1.
     999900   -1    0    0    0    0 -0.00000000000E+00 -0.00000000000E+00 -0.74505805969E-08  0.93827000000E+00  0.93827000000E+00 0. -1.
     999902    2    1    2    0    0 -0.82876553206E-02  0.22617352056E-01 -0.31999097937E-02  0.10196304266E+01  0.10193408348E+01 0.  0.
     999903    2    3    3    0    0  0.86220794301E-01 -0.52002407873E-01 -0.77137175418E-01  0.12835792345E+00  0.19680876163E-01 0.  0.
         14    1    1    2    0    0  0.82876553206E-02 -0.22617352056E-01  0.31999097937E-02  0.24299573400E-01  0.00000000000E+00 0. -1.
     999901    1    3    3    0    0 -0.94508449621E-01  0.74619759929E-01  0.73937265625E-01  0.89127250315E+00  0.88000000000E+00 0.  1.
        -11    1    4    4    0    0  0.18876790734E-01 -0.35748895746E-02 -0.10134559405E-01  0.21727482119E-01  0.51100000000E-03 0. -1.
         11    1    4    4    0    0  0.67344003567E-01 -0.48427518298E-01 -0.67002616014E-01  0.10663044133E+00  0.51100000000E-03 0.  1.
</event>
<event>
 8    1  0.1197213E+005  0.1043930E+01  0.7957747E-01            NaN
         13   -1    0    0    0    0  0.00000000000E+00  0.00000000000E+00  0.74505805969E-08  0.10566000000E+00  0.10566000000E+00 0. -1.
     999900   -1    0    0    0    0 -0.00000000000E+00 -0.00000000000E+00 -0.74505805969E-08  0.93827000000E+00  0.93827000000E+00 0.  1.
     999902    2    1    2    0    0 -0.34386930109E-02  0.23182428309E-01  0.24354850952E-02  0.10203677170E+01  0.10200956312E+01 0.  0.
     999903    2    3    3    0    0 -0.38254634304E-01  0.11920937037E+00  0.41881097733E-01  0.13358179035E+00  0.20390618841E-01 0.  0.
         14    1    1    2    0    0  0.34386930109E-02 -0.23182428309E-01 -0.24354850952E-02  0.23562282988E-01  0.00000000000E+00 0.  1.
     999901    1    3    3    0    0  0.34815941293E-01 -0.96026942059E-01 -0.39445612638E-01  0.88678592666E+00  0.88000000000E+00 0.  1.
        -11    1    4    4    0    0 -0.22490366028E-01  0.89361418028E-01  0.37706284815E-01  0.99565579553E-01  0.51100000000E-03 0.  1.
         11    1    4    4    0    0 -0.15764268276E-01  0.29847952340E-01  0.41748129174E-02  0.34016210798E-01  0.51100000000E-03 0. -1.
</event>
<event>
 8    1  0.1197213E+005  0.1043930E+01  0.7957747E-01            NaN
         13   -1    0    0    0    0  0.00000000000E+00  0.00000000000E+00  0.74505805969E-08  0.10566000000E+00  0.10566000000E+00 0. -1.
     999900   -1    0    0    0    0 -0.00000000000E+00 -0.00000000000E+00 -0.74505805969E-08  0.93827000000E+00  0.93827000000E+00 0.  1.
     999902    2    1    2    0    0  0.47072185281E-02 -0.22007759547E-01 -0.72375317502E-02  0.10202893305E+01  0.10200154101E+01 0.  0.
     999903    2    3    3    0    0 -0.11119654546E+00 -0.66831323164E-01 -0.97121660803E-02  0.13155486054E+00  0.19525820935E-01 0.  0.
         14    1    1    2    0    0 -0.47072185281E-02  0.22007759547E-01  0.72375317502E-02  0.23640669457E-01  0.00000000000E+00 0. -1.
     999901    1    3    3    0    0  0.11590376399E+00  0.44823563617E-01  0.24746343301E-02  0.88873447001E+00  0.88000000000E+00 0. -1.
        -11    1    4    4    0    0 -0.70230765479E-01 -0.45426673926E-01 -0.15178051900E-01  0.85009278930E-01  0.51100000000E-03 0.  1.
         11    1    4    4    0    0 -0.40965779980E-01 -0.21404649238E-01  0.54658858195E-02  0.46545581607E-01  0.51100000000E-03 0. -1.
</event>
<event>
 8    1  0.1197213E+005  0.1043930E+01  0.7957747E-01            NaN
         13   -1    0    0    0    0  0.00000000000E+00  0.00000000000E+00  0.74505805969E-08  0.10566000000E+00  0.10566000000E+00 0. -1.
     999900   -1    0    0    0    0 -0.00000000000E+00 -0.00000000000E+00 -0.74505805969E-08  0.93827000000E+00  0.93827000000E+00 0.  1.
     999902    2    1    2    0    0  0.15039399898E-01  0.12451271668E-01 -0.12047002954E-01  0.10209877247E+01  0.10207299280E+01 0.  0.
     999903    2    3    3    0    0 -0.23530804442E-01 -0.11020865815E+00 -0.62150242261E-01  0.13023329523E+00  0.19960247576E-01 0.  0.
         14    1    1    2    0    0 -0.15039399898E-01 -0.12451271668E-01  0.12047002954E-01  0.22942275292E-01  0.00000000000E+00 0. -1.
     999901    1    3    3    0    0  0.38570204340E-01  0.12265992982E+00  0.50103239307E-01  0.89075442948E+00  0.88000000000E+00 0. -1.
        -11    1    4    4    0    0 -0.17489658995E-01 -0.36964018227E-01 -0.24172687107E-01  0.47505860040E-01  0.51100000000E-03 0. -1.
         11    1    4    4    0    0 -0.60411454474E-02 -0.73244639927E-01 -0.37977555154E-01  0.82727435189E-01  0.51100000000E-03 0.  1.
</event>
<event>
 8    1  0.1197213E+005  0.1043930E+01  0.7957747E-01            NaN
         13   -1    0    0    0    0  0.00000000000E+00  0.00000000000E+00  0.74505805969E-08  0.10566000000E+00  0.10566000000E+00 0.  1.
     999900   -1    0    0    0    0 -0.00000000000E+00 -0.00000000000E+00 -0.74505805969E-08  0.93827000000E+00  0.93827000000E+00 0. -1.
     999902    2    1    2    0    0  0.20543293116E-01  0.12348158836E-01  0.10764023110E-02  0.10199370310E+01  0.10196547870E+01 0.  0.
     999903    2    3    3    0    0  0.87160238936E-01 -0.81701269092E-01  0.50102112063E-01  0.13106885599E+00  0.19920310087E-01 0.  0.
         14    1    1    2    0    0 -0.20543293116E-01 -0.12348158836E-01 -0.10764023110E-02  0.23992968983E-01  0.00000000000E+00 0. -1.
     999901    1    3    3    0    0 -0.66616945820E-01  0.94049427929E-01 -0.49025709752E-01  0.88886817503E+00  0.88000000000E+00 0. -1.
        -11    1    4    4    0    0  0.85097057442E-01 -0.74874805079E-01  0.50079310227E-01  0.12391910286E+00  0.51100000000E-03 0.  1.
         11    1    4    4    0    0  0.20631814942E-02 -0.68264640126E-02  0.22801836552E-04  0.71497531228E-02  0.51100000000E-03 0. -1.
</event>
<event>
 8    1  0.1197213E+005  0.1043930E+01  0.7957747E-01            NaN
         13   -1    0    0    0    0  0.00000000000E+00  0.00000000000E+00  0.74505805969E-08  0.10566000000E+00  0.10566000000E+00 0.  1.
     999900   -1    0    0    0    0 -0.00000000000E+00 -0.00000000000E+00 -0.74505805969E-08  0.93827000000E+00  0.93827000000E+00 0. -1.
     999902    2    1    2    0    0 -0.54284812221E-02  0.19244535554E-01 -0.12623396986E-01  0.10202832093E+01  0.10200091453E+01 0.  0.
     999903    2    3    3    0    0  0.69731385624E-01  0.68845467865E-01 -0.87776076541E-01  0.13250103824E+00  0.15802561067E-01 0.  0.
         14    1    1    2    0    0  0.54284812221E-02 -0.19244535554E-01  0.12623396986E-01  0.23646790661E-01  0.00000000000E+00 0.  1.
     999901    1    3    3    0    0 -0.75159866846E-01 -0.49600932311E-01  0.75152679555E-01  0.88778217110E+00  0.88000000000E+00 0.  1.
        -11    1    4    4    0    0  0.67554435256E-01  0.69240640846E-01 -0.84115755471E-01  0.12819356266E+00  0.51100000000E-03 0. -1.
         11    1    4    4    0    0  0.21769503681E-02 -0.39517298107E-03 -0.36603210699E-02  0.43074755861E-02  0.51100000000E-03 0.  1.
</event>
<event>
 8    1  0.1197213E+005  0.1043930E+01  0.7957747E-01            NaN
         13   -1    0    0    0    0  0.00000000000E+00  0.00000000000E+00  0.74505805969E-08  0.10566000000E+00  0.10566000000E+00 0.  1.
     999900   -1    0    0    0    0 -0.00000000000E+00 -0.00000000000E+00 -0.74505805969E-08  0.93827000000E+00  0.93827000000E+00 0.  1.
     999902    2    1    2    0    0  0.11321573554E-01  0.20300279904E-01 -0.35761923227E-02  0.10204125906E+01  0.10201415522E+01 0.  0.
     999903    2    3    3    0    0 -0.98371936966E-01 -0.70464794100E-01 -0.37881597034E-01  0.12830955527E+00  0.19646918064E-01 0.  0.
         14    1    1    2    0    0 -0.11321573554E-01 -0.20300279904E-01  0.35761923227E-02  0.23517409369E-01  0.00000000000E+00 0. -1.
     999901    1    3    3    0    0  0.10969351052E+00  0.90765074004E-01  0.34305404711E-01  0.89210303536E+00  0.88000000000E+00 0.  1.
        -11    1    4    4    0    0 -0.87353314834E-01 -0.62361330441E-01 -0.26612974750E-01  0.11058050774E+00  0.51100000000E-03 0. -1.
         11    1    4    4    0    0 -0.11018622132E-01 -0.81034636594E-02 -0.11268622284E-01  0.17729047525E-01  0.51100000000E-03 0.  1.
</event>
<event>
 8    1  0.1197213E+005  0.1043930E+01  0.7957747E-01            NaN
         13   -1    0    0    0    0  0.00000000000E+00  0.00000000000E+00  0.74505805969E-08  0.10566000000E+00  0.10566000000E+00 0. -1.
     999900   -1    0    0    0    0 -0.00000000000E+00 -0.00000000000E+00 -0.74505805969E-08  0.93827000000E+00  0.93827000000E+00 0.  1.
     999902    2    1    2    0    0  0.47985888424E-02  0.23224034913E-01  0.48630985599E-02  0.10197219026E+01  0.10194345132E+01 0.  0.
     999903    2    3    3    0    0  0.12414740757E+00  0.38611041601E-01  0.19076482664E-02  0.13152730950E+00  0.19809156558E-01 0.  0.
         14    1    1    2    0    0 -0.47985888424E-02 -0.23224034913E-01 -0.48630985599E-02  0.24208097408E-01  0.00000000000E+00 0.  1.
     999901    1    3    3    0    0 -0.11934881873E+00 -0.15387006688E-01  0.29554502934E-02  0.88819459309E+00  0.88000000000E+00 0.  1.
        -11    1    4    4    0    0  0.32560613705E-01  0.15489982361E-01 -0.66863464214E-02  0.36675624983E-01  0.51100000000E-03 0. -1.
         11    1    4    4    0    0  0.91586793864E-01  0.23121059240E-01  0.85939946878E-02  0.94851684520E-01  0.51100000000E-03 0.  1.
</event>
<event>
 8    1  0.1197213E+005  0.1043930E+01  0.7957747E-01            NaN
         13   -1    0    0    0    0  0.00000000000E+00  0.00000000000E+00  0.74505805969E-08  0.10566000000E+00  0.10566000000E+00 0. -1.
     999900   -1    0    0    0    0 -0.00000000000E+00 -0.00000000000E+00 -0.74505805969E-08  0.93827000000E+00  0.93827000000E+00 0. -1.
     999902    2    1    2    0    0  0.56245491878E-02 -0.58159354949E-02 -0.21666785296E-01  0.10208018733E+01  0.10205398347E+01 0.  0.
     999903    2    3    3    0    0 -0.65602835183E-01 -0.11164468372E+00 -0.11194987020E-01  0.13154222461E+00  0.20242572352E-01 0.  0.
         14    1    1    2    0    0 -0.56245491878E-02  0.58159354949E-02  0.21666785296E-01  0.23128126692E-01  0.00000000000E+00 0. -1.
     999901    1    3    3    0    0  0.71227384370E-01  0.10582874822E+00 -0.10471798276E-01  0.88925964869E+00  0.88000000000E+00 0. -1.
        -11    1    4    4    0    0 -0.32276948083E-01 -0.43368376513E-01  0.34217312246E-02  0.54171826852E-01  0.51100000000E-03 0. -1.
         11    1    4    4    0    0 -0.33325887100E-01 -0.68276307206E-01 -0.14616718245E-01  0.77370397763E-01  0.51100000000E-03 0.  1.
</event>
<event>
 7    1  0.1289008E+005  0.1043930E+01  0.7957747E-01            NaN
         13   -1    0    0    0    0  0.00000000000E+00  0.00000000000E+00  0.74505805969E-08  0.10566000000E+00  0.10566000000E+00 0. -1.
     999900   -1    0    0    0    0 -0.00000000000E+00 -0.00000000000E+00 -0.74505805969E-08  0.93827000000E+00  0.93827000000E+00 0. -1.
     999903    2    1    2    0    0  0.99958977497E-01  0.55632506737E-01 -0.14903394192E-01  0.11724860736E+00  0.20936852256E-01 0.  0.
         14    1    1    2    0    0  0.22365655779E-02 -0.31576197427E-01 -0.23787080229E-01  0.39596510647E-01  0.00000000000E+00 0.  1.
     999901    1    1    2    0    0 -0.10219554307E+00 -0.24056309310E-01  0.38690474421E-01  0.88708488199E+00  0.88000000000E+00 0.  1.
        -11    1    3    3    0    0  0.62773819016E-01  0.23302764447E-01 -0.67344186990E-02  0.67299217684E-01  0.51100000000E-03 0. -1.
         11    1    3    3    0    0  0.37185158481E-01  0.32329742290E-01 -0.81689754929E-02  0.49949389680E-01  0.51100000000E-03 0.  1.
</event>
<event>
 8    1  0.1197213E+005  0.1043930E+01  0.7957747E-01            NaN
         13   -1    0    0    0    0  0.00000000000E+00  0.00000000000E+00  0.74505805969E-08  0.10566000000E+00  0.10566000000E+00 0.  1.
     999900   -1    0    0    0    0 -0.00000000000E+00 -0.00000000000E+00 -0.74505805969E-08  0.93827000000E+00  0.93827000000E+00 0.  1.
     999902    2    1    2    0    0  0.12834573249E-01  0.12240185649E-01  0.13552298878E-01  0.10216093096E+01  0.10213654430E+01 0.  0.
     999903    2    3    3    0    0 -0.88666042820E-01  0.12469094370E-02 -0.92201562659E-01  0.12941700610E+00  0.19606411689E-01 0.  0.
         14    1    1    2    0    0 -0.12834573249E-01 -0.12240185649E-01 -0.13552298878E-01  0.22320690403E-01  0.00000000000E+00 0. -1.
     999901    1    3    3    0    0  0.10150061607E+00  0.10993276212E-01  0.10575386154E+00  0.89219230349E+00  0.88000000000E+00 0. -1.
        -11    1    4    4    0    0 -0.63452223876E-01 -0.44291848848E-02 -0.75120453895E-01  0.98433460307E-01  0.51100000000E-03 0.  1.
         11    1    4    4    0    0 -0.25213818944E-01  0.56760943218E-02 -0.17081108764E-01  0.30983545796E-01  0.51100000000E-03 0. -1.
</event>
<event>
 8    1  0.1197213E+005  0.1043930E+01  0.7957747E-01            NaN
         13   -1    0    0    0    0  0.00000000000E+00  0.00000000000E+00  0.74505805969E-08  0.10566000000E+00  0.10566000000E+00 0. -1.
     999900   -1    0    0    0    0 -0.00000000000E+00 -0.00000000000E+00 -0.74505805969E-08  0.93827000000E+00  0.93827000000E+00 0. -1.
     999902    2    1    2    0    0 -0.91865310525E-02  0.19560991142E-01 -0.97882085135E-02  0.10202058825E+01  0.10199300019E+01 0.  0.
     999903    2    3    3    0    0  0.11500686313E+00  0.42739129075E-02  0.54844749494E-01  0.12900718790E+00  0.19750014823E-01 0.  0.
         14    1    1    2    0    0  0.91865310525E-02 -0.19560991142E-01  0.97882085135E-02  0.23724117542E-01  0.00000000000E+00 0.  1.
     999901    1    3    3    0    0 -0.12419339418E+00  0.15287078234E-01 -0.64632958007E-01  0.89119869456E+00  0.88000000000E+00 0. -1.
        -11    1    4    4    0    0  0.63973645748E-01  0.87410890841E-02  0.22296485615E-01  0.68311261008E-01  0.51100000000E-03 0. -1.
         11    1    4    4    0    0  0.51033217378E-01 -0.44671761766E-02  0.32548263879E-01  0.60695926894E-01  0.51100000000E-03 0.  1.
</event>
<event>
 8    1  0.1197213E+005  0.1043930E+01  0.7957747E-01            NaN
         13   -1    0    0    0    0  0.00000000000E+00  0.00000000000E+00  0.74505805969E-08  0.10566000000E+00  0.10566000000E+00 0.  1.
     999900   -1    0    0    0    0 -0.00000000000E+00 -0.00000000000E+00 -0.74505805969E-08  0.93827000000E+00  0.93827000000E+00 0.  1.
     999902    2    1    2    0    0 -0.21332949728E-01 -0.43984074766E-02 -0.10082795452E-01  0.10199278439E+01  0.10196453812E+01 0.  0.
     999903    2    3    3    0    0 -0.11170909197E+00 -0.45781611207E-01 -0.52859457032E-01  0.13329925234E+00  0.19992281580E-01 0.  0.
         14    1    1    2    0    0  0.21332949728E-01  0.43984074766E-02  0.10082795452E-01  0.24002156082E-01  0.00000000000E+00 0.  1.
     999901    1    3    3    0    0  0.90376142238E-01  0.41383203730E-01  0.42776661580E-01  0.88662859158E+00  0.88000000000E+00 0. -1.
        -11    1    4    4    0    0 -0.30694400472E-01 -0.43606311328E-02 -0.18045748501E-01  0.35875778516E-01  0.51100000000E-03 0.  1.
         11    1    4    4    0    0 -0.81014691494E-01 -0.41420980074E-01 -0.34813708532E-01  0.97423473819E-01  0.51100000000E-03 0. -1.
</event>
<event>
 8    1  0.1197213E+005  0.1043930E+01  0.7957747E-01            NaN
         13   -1    0    0    0    0  0.00000000000E+00  0.00000000000E+00  0.74505805969E-08  0.10566000000E+00  0.10566000000E+00 0.  1.
     999900   -1    0    0    0    0 -0.00000000000E+00 -0.00000000000E+00 -0.74505805969E-08  0.93827000000E+00  0.93827000000E+00 0. -1.
     999902    2    1    2    0    0  0.10731842479E-01 -0.16567933624E-01 -0.12605062831E-01  0.10205087174E+01  0.10202399159E+01 0.  0.
     999903    2    3    3    0    0 -0.91915790139E-01 -0.80689958616E-01 -0.44574183736E-01  0.13164978867E+00  0.19632297440E-01 0.  0.
         14    1    1    2    0    0 -0.10731842479E-01  0.16567933624E-01  0.12605062831E-01  0.23421282555E-01  0.00000000000E+00 0.  1.
     999901    1    3    3    0    0  0.10264763262E+00  0.64122024992E-01  0.31969120906E-01  0.88885892877E+00  0.88000000000E+00 0.  1.
        -11    1    4    4    0    0 -0.12774230633E-01 -0.15241370591E-01 -0.51916809731E-03  0.19900025183E-01  0.51100000000E-03 0.  1.
         11    1    4    4    0    0 -0.79141559506E-01 -0.65448588025E-01 -0.44055015639E-01  0.11174976349E+00  0.51100000000E-03 0. -1.
</event>
<event>
 8    1  0.1197213E+005  0.1043930E+01  0.7957747E-01            NaN
         13   -1    0    0    0    0  0.00000000000E+00  0.00000000000E+00  0.74505805969E-08  0.10566000000E+00  0.10566000000E+00 0. -1.
     999900   -1    0    0    0    0 -0.00000000000E+00 -0.00000000000E+00 -0.74505805969E-08  0.93827000000E+00  0.93827000000E+00 0. -1.
     999902    2    1    2    0    0  0.69171436216E-02  0.18464651356E-01  0.12392524745E-01  0.10206412711E+01  0.10203755384E+01 0.  0.
     999903    2    3    3    0    0  0.89645198530E-01  0.34599668702E-01 -0.84392762873E-01  0.13133161648E+00  0.29874008227E-01 0.  0.
         14    1    1    2    0    0 -0.69171436216E-02 -0.18464651356E-01 -0.12392524745E-01  0.23288728929E-01  0.00000000000E+00 0.  1.
     999901    1    3    3    0    0 -0.82728054909E-01 -0.16135017346E-01  0.96785287617E-01  0.88930965459E+00  0.88000000000E+00 0. -1.
        -11    1    4    4    0    0  0.34949314578E-01  0.49616945714E-02 -0.15647419518E-01  0.38615746284E-01  0.51100000000E-03 0. -1.
         11    1    4    4    0    0  0.54695883953E-01  0.29637974131E-01 -0.68745343354E-01  0.92715870194E-01  0.51100000000E-03 0.  1.
</event>
<event>
 8    1  0.1197213E+005  0.1043930E+01  0.7957747E-01            NaN
         13   -1    0    0    0    0  0.00000000000E+00  0.00000000000E+00  0.74505805969E-08  0.10566000000E+00  0.10566000000E+00 0. -1.
     999900   -1    0    0    0    0 -0.00000000000E+00 -0.00000000000E+00 -0.74505805969E-08  0.93827000000E+00  0.93827000000E+00 0. -1.
     999902    2    1    2    0    0 -0.16519895672E-02  0.18084534084E-01  0.15878292066E-01  0.10198074048E+01  0.10195220661E+01 0.  0.
     999903    2    3    3    0    0 -0.65704183860E-01 -0.53411942926E-01  0.97725492590E-01  0.13081168257E+00  0.19787596420E-01 0.  0.
         14    1    1    2    0    0  0.16519895672E-02 -0.18084534084E-01 -0.15878292066E-01  0.24122595248E-01  0.00000000000E+00 0. -1.
     999901    1    3    3    0    0  0.64052194293E-01  0.71496477009E-01 -0.81847200524E-01  0.88899572218E+00  0.88000000000E+00 0.  1.
        -11    1    4    4    0    0 -0.27849864585E-01 -0.34997603066E-01  0.53891534689E-01  0.70035746658E-01  0.51100000000E-03 0. -1.
         11    1    4    4    0    0 -0.37854319275E-01 -0.18414339859E-01  0.43833957901E-01  0.60775935916E-01  0.51100000000E-03 0.  1.
</event>
<event>
 8    1  0.1197213E+005  0.1043930E+01  0.7957747E-01            NaN
         13   -1    0    0    0    0  0.00000000000E+00  0.00000000000E+00  0.74505805969E-08  0.10566000000E+00  0.10566000000E+00 0.  1.
     999900   -1    0    0    0    0 -0.00000000000E+00 -0.00000000000E+00 -0.74505805969E-08  0.93827000000E+00  0.93827000000E+00 0. -1.
     999902    2    1    2    0    0  0.44276848198E-02  0.77077515624E-03 -0.22036064026E-01  0.10214403000E+01  0.10211926850E+01 0.  0.
     999903    2    3    3    0    0 -0.36730352269E-01  0.12387857824E+00 -0.13236837840E-01  0.13187470853E+00  0.22818938368E-01 0.  0.
         14    1    1    2    0    0 -0.44276848198E-02 -0.77077515624E-03  0.22036064026E-01  0.22489699975E-01  0.00000000000E+00 0.  1.
     999901    1    3    3    0    0  0.41158037088E-01 -0.12310780308E+00 -0.87992261857E-02  0.88956559150E+00  0.88000000000E+00 0. -1.
        -11    1    4    4    0    0 -0.61998562363E-02  0.59577101771E-01 -0.89106631769E-02  0.60560137979E-01  0.51100000000E-03 0. -1.
         11    1    4    4    0    0 -0.30530496032E-01  0.64301476470E-01 -0.43261746633E-02  0.71314570548E-01  0.51100000000E-03 0.  1.
</event>
<event>
 8    1  0.1197213E+005  0.1043930E+01  0.7957747E-01            NaN
         13   -1    0    0    0    0  0.00000000000E+00  0.00000000000E+00  0.74505805969E-08  0.10566000000E+00  0.10566000000E+00 0.  1.
     999900   -1    0    0    0    0 -0.00000000000E+00 -0.00000000000E+00 -0.74505805969E-08  0.93827000000E+00  0.93827000000E+00 0. -1.
     999902    2    1    2    0    0  0.33081023088E-02 -0.37678525382E-02 -0.23432071529E-01  0.10199674828E+01  0.10196859633E+01 0.  0.
     999903    2    3    3    0    0 -0.87903581190E-01 -0.92382229766E-01  0.15275140333E-01  0.12998415302E+00  0.20025837375E-01 0.  0.
         14    1    1    2    0    0 -0.33081023088E-02  0.37678525382E-02  0.23432071529E-01  0.23962517184E-01  0.00000000000E+00 0.  1.
     999901    1    3    3    0    0  0.91211683499E-01  0.88614377228E-01 -0.38707211862E-01  0.88998332979E+00  0.88000000000E+00 0. -1.
        -11    1    4    4    0    0 -0.38844622631E-01 -0.47540183836E-01  0.16256785235E-01  0.63509983260E-01  0.51100000000E-03 0. -1.
         11    1    4    4    0    0 -0.49058958559E-01 -0.44842045930E-01 -0.98164490192E-03  0.66474169764E-01  0.51100000000E-03 0.  1.
</event>
<event>
 8    1  0.1197213E+005  0.1043930E+01  0.7957747E-01            NaN
         13   -1    0    0    0    0  0.00000000000E+00  0.00000000000E+00  0.74505805969E-08  0.10566000000E+00  0.10566000000E+00 0. -1.
     999900   -1    0    0    0    0 -0.00000000000E+00 -0.00000000000E+00 -0.74505805969E-08  0.93827000000E+00  0.93827000000E+00 0.  1.
     999902    2    1    2    0    0  0.11374986691E-01 -0.19783850095E-01 -0.43106382092E-02  0.10207056023E+01  0.10204413525E+01 0.  0.
     999903    2    3    3    0    0 -0.59350949811E-01 -0.21215275360E-01 -0.11351784729E+00  0.13113805479E+00  0.18391971295E-01 0.  0.
         14    1    1    2    0    0 -0.11374986691E-01  0.19783850095E-01  0.43106382092E-02  0.23224397701E-01  0.00000000000E+00 0. -1.
     999901    1    3    3    0    0  0.70725936502E-01  0.14314252645E-02  0.10920720908E+00  0.88956754751E+00  0.88000000000E+00 0. -1.
        -11    1    4    4    0    0 -0.43652805201E-01 -0.18970052075E-01 -0.68567247255E-01  0.83469508174E-01  0.51100000000E-03 0.  1.
         11    1    4    4    0    0 -0.15698144610E-01 -0.22452232848E-02 -0.44950600033E-01  0.47668546613E-01  0.51100000000E-03 0. -1.
</event>
<event>
 8    1  0.1197213E+005  0.1043930E+01  0.7957747E-01            NaN
         13   -1    0    0    0    0  0.00000000000E+00  0.00000000000E+00  0.74505805969E-08  0.10566000000E+00  0.10566000000E+00 0. -1.
     999900   -1    0    0    0    0 -0.00000000000E+00 -0.00000000000E+00 -0.74505805969E-08  0.93827000000E+00  0.93827000000E+00 0.  1.
     999902    2    1    2    0    0 -0.69711033297E-02 -0.11954533800E-01 -0.24905617463E-01  0.10154379495E+01  0.10150381433E+01 0.  0.
     999903    2    3    3    0    0  0.58922219237E-01  0.10744666913E+00  0.72929767205E-02  0.12435135064E+00  0.19835732104E-01 0.  0.
         14    1    1    2    0    0  0.69711033297E-02  0.11954533800E-01  0.24905617463E-01  0.28492050492E-01  0.00000000000E+00 0. -1.
     999901    1    3    3    0    0 -0.65893322567E-01 -0.11940120293E+00 -0.32198594184E-01  0.89108659887E+00  0.88000000000E+00 0.  1.
        -11    1    4    4    0    0  0.19019937271E-01  0.52726266094E-01 -0.13886273734E-02  0.56071441546E-01  0.51100000000E-03 0.  1.
         11    1    4    4    0    0  0.39902281966E-01  0.54720403039E-01  0.86816040939E-02  0.68279909091E-01  0.51100000000E-03 0. -1.
</event>
<event>
 8    1  0.1197213E+005  0.1043930E+01  0.7957747E-01            NaN
         13   -1    0    0    0    0  0.00000000000E+00  0.00000000000E+00  0.74505805969E-08  0.10566000000E+00  0.10566000000E+00 0.  1.
     999900   -1    0    0    0    0 -0.00000000000E+00 -0.00000000000E+00 -0.74505805969E-08  0.93827000000E+00  0.93827000000E+00 0. -1.
     999902    2    1    2    0    0  0.24786984971E-01  0.12346473318E-02 -0.87888211964E-03  0.10190967277E+01  0.10187941151E+01 0.  0.
     999903    2    3    3    0    0  0.26908427552E-01  0.12232764326E+00  0.29163089403E-01  0.13029386194E+00  0.20925794984E-01 0.  0.
         14    1    1    2    0    0 -0.24786984971E-01 -0.12346473318E-02  0.87888211964E-03  0.24833272273E-01  0.00000000000E+00 0.  1.
     999901    1    3    3    0    0 -0.21214425806E-02 -0.12109299593E+00 -0.30041971523E-01  0.88880286579E+00  0.88000000000E+00 0. -1.
        -11    1    4    4    0    0  0.97129366976E-02  0.62537802714E-01  0.24630411960E-01  0.67913446547E-01  0.51100000000E-03 0.  1.
         11    1    4    4    0    0  0.17195490854E-01  0.59789840549E-01  0.45326774434E-02  0.62380415391E-01  0.51100000000E-03 0. -1.
</event>
<event>
 8    1  0.1197213E+005  0.1043930E+01  0.7957747E-01            NaN
         13   -1    0    0    0    0  0.00000000000E+00  0.00000000000E+00  0.74505805969E-08  0.10566000000E+00  0.10566000000E+00 0. -1.
     999900   -1    0    0    0    0 -0.00000000000E+00 -0.00000000000E+00 -0.74505805969E-08  0.93827000000E+00  0.93827000000E+00 0.  1.
     999902    2    1    2    0    0  0.12537961330E-01  0.16329331659E-01 -0.11661340526E-01  0.10202691799E+01  0.10199947867E+01 0.  0.
     999903    2    3    3    0    0 -0.95467463468E-01 -0.67989803577E-01 -0.49518169042E-01  0.12886128904E+00  0.20409134636E-01 0.  0.
         14    1    1    2    0    0 -0.12537961330E-01 -0.16329331659E-01  0.11661340526E-01  0.23660820138E-01  0.00000000000E+00 0.  1.
     999901    1    3    3    0    0  0.10800542480E+00  0.84319135236E-01  0.37856828516E-01  0.89140789082E+00  0.88000000000E+00 0. -1.
        -11    1    4    4    0    0 -0.75401824444E-01 -0.61129466836E-01 -0.45775475104E-01  0.10732148940E+00  0.51100000000E-03 0.  1.
         11    1    4    4    0    0 -0.20065639024E-01 -0.68603367410E-02 -0.37426939379E-02  0.21539799640E-01  0.51100000000E-03 0. -1.
</event>
<event>
 8    1  0.1197213E+005  0.1043930E+01  0.7957747E-01            NaN
         13   -1    0    0    0    0  0.00000000000E+00  0.00000000000E+00  0.74505805969E-08  0.10566000000E+00  0.10566000000E+00 0. -1.
     999900   -1    0    0    0    0 -0.00000000000E+00 -0.00000000000E+00 -0.74505805969E-08  0.93827000000E+00  0.93827000000E+00 0.  1.
     999902    2    1    2    0    0 -0.22765499331E-01 -0.63206365905E-02  0.69610129340E-02  0.10192992447E+01  0.10190016075E+01 0.  0.
     999903    2    3    3    0    0  0.83187495529E-01  0.79740538147E-01  0.51418732581E-01  0.12766644371E+00  0.19393863822E-01 0.  0.
         14    1    1    2    0    0  0.22765499331E-01  0.63206365905E-02 -0.69610129340E-02  0.24630755323E-01  0.00000000000E+00 0. -1.
     999901    1    3    3    0    0 -0.10595299486E+00 -0.86061174737E-01 -0.44457719647E-01  0.89163280096E+00  0.88000000000E+00 0. -1.
        -11    1    4    4    0    0  0.34975116179E-01  0.43615216852E-01  0.17800222544E-01  0.58674141974E-01  0.51100000000E-03 0.  1.
         11    1    4    4    0    0  0.48212379350E-01  0.36125321295E-01  0.33618510037E-01  0.68992301740E-01  0.51100000000E-03 0. -1.
</event>
<event>
 8    1  0.1197213E+005  0.1043930E+01  0.7957747E-01            NaN
         13   -1    0    0    0    0  0.00000000000E+00  0.00000000000E+00  0.74505805969E-08  0.10566000000E+00  0.10566000000E+00 0.  1.
     999900   -1    0    0    0    0 -0.00000000000E+00 -0.00000000000E+00 -0.74505805969E-08  0.93827000000E+00  0.93827000000E+00 0. -1.
     999902    2    1    2    0    0 -0.74724647548E-02  0.13792798994E-01  0.18990618421E-01  0.10192982599E+01  0.10190005986E+01 0.  0.
     999903    2    3    3    0    0  0.12193840732E+00 -0.20155710821E-01  0.19622979306E-01  0.12918586528E+00  0.32073331800E-01 0.  0.
         14    1    1    2    0    0  0.74724647548E-02 -0.13792798994E-01 -0.18990618421E-01  0.24631740126E-01  0.00000000000E+00 0. -1.
     999901    1    3    3    0    0 -0.12941087208E+00  0.33948509816E-01 -0.63236088452E-03  0.89011239459E+00  0.88000000000E+00 0. -1.
        -11    1    4    4    0    0  0.14260296016E-01 -0.99334564186E-02  0.11228636084E-01  0.20697173435E-01  0.51100000000E-03 0. -1.
         11    1    4    4    0    0  0.10767811130E+00 -0.10222254403E-01  0.83943432215E-02  0.10848869185E+00  0.51100000000E-03 0.  1.
</event>
<event>
 8    1  0.1197213E+005  0.1043930E+01  0.7957747E-01            NaN
         13   -1    0    0    0    0  0.00000000000E+00  0.00000000000E+00  0.74505805969E-08  0.10566000000E+00  0.10566000000E+00 0.  1.
     999900   -1    0    0    0    0 -0.00000000000E+00 -0.00000000000E+00 -0.74505805969E-08  0.93827000000E+00  0.93827000000E+00 0. -1.
     999902    2    1    2    0    0  0.16826425186E-01  0.29147850276E-02 -0.17020961104E-01  0.10198190549E+01  0.10195339951E+01 0.  0.
     999903    2    3    3    0    0 -0.10680323682E+00 -0.66538004175E-01 -0.16728147733E-01  0.12846723380E+00  0.19742386854E-01 0.  0.
         14    1    1    2    0    0 -0.16826425186E-01 -0.29147850276E-02  0.17020961104E-01  0.24110945092E-01  0.00000000000E+00 0.  1.
     999901    1    3    3    0    0  0.12362966201E+00  0.69452789203E-01 -0.29281337155E-03  0.89135182111E+00  0.88000000000E+00 0. -1.
        -11    1    4    4    0    0 -0.16450659000E-01 -0.12082537467E-01 -0.10060420841E-01  0.22761482414E-01  0.51100000000E-03 0.  1.
         11    1    4    4    0    0 -0.90352577819E-01 -0.54455466709E-01 -0.66677268917E-02  0.10570575138E+00  0.51100000000E-03 0. -1.
</event>
<event>
 8    1  0.1197213E+005  0.1043930E+01  0.7957747E-01            NaN
         13   -1    0    0    0    0  0.00000000000E+00  0.00000000000E+00  0.74505805969E-08  0.10566000000E+00  0.10566000000E+00 0. -1.
     999900   -1    0    0    0    0 -0.00000000000E+00 -0.00000000000E+00 -0.74505805969E-08  0.93827000000E+00  0.93827000000E+00 0. -1.
     999902    2    1    2    0    0 -0.39959818186E-02 -0.19785635059E-01  0.11662357118E-01  0.10206179902E+01  0.10203517199E+01 0.  0.
     999903    2    3    3    0    0  0.67940135263E-01  0.59945860025E-01  0.91736613247E-01  0.13048103295E+00  0.20008139220E-01 0.  0.
         14    1    1    2    0    0  0.39959818186E-02  0.19785635059E-01 -0.11662357118E-01  0.23312009758E-01  0.00000000000E+00 0.  1.
     999901    1    3    3    0    0 -0.71936117081E-01 -0.79731495085E-01 -0.80074256129E-01  0.89013695730E+00  0.88000000000E+00 0. -1.
        -11    1    4    4    0    0  0.48159185513E-01  0.52123392486E-01  0.76240336096E-01  0.10415855780E+00  0.51100000000E-03 0. -1.
         11    1    4    4    0    0  0.19780949749E-01  0.78224675394E-02  0.15496277150E-01  0.26322475148E-01  0.51100000000E-03 0.  1.
</event>
<event>
 8    1  0.1197213E+005  0.1043930E+01  0.7957747E-01            NaN
         13   -1    0    0    0    0  0.00000000000E+00  0.00000000000E+00  0.74505805969E-08  0.10566000000E+00  0.10566000000E+00 0. -1.
     999900   -1    0    0    0    0 -0.00000000000E+00 -0.00000000000E+00 -0.74505805969E-08  0.93827000000E+00  0.93827000000E+00 0. -1.
     999902    2    1    2    0    0 -0.21994058504E-01  0.36768598440E-02 -0.87323257298E-02  0.10199819015E+01  0.10197007247E+01 0.  0.
     999903    2    3    3    0    0 -0.28715887071E-01  0.10469840929E+00 -0.72097012384E-01  0.13191342447E+00  0.20416005525E-01 0.  0.
         14    1    1    2    0    0  0.21994058504E-01 -0.36768598440E-02  0.87323257298E-02  0.23948098472E-01  0.00000000000E+00 0. -1.
     999901    1    3    3    0    0  0.67218285669E-02 -0.10102154945E+00  0.63364686655E-01  0.88806847706E+00  0.88000000000E+00 0.  1.
        -11    1    4    4    0    0  0.19831971221E-02  0.24582731620E-01 -0.16473713714E-01  0.29662908307E-01  0.51100000000E-03 0. -1.
         11    1    4    4    0    0 -0.30699084193E-01  0.80115677673E-01 -0.55623298670E-01  0.10225051616E+00  0.51100000000E-03 0.  1.
</event>
<event>
 8    1  0.1197213E+005  0.1043930E+01  0.7957747E-01            NaN
         13   -1    0    0    0    0  0.00000000000E+00  0.00000000000E+00  0.74505805969E-08  0.10566000000E+00  0.10566000000E+00 0. -1.
     999900   -1    0    0    0    0 -0.00000000000E+00 -0.00000000000E+00 -0.74505805969E-08  0.93827000000E+00  0.93827000000E+00 0.  1.
     999902    2    1    2    0    0  0.20282302948E-01 -0.68252783971E-02  0.69265450501E-02  0.10214370397E+01  0.10211893521E+01 0.  0.
     999903    2    3    3    0    0 -0.41560507334E-01 -0.11643837061E+00  0.41330740044E-01  0.13181733901E+00  0.19555328478E-01 0.  0.
         14    1    1    2    0    0 -0.20282302948E-01  0.68252783971E-02 -0.69265450501E-02  0.22492960330E-01  0.00000000000E+00 0.  1.
     999901    1    3    3    0    0  0.61842810282E-01  0.10961309221E+00 -0.34404194994E-01  0.88961970066E+00  0.88000000000E+00 0.  1.
        -11    1    4    4    0    0 -0.36232193752E-01 -0.94736487943E-01  0.41163457336E-01  0.10946444789E+00  0.51100000000E-03 0.  1.
         11    1    4    4    0    0 -0.53283135820E-02 -0.21701882664E-01  0.16728270820E-03  0.22352891117E-01  0.51100000000E-03 0. -1.
</event>
<event>
 8    1  0.1197213E+005  0.1043930E+01  0.7957747E-01            NaN
         13   -1    0    0    0    0  0.00000000000E+00  0.00000000000E+00  0.74505805969E-08  0.10566000000E+00  0.10566000000E+00 0.  1.
     999900   -1    0    0    0    0 -0.00000000000E+00 -0.00000000000E+00 -0.74505805969E-08  0.93827000000E+00  0.93827000000E+00 0. -1.
     999902    2    1    2    0    0  0.11477187337E-01 -0.62012291522E-02  0.20007894001E-01  0.10200449232E+01  0.10197652418E+01 0.  0.
     999903    2    3    3    0    0 -0.71839608834E-01 -0.85228312857E-01 -0.61758138760E-01  0.12882516768E+00  0.18896068775E-01 0.  0.
         14    1    1    2    0    0 -0.11477187337E-01  0.62012291522E-02 -0.20007894001E-01  0.23885076817E-01  0.00000000000E+00 0. -1.
     999901    1    3    3    0    0  0.83316796171E-01  0.79027083705E-01  0.81766032761E-01  0.89121975550E+00  0.88000000000E+00 0.  1.
        -11    1    4    4    0    0 -0.29035182304E-01 -0.48853105874E-01 -0.29155367172E-01  0.63874598401E-01  0.51100000000E-03 0. -1.
         11    1    4    4    0    0 -0.42804426530E-01 -0.36375206984E-01 -0.32602771588E-01  0.64950569281E-01  0.51100000000E-03 0.  1.
</event>
<event>
 8    1  0.1197213E+005  0.1043930E+01  0.7957747E-01            NaN
         13   -1    0    0    0    0  0.00000000000E+00  0.00000000000E+00  0.74505805969E-08  0.10566000000E+00  0.10566000000E+00 0. -1.
     999900   -1    0    0    0    0 -0.00000000000E+00 -0.00000000000E+00 -0.74505805969E-08  0.93827000000E+00  0.93827000000E+00 0.  1.
     999902    2    1    2    0    0  0.10502582112E-01  0.15292507205E-01  0.10652228995E-01  0.10225375950E+01  0.10223137964E+01 0.  0.
     999903    2    3    3    0    0 -0.15068699465E-01  0.12547536880E+00 -0.39168990358E-01  0.13390026331E+00  0.20589726318E-01 0.  0.
         14    1    1    2    0    0 -0.10502582112E-01 -0.15292507205E-01 -0.10652228995E-01  0.21392404966E-01  0.00000000000E+00 0. -1.
     999901    1    3    3    0    0  0.25571281577E-01 -0.11018286160E+00  0.49821219354E-01  0.88863733172E+00  0.88000000000E+00 0. -1.
        -11    1    4    4    0    0 -0.10294952270E-01  0.32700923401E-01 -0.38018125055E-02  0.34497120646E-01  0.51100000000E-03 0.  1.
         11    1    4    4    0    0 -0.47737471950E-02  0.92774445401E-01 -0.35367177853E-01  0.99403142667E-01  0.51100000000E-03 0. -1.
</event>
<event>
 8    1  0.1197213E+005  0.1043930E+01  0.7957747E-01            NaN
         13   -1    0    0    0    0  0.00000000000E+00  0.00000000000E+00  0.74505805969E-08  0.10566000000E+00  0.10566000000E+00 0. -1.
     999900   -1    0    0    0    0 -0.00000000000E+00 -0.00000000000E+00 -0.74505805969E-08  0.93827000000E+00  0.93827000000E+00 0. -1.
     999902    2    1    2    0    0  0.10094975048E-01 -0.19838011832E-01 -0.75756833195E-02  0.10204173181E+01  0.10201463899E+01 0.  0.
     999903    2    3    3    0    0  0.52925597275E-01 -0.60643991938E-01 -0.10413684056E+00  0.13316107136E+00  0.20213281724E-01 0.  0.
         14    1    1    2    0    0 -0.10094975048E-01  0.19838011832E-01  0.75756833195E-02  0.23512681948E-01  0.00000000000E+00 0. -1.
     999901    1    3    3    0    0 -0.42830622228E-01  0.40805980107E-01  0.96561157239E-01  0.88725624670E+00  0.88000000000E+00 0.  1.
        -11    1    4    4    0    0  0.24112724347E-01 -0.20510293583E-01 -0.27273844419E-01  0.41787789229E-01  0.51100000000E-03 0.  1.
         11    1    4    4    0    0  0.28812872929E-01 -0.40133698356E-01 -0.76862996140E-01  0.91373282127E-01  0.51100000000E-03 0. -1.
</event>
<event>
 8    1  0.1197213E+005  0.1043930E+01  0.7957747E-01            NaN
         13   -1    0    0    0    0  0.00000000000E+00  0.00000000000E+00  0.74505805969E-08  0.10566000000E+00  0.10566000000E+00 0. -1.
     999900   -1    0    0    0    0 -0.00000000000E+00 -0.00000000000E+00 -0.74505805969E-08  0.93827000000E+00  0.93827000000E+00 0. -1.
     999902    2    1    2    0    0 -0.18547182925E-01  0.12647127306E-01  0.63543519882E-02  0.10205992132E+01  0.10203325087E+01 0.  0.
     999903    2    3    3    0    0  0.91239112504E-01  0.85309457289E-01  0.32299326467E-01  0.13042732723E+00  0.19124906419E-01 0.  0.
         14    1    1    2    0    0  0.18547182925E-01 -0.12647127306E-01 -0.63543519882E-02  0.23330786801E-01  0.00000000000E+00 0.  1.
     999901    1    3    3    0    0 -0.10978629543E+00 -0.72662329983E-01 -0.25944974479E-01  0.89017188597E+00  0.88000000000E+00 0.  1.
        -11    1    4    4    0    0  0.14619348237E-01  0.19570436474E-01  0.12874728081E-01  0.27617875929E-01  0.51100000000E-03 0.  1.
         11    1    4    4    0    0  0.76619764268E-01  0.65739020815E-01  0.19424598386E-01  0.10280945130E+00  0.51100000000E-03 0. -1.
</event>
<event>
 8    1  0.1197213E+005  0.1043930E+01  0.7957747E-01            NaN
         13   -1    0    0    0    0  0.00000000000E+00  0.00000000000E+00  0.74505805969E-08  0.10566000000E+00  0.10566000000E+00 0.  1.
     999900   -1    0    0    0    0 -0.00000000000E+00 -0.00000000000E+00 -0.74505805969E-08  0.93827000000E+00  0.93827000000E+00 0. -1.
     999902    2    1    2    0    0 -0.13959090658E-01  0.18372858791E-01 -0.85128965968E-02  0.10193355380E+01  0.10190387880E+01 0.  0.
     999903    2    3    3    0    0  0.65932288725E-03  0.11163910155E+00 -0.67954869638E-01  0.13229233827E+00  0.20485964818E-01 0.  0.
         14    1    1    2    0    0  0.13959090658E-01 -0.18372858791E-01  0.85128965968E-02  0.24594461991E-01  0.00000000000E+00 0. -1.
     999901    1    3    3    0    0 -0.14618413546E-01 -0.93266242760E-01  0.59441973041E-01  0.88704319974E+00  0.88000000000E+00 0.  1.
        -11    1    4    4    0    0 -0.96700736435E-02  0.49719270450E-01 -0.27976209682E-01  0.57865755050E-01  0.51100000000E-03 0. -1.
         11    1    4    4    0    0  0.10329396531E-01  0.61919831100E-01 -0.39978659956E-01  0.74426583215E-01  0.51100000000E-03 0.  1.
</event>
<event>
 8    1  0.1197213E+005  0.1043930E+01  0.7957747E-01            NaN
         13   -1    0    0    0    0  0.00000000000E+00  0.00000000000E+00  0.74505805969E-08  0.10566000000E+00  0.10566000000E+00 0. -1.
     999900   -1    0    0    0    0 -0.00000000000E+00 -0.00000000000E+00 -0.74505805969E-08  0.93827000000E+00  0.93827000000E+00 0.  1.
     999902    2    1    2    0    0  0.78834242756E-02  0.92842552035E-02 -0.14250390058E-01  0.10251838167E+01  0.10250124090E+01 0.  0.
     999903    2    3    3    0    0 -0.45859438156E-01 -0.98190390806E-01  0.74397399833E-01  0.13260467426E+00  0.17452381463E-01 0.  0.
         14    1    1    2    0    0 -0.78834242756E-02 -0.92842552035E-02  0.14250390058E-01  0.18746183340E-01  0.00000000000E+00 0. -1.
     999901    1    3    3    0    0  0.53742862431E-01  0.10747464601E+00 -0.88647789891E-01  0.89257914240E+00  0.88000000000E+00 0.  1.
        -11    1    4    4    0    0 -0.21849711752E-01 -0.42914154884E-01  0.22875080771E-01  0.53315710952E-01  0.51100000000E-03 0.  1.
         11    1    4    4    0    0 -0.24009726403E-01 -0.55276235923E-01  0.51522319062E-01  0.79288963307E-01  0.51100000000E-03 0. -1.
</event>
<event>
 6    1  0.1197213E+005  0.1043930E+01  0.7957747E-01            NaN
         13   -1    0    0    0    0  0.00000000000E+00  0.00000000000E+00  0.74505805969E-08  0.10566000000E+00  0.10566000000E+00 0.  1.
     999900   -1    0    0    0    0 -0.00000000000E+00 -0.00000000000E+00 -0.74505805969E-08  0.93827000000E+00  0.93827000000E+00 0. -1.
         14    1    1    2    0    0  0.31324614232E-02  0.19132930764E-02  0.50131566507E-01  0.50265763352E-01  0.00000000000E+00 0.  1.
     999901    1    1    2    0    0  0.41361774745E-02  0.36541814639E-01 -0.13560675502E+00  0.89114623053E+00  0.88000000000E+00 0. -1.
        -11    1    1    2    0    0 -0.23943652514E-01 -0.16834763965E-01  0.45607329152E-01  0.54194071326E-01  0.51100000000E-03 0. -1.
         11    1    1    2    0    0  0.16675013617E-01 -0.21620343750E-01  0.39867859359E-01  0.48323934793E-01  0.51100000000E-03 0.  1.
</event>
<event>
 8    1  0.1197213E+005  0.1043930E+01  0.7957747E-01            NaN
         13   -1    0    0    0    0  0.00000000000E+00  0.00000000000E+00  0.74505805969E-08  0.10566000000E+00  0.10566000000E+00 0.  1.
     999900   -1    0    0    0    0 -0.00000000000E+00 -0.00000000000E+00 -0.74505805969E-08  0.93827000000E+00  0.93827000000E+00 0. -1.
     999902    2    1    2    0    0  0.11653053838E-01  0.12282814513E-01  0.16424705942E-01  0.10203411857E+01  0.10200684796E+01 0.  0.
     999903    2    3    3    0    0 -0.93980358102E-01  0.84370812713E-01 -0.22717185608E-01  0.13023603184E+00  0.22239867827E-01 0.  0.
         14    1    1    2    0    0 -0.11653053838E-01 -0.12282814513E-01 -0.16424705942E-01  0.23588814327E-01  0.00000000000E+00 0. -1.
     999901    1    3    3    0    0  0.10563341194E+00 -0.72087998200E-01  0.39141891550E-01  0.89010515383E+00  0.88000000000E+00 0.  1.
        -11    1    4    4    0    0 -0.61220408253E-01  0.40978229084E-01 -0.16620803245E-01  0.75522618248E-01  0.51100000000E-03 0. -1.
         11    1    4    4    0    0 -0.32759949850E-01  0.43392583629E-01 -0.60963823629E-02  0.54713413594E-01  0.51100000000E-03 0.  1.
</event>
<event>
 8    1  0.1197213E+005  0.1043930E+01  0.7957747E-01            NaN
         13   -1    0    0    0    0  0.00000000000E+00  0.00000000000E+00  0.74505805969E-08  0.10566000000E+00  0.10566000000E+00 0. -1.
     999900   -1    0    0    0    0 -0.00000000000E+00 -0.00000000000E+00 -0.74505805969E-08  0.93827000000E+00  0.93827000000E+00 0.  1.
     999902    2    1    2    0    0 -0.25126616461E-02  0.23309239705E-01 -0.55106746821E-02  0.10198467764E+01  0.10195623795E+01 0.  0.
     999903    2    3    3    0    0 -0.11332288231E+00 -0.43126517330E-01 -0.41683635178E-01  0.12967763634E+00  0.19411124989E-01 0.  0.
         14    1    1    2    0    0  0.25126616461E-02 -0.23309239705E-01  0.55106746821E-02  0.24083223613E-01  0.00000000000E+00 0. -1.
     999901    1    3    3    0    0  0.11081022066E+00  0.66435757035E-01  0.36172960496E-01  0.89016914004E+00  0.88000000000E+00 0.  1.
        -11    1    4    4    0    0 -0.69124556382E-01 -0.16840011373E-01 -0.28016951496E-01  0.76465684920E-01  0.51100000000E-03 0. -1.
         11    1    4    4    0    0 -0.44198325929E-01 -0.26286505957E-01 -0.13666683682E-01  0.53211951423E-01  0.51100000000E-03 0.  1.
</event>
<event>
 8    1  0.1197213E+005  0.1043930E+01  0.7957747E-01            NaN
         13   -1    0    0    0    0  0.00000000000E+00  0.00000000000E+00  0.74505805969E-08  0.10566000000E+00  0.10566000000E+00 0. -1.
     999900   -1    0    0    0    0 -0.00000000000E+00 -0.00000000000E+00 -0.74505805969E-08  0.93827000000E+00  0.93827000000E+00 0.  1.
     999902    2    1    2    0    0  0.17705924379E-01  0.20381142512E-02 -0.12120899742E-01  0.10223761169E+01  0.10221488905E+01 0.  0.
     999903    2    3    3    0    0 -0.69412247459E-01 -0.10330499458E+00  0.34062572216E-01  0.13062522142E+00  0.20315207137E-01 0.  0.
         14    1    1    2    0    0 -0.17705924379E-01 -0.20381142512E-02  0.12120899742E-01  0.21553883139E-01  0.00000000000E+00 0. -1.
     999901    1    3    3    0    0  0.87118171838E-01  0.10534310883E+00 -0.46183471958E-01  0.89175089544E+00  0.88000000000E+00 0.  1.
        -11    1    4    4    0    0 -0.33188774209E-01 -0.41739922019E-01  0.24023923221E-01  0.58490390934E-01  0.51100000000E-03 0.  1.
         11    1    4    4    0    0 -0.36223473250E-01 -0.61565072565E-01  0.10038648995E-01  0.72134830483E-01  0.51100000000E-03 0. -1.
</event>
<event>
 7    1  0.1197213E+005  0.1043930E+01  0.7957747E-01            NaN
         13   -1    0    0    0    0  0.00000000000E+00  0.00000000000E+00  0.74505805969E-08  0.10566000000E+00  0.10566000000E+00 0. -1.
     999900   -1    0    0    0    0 -0.00000000000E+00 -0.00000000000E+00 -0.74505805969E-08  0.93827000000E+00  0.93827000000E+00 0.  1.
     999902    2    1    2    0    0 -0.73998138880E-02 -0.22522950201E-01  0.60080830255E-02  0.10194731483E+01  0.10191797499E+01 0.  0.
         14    1    1    2    0    0  0.73998138880E-02  0.22522950201E-01 -0.60080830255E-02  0.24456851657E-01  0.00000000000E+00 0.  1.
     999901    1    3    3    0    0 -0.10364638581E+00 -0.77415779129E-01  0.68726721901E-01  0.89210937583E+00  0.88000000000E+00 0. -1.
        -11    1    3    3    0    0  0.10716119963E-01  0.66288362636E-02 -0.80941480067E-02  0.14985094268E-01  0.51100000000E-03 0. -1.
         11    1    3    3    0    0  0.85530451954E-01  0.48263992664E-01 -0.54624490868E-01  0.11237867824E+00  0.51100000000E-03 0.  1.
</event>
<event>
 8    1  0.1197213E+005  0.1043930E+01  0.7957747E-01            NaN
         13   -1    0    0    0    0  0.00000000000E+00  0.00000000000E+00  0.74505805969E-08  0.10566000000E+00  0.10566000000E+00 0.  1.
     999900   -1    0    0    0    0 -0.00000000000E+00 -0.00000000000E+00 -0.74505805969E-08  0.93827000000E+00  0.93827000000E+00 0. -1.
     999902    2    1    2    0    0  0.52734960456E-02 -0.78683398810E-02  0.21831820700E-01  0.10201319134E+01  0.10198542895E+01 0.  0.
     999903    2    3    3    0    0 -0.62810531619E-01 -0.27513847682E-01  0.11186334951E+00  0.13270470114E+00  0.19873450722E-01 0.  0.
         14    1    1    2    0    0 -0.52734960456E-02  0.78683398810E-02 -0.21831820700E-01  0.23798086648E-01  0.00000000000E+00 0. -1.
     999901    1    3    3    0    0  0.68084027664E-01  0.19645507801E-01 -0.90031528810E-01  0.88742721222E+00  0.88000000000E+00 0. -1.
        -11    1    4    4    0    0 -0.17229707991E-01  0.10210165189E-02  0.33093518324E-01  0.37327568743E-01  0.51100000000E-03 0.  1.
         11    1    4    4    0    0 -0.45580823628E-01 -0.28534864201E-01  0.78769831186E-01  0.95377132394E-01  0.51100000000E-03 0. -1.
</event>
<event>
 8    1  0.1197213E+005  0.1043930E+01  0.7957747E-01            NaN
         13   -1    0    0    0    0  0.00000000000E+00  0.00000000000E+00  0.74505805969E-08  0.10566000000E+00  0.10566000000E+00 0. -1.
     999900   -1    0    0    0    0 -0.00000000000E+00 -0.00000000000E+00 -0.74505805969E-08  0.93827000000E+00  0.93827000000E+00 0.  1.
     999902    2    1    2    0    0 -0.23372113180E-01  0.11189990925E-02 -0.50977618153E-02  0.10199822442E+01  0.10197010755E+01 0.  0.
     999903    2    3    3    0    0  0.11238748712E+00  0.27511883012E-01  0.49805849965E-01  0.12749041789E+00  0.19629900554E-01 0.  0.
         14    1    1    2    0    0  0.23372113180E-01 -0.11189990925E-02  0.50977618153E-02  0.23947755824E-01  0.00000000000E+00 0.  1.
     999901    1    3    3    0    0 -0.13575960030E+00 -0.26392883919E-01 -0.54903611781E-01  0.89249182628E+00  0.88000000000E+00 0.  1.
        -11    1    4    4    0    0  0.28576627356E-01  0.15272564191E-01  0.10091963253E-01  0.33940885247E-01  0.51100000000E-03 0. -1.
         11    1    4    4    0    0  0.83810859764E-01  0.12239318820E-01  0.39713886713E-01  0.93549532647E-01  0.51100000000E-03 0.  1.
</event>
<event>
 8    1  0.1197213E+005  0.1043930E+01  0.7957747E-01            NaN
         13   -1    0    0    0    0  0.00000000000E+00  0.00000000000E+00  0.74505805969E-08  0.10566000000E+00  0.10566000000E+00 0. -1.
     999900   -1    0    0    0    0 -0.00000000000E+00 -0.00000000000E+00 -0.74505805969E-08  0.93827000000E+00  0.93827000000E+00 0.  1.
     999902    2    1    2    0    0  0.22830841609E-01  0.80032352739E-02 -0.46586862402E-02  0.10192925801E+01  0.10189947798E+01 0.  0.
     999903    2    3    3    0    0 -0.24118407967E-01 -0.11537011343E+00 -0.47872179364E-01  0.12839829835E+00  0.17390134748E-01 0.  0.
         14    1    1    2    0    0 -0.22830841609E-01 -0.80032352739E-02  0.46586862402E-02  0.24637419932E-01  0.00000000000E+00 0.  1.
     999901    1    3    3    0    0  0.46949249576E-01  0.12337334871E+00  0.43213493123E-01  0.89089428172E+00  0.88000000000E+00 0. -1.
        -11    1    4    4    0    0 -0.61533266235E-02 -0.51767569118E-01 -0.13276802236E-01  0.53798505923E-01  0.51100000000E-03 0.  1.
         11    1    4    4    0    0 -0.17965081343E-01 -0.63602544313E-01 -0.34595377127E-01  0.74599792429E-01  0.51100000000E-03 0. -1.
</event>
<event>
 8    1  0.1197213E+005  0.1043930E+01  0.7957747E-01            NaN
         13   -1    0    0    0    0  0.00000000000E+00  0.00000000000E+00  0.74505805969E-08  0.10566000000E+00  0.10566000000E+00 0. -1.
     999900   -1    0    0    0    0 -0.00000000000E+00 -0.00000000000E+00 -0.74505805969E-08  0.93827000000E+00  0.93827000000E+00 0.  1.
     999902    2    1    2    0    0  0.88356157708E-02 -0.23176587762E-01 -0.91855204103E-02  0.10174801208E+01  0.10171362741E+01 0.  0.
     999903    2    3    3    0    0  0.55270827941E-01  0.10997151076E+00  0.16407735782E-01  0.12588623349E+00  0.20725163149E-01 0.  0.
         14    1    1    2    0    0 -0.88356157708E-02  0.23176587762E-01  0.91855204103E-02  0.26449879235E-01  0.00000000000E+00 0.  1.
     999901    1    3    3    0    0 -0.46435212171E-01 -0.13314809852E+00 -0.25593256193E-01  0.89159388728E+00  0.88000000000E+00 0.  1.
        -11    1    4    4    0    0  0.10923973288E-01  0.40800567918E-01  0.79376624800E-03  0.42248203757E-01  0.51100000000E-03 0. -1.
         11    1    4    4    0    0  0.44346854653E-01  0.69170942842E-01  0.15613969534E-01  0.83638029729E-01  0.51100000000E-03 0.  1.
</event>
<event>
 8    1  0.1197213E+005  0.1043930E+01  0.7957747E-01            NaN
         13   -1    0    0    0    0  0.00000000000E+00  0.00000000000E+00  0.74505805969E-08  0.10566000000E+00  0.10566000000E+00 0. -1.
     999900   -1    0    0    0    0 -0.00000000000E+00 -0.00000000000E+00 -0.74505805969E-08  0.93827000000E+00  0.93827000000E+00 0.  1.
     999902    2    1    2    0    0  0.13869352601E-01 -0.18863790887E-01  0.17602956407E-02  0.10204502174E+01  0.10201800557E+01 0.  0.
     999903    2    3    3    0    0 -0.46842849967E-01  0.49267143594E-01 -0.10782383336E+00  0.12897028099E+00  0.19643072726E-01 0.  0.
         14    1    1    2    0    0 -0.13869352601E-01  0.18863790887E-01 -0.17602956407E-02  0.23479782558E-01  0.00000000000E+00 0. -1.
     999901    1    3    3    0    0  0.60712202568E-01 -0.68130934481E-01  0.10958412900E+00  0.89147993646E+00  0.88000000000E+00 0. -1.
        -11    1    4    4    0    0 -0.48044065266E-01  0.49536169998E-01 -0.10721628490E+00  0.12750551837E+00  0.51100000000E-03 0. -1.
         11    1    4    4    0    0  0.12012152981E-02 -0.26902640431E-03 -0.60754846117E-03  0.14647626195E-02  0.51100000000E-03 0.  1.
</event>
<event>
 8    1  0.1197213E+005  0.1043930E+01  0.7957747E-01            NaN
         13   -1    0    0    0    0  0.00000000000E+00  0.00000000000E+00  0.74505805969E-08  0.10566000000E+00  0.10566000000E+00 0.  1.
     999900   -1    0    0    0    0 -0.00000000000E+00 -0.00000000000E+00 -0.74505805969E-08  0.93827000000E+00  0.93827000000E+00 0. -1.
     999902    2    1    2    0    0  0.10501483126E-02 -0.20474126429E-01 -0.32531772934E-02  0.10231724513E+01  0.10229618709E+01 0.  0.
     999903    2    3    3    0    0  0.13877734952E-01  0.64042080221E-01 -0.11314585952E+00  0.13222692113E+00  0.19697552612E-01 0.  0.
         14    1    1    2    0    0 -0.10501483126E-02  0.20474126429E-01  0.32531772934E-02  0.20757548675E-01  0.00000000000E+00 0. -1.
     999901    1    3    3    0    0 -0.12827586640E-01 -0.84516206650E-01  0.10989268223E+00  0.89094553019E+00  0.88000000000E+00 0.  1.
        -11    1    4    4    0    0  0.74321575696E-02  0.98152668633E-02 -0.33165276120E-01  0.35380405465E-01  0.51100000000E-03 0.  1.
         11    1    4    4    0    0  0.64455773829E-02  0.54226813358E-01 -0.79980583400E-01  0.96846515666E-01  0.51100000000E-03 0. -1.
</event>
<event>
 8    1  0.1197213E+005  0.1043930E+01  0.7957747E-01            NaN
         13   -1    0    0    0    0  0.00000000000E+00  0.00000000000E+00  0.74505805969E-08  0.10566000000E+00  0.10566000000E+00 0. -1.
     999900   -1    0    0    0    0 -0.00000000000E+00 -0.00000000000E+00 -0.74505805969E-08  0.93827000000E+00  0.93827000000E+00 0. -1.
     999902    2    1    2    0    0  0.61232447673E-03  0.84996423552E-02 -0.23259006215E-01  0.10191590446E+01  0.10188579675E+01 0.  0.
     999903    2    3    3    0    0 -0.74581616125E-01  0.95369219643E-01  0.40924968009E-01  0.12937253385E+00  0.20117007458E-01 0.  0.
         14    1    1    2    0    0 -0.61232447673E-03 -0.84996423552E-02  0.23259006215E-01  0.24770955402E-01  0.00000000000E+00 0. -1.
     999901    1    3    3    0    0  0.75193940602E-01 -0.86869577288E-01 -0.64183974224E-01  0.88978651075E+00  0.88000000000E+00 0. -1.
        -11    1    4    4    0    0 -0.30763917070E-01  0.37811959959E-01  0.62378172126E-02  0.49146051662E-01  0.51100000000E-03 0.  1.
         11    1    4    4    0    0 -0.43817699055E-01  0.57557259685E-01  0.34687150796E-01  0.80226482188E-01  0.51100000000E-03 0. -1.
</event>
<event>
 8    1  0.1197213E+005  0.1043930E+01  0.7957747E-01            NaN
         13   -1    0    0    0    0  0.00000000000E+00  0.00000000000E+00  0.74505805969E-08  0.10566000000E+00  0.10566000000E+00 0. -1.
     999900   -1    0    0    0    0 -0.00000000000E+00 -0.00000000000E+00 -0.74505805969E-08  0.93827000000E+00  0.93827000000E+00 0. -1.
     999902    2    1    2    0    0 -0.83784857828E-02  0.19432706051E-01 -0.10602015877E-01  0.10202607831E+01  0.10199861929E+01 0.  0.
     999903    2    3    3    0    0  0.90761737698E-01 -0.12927460461E-02 -0.91721721149E-01  0.13074477151E+00  0.21022771556E-01 0.  0.
         14    1    1    2    0    0  0.83784857828E-02 -0.19432706051E-01  0.10602015877E-01  0.23669216910E-01  0.00000000000E+00 0.  1.
     999901    1    3    3    0    0 -0.99140223481E-01  0.20725452098E-01  0.81119705272E-01  0.88951601158E+00  0.88000000000E+00 0.  1.
        -11    1    4    4    0    0  0.46427547860E-01  0.87634613725E-02 -0.53224089787E-01  0.71171485232E-01  0.51100000000E-03 0.  1.
         11    1    4    4    0    0  0.44334189838E-01 -0.10056207419E-01 -0.38497631363E-01  0.59573286276E-01  0.51100000000E-03 0. -1.
</event>
<event>
 8    1  0.1197213E+005  0.1043930E+01  0.7957747E-01            NaN
         13   -1    0    0    0    0  0.00000000000E+00  0.00000000000E+00  0.74505805969E-08  0.10566000000E+00  0.10566000000E+00 0. -1.
     999900   -1    0    0    0    0 -0.00000000000E+00 -0.00000000000E+00 -0.74505805969E-08  0.93827000000E+00  0.93827000000E+00 0. -1.
     999902    2    1    2    0    0 -0.57387831923E-02  0.18256544673E-01  0.13741256362E-01  0.10203703484E+01  0.10200983241E+01 0.  0.
     999903    2    3    3    0    0 -0.97667236265E-01  0.15091532552E-01 -0.84505975872E-01  0.13013814477E+00  0.52946549766E-02 0.  0.
         14    1    1    2    0    0  0.57387831923E-02 -0.18256544673E-01 -0.13741256362E-01  0.23559651575E-01  0.00000000000E+00 0. -1.
     999901    1    3    3    0    0  0.91928453073E-01  0.31650121206E-02  0.98247232234E-01  0.89023220366E+00  0.88000000000E+00 0.  1.
        -11    1    4    4    0    0 -0.31654996315E-01  0.28842808821E-02 -0.28991304962E-01  0.43024583116E-01  0.51100000000E-03 0. -1.
         11    1    4    4    0    0 -0.66012239950E-01  0.12207251670E-01 -0.55514670910E-01  0.87113561653E-01  0.51100000000E-03 0.  1.
</event>
<event>
 8    1  0.1197213E+005  0.1043930E+01  0.7957747E-01            NaN
         13   -1    0    0    0    0  0.00000000000E+00  0.00000000000E+00  0.74505805969E-08  0.10566000000E+00  0.10566000000E+00 0. -1.
     999900   -1    0    0    0    0 -0.00000000000E+00 -0.00000000000E+00 -0.74505805969E-08  0.93827000000E+00  0.93827000000E+00 0.  1.
     999902    2    1    2    0    0  0.32389664669E-02  0.22472460147E-01  0.50379883402E-02  0.10206730936E+01  0.10204080950E+01 0.  0.
     999903    2    3    3    0    0 -0.39381712382E-01 -0.10826405086E+00 -0.52957286076E-01  0.12810824473E+00  0.18309129979E-01 0.  0.
         14    1    1    2    0    0 -0.32389664669E-02 -0.22472460147E-01 -0.50379883402E-02  0.23256906401E-01  0.00000000000E+00 0. -1.
     999901    1    3    3    0    0  0.42620678849E-01  0.13073651101E+00  0.57995274416E-01  0.89256484887E+00  0.88000000000E+00 0. -1.
        -11    1    4    4    0    0 -0.15201975348E-01 -0.46226996036E-01 -0.32237609368E-01  0.58374307668E-01  0.51100000000E-03 0. -1.
         11    1    4    4    0    0 -0.24179737034E-01 -0.62037054827E-01 -0.20719676708E-01  0.69733937065E-01  0.51100000000E-03 0.  1.
</event>
<event>
 8    1  0.1197213E+005  0.1043930E+01  0.7957747E-01            NaN
         13   -1    0    0    0    0  0.00000000000E+00  0.00000000000E+00  0.74505805969E-08  0.10566000000E+00  0.10566000000E+00 0. -1.
     999900   -1    0    0    0    0 -0.00000000000E+00 -0.00000000000E+00 -0.74505805969E-08  0.93827000000E+00  0.93827000000E+00 0. -1.
     999902    2    1    2    0    0  0.15926584900E-01  0.99965047457E-02 -0.15529897018E-01  0.10195422179E+01  0.10192504943E+01 0.  0.
     999903    2    3    3    0    0  0.97110043485E-01  0.86823506731E-01 -0.13622375323E-01  0.13247019106E+00  0.19851965748E-01 0.  0.
         14    1    1    2    0    0 -0.15926584900E-01 -0.99965047457E-02  0.15529897018E-01  0.24387782086E-01  0.00000000000E+00 0. -1.
     999901    1    3    3    0    0 -0.81183458585E-01 -0.76827001985E-01 -0.19075216946E-02  0.88707202685E+00  0.88000000000E+00 0.  1.
        -11    1    4    4    0    0  0.57310626882E-01  0.43395744127E-01 -0.15463345301E-01  0.73532813973E-01  0.51100000000E-03 0.  1.
         11    1    4    4    0    0  0.39799416603E-01  0.43427762604E-01  0.18409699777E-02  0.58937377090E-01  0.51100000000E-03 0. -1.
</event>
<event>
 8    1  0.1197213E+005  0.1043930E+01  0.7957747E-01            NaN
         13   -1    0    0    0    0  0.00000000000E+00  0.00000000000E+00  0.74505805969E-08  0.10566000000E+00  0.10566000000E+00 0. -1.
     999900   -1    0    0    0    0 -0.00000000000E+00 -0.00000000000E+00 -0.74505805969E-08  0.93827000000E+00  0.93827000000E+00 0. -1.
     999902    2    1    2    0    0 -0.13408956749E-01 -0.68511257255E-02 -0.21823709236E-01  0.10174156203E+01  0.10170700724E+01 0.  0.
     999903    2    3    3    0    0 -0.77246062592E-01 -0.37224146859E-01  0.91906471620E-01  0.12728515206E+00  0.20052907855E-01 0.  0.
         14    1    1    2    0    0  0.13408956749E-01  0.68511257255E-02  0.21823709236E-01  0.26514379677E-01  0.00000000000E+00 0. -1.
     999901    1    3    3    0    0  0.63837105843E-01  0.30373021134E-01 -0.11373018086E+00  0.89013046826E+00  0.88000000000E+00 0. -1.
        -11    1    4    4    0    0 -0.37969415914E-01 -0.10431768481E-01  0.31609948786E-01  0.50497012998E-01  0.51100000000E-03 0.  1.
         11    1    4    4    0    0 -0.39276646679E-01 -0.26792378378E-01  0.60296522834E-01  0.76788139061E-01  0.51100000000E-03 0. -1.
</event>
<event>
 8    1  0.1197213E+005  0.1043930E+01  0.7957747E-01            NaN
         13   -1    0    0    0    0  0.00000000000E+00  0.00000000000E+00  0.74505805969E-08  0.10566000000E+00  0.10566000000E+00 0. -1.
     999900   -1    0    0    0    0 -0.00000000000E+00 -0.00000000000E+00 -0.74505805969E-08  0.93827000000E+00  0.93827000000E+00 0.  1.
     999902    2    1    2    0    0 -0.13812000407E-01 -0.66620437546E-02  0.17384097402E-01  0.10207489512E+01  0.10204856982E+01 0.  0.
     999903    2    3    3    0    0  0.66707708622E-01 -0.35146374940E-01 -0.10220146775E+00  0.12856315883E+00  0.19953940375E-01 0.  0.
         14    1    1    2    0    0  0.13812000407E-01  0.66620437546E-02 -0.17384097402E-01  0.23181048827E-01  0.00000000000E+00 0.  1.
     999901    1    3    3    0    0 -0.80519709029E-01  0.28484331185E-01  0.11958556516E+00  0.89218579234E+00  0.88000000000E+00 0. -1.
        -11    1    4    4    0    0  0.41505408785E-01 -0.31320843864E-01 -0.75189138334E-01  0.91418607861E-01  0.51100000000E-03 0. -1.
         11    1    4    4    0    0  0.25202299837E-01 -0.38255310760E-02 -0.27012329419E-01  0.37144550969E-01  0.51100000000E-03 0.  1.
</event>
<event>
 8    1  0.1197213E+005  0.1043930E+01  0.7957747E-01            NaN
         13   -1    0    0    0    0  0.00000000000E+00  0.00000000000E+00  0.74505805969E-08  0.10566000000E+00  0.10566000000E+00 0. -1.
     999900   -1    0    0    0    0 -0.00000000000E+00 -0.00000000000E+00 -0.74505805969E-08  0.93827000000E+00  0.93827000000E+00 0. -1.
     999902    2    1    2    0    0  0.16330234744E-01 -0.13111319408E-01 -0.14754303232E-01  0.10183121795E+01  0.10179898930E+01 0.  0.
     999903    2    3    3    0    0  0.56634828061E-01 -0.11082411416E+00  0.34335572094E-01  0.13062863996E+00  0.19885221647E-01 0.  0.
         14    1    1    2    0    0 -0.16330234744E-01  0.13111319408E-01  0.14754303232E-01  0.25617820502E-01  0.00000000000E+00 0.  1.
     999901    1    3    3    0    0 -0.40304593317E-01  0.97712794748E-01 -0.49089875326E-01  0.88768353953E+00  0.88000000000E+00 0. -1.
        -11    1    4    4    0    0  0.20638461185E-01 -0.47198376416E-01  0.23875984057E-01  0.56779895668E-01  0.51100000000E-03 0. -1.
         11    1    4    4    0    0  0.35996366876E-01 -0.63625737740E-01  0.10459588037E-01  0.73848744296E-01  0.51100000000E-03 0.  1.
</event>
<event>
 8    1  0.1197213E+005  0.1043930E+01  0.7957747E-01            NaN
         13   -1    0    0    0    0  0.00000000000E+00  0.00000000000E+00  0.74505805969E-08  0.10566000000E+00  0.10566000000E+00 0.  1.
     999900   -1    0    0    0    0 -0.00000000000E+00 -0.00000000000E+00 -0.74505805969E-08  0.93827000000E+00  0.93827000000E+00 0.  1.
     999902    2    1    2    0    0  0.11038011244E-01  0.15464607804E-01 -0.13761720380E-01  0.10204698906E+01  0.10202001866E+01 0.  0.
     999903    2    3    3    0    0 -0.43083392621E-01 -0.36540798757E-01  0.11368716812E+00  0.12812639849E+00  0.17326081545E-01 0.  0.
         14    1    1    2    0    0 -0.11038011244E-01 -0.15464607804E-01  0.13761720380E-01  0.23460109432E-01  0.00000000000E+00 0.  1.
     999901    1    3    3    0    0  0.54121403865E-01  0.52005406561E-01 -0.12744888850E+00  0.89234349207E+00  0.88000000000E+00 0. -1.
        -11    1    4    4    0    0 -0.21247652874E-01 -0.22506189610E-01  0.44322680197E-01  0.54062486293E-01  0.51100000000E-03 0.  1.
         11    1    4    4    0    0 -0.21835739748E-01 -0.14034609148E-01  0.69364487925E-01  0.74063912200E-01  0.51100000000E-03 0. -1.
</event>
<event>
 8    1  0.1197213E+005  0.1043930E+01  0.7957747E-01            NaN
         13   -1    0    0    0    0  0.00000000000E+00  0.00000000000E+00  0.74505805969E-08  0.10566000000E+00  0.10566000000E+00 0. -1.
     999900   -1    0    0    0    0 -0.00000000000E+00 -0.00000000000E+00 -0.74505805969E-08  0.93827000000E+00  0.93827000000E+00 0.  1.
     999902    2    1    2    0    0 -0.12566276150E-01  0.38896022605E-02  0.20118531058E-01  0.10198926209E+01  0.10196093186E+01 0.  0.
     999903    2    3    3    0    0  0.55998072108E-01 -0.93021227345E-01 -0.64231704436E-01  0.12792415679E+00  0.21216625985E-01 0.  0.
         14    1    1    2    0    0  0.12566276150E-01 -0.38896022605E-02 -0.20118531058E-01  0.24037379099E-01  0.00000000000E+00 0.  1.
     999901    1    3    3    0    0 -0.68564348258E-01  0.96910829605E-01  0.84350235495E-01  0.89196846411E+00  0.88000000000E+00 0.  1.
        -11    1    4    4    0    0  0.16027830330E-01 -0.11735963879E-01 -0.88527221888E-02  0.21754447923E-01  0.51100000000E-03 0. -1.
         11    1    4    4    0    0  0.39970241777E-01 -0.81285263465E-01 -0.55378982248E-01  0.10616970886E+00  0.51100000000E-03 0.  1.
</event>
<event>
 8    1  0.1197213E+005  0.1043930E+01  0.7957747E-01            NaN
         13   -1    0    0    0    0  0.00000000000E+00  0.00000000000E+00  0.74505805969E-08  0.10566000000E+00  0.10566000000E+00 0. -1.
     999900   -1    0    0    0    0 -0.00000000000E+00 -0.00000000000E+00 -0.74505805969E-08  0.93827000000E+00  0.93827000000E+00 0.  1.
     999902    2    1    2    0    0  0.22969116999E-01  0.28401805785E-02  0.80293018738E-02  0.10194327216E+01  0.10191383405E+01 0.  0.
     999903    2    3    3    0    0  0.15244403648E-01 -0.11011069434E+00 -0.62826462574E-01  0.12935513468E+00  0.20708201743E-01 0.  0.
         14    1    1    2    0    0 -0.22969116999E-01 -0.28401805785E-02 -0.80293018738E-02  0.24497278421E-01  0.00000000000E+00 0.  1.
     999901    1    3    3    0    0  0.77247133514E-02  0.11295087491E+00  0.70855764448E-01  0.89007758690E+00  0.88000000000E+00 0.  1.
        -11    1    4    4    0    0  0.14075949499E-01 -0.57198497528E-01 -0.42589689595E-01  0.72690737062E-01  0.51100000000E-03 0.  1.
         11    1    4    4    0    0  0.11684541493E-02 -0.52912196808E-01 -0.20236772979E-01  0.56664397621E-01  0.51100000000E-03 0. -1.
</event>
<event>
 8    1  0.1197213E+005  0.1043930E+01  0.7957747E-01            NaN
         13   -1    0    0    0    0  0.00000000000E+00  0.00000000000E+00  0.74505805969E-08  0.10566000000E+00  0.10566000000E+00 0.  1.
     999900   -1    0    0    0    0 -0.00000000000E+00 -0.00000000000E+00 -0.74505805969E-08  0.93827000000E+00  0.93827000000E+00 0.  1.
     999902    2    1    2    0    0  0.37101308692E-02  0.22588496053E-01 -0.70726130093E-02  0.10199711378E+01  0.10196897051E+01 0.  0.
     999903    2    3    3    0    0  0.26884865502E-01  0.11960634704E+00  0.46798172474E-01  0.13269914267E+00  0.19761560537E-01 0.  0.
         14    1    1    2    0    0 -0.37101308692E-02 -0.22588496053E-01  0.70726130093E-02  0.23958862239E-01  0.00000000000E+00 0.  1.
     999901    1    3    3    0    0 -0.23174734633E-01 -0.97017850985E-01 -0.53870785484E-01  0.88727199509E+00  0.88000000000E+00 0. -1.
        -11    1    4    4    0    0  0.22909572392E-01  0.63140870053E-01  0.20113242822E-01  0.70117199289E-01  0.51100000000E-03 0. -1.
         11    1    4    4    0    0  0.39752931093E-02  0.56465476985E-01  0.26684929653E-01  0.62581943386E-01  0.51100000000E-03 0.  1.
</event>
<event>
 8    1  0.1197213E+005  0.1043930E+01  0.7957747E-01            NaN
         13   -1    0    0    0    0  0.00000000000E+00  0.00000000000E+00  0.74505805969E-08  0.10566000000E+00  0.10566000000E+00 0. -1.
     999900   -1    0    0    0    0 -0.00000000000E+00 -0.00000000000E+00 -0.74505805969E-08  0.93827000000E+00  0.93827000000E+00 0. -1.
     999902    2    1    2    0    0  0.16949350398E-01 -0.79620030739E-02  0.15654179523E-01  0.10195224743E+01  0.10192302725E+01 0.  0.
     999903    2    3    3    0    0 -0.86206127101E-01 -0.29442089744E-01  0.90845177215E-01  0.13005289488E+00  0.19041434978E-01 0.  0.
         14    1    1    2    0    0 -0.16949350398E-01  0.79620030739E-02 -0.15654179523E-01  0.24407525651E-01  0.00000000000E+00 0.  1.
     999901    1    3    3    0    0  0.10315547750E+00  0.21480086670E-01 -0.75190997692E-01  0.88946957947E+00  0.88000000000E+00 0. -1.
        -11    1    4    4    0    0 -0.44467236361E-01 -0.66660799793E-02  0.51196234658E-01  0.68140203229E-01  0.51100000000E-03 0. -1.
         11    1    4    4    0    0 -0.41738890740E-01 -0.22776009765E-01  0.39648942556E-01  0.61912691654E-01  0.51100000000E-03 0.  1.
</event>
<event>
 8    1  0.1197213E+005  0.1043930E+01  0.7957747E-01            NaN
         13   -1    0    0    0    0  0.00000000000E+00  0.00000000000E+00  0.74505805969E-08  0.10566000000E+00  0.10566000000E+00 0.  1.
     999900   -1    0    0    0    0 -0.00000000000E+00 -0.00000000000E+00 -0.74505805969E-08  0.93827000000E+00  0.93827000000E+00 0. -1.
     999902    2    1    2    0    0 -0.18773435981E-02  0.25265872945E-01  0.20830149768E-02  0.10185089909E+01  0.10181916994E+01 0.  0.
     999903    2    3    3    0    0  0.89636884952E-01  0.84463045118E-01  0.39744835087E-01  0.13098571121E+00  0.20219482919E-01 0.  0.
         14    1    1    2    0    0  0.18773435981E-02 -0.25265872945E-01 -0.20830149768E-02  0.25421009147E-01  0.00000000000E+00 0. -1.
     999901    1    3    3    0    0 -0.91514228550E-01 -0.59197172173E-01 -0.37661820110E-01  0.88752327965E+00  0.88000000000E+00 0. -1.
        -11    1    4    4    0    0  0.27062549280E-02  0.59922037130E-02 -0.16090103095E-02  0.67882513396E-02  0.51100000000E-03 0.  1.
         11    1    4    4    0    0  0.86930630024E-01  0.78470841405E-01  0.41353845396E-01  0.12419745987E+00  0.51100000000E-03 0. -1.
</event>
<event>
 8    1  0.1197213E+005  0.1043930E+01  0.7957747E-01            NaN
         13   -1    0    0    0    0  0.00000000000E+00  0.00000000000E+00  0.74505805969E-08  0.10566000000E+00  0.10566000000E+00 0.  1.
     999900   -1    0    0    0    0 -0.00000000000E+00 -0.00000000000E+00 -0.74505805969E-08  0.93827000000E+00  0.93827000000E+00 0. -1.
     999902    2    1    2    0    0  0.88112808853E-02  0.20645251017E-01  0.64676563999E-02  0.10205698707E+01  0.10203024872E+01 0.  0.
     999903    2    3    3    0    0  0.25280802362E-01  0.35403938252E-01  0.12341262853E+00  0.13255793922E+00  0.21174809515E-01 0.  0.
         14    1    1    2    0    0 -0.88112808853E-02 -0.20645251017E-01 -0.64676563999E-02  0.23360129274E-01  0.00000000000E+00 0.  1.
     999901    1    3    3    0    0 -0.16469521477E-01 -0.14758687235E-01 -0.11694497213E+00  0.88801193150E+00  0.88000000000E+00 0. -1.
        -11    1    4    4    0    0  0.63095321121E-02  0.13914451201E-01  0.72813890997E-01  0.74401249928E-01  0.51100000000E-03 0. -1.
         11    1    4    4    0    0  0.18971270250E-01  0.21489487051E-01  0.50598737534E-01  0.58156689294E-01  0.51100000000E-03 0.  1.
</event>
<event>
 8    1  0.1197213E+005  0.1043930E+01  0.7957747E-01            NaN
         13   -1    0    0    0    0  0.00000000000E+00  0.00000000000E+00  0.74505805969E-08  0.10566000000E+00  0.10566000000E+00 0.  1.
     999900   -1    0    0    0    0 -0.00000000000E+00 -0.00000000000E+00 -0.74505805969E-08  0.93827000000E+00  0.93827000000E+00 0.  1.
     999902    2    1    2    0    0  0.10656443003E-01 -0.13983588998E-03 -0.19770111759E-01  0.10214703328E+01  0.10212233860E+01 0.  0.
     999903    2    3    3    0    0 -0.87001555619E-02 -0.12914832534E+00 -0.10230228590E-01  0.13180248600E+00  0.22633053129E-01 0.  0.
         14    1    1    2    0    0 -0.10656443003E-01  0.13983588998E-03  0.19770111759E-01  0.22459667195E-01  0.00000000000E+00 0.  1.
     999901    1    3    3    0    0  0.19356598565E-01  0.12900848945E+00 -0.95398831691E-02  0.88966784680E+00  0.88000000000E+00 0. -1.
        -11    1    4    4    0    0 -0.16315632372E-01 -0.96892881588E-01 -0.75125595725E-02  0.98545066008E-01  0.51100000000E-03 0.  1.
         11    1    4    4    0    0  0.76154768103E-02 -0.32255443756E-01 -0.27176690171E-02  0.33257419997E-01  0.51100000000E-03 0. -1.
</event>
<event>
 8    1  0.1197213E+005  0.1043930E+01  0.7957747E-01            NaN
         13   -1    0    0    0    0  0.00000000000E+00  0.00000000000E+00  0.74505805969E-08  0.10566000000E+00  0.10566000000E+00 0.  1.
     999900   -1    0    0    0    0 -0.00000000000E+00 -0.00000000000E+00 -0.74505805969E-08  0.93827000000E+00  0.93827000000E+00 0.  1.
     999902    2    1    2    0    0 -0.18368061487E-01 -0.35033435115E-04  0.12440832358E-01  0.10217452931E+01  0.10215044213E+01 0.  0.
     999903    2    3    3    0    0  0.33186466335E-01 -0.47501199886E-01  0.11856104208E+00  0.13260390660E+00  0.13014215616E-01 0.  0.
         14    1    1    2    0    0  0.18368061487E-01  0.35033435115E-04 -0.12440832358E-01  0.22184706892E-01  0.00000000000E+00 0.  1.
     999901    1    3    3    0    0 -0.51554527822E-01  0.47466166450E-01 -0.10612020972E+00  0.88914138651E+00  0.88000000000E+00 0.  1.
        -11    1    4    4    0    0  0.88257902192E-02 -0.22942640595E-01  0.54777348399E-01  0.60042304662E-01  0.51100000000E-03 0.  1.
         11    1    4    4    0    0  0.24360676115E-01 -0.24558559290E-01  0.63783693677E-01  0.72561601935E-01  0.51100000000E-03 0. -1.
</event>
<event>
 8    1  0.1197213E+005  0.1043930E+01  0.7957747E-01            NaN
         13   -1    0    0    0    0  0.00000000000E+00  0.00000000000E+00  0.74505805969E-08  0.10566000000E+00  0.10566000000E+00 0.  1.
     999900   -1    0    0    0    0 -0.00000000000E+00 -0.00000000000E+00 -0.74505805969E-08  0.93827000000E+00  0.93827000000E+00 0.  1.
     999902    2    1    2    0    0  0.15001766474E-01  0.18803641586E-01 -0.61654175571E-02  0.10190977164E+01  0.10187951282E+01 0.  0.
     999903    2    3    3    0    0  0.53147610854E-01  0.11195737433E+00  0.40766162101E-01  0.13211671519E+00  0.20828448206E-01 0.  0.
         14    1    1    2    0    0 -0.15001766474E-01 -0.18803641586E-01  0.61654175571E-02  0.24832283582E-01  0.00000000000E+00 0. -1.
     999901    1    3    3    0    0 -0.38145844380E-01 -0.93153732742E-01 -0.46931579658E-01  0.88698100123E+00  0.88000000000E+00 0. -1.
        -11    1    4    4    0    0  0.33621161965E-01  0.51160869224E-01  0.26355740418E-01  0.66653606396E-01  0.51100000000E-03 0.  1.
         11    1    4    4    0    0  0.19526448888E-01  0.60796505104E-01  0.14410421683E-01  0.65463108795E-01  0.51100000000E-03 0. -1.
</event>
<event>
 8    1  0.1197213E+005  0.1043930E+01  0.7957747E-01            NaN
         13   -1    0    0    0    0  0.00000000000E+00  0.00000000000E+00  0.74505805969E-08  0.10566000000E+00  0.10566000000E+00 0.  1.
     999900   -1    0    0    0    0 -0.00000000000E+00 -0.00000000000E+00 -0.74505805969E-08  0.93827000000E+00  0.93827000000E+00 0. -1.
     999902    2    1    2    0    0  0.11849560794E-01 -0.19591705496E-01 -0.24526056943E-01  0.10103774370E+01  0.10098201774E+01 0.  0.
     999903    2    3    3    0    0 -0.64264383909E-01  0.81570360754E-01 -0.58311311885E-01  0.12067606031E+00  0.19464522710E-01 0.  0.
         14    1    1    2    0    0 -0.11849560794E-01  0.19591705496E-01  0.24526056943E-01  0.33552563008E-01  0.00000000000E+00 0.  1.
     999901    1    3    3    0    0  0.76113944703E-01 -0.10116206625E+00  0.33785254942E-01  0.88970137669E+00  0.88000000000E+00 0. -1.
        -11    1    4    4    0    0 -0.48328846521E-01  0.66469282665E-01 -0.37187461007E-01  0.90205384103E-01  0.51100000000E-03 0. -1.
         11    1    4    4    0    0 -0.15935537388E-01  0.15101078089E-01 -0.21123850879E-01  0.30470676202E-01  0.51100000000E-03 0.  1.
</event>
<event>
 8    1  0.1197213E+005  0.1043930E+01  0.7957747E-01            NaN
         13   -1    0    0    0    0  0.00000000000E+00  0.00000000000E+00  0.74505805969E-08  0.10566000000E+00  0.10566000000E+00 0.  1.
     999900   -1    0    0    0    0 -0.00000000000E+00 -0.00000000000E+00 -0.74505805969E-08  0.93827000000E+00  0.93827000000E+00 0. -1.
     999902    2    1    2    0    0  0.47639040199E-02  0.22900608939E-01  0.14702911576E-03  0.10205386706E+01  0.10202705641E+01 0.  0.
     999903    2    3    3    0    0  0.35082455633E-01  0.20363145827E-01  0.12354486387E+00  0.13140837710E+00  0.18957631203E-01 0.  0.
         14    1    1    2    0    0 -0.47639040199E-02 -0.22900608939E-01 -0.14702911576E-03  0.23391329352E-01  0.00000000000E+00 0.  1.
     999901    1    3    3    0    0 -0.30318551613E-01  0.25374631122E-02 -0.12339783475E+00  0.88913029355E+00  0.88000000000E+00 0. -1.
        -11    1    4    4    0    0  0.46503005136E-02  0.50907948288E-02  0.48605380121E-01  0.49094659430E-01  0.51100000000E-03 0.  1.
         11    1    4    4    0    0  0.30432155119E-01  0.15272350998E-01  0.74939483749E-01  0.82313717665E-01  0.51100000000E-03 0. -1.
</event>
<event>
 8    1  0.1197213E+005  0.1043930E+01  0.7957747E-01            NaN
         13   -1    0    0    0    0  0.00000000000E+00  0.00000000000E+00  0.74505805969E-08  0.10566000000E+00  0.10566000000E+00 0.  1.
     999900   -1    0    0    0    0 -0.00000000000E+00 -0.00000000000E+00 -0.74505805969E-08  0.93827000000E+00  0.93827000000E+00 0.  1.
     999902    2    1    2    0    0 -0.27386718420E-02  0.19464612825E-01 -0.65942146229E-02  0.10231970518E+01  0.10229869753E+01 0.  0.
     999903    2    3    3    0    0 -0.92325777194E-01 -0.91225611842E-01 -0.97412707496E-02  0.13174426040E+00  0.20383728837E-01 0.  0.
         14    1    1    2    0    0  0.27386718420E-02 -0.19464612825E-01  0.65942146229E-02  0.20732948232E-01  0.00000000000E+00 0.  1.
     999901    1    3    3    0    0  0.89587105352E-01  0.11069022467E+00  0.31470561267E-02  0.89145279137E+00  0.88000000000E+00 0.  1.
        -11    1    4    4    0    0 -0.33732591212E-01 -0.36101144392E-01 -0.13451445760E-01  0.51209206695E-01  0.51100000000E-03 0. -1.
         11    1    4    4    0    0 -0.58593185982E-01 -0.55124467449E-01  0.37101750108E-02  0.80535053702E-01  0.51100000000E-03 0.  1.
</event>
<event>
 8    1  0.1197213E+005  0.1043930E+01  0.7957747E-01            NaN
         13   -1    0    0    0    0  0.00000000000E+00  0.00000000000E+00  0.74505805969E-08  0.10566000000E+00  0.10566000000E+00 0. -1.
     999900   -1    0    0    0    0 -0.00000000000E+00 -0.00000000000E+00 -0.74505805969E-08  0.93827000000E+00  0.93827000000E+00 0.  1.
     999902    2    1    2    0    0 -0.20807057770E-01  0.70732543241E-02  0.91318120480E-02  0.10201317948E+01  0.10198541681E+01 0.  0.
     999903    2    3    3    0    0  0.12320131437E+00 -0.33390501050E-02 -0.26105652141E-01  0.12766974730E+00  0.20696525874E-01 0.  0.
         14    1    1    2    0    0  0.20807057770E-01 -0.70732543241E-02 -0.91318120480E-02  0.23798205207E-01  0.00000000000E+00 0.  1.
     999901    1    3    3    0    0 -0.14400837214E+00  0.10412304429E-01  0.35237464188E-01  0.89246204749E+00  0.88000000000E+00 0. -1.
        -11    1    4    4    0    0  0.66987667823E-01  0.65891244131E-02 -0.20203612707E-01  0.70279522539E-01  0.51100000000E-03 0.  1.
         11    1    4    4    0    0  0.56213646551E-01 -0.99281745181E-02 -0.59020394337E-02  0.57390224762E-01  0.51100000000E-03 0. -1.
</event>
<event>
 8    1  0.1197213E+005  0.1043930E+01  0.7957747E-01            NaN
         13   -1    0    0    0    0  0.00000000000E+00  0.00000000000E+00  0.74505805969E-08  0.10566000000E+00  0.10566000000E+00 0.  1.
     999900   -1    0    0    0    0 -0.00000000000E+00 -0.00000000000E+00 -0.74505805969E-08  0.93827000000E+00  0.93827000000E+00 0. -1.
     999902    2    1    2    0    0 -0.18169548357E-01 -0.13227835889E-01  0.67234619147E-02  0.10204712475E+01  0.10202015751E+01 0.  0.
     999903    2    3    3    0    0  0.83986392978E-01 -0.85115892434E-01  0.48883499479E-01  0.13065036787E+00  0.19531839442E-01 0.  0.
         14    1    1    2    0    0  0.18169548357E-01  0.13227835889E-01 -0.67234619147E-02  0.23458752522E-01  0.00000000000E+00 0.  1.
     999901    1    3    3    0    0 -0.10215594133E+00  0.71888056545E-01 -0.42160037565E-01  0.88982087961E+00  0.88000000000E+00 0. -1.
        -11    1    4    4    0    0  0.80314539417E-01 -0.75799718024E-01  0.48497341811E-01  0.12061623348E+00  0.51100000000E-03 0.  1.
         11    1    4    4    0    0  0.36718535608E-02 -0.93161744099E-02  0.38615766813E-03  0.10034134390E-01  0.51100000000E-03 0. -1.
</event>
<event>
 8    1  0.1197213E+005  0.1043930E+01  0.7957747E-01            NaN
         13   -1    0    0    0    0  0.00000000000E+00  0.00000000000E+00  0.74505805969E-08  0.10566000000E+00  0.10566000000E+00 0. -1.
     999900   -1    0    0    0    0 -0.00000000000E+00 -0.00000000000E+00 -0.74505805969E-08  0.93827000000E+00  0.93827000000E+00 0. -1.
     999902    2    1    2    0    0 -0.18290841653E-01  0.13738221896E-01 -0.62753000005E-02  0.10202092703E+01  0.10199334695E+01 0.  0.
     999903    2    3    3    0    0  0.96735736698E-01 -0.77356395987E-01 -0.24616242271E-01  0.12787203956E+00  0.20086920197E-01 0.  0.
         14    1    1    2    0    0  0.18290841653E-01 -0.13738221896E-01  0.62753000005E-02  0.23720729738E-01  0.00000000000E+00 0.  1.
     999901    1    3    3    0    0 -0.11502657835E+00  0.91094617883E-01  0.18340942270E-01  0.89233723070E+00  0.88000000000E+00 0.  1.
        -11    1    4    4    0    0  0.94609671031E-01 -0.72849347117E-01 -0.20022325801E-01  0.12107506713E+00  0.51100000000E-03 0.  1.
         11    1    4    4    0    0  0.21260656664E-02 -0.45070488702E-02 -0.45939164693E-02  0.67969724336E-02  0.51100000000E-03 0. -1.
</event>
<event>
 8    1  0.1197213E+005  0.1043930E+01  0.7957747E-01            NaN
         13   -1    0    0    0    0  0.00000000000E+00  0.00000000000E+00  0.74505805969E-08  0.10566000000E+00  0.10566000000E+00 0. -1.
     999900   -1    0    0    0    0 -0.00000000000E+00 -0.00000000000E+00 -0.74505805969E-08  0.93827000000E+00  0.93827000000E+00 0. -1.
     999902    2    1    2    0    0 -0.55392532446E-02  0.31249754390E-02 -0.23588952667E-01  0.10194987191E+01  0.10192059413E+01 0.  0.
     999903    2    3    3    0    0 -0.57654774419E-01 -0.10736747953E+00  0.39799076819E-01  0.12880087335E+00  0.12403619869E-01 0.  0.
         14    1    1    2    0    0  0.55392532446E-02 -0.31249754390E-02  0.23588952667E-01  0.24431280890E-01  0.00000000000E+00 0. -1.
     999901    1    3    3    0    0  0.52115521174E-01  0.11049245497E+00 -0.63388029487E-01  0.89069784576E+00  0.88000000000E+00 0. -1.
        -11    1    4    4    0    0 -0.42094725319E-01 -0.67859592052E-01  0.22678912135E-01  0.83014964373E-01  0.51100000000E-03 0. -1.
         11    1    4    4    0    0 -0.15560049100E-01 -0.39507887482E-01  0.17120164685E-01  0.45785908980E-01  0.51100000000E-03 0.  1.
</event>
<event>
 8    1  0.1197213E+005  0.1043930E+01  0.7957747E-01            NaN
         13   -1    0    0    0    0  0.00000000000E+00  0.00000000000E+00  0.74505805969E-08  0.10566000000E+00  0.10566000000E+00 0. -1.
     999900   -1    0    0    0    0 -0.00000000000E+00 -0.00000000000E+00 -0.74505805969E-08  0.93827000000E+00  0.93827000000E+00 0.  1.
     999902    2    1    2    0    0 -0.67609955893E-02  0.12849192831E-01 -0.16865990537E-01  0.10216752375E+01  0.10214328252E+01 0.  0.
     999903    2    3    3    0    0  0.69285172526E-01  0.10940857191E+00 -0.22606075018E-01  0.13311478262E+00  0.20924626309E-01 0.  0.
         14    1    1    2    0    0  0.67609955893E-02 -0.12849192831E-01  0.16865990537E-01  0.22254762514E-01  0.00000000000E+00 0. -1.
     999901    1    3    3    0    0 -0.76046168115E-01 -0.96559379079E-01  0.57400844809E-02  0.88856045486E+00  0.88000000000E+00 0. -1.
        -11    1    4    4    0    0  0.38202461878E-01  0.64222471729E-01 -0.27298422745E-02  0.74777450668E-01  0.51100000000E-03 0. -1.
         11    1    4    4    0    0  0.31082710648E-01  0.45186100181E-01 -0.19876232743E-01  0.58337331957E-01  0.51100000000E-03 0.  1.
</event>
<event>
 8    1  0.1197213E+005  0.1043930E+01  0.7957747E-01            NaN
         13   -1    0    0    0    0  0.00000000000E+00  0.00000000000E+00  0.74505805969E-08  0.10566000000E+00  0.10566000000E+00 0. -1.
     999900   -1    0    0    0    0 -0.00000000000E+00 -0.00000000000E+00 -0.74505805969E-08  0.93827000000E+00  0.93827000000E+00 0. -1.
     999902    2    1    2    0    0  0.13774365309E-01 -0.11621136552E-01 -0.14589512209E-01  0.10207429816E+01  0.10204795915E+01 0.  0.
     999903    2    3    3    0    0 -0.64074677417E-01 -0.10938690231E+00 -0.30148931139E-01  0.13177688896E+00  0.19624773428E-01 0.  0.
         14    1    1    2    0    0 -0.13774365309E-01  0.11621136552E-01  0.14589512209E-01  0.23187018370E-01  0.00000000000E+00 0. -1.
     999901    1    3    3    0    0  0.77849042726E-01  0.97765765753E-01  0.15559418930E-01  0.88896609267E+00  0.88000000000E+00 0. -1.
        -11    1    4    4    0    0 -0.45328209420E-01 -0.76286091935E-01 -0.11735254734E-01  0.89510846922E-01  0.51100000000E-03 0. -1.
         11    1    4    4    0    0 -0.18746467997E-01 -0.33100810370E-01 -0.18413676404E-01  0.42266042034E-01  0.51100000000E-03 0.  1.
</event>
<event>
 8    1  0.1197213E+005  0.1043930E+01  0.7957747E-01            NaN
         13   -1    0    0    0    0  0.00000000000E+00  0.00000000000E+00  0.74505805969E-08  0.10566000000E+00  0.10566000000E+00 0.  1.
     999900   -1    0    0    0    0 -0.00000000000E+00 -0.00000000000E+00 -0.74505805969E-08  0.93827000000E+00  0.93827000000E+00 0. -1.
     999902    2    1    2    0    0 -0.68074261188E-02  0.78560621243E-02  0.22221830239E-01  0.10193969916E+01  0.10191017407E+01 0.  0.
     999903    2    3    3    0    0 -0.48289922972E-01  0.61103067866E-01  0.10558494705E+00  0.13288390629E+00  0.21081981507E-01 0.  0.
         14    1    1    2    0    0  0.68074261188E-02 -0.78560621243E-02 -0.22221830239E-01  0.24533008410E-01  0.00000000000E+00 0. -1.
     999901    1    3    3    0    0  0.41482496854E-01 -0.53247005742E-01 -0.83363116809E-01  0.88651308530E+00  0.88000000000E+00 0. -1.
        -11    1    4    4    0    0 -0.29870076400E-01  0.44017990546E-01  0.85569098523E-01  0.10075781210E+00  0.51100000000E-03 0. -1.
         11    1    4    4    0    0 -0.18419846573E-01  0.17085077320E-01  0.20015848525E-01  0.32126094191E-01  0.51100000000E-03 0.  1.
</event>
<event>
 7    1  0.1197213E+005  0.1043930E+01  0.7957747E-01            NaN
         13   -1    0    0    0    0  0.00000000000E+00  0.00000000000E+00  0.74505805969E-08  0.10566000000E+00  0.10566000000E+00 0. -1.
     999900   -1    0    0    0    0 -0.00000000000E+00 -0.00000000000E+00 -0.74505805969E-08  0.93827000000E+00  0.93827000000E+00 0.  1.
     999903    2    1    2    0    0 -0.17046212567E-01 -0.66415289403E-01  0.53835387818E-01  0.89418946886E-01  0.19898116776E-01 0.  0.
         14    1    1    2    0    0 -0.28918662632E-01 -0.62783663854E-02  0.56182835419E-01  0.63499747469E-01  0.00000000000E+00 0. -1.
     999901    1    1    2    0    0  0.45964875198E-01  0.72693655789E-01 -0.11001822324E+00  0.89101130565E+00  0.88000000000E+00 0.  1.
        -11    1    3    3    0    0  0.34536904785E-02 -0.20715215462E-01  0.12263269634E-01  0.24324823384E-01  0.51100000000E-03 0.  1.
         11    1    3    3    0    0 -0.20499903045E-01 -0.45700073941E-01  0.41572118184E-01  0.65094123501E-01  0.51100000000E-03 0. -1.
</event>
<event>
 8    1  0.1197213E+005  0.1043930E+01  0.7957747E-01            NaN
         13   -1    0    0    0    0  0.00000000000E+00  0.00000000000E+00  0.74505805969E-08  0.10566000000E+00  0.10566000000E+00 0.  1.
     999900   -1    0    0    0    0 -0.00000000000E+00 -0.00000000000E+00 -0.74505805969E-08  0.93827000000E+00  0.93827000000E+00 0. -1.
     999902    2    1    2    0    0 -0.76282376470E-02 -0.51582183809E-02  0.25266176079E-01  0.10170380518E+01  0.10166824587E+01 0.  0.
     999903    2    3    3    0    0  0.69180312877E-01  0.94499620320E-01  0.47236055910E-01  0.12781709279E+00  0.19745133620E-01 0.  0.
         14    1    1    2    0    0  0.76282376470E-02  0.51582183809E-02 -0.25266176079E-01  0.26891948239E-01  0.00000000000E+00 0. -1.
     999901    1    3    3    0    0 -0.76808550524E-01 -0.99657838701E-01 -0.21969879831E-01  0.88922095897E+00  0.88000000000E+00 0.  1.
        -11    1    4    4    0    0  0.11881596912E-01  0.13367991383E-01  0.14495366229E-03  0.17892950325E-01  0.51100000000E-03 0. -1.
         11    1    4    4    0    0  0.57298715965E-01  0.81131628937E-01  0.47091102248E-01  0.10992414247E+00  0.51100000000E-03 0.  1.
</event>
<event>
 8    1  0.1197213E+005  0.1043930E+01  0.7957747E-01            NaN
         13   -1    0    0    0    0  0.00000000000E+00  0.00000000000E+00  0.74505805969E-08  0.10566000000E+00  0.10566000000E+00 0.  1.
     999900   -1    0    0    0    0 -0.00000000000E+00 -0.00000000000E+00 -0.74505805969E-08  0.93827000000E+00  0.93827000000E+00 0. -1.
     999902    2    1    2    0    0  0.20384134206E-01  0.12617377651E-01  0.48810093783E-03  0.10199518977E+01  0.10196700075E+01 0.  0.
     999903    2    3    3    0    0  0.71494290889E-01 -0.10677808066E+00 -0.57072686743E-02  0.13039812971E+00  0.21403438453E-01 0.  0.
         14    1    1    2    0    0 -0.20384134206E-01 -0.12617377651E-01 -0.48810093783E-03  0.23978102273E-01  0.00000000000E+00 0. -1.
     999901    1    3    3    0    0 -0.51110156684E-01  0.11939545831E+00  0.61953696121E-02  0.88955376801E+00  0.88000000000E+00 0. -1.
        -11    1    4    4    0    0  0.74127536687E-02 -0.20476483498E-01 -0.70553072767E-02  0.22897025466E-01  0.51100000000E-03 0. -1.
         11    1    4    4    0    0  0.64081537221E-01 -0.86301597163E-01  0.13480386024E-02  0.10750110425E+00  0.51100000000E-03 0.  1.
</event>
<event>
 8    1  0.1197213E+005  0.1043930E+01  0.7957747E-01            NaN
         13   -1    0    0    0    0  0.00000000000E+00  0.00000000000E+00  0.74505805969E-08  0.10566000000E+00  0.10566000000E+00 0. -1.
     999900   -1    0    0    0    0 -0.00000000000E+00 -0.00000000000E+00 -0.74505805969E-08  0.93827000000E+00  0.93827000000E+00 0.  1.
     999902    2    1    2    0    0 -0.24650766918E-02 -0.23778244329E-01 -0.12855027952E-02  0.10199897823E+01  0.10197087927E+01 0.  0.
     999903    2    3    3    0    0  0.37129625520E-01 -0.10810078641E+00 -0.64536588296E-01  0.13281520457E+00  0.20261249252E-01 0.  0.
         14    1    1    2    0    0  0.24650766918E-02  0.23778244329E-01  0.12855027952E-02  0.23940217708E-01  0.00000000000E+00 0. -1.
     999901    1    3    3    0    0 -0.39594702211E-01  0.84322542081E-01  0.63251085501E-01  0.88717457773E+00  0.88000000000E+00 0. -1.
        -11    1    4    4    0    0  0.23542123149E-01 -0.43342300268E-01 -0.21021459242E-01  0.53618554854E-01  0.51100000000E-03 0. -1.
         11    1    4    4    0    0  0.13587502370E-01 -0.64758486142E-01 -0.43515129054E-01  0.79196649712E-01  0.51100000000E-03 0.  1.
</event>
<event>
 8    1  0.1197213E+005  0.1043930E+01  0.7957747E-01            NaN
         13   -1    0    0    0    0  0.00000000000E+00  0.00000000000E+00  0.74505805969E-08  0.10566000000E+00  0.10566000000E+00 0. -1.
     999900   -1    0    0    0    0 -0.00000000000E+00 -0.00000000000E+00 -0.74505805969E-08  0.93827000000E+00  0.93827000000E+00 0. -1.
     999902    2    1    2    0    0  0.10144905004E-01  0.16951806556E-01  0.11869821367E-01  0.10208827550E+01  0.10206225668E+01 0.  0.
     999903    2    3    3    0    0  0.12454248262E+00 -0.29843726637E-01 -0.21878336408E-01  0.13160463998E+00  0.20967633720E-01 0.  0.
         14    1    1    2    0    0 -0.10144905004E-01 -0.16951806556E-01 -0.11869821367E-01  0.23047245005E-01  0.00000000000E+00 0.  1.
     999901    1    3    3    0    0 -0.11439757762E+00  0.46795533193E-01  0.33748157775E-01  0.88927811501E+00  0.88000000000E+00 0.  1.
        -11    1    4    4    0    0  0.59171841914E-01 -0.42037239644E-02 -0.13916996989E-01  0.60933751705E-01  0.51100000000E-03 0.  1.
         11    1    4    4    0    0  0.65370640705E-01 -0.25640002672E-01 -0.79613394186E-02  0.70670888275E-01  0.51100000000E-03 0. -1.
</event>
<event>
 8    1  0.1197213E+005  0.1043930E+01  0.7957747E-01            NaN
         13   -1    0    0    0    0  0.00000000000E+00  0.00000000000E+00  0.74505805969E-08  0.10566000000E+00  0.10566000000E+00 0. -1.
     999900   -1    0    0    0    0 -0.00000000000E+00 -0.00000000000E+00 -0.74505805969E-08  0.93827000000E+00  0.93827000000E+00 0. -1.
     999902    2    1    2    0    0 -0.82181372214E-02 -0.10892868452E-01 -0.17853321615E-01  0.10214592756E+01  0.10212120829E+01 0.  0.
     999903    2    3    3    0    0 -0.99677123378E-02  0.24483630924E-01  0.12475902629E+00  0.12927496757E+00  0.21175436839E-01 0.  0.
         14    1    1    2    0    0  0.82181372214E-02  0.10892868452E-01  0.17853321615E-01  0.22470724403E-01  0.00000000000E+00 0. -1.
     999901    1    3    3    0    0  0.17495751164E-02 -0.35376499376E-01 -0.14261234791E+00  0.89218430803E+00  0.88000000000E+00 0. -1.
        -11    1    4    4    0    0 -0.10060062391E-01  0.27667958733E-01  0.98162285666E-01  0.10248324860E+00  0.51100000000E-03 0.  1.
         11    1    4    4    0    0  0.92350052974E-04 -0.31843278090E-02  0.26596740626E-01  0.26791718964E-01  0.51100000000E-03 0. -1.
</event>
<event>
 8    1  0.1197213E+005  0.1043930E+01  0.7957747E-01            NaN
         13   -1    0    0    0    0  0.00000000000E+00  0.00000000000E+00  0.74505805969E-08  0.10566000000E+00  0.10566000000E+00 0. -1.
     999900   -1    0    0    0    0 -0.00000000000E+00 -0.00000000000E+00 -0.74505805969E-08  0.93827000000E+00  0.93827000000E+00 0. -1.
     999902    2    1    2    0    0 -0.14244173354E-02  0.14275300751E-03  0.23783643531E-01  0.10201033124E+01  0.10198250129E+01 0.  0.
     999903    2    3    3    0    0 -0.11606707455E+00 -0.55713788788E-01 -0.47947329443E-02  0.13045191115E+00  0.20472410749E-01 0.  0.
         14    1    1    2    0    0  0.14244173354E-02 -0.14275300751E-03 -0.23783643531E-01  0.23826687616E-01  0.00000000000E+00 0.  1.
     999901    1    3    3    0    0  0.11464265722E+00  0.55856541796E-01  0.28578376475E-01  0.88965140123E+00  0.88000000000E+00 0.  1.
        -11    1    4    4    0    0 -0.90178040743E-01 -0.52003884140E-01 -0.59334995604E-02  0.10426864599E+00  0.51100000000E-03 0.  1.
         11    1    4    4    0    0 -0.25889033812E-01 -0.37099046483E-02  0.11387666162E-02  0.26183265163E-01  0.51100000000E-03 0. -1.
</event>
<event>
 8    1  0.1197213E+005  0.1043930E+01  0.7957747E-01            NaN
         13   -1    0    0    0    0  0.00000000000E+00  0.00000000000E+00  0.74505805969E-08  0.10566000000E+00  0.10566000000E+00 0.  1.
     999900   -1    0    0    0    0 -0.00000000000E+00 -0.00000000000E+00 -0.74505805969E-08  0.93827000000E+00  0.93827000000E+00 0. -1.
     999902    2    1    2    0    0  0.16119703298E-01  0.78697912231E-02  0.14963864870E-01  0.10205698694E+01  0.10203024859E+01 0.  0.
     999903    2    3    3    0    0  0.76784073119E-01  0.45200433175E-01  0.98448460061E-01  0.13375341704E+00  0.16093608613E-01 0.  0.
         14    1    1    2    0    0 -0.16119703298E-01 -0.78697912231E-02 -0.14963864870E-01  0.23360130568E-01  0.00000000000E+00 0. -1.
     999901    1    3    3    0    0 -0.60664369821E-01 -0.37330641952E-01 -0.83484595191E-01  0.88681645239E+00  0.88000000000E+00 0. -1.
        -11    1    4    4    0    0  0.60077191052E-01  0.37075480394E-01  0.67628834850E-01  0.97763902108E-01  0.51100000000E-03 0. -1.
         11    1    4    4    0    0  0.16706882067E-01  0.81249527808E-02  0.30819625211E-01  0.35989514934E-01  0.51100000000E-03 0.  1.
</event>
<event>
 8    1  0.1197213E+005  0.1043930E+01  0.7957747E-01            NaN
         13   -1    0    0    0    0  0.00000000000E+00  0.00000000000E+00  0.74505805969E-08  0.10566000000E+00  0.10566000000E+00 0. -1.
     999900   -1    0    0    0    0 -0.00000000000E+00 -0.00000000000E+00 -0.74505805969E-08  0.93827000000E+00  0.93827000000E+00 0. -1.
     999902    2    1    2    0    0 -0.20573352971E-01  0.12505362050E-01  0.72386442643E-02  0.10187894968E+01  0.10184792555E+01 0.  0.
     999903    2    3    3    0    0  0.52038635409E-01 -0.41566742395E-01  0.10809993775E+00  0.12841356837E+00  0.19199852855E-01 0.  0.
         14    1    1    2    0    0  0.20573352971E-01 -0.12505362050E-01 -0.72386442643E-02  0.25140503242E-01  0.00000000000E+00 0. -1.
     999901    1    3    3    0    0 -0.72611988379E-01  0.54072104445E-01 -0.10086129349E+00  0.89037592839E+00  0.88000000000E+00 0. -1.
        -11    1    4    4    0    0  0.16163126935E-01 -0.26603924509E-02  0.25839718569E-01  0.30598636195E-01  0.51100000000E-03 0. -1.
         11    1    4    4    0    0  0.35875508474E-01 -0.38906349944E-01  0.82260219185E-01  0.97814932171E-01  0.51100000000E-03 0.  1.
</event>
<event>
 8    1  0.1197213E+005  0.1043930E+01  0.7957747E-01            NaN
         13   -1    0    0    0    0  0.00000000000E+00  0.00000000000E+00  0.74505805969E-08  0.10566000000E+00  0.10566000000E+00 0. -1.
     999900   -1    0    0    0    0 -0.00000000000E+00 -0.00000000000E+00 -0.74505805969E-08  0.93827000000E+00  0.93827000000E+00 0.  1.
     999902    2    1    2    0    0 -0.15465708793E-01 -0.16814060972E-01 -0.33940668587E-02  0.10208341024E+01  0.10205728020E+01 0.  0.
     999903    2    3    3    0    0 -0.42619748639E-01  0.11755181584E+00 -0.28972748007E-01  0.12985385592E+00  0.19690896083E-01 0.  0.
         14    1    1    2    0    0  0.15465708793E-01  0.16814060972E-01  0.33940668587E-02  0.23095897572E-01  0.00000000000E+00 0.  1.
     999901    1    3    3    0    0  0.27154039847E-01 -0.13436587682E+00  0.25578681148E-01  0.89098024650E+00  0.88000000000E+00 0.  1.
        -11    1    4    4    0    0 -0.41945771867E-01  0.10428767060E+00 -0.30507088430E-01  0.11647450185E+00  0.51100000000E-03 0.  1.
         11    1    4    4    0    0 -0.67397677281E-03  0.13264145247E-01  0.15343404233E-02  0.13379354071E-01  0.51100000000E-03 0. -1.
</event>
<event>
 8    1  0.1197213E+005  0.1043930E+01  0.7957747E-01            NaN
         13   -1    0    0    0    0  0.00000000000E+00  0.00000000000E+00  0.74505805969E-08  0.10566000000E+00  0.10566000000E+00 0. -1.
     999900   -1    0    0    0    0 -0.00000000000E+00 -0.00000000000E+00 -0.74505805969E-08  0.93827000000E+00  0.93827000000E+00 0. -1.
     999902    2    1    2    0    0 -0.41041013654E-02 -0.16377385733E-01  0.21166577461E-01  0.10168544314E+01  0.10164938998E+01 0.  0.
     999903    2    3    3    0    0 -0.73451839341E-01  0.10066090214E+00  0.40717655359E-03  0.12615918484E+00  0.19702390836E-01 0.  0.
         14    1    1    2    0    0  0.41041013654E-02  0.16377385733E-01 -0.21166577461E-01  0.27075568560E-01  0.00000000000E+00 0.  1.
     999901    1    3    3    0    0  0.69347737975E-01 -0.11703828787E+00  0.20759400907E-01  0.89069524660E+00  0.88000000000E+00 0. -1.
        -11    1    4    4    0    0 -0.28279445461E-01  0.55394675375E-01 -0.55074197305E-03  0.62200173097E-01  0.51100000000E-03 0. -1.
         11    1    4    4    0    0 -0.45172393880E-01  0.45266226764E-01  0.95791852663E-03  0.63959011743E-01  0.51100000000E-03 0.  1.
</event>
<event>
 8    1  0.1197213E+005  0.1043930E+01  0.7957747E-01            NaN
         13   -1    0    0    0    0  0.00000000000E+00  0.00000000000E+00  0.74505805969E-08  0.10566000000E+00  0.10566000000E+00 0.  1.
     999900   -1    0    0    0    0 -0.00000000000E+00 -0.00000000000E+00 -0.74505805969E-08  0.93827000000E+00  0.93827000000E+00 0.  1.
     999902    2    1    2    0    0 -0.23186921676E-02 -0.16520716762E-01 -0.16990874630E-01  0.10201182332E+01  0.10198402863E+01 0.  0.
     999903    2    3    3    0    0  0.34410413663E-01  0.29350111515E-01  0.11783945740E+00  0.12791176692E+00  0.20731058404E-01 0.  0.
         14    1    1    2    0    0  0.23186921676E-02  0.16520716762E-01  0.16990874630E-01  0.23811766764E-01  0.00000000000E+00 0. -1.
     999901    1    3    3    0    0 -0.36729105830E-01 -0.45870828278E-01 -0.13483033203E+00  0.89220646632E+00  0.88000000000E+00 0.  1.
        -11    1    4    4    0    0  0.14429513366E-01  0.14785808118E-02  0.47290782453E-01  0.49467931867E-01  0.51100000000E-03 0. -1.
         11    1    4    4    0    0  0.19980900296E-01  0.27871530703E-01  0.70548674944E-01  0.78443835053E-01  0.51100000000E-03 0.  1.
</event>
<event>
 8    1  0.1197213E+005  0.1043930E+01  0.7957747E-01            NaN
         13   -1    0    0    0    0  0.00000000000E+00  0.00000000000E+00  0.74505805969E-08  0.10566000000E+00  0.10566000000E+00 0. -1.
     999900   -1    0    0    0    0 -0.00000000000E+00 -0.00000000000E+00 -0.74505805969E-08  0.93827000000E+00  0.93827000000E+00 0. -1.
     999902    2    1    2    0    0 -0.65920582655E-02  0.23767976154E-01  0.65979357077E-02  0.10183975759E+01  0.10180774617E+01 0.  0.
     999903    2    3    3    0    0 -0.11060081216E+00  0.61377809634E-01 -0.26974760656E-01  0.13083943903E+00  0.19787519507E-01 0.  0.
         14    1    1    2    0    0  0.65920582655E-02 -0.23767976154E-01 -0.65979357077E-02  0.25532424057E-01  0.00000000000E+00 0. -1.
     999901    1    3    3    0    0  0.10400875389E+00 -0.37609833481E-01  0.33572696364E-01  0.88755813691E+00  0.88000000000E+00 0.  1.
        -11    1    4    4    0    0 -0.16469528670E-01  0.17275564730E-01 -0.21902636919E-02  0.23973920985E-01  0.51100000000E-03 0.  1.
         11    1    4    4    0    0 -0.94131283486E-01  0.44102244904E-01 -0.24784496964E-01  0.10686551804E+00  0.51100000000E-03 0. -1.
</event>
<event>
 8    1  0.1197213E+005  0.1043930E+01  0.7957747E-01            NaN
         13   -1    0    0    0    0  0.00000000000E+00  0.00000000000E+00  0.74505805969E-08  0.10566000000E+00  0.10566000000E+00 0. -1.
     999900   -1    0    0    0    0 -0.00000000000E+00 -0.00000000000E+00 -0.74505805969E-08  0.93827000000E+00  0.93827000000E+00 0.  1.
     999902    2    1    2    0    0  0.14545645948E-01  0.10387508132E-01 -0.16623387905E-01  0.10195207156E+01  0.10192284711E+01 0.  0.
     999903    2    3    3    0    0  0.97187129628E-02 -0.99572422973E-01  0.76875785395E-01  0.12774911861E+00  0.20020742405E-01 0.  0.
         14    1    1    2    0    0 -0.14545645948E-01 -0.10387508132E-01  0.16623387905E-01  0.24409284436E-01  0.00000000000E+00 0. -1.
     999901    1    3    3    0    0  0.48269329850E-02  0.10995993110E+00 -0.93499173301E-01  0.89177159696E+00  0.88000000000E+00 0.  1.
        -11    1    4    4    0    0  0.18588028333E-02 -0.84647803374E-01  0.68500668923E-01  0.10890963469E+00  0.51100000000E-03 0.  1.
         11    1    4    4    0    0  0.78599101295E-02 -0.14924619598E-01  0.83751164726E-02  0.18839483919E-01  0.51100000000E-03 0. -1.
</event>
<event>
 8    1  0.1197213E+005  0.1043930E+01  0.7957747E-01            NaN
         13   -1    0    0    0    0  0.00000000000E+00  0.00000000000E+00  0.74505805969E-08  0.10566000000E+00  0.10566000000E+00 0. -1.
     999900   -1    0    0    0    0 -0.00000000000E+00 -0.00000000000E+00 -0.74505805969E-08  0.93827000000E+00  0.93827000000E+00 0.  1.
     999902    2    1    2    0    0 -0.17637483471E-01  0.10845033517E-01 -0.11153630833E-01  0.10204119419E+01  0.10201408884E+01 0.  0.
     999903    2    3    3    0    0 -0.78265492591E-01  0.77558780677E-01  0.70114476190E-01  0.13208149396E+00  0.19713687752E-01 0.  0.
         14    1    1    2    0    0  0.17637483471E-01 -0.10845033517E-01  0.11153630833E-01  0.23518058082E-01  0.00000000000E+00 0.  1.
     999901    1    3    3    0    0  0.60628009120E-01 -0.66713747160E-01 -0.81268107023E-01  0.88833044796E+00  0.88000000000E+00 0.  1.
        -11    1    4    4    0    0 -0.23442291662E-01  0.15846269453E-01  0.10203810432E-01  0.30083619501E-01  0.51100000000E-03 0. -1.
         11    1    4    4    0    0 -0.54823200928E-01  0.61712511224E-01  0.59910665757E-01  0.10199787446E+00  0.51100000000E-03 0.  1.
</event>
<event>
 8    1  0.1197213E+005  0.1043930E+01  0.7957747E-01            NaN
         13   -1    0    0    0    0  0.00000000000E+00  0.00000000000E+00  0.74505805969E-08  0.10566000000E+00  0.10566000000E+00 0. -1.
     999900   -1    0    0    0    0 -0.00000000000E+00 -0.00000000000E+00 -0.74505805969E-08  0.93827000000E+00  0.93827000000E+00 0. -1.
     999902    2    1    2    0    0 -0.13277633015E-01 -0.17747313824E-01 -0.76802899636E-02  0.10204726016E+01  0.10202029607E+01 0.  0.
     999903    2    3    3    0    0 -0.24242787673E-01  0.10391734064E+00  0.69162675600E-01  0.12871738623E+00  0.19954031675E-01 0.  0.
         14    1    1    2    0    0  0.13277633015E-01  0.17747313824E-01  0.76802899636E-02  0.23457398414E-01  0.00000000000E+00 0. -1.
     999901    1    3    3    0    0  0.10965154658E-01 -0.12166465447E+00 -0.76842965563E-01  0.89175521536E+00  0.88000000000E+00 0. -1.
        -11    1    4    4    0    0 -0.24430911665E-01  0.87245451286E-01  0.50654964450E-01  0.10380185335E+00  0.51100000000E-03 0. -1.
         11    1    4    4    0    0  0.18812399233E-03  0.16671889359E-01  0.18507711150E-01  0.24915532875E-01  0.51100000000E-03 0.  1.
</event>
<event>
 8    1  0.1197213E+005  0.1043930E+01  0.7957747E-01            NaN
         13   -1    0    0    0    0  0.00000000000E+00  0.00000000000E+00  0.74505805969E-08  0.10566000000E+00  0.10566000000E+00 0.  1.
     999900   -1    0    0    0    0 -0.00000000000E+00 -0.00000000000E+00 -0.74505805969E-08  0.93827000000E+00  0.93827000000E+00 0. -1.
     999902    2    1    2    0    0 -0.12266194732E-01 -0.39262110905E-02  0.19906459514E-01  0.10202204703E+01  0.10199449330E+01 0.  0.
     999903    2    3    3    0    0  0.22981067460E-01  0.29815718027E-01 -0.12041893376E+00  0.12776761260E+00  0.20167714752E-01 0.  0.
         14    1    1    2    0    0  0.12266194732E-01  0.39262110905E-02 -0.19906459514E-01  0.23709529669E-01  0.00000000000E+00 0. -1.
     999901    1    3    3    0    0 -0.35247262192E-01 -0.33741929117E-01  0.14032539328E+00  0.89245285773E+00  0.88000000000E+00 0.  1.
        -11    1    4    4    0    0  0.25240067778E-01  0.20918666580E-01 -0.10268875156E+00  0.10779560497E+00  0.51100000000E-03 0.  1.
         11    1    4    4    0    0 -0.22590003180E-02  0.88970514465E-02 -0.17730182198E-01  0.19972007627E-01  0.51100000000E-03 0. -1.
</event>
<event>
 8    1  0.1197213E+005  0.1043930E+01  0.7957747E-01            NaN
         13   -1    0    0    0    0  0.00000000000E+00  0.00000000000E+00  0.74505805969E-08  0.10566000000E+00  0.10566000000E+00 0. -1.
     999900   -1    0    0    0    0 -0.00000000000E+00 -0.00000000000E+00 -0.74505805969E-08  0.93827000000E+00  0.93827000000E+00 0. -1.
     999902    2    1    2    0    0 -0.15410871583E-01 -0.17216140490E-01 -0.46145019606E-02  0.10203676554E+01  0.10200955681E+01 0.  0.
     999903    2    3    3    0    0  0.10654554851E+00  0.57419931980E-02  0.68853887813E-01  0.12862887714E+00  0.20484281120E-01 0.  0.
         14    1    1    2    0    0  0.15410871583E-01  0.17216140490E-01  0.46145019606E-02  0.23562344634E-01  0.00000000000E+00 0. -1.
     999901    1    3    3    0    0 -0.12195642009E+00 -0.22958133688E-01 -0.73468389774E-01  0.89173877823E+00  0.88000000000E+00 0. -1.
        -11    1    4    4    0    0  0.58311244307E-01 -0.56953895737E-03  0.48678489946E-01  0.75963031085E-01  0.51100000000E-03 0. -1.
         11    1    4    4    0    0  0.48234304203E-01  0.63115321553E-02  0.20175397867E-01  0.52665846050E-01  0.51100000000E-03 0.  1.
</event>
<event>
 8    1  0.1197213E+005  0.1043930E+01  0.7957747E-01            NaN
         13   -1    0    0    0    0  0.00000000000E+00  0.00000000000E+00  0.74505805969E-08  0.10566000000E+00  0.10566000000E+00 0.  1.
     999900   -1    0    0    0    0 -0.00000000000E+00 -0.00000000000E+00 -0.74505805969E-08  0.93827000000E+00  0.93827000000E+00 0. -1.
     999902    2    1    2    0    0 -0.54883883475E-02 -0.21893666815E-01 -0.68833352310E-02  0.10203326409E+01  0.10200597349E+01 0.  0.
     999903    2    3    3    0    0 -0.12987686209E+00 -0.78252080428E-03  0.15343738741E-03  0.13130638196E+00  0.19306236191E-01 0.  0.
         14    1    1    2    0    0  0.54883883475E-02  0.21893666815E-01  0.68833352310E-02  0.23597359114E-01  0.00000000000E+00 0.  1.
     999901    1    3    3    0    0  0.12438847374E+00 -0.21111146011E-01 -0.70367726185E-02  0.88902625892E+00  0.88000000000E+00 0. -1.
        -11    1    4    4    0    0 -0.76868690650E-01  0.35443959841E-02 -0.85000521188E-02  0.77420090107E-01  0.51100000000E-03 0.  1.
         11    1    4    4    0    0 -0.53008171440E-01 -0.43269167883E-02  0.86534895062E-02  0.53886291856E-01  0.51100000000E-03 0. -1.
</event>
<event>
 8    1  0.1197213E+005  0.1043930E+01  0.7957747E-01            NaN
         13   -1    0    0    0    0  0.00000000000E+00  0.00000000000E+00  0.74505805969E-08  0.10566000000E+00  0.10566000000E+00 0.  1.
     999900   -1    0    0    0    0 -0.00000000000E+00 -0.00000000000E+00 -0.74505805969E-08  0.93827000000E+00  0.93827000000E+00 0.  1.
     999902    2    1    2    0    0  0.11896306827E-01 -0.16150866471E-01  0.12769823435E-01  0.10201509968E+01  0.10198738232E+01 0.  0.
     999903    2    3    3    0    0 -0.70898769876E-02  0.99510833779E-01  0.80450482808E-01  0.12980343782E+00  0.20590771984E-01 0.  0.
         14    1    1    2    0    0 -0.11896306827E-01  0.16150866471E-01 -0.12769823435E-01  0.23779003226E-01  0.00000000000E+00 0. -1.
     999901    1    3    3    0    0  0.18986183814E-01 -0.11566170025E+00 -0.67680659373E-01  0.89034755895E+00  0.88000000000E+00 0.  1.
        -11    1    4    4    0    0 -0.42538123381E-02  0.23802416375E-01  0.31049757946E-01  0.39357318687E-01  0.51100000000E-03 0. -1.
         11    1    4    4    0    0 -0.28360646494E-02  0.75708417404E-01  0.49400724862E-01  0.90446119134E-01  0.51100000000E-03 0.  1.
</event>
<event>
 8    1  0.1197213E+005  0.1043930E+01  0.7957747E-01            NaN
         13   -1    0    0    0    0  0.00000000000E+00  0.00000000000E+00  0.74505805969E-08  0.10566000000E+00  0.10566000000E+00 0. -1.
     999900   -1    0    0    0    0 -0.00000000000E+00 -0.00000000000E+00 -0.74505805969E-08  0.93827000000E+00  0.93827000000E+00 0. -1.
     999902    2    1    2    0    0  0.28687493531E-04  0.78019570720E-02 -0.20487812676E-01  0.10220069111E+01  0.10217717478E+01 0.  0.
     999903    2    3    3    0    0  0.12424495468E+00  0.18958343324E-02  0.37966581701E-01  0.13134340591E+00  0.19215254299E-01 0.  0.
         14    1    1    2    0    0 -0.28687493531E-04 -0.78019570720E-02  0.20487812676E-01  0.21923088865E-01  0.00000000000E+00 0. -1.
     999901    1    3    3    0    0 -0.12421626719E+00  0.59061227396E-02 -0.58454394377E-01  0.89066350523E+00  0.88000000000E+00 0. -1.
        -11    1    4    4    0    0  0.10248867140E-01  0.20091868563E-02  0.88187343891E-02  0.13678717290E-01  0.51100000000E-03 0.  1.
         11    1    4    4    0    0  0.11399608754E+00 -0.11335252395E-03  0.29147847311E-01  0.11766468862E+00  0.51100000000E-03 0. -1.
</event>
<event>
 8    1  0.1197213E+005  0.1043930E+01  0.7957747E-01            NaN
         13   -1    0    0    0    0  0.00000000000E+00  0.00000000000E+00  0.74505805969E-08  0.10566000000E+00  0.10566000000E+00 0. -1.
     999900   -1    0    0    0    0 -0.00000000000E+00 -0.00000000000E+00 -0.74505805969E-08  0.93827000000E+00  0.93827000000E+00 0. -1.
     999902    2    1    2    0    0 -0.88279759645E-02  0.58856690556E-05 -0.24425741092E-01  0.10179578992E+01  0.10176265201E+01 0.  0.
     999903    2    3    3    0    0 -0.24270324231E-01  0.12345797419E+00  0.14968824183E-01  0.12833392463E+00  0.20361986271E-01 0.  0.
         14    1    1    2    0    0  0.88279759645E-02 -0.58856690556E-05  0.24425741092E-01  0.25972100842E-01  0.00000000000E+00 0.  1.
     999901    1    3    3    0    0  0.15442348266E-01 -0.12345208852E+00 -0.39394565275E-01  0.88962397453E+00  0.88000000000E+00 0.  1.
        -11    1    4    4    0    0 -0.20943186396E-01  0.69282069810E-01  0.14466193270E-02  0.72394586000E-01  0.51100000000E-03 0. -1.
         11    1    4    4    0    0 -0.33271378345E-02  0.54175904378E-01  0.13522204856E-01  0.55939338631E-01  0.51100000000E-03 0.  1.
</event>
<event>
 8    1  0.1197213E+005  0.1043930E+01  0.7957747E-01            NaN
         13   -1    0    0    0    0  0.00000000000E+00  0.00000000000E+00  0.74505805969E-08  0.10566000000E+00  0.10566000000E+00 0. -1.
     999900   -1    0    0    0    0 -0.00000000000E+00 -0.00000000000E+00 -0.74505805969E-08  0.93827000000E+00  0.93827000000E+00 0.  1.
     999902    2    1    2    0    0  0.12934754518E-01  0.11019067633E-01 -0.15367369593E-01  0.10210196579E+01  0.10207625865E+01 0.  0.
     999903    2    3    3    0    0 -0.10789763323E+00 -0.49619083624E-04 -0.71322155851E-01  0.13093319029E+00  0.20365379570E-01 0.  0.
         14    1    1    2    0    0 -0.12934754518E-01 -0.11019067633E-01  0.15367369593E-01  0.22910342078E-01  0.00000000000E+00 0. -1.
     999901    1    3    3    0    0  0.12083238775E+00  0.11068686716E-01  0.55954786258E-01  0.89008646763E+00  0.88000000000E+00 0. -1.
        -11    1    4    4    0    0 -0.63599359876E-01  0.38448050348E-02 -0.30812012094E-01  0.70776424837E-01  0.51100000000E-03 0. -1.
         11    1    4    4    0    0 -0.44298273357E-01 -0.38944241184E-02 -0.40510143757E-01  0.60156765454E-01  0.51100000000E-03 0.  1.
</event>
<event>
 8    1  0.1197213E+005  0.1043930E+01  0.7957747E-01            NaN
         13   -1    0    0    0    0  0.00000000000E+00  0.00000000000E+00  0.74505805969E-08  0.10566000000E+00  0.10566000000E+00 0. -1.
     999900   -1    0    0    0    0 -0.00000000000E+00 -0.00000000000E+00 -0.74505805969E-08  0.93827000000E+00  0.93827000000E+00 0. -1.
     999902    2    1    2    0    0  0.60389739291E-02  0.81184913576E-02 -0.21121988514E-01  0.10205095494E+01  0.10202407671E+01 0.  0.
     999903    2    3    3    0    0  0.22428406165E-01  0.82491841523E-01 -0.10073259100E+00  0.13363985393E+00  0.20115127311E-01 0.  0.
         14    1    1    2    0    0 -0.60389739291E-02 -0.81184913576E-02  0.21121988514E-01  0.23420450611E-01  0.00000000000E+00 0. -1.
     999901    1    3    3    0    0 -0.16389432236E-01 -0.74373350165E-01  0.79610602486E-01  0.88686969546E+00  0.88000000000E+00 0.  1.
        -11    1    4    4    0    0  0.11646134378E-01  0.40140178444E-01 -0.34057901509E-01  0.53917234236E-01  0.51100000000E-03 0.  1.
         11    1    4    4    0    0  0.10782271787E-01  0.42351663078E-01 -0.66674689491E-01  0.79722619689E-01  0.51100000000E-03 0. -1.
</event>
<event>
 8    1  0.1197213E+005  0.1043930E+01  0.7957747E-01            NaN
         13   -1    0    0    0    0  0.00000000000E+00  0.00000000000E+00  0.74505805969E-08  0.10566000000E+00  0.10566000000E+00 0.  1.
     999900   -1    0    0    0    0 -0.00000000000E+00 -0.00000000000E+00 -0.74505805969E-08  0.93827000000E+00  0.93827000000E+00 0. -1.
     999902    2    1    2    0    0 -0.17119280420E-01  0.15154009762E-02  0.16168235042E-01  0.10203338557E+01  0.10200609781E+01 0.  0.
     999903    2    3    3    0    0 -0.20204179927E-02 -0.32634105698E-01  0.12695951506E+00  0.13260142292E+00  0.19883459275E-01 0.  0.
         14    1    1    2    0    0  0.17119280420E-01 -0.15154009762E-02 -0.16168235042E-01  0.23596144316E-01  0.00000000000E+00 0. -1.
     999901    1    3    3    0    0 -0.15098862428E-01  0.34149506674E-01 -0.11079128002E+00  0.88773243276E+00  0.88000000000E+00 0. -1.
        -11    1    4    4    0    0 -0.74039566375E-02 -0.90489992552E-02  0.65736425123E-01  0.66770065675E-01  0.51100000000E-03 0.  1.
         11    1    4    4    0    0  0.53835386447E-02 -0.23585106443E-01  0.61223089937E-01  0.65831357244E-01  0.51100000000E-03 0. -1.
</event>
<event>
 8    1  0.1197213E+005  0.1043930E+01  0.7957747E-01            NaN
         13   -1    0    0    0    0  0.00000000000E+00  0.00000000000E+00  0.74505805969E-08  0.10566000000E+00  0.10566000000E+00 0.  1.
     999900   -1    0    0    0    0 -0.00000000000E+00 -0.00000000000E+00 -0.74505805969E-08  0.93827000000E+00  0.93827000000E+00 0. -1.
     999902    2    1    2    0    0  0.10058113711E-01  0.89594759974E-02  0.18496597276E-01  0.10210485234E+01  0.10207921067E+01 0.  0.
     999903    2    3    3    0    0  0.70627836983E-01 -0.96333841052E-01  0.52871873726E-01  0.13203950564E+00  0.19248265614E-01 0.  0.
         14    1    1    2    0    0 -0.10058113711E-01 -0.89594759974E-02 -0.18496597276E-01  0.22881476621E-01  0.00000000000E+00 0. -1.
     999901    1    3    3    0    0 -0.60569723271E-01  0.10529331705E+00 -0.34375276450E-01  0.88900901774E+00  0.88000000000E+00 0.  1.
        -11    1    4    4    0    0  0.36183809721E-01 -0.55911122023E-01  0.38876874986E-01  0.77116756814E-01  0.51100000000E-03 0. -1.
         11    1    4    4    0    0  0.34444027262E-01 -0.40422719029E-01  0.13994998741E-01  0.54922748825E-01  0.51100000000E-03 0.  1.
</event>
<event>
 8    1  0.1197213E+005  0.1043930E+01  0.7957747E-01            NaN
         13   -1    0    0    0    0  0.00000000000E+00  0.00000000000E+00  0.74505805969E-08  0.10566000000E+00  0.10566000000E+00 0. -1.
     999900   -1    0    0    0    0 -0.00000000000E+00 -0.00000000000E+00 -0.74505805969E-08  0.93827000000E+00  0.93827000000E+00 0.  1.
     999902    2    1    2    0    0 -0.10273910198E-01  0.87027445147E-02  0.19473793741E-01  0.10202547041E+01  0.10199799712E+01 0.  0.
     999903    2    3    3    0    0  0.90994295925E-01  0.55495551217E-01 -0.69501027826E-01  0.12876082572E+00  0.19729147871E-01 0.  0.
         14    1    1    2    0    0  0.10273910198E-01 -0.87027445147E-02 -0.19473793741E-01  0.23675295890E-01  0.00000000000E+00 0.  1.
     999901    1    3    3    0    0 -0.10126820612E+00 -0.46792806703E-01  0.88974821567E-01  0.89149387839E+00  0.88000000000E+00 0. -1.
        -11    1    4    4    0    0  0.32889972179E-01  0.31369512693E-01 -0.30449929890E-01  0.54710656620E-01  0.51100000000E-03 0. -1.
         11    1    4    4    0    0  0.58104323746E-01  0.24126038525E-01 -0.39051097936E-01  0.74050169101E-01  0.51100000000E-03 0.  1.
</event>
<event>
 8    1  0.1197213E+005  0.1043930E+01  0.7957747E-01            NaN
         13   -1    0    0    0    0  0.00000000000E+00  0.00000000000E+00  0.74505805969E-08  0.10566000000E+00  0.10566000000E+00 0.  1.
     999900   -1    0    0    0    0 -0.00000000000E+00 -0.00000000000E+00 -0.74505805969E-08  0.93827000000E+00  0.93827000000E+00 0.  1.
     999902    2    1    2    0    0  0.18165607878E-02  0.10751502194E-01 -0.19048407551E-01  0.10219815029E+01  0.10217457883E+01 0.  0.
     999903    2    3    3    0    0 -0.80953027421E-01 -0.57821064515E-01  0.80741467498E-01  0.12984304912E+00  0.21056226657E-01 0.  0.
         14    1    1    2    0    0 -0.18165607878E-02 -0.10751502194E-01  0.19048407551E-01  0.21948497050E-01  0.00000000000E+00 0.  1.
     999901    1    3    3    0    0  0.82769588209E-01  0.68572566709E-01 -0.99789875049E-01  0.89213845383E+00  0.88000000000E+00 0.  1.
        -11    1    4    4    0    0 -0.36045361082E-01 -0.19684339113E-01  0.21784625523E-01  0.46492712247E-01  0.51100000000E-03 0.  1.
         11    1    4    4    0    0 -0.44907666338E-01 -0.38136725402E-01  0.58956841975E-01  0.83350336874E-01  0.51100000000E-03 0. -1.
</event>
<event>
 8    1  0.1197213E+005  0.1043930E+01  0.7957747E-01            NaN
         13   -1    0    0    0    0  0.00000000000E+00  0.00000000000E+00  0.74505805969E-08  0.10566000000E+00  0.10566000000E+00 0. -1.
     999900   -1    0    0    0    0 -0.00000000000E+00 -0.00000000000E+00 -0.74505805969E-08  0.93827000000E+00  0.93827000000E+00 0. -1.
     999902    2    1    2    0    0  0.64004177813E-02  0.19263199857E-01 -0.13795136571E-01  0.10193873431E+01  0.10190918571E+01 0.  0.
     999903    2    3    3    0    0 -0.99112702059E-01  0.16413103738E-01 -0.81023047686E-01  0.13053373670E+00  0.19534699326E-01 0.  0.
         14    1    1    2    0    0 -0.64004177813E-02 -0.19263199857E-01  0.13795136571E-01  0.24542656937E-01  0.00000000000E+00 0. -1.
     999901    1    3    3    0    0  0.10551311984E+00  0.28500961193E-02  0.67227911115E-01  0.88885360636E+00  0.88000000000E+00 0.  1.
        -11    1    4    4    0    0 -0.91537778986E-02  0.42643526962E-02 -0.22841532750E-02  0.10366042201E-01  0.51100000000E-03 0.  1.
         11    1    4    4    0    0 -0.89958924160E-01  0.12148751042E-01 -0.78738894411E-01  0.12016769450E+00  0.51100000000E-03 0. -1.
</event>
<event>
 8    1  0.1197213E+005  0.1043930E+01  0.7957747E-01            NaN
         13   -1    0    0    0    0  0.00000000000E+00  0.00000000000E+00  0.74505805969E-08  0.10566000000E+00  0.10566000000E+00 0. -1.
     999900   -1    0    0    0    0 -0.00000000000E+00 -0.00000000000E+00 -0.74505805969E-08  0.93827000000E+00  0.93827000000E+00 0.  1.
     999902    2    1    2    0    0 -0.21059208959E-01 -0.39493100549E-02 -0.66460552222E-02  0.10214966012E+01  0.10212502381E+01 0.  0.
     999903    2    3    3    0    0  0.10188134536E+00 -0.77735600046E-01 -0.50702239011E-02  0.12989058970E+00  0.20572459161E-01 0.  0.
         14    1    1    2    0    0  0.21059208959E-01  0.39493100549E-02  0.66460552222E-02  0.22433398804E-01  0.00000000000E+00 0. -1.
     999901    1    3    3    0    0 -0.12294055432E+00  0.73786289991E-01 -0.15758313211E-02  0.89160601149E+00  0.88000000000E+00 0. -1.
        -11    1    4    4    0    0  0.74590037499E-01 -0.52188202254E-01  0.49952663751E-02  0.91172890465E-01  0.51100000000E-03 0. -1.
         11    1    4    4    0    0  0.27291307860E-01 -0.25547397793E-01 -0.10065490276E-01  0.38717699237E-01  0.51100000000E-03 0.  1.
</event>
<event>
 8    1  0.1197213E+005  0.1043930E+01  0.7957747E-01            NaN
         13   -1    0    0    0    0  0.00000000000E+00  0.00000000000E+00  0.74505805969E-08  0.10566000000E+00  0.10566000000E+00 0. -1.
     999900   -1    0    0    0    0 -0.00000000000E+00 -0.00000000000E+00 -0.74505805969E-08  0.93827000000E+00  0.93827000000E+00 0.  1.
     999902    2    1    2    0    0  0.12015094920E-01 -0.10413577310E-01  0.16969523011E-01  0.10206755422E+01  0.10204106000E+01 0.  0.
     999903    2    3    3    0    0  0.38695121249E-01  0.11223990546E+00 -0.49247733491E-01  0.12930557088E+00  0.14123831670E-01 0.  0.
         14    1    1    2    0    0 -0.12015094920E-01  0.10413577310E-01 -0.16969523011E-01  0.23254457843E-01  0.00000000000E+00 0.  1.
     999901    1    3    3    0    0 -0.26680026329E-01 -0.12265348277E+00  0.66217256502E-01  0.89136997128E+00  0.88000000000E+00 0. -1.
        -11    1    4    4    0    0  0.17138212226E-01  0.66330798274E-01 -0.23544343562E-01  0.72443704714E-01  0.51100000000E-03 0. -1.
         11    1    4    4    0    0  0.21556909022E-01  0.45909107182E-01 -0.25703389929E-01  0.56861866164E-01  0.51100000000E-03 0.  1.
</event>
<event>
 8    1  0.1197213E+005  0.1043930E+01  0.7957747E-01            NaN
         13   -1    0    0    0    0  0.00000000000E+00  0.00000000000E+00  0.74505805969E-08  0.10566000000E+00  0.10566000000E+00 0.  1.
     999900   -1    0    0    0    0 -0.00000000000E+00 -0.00000000000E+00 -0.74505805969E-08  0.93827000000E+00  0.93827000000E+00 0. -1.
     999902    2    1    2    0    0  0.17727306553E-01  0.89782880991E-03  0.15674258544E-01  0.10202499266E+01  0.10199750815E+01 0.  0.
     999903    2    3    3    0    0 -0.12014900708E+00 -0.13945567792E-01  0.39340150890E-01  0.12907638643E+00  0.21972785412E-01 0.  0.
         14    1    1    2    0    0 -0.17727306553E-01 -0.89782880991E-03 -0.15674258544E-01  0.23680073376E-01  0.00000000000E+00 0. -1.
     999901    1    3    3    0    0  0.13787631363E+00  0.14843396602E-01 -0.23665892346E-01  0.89117354019E+00  0.88000000000E+00 0. -1.
        -11    1    4    4    0    0 -0.20492504211E-01  0.45624019332E-02  0.11581512929E-01  0.23982301870E-01  0.51100000000E-03 0.  1.
         11    1    4    4    0    0 -0.99656502866E-01 -0.18507969726E-01  0.27758637961E-01  0.10509408456E+00  0.51100000000E-03 0. -1.
</event>
<event>
 8    1  0.1197213E+005  0.1043930E+01  0.7957747E-01            NaN
         13   -1    0    0    0    0  0.00000000000E+00  0.00000000000E+00  0.74505805969E-08  0.10566000000E+00  0.10566000000E+00 0. -1.
     999900   -1    0    0    0    0 -0.00000000000E+00 -0.00000000000E+00 -0.74505805969E-08  0.93827000000E+00  0.93827000000E+00 0.  1.
     999902    2    1    2    0    0 -0.13110238049E-01  0.19134519399E-01 -0.26443920013E-02  0.10205847439E+01  0.10203177047E+01 0.  0.
     999903    2    3    3    0    0  0.74490764186E-01  0.37230897933E-01 -0.98839923504E-01  0.13083478193E+00  0.20332141406E-01 0.  0.
         14    1    1    2    0    0  0.13110238049E-01 -0.19134519399E-01  0.26443920013E-02  0.23345256121E-01  0.00000000000E+00 0. -1.
     999901    1    3    3    0    0 -0.87601002235E-01 -0.18096378534E-01  0.96195531502E-01  0.88974996195E+00  0.88000000000E+00 0.  1.
        -11    1    4    4    0    0  0.27368399314E-01  0.37141502676E-02 -0.36919002177E-01  0.46109630621E-01  0.51100000000E-03 0.  1.
         11    1    4    4    0    0  0.47122364872E-01  0.33516747665E-01 -0.61920921327E-01  0.84725151308E-01  0.51100000000E-03 0. -1.
</event>
<event>
 8    1  0.1197213E+005  0.1043930E+01  0.7957747E-01            NaN
         13   -1    0    0    0    0  0.00000000000E+00  0.00000000000E+00  0.74505805969E-08  0.10566000000E+00  0.10566000000E+00 0.  1.
     999900   -1    0    0    0    0 -0.00000000000E+00 -0.00000000000E+00 -0.74505805969E-08  0.93827000000E+00  0.93827000000E+00 0. -1.
     999902    2    1    2    0    0  0.69833595348E-02 -0.16444634746E-01 -0.11255130008E-01  0.10228143358E+01  0.10225963496E+01 0.  0.
     999903    2    3    3    0    0 -0.58894068291E-01 -0.30235910682E-01  0.11192205785E+00  0.13168995932E+00  0.20808094028E-01 0.  0.
         14    1    1    2    0    0 -0.69833595348E-02  0.16444634746E-01  0.11255130008E-01  0.21115664181E-01  0.00000000000E+00 0. -1.
     999901    1    3    3    0    0  0.65877427825E-01  0.13791275936E-01 -0.12317718786E+00  0.89112437650E+00  0.88000000000E+00 0. -1.
        -11    1    4    4    0    0 -0.23367185813E-01 -0.12105457531E-01  0.26184963270E-01  0.37127899177E-01  0.51100000000E-03 0. -1.
         11    1    4    4    0    0 -0.35526882478E-01 -0.18130453151E-01  0.85737094579E-01  0.94562060140E-01  0.51100000000E-03 0.  1.
</event>
<event>
 8    1  0.1197213E+005  0.1043930E+01  0.7957747E-01            NaN
         13   -1    0    0    0    0  0.00000000000E+00  0.00000000000E+00  0.74505805969E-08  0.10566000000E+00  0.10566000000E+00 0.  1.
     999900   -1    0    0    0    0 -0.00000000000E+00 -0.00000000000E+00 -0.74505805969E-08  0.93827000000E+00  0.93827000000E+00 0. -1.
     999902    2    1    2    0    0 -0.79880612788E-02 -0.19101945104E-01  0.11255106742E-01  0.10203636923E+01  0.10200915124E+01 0.  0.
     999903    2    3    3    0    0 -0.39239093660E-01 -0.12461417885E+00  0.18626309453E-01  0.13347937454E+00  0.20035068835E-01 0.  0.
         14    1    1    2    0    0  0.79880612788E-02  0.19101945104E-01 -0.11255106742E-01  0.23566307677E-01  0.00000000000E+00 0.  1.
     999901    1    3    3    0    0  0.31251032381E-01  0.10551223374E+00 -0.73712027115E-02  0.88688431778E+00  0.88000000000E+00 0. -1.
        -11    1    4    4    0    0 -0.16528623665E-01 -0.48685431277E-01  0.17182375452E-01  0.54212192043E-01  0.51100000000E-03 0.  1.
         11    1    4    4    0    0 -0.22710469995E-01 -0.75928747571E-01  0.14439340010E-02  0.79267182500E-01  0.51100000000E-03 0. -1.
</event>
<event>
 8    1  0.1197213E+005  0.1043930E+01  0.7957747E-01            NaN
         13   -1    0    0    0    0  0.00000000000E+00  0.00000000000E+00  0.74505805969E-08  0.10566000000E+00  0.10566000000E+00 0. -1.
     999900   -1    0    0    0    0 -0.00000000000E+00 -0.00000000000E+00 -0.74505805969E-08  0.93827000000E+00  0.93827000000E+00 0.  1.
     999902    2    1    2    0    0 -0.76507123982E-02  0.99575089785E-03  0.22621481115E-01  0.10200290308E+01  0.10197489727E+01 0.  0.
     999903    2    3    3    0    0 -0.45035948560E-01 -0.12054907727E+00  0.11060839634E-01  0.13081339354E+00  0.20724021405E-01 0.  0.
         14    1    1    2    0    0  0.76507123982E-02 -0.99575089785E-03 -0.22621481115E-01  0.23900969183E-01  0.00000000000E+00 0.  1.
     999901    1    3    3    0    0  0.37385236162E-01  0.12154482817E+00  0.11560641482E-01  0.88921563727E+00  0.88000000000E+00 0. -1.
        -11    1    4    4    0    0 -0.31592689934E-01 -0.10563378674E+00  0.95196613180E-02  0.11066833346E+00  0.51100000000E-03 0.  1.
         11    1    4    4    0    0 -0.13443258626E-01 -0.14915290530E-01  0.15411783157E-02  0.20145060081E-01  0.51100000000E-03 0. -1.
</event>
<event>
 8    1  0.1197213E+005  0.1043930E+01  0.7957747E-01            NaN
         13   -1    0    0    0    0  0.00000000000E+00  0.00000000000E+00  0.74505805969E-08  0.10566000000E+00  0.10566000000E+00 0. -1.
     999900   -1    0    0    0    0 -0.00000000000E+00 -0.00000000000E+00 -0.74505805969E-08  0.93827000000E+00  0.93827000000E+00 0.  1.
     999902    2    1    2    0    0  0.15999451564E-02 -0.12760163885E-01 -0.19999263108E-01  0.10201528654E+01  0.10198757358E+01 0.  0.
     999903    2    3    3    0    0  0.99600724818E-01 -0.77388256609E-01  0.29547377635E-01  0.13097582292E+00  0.19296943293E-01 0.  0.
         14    1    1    2    0    0 -0.15999451564E-02  0.12760163885E-01  0.19999263108E-01  0.23777134641E-01  0.00000000000E+00 0. -1.
     999901    1    3    3    0    0 -0.98000779662E-01  0.64628092724E-01 -0.49546640743E-01  0.88917704243E+00  0.88000000000E+00 0. -1.
        -11    1    4    4    0    0  0.68092173113E-01 -0.59659635611E-01  0.28086924811E-01  0.94788990009E-01  0.51100000000E-03 0. -1.
         11    1    4    4    0    0  0.31508551705E-01 -0.17728620997E-01  0.14604528231E-02  0.36186832915E-01  0.51100000000E-03 0.  1.
</event>
<event>
 8    1  0.1197213E+005  0.1043930E+01  0.7957747E-01            NaN
         13   -1    0    0    0    0  0.00000000000E+00  0.00000000000E+00  0.74505805969E-08  0.10566000000E+00  0.10566000000E+00 0. -1.
     999900   -1    0    0    0    0 -0.00000000000E+00 -0.00000000000E+00 -0.74505805969E-08  0.93827000000E+00  0.93827000000E+00 0. -1.
     999902    2    1    2    0    0  0.58171276673E-02  0.23221039819E-01  0.11740184927E-02  0.10199626475E+01  0.10196810131E+01 0.  0.
     999903    2    3    3    0    0  0.12787539273E+00  0.27324603526E-01 -0.13286380106E-02  0.13152507371E+00  0.14082958192E-01 0.  0.
         14    1    1    2    0    0 -0.58171276673E-02 -0.23221039819E-01 -0.11740184927E-02  0.23967352461E-01  0.00000000000E+00 0. -1.
     999901    1    3    3    0    0 -0.12205826506E+00 -0.41035637072E-02  0.25026565033E-02  0.88843757383E+00  0.88000000000E+00 0.  1.
        -11    1    4    4    0    0  0.33836036307E-01  0.10322608087E-01  0.50941855178E-02  0.35744166486E-01  0.51100000000E-03 0. -1.
         11    1    4    4    0    0  0.94039356422E-01  0.17001995439E-01 -0.64228235283E-02  0.95780907222E-01  0.51100000000E-03 0.  1.
</event>
<event>
 8    1  0.1197213E+005  0.1043930E+01  0.7957747E-01            NaN
         13   -1    0    0    0    0  0.00000000000E+00  0.00000000000E+00  0.74505805969E-08  0.10566000000E+00  0.10566000000E+00 0. -1.
     999900   -1    0    0    0    0 -0.00000000000E+00 -0.00000000000E+00 -0.74505805969E-08  0.93827000000E+00  0.93827000000E+00 0.  1.
     999902    2    1    2    0    0 -0.17448418115E-01  0.11449007969E-03  0.15646910758E-01  0.10204931440E+01  0.10202239807E+01 0.  0.
     999903    2    3    3    0    0  0.83296204428E-02 -0.12316673303E+00  0.39870137607E-01  0.13119593162E+00  0.19578506039E-01 0.  0.
         14    1    1    2    0    0  0.17448418115E-01 -0.11449007969E-03 -0.15646910758E-01  0.23436855995E-01  0.00000000000E+00 0.  1.
     999901    1    3    3    0    0 -0.25778038557E-01  0.12328122311E+00 -0.24223226849E-01  0.88929721239E+00  0.88000000000E+00 0.  1.
        -11    1    4    4    0    0  0.14069249234E-01 -0.71925477457E-01  0.26413149301E-01  0.77904644653E-01  0.51100000000E-03 0. -1.
         11    1    4    4    0    0 -0.57396287913E-02 -0.51241255569E-01  0.13456988306E-01  0.53291286964E-01  0.51100000000E-03 0.  1.
</event>
<event>
 8    1  0.1197213E+005  0.1043930E+01  0.7957747E-01            NaN
         13   -1    0    0    0    0  0.00000000000E+00  0.00000000000E+00  0.74505805969E-08  0.10566000000E+00  0.10566000000E+00 0.  1.
     999900   -1    0    0    0    0 -0.00000000000E+00 -0.00000000000E+00 -0.74505805969E-08  0.93827000000E+00  0.93827000000E+00 0. -1.
     999902    2    1    2    0    0  0.87441701364E-02  0.23093240447E-02 -0.21420238076E-01  0.10206787616E+01  0.10204138936E+01 0.  0.
     999903    2    3    3    0    0  0.52924759403E-01 -0.95324002090E-01  0.67530226332E-01  0.12972625108E+00  0.19515973439E-01 0.  0.
         14    1    1    2    0    0 -0.87441701364E-02 -0.23093240447E-02  0.21420238076E-01  0.23251238422E-01  0.00000000000E+00 0.  1.
     999901    1    3    3    0    0 -0.44180589266E-01  0.97633326134E-01 -0.88950464408E-01  0.89095251050E+00  0.88000000000E+00 0. -1.
        -11    1    4    4    0    0  0.37269191553E-01 -0.62326040237E-01  0.55043277971E-01  0.91123825104E-01  0.51100000000E-03 0. -1.
         11    1    4    4    0    0  0.15655567849E-01 -0.32997961852E-01  0.12486948361E-01  0.38602425979E-01  0.51100000000E-03 0.  1.
</event>
<event>
 8    1  0.1197213E+005  0.1043930E+01  0.7957747E-01            NaN
         13   -1    0    0    0    0  0.00000000000E+00  0.00000000000E+00  0.74505805969E-08  0.10566000000E+00  0.10566000000E+00 0.  1.
     999900   -1    0    0    0    0 -0.00000000000E+00 -0.00000000000E+00 -0.74505805969E-08  0.93827000000E+00  0.93827000000E+00 0. -1.
     999902    2    1    2    0    0 -0.18176980214E-01  0.13281451012E-01 -0.87841965102E-02  0.10197647013E+01  0.10194783394E+01 0.  0.
     999903    2    3    3    0    0  0.66758633540E-01  0.85512531251E-01 -0.69817447055E-01  0.13063228989E+00  0.20523427948E-01 0.  0.
         14    1    1    2    0    0  0.18176980214E-01 -0.13281451012E-01  0.87841965102E-02  0.24165298654E-01  0.00000000000E+00 0.  1.
     999901    1    3    3    0    0 -0.84935613754E-01 -0.72231080238E-01  0.61033250545E-01  0.88913241146E+00  0.88000000000E+00 0.  1.
        -11    1    4    4    0    0  0.63236315118E-01  0.70926053747E-01 -0.63808164652E-01  0.11445994779E+00  0.51100000000E-03 0.  1.
         11    1    4    4    0    0  0.35223184215E-02  0.14586477504E-01 -0.60092824031E-02  0.16172342101E-01  0.51100000000E-03 0. -1.
</event>
<event>
 8    1  0.1197213E+005  0.1043930E+01  0.7957747E-01            NaN
         13   -1    0    0    0    0  0.00000000000E+00  0.00000000000E+00  0.74505805969E-08  0.10566000000E+00  0.10566000000E+00 0.  1.
     999900   -1    0    0    0    0 -0.00000000000E+00 -0.00000000000E+00 -0.74505805969E-08  0.93827000000E+00  0.93827000000E+00 0. -1.
     999902    2    1    2    0    0  0.29813654155E-03 -0.78931119887E-02  0.24237888774E-01  0.10184375432E+01  0.10181184430E+01 0.  0.
     999903    2    3    3    0    0 -0.11529292507E+00  0.26970438896E-01 -0.43122094869E-01  0.12764344346E+00  0.20333972725E-01 0.  0.
         14    1    1    2    0    0 -0.29813654155E-03  0.78931119887E-02 -0.24237888774E-01  0.25492456815E-01  0.00000000000E+00 0. -1.
     999901    1    3    3    0    0  0.11559106161E+00 -0.34863550885E-01  0.67359983643E-01  0.89079409972E+00  0.88000000000E+00 0.  1.
        -11    1    4    4    0    0 -0.67630303359E-01  0.20458041060E-01 -0.35008521978E-01  0.78855862867E-01  0.51100000000E-03 0. -1.
         11    1    4    4    0    0 -0.47662621713E-01  0.65123978363E-02 -0.81135728910E-02  0.48787580594E-01  0.51100000000E-03 0.  1.
</event>
<event>
 8    1  0.1197213E+005  0.1043930E+01  0.7957747E-01            NaN
         13   -1    0    0    0    0  0.00000000000E+00  0.00000000000E+00  0.74505805969E-08  0.10566000000E+00  0.10566000000E+00 0.  1.
     999900   -1    0    0    0    0 -0.00000000000E+00 -0.00000000000E+00 -0.74505805969E-08  0.93827000000E+00  0.93827000000E+00 0.  1.
     999902    2    1    2    0    0 -0.93836298267E-02  0.87402604435E-02 -0.21287614440E-01  0.10190782960E+01  0.10187752285E+01 0.  0.
     999903    2    3    3    0    0 -0.11812449232E+00 -0.51024742453E-01 -0.57896700470E-02  0.13023825586E+00  0.19275969006E-01 0.  0.
         14    1    1    2    0    0  0.93836298267E-02 -0.87402604435E-02  0.21287614440E-01  0.24851703964E-01  0.00000000000E+00 0.  1.
     999901    1    3    3    0    0  0.10874086249E+00  0.59765002896E-01 -0.15497944393E-01  0.88884004018E+00  0.88000000000E+00 0. -1.
        -11    1    4    4    0    0 -0.51874972461E-01 -0.20553405309E-01  0.68786702201E-02  0.56223059883E-01  0.51100000000E-03 0.  1.
         11    1    4    4    0    0 -0.66249519858E-01 -0.30471337144E-01 -0.12668340267E-01  0.74015195973E-01  0.51100000000E-03 0. -1.
</event>
<event>
 8    1  0.1197213E+005  0.1043930E+01  0.7957747E-01            NaN
         13   -1    0    0    0    0  0.00000000000E+00  0.00000000000E+00  0.74505805969E-08  0.10566000000E+00  0.10566000000E+00 0. -1.
     999900   -1    0    0    0    0 -0.00000000000E+00 -0.00000000000E+00 -0.74505805969E-08  0.93827000000E+00  0.93827000000E+00 0.  1.
     999902    2    1    2    0    0 -0.34042808828E-02  0.50242192869E-02  0.23443412948E-01  0.10197137757E+01  0.10194261910E+01 0.  0.
     999903    2    3    3    0    0 -0.62536322771E-01 -0.11145941881E+00  0.12414075440E-01  0.13000220301E+00  0.20309352803E-01 0.  0.
         14    1    1    2    0    0  0.34042808828E-02 -0.50242192869E-02 -0.23443412948E-01  0.24216224281E-01  0.00000000000E+00 0.  1.
     999901    1    3    3    0    0  0.59132041888E-01  0.11648363810E+00  0.11029337508E-01  0.88971157271E+00  0.88000000000E+00 0. -1.
        -11    1    4    4    0    0 -0.15614263051E-01 -0.36426547269E-01  0.12314442770E-01  0.41504279036E-01  0.51100000000E-03 0.  1.
         11    1    4    4    0    0 -0.46922059720E-01 -0.75032871544E-01  0.99632669846E-04  0.88497923976E-01  0.51100000000E-03 0. -1.
</event>
<event>
 8    1  0.1197213E+005  0.1043930E+01  0.7957747E-01            NaN
         13   -1    0    0    0    0  0.00000000000E+00  0.00000000000E+00  0.74505805969E-08  0.10566000000E+00  0.10566000000E+00 0. -1.
     999900   -1    0    0    0    0 -0.00000000000E+00 -0.00000000000E+00 -0.74505805969E-08  0.93827000000E+00  0.93827000000E+00 0.  1.
     999902    2    1    2    0    0 -0.16175489797E-01 -0.16750085653E-01  0.35446530061E-02  0.10203763080E+01  0.10201044229E+01 0.  0.
     999903    2    3    3    0    0  0.12237352503E+00  0.32160760513E-01 -0.39196404328E-02  0.12816343207E+00  0.20022677016E-01 0.  0.
         14    1    1    2    0    0  0.16175489797E-01  0.16750085653E-01 -0.35446530061E-02  0.23553691950E-01  0.00000000000E+00 0. -1.
     999901    1    3    3    0    0 -0.13854901483E+00 -0.48910846166E-01  0.74642934389E-02  0.89221287598E+00  0.88000000000E+00 0. -1.
        -11    1    4    4    0    0  0.45093948643E-01  0.10466261771E-01  0.81037746296E-02  0.46999352377E-01  0.51100000000E-03 0. -1.
         11    1    4    4    0    0  0.77279576386E-01  0.21694498742E-01 -0.12023415062E-01  0.81164079696E-01  0.51100000000E-03 0.  1.
</event>
<event>
 8    1  0.1197213E+005  0.1043930E+01  0.7957747E-01            NaN
         13   -1    0    0    0    0  0.00000000000E+00  0.00000000000E+00  0.74505805969E-08  0.10566000000E+00  0.10566000000E+00 0. -1.
     999900   -1    0    0    0    0 -0.00000000000E+00 -0.00000000000E+00 -0.74505805969E-08  0.93827000000E+00  0.93827000000E+00 0. -1.
     999902    2    1    2    0    0 -0.11636253310E-02  0.22674549097E-01 -0.55619574583E-02  0.10205542739E+01  0.10202865291E+01 0.  0.
     999903    2    3    3    0    0 -0.10093350856E+00  0.81856337034E-01 -0.20774432533E-01  0.13281110550E+00  0.17865599178E-01 0.  0.
         14    1    1    2    0    0  0.11636253310E-02 -0.22674549097E-01  0.55619574583E-02  0.23375726116E-01  0.00000000000E+00 0. -1.
     999901    1    3    3    0    0  0.99769883225E-01 -0.59181787937E-01  0.15212475075E-01  0.88774316839E+00  0.88000000000E+00 0.  1.
        -11    1    4    4    0    0 -0.15506254546E-01  0.91305213263E-02 -0.86290981320E-02  0.19963286436E-01  0.51100000000E-03 0.  1.
         11    1    4    4    0    0 -0.85427254009E-01  0.72725815707E-01 -0.12145334401E-01  0.11284781906E+00  0.51100000000E-03 0. -1.
</event>
<event>
 8    1  0.1197213E+005  0.1043930E+01  0.7957747E-01            NaN
         13   -1    0    0    0    0  0.00000000000E+00  0.00000000000E+00  0.74505805969E-08  0.10566000000E+00  0.10566000000E+00 0. -1.
     999900   -1    0    0    0    0 -0.00000000000E+00 -0.00000000000E+00 -0.74505805969E-08  0.93827000000E+00  0.93827000000E+00 0. -1.
     999902    2    1    2    0    0 -0.15362865734E-01  0.17706522133E-01  0.23151550018E-02  0.10203737161E+01  0.10201017704E+01 0.  0.
     999903    2    3    3    0    0  0.10072716205E+00 -0.56709013081E-01 -0.51186215476E-01  0.12803019306E+00  0.20244217479E-01 0.  0.
         14    1    1    2    0    0  0.15362865734E-01 -0.17706522133E-01 -0.23151550018E-02  0.23556283923E-01  0.00000000000E+00 0.  1.
     999901    1    3    3    0    0 -0.11609002778E+00  0.74415535214E-01  0.53501370478E-01  0.89234352302E+00  0.88000000000E+00 0. -1.
        -11    1    4    4    0    0  0.42017812247E-01 -0.14603616238E-01 -0.25943593729E-01  0.51498478908E-01  0.51100000000E-03 0.  1.
         11    1    4    4    0    0  0.58709349799E-01 -0.42105396843E-01 -0.25242621747E-01  0.76531714150E-01  0.51100000000E-03 0. -1.
</event>
<event>
 8    1  0.1197213E+005  0.1043930E+01  0.7957747E-01            NaN
         13   -1    0    0    0    0  0.00000000000E+00  0.00000000000E+00  0.74505805969E-08  0.10566000000E+00  0.10566000000E+00 0.  1.
     999900   -1    0    0    0    0 -0.00000000000E+00 -0.00000000000E+00 -0.74505805969E-08  0.93827000000E+00  0.93827000000E+00 0.  1.
     999902    2    1    2    0    0 -0.12404039467E-01  0.60160450405E-02  0.19085214990E-01  0.10203864568E+01  0.10201148087E+01 0.  0.
     999903    2    3    3    0    0  0.98559617080E-01 -0.66497026575E-01 -0.43855250472E-01  0.12823591976E+00  0.19629453904E-01 0.  0.
         14    1    1    2    0    0  0.12404039467E-01 -0.60160450405E-02 -0.19085214990E-01  0.23543543154E-01  0.00000000000E+00 0. -1.
     999901    1    3    3    0    0 -0.11096365655E+00  0.72513071615E-01  0.62940465462E-01  0.89215053709E+00  0.88000000000E+00 0.  1.
        -11    1    4    4    0    0  0.77911814890E-01 -0.42189307080E-01 -0.32672463407E-01  0.94434842709E-01  0.51100000000E-03 0.  1.
         11    1    4    4    0    0  0.20647802190E-01 -0.24307719495E-01 -0.11182787065E-01  0.33801077052E-01  0.51100000000E-03 0. -1.
</event>
<event>
 8    1  0.1197213E+005  0.1043930E+01  0.7957747E-01            NaN
         13   -1    0    0    0    0  0.00000000000E+00  0.00000000000E+00  0.74505805969E-08  0.10566000000E+00  0.10566000000E+00 0.  1.
     999900   -1    0    0    0    0 -0.00000000000E+00 -0.00000000000E+00 -0.74505805969E-08  0.93827000000E+00  0.93827000000E+00 0.  1.
     999902    2    1    2    0    0  0.10510331518E-01 -0.88299756819E-02 -0.19034263261E-01  0.10204621770E+01  0.10201922936E+01 0.  0.
     999903    2    3    3    0    0  0.28256661065E-01 -0.95591905416E-01 -0.84546004843E-01  0.13359445689E+00  0.27626087326E-01 0.  0.
         14    1    1    2    0    0 -0.10510331518E-01  0.88299756819E-02  0.19034263261E-01  0.23467823015E-01  0.00000000000E+00 0.  1.
     999901    1    3    3    0    0 -0.17746329547E-01  0.86761929735E-01  0.65511741582E-01  0.88686772010E+00  0.88000000000E+00 0. -1.
        -11    1    4    4    0    0  0.19687395754E-01 -0.36396233815E-01 -0.21297520384E-01  0.46541646759E-01  0.51100000000E-03 0. -1.
         11    1    4    4    0    0  0.85692653107E-02 -0.59195671601E-01 -0.63248484459E-01  0.87052810130E-01  0.51100000000E-03 0.  1.
</event>
<event>
 8    1  0.1197213E+005  0.1043930E+01  0.7957747E-01            NaN
         13   -1    0    0    0    0  0.00000000000E+00  0.00000000000E+00  0.74505805969E-08  0.10566000000E+00  0.10566000000E+00 0. -1.
     999900   -1    0    0    0    0 -0.00000000000E+00 -0.00000000000E+00 -0.74505805969E-08  0.93827000000E+00  0.93827000000E+00 0.  1.
     999902    2    1    2    0    0 -0.15796197420E-02 -0.20124252892E-01 -0.13134404138E-01  0.10198469494E+01  0.10195625567E+01 0.  0.
     999903    2    3    3    0    0  0.12555768778E+00 -0.22908554716E-01  0.15681283389E-01  0.13023917566E+00  0.20659268764E-01 0.  0.
         14    1    1    2    0    0  0.15796197420E-02  0.20124252892E-01  0.13134404138E-01  0.24083050576E-01  0.00000000000E+00 0. -1.
     999901    1    3    3    0    0 -0.12713730753E+00  0.27843018246E-02 -0.28815687527E-01  0.88960777377E+00  0.88000000000E+00 0. -1.
        -11    1    4    4    0    0  0.91753755325E-01 -0.80634797489E-02  0.14909062914E-01  0.93307623482E-01  0.51100000000E-03 0.  1.
         11    1    4    4    0    0  0.33803932459E-01 -0.14845074967E-01  0.77222047482E-03  0.36931552174E-01  0.51100000000E-03 0. -1.
</event>
<event>
 8    1  0.1197213E+005  0.1043930E+01  0.7957747E-01            NaN
         13   -1    0    0    0    0  0.00000000000E+00  0.00000000000E+00  0.74505805969E-08  0.10566000000E+00  0.10566000000E+00 0. -1.
     999900   -1    0    0    0    0 -0.00000000000E+00 -0.00000000000E+00 -0.74505805969E-08  0.93827000000E+00  0.93827000000E+00 0.  1.
     999902    2    1    2    0    0 -0.15746078720E-01 -0.17077130128E-01 -0.31017509355E-02  0.10204952346E+01  0.10202261199E+01 0.  0.
     999903    2    3    3    0    0 -0.85752490382E-01  0.85465126540E-01  0.44261331878E-01  0.13051822725E+00  0.20449075367E-01 0.  0.
         14    1    1    2    0    0  0.15746078720E-01  0.17077130128E-01  0.31017509355E-02  0.23434765357E-01  0.00000000000E+00 0. -1.
     999901    1    3    3    0    0  0.70006411662E-01 -0.10254225667E+00 -0.47363082813E-01  0.88997700739E+00  0.88000000000E+00 0.  1.
        -11    1    4    4    0    0 -0.47768384842E-01  0.43943633274E-01  0.34136766014E-01  0.73337857963E-01  0.51100000000E-03 0. -1.
         11    1    4    4    0    0 -0.37984105540E-01  0.41521493267E-01  0.10124565864E-01  0.57180369286E-01  0.51100000000E-03 0.  1.
</event>
<event>
 8    1  0.1197213E+005  0.1043930E+01  0.7957747E-01            NaN
         13   -1    0    0    0    0  0.00000000000E+00  0.00000000000E+00  0.74505805969E-08  0.10566000000E+00  0.10566000000E+00 0.  1.
     999900   -1    0    0    0    0 -0.00000000000E+00 -0.00000000000E+00 -0.74505805969E-08  0.93827000000E+00  0.93827000000E+00 0. -1.
     999902    2    1    2    0    0 -0.13672038409E-01  0.63441209681E-02  0.53112987159E-02  0.10279493117E+01  0.10278250848E+01 0.  0.
     999903    2    3    3    0    0 -0.50182313287E-01 -0.83135286515E-01 -0.94728596119E-01  0.13702420535E+00  0.19297292497E-01 0.  0.
         14    1    1    2    0    0  0.13672038409E-01 -0.63441209681E-02 -0.53112987159E-02  0.15980688319E-01  0.00000000000E+00 0.  1.
     999901    1    3    3    0    0  0.36510274878E-01  0.89479407483E-01  0.10003989484E+00  0.89092510633E+00  0.88000000000E+00 0.  1.
        -11    1    4    4    0    0 -0.27873585823E-01 -0.33702319424E-01 -0.32587566484E-01  0.54543503110E-01  0.51100000000E-03 0.  1.
         11    1    4    4    0    0 -0.22308727464E-01 -0.49432967091E-01 -0.62141029636E-01  0.82480702238E-01  0.51100000000E-03 0. -1.
</event>
<event>
 8    1  0.1197213E+005  0.1043930E+01  0.7957747E-01            NaN
         13   -1    0    0    0    0  0.00000000000E+00  0.00000000000E+00  0.74505805969E-08  0.10566000000E+00  0.10566000000E+00 0. -1.
     999900   -1    0    0    0    0 -0.00000000000E+00 -0.00000000000E+00 -0.74505805969E-08  0.93827000000E+00  0.93827000000E+00 0.  1.
     999902    2    1    2    0    0  0.13299616455E-01  0.15196460011E-01 -0.13657775551E-01  0.10195507665E+01  0.10192592498E+01 0.  0.
     999903    2    3    3    0    0  0.83327520094E-01  0.87489190995E-02 -0.10112127971E+00  0.13242318678E+00  0.17040187754E-01 0.  0.
         14    1    1    2    0    0 -0.13299616455E-01 -0.15196460011E-01  0.13657775551E-01  0.24379233534E-01  0.00000000000E+00 0. -1.
     999901    1    3    3    0    0 -0.70027903638E-01  0.64475409113E-02  0.87463504154E-01  0.88712757968E+00  0.88000000000E+00 0. -1.
        -11    1    4    4    0    0  0.70999377771E-01  0.11894369746E-02 -0.82932849780E-01  0.10918079088E+00  0.51100000000E-03 0.  1.
         11    1    4    4    0    0  0.12328142323E-01  0.75594821249E-02 -0.18188429925E-01  0.23242395902E-01  0.51100000000E-03 0. -1.
</event>
<event>
 8    1  0.1197213E+005  0.1043930E+01  0.7957747E-01            NaN
         13   -1    0    0    0    0  0.00000000000E+00  0.00000000000E+00  0.74505805969E-08  0.10566000000E+00  0.10566000000E+00 0. -1.
     999900   -1    0    0    0    0 -0.00000000000E+00 -0.00000000000E+00 -0.74505805969E-08  0.93827000000E+00  0.93827000000E+00 0.  1.
     999902    2    1    2    0    0  0.15266520540E-01  0.11042256083E-01  0.13859091069E-01  0.10205404195E+01  0.10202723536E+01 0.  0.
     999903    2    3    3    0    0 -0.98790219060E-01  0.62666233347E-01 -0.51261107202E-01  0.12929712218E+00  0.20086824228E-01 0.  0.
         14    1    1    2    0    0 -0.15266520540E-01 -0.11042256083E-01 -0.13859091069E-01  0.23389580459E-01  0.00000000000E+00 0.  1.
     999901    1    3    3    0    0  0.11405673960E+00 -0.51623977265E-01  0.65120198271E-01  0.89124329737E+00  0.88000000000E+00 0.  1.
        -11    1    4    4    0    0 -0.49398783636E-01  0.19551637917E-01 -0.22212097340E-01  0.57585977106E-01  0.51100000000E-03 0.  1.
         11    1    4    4    0    0 -0.49391435423E-01  0.43114595430E-01 -0.29049009862E-01  0.71711145070E-01  0.51100000000E-03 0. -1.
</event>
<event>
 8    1  0.1197213E+005  0.1043930E+01  0.7957747E-01            NaN
         13   -1    0    0    0    0  0.00000000000E+00  0.00000000000E+00  0.74505805969E-08  0.10566000000E+00  0.10566000000E+00 0. -1.
     999900   -1    0    0    0    0 -0.00000000000E+00 -0.00000000000E+00 -0.74505805969E-08  0.93827000000E+00  0.93827000000E+00 0. -1.
     999902    2    1    2    0    0 -0.73152468198E-02 -0.15417880926E-01 -0.17224246761E-01  0.10196833803E+01  0.10193950645E+01 0.  0.
     999903    2    3    3    0    0  0.43806621534E-01  0.91509465249E-01 -0.78051972396E-01  0.12965702400E+00  0.20635676792E-01 0.  0.
         14    1    1    2    0    0  0.73152468198E-02  0.15417880926E-01  0.17224246761E-01  0.24246619657E-01  0.00000000000E+00 0. -1.
     999901    1    3    3    0    0 -0.51121868354E-01 -0.10692734618E+00  0.60827725634E-01  0.89002635635E+00  0.88000000000E+00 0.  1.
        -11    1    4    4    0    0  0.26522932585E-01  0.70964428942E-01 -0.49705434723E-01  0.90610747100E-01  0.51100000000E-03 0.  1.
         11    1    4    4    0    0  0.17283688949E-01  0.20545036307E-01 -0.28346537673E-01  0.39046276897E-01  0.51100000000E-03 0. -1.
</event>
<event>
 8    1  0.1197213E+005  0.1043930E+01  0.7957747E-01            NaN
         13   -1    0    0    0    0  0.00000000000E+00  0.00000000000E+00  0.74505805969E-08  0.10566000000E+00  0.10566000000E+00 0. -1.
     999900   -1    0    0    0    0 -0.00000000000E+00 -0.00000000000E+00 -0.74505805969E-08  0.93827000000E+00  0.93827000000E+00 0.  1.
     999902    2    1    2    0    0 -0.15125889462E-01  0.16089645956E-01 -0.88506853725E-02  0.10201391641E+01  0.10198617114E+01 0.  0.
     999903    2    3    3    0    0  0.10911853761E+00 -0.77565215813E-02 -0.66778812822E-01  0.12920651500E+00  0.16367492176E-01 0.  0.
         14    1    1    2    0    0  0.15125889462E-01 -0.16089645956E-01  0.88506853725E-02  0.23790835852E-01  0.00000000000E+00 0. -1.
     999901    1    3    3    0    0 -0.12424442707E+00  0.23846167537E-01  0.57928127449E-01  0.89093264915E+00  0.88000000000E+00 0. -1.
        -11    1    4    4    0    0  0.35386133895E-01  0.50690626853E-02 -0.22717684426E-01  0.42358330647E-01  0.51100000000E-03 0.  1.
         11    1    4    4    0    0  0.73732403713E-01 -0.12825584267E-01 -0.44061128396E-01  0.86848184355E-01  0.51100000000E-03 0. -1.
</event>
<event>
 8    1  0.1197213E+005  0.1043930E+01  0.7957747E-01            NaN
         13   -1    0    0    0    0  0.00000000000E+00  0.00000000000E+00  0.74505805969E-08  0.10566000000E+00  0.10566000000E+00 0.  1.
     999900   -1    0    0    0    0 -0.00000000000E+00 -0.00000000000E+00 -0.74505805969E-08  0.93827000000E+00  0.93827000000E+00 0. -1.
     999902    2    1    2    0    0  0.16187832169E-01 -0.19896951061E-01  0.38954001805E-02  0.10179856612E+01  0.10176549994E+01 0.  0.
     999903    2    3    3    0    0  0.41663402130E-01 -0.59717761483E-01  0.10677698947E+00  0.13073185142E+00  0.19683530689E-01 0.  0.
         14    1    1    2    0    0 -0.16187832169E-01  0.19896951061E-01 -0.38954001805E-02  0.25944338774E-01  0.00000000000E+00 0.  1.
     999901    1    3    3    0    0 -0.25475569961E-01  0.39820810422E-01 -0.10288158929E+00  0.88725380981E+00  0.88000000000E+00 0. -1.
        -11    1    4    4    0    0  0.35939113445E-01 -0.41317003476E-01  0.67026584121E-01  0.86553675552E-01  0.51100000000E-03 0.  1.
         11    1    4    4    0    0  0.57242886841E-02 -0.18400758006E-01  0.39750405351E-01  0.44178175864E-01  0.51100000000E-03 0. -1.
</event>
<event>
 8    1  0.1197213E+005  0.1043930E+01  0.7957747E-01            NaN
         13   -1    0    0    0    0  0.00000000000E+00  0.00000000000E+00  0.74505805969E-08  0.10566000000E+00  0.10566000000E+00 0. -1.
     999900   -1    0    0    0    0 -0.00000000000E+00 -0.00000000000E+00 -0.74505805969E-08  0.93827000000E+00  0.93827000000E+00 0.  1.
     999902    2    1    2    0    0 -0.23677990746E-01  0.14006989414E-02  0.27215393525E-02  0.10200549926E+01  0.10197755498E+01 0.  0.
     999903    2    3    3    0    0 -0.72450070855E-01 -0.55576416189E-01 -0.92731167397E-01  0.13172153791E+00  0.20340681870E-01 0.  0.
         14    1    1    2    0    0  0.23677990746E-01 -0.14006989414E-02 -0.27215393525E-02  0.23875007429E-01  0.00000000000E+00 0.  1.
     999901    1    3    3    0    0  0.48772080109E-01  0.56977115130E-01  0.95452706749E-01  0.88833345466E+00  0.88000000000E+00 0. -1.
        -11    1    4    4    0    0 -0.49483577153E-02 -0.99073941524E-02 -0.56219055739E-02  0.12430190918E-01  0.51100000000E-03 0. -1.
         11    1    4    4    0    0 -0.67501713140E-01 -0.45669022036E-01 -0.87109261823E-01  0.11929134699E+00  0.51100000000E-03 0.  1.
</event>
<event>
 8    1  0.1197213E+005  0.1043930E+01  0.7957747E-01            NaN
         13   -1    0    0    0    0  0.00000000000E+00  0.00000000000E+00  0.74505805969E-08  0.10566000000E+00  0.10566000000E+00 0.  1.
     999900   -1    0    0    0    0 -0.00000000000E+00 -0.00000000000E+00 -0.74505805969E-08  0.93827000000E+00  0.93827000000E+00 0. -1.
     999902    2    1    2    0    0 -0.14385316153E-01  0.17226172286E-01 -0.63065421767E-02  0.10206179686E+01  0.10203516977E+01 0.  0.
     999903    2    3    3    0    0  0.59804066601E-01 -0.69288325701E-01 -0.89258238141E-01  0.12939980974E+00  0.19996980351E-01 0.  0.
         14    1    1    2    0    0  0.14385316153E-01 -0.17226172286E-01  0.63065421767E-02  0.23312031372E-01  0.00000000000E+00 0.  1.
     999901    1    3    3    0    0 -0.74189382754E-01  0.86514497988E-01  0.82951695964E-01  0.89121815889E+00  0.88000000000E+00 0.  1.
        -11    1    4    4    0    0  0.30260144774E-02 -0.13693091398E-01 -0.10586730524E-01  0.17578324716E-01  0.51100000000E-03 0.  1.
         11    1    4    4    0    0  0.56778052124E-01 -0.55595234303E-01 -0.78671507617E-01  0.11182148502E+00  0.51100000000E-03 0. -1.
</event>
<event>
 8    1  0.1197213E+005  0.1043930E+01  0.7957747E-01            NaN
         13   -1    0    0    0    0  0.00000000000E+00  0.00000000000E+00  0.74505805969E-08  0.10566000000E+00  0.10566000000E+00 0.  1.
     999900   -1    0    0    0    0 -0.00000000000E+00 -0.00000000000E+00 -0.74505805969E-08  0.93827000000E+00  0.93827000000E+00 0.  1.
     999902    2    1    2    0    0  0.90225737409E-02 -0.21327923539E-01 -0.86582664239E-02  0.10192064740E+01  0.10189065629E+01 0.  0.
     999903    2    3    3    0    0  0.40967427072E-01  0.10419446725E+00  0.57561301436E-01  0.12726400087E+00  0.18654903043E-01 0.  0.
         14    1    1    2    0    0 -0.90225737409E-02  0.21327923539E-01  0.86582664239E-02  0.24723525980E-01  0.00000000000E+00 0. -1.
     999901    1    3    3    0    0 -0.31944853331E-01 -0.12552239079E+00 -0.66219567860E-01  0.89194247315E+00  0.88000000000E+00 0.  1.
        -11    1    4    4    0    0  0.14619319411E-01  0.38062194854E-01  0.31226294791E-01  0.51359495563E-01  0.51100000000E-03 0.  1.
         11    1    4    4    0    0  0.26348107661E-01  0.66132272396E-01  0.26335006645E-01  0.75904505305E-01  0.51100000000E-03 0. -1.
</event>
<event>
 8    1  0.1197213E+005  0.1043930E+01  0.7957747E-01            NaN
         13   -1    0    0    0    0  0.00000000000E+00  0.00000000000E+00  0.74505805969E-08  0.10566000000E+00  0.10566000000E+00 0.  1.
     999900   -1    0    0    0    0 -0.00000000000E+00 -0.00000000000E+00 -0.74505805969E-08  0.93827000000E+00  0.93827000000E+00 0.  1.
     999902    2    1    2    0    0  0.55776479178E-02 -0.23078673521E-01 -0.15035423797E-02  0.10201393302E+01  0.10198618814E+01 0.  0.
     999903    2    3    3    0    0  0.10576839081E+00  0.62822622070E-01  0.34709228015E-01  0.12956166250E+00  0.21162692216E-01 0.  0.
         14    1    1    2    0    0 -0.55776479178E-02  0.23078673521E-01  0.15035423797E-02  0.23790669757E-01  0.00000000000E+00 0.  1.
     999901    1    3    3    0    0 -0.10019074289E+00 -0.85901295592E-01 -0.36212770395E-01  0.89057766774E+00  0.88000000000E+00 0. -1.
        -11    1    4    4    0    0  0.81020321757E-01  0.41462354029E-01  0.17749469098E-01  0.92729305581E-01  0.51100000000E-03 0. -1.
         11    1    4    4    0    0  0.24748069053E-01  0.21360268041E-01  0.16959758917E-01  0.36832356918E-01  0.51100000000E-03 0.  1.
</event>
<event>
 8    1  0.1197213E+005  0.1043930E+01  0.7957747E-01            NaN
         13   -1    0    0    0    0  0.00000000000E+00  0.00000000000E+00  0.74505805969E-08  0.10566000000E+00  0.10566000000E+00 0.  1.
     999900   -1    0    0    0    0 -0.00000000000E+00 -0.00000000000E+00 -0.74505805969E-08  0.93827000000E+00  0.93827000000E+00 0.  1.
     999902    2    1    2    0    0 -0.46525284933E-02  0.16186590832E-01 -0.76234449356E-02  0.10254430139E+01  0.10252763559E+01 0.  0.
     999903    2    3    3    0    0  0.12693994029E+00  0.21208802093E-02 -0.41046372246E-01  0.13491984508E+00  0.20007832178E-01 0.  0.
         14    1    1    2    0    0  0.46525284933E-02 -0.16186590832E-01  0.76234449356E-02  0.18486986148E-01  0.00000000000E+00 0. -1.
     999901    1    3    3    0    0 -0.13159246878E+00  0.14065710623E-01  0.33422927310E-01  0.89052316877E+00  0.88000000000E+00 0.  1.
        -11    1    4    4    0    0  0.12912918932E-01 -0.83357401878E-03  0.17945795571E-02  0.13073635981E-01  0.51100000000E-03 0.  1.
         11    1    4    4    0    0  0.11402702135E+00  0.29544542281E-02 -0.42840951803E-01  0.12184620910E+00  0.51100000000E-03 0. -1.
</event>
<event>
 8    1  0.1197213E+005  0.1043930E+01  0.7957747E-01            NaN
         13   -1    0    0    0    0  0.00000000000E+00  0.00000000000E+00  0.74505805969E-08  0.10566000000E+00  0.10566000000E+00 0. -1.
     999900   -1    0    0    0    0 -0.00000000000E+00 -0.00000000000E+00 -0.74505805969E-08  0.93827000000E+00  0.93827000000E+00 0.  1.
     999902    2    1    2    0    0 -0.10476737434E-01 -0.20200771305E-01  0.38977085926E-02  0.10208426589E+01  0.10205815542E+01 0.  0.
     999903    2    3    3    0    0  0.44587546158E-01 -0.99647467014E-01 -0.72132624415E-01  0.13229076712E+00  0.19495245688E-01 0.  0.
         14    1    1    2    0    0  0.10476737434E-01  0.20200771305E-01 -0.38977085926E-02  0.23087341139E-01  0.00000000000E+00 0.  1.
     999901    1    3    3    0    0 -0.55064283592E-01  0.79446695709E-01  0.76030333008E-01  0.88855189175E+00  0.88000000000E+00 0. -1.
        -11    1    4    4    0    0  0.20924422444E-01 -0.63251237276E-01 -0.35538091685E-01  0.75510049352E-01  0.51100000000E-03 0.  1.
         11    1    4    4    0    0  0.23663123713E-01 -0.36396229738E-01 -0.36594532730E-01  0.56780717764E-01  0.51100000000E-03 0. -1.
</event>
<event>
 8    1  0.1197213E+005  0.1043930E+01  0.7957747E-01            NaN
         13   -1    0    0    0    0  0.00000000000E+00  0.00000000000E+00  0.74505805969E-08  0.10566000000E+00  0.10566000000E+00 0. -1.
     999900   -1    0    0    0    0 -0.00000000000E+00 -0.00000000000E+00 -0.74505805969E-08  0.93827000000E+00  0.93827000000E+00 0.  1.
     999902    2    1    2    0    0 -0.18792445812E-01 -0.15585057551E-01 -0.10260800912E-01  0.10174472873E+01  0.10171025751E+01 0.  0.
     999903    2    3    3    0    0  0.11000623043E+00  0.40574379378E-01  0.36842602034E-01  0.12505627883E+00  0.23109404037E-01 0.  0.
         14    1    1    2    0    0  0.18792445812E-01  0.15585057551E-01  0.10260800912E-01  0.26482712735E-01  0.00000000000E+00 0. -1.
     999901    1    3    3    0    0 -0.12879867625E+00 -0.56159436929E-01 -0.47103402946E-01  0.89239100843E+00  0.88000000000E+00 0.  1.
        -11    1    4    4    0    0  0.37143601745E-01  0.17601536109E-01  0.23954688693E-01  0.47576774327E-01  0.51100000000E-03 0. -1.
         11    1    4    4    0    0  0.72862628689E-01  0.22972843269E-01  0.12887913341E-01  0.77479504507E-01  0.51100000000E-03 0.  1.
</event>
<event>
 8    1  0.1197213E+005  0.1043930E+01  0.7957747E-01            NaN
         13   -1    0    0    0    0  0.00000000000E+00  0.00000000000E+00  0.74505805969E-08  0.10566000000E+00  0.10566000000E+00 0. -1.
     999900   -1    0    0    0    0 -0.00000000000E+00 -0.00000000000E+00 -0.74505805969E-08  0.93827000000E+00  0.93827000000E+00 0.  1.
     999902    2    1    2    0    0 -0.20466746436E-01  0.73545590703E-02  0.10419263365E-01  0.10198148948E+01  0.10195297354E+01 0.  0.
     999903    2    3    3    0    0 -0.12546899412E+00  0.26119423150E-01 -0.27593295514E-01  0.13255926831E+00  0.19643749799E-01 0.  0.
         14    1    1    2    0    0  0.20466746436E-01 -0.73545590703E-02 -0.10419263365E-01  0.24115105181E-01  0.00000000000E+00 0.  1.
     999901    1    3    3    0    0  0.10500224768E+00 -0.18764864079E-01  0.38012558878E-01  0.88725562651E+00  0.88000000000E+00 0.  1.
        -11    1    4    4    0    0 -0.36352533544E-01  0.10156855210E-01  0.54183825881E-03  0.37752127259E-01  0.51100000000E-03 0. -1.
         11    1    4    4    0    0 -0.89116460575E-01  0.15962567939E-01 -0.28135133772E-01  0.94807141050E-01  0.51100000000E-03 0.  1.
</event>
<event>
 8    1  0.1197213E+005  0.1043930E+01  0.7957747E-01            NaN
         13   -1    0    0    0    0  0.00000000000E+00  0.00000000000E+00  0.74505805969E-08  0.10566000000E+00  0.10566000000E+00 0.  1.
     999900   -1    0    0    0    0 -0.00000000000E+00 -0.00000000000E+00 -0.74505805969E-08  0.93827000000E+00  0.93827000000E+00 0. -1.
     999902    2    1    2    0    0 -0.84238833484E-02 -0.20455172986E-01 -0.79586027569E-02  0.10204201027E+01  0.10201492395E+01 0.  0.
     999903    2    3    3    0    0  0.11818086027E+00 -0.23465812980E-01 -0.46126346188E-01  0.13053550250E+00  0.19862464293E-01 0.  0.
         14    1    1    2    0    0  0.84238833484E-02  0.20455172986E-01  0.79586027569E-02  0.23509897286E-01  0.00000000000E+00 0. -1.
     999901    1    3    3    0    0 -0.12660474362E+00  0.30106399940E-02  0.38167743431E-01  0.88988460021E+00  0.88000000000E+00 0. -1.
        -11    1    4    4    0    0  0.19065340280E-01 -0.90224964284E-02 -0.14099707010E-01  0.25376278304E-01  0.51100000000E-03 0. -1.
         11    1    4    4    0    0  0.99115519988E-01 -0.14443316552E-01 -0.32026639179E-01  0.10515922420E+00  0.51100000000E-03 0.  1.
</event>
<event>
 8    1  0.1197213E+005  0.1043930E+01  0.7957747E-01            NaN
         13   -1    0    0    0    0  0.00000000000E+00  0.00000000000E+00  0.74505805969E-08  0.10566000000E+00  0.10566000000E+00 0.  1.
     999900   -1    0    0    0    0 -0.00000000000E+00 -0.00000000000E+00 -0.74505805969E-08  0.93827000000E+00  0.93827000000E+00 0.  1.
     999902    2    1    2    0    0 -0.12260920401E-01  0.62404710459E-02 -0.18731225207E-01  0.10206892503E+01  0.10204246240E+01 0.  0.
     999903    2    3    3    0    0 -0.38226146374E-01  0.75263478271E-01  0.96950022802E-01  0.13005996738E+00  0.19760029501E-01 0.  0.
         14    1    1    2    0    0  0.12260920401E-01 -0.62404710459E-02  0.18731225207E-01  0.23240749680E-01  0.00000000000E+00 0.  1.
     999901    1    3    3    0    0  0.25965225973E-01 -0.69023007225E-01 -0.11568124801E+00  0.89062928294E+00  0.88000000000E+00 0.  1.
        -11    1    4    4    0    0 -0.14210960536E-01  0.46932490171E-01  0.62088257248E-01  0.79119042222E-01  0.51100000000E-03 0.  1.
         11    1    4    4    0    0 -0.24015185838E-01  0.28330988100E-01  0.34861765554E-01  0.50940925160E-01  0.51100000000E-03 0. -1.
</event>
<event>
 8    1  0.1197213E+005  0.1043930E+01  0.7957747E-01            NaN
         13   -1    0    0    0    0  0.00000000000E+00  0.00000000000E+00  0.74505805969E-08  0.10566000000E+00  0.10566000000E+00 0.  1.
     999900   -1    0    0    0    0 -0.00000000000E+00 -0.00000000000E+00 -0.74505805969E-08  0.93827000000E+00  0.93827000000E+00 0. -1.
     999902    2    1    2    0    0  0.84747804735E-02 -0.20472660999E-01 -0.92922323465E-02  0.10199029874E+01  0.10196199323E+01 0.  0.
     999903    2    3    3    0    0  0.15867554234E-02 -0.85085299905E-01  0.97453761154E-01  0.13107401334E+00  0.21003222569E-01 0.  0.
         14    1    1    2    0    0 -0.84747804735E-02  0.20472660999E-01  0.92922323465E-02  0.24027012599E-01  0.00000000000E+00 0.  1.
     999901    1    3    3    0    0  0.68880250501E-02  0.64612638907E-01 -0.10674599350E+00  0.88882897406E+00  0.88000000000E+00 0. -1.
        -11    1    4    4    0    0  0.99650542462E-02 -0.43455718028E-01  0.57547649378E-01  0.72799002778E-01  0.51100000000E-03 0.  1.
         11    1    4    4    0    0 -0.83782988228E-02 -0.41629581877E-01  0.39906111776E-01  0.58275010566E-01  0.51100000000E-03 0. -1.
</event>
<event>
 8    1  0.1197213E+005  0.1043930E+01  0.7957747E-01            NaN
         13   -1    0    0    0    0  0.00000000000E+00  0.00000000000E+00  0.74505805969E-08  0.10566000000E+00  0.10566000000E+00 0. -1.
     999900   -1    0    0    0    0 -0.00000000000E+00 -0.00000000000E+00 -0.74505805969E-08  0.93827000000E+00  0.93827000000E+00 0.  1.
     999902    2    1    2    0    0 -0.19111361956E-01 -0.16568257050E-01 -0.94728308759E-02  0.10169210048E+01  0.10165622677E+01 0.  0.
     999903    2    3    3    0    0 -0.20054888921E-01  0.93823695875E-01 -0.80875829408E-01  0.12715380956E+00  0.20545243359E-01 0.  0.
         14    1    1    2    0    0  0.19111361956E-01  0.16568257050E-01  0.94728308759E-02  0.27008995211E-01  0.00000000000E+00 0.  1.
     999901    1    3    3    0    0  0.94352696501E-03 -0.11039195293E+00  0.71402998532E-01  0.88976719523E+00  0.88000000000E+00 0. -1.
        -11    1    4    4    0    0 -0.16465306499E-01  0.60474822944E-01 -0.64085314460E-01  0.89640945882E-01  0.51100000000E-03 0. -1.
         11    1    4    4    0    0 -0.35895824222E-02  0.33348872932E-01 -0.16790514949E-01  0.37512863674E-01  0.51100000000E-03 0.  1.
</event>
<event>
 8    1  0.1197213E+005  0.1043930E+01  0.7957747E-01            NaN
         13   -1    0    0    0    0  0.00000000000E+00  0.00000000000E+00  0.74505805969E-08  0.10566000000E+00  0.10566000000E+00 0. -1.
     999900   -1    0    0    0    0 -0.00000000000E+00 -0.00000000000E+00 -0.74505805969E-08  0.93827000000E+00  0.93827000000E+00 0.  1.
     999902    2    1    2    0    0  0.13305822473E-02 -0.20063622335E-01  0.11588234248E-01  0.10207221013E+01  0.10204582311E+01 0.  0.
     999903    2    3    3    0    0  0.23533110356E-02  0.11897304946E+00  0.45784575394E-01  0.12914954011E+00  0.20573084237E-01 0.  0.
         14    1    1    2    0    0 -0.13305822473E-02  0.20063622335E-01 -0.11588234248E-01  0.23207898726E-01  0.00000000000E+00 0.  1.
     999901    1    3    3    0    0 -0.10227287883E-02 -0.13903667180E+00 -0.34196341146E-01  0.89157256117E+00  0.88000000000E+00 0.  1.
        -11    1    4    4    0    0  0.65705595991E-02  0.82164242376E-01  0.22711402839E-01  0.85499730518E-01  0.51100000000E-03 0. -1.
         11    1    4    4    0    0 -0.42172485635E-02  0.36808807085E-01  0.23073172554E-01  0.43649809589E-01  0.51100000000E-03 0.  1.
</event>
<event>
 8    1  0.1197213E+005  0.1043930E+01  0.7957747E-01            NaN
         13   -1    0    0    0    0  0.00000000000E+00  0.00000000000E+00  0.74505805969E-08  0.10566000000E+00  0.10566000000E+00 0.  1.
     999900   -1    0    0    0    0 -0.00000000000E+00 -0.00000000000E+00 -0.74505805969E-08  0.93827000000E+00  0.93827000000E+00 0. -1.
     999902    2    1    2    0    0 -0.10140605042E-01  0.21013104930E-01  0.27359193282E-02  0.10204381354E+01  0.10201676923E+01 0.  0.
     999903    2    3    3    0    0  0.11316183646E+00  0.62248568402E-01  0.46476508985E-02  0.13088346574E+00  0.20697715964E-01 0.  0.
         14    1    1    2    0    0  0.10140605042E-01 -0.21013104930E-01 -0.27359193282E-02  0.23491864634E-01  0.00000000000E+00 0.  1.
     999901    1    3    3    0    0 -0.12330244151E+00 -0.41235463472E-01 -0.19117315702E-02  0.88955466962E+00  0.88000000000E+00 0. -1.
        -11    1    4    4    0    0  0.48908002618E-01  0.15482603734E-01  0.55464025242E-03  0.51305676930E-01  0.51100000000E-03 0.  1.
         11    1    4    4    0    0  0.64253833847E-01  0.46765964668E-01  0.40930106461E-02  0.79577788814E-01  0.51100000000E-03 0. -1.
</event>
<event>
 8    1  0.1197213E+005  0.1043930E+01  0.7957747E-01            NaN
         13   -1    0    0    0    0  0.00000000000E+00  0.00000000000E+00  0.74505805969E-08  0.10566000000E+00  0.10566000000E+00 0.  1.
     999900   -1    0    0    0    0 -0.00000000000E+00 -0.00000000000E+00 -0.74505805969E-08  0.93827000000E+00  0.93827000000E+00 0. -1.
     999902    2    1    2    0    0  0.16468738004E-02  0.12524694509E-01 -0.19998641269E-01  0.10202757019E+01  0.10200014618E+01 0.  0.
     999903    2    3    3    0    0 -0.14373607575E-01  0.43024463713E-02  0.12601117463E+00  0.12806321178E+00  0.17212159696E-01 0.  0.
         14    1    1    2    0    0 -0.16468738004E-02 -0.12524694509E-01  0.19998641269E-01  0.23654298097E-01  0.00000000000E+00 0.  1.
     999901    1    3    3    0    0  0.16020481376E-01  0.82222481377E-02 -0.14600981590E+00  0.89221249012E+00  0.88000000000E+00 0. -1.
        -11    1    4    4    0    0  0.73371819615E-03 -0.42554914513E-02  0.45061169712E-01  0.45270494659E-01  0.51100000000E-03 0.  1.
         11    1    4    4    0    0 -0.15107325772E-01  0.85579378226E-02  0.80950004917E-01  0.82792717124E-01  0.51100000000E-03 0. -1.
</event>
<event>
 8    1  0.1197213E+005  0.1043930E+01  0.7957747E-01            NaN
         13   -1    0    0    0    0  0.00000000000E+00  0.00000000000E+00  0.74505805969E-08  0.10566000000E+00  0.10566000000E+00 0.  1.
     999900   -1    0    0    0    0 -0.00000000000E+00 -0.00000000000E+00 -0.74505805969E-08  0.93827000000E+00  0.93827000000E+00 0. -1.
     999902    2    1    2    0    0 -0.18717653856E-01 -0.11977944467E-01 -0.78054802940E-02  0.10203769271E+01  0.10201050564E+01 0.  0.
     999903    2    3    3    0    0 -0.28158759274E-01 -0.47792170075E-01  0.11678470107E+00  0.13082956665E+00  0.20017538863E-01 0.  0.
         14    1    1    2    0    0  0.18717653856E-01  0.11977944467E-01  0.78054802940E-02  0.23553072881E-01  0.00000000000E+00 0. -1.
     999901    1    3    3    0    0  0.94411054178E-02  0.35814225609E-01 -0.12459018136E+00  0.88954736047E+00  0.88000000000E+00 0.  1.
        -11    1    4    4    0    0 -0.16861083727E-01 -0.10341056371E-01  0.42157121404E-01  0.46569492132E-01  0.51100000000E-03 0. -1.
         11    1    4    4    0    0 -0.11297675547E-01 -0.37451113705E-01  0.74627579662E-01  0.84260074517E-01  0.51100000000E-03 0.  1.
</event>
<event>
 8    1  0.1197213E+005  0.1043930E+01  0.7957747E-01            NaN
         13   -1    0    0    0    0  0.00000000000E+00  0.00000000000E+00  0.74505805969E-08  0.10566000000E+00  0.10566000000E+00 0. -1.
     999900   -1    0    0    0    0 -0.00000000000E+00 -0.00000000000E+00 -0.74505805969E-08  0.93827000000E+00  0.93827000000E+00 0. -1.
     999902    2    1    2    0    0 -0.16810307535E-01 -0.22220265220E-02 -0.16193119294E-01  0.10204834447E+01  0.10202140560E+01 0.  0.
     999903    2    3    3    0    0 -0.78624444954E-01  0.85809504176E-01  0.56675583595E-01  0.13094402130E+00  0.19726646642E-01 0.  0.
         14    1    1    2    0    0  0.16810307535E-01  0.22220265220E-02  0.16193119294E-01  0.23446555264E-01  0.00000000000E+00 0. -1.
     999901    1    3    3    0    0  0.61814137419E-01 -0.88031530698E-01 -0.72868702889E-01  0.88953942343E+00  0.88000000000E+00 0. -1.
        -11    1    4    4    0    0 -0.41387834345E-01  0.59236107876E-01  0.36138794270E-01  0.80796923706E-01  0.51100000000E-03 0. -1.
         11    1    4    4    0    0 -0.37236610609E-01  0.26573396300E-01  0.20536789325E-01  0.50147097596E-01  0.51100000000E-03 0.  1.
</event>
<event>
 8    1  0.1197213E+005  0.1043930E+01  0.7957747E-01            NaN
         13   -1    0    0    0    0  0.00000000000E+00  0.00000000000E+00  0.74505805969E-08  0.10566000000E+00  0.10566000000E+00 0. -1.
     999900   -1    0    0    0    0 -0.00000000000E+00 -0.00000000000E+00 -0.74505805969E-08  0.93827000000E+00  0.93827000000E+00 0.  1.
     999902    2    1    2    0    0  0.79149237112E-02 -0.11557257342E-02  0.22474473391E-01  0.10200745253E+01  0.10197955449E+01 0.  0.
     999903    2    3    3    0    0 -0.49824780535E-01  0.10791473657E+00  0.51385292414E-01  0.13099293474E+00  0.19763642179E-01 0.  0.
         14    1    1    2    0    0 -0.79149237112E-02  0.11557257342E-02 -0.22474473391E-01  0.23855474708E-01  0.00000000000E+00 0.  1.
     999901    1    3    3    0    0  0.57739704246E-01 -0.10907046230E+00 -0.28910819023E-01  0.88908159055E+00  0.88000000000E+00 0. -1.
        -11    1    4    4    0    0 -0.82259635549E-02  0.39783527872E-01  0.18867760836E-01  0.44795636912E-01  0.51100000000E-03 0. -1.
         11    1    4    4    0    0 -0.41598816980E-01  0.68131208698E-01  0.32517531578E-01  0.86197297833E-01  0.51100000000E-03 0.  1.
</event>
<event>
 8    1  0.1197213E+005  0.1043930E+01  0.7957747E-01            NaN
         13   -1    0    0    0    0  0.00000000000E+00  0.00000000000E+00  0.74505805969E-08  0.10566000000E+00  0.10566000000E+00 0. -1.
     999900   -1    0    0    0    0 -0.00000000000E+00 -0.00000000000E+00 -0.74505805969E-08  0.93827000000E+00  0.93827000000E+00 0.  1.
     999902    2    1    2    0    0 -0.14112800565E-01  0.99906449237E-02 -0.10043346661E-01  0.10239336769E+01  0.10237384049E+01 0.  0.
     999903    2    3    3    0    0 -0.72388896649E-01  0.20403018525E-01  0.10884674752E+00  0.13396773631E+00  0.21054795239E-01 0.  0.
         14    1    1    2    0    0  0.14112800565E-01 -0.99906449237E-02  0.10043346661E-01  0.19996323110E-01  0.00000000000E+00 0. -1.
     999901    1    3    3    0    0  0.58276096084E-01 -0.10412373601E-01 -0.11889009418E+00  0.88996594058E+00  0.88000000000E+00 0.  1.
        -11    1    4    4    0    0 -0.37850154259E-01  0.17527335268E-03  0.57905255181E-01  0.69180521802E-01  0.51100000000E-03 0. -1.
         11    1    4    4    0    0 -0.34538742390E-01  0.20227745172E-01  0.50941492341E-01  0.64787214507E-01  0.51100000000E-03 0.  1.
</event>
<event>
 8    1  0.1197213E+005  0.1043930E+01  0.7957747E-01            NaN
         13   -1    0    0    0    0  0.00000000000E+00  0.00000000000E+00  0.74505805969E-08  0.10566000000E+00  0.10566000000E+00 0. -1.
     999900   -1    0    0    0    0 -0.00000000000E+00 -0.00000000000E+00 -0.74505805969E-08  0.93827000000E+00  0.93827000000E+00 0. -1.
     999902    2    1    2    0    0  0.30519810755E-02  0.84607122715E-02  0.19592288197E-01  0.10223717998E+01  0.10221444814E+01 0.  0.
     999903    2    3    3    0    0  0.12835686522E+00  0.23966226815E-01  0.17199005126E-01  0.13335691644E+00  0.20937920297E-01 0.  0.
         14    1    1    2    0    0 -0.30519810755E-02 -0.84607122715E-02 -0.19592288197E-01  0.21558200236E-01  0.00000000000E+00 0.  1.
     999901    1    3    3    0    0 -0.12530488415E+00 -0.15505514544E-01  0.23932830710E-02  0.88901488333E+00  0.88000000000E+00 0.  1.
        -11    1    4    4    0    0  0.29218303688E-01  0.90240900166E-02  0.12338976951E-01  0.32979614071E-01  0.51100000000E-03 0.  1.
         11    1    4    4    0    0  0.99138561535E-01  0.14942136799E-01  0.48600281749E-02  0.10037730237E+00  0.51100000000E-03 0. -1.
</event>
<event>
 8    1  0.1197213E+005  0.1043930E+01  0.7957747E-01            NaN
         13   -1    0    0    0    0  0.00000000000E+00  0.00000000000E+00  0.74505805969E-08  0.10566000000E+00  0.10566000000E+00 0. -1.
     999900   -1    0    0    0    0 -0.00000000000E+00 -0.00000000000E+00 -0.74505805969E-08  0.93827000000E+00  0.93827000000E+00 0. -1.
     999902    2    1    2    0    0 -0.49416857210E-02  0.21293054137E-01 -0.92285442675E-02  0.10202027911E+01  0.10199268378E+01 0.  0.
     999903    2    3    3    0    0  0.52014330066E-01 -0.56274504665E-01  0.10098189707E+00  0.12812260677E+00  0.18594311570E-01 0.  0.
         14    1    1    2    0    0  0.49416857210E-02 -0.21293054137E-01  0.92285442675E-02  0.23727208886E-01  0.00000000000E+00 0.  1.
     999901    1    3    3    0    0 -0.56956015787E-01  0.77567558801E-01 -0.11021044134E+00  0.89208018434E+00  0.88000000000E+00 0. -1.
        -11    1    4    4    0    0  0.29251509386E-01 -0.31692470559E-01  0.71450533831E-01  0.83459591404E-01  0.51100000000E-03 0.  1.
         11    1    4    4    0    0  0.22762820680E-01 -0.24582034106E-01  0.29531363240E-01  0.44663015369E-01  0.51100000000E-03 0. -1.
</event>
<event>
 8    1  0.1197213E+005  0.1043930E+01  0.7957747E-01            NaN
         13   -1    0    0    0    0  0.00000000000E+00  0.00000000000E+00  0.74505805969E-08  0.10566000000E+00  0.10566000000E+00 0.  1.
     999900   -1    0    0    0    0 -0.00000000000E+00 -0.00000000000E+00 -0.74505805969E-08  0.93827000000E+00  0.93827000000E+00 0.  1.
     999902    2    1    2    0    0  0.16074419730E-01 -0.14538409300E-01 -0.98234422833E-02  0.10201339429E+01  0.10198563669E+01 0.  0.
     999903    2    3    3    0    0 -0.29389900141E-01  0.86880251682E-01 -0.89316440747E-01  0.12958810693E+00  0.20092449029E-01 0.  0.
         14    1    1    2    0    0 -0.16074419730E-01  0.14538409300E-01  0.98234422833E-02  0.23796057087E-01  0.00000000000E+00 0.  1.
     999901    1    3    3    0    0  0.45464319871E-01 -0.10141866098E+00  0.79492998463E-01  0.89054583598E+00  0.88000000000E+00 0. -1.
        -11    1    4    4    0    0 -0.25349777332E-01  0.51494414145E-01 -0.63500956716E-01  0.85597421245E-01  0.51100000000E-03 0.  1.
         11    1    4    4    0    0 -0.40401228095E-02  0.35385837537E-01 -0.25815484030E-01  0.43990685687E-01  0.51100000000E-03 0. -1.
</event>
<event>
 8    1  0.1197213E+005  0.1043930E+01  0.7957747E-01            NaN
         13   -1    0    0    0    0  0.00000000000E+00  0.00000000000E+00  0.74505805969E-08  0.10566000000E+00  0.10566000000E+00 0. -1.
     999900   -1    0    0    0    0 -0.00000000000E+00 -0.00000000000E+00 -0.74505805969E-08  0.93827000000E+00  0.93827000000E+00 0.  1.
     999902    2    1    2    0    0 -0.16937172258E-01  0.41120488543E-02 -0.12327489061E-01  0.10225818447E+01  0.10223589806E+01 0.  0.
     999903    2    3    3    0    0 -0.10697353993E+00  0.11503872474E-01  0.76037056509E-01  0.13355457878E+00  0.21897813244E-01 0.  0.
         14    1    1    2    0    0  0.16937172258E-01 -0.41120488543E-02  0.12327489061E-01  0.21348155340E-01  0.00000000000E+00 0. -1.
     999901    1    3    3    0    0  0.90036367669E-01 -0.73918236200E-02 -0.88364545570E-01  0.88902726588E+00  0.88000000000E+00 0.  1.
        -11    1    4    4    0    0 -0.23815189761E-01  0.41809086292E-02  0.28899810484E-01  0.37684259676E-01  0.51100000000E-03 0. -1.
         11    1    4    4    0    0 -0.83158350166E-01  0.73229638451E-02  0.47137246025E-01  0.95870319107E-01  0.51100000000E-03 0.  1.
</event>
<event>
 8    1  0.1197213E+005  0.1043930E+01  0.7957747E-01            NaN
         13   -1    0    0    0    0  0.00000000000E+00  0.00000000000E+00  0.74505805969E-08  0.10566000000E+00  0.10566000000E+00 0.  1.
     999900   -1    0    0    0    0 -0.00000000000E+00 -0.00000000000E+00 -0.74505805969E-08  0.93827000000E+00  0.93827000000E+00 0. -1.
     999902    2    1    2    0    0 -0.10534890119E-01  0.21176050556E-01  0.10637343842E-02  0.10202542623E+01  0.10199795190E+01 0.  0.
     999903    2    3    3    0    0 -0.70335308226E-01  0.42516378743E-01 -0.10134259193E+00  0.13204338905E+00  0.20259259813E-01 0.  0.
         14    1    1    2    0    0  0.10534890119E-01 -0.21176050556E-01 -0.10637343842E-02  0.23675737746E-01  0.00000000000E+00 0. -1.
     999901    1    3    3    0    0  0.59800418108E-01 -0.21340328186E-01  0.10240632631E+00  0.88821087321E+00  0.88000000000E+00 0.  1.
        -11    1    4    4    0    0 -0.51366930983E-01  0.39299009944E-01 -0.70369458224E-01  0.95577693804E-01  0.51100000000E-03 0.  1.
         11    1    4    4    0    0 -0.18968377244E-01  0.32173687981E-02 -0.30973133702E-01  0.36465695243E-01  0.51100000000E-03 0. -1.
</event>
<event>
 8    1  0.1197213E+005  0.1043930E+01  0.7957747E-01            NaN
         13   -1    0    0    0    0  0.00000000000E+00  0.00000000000E+00  0.74505805969E-08  0.10566000000E+00  0.10566000000E+00 0.  1.
     999900   -1    0    0    0    0 -0.00000000000E+00 -0.00000000000E+00 -0.74505805969E-08  0.93827000000E+00  0.93827000000E+00 0.  1.
     999902    2    1    2    0    0 -0.15524274424E-03  0.19778848237E-01  0.12843101075E-01  0.10203466969E+01  0.10200741197E+01 0.  0.
     999903    2    3    3    0    0 -0.41010508470E-01 -0.11988123491E+00 -0.19816269032E-03  0.12830176191E+00  0.20197290694E-01 0.  0.
         14    1    1    2    0    0  0.15524274424E-03 -0.19778848237E-01 -0.12843101075E-01  0.23583303058E-01  0.00000000000E+00 0. -1.
     999901    1    3    3    0    0  0.40855265726E-01  0.13966008315E+00  0.13041263765E-01  0.89204493504E+00  0.88000000000E+00 0. -1.
        -11    1    4    4    0    0 -0.16885993522E-01 -0.65539363784E-01 -0.87005896625E-02  0.68238598783E-01  0.51100000000E-03 0. -1.
         11    1    4    4    0    0 -0.24124514949E-01 -0.54341871126E-01  0.85024269721E-02  0.60063163124E-01  0.51100000000E-03 0.  1.
</event>
<event>
 8    1  0.1197213E+005  0.1043930E+01  0.7957747E-01            NaN
         13   -1    0    0    0    0  0.00000000000E+00  0.00000000000E+00  0.74505805969E-08  0.10566000000E+00  0.10566000000E+00 0. -1.
     999900   -1    0    0    0    0 -0.00000000000E+00 -0.00000000000E+00 -0.74505805969E-08  0.93827000000E+00  0.93827000000E+00 0. -1.
     999902    2    1    2    0    0  0.10687075294E-01  0.24470699108E-01 -0.93565346738E-02  0.10156355936E+01  0.10152413927E+01 0.  0.
     999903    2    3    3    0    0  0.11898496706E+00  0.12239543553E-01  0.39434244311E-01  0.12757108318E+00  0.20300069635E-01 0.  0.
         14    1    1    2    0    0 -0.10687075294E-01 -0.24470699108E-01  0.93565346738E-02  0.28294406414E-01  0.00000000000E+00 0. -1.
     999901    1    3    3    0    0 -0.10829789177E+00  0.12231155556E-01 -0.48790778985E-01  0.88806451041E+00  0.88000000000E+00 0. -1.
        -11    1    4    4    0    0  0.59270014547E-01 -0.19171212007E-02  0.12800955184E-01  0.60669065863E-01  0.51100000000E-03 0. -1.
         11    1    4    4    0    0  0.59714952512E-01  0.14156664753E-01  0.26633289128E-01  0.66902017318E-01  0.51100000000E-03 0.  1.
</event>
<event>
 8    1  0.1197213E+005  0.1043930E+01  0.7957747E-01            NaN
         13   -1    0    0    0    0  0.00000000000E+00  0.00000000000E+00  0.74505805969E-08  0.10566000000E+00  0.10566000000E+00 0.  1.
     999900   -1    0    0    0    0 -0.00000000000E+00 -0.00000000000E+00 -0.74505805969E-08  0.93827000000E+00  0.93827000000E+00 0. -1.
     999902    2    1    2    0    0  0.73549992250E-02  0.19458036564E-01  0.12527863715E-01  0.10196471136E+01  0.10193579243E+01 0.  0.
     999903    2    3    3    0    0 -0.62792532362E-01 -0.18961917917E-01  0.11106351215E+00  0.13054304600E+00  0.20097927158E-01 0.  0.
         14    1    1    2    0    0 -0.73549992250E-02 -0.19458036564E-01 -0.12527863715E-01  0.24282886356E-01  0.00000000000E+00 0. -1.
     999901    1    3    3    0    0  0.70147531587E-01  0.38419954481E-01 -0.98535648435E-01  0.88910406764E+00  0.88000000000E+00 0. -1.
        -11    1    4    4    0    0 -0.32254631894E-01 -0.57952219967E-02  0.72847412451E-01  0.79880864407E-01  0.51100000000E-03 0.  1.
         11    1    4    4    0    0 -0.30537900468E-01 -0.13166695920E-01  0.38216099699E-01  0.50662181592E-01  0.51100000000E-03 0. -1.
</event>
<event>
 8    1  0.1197213E+005  0.1043930E+01  0.7957747E-01            NaN
         13   -1    0    0    0    0  0.00000000000E+00  0.00000000000E+00  0.74505805969E-08  0.10566000000E+00  0.10566000000E+00 0. -1.
     999900   -1    0    0    0    0 -0.00000000000E+00 -0.00000000000E+00 -0.74505805969E-08  0.93827000000E+00  0.93827000000E+00 0.  1.
     999902    2    1    2    0    0  0.46330414886E-02  0.27007037890E-03  0.23734000745E-01  0.10197465180E+01  0.10194597197E+01 0.  0.
     999903    2    3    3    0    0 -0.75936773633E-02  0.84542530311E-01 -0.93700340975E-01  0.12787087375E+00  0.19133820487E-01 0.  0.
         14    1    1    2    0    0 -0.46330414886E-02 -0.27007037890E-03 -0.23734000745E-01  0.24183482024E-01  0.00000000000E+00 0.  1.
     999901    1    3    3    0    0  0.12226718852E-01 -0.84272459932E-01  0.11743434172E+00  0.89187564423E+00  0.88000000000E+00 0. -1.
        -11    1    4    4    0    0 -0.12923071731E-01  0.40142225086E-01 -0.48786630793E-01  0.64488762455E-01  0.51100000000E-03 0.  1.
         11    1    4    4    0    0  0.53293943677E-02  0.44400305225E-01 -0.44913710182E-01  0.63382111291E-01  0.51100000000E-03 0. -1.
</event>
<event>
 8    1  0.1197213E+005  0.1043930E+01  0.7957747E-01            NaN
         13   -1    0    0    0    0  0.00000000000E+00  0.00000000000E+00  0.74505805969E-08  0.10566000000E+00  0.10566000000E+00 0. -1.
     999900   -1    0    0    0    0 -0.00000000000E+00 -0.00000000000E+00 -0.74505805969E-08  0.93827000000E+00  0.93827000000E+00 0.  1.
     999902    2    1    2    0    0  0.13045814473E-01  0.19556546764E-01 -0.18707506645E-02  0.10203471354E+01  0.10200745684E+01 0.  0.
     999903    2    3    3    0    0 -0.11064651605E+00 -0.57477862480E-01 -0.22056788065E-01  0.12813551868E+00  0.19643142745E-01 0.  0.
         14    1    1    2    0    0 -0.13045814473E-01 -0.19556546764E-01  0.18707506645E-02  0.23582864640E-01  0.00000000000E+00 0. -1.
     999901    1    3    3    0    0  0.12369233053E+00  0.77034409244E-01  0.20186037401E-01  0.89221161668E+00  0.88000000000E+00 0.  1.
        -11    1    4    4    0    0 -0.40750886329E-01 -0.31642160207E-01 -0.64253849971E-02  0.51994304808E-01  0.51100000000E-03 0.  1.
         11    1    4    4    0    0 -0.69895629724E-01 -0.25835702273E-01 -0.15631403068E-01  0.76141213868E-01  0.51100000000E-03 0. -1.
</event>
<event>
 8    1  0.1197213E+005  0.1043930E+01  0.7957747E-01            NaN
         13   -1    0    0    0    0  0.00000000000E+00  0.00000000000E+00  0.74505805969E-08  0.10566000000E+00  0.10566000000E+00 0.  1.
     999900   -1    0    0    0    0 -0.00000000000E+00 -0.00000000000E+00 -0.74505805969E-08  0.93827000000E+00  0.93827000000E+00 0.  1.
     999902    2    1    2    0    0  0.11000105779E-01 -0.48556677161E-02 -0.11027053308E-01  0.10276151068E+01  0.10274855872E+01 0.  0.
     999903    2    3    3    0    0  0.40998044694E-01 -0.20675473199E-01  0.12607325554E+00  0.13635384471E+00  0.24281481469E-01 0.  0.
         14    1    1    2    0    0 -0.11000105779E-01  0.48556677161E-02  0.11027053308E-01  0.16314893220E-01  0.00000000000E+00 0.  1.
     999901    1    3    3    0    0 -0.29997938915E-01  0.15819805483E-01 -0.13710030885E+00  0.89126126207E+00  0.88000000000E+00 0.  1.
        -11    1    4    4    0    0  0.25466385452E-01  0.13037302159E-03  0.52995766246E-01  0.58799371987E-01  0.51100000000E-03 0.  1.
         11    1    4    4    0    0  0.15531659242E-01 -0.20805846221E-01  0.73077489298E-01  0.77554472720E-01  0.51100000000E-03 0. -1.
</event>
<event>
 8    1  0.1197213E+005  0.1043930E+01  0.7957747E-01            NaN
         13   -1    0    0    0    0  0.00000000000E+00  0.00000000000E+00  0.74505805969E-08  0.10566000000E+00  0.10566000000E+00 0. -1.
     999900   -1    0    0    0    0 -0.00000000000E+00 -0.00000000000E+00 -0.74505805969E-08  0.93827000000E+00  0.93827000000E+00 0.  1.
     999902    2    1    2    0    0  0.21014637701E-01 -0.15110060990E-02  0.11601804142E-01  0.10198779731E+01  0.10195943213E+01 0.  0.
     999903    2    3    3    0    0  0.12661724700E+00 -0.32192431359E-01 -0.57534984683E-02  0.13286361729E+00  0.23481017450E-01 0.  0.
         14    1    1    2    0    0 -0.21014637701E-01  0.15110060990E-02 -0.11601804142E-01  0.24052026868E-01  0.00000000000E+00 0.  1.
     999901    1    3    3    0    0 -0.10560260929E+00  0.30681425260E-01  0.17355302610E-01  0.88701435584E+00  0.88000000000E+00 0. -1.
        -11    1    4    4    0    0  0.52272081086E-01 -0.25165047807E-01 -0.81495263898E-03  0.58022197141E-01  0.51100000000E-03 0.  1.
         11    1    4    4    0    0  0.74345165909E-01 -0.70273835519E-02 -0.49385458294E-02  0.74841420146E-01  0.51100000000E-03 0. -1.
</event>
<event>
 8    1  0.1197213E+005  0.1043930E+01  0.7957747E-01            NaN
         13   -1    0    0    0    0  0.00000000000E+00  0.00000000000E+00  0.74505805969E-08  0.10566000000E+00  0.10566000000E+00 0.  1.
     999900   -1    0    0    0    0 -0.00000000000E+00 -0.00000000000E+00 -0.74505805969E-08  0.93827000000E+00  0.93827000000E+00 0.  1.
     999902    2    1    2    0    0 -0.75335862161E-02  0.96246749314E-02 -0.21842458149E-01  0.10189003722E+01  0.10185928952E+01 0.  0.
     999903    2    3    3    0    0 -0.20593557043E-01 -0.14410475879E-01 -0.12841941257E+00  0.13204813057E+00  0.17703300675E-01 0.  0.
         14    1    1    2    0    0  0.75335862161E-02 -0.96246749314E-02  0.21842458149E-01  0.25029627780E-01  0.00000000000E+00 0.  1.
     999901    1    3    3    0    0  0.13059970827E-01  0.24035150811E-01  0.10657695442E+00  0.88685224165E+00  0.88000000000E+00 0. -1.
        -11    1    4    4    0    0 -0.39182881623E-02 -0.53778100719E-02 -0.76158232468E-01  0.76450057665E-01  0.51100000000E-03 0. -1.
         11    1    4    4    0    0 -0.16675268881E-01 -0.90326658076E-02 -0.52261180100E-01  0.55598072901E-01  0.51100000000E-03 0.  1.
</event>
<event>
 8    1  0.1197213E+005  0.1043930E+01  0.7957747E-01            NaN
         13   -1    0    0    0    0  0.00000000000E+00  0.00000000000E+00  0.74505805969E-08  0.10566000000E+00  0.10566000000E+00 0. -1.
     999900   -1    0    0    0    0 -0.00000000000E+00 -0.00000000000E+00 -0.74505805969E-08  0.93827000000E+00  0.93827000000E+00 0.  1.
     999902    2    1    2    0    0 -0.16025091531E-01  0.13119430892E-02 -0.15366812291E-03  0.10278505607E+01  0.10277247817E+01 0.  0.
     999903    2    3    3    0    0 -0.72557761447E-01  0.80636819721E-01 -0.85316536522E-01  0.13838943568E+00  0.10285867180E-01 0.  0.
         14    1    1    2    0    0  0.16025091531E-01 -0.13119430892E-02  0.15366812291E-03  0.16079439267E-01  0.00000000000E+00 0. -1.
     999901    1    3    3    0    0  0.56532669916E-01 -0.79324876632E-01  0.85162868399E-01  0.88946112505E+00  0.88000000000E+00 0. -1.
        -11    1    4    4    0    0 -0.24603295841E-01  0.24116254866E-01 -0.32573537391E-01  0.47415317928E-01  0.51100000000E-03 0. -1.
         11    1    4    4    0    0 -0.47954465606E-01  0.56520564855E-01 -0.52742999131E-01  0.90974117756E-01  0.51100000000E-03 0.  1.
</event>
<event>
 8    1  0.1197213E+005  0.1043930E+01  0.7957747E-01            NaN
         13   -1    0    0    0    0  0.00000000000E+00  0.00000000000E+00  0.74505805969E-08  0.10566000000E+00  0.10566000000E+00 0. -1.
     999900   -1    0    0    0    0 -0.00000000000E+00 -0.00000000000E+00 -0.74505805969E-08  0.93827000000E+00  0.93827000000E+00 0. -1.
     999902    2    1    2    0    0  0.33520322662E-02 -0.17986692076E-02  0.26472077360E-01  0.10171859874E+01  0.10168343477E+01 0.  0.
     999903    2    3    3    0    0 -0.95847038273E-01 -0.38619363086E-01  0.75292774645E-01  0.12950379224E+00  0.20594182158E-01 0.  0.
         14    1    1    2    0    0 -0.33520322662E-02  0.17986692076E-02 -0.26472077360E-01  0.26744012620E-01  0.00000000000E+00 0.  1.
     999901    1    3    3    0    0  0.99199070540E-01  0.36820693879E-01 -0.48820697284E-01  0.88768219514E+00  0.88000000000E+00 0.  1.
        -11    1    4    4    0    0 -0.42108126639E-01 -0.13141271526E-01  0.43969929354E-01  0.62284854938E-01  0.51100000000E-03 0.  1.
         11    1    4    4    0    0 -0.53738911635E-01 -0.25478091560E-01  0.31322845291E-01  0.67218937297E-01  0.51100000000E-03 0. -1.
</event>
<event>
 8    1  0.1197213E+005  0.1043930E+01  0.7957747E-01            NaN
         13   -1    0    0    0    0  0.00000000000E+00  0.00000000000E+00  0.74505805969E-08  0.10566000000E+00  0.10566000000E+00 0. -1.
     999900   -1    0    0    0    0 -0.00000000000E+00 -0.00000000000E+00 -0.74505805969E-08  0.93827000000E+00  0.93827000000E+00 0.  1.
     999902    2    1    2    0    0  0.78620547297E-02  0.22158041674E-01  0.12962290058E-01  0.10170820638E+01  0.10167276493E+01 0.  0.
     999903    2    3    3    0    0 -0.85160437888E-01 -0.32106428518E-01  0.86997423761E-01  0.12743099855E+00  0.19671927113E-01 0.  0.
         14    1    1    2    0    0 -0.78620547297E-02 -0.22158041674E-01 -0.12962290058E-01  0.26847936214E-01  0.00000000000E+00 0.  1.
     999901    1    3    3    0    0  0.93022492617E-01  0.54264470192E-01 -0.74035133703E-01  0.88965106524E+00  0.88000000000E+00 0. -1.
        -11    1    4    4    0    0 -0.27468224684E-01 -0.19967379111E-01  0.35796896532E-01  0.49344488225E-01  0.51100000000E-03 0.  1.
         11    1    4    4    0    0 -0.57692213203E-01 -0.12139049407E-01  0.51200527229E-01  0.78086510322E-01  0.51100000000E-03 0. -1.
</event>
<event>
 8    1  0.1197213E+005  0.1043930E+01  0.7957747E-01            NaN
         13   -1    0    0    0    0  0.00000000000E+00  0.00000000000E+00  0.74505805969E-08  0.10566000000E+00  0.10566000000E+00 0.  1.
     999900   -1    0    0    0    0 -0.00000000000E+00 -0.00000000000E+00 -0.74505805969E-08  0.93827000000E+00  0.93827000000E+00 0. -1.
     999902    2    1    2    0    0  0.40698180326E-02 -0.15816488783E-01  0.17281628820E-01  0.10201522913E+01  0.10198751483E+01 0.  0.
     999903    2    3    3    0    0  0.13015825748E-02  0.46910206874E-01  0.12206106562E+00  0.13171488110E+00  0.15736725747E-01 0.  0.
         14    1    1    2    0    0 -0.40698180326E-02  0.15816488783E-01 -0.17281628820E-01  0.23777708698E-01  0.00000000000E+00 0. -1.
     999901    1    3    3    0    0  0.27682354578E-02 -0.62726695656E-01 -0.10477943680E+00  0.88843741020E+00  0.88000000000E+00 0. -1.
        -11    1    4    4    0    0  0.77122432504E-03  0.30202679674E-01  0.56710490415E-01  0.64258365141E-01  0.51100000000E-03 0. -1.
         11    1    4    4    0    0  0.53035824972E-03  0.16707527199E-01  0.65350575201E-01  0.67456515957E-01  0.51100000000E-03 0.  1.
</event>
<event>
 8    1  0.1197213E+005  0.1043930E+01  0.7957747E-01            NaN
         13   -1    0    0    0    0  0.00000000000E+00  0.00000000000E+00  0.74505805969E-08  0.10566000000E+00  0.10566000000E+00 0.  1.
     999900   -1    0    0    0    0 -0.00000000000E+00 -0.00000000000E+00 -0.74505805969E-08  0.93827000000E+00  0.93827000000E+00 0.  1.
     999902    2    1    2    0    0  0.14881147485E-01 -0.15698659824E-01  0.13942763605E-01  0.10181948659E+01  0.10178695829E+01 0.  0.
     999903    2    3    3    0    0  0.41241303714E-01  0.51282874152E-02  0.12248189772E+00  0.13089031659E+00  0.20082710081E-01 0.  0.
         14    1    1    2    0    0 -0.14881147485E-01  0.15698659824E-01 -0.13942763605E-01  0.25735134111E-01  0.00000000000E+00 0. -1.
     999901    1    3    3    0    0 -0.26360156228E-01 -0.20826947239E-01 -0.10853913412E+00  0.88730454930E+00  0.88000000000E+00 0.  1.
        -11    1    4    4    0    0  0.33798102889E-01  0.79616088548E-02  0.73844380234E-01  0.81602405525E-01  0.51100000000E-03 0.  1.
         11    1    4    4    0    0  0.74432008249E-02 -0.28333214396E-02  0.48637517489E-01  0.49287911067E-01  0.51100000000E-03 0. -1.
</event>
<event>
 8    1  0.1197213E+005  0.1043930E+01  0.7957747E-01            NaN
         13   -1    0    0    0    0  0.00000000000E+00  0.00000000000E+00  0.74505805969E-08  0.10566000000E+00  0.10566000000E+00 0. -1.
     999900   -1    0    0    0    0 -0.00000000000E+00 -0.00000000000E+00 -0.74505805969E-08  0.93827000000E+00  0.93827000000E+00 0. -1.
     999902    2    1    2    0    0  0.91729822734E-02 -0.13823888386E-01 -0.17211582358E-01  0.10200243090E+01  0.10197441390E+01 0.  0.
     999903    2    3    3    0    0  0.37850237464E-01 -0.12445214765E+00  0.10224761834E-01  0.13221028024E+00  0.21308095068E-01 0.  0.
         14    1    1    2    0    0 -0.91729822734E-02  0.13823888386E-01  0.17211582358E-01  0.23905690978E-01  0.00000000000E+00 0. -1.
     999901    1    3    3    0    0 -0.28677255190E-01  0.11062825927E+00 -0.27436344192E-01  0.88781402878E+00  0.88000000000E+00 0.  1.
        -11    1    4    4    0    0  0.12204101379E-01 -0.60369034839E-01 -0.40425842663E-02  0.61724906371E-01  0.51100000000E-03 0. -1.
         11    1    4    4    0    0  0.25646136085E-01 -0.64083112815E-01  0.14267346100E-01  0.70485373872E-01  0.51100000000E-03 0.  1.
</event>
<event>
 8    1  0.1197213E+005  0.1043930E+01  0.7957747E-01            NaN
         13   -1    0    0    0    0  0.00000000000E+00  0.00000000000E+00  0.74505805969E-08  0.10566000000E+00  0.10566000000E+00 0. -1.
     999900   -1    0    0    0    0 -0.00000000000E+00 -0.00000000000E+00 -0.74505805969E-08  0.93827000000E+00  0.93827000000E+00 0. -1.
     999902    2    1    2    0    0  0.22220336893E-01 -0.10065733087E-01 -0.18393471901E-02  0.10194668532E+01  0.10191733018E+01 0.  0.
     999903    2    3    3    0    0 -0.28837146885E-01  0.97698854155E-01 -0.75578313834E-01  0.12836780812E+00  0.19737413578E-01 0.  0.
         14    1    1    2    0    0 -0.22220336893E-01  0.10065733087E-01  0.18393471901E-02  0.24463146820E-01  0.00000000000E+00 0.  1.
     999901    1    3    3    0    0  0.51057483778E-01 -0.10776458724E+00  0.73738966644E-01  0.89109904506E+00  0.88000000000E+00 0.  1.
        -11    1    4    4    0    0 -0.68233710169E-02  0.53992815202E-01 -0.34184149362E-01  0.64269741512E-01  0.51100000000E-03 0.  1.
         11    1    4    4    0    0 -0.22013775868E-01  0.43706038954E-01 -0.41394164472E-01  0.64098066604E-01  0.51100000000E-03 0. -1.
</event>
<event>
 8    1  0.1197213E+005  0.1043930E+01  0.7957747E-01            NaN
         13   -1    0    0    0    0  0.00000000000E+00  0.00000000000E+00  0.74505805969E-08  0.10566000000E+00  0.10566000000E+00 0. -1.
     999900   -1    0    0    0    0 -0.00000000000E+00 -0.00000000000E+00 -0.74505805969E-08  0.93827000000E+00  0.93827000000E+00 0. -1.
     999902    2    1    2    0    0 -0.20665659261E-01 -0.93896926879E-02  0.69698159736E-02  0.10201852293E+01  0.10199088626E+01 0.  0.
     999903    2    3    3    0    0  0.81495499432E-02  0.54935228717E-01  0.11670866332E+00  0.13057260212E+00  0.18547178009E-01 0.  0.
         14    1    1    2    0    0  0.20665659261E-01  0.93896926879E-02 -0.69698159736E-02  0.23744770712E-01  0.00000000000E+00 0.  1.
     999901    1    3    3    0    0 -0.28815209204E-01 -0.64324921405E-01 -0.10973884735E+00  0.88961262717E+00  0.88000000000E+00 0. -1.
        -11    1    4    4    0    0 -0.47679153445E-02  0.15810058783E-01  0.24198121774E-01  0.29300191021E-01  0.51100000000E-03 0.  1.
         11    1    4    4    0    0  0.12917465288E-01  0.39125169934E-01  0.92510541548E-01  0.10127241110E+00  0.51100000000E-03 0. -1.
</event>
<event>
 8    1  0.1197213E+005  0.1043930E+01  0.7957747E-01            NaN
         13   -1    0    0    0    0  0.00000000000E+00  0.00000000000E+00  0.74505805969E-08  0.10566000000E+00  0.10566000000E+00 0. -1.
     999900   -1    0    0    0    0 -0.00000000000E+00 -0.00000000000E+00 -0.74505805969E-08  0.93827000000E+00  0.93827000000E+00 0.  1.
     999902    2    1    2    0    0  0.22196367968E-01  0.19661315884E-02 -0.52178224574E-02  0.10210439760E+01  0.10207874562E+01 0.  0.
     999903    2    3    3    0    0 -0.85949632670E-01  0.78567129561E-01  0.52462601830E-01  0.12925347273E+00  0.19849494128E-01 0.  0.
         14    1    1    2    0    0 -0.22196367968E-01 -0.19661315884E-02  0.52178224574E-02  0.22886024023E-01  0.00000000000E+00 0. -1.
     999901    1    3    3    0    0  0.10814600064E+00 -0.76600997973E-01 -0.57680424288E-01  0.89179050325E+00  0.88000000000E+00 0.  1.
        -11    1    4    4    0    0 -0.68344481657E-01  0.53013288336E-01  0.44207972490E-01  0.97138987362E-01  0.51100000000E-03 0.  1.
         11    1    4    4    0    0 -0.17605151013E-01  0.25553841225E-01  0.82546293400E-02  0.32114485363E-01  0.51100000000E-03 0. -1.
</event>
<event>
 8    1  0.1197213E+005  0.1043930E+01  0.7957747E-01            NaN
         13   -1    0    0    0    0  0.00000000000E+00  0.00000000000E+00  0.74505805969E-08  0.10566000000E+00  0.10566000000E+00 0. -1.
     999900   -1    0    0    0    0 -0.00000000000E+00 -0.00000000000E+00 -0.74505805969E-08  0.93827000000E+00  0.93827000000E+00 0. -1.
     999902    2    1    2    0    0  0.11957580765E-01  0.18665680445E-01 -0.30513518978E-02  0.10215536260E+01  0.10213085277E+01 0.  0.
     999903    2    3    3    0    0  0.10460991157E+00 -0.77170966278E-01  0.26009484691E-02  0.13149684931E+00  0.19648532061E-01 0.  0.
         14    1    1    2    0    0 -0.11957580765E-01 -0.18665680445E-01  0.30513518978E-02  0.22376373983E-01  0.00000000000E+00 0.  1.
     999901    1    3    3    0    0 -0.92652330801E-01  0.95836646723E-01 -0.56523003669E-02  0.89005677670E+00  0.88000000000E+00 0. -1.
        -11    1    4    4    0    0  0.26023143795E-01 -0.27971926310E-01  0.62019457999E-02  0.38708628588E-01  0.51100000000E-03 0.  1.
         11    1    4    4    0    0  0.78586767771E-01 -0.49199039968E-01 -0.36009973309E-02  0.92788220725E-01  0.51100000000E-03 0. -1.
</event>
<event>
 8    1  0.1197213E+005  0.1043930E+01  0.7957747E-01            NaN
         13   -1    0    0    0    0  0.00000000000E+00  0.00000000000E+00  0.74505805969E-08  0.10566000000E+00  0.10566000000E+00 0. -1.
     999900   -1    0    0    0    0 -0.00000000000E+00 -0.00000000000E+00 -0.74505805969E-08  0.93827000000E+00  0.93827000000E+00 0.  1.
     999902    2    1    2    0    0 -0.88877794016E-02 -0.20529658391E-01  0.72409442901E-02  0.10204163705E+01  0.10201454203E+01 0.  0.
     999903    2    3    3    0    0 -0.85913149141E-01  0.80155739442E-01 -0.50561915513E-01  0.12945530095E+00  0.19903665050E-01 0.  0.
         14    1    1    2    0    0  0.88877794016E-02  0.20529658391E-01 -0.72409442901E-02  0.23513629464E-01  0.00000000000E+00 0. -1.
     999901    1    3    3    0    0  0.77025369739E-01 -0.10068539783E+00  0.57802859803E-01  0.89096106959E+00  0.88000000000E+00 0. -1.
        -11    1    4    4    0    0 -0.35303885046E-01  0.23641507634E-01 -0.25511918334E-01  0.49562125465E-01  0.51100000000E-03 0. -1.
         11    1    4    4    0    0 -0.50609264095E-01  0.56514231808E-01 -0.25049997180E-01  0.79893175483E-01  0.51100000000E-03 0.  1.
</event>
<event>
 8    1  0.1197213E+005  0.1043930E+01  0.7957747E-01            NaN
         13   -1    0    0    0    0  0.00000000000E+00  0.00000000000E+00  0.74505805969E-08  0.10566000000E+00  0.10566000000E+00 0.  1.
     999900   -1    0    0    0    0 -0.00000000000E+00 -0.00000000000E+00 -0.74505805969E-08  0.93827000000E+00  0.93827000000E+00 0.  1.
     999902    2    1    2    0    0  0.17998462108E-01  0.12567731249E-01 -0.79661154180E-02  0.10205772378E+01  0.10203100249E+01 0.  0.
     999903    2    3    3    0    0  0.97739547783E-01 -0.84643754822E-01  0.12049348389E-01  0.13141508581E+00  0.20178046220E-01 0.  0.
         14    1    1    2    0    0 -0.17998462108E-01 -0.12567731249E-01  0.79661154180E-02  0.23352762189E-01  0.00000000000E+00 0.  1.
     999901    1    3    3    0    0 -0.79741085676E-01  0.97211486071E-01 -0.20015463808E-01  0.88916215201E+00  0.88000000000E+00 0. -1.
        -11    1    4    4    0    0  0.22858906591E-01 -0.21983512053E-01 -0.55519052830E-02  0.32200763748E-01  0.51100000000E-03 0.  1.
         11    1    4    4    0    0  0.74880641193E-01 -0.62660242769E-01  0.17601253672E-01  0.99214322057E-01  0.51100000000E-03 0. -1.
</event>
<event>
 8    1  0.1197213E+005  0.1043930E+01  0.7957747E-01            NaN
         13   -1    0    0    0    0  0.00000000000E+00  0.00000000000E+00  0.74505805969E-08  0.10566000000E+00  0.10566000000E+00 0. -1.
     999900   -1    0    0    0    0 -0.00000000000E+00 -0.00000000000E+00 -0.74505805969E-08  0.93827000000E+00  0.93827000000E+00 0. -1.
     999902    2    1    2    0    0 -0.95732975529E-02 -0.14954844484E-01  0.37525506481E-02  0.10257812525E+01  0.10256206906E+01 0.  0.
     999903    2    3    3    0    0 -0.78834457904E-01  0.37346038248E-01  0.10240413585E+00  0.13602587829E+00  0.20170131394E-01 0.  0.
         14    1    1    2    0    0  0.95732975529E-02  0.14954844484E-01 -0.37525506481E-02  0.18148747503E-01  0.00000000000E+00 0. -1.
     999901    1    3    3    0    0  0.69261160351E-01 -0.52300882732E-01 -0.98651585198E-01  0.88975537421E+00  0.88000000000E+00 0. -1.
        -11    1    4    4    0    0 -0.48566345928E-01  0.14680335701E-01  0.68431082927E-01  0.85189649868E-01  0.51100000000E-03 0.  1.
         11    1    4    4    0    0 -0.30268111976E-01  0.22665702547E-01  0.33973052919E-01  0.50836228422E-01  0.51100000000E-03 0. -1.
</event>
<event>
 8    1  0.1197213E+005  0.1043930E+01  0.7957747E-01            NaN
         13   -1    0    0    0    0  0.00000000000E+00  0.00000000000E+00  0.74505805969E-08  0.10566000000E+00  0.10566000000E+00 0.  1.
     999900   -1    0    0    0    0 -0.00000000000E+00 -0.00000000000E+00 -0.74505805969E-08  0.93827000000E+00  0.93827000000E+00 0.  1.
     999902    2    1    2    0    0  0.22243431870E-01  0.13313584502E-01  0.17326291976E-02  0.10179487799E+01  0.10176171651E+01 0.  0.
     999903    2    3    3    0    0  0.56915392397E-03 -0.70450361545E-01  0.10470229045E+00  0.12773031002E+00  0.19720169777E-01 0.  0.
         14    1    1    2    0    0 -0.22243431870E-01 -0.13313584502E-01 -0.17326291976E-02  0.25981220094E-01  0.00000000000E+00 0. -1.
     999901    1    3    3    0    0  0.21674277946E-01  0.83763946047E-01 -0.10296966125E+00  0.89021846988E+00  0.88000000000E+00 0.  1.
        -11    1    4    4    0    0  0.64864385417E-02 -0.18995523690E-01  0.19314436886E-01  0.27860588623E-01  0.51100000000E-03 0. -1.
         11    1    4    4    0    0 -0.59172846178E-02 -0.51454837855E-01  0.85387853561E-01  0.99869721401E-01  0.51100000000E-03 0.  1.
</event>
<event>
 8    1  0.1197213E+005  0.1043930E+01  0.7957747E-01            NaN
         13   -1    0    0    0    0  0.00000000000E+00  0.00000000000E+00  0.74505805969E-08  0.10566000000E+00  0.10566000000E+00 0. -1.
     999900   -1    0    0    0    0 -0.00000000000E+00 -0.00000000000E+00 -0.74505805969E-08  0.93827000000E+00  0.93827000000E+00 0.  1.
     999902    2    1    2    0    0 -0.16900840770E-01  0.37943790832E-02 -0.14827158730E-01  0.10211291148E+01  0.10208745215E+01 0.  0.
     999903    2    3    3    0    0  0.74083640668E-01  0.62220303100E-01  0.83218348348E-01  0.12910630905E+00  0.19580439288E-01 0.  0.
         14    1    1    2    0    0  0.16900840770E-01 -0.37943790832E-02  0.14827158730E-01  0.22800885232E-01  0.00000000000E+00 0. -1.
     999901    1    3    3    0    0 -0.90984481438E-01 -0.58425924017E-01 -0.98045507078E-01  0.89202280572E+00  0.88000000000E+00 0.  1.
        -11    1    4    4    0    0  0.67068119491E-02  0.78844797691E-02  0.23007552696E-02  0.10616070062E-01  0.51100000000E-03 0. -1.
         11    1    4    4    0    0  0.67376828719E-01  0.54335823331E-01  0.80917593079E-01  0.11849023899E+00  0.51100000000E-03 0.  1.
</event>
<event>
 8    1  0.1197213E+005  0.1043930E+01  0.7957747E-01            NaN
         13   -1    0    0    0    0  0.00000000000E+00  0.00000000000E+00  0.74505805969E-08  0.10566000000E+00  0.10566000000E+00 0.  1.
     999900   -1    0    0    0    0 -0.00000000000E+00 -0.00000000000E+00 -0.74505805969E-08  0.93827000000E+00  0.93827000000E+00 0.  1.
     999902    2    1    2    0    0  0.69429648874E-02  0.81061954974E-02  0.21058379284E-01  0.10203213045E+01  0.10200481331E+01 0.  0.
     999903    2    3    3    0    0 -0.36535930071E-01  0.51158703191E-01 -0.11028900515E+00  0.12847150314E+00  0.19727528030E-01 0.  0.
         14    1    1    2    0    0 -0.69429648874E-02 -0.81061954974E-02 -0.21058379284E-01  0.23608695537E-01  0.00000000000E+00 0. -1.
     999901    1    3    3    0    0  0.43478894959E-01 -0.43052507694E-01  0.13134738444E+00  0.89184980133E+00  0.88000000000E+00 0. -1.
        -11    1    4    4    0    0 -0.10742160084E-01  0.38644858791E-02 -0.13390589792E-01  0.17603899294E-01  0.51100000000E-03 0.  1.
         11    1    4    4    0    0 -0.25793769988E-01  0.47294217312E-01 -0.96898415363E-01  0.11086760384E+00  0.51100000000E-03 0. -1.
</event>
<event>
 8    1  0.1197213E+005  0.1043930E+01  0.7957747E-01            NaN
         13   -1    0    0    0    0  0.00000000000E+00  0.00000000000E+00  0.74505805969E-08  0.10566000000E+00  0.10566000000E+00 0. -1.
     999900   -1    0    0    0    0 -0.00000000000E+00 -0.00000000000E+00 -0.74505805969E-08  0.93827000000E+00  0.93827000000E+00 0.  1.
     999902    2    1    2    0    0  0.19836485297E-01  0.28607175014E-04  0.13107033832E-01  0.10201543548E+01  0.10198772604E+01 0.  0.
     999903    2    3    3    0    0 -0.10155386308E+00  0.73420952560E-01 -0.18315379916E-01  0.12824100639E+00  0.20161329272E-01 0.  0.
         14    1    1    2    0    0 -0.19836485297E-01 -0.28607175014E-04 -0.13107033832E-01  0.23775645169E-01  0.00000000000E+00 0.  1.
     999901    1    3    3    0    0  0.12139034837E+00 -0.73392345385E-01  0.31422413748E-01  0.89191334844E+00  0.88000000000E+00 0. -1.
        -11    1    4    4    0    0 -0.79296002270E-01  0.66518261186E-01 -0.12827869717E-01  0.10429453682E+00  0.51100000000E-03 0.  1.
         11    1    4    4    0    0 -0.22257860808E-01  0.69026913741E-02 -0.54875101991E-02  0.23946469575E-01  0.51100000000E-03 0. -1.
</event>
<event>
 8    1  0.1197213E+005  0.1043930E+01  0.7957747E-01            NaN
         13   -1    0    0    0    0  0.00000000000E+00  0.00000000000E+00  0.74505805969E-08  0.10566000000E+00  0.10566000000E+00 0.  1.
     999900   -1    0    0    0    0 -0.00000000000E+00 -0.00000000000E+00 -0.74505805969E-08  0.93827000000E+00  0.93827000000E+00 0.  1.
     999902    2    1    2    0    0  0.17378460666E-01 -0.23057379108E-02  0.14872576485E-01  0.10209404186E+01  0.10206815456E+01 0.  0.
     999903    2    3    3    0    0 -0.45081898826E-01  0.94643982365E-01 -0.72658322083E-01  0.12910960336E+00  0.20004922225E-01 0.  0.
         14    1    1    2    0    0 -0.17378460666E-01  0.23057379108E-02 -0.14872576485E-01  0.22989581417E-01  0.00000000000E+00 0. -1.
     999901    1    3    3    0    0  0.62460359493E-01 -0.96949720276E-01  0.87530898568E-01  0.89183081522E+00  0.88000000000E+00 0. -1.
        -11    1    4    4    0    0 -0.38738160054E-01  0.62369620400E-01 -0.44869518993E-01  0.86047367472E-01  0.51100000000E-03 0.  1.
         11    1    4    4    0    0 -0.63437387727E-02  0.32274361965E-01 -0.27788803090E-01  0.43062235892E-01  0.51100000000E-03 0. -1.
</event>
<event>
 8    1  0.1197213E+005  0.1043930E+01  0.7957747E-01            NaN
         13   -1    0    0    0    0  0.00000000000E+00  0.00000000000E+00  0.74505805969E-08  0.10566000000E+00  0.10566000000E+00 0. -1.
     999900   -1    0    0    0    0 -0.00000000000E+00 -0.00000000000E+00 -0.74505805969E-08  0.93827000000E+00  0.93827000000E+00 0.  1.
     999902    2    1    2    0    0  0.93990079129E-02  0.10919285060E-01  0.19170215630E-01  0.10199493974E+01  0.10196674477E+01 0.  0.
     999903    2    3    3    0    0 -0.30811820412E-01 -0.12321213256E+00  0.48603548958E-03  0.12868218350E+00  0.20694690930E-01 0.  0.
         14    1    1    2    0    0 -0.93990079129E-02 -0.10919285060E-01 -0.19170215630E-01  0.23980602646E-01  0.00000000000E+00 0.  1.
     999901    1    3    3    0    0  0.40210828325E-01  0.13413141762E+00  0.18684180141E-01  0.89126721386E+00  0.88000000000E+00 0. -1.
        -11    1    4    4    0    0 -0.83379157620E-02 -0.39726337481E-01  0.96862680997E-02  0.41734729419E-01  0.51100000000E-03 0. -1.
         11    1    4    4    0    0 -0.22473904650E-01 -0.83485795077E-01 -0.92002326102E-02  0.86947454079E-01  0.51100000000E-03 0.  1.
</event>
<event>
 8    1  0.1197213E+005  0.1043930E+01  0.7957747E-01            NaN
         13   -1    0    0    0    0  0.00000000000E+00  0.00000000000E+00  0.74505805969E-08  0.10566000000E+00  0.10566000000E+00 0.  1.
     999900   -1    0    0    0    0 -0.00000000000E+00 -0.00000000000E+00 -0.74505805969E-08  0.93827000000E+00  0.93827000000E+00 0.  1.
     999902    2    1    2    0    0 -0.21924055512E-02 -0.91210498064E-02  0.21944655837E-01  0.10200643739E+01  0.10197851532E+01 0.  0.
     999903    2    3    3    0    0  0.19479641572E-01 -0.85926203834E-02 -0.12430257165E+00  0.12773135955E+00  0.20270208026E-01 0.  0.
         14    1    1    2    0    0  0.21924055512E-02  0.91210498064E-02 -0.21944655837E-01  0.23865626149E-01  0.00000000000E+00 0. -1.
     999901    1    3    3    0    0 -0.21672047123E-01 -0.52842942306E-03  0.14624722749E+00  0.89233301430E+00  0.88000000000E+00 0. -1.
        -11    1    4    4    0    0  0.54528600100E-02 -0.15783875738E-02 -0.87980254893E-01  0.88164683188E-01  0.51100000000E-03 0. -1.
         11    1    4    4    0    0  0.14026781562E-01 -0.70142328096E-02 -0.36322316755E-01  0.39566676362E-01  0.51100000000E-03 0.  1.
</event>
<event>
 8    1  0.1197213E+005  0.1043930E+01  0.7957747E-01            NaN
         13   -1    0    0    0    0  0.00000000000E+00  0.00000000000E+00  0.74505805969E-08  0.10566000000E+00  0.10566000000E+00 0. -1.
     999900   -1    0    0    0    0 -0.00000000000E+00 -0.00000000000E+00 -0.74505805969E-08  0.93827000000E+00  0.93827000000E+00 0. -1.
     999902    2    1    2    0    0 -0.10661338149E-01 -0.81414771225E-02 -0.20805222057E-01  0.10191751006E+01  0.10188744185E+01 0.  0.
     999903    2    3    3    0    0 -0.53778982473E-02  0.69665553867E-01  0.10401037998E+00  0.12695271612E+00  0.20411315524E-01 0.  0.
         14    1    1    2    0    0  0.10661338149E-01  0.81414771225E-02  0.20805222057E-01  0.24754899428E-01  0.00000000000E+00 0. -1.
     999901    1    3    3    0    0 -0.52834399013E-02 -0.77807030990E-01 -0.12481560203E+00  0.89222238445E+00  0.88000000000E+00 0. -1.
        -11    1    4    4    0    0 -0.37055814774E-02  0.54709724878E-01  0.64443293038E-01  0.84617282330E-01  0.51100000000E-03 0.  1.
         11    1    4    4    0    0 -0.16723167699E-02  0.14955828989E-01  0.39567086939E-01  0.42335433788E-01  0.51100000000E-03 0. -1.
</event>
<event>
 8    1  0.1197213E+005  0.1043930E+01  0.7957747E-01            NaN
         13   -1    0    0    0    0  0.00000000000E+00  0.00000000000E+00  0.74505805969E-08  0.10566000000E+00  0.10566000000E+00 0. -1.
     999900   -1    0    0    0    0 -0.00000000000E+00 -0.00000000000E+00 -0.74505805969E-08  0.93827000000E+00  0.93827000000E+00 0.  1.
     999902    2    1    2    0    0 -0.21389067434E-01  0.73933606347E-02  0.33993175996E-02  0.10210453032E+01  0.10207888135E+01 0.  0.
     999903    2    3    3    0    0  0.59864070544E-01 -0.83885246804E-01 -0.75141346278E-01  0.12913583892E+00  0.20233669934E-01 0.  0.
         14    1    1    2    0    0  0.21389067434E-01 -0.73933606347E-02 -0.33993175996E-02  0.22884696793E-01  0.00000000000E+00 0. -1.
     999901    1    3    3    0    0 -0.81253137977E-01  0.91278607439E-01  0.78540663878E-01  0.89190946429E+00  0.88000000000E+00 0. -1.
        -11    1    4    4    0    0  0.14266916543E-01 -0.21130090832E-01 -0.30041509325E-01  0.39405317531E-01  0.51100000000E-03 0. -1.
         11    1    4    4    0    0  0.45597154001E-01 -0.62755155972E-01 -0.45099836953E-01  0.89730521386E-01  0.51100000000E-03 0.  1.
</event>
<event>
 8    1  0.1197213E+005  0.1043930E+01  0.7957747E-01            NaN
         13   -1    0    0    0    0  0.00000000000E+00  0.00000000000E+00  0.74505805969E-08  0.10566000000E+00  0.10566000000E+00 0. -1.
     999900   -1    0    0    0    0 -0.00000000000E+00 -0.00000000000E+00 -0.74505805969E-08  0.93827000000E+00  0.93827000000E+00 0.  1.
     999902    2    1    2    0    0  0.10559426146E-01 -0.21425414796E-01 -0.13085502970E-01  0.10166943567E+01  0.10163294912E+01 0.  0.
     999903    2    3    3    0    0 -0.29817724874E-01 -0.12016567763E+00  0.31333562834E-01  0.12913984722E+00  0.19142131152E-01 0.  0.
         14    1    1    2    0    0 -0.10559426146E-01  0.21425414796E-01  0.13085502970E-01  0.27235643332E-01  0.00000000000E+00 0. -1.
     999901    1    3    3    0    0  0.40377151020E-01  0.98740262830E-01 -0.44419065804E-01  0.88755450944E+00  0.88000000000E+00 0.  1.
        -11    1    4    4    0    0 -0.22812949327E-01 -0.53110980065E-01  0.16354300923E-01  0.60074380064E-01  0.51100000000E-03 0. -1.
         11    1    4    4    0    0 -0.70047755467E-02 -0.67054697562E-01  0.14979261911E-01  0.69065467159E-01  0.51100000000E-03 0.  1.
</event>
<event>
 8    1  0.1197213E+005  0.1043930E+01  0.7957747E-01            NaN
         13   -1    0    0    0    0  0.00000000000E+00  0.00000000000E+00  0.74505805969E-08  0.10566000000E+00  0.10566000000E+00 0. -1.
     999900   -1    0    0    0    0 -0.00000000000E+00 -0.00000000000E+00 -0.74505805969E-08  0.93827000000E+00  0.93827000000E+00 0.  1.
     999902    2    1    2    0    0  0.58663127681E-02 -0.19563642187E-01  0.11215165482E-01  0.10206291490E+01  0.10203631364E+01 0.  0.
     999903    2    3    3    0    0  0.60867091050E-01 -0.93648250895E-01  0.70889507052E-01  0.13379509354E+00  0.20025163594E-01 0.  0.
         14    1    1    2    0    0 -0.58663127681E-02  0.19563642187E-01 -0.11215165482E-01  0.23300851012E-01  0.00000000000E+00 0.  1.
     999901    1    3    3    0    0 -0.55000778282E-01  0.74084608708E-01 -0.59674341571E-01  0.88683405545E+00  0.88000000000E+00 0.  1.
        -11    1    4    4    0    0  0.41250618274E-01 -0.78431604683E-01  0.56418939464E-01  0.10505469039E+00  0.51100000000E-03 0.  1.
         11    1    4    4    0    0  0.19616472776E-01 -0.15216646212E-01  0.14470567589E-01  0.28740403154E-01  0.51100000000E-03 0. -1.
</event>
<event>
 8    1  0.1197213E+005  0.1043930E+01  0.7957747E-01            NaN
         13   -1    0    0    0    0  0.00000000000E+00  0.00000000000E+00  0.74505805969E-08  0.10566000000E+00  0.10566000000E+00 0. -1.
     999900   -1    0    0    0    0 -0.00000000000E+00 -0.00000000000E+00 -0.74505805969E-08  0.93827000000E+00  0.93827000000E+00 0. -1.
     999902    2    1    2    0    0 -0.33672583784E-02 -0.83843290819E-02  0.22244168417E-01  0.10199208677E+01  0.10196382388E+01 0.  0.
     999903    2    3    3    0    0 -0.10781482891E+00  0.55550223841E-01 -0.40028993120E-01  0.12926107372E+00  0.19905782774E-01 0.  0.
         14    1    1    2    0    0  0.33672583784E-02  0.83843290819E-02 -0.22244168417E-01  0.24009132256E-01  0.00000000000E+00 0.  1.
     999901    1    3    3    0    0  0.10444757053E+00 -0.63934552923E-01  0.62273161537E-01  0.89065979403E+00  0.88000000000E+00 0.  1.
        -11    1    4    4    0    0 -0.44226710337E-01  0.33857320121E-01 -0.19232878370E-01  0.58927792801E-01  0.51100000000E-03 0.  1.
         11    1    4    4    0    0 -0.63588118568E-01  0.21692903720E-01 -0.20796114751E-01  0.70333280917E-01  0.51100000000E-03 0. -1.
</event>
<event>
 8    1  0.1197213E+005  0.1043930E+01  0.7957747E-01            NaN
         13   -1    0    0    0    0  0.00000000000E+00  0.00000000000E+00  0.74505805969E-08  0.10566000000E+00  0.10566000000E+00 0.  1.
     999900   -1    0    0    0    0 -0.00000000000E+00 -0.00000000000E+00 -0.74505805969E-08  0.93827000000E+00  0.93827000000E+00 0. -1.
     999902    2    1    2    0    0  0.35764769875E-02 -0.18334758039E-01 -0.12291615777E-01  0.10215684625E+01  0.10213236927E+01 0.  0.
     999903    2    3    3    0    0  0.74773845654E-01  0.10420895884E+00  0.57644168272E-02  0.13004614190E+00  0.20691433640E-01 0.  0.
         14    1    1    2    0    0 -0.35764769875E-02  0.18334758039E-01  0.12291615777E-01  0.22361537479E-01  0.00000000000E+00 0.  1.
     999901    1    3    3    0    0 -0.71197368667E-01 -0.12254371688E+00 -0.18056032605E-01  0.89152232062E+00  0.88000000000E+00 0.  1.
        -11    1    4    4    0    0  0.56667271868E-01  0.80684651713E-01  0.13098313406E-01  0.99463659987E-01  0.51100000000E-03 0. -1.
         11    1    4    4    0    0  0.18106573786E-01  0.23524307124E-01 -0.73338965791E-02  0.30582481913E-01  0.51100000000E-03 0.  1.
</event>
<event>
 8    1  0.1197213E+005  0.1043930E+01  0.7957747E-01            NaN
         13   -1    0    0    0    0  0.00000000000E+00  0.00000000000E+00  0.74505805969E-08  0.10566000000E+00  0.10566000000E+00 0.  1.
     999900   -1    0    0    0    0 -0.00000000000E+00 -0.00000000000E+00 -0.74505805969E-08  0.93827000000E+00  0.93827000000E+00 0. -1.
     999902    2    1    2    0    0 -0.63346904657E-02  0.22783954527E-01 -0.11043438510E-01  0.10178302984E+01  0.10174956128E+01 0.  0.
     999903    2    3    3    0    0 -0.49758365492E-01  0.80486791120E-02  0.11565384264E+00  0.12757474809E+00  0.18942778587E-01 0.  0.
         14    1    1    2    0    0  0.63346904657E-02 -0.22783954527E-01  0.11043438510E-01  0.26099701556E-01  0.00000000000E+00 0.  1.
     999901    1    3    3    0    0  0.43423675026E-01  0.14735275415E-01 -0.12669728115E+00  0.89025555036E+00  0.88000000000E+00 0. -1.
        -11    1    4    4    0    0 -0.43842867326E-01  0.21986108497E-02  0.83251867719E-01  0.94117827773E-01  0.51100000000E-03 0. -1.
         11    1    4    4    0    0 -0.59154981657E-02  0.58500682623E-02  0.32401974918E-01  0.33456920313E-01  0.51100000000E-03 0.  1.
</event>
<event>
 8    1  0.1197213E+005  0.1043930E+01  0.7957747E-01            NaN
         13   -1    0    0    0    0  0.00000000000E+00  0.00000000000E+00  0.74505805969E-08  0.10566000000E+00  0.10566000000E+00 0. -1.
     999900   -1    0    0    0    0 -0.00000000000E+00 -0.00000000000E+00 -0.74505805969E-08  0.93827000000E+00  0.93827000000E+00 0. -1.
     999902    2    1    2    0    0 -0.15878822255E-01  0.10348819304E-01  0.11577453249E-01  0.10217202616E+01  0.10214788399E+01 0.  0.
     999903    2    3    3    0    0 -0.25880655065E-01  0.72822228364E-01  0.10770478987E+00  0.13422748507E+00  0.21066816045E-01 0.  0.
         14    1    1    2    0    0  0.15878822255E-01 -0.10348819304E-01 -0.11577453249E-01  0.22209738425E-01  0.00000000000E+00 0. -1.
     999901    1    3    3    0    0  0.10001832811E-01 -0.62473409060E-01 -0.96127336617E-01  0.88749277650E+00  0.88000000000E+00 0. -1.
        -11    1    4    4    0    0 -0.10369888235E-01  0.38554305467E-01  0.72173999250E-01  0.82482218331E-01  0.51100000000E-03 0. -1.
         11    1    4    4    0    0 -0.15510766831E-01  0.34267922897E-01  0.35530790616E-01  0.51745266742E-01  0.51100000000E-03 0.  1.
</event>
<event>
 8    1  0.1197213E+005  0.1043930E+01  0.7957747E-01            NaN
         13   -1    0    0    0    0  0.00000000000E+00  0.00000000000E+00  0.74505805969E-08  0.10566000000E+00  0.10566000000E+00 0. -1.
     999900   -1    0    0    0    0 -0.00000000000E+00 -0.00000000000E+00 -0.74505805969E-08  0.93827000000E+00  0.93827000000E+00 0. -1.
     999902    2    1    2    0    0 -0.18986443787E-01  0.10171751962E-01  0.12279325406E-01  0.10191362222E+01  0.10188345832E+01 0.  0.
     999903    2    3    3    0    0  0.32417074122E-01 -0.11731837645E+00 -0.31654290197E-01  0.12738164997E+00  0.20239133200E-01 0.  0.
         14    1    1    2    0    0  0.18986443787E-01 -0.10171751962E-01 -0.12279325406E-01  0.24793777809E-01  0.00000000000E+00 0.  1.
     999901    1    3    3    0    0 -0.51403517909E-01  0.12749012842E+00  0.43933615603E-01  0.89175457222E+00  0.88000000000E+00 0.  1.
        -11    1    4    4    0    0  0.28592298331E-02 -0.25314741715E-02 -0.42227764963E-02  0.57163379061E-02  0.51100000000E-03 0. -1.
         11    1    4    4    0    0  0.29557844289E-01 -0.11478690228E+00 -0.27431513701E-01  0.12166531206E+00  0.51100000000E-03 0.  1.
</event>
<event>
 8    1  0.1197213E+005  0.1043930E+01  0.7957747E-01            NaN
         13   -1    0    0    0    0  0.00000000000E+00  0.00000000000E+00  0.74505805969E-08  0.10566000000E+00  0.10566000000E+00 0.  1.
     999900   -1    0    0    0    0 -0.00000000000E+00 -0.00000000000E+00 -0.74505805969E-08  0.93827000000E+00  0.93827000000E+00 0.  1.
     999902    2    1    2    0    0  0.85750223857E-02  0.21925963534E-01 -0.36557834938E-02  0.10201047269E+01  0.10198264608E+01 0.  0.
     999903    2    3    3    0    0 -0.14747665808E-01 -0.40204839004E-01  0.11986528339E+00  0.12900336432E+00  0.20982352515E-01 0.  0.
         14    1    1    2    0    0 -0.85750223857E-02 -0.21925963534E-01  0.36557834938E-02  0.23825273110E-01  0.00000000000E+00 0.  1.
     999901    1    3    3    0    0  0.23322688194E-01  0.62130802538E-01 -0.12352106689E+00  0.89110136257E+00  0.88000000000E+00 0.  1.
        -11    1    4    4    0    0 -0.12966251007E-01 -0.41884005416E-01  0.10287292744E+00  0.11182796563E+00  0.51100000000E-03 0.  1.
         11    1    4    4    0    0 -0.17814148014E-02  0.16791664112E-02  0.16992355948E-01  0.17175398691E-01  0.51100000000E-03 0. -1.
</event>
<event>
 8    1  0.1197213E+005  0.1043930E+01  0.7957747E-01            NaN
         13   -1    0    0    0    0  0.00000000000E+00  0.00000000000E+00  0.74505805969E-08  0.10566000000E+00  0.10566000000E+00 0. -1.
     999900   -1    0    0    0    0 -0.00000000000E+00 -0.00000000000E+00 -0.74505805969E-08  0.93827000000E+00  0.93827000000E+00 0.  1.
     999902    2    1    2    0    0  0.20933678296E-01 -0.54268743913E-02  0.12620922154E-01  0.10188908800E+01  0.10185831669E+01 0.  0.
     999903    2    3    3    0    0  0.52641333468E-01  0.10140843150E+00  0.56760152487E-01  0.13076508397E+00  0.28688191044E-01 0.  0.
         14    1    1    2    0    0 -0.20933678296E-01  0.54268743913E-02 -0.12620922154E-01  0.25039119966E-01  0.00000000000E+00 0. -1.
     999901    1    3    3    0    0 -0.31707655172E-01 -0.10683530590E+00 -0.44139230334E-01  0.88812579607E+00  0.88000000000E+00 0.  1.
        -11    1    4    4    0    0  0.22809827711E-01  0.42441522507E-01  0.39905553801E-01  0.62564250320E-01  0.51100000000E-03 0. -1.
         11    1    4    4    0    0  0.29831505757E-01  0.58966908998E-01  0.16854598686E-01  0.68200833649E-01  0.51100000000E-03 0.  1.
</event>
<event>
 8    1  0.1197213E+005  0.1043930E+01  0.7957747E-01            NaN
         13   -1    0    0    0    0  0.00000000000E+00  0.00000000000E+00  0.74505805969E-08  0.10566000000E+00  0.10566000000E+00 0.  1.
     999900   -1    0    0    0    0 -0.00000000000E+00 -0.00000000000E+00 -0.74505805969E-08  0.93827000000E+00  0.93827000000E+00 0. -1.
     999902    2    1    2    0    0  0.16489721233E-01  0.16092208576E-01  0.85362358256E-03  0.10208735745E+01  0.10206131767E+01 0.  0.
     999903    2    3    3    0    0  0.65281241094E-01  0.10974323217E+00 -0.28748786454E-01  0.13406613808E+00  0.29017567281E-01 0.  0.
         14    1    1    2    0    0 -0.16489721233E-01 -0.16092208576E-01 -0.85362358256E-03  0.23056425490E-01  0.00000000000E+00 0.  1.
     999901    1    3    3    0    0 -0.48791519862E-01 -0.93651023593E-01  0.29602410037E-01  0.88680743643E+00  0.88000000000E+00 0.  1.
        -11    1    4    4    0    0  0.17939203124E-01  0.52457045766E-01 -0.34100709225E-02  0.55546794362E-01  0.51100000000E-03 0.  1.
         11    1    4    4    0    0  0.47342037971E-01  0.57286186403E-01 -0.25338715532E-01  0.78519343716E-01  0.51100000000E-03 0. -1.
</event>
<event>
 8    1  0.1197213E+005  0.1043930E+01  0.7957747E-01            NaN
         13   -1    0    0    0    0  0.00000000000E+00  0.00000000000E+00  0.74505805969E-08  0.10566000000E+00  0.10566000000E+00 0.  1.
     999900   -1    0    0    0    0 -0.00000000000E+00 -0.00000000000E+00 -0.74505805969E-08  0.93827000000E+00  0.93827000000E+00 0. -1.
     999902    2    1    2    0    0  0.14688714788E-01  0.17741497480E-01 -0.52688567974E-02  0.10203020520E+01  0.10200284297E+01 0.  0.
     999903    2    3    3    0    0  0.41430497805E-01 -0.80539932554E-01 -0.91883407812E-01  0.13020293229E+00  0.17523585875E-01 0.  0.
         14    1    1    2    0    0 -0.14688714788E-01 -0.17741497480E-01  0.52688567974E-02  0.23627948005E-01  0.00000000000E+00 0.  1.
     999901    1    3    3    0    0 -0.26741783016E-01  0.98281430035E-01  0.86614551015E-01  0.89009911970E+00  0.88000000000E+00 0.  1.
        -11    1    4    4    0    0  0.37593820814E-01 -0.73080182340E-01 -0.74636799937E-01  0.11101766274E+00  0.51100000000E-03 0.  1.
         11    1    4    4    0    0  0.38366769911E-02 -0.74597502140E-02 -0.17246607875E-01  0.19185269552E-01  0.51100000000E-03 0. -1.
</event>
<event>
 8    1  0.1197213E+005  0.1043930E+01  0.7957747E-01            NaN
         13   -1    0    0    0    0  0.00000000000E+00  0.00000000000E+00  0.74505805969E-08  0.10566000000E+00  0.10566000000E+00 0. -1.
     999900   -1    0    0    0    0 -0.00000000000E+00 -0.00000000000E+00 -0.74505805969E-08  0.93827000000E+00  0.93827000000E+00 0. -1.
     999902    2    1    2    0    0 -0.18113343608E-02 -0.19303094040E-01 -0.14754476979E-01  0.10195664009E+01  0.10192752625E+01 0.  0.
     999903    2    3    3    0    0 -0.91930141489E-01  0.40060034963E-01  0.77626847288E-01  0.12817440542E+00  0.18622391593E-01 0.  0.
         14    1    1    2    0    0  0.18113343608E-02  0.19303094040E-01  0.14754476979E-01  0.24363599131E-01  0.00000000000E+00 0.  1.
     999901    1    3    3    0    0  0.90118807128E-01 -0.59363129003E-01 -0.92381324267E-01  0.89139199545E+00  0.88000000000E+00 0. -1.
        -11    1    4    4    0    0 -0.38837422529E-01  0.70548542057E-02  0.29972277276E-01  0.49565258828E-01  0.51100000000E-03 0.  1.
         11    1    4    4    0    0 -0.53092718960E-01  0.33005180758E-01  0.47654570012E-01  0.78609146589E-01  0.51100000000E-03 0. -1.
</event>
<event>
 8    1  0.1197213E+005  0.1043930E+01  0.7957747E-01            NaN
         13   -1    0    0    0    0  0.00000000000E+00  0.00000000000E+00  0.74505805969E-08  0.10566000000E+00  0.10566000000E+00 0. -1.
     999900   -1    0    0    0    0 -0.00000000000E+00 -0.00000000000E+00 -0.74505805969E-08  0.93827000000E+00  0.93827000000E+00 0.  1.
     999902    2    1    2    0    0 -0.18444197783E-01 -0.91990420632E-02  0.10669726704E-01  0.10207210820E+01  0.10204571884E+01 0.  0.
     999903    2    3    3    0    0 -0.11530271105E+00 -0.68100816873E-02 -0.61615233296E-01  0.13245738570E+00  0.20184887000E-01 0.  0.
         14    1    1    2    0    0  0.18444197783E-01  0.91990420632E-02 -0.10669726704E-01  0.23208917999E-01  0.00000000000E+00 0.  1.
     999901    1    3    3    0    0  0.96858513272E-01 -0.23889603759E-02  0.72284960001E-01  0.88826369630E+00  0.88000000000E+00 0. -1.
        -11    1    4    4    0    0 -0.89053700057E-01  0.17823108784E-02 -0.41385644364E-01  0.98217975984E-01  0.51100000000E-03 0. -1.
         11    1    4    4    0    0 -0.26249010997E-01 -0.85923925657E-02 -0.20229588932E-01  0.34239409716E-01  0.51100000000E-03 0.  1.
</event>
<event>
 8    1  0.1197213E+005  0.1043930E+01  0.7957747E-01            NaN
         13   -1    0    0    0    0  0.00000000000E+00  0.00000000000E+00  0.74505805969E-08  0.10566000000E+00  0.10566000000E+00 0. -1.
     999900   -1    0    0    0    0 -0.00000000000E+00 -0.00000000000E+00 -0.74505805969E-08  0.93827000000E+00  0.93827000000E+00 0.  1.
     999902    2    1    2    0    0  0.15218482746E-01  0.86834476854E-02 -0.18434037516E-01  0.10184973788E+01  0.10181797938E+01 0.  0.
     999903    2    3    3    0    0  0.39403977168E-01 -0.69902011570E-01 -0.10241645748E+00  0.13068340089E+00  0.12249729299E-01 0.  0.
         14    1    1    2    0    0 -0.15218482746E-01 -0.86834476854E-02  0.18434037516E-01  0.25432621177E-01  0.00000000000E+00 0.  1.
     999901    1    3    3    0    0 -0.24185494422E-01  0.78585459256E-01  0.83982419964E-01  0.88781397793E+00  0.88000000000E+00 0.  1.
        -11    1    4    4    0    0  0.35186611819E-01 -0.53212998550E-01 -0.83841431548E-01  0.10535353640E+00  0.51100000000E-03 0. -1.
         11    1    4    4    0    0  0.42173653485E-02 -0.16689013020E-01 -0.18575025931E-01  0.25329864496E-01  0.51100000000E-03 0.  1.
</event>
<event>
 8    1  0.1197213E+005  0.1043930E+01  0.7957747E-01            NaN
         13   -1    0    0    0    0  0.00000000000E+00  0.00000000000E+00  0.74505805969E-08  0.10566000000E+00  0.10566000000E+00 0.  1.
     999900   -1    0    0    0    0 -0.00000000000E+00 -0.00000000000E+00 -0.74505805969E-08  0.93827000000E+00  0.93827000000E+00 0. -1.
     999902    2    1    2    0    0  0.15767308519E-01  0.94885653543E-02  0.15126875755E-01  0.10201085126E+01  0.10198303360E+01 0.  0.
     999903    2    3    3    0    0  0.11707632774E-01 -0.11829212871E+00  0.49173197768E-01  0.13021889094E+00  0.20220281920E-01 0.  0.
         14    1    1    2    0    0 -0.15767308519E-01 -0.94885653543E-02 -0.15126875755E-01  0.23821487370E-01  0.00000000000E+00 0.  1.
     999901    1    3    3    0    0  0.40596757450E-02  0.12778069406E+00 -0.34046322013E-01  0.88988962169E+00  0.88000000000E+00 0. -1.
        -11    1    4    4    0    0  0.63071308896E-02 -0.24429158648E-01  0.18613739847E-01  0.31357552908E-01  0.51100000000E-03 0. -1.
         11    1    4    4    0    0  0.54005018840E-02 -0.93862970059E-01  0.30559457921E-01  0.98861338036E-01  0.51100000000E-03 0.  1.
</event>
<event>
 8    1  0.1197213E+005  0.1043930E+01  0.7957747E-01            NaN
         13   -1    0    0    0    0  0.00000000000E+00  0.00000000000E+00  0.74505805969E-08  0.10566000000E+00  0.10566000000E+00 0.  1.
     999900   -1    0    0    0    0 -0.00000000000E+00 -0.00000000000E+00 -0.74505805969E-08  0.93827000000E+00  0.93827000000E+00 0.  1.
     999902    2    1    2    0    0 -0.10541137259E-01  0.22350367725E-02  0.21032420133E-01  0.10202979527E+01  0.10200242343E+01 0.  0.
     999903    2    3    3    0    0  0.48177457435E-01  0.94502593444E-01  0.75746239818E-01  0.13184155113E+00  0.19821558625E-01 0.  0.
         14    1    1    2    0    0  0.10541137259E-01 -0.22350367725E-02 -0.21032420133E-01  0.23632047324E-01  0.00000000000E+00 0. -1.
     999901    1    3    3    0    0 -0.58718594694E-01 -0.92267556671E-01 -0.54713819685E-01  0.88845640154E+00  0.88000000000E+00 0.  1.
        -11    1    4    4    0    0  0.31377664568E-01  0.41993801881E-01  0.42253161800E-01  0.67332221359E-01  0.51100000000E-03 0. -1.
         11    1    4    4    0    0  0.16799792867E-01  0.52508791563E-01  0.33493078018E-01  0.64509329774E-01  0.51100000000E-03 0.  1.
</event>
<event>
 7    1  0.1341855E+005  0.1043930E+01  0.7957747E-01            NaN
         13   -1    0    0    0    0  0.00000000000E+00  0.00000000000E+00  0.74505805969E-08  0.10566000000E+00  0.10566000000E+00 0.  1.
     999900   -1    0    0    0    0 -0.00000000000E+00 -0.00000000000E+00 -0.74505805969E-08  0.93827000000E+00  0.93827000000E+00 0.  1.
     999903    2    1    2    0    0  0.37949509260E-01  0.32670731933E-01  0.85061042519E-01  0.10058243233E+00  0.19336565374E-01 0.  0.
         14    1    1    2    0    0 -0.13058560587E-01  0.30482041080E-01  0.39954666340E-01  0.51923561081E-01  0.00000000000E+00 0.  1.
     999901    1    1    2    0    0 -0.24890948673E-01 -0.63152773014E-01 -0.12501570886E+00  0.89142400659E+00  0.88000000000E+00 0.  1.
        -11    1    3    3    0    0  0.25249807904E-01  0.11735006021E-01  0.56264618306E-01  0.62779228728E-01  0.51100000000E-03 0. -1.
         11    1    3    3    0    0  0.12699701356E-01  0.20935725912E-01  0.28796424213E-01  0.37803203600E-01  0.51100000000E-03 0.  1.
</event>
<event>
 8    1  0.1197213E+005  0.1043930E+01  0.7957747E-01            NaN
         13   -1    0    0    0    0  0.00000000000E+00  0.00000000000E+00  0.74505805969E-08  0.10566000000E+00  0.10566000000E+00 0.  1.
     999900   -1    0    0    0    0 -0.00000000000E+00 -0.00000000000E+00 -0.74505805969E-08  0.93827000000E+00  0.93827000000E+00 0. -1.
     999902    2    1    2    0    0 -0.18413519239E-01  0.14481070957E-01  0.18364989803E-02  0.10204325143E+01  0.10201619403E+01 0.  0.
     999903    2    3    3    0    0 -0.75998122366E-01 -0.10343840869E+00 -0.15384481030E-01  0.13053501886E+00  0.18096681913E-01 0.  0.
         14    1    1    2    0    0  0.18413519239E-01 -0.14481070957E-01 -0.18364989803E-02  0.23497485724E-01  0.00000000000E+00 0. -1.
     999901    1    3    3    0    0  0.57584603127E-01  0.11791947965E+00  0.17220980010E-01  0.88989749542E+00  0.88000000000E+00 0. -1.
        -11    1    4    4    0    0 -0.39494919329E-01 -0.39248181006E-01 -0.91218964379E-02  0.56424626545E-01  0.51100000000E-03 0. -1.
         11    1    4    4    0    0 -0.36503203037E-01 -0.64190227685E-01 -0.62625845921E-02  0.74110392314E-01  0.51100000000E-03 0.  1.
</event>
<event>
 8    1  0.1197213E+005  0.1043930E+01  0.7957747E-01            NaN
         13   -1    0    0    0    0  0.00000000000E+00  0.00000000000E+00  0.74505805969E-08  0.10566000000E+00  0.10566000000E+00 0. -1.
     999900   -1    0    0    0    0 -0.00000000000E+00 -0.00000000000E+00 -0.74505805969E-08  0.93827000000E+00  0.93827000000E+00 0. -1.
     999902    2    1    2    0    0  0.20163234951E-01 -0.26005732912E-02  0.14202103691E-01  0.10191304279E+01  0.10188286462E+01 0.  0.
     999903    2    3    3    0    0  0.66436219142E-01  0.61682371032E-01 -0.90194209228E-01  0.12942706381E+00  0.19947013753E-01 0.  0.
         14    1    1    2    0    0 -0.20163234951E-01  0.26005732912E-02 -0.14202103691E-01  0.24799572060E-01  0.00000000000E+00 0.  1.
     999901    1    3    3    0    0 -0.46272984191E-01 -0.64282944323E-01  0.10439631292E+00  0.88970336413E+00  0.88000000000E+00 0.  1.
        -11    1    4    4    0    0  0.54715717062E-01  0.43290743835E-01 -0.59068693374E-01  0.91418104625E-01  0.51100000000E-03 0.  1.
         11    1    4    4    0    0  0.11720502080E-01  0.18391627197E-01 -0.31125515854E-01  0.38008959183E-01  0.51100000000E-03 0. -1.
</event>
<event>
 7    1  0.1197213E+005  0.1043930E+01  0.7957747E-01            NaN
         13   -1    0    0    0    0  0.00000000000E+00  0.00000000000E+00  0.74505805969E-08  0.10566000000E+00  0.10566000000E+00 0.  1.
     999900   -1    0    0    0    0 -0.00000000000E+00 -0.00000000000E+00 -0.74505805969E-08  0.93827000000E+00  0.93827000000E+00 0. -1.
     999903    2    1    2    0    0 -0.88516958921E-01  0.39047489245E-01 -0.73258478738E-02  0.99113039890E-01  0.20242731934E-01 0.  0.
         14    1    1    2    0    0  0.49088072456E-01  0.24651182718E-01  0.27445158968E-01  0.61404856629E-01  0.00000000000E+00 0.  1.
     999901    1    1    2    0    0  0.39428886465E-01 -0.63698671963E-01 -0.20119311094E-01  0.88341210348E+00  0.88000000000E+00 0.  1.
        -11    1    3    3    0    0 -0.46724102163E-01  0.25419622707E-01 -0.13075373821E-01  0.54777052340E-01  0.51100000000E-03 0.  1.
         11    1    3    3    0    0 -0.41792856759E-01  0.13627866538E-01  0.57495259477E-02  0.44335987550E-01  0.51100000000E-03 0. -1.
</event>
<event>
 8    1  0.1197213E+005  0.1043930E+01  0.7957747E-01            NaN
         13   -1    0    0    0    0  0.00000000000E+00  0.00000000000E+00  0.74505805969E-08  0.10566000000E+00  0.10566000000E+00 0.  1.
     999900   -1    0    0    0    0 -0.00000000000E+00 -0.00000000000E+00 -0.74505805969E-08  0.93827000000E+00  0.93827000000E+00 0. -1.
     999902    2    1    2    0    0 -0.17774164304E-01 -0.12796383470E-01 -0.80095102251E-02  0.10206100386E+01  0.10203435844E+01 0.  0.
     999903    2    3    3    0    0 -0.11085739796E+00 -0.34030878334E-02 -0.70553823721E-01  0.13344347387E+00  0.22986408741E-01 0.  0.
         14    1    1    2    0    0  0.17774164304E-01  0.12796383470E-01  0.80095102251E-02  0.23319961421E-01  0.00000000000E+00 0. -1.
     999901    1    3    3    0    0  0.93083233656E-01 -0.93932956369E-02  0.62544313496E-01  0.88716656471E+00  0.88000000000E+00 0.  1.
        -11    1    4    4    0    0 -0.80109717595E-02 -0.49140474317E-02 -0.11417617499E-01  0.14796845645E-01  0.51100000000E-03 0. -1.
         11    1    4    4    0    0 -0.10284642620E+00  0.15109595984E-02 -0.59136206223E-01  0.11864662822E+00  0.51100000000E-03 0.  1.
</event>
<event>
 8    1  0.1197213E+005  0.1043930E+01  0.7957747E-01            NaN
         13   -1    0    0    0    0  0.00000000000E+00  0.00000000000E+00  0.74505805969E-08  0.10566000000E+00  0.10566000000E+00 0. -1.
     999900   -1    0    0    0    0 -0.00000000000E+00 -0.00000000000E+00 -0.74505805969E-08  0.93827000000E+00  0.93827000000E+00 0. -1.
     999902    2    1    2    0    0  0.21614524569E-01 -0.12592038962E-02  0.97207349296E-02  0.10201967753E+01  0.10199206804E+01 0.  0.
     999903    2    3    3    0    0  0.10995012068E+00  0.64069530572E-01  0.33160098595E-01  0.13305505897E+00  0.20251488710E-01 0.  0.
         14    1    1    2    0    0 -0.21614524569E-01  0.12592038962E-02 -0.97207349296E-02  0.23733224694E-01  0.00000000000E+00 0. -1.
     999901    1    3    3    0    0 -0.88335596109E-01 -0.65328734468E-01 -0.23439363665E-01  0.88714171633E+00  0.88000000000E+00 0.  1.
        -11    1    4    4    0    0  0.31660055937E-01  0.13756373730E-01  0.17418363728E-01  0.38668559271E-01  0.51100000000E-03 0. -1.
         11    1    4    4    0    0  0.78290064741E-01  0.50313156843E-01  0.15741734866E-01  0.94386499703E-01  0.51100000000E-03 0.  1.
</event>
<event>
 7    1  0.1197213E+005  0.1043930E+01  0.7957747E-01            NaN
         13   -1    0    0    0    0  0.00000000000E+00  0.00000000000E+00  0.74505805969E-08  0.10566000000E+00  0.10566000000E+00 0.  1.
     999900   -1    0    0    0    0 -0.00000000000E+00 -0.00000000000E+00 -0.74505805969E-08  0.93827000000E+00  0.93827000000E+00 0. -1.
     999903    2    1    2    0    0 -0.23997207261E-01 -0.10921576343E+00  0.24296353561E-01  0.11615532648E+00  0.19944877383E-01 0.  0.
         14    1    1    2    0    0 -0.94899483029E-02  0.13941241107E-01 -0.38342575201E-01  0.41887592380E-01  0.00000000000E+00 0. -1.
     999901    1    1    2    0    0  0.33487155564E-01  0.95274522327E-01  0.14046221640E-01  0.88588708114E+00  0.88000000000E+00 0. -1.
        -11    1    3    3    0    0 -0.82369636601E-02 -0.60443351375E-01  0.43706566303E-02  0.61160526945E-01  0.51100000000E-03 0. -1.
         11    1    3    3    0    0 -0.15760243601E-01 -0.48772412059E-01  0.19925696931E-01  0.54994799532E-01  0.51100000000E-03 0.  1.
</event>
<event>
 8    1  0.1197213E+005  0.1043930E+01  0.7957747E-01            NaN
         13   -1    0    0    0    0  0.00000000000E+00  0.00000000000E+00  0.74505805969E-08  0.10566000000E+00  0.10566000000E+00 0. -1.
     999900   -1    0    0    0    0 -0.00000000000E+00 -0.00000000000E+00 -0.74505805969E-08  0.93827000000E+00  0.93827000000E+00 0. -1.
     999902    2    1    2    0    0 -0.17063492570E-01 -0.17033827291E-01 -0.22456061761E-02  0.10197151947E+01  0.10194276440E+01 0.  0.
     999903    2    3    3    0    0 -0.60803138175E-01  0.69919186264E-01  0.86385557894E-01  0.12992338394E+00  0.28842795678E-01 0.  0.
         14    1    1    2    0    0  0.17063492570E-01  0.17033827291E-01  0.22456061761E-02  0.24214805347E-01  0.00000000000E+00 0. -1.
     999901    1    3    3    0    0  0.43739645605E-01 -0.86953013555E-01 -0.88631164070E-01  0.88979181071E+00  0.88000000000E+00 0. -1.
        -11    1    4    4    0    0 -0.24313004371E-01  0.49487054729E-01  0.51740308347E-01  0.75613566218E-01  0.51100000000E-03 0.  1.
         11    1    4    4    0    0 -0.36490133804E-01  0.20432131535E-01  0.34645249546E-01  0.54309817724E-01  0.51100000000E-03 0. -1.
</event>
<event>
 8    1  0.1197213E+005  0.1043930E+01  0.7957747E-01            NaN
         13   -1    0    0    0    0  0.00000000000E+00  0.00000000000E+00  0.74505805969E-08  0.10566000000E+00  0.10566000000E+00 0.  1.
     999900   -1    0    0    0    0 -0.00000000000E+00 -0.00000000000E+00 -0.74505805969E-08  0.93827000000E+00  0.93827000000E+00 0. -1.
     999902    2    1    2    0    0 -0.17489136663E-01  0.15633974347E-01  0.93195313350E-02  0.10186882742E+01  0.10183754982E+01 0.  0.
     999903    2    3    3    0    0 -0.12689169630E+00 -0.23641028790E-01 -0.73680317911E-02  0.13088766561E+00  0.20417940220E-01 0.  0.
         14    1    1    2    0    0  0.17489136663E-01 -0.15633974347E-01 -0.93195313350E-02  0.25241725761E-01  0.00000000000E+00 0. -1.
     999901    1    3    3    0    0  0.10940255964E+00  0.39275003137E-01  0.16687563126E-01  0.88780060863E+00  0.88000000000E+00 0.  1.
        -11    1    4    4    0    0 -0.96340508114E-01 -0.26694011656E-01 -0.58418395514E-02  0.10014215882E+00  0.51100000000E-03 0.  1.
         11    1    4    4    0    0 -0.30551188187E-01  0.30529828655E-02 -0.15261922397E-02  0.30745506790E-01  0.51100000000E-03 0. -1.
</event>
<event>
 8    1  0.1197213E+005  0.1043930E+01  0.7957747E-01            NaN
         13   -1    0    0    0    0  0.00000000000E+00  0.00000000000E+00  0.74505805969E-08  0.10566000000E+00  0.10566000000E+00 0. -1.
     999900   -1    0    0    0    0 -0.00000000000E+00 -0.00000000000E+00 -0.74505805969E-08  0.93827000000E+00  0.93827000000E+00 0. -1.
     999902    2    1    2    0    0 -0.52196315120E-02  0.22546875339E-01 -0.24051910623E-02  0.10206621878E+01  0.10203969377E+01 0.  0.
     999903    2    3    3    0    0 -0.11094642435E-01  0.12931619708E+00 -0.39106454670E-02  0.13418800870E+00  0.33843147179E-01 0.  0.
         14    1    1    2    0    0  0.52196315120E-02 -0.22546875339E-01  0.24051910623E-02  0.23267812203E-01  0.00000000000E+00 0.  1.
     999901    1    3    3    0    0  0.58750109232E-02 -0.10676932174E+00  0.15054544047E-02  0.88647417910E+00  0.88000000000E+00 0. -1.
        -11    1    4    4    0    0 -0.66768596958E-02  0.96433636337E-01 -0.17667943516E-01  0.98267207255E-01  0.51100000000E-03 0. -1.
         11    1    4    4    0    0 -0.44177827394E-02  0.32882560747E-01  0.13757298049E-01  0.35920801442E-01  0.51100000000E-03 0.  1.
</event>
<event>
 8    1  0.1197213E+005  0.1043930E+01  0.7957747E-01            NaN
         13   -1    0    0    0    0  0.00000000000E+00  0.00000000000E+00  0.74505805969E-08  0.10566000000E+00  0.10566000000E+00 0. -1.
     999900   -1    0    0    0    0 -0.00000000000E+00 -0.00000000000E+00 -0.74505805969E-08  0.93827000000E+00  0.93827000000E+00 0.  1.
     999902    2    1    2    0    0 -0.28086865166E-01 -0.64534665918E-03  0.30086534252E-02  0.10156750807E+01  0.10152819949E+01 0.  0.
     999903    2    3    3    0    0  0.65220657635E-01  0.30045461090E-01  0.96590145948E-01  0.12527869977E+00  0.34765390948E-01 0.  0.
         14    1    1    2    0    0  0.28086865166E-01  0.64534665918E-03 -0.30086534252E-02  0.28254919264E-01  0.00000000000E+00 0.  1.
     999901    1    3    3    0    0 -0.93307522801E-01 -0.30690807749E-01 -0.93581492523E-01  0.89039638096E+00  0.88000000000E+00 0.  1.
        -11    1    4    4    0    0  0.17646491643E-01  0.23831416476E-01  0.51535070344E-01  0.59459731541E-01  0.51100000000E-03 0. -1.
         11    1    4    4    0    0  0.47574165991E-01  0.62140446139E-02  0.45055075604E-01  0.65818968231E-01  0.51100000000E-03 0.  1.
</event>
<event>
 8    1  0.1197213E+005  0.1043930E+01  0.7957747E-01            NaN
         13   -1    0    0    0    0  0.00000000000E+00  0.00000000000E+00  0.74505805969E-08  0.10566000000E+00  0.10566000000E+00 0. -1.
     999900   -1    0    0    0    0 -0.00000000000E+00 -0.00000000000E+00 -0.74505805969E-08  0.93827000000E+00  0.93827000000E+00 0. -1.
     999902    2    1    2    0    0  0.92384497659E-02 -0.17891319457E-01  0.10593607351E-01  0.10211775763E+01  0.10209240763E+01 0.  0.
     999903    2    3    3    0    0  0.11979820924E+00 -0.35169808882E-01  0.43091900086E-01  0.13349624520E+00  0.19385799861E-01 0.  0.
         14    1    1    2    0    0 -0.92384497659E-02  0.17891319457E-01 -0.10593607351E-01  0.22752423667E-01  0.00000000000E+00 0. -1.
     999901    1    3    3    0    0 -0.11055975947E+00  0.17278489424E-01 -0.32498292735E-01  0.88768133113E+00  0.88000000000E+00 0.  1.
        -11    1    4    4    0    0  0.42492028534E-01 -0.29592208748E-02  0.14904601673E-01  0.45130230989E-01  0.51100000000E-03 0. -1.
         11    1    4    4    0    0  0.77306180704E-01 -0.32210588007E-01  0.28187298413E-01  0.88366014211E-01  0.51100000000E-03 0.  1.
</event>
<event>
 8    1  0.1197213E+005  0.1043930E+01  0.7957747E-01            NaN
         13   -1    0    0    0    0  0.00000000000E+00  0.00000000000E+00  0.74505805969E-08  0.10566000000E+00  0.10566000000E+00 0. -1.
     999900   -1    0    0    0    0 -0.00000000000E+00 -0.00000000000E+00 -0.74505805969E-08  0.93827000000E+00  0.93827000000E+00 0.  1.
     999902    2    1    2    0    0 -0.20390841944E-01  0.12258546743E-01 -0.58340949497E-03  0.10201308662E+01  0.10198532176E+01 0.  0.
     999903    2    3    3    0    0  0.33964572277E-01  0.82981717225E-01 -0.93506846621E-01  0.13075409391E+00  0.17707206060E-01 0.  0.
         14    1    1    2    0    0  0.20390841944E-01 -0.12258546743E-01  0.58340949497E-03  0.23799133810E-01  0.00000000000E+00 0.  1.
     999901    1    3    3    0    0 -0.54355414221E-01 -0.70723170482E-01  0.92923437126E-01  0.88937677228E+00  0.88000000000E+00 0. -1.
        -11    1    4    4    0    0  0.25184758367E-01  0.44554302442E-01 -0.61235179542E-01  0.79808309433E-01  0.51100000000E-03 0.  1.
         11    1    4    4    0    0  0.87798139100E-02  0.38427414783E-01 -0.32271667080E-01  0.50945784480E-01  0.51100000000E-03 0. -1.
</event>
<event>
 8    1  0.1197213E+005  0.1043930E+01  0.7957747E-01            NaN
         13   -1    0    0    0    0  0.00000000000E+00  0.00000000000E+00  0.74505805969E-08  0.10566000000E+00  0.10566000000E+00 0. -1.
     999900   -1    0    0    0    0 -0.00000000000E+00 -0.00000000000E+00 -0.74505805969E-08  0.93827000000E+00  0.93827000000E+00 0.  1.
     999902    2    1    2    0    0 -0.10592522559E-01 -0.15897843159E-01 -0.11080968640E-01  0.10218453715E+01  0.10216066916E+01 0.  0.
     999903    2    3    3    0    0 -0.75659864598E-01 -0.99692507563E-01  0.42745025508E-01  0.13384056156E+00  0.20570550243E-01 0.  0.
         14    1    1    2    0    0  0.10592522559E-01  0.15897843159E-01  0.11080968640E-01  0.22084628529E-01  0.00000000000E+00 0. -1.
     999901    1    3    3    0    0  0.65067342038E-01  0.83794664405E-01 -0.53825994148E-01  0.88800480991E+00  0.88000000000E+00 0.  1.
        -11    1    4    4    0    0 -0.36037428131E-01 -0.60828195722E-01  0.17339220964E-01  0.72798868986E-01  0.51100000000E-03 0. -1.
         11    1    4    4    0    0 -0.39622436467E-01 -0.38864311842E-01  0.25405804544E-01  0.61041692572E-01  0.51100000000E-03 0.  1.
</event>
<event>
 8    1  0.1197213E+005  0.1043930E+01  0.7957747E-01            NaN
         13   -1    0    0    0    0  0.00000000000E+00  0.00000000000E+00  0.74505805969E-08  0.10566000000E+00  0.10566000000E+00 0.  1.
     999900   -1    0    0    0    0 -0.00000000000E+00 -0.00000000000E+00 -0.74505805969E-08  0.93827000000E+00  0.93827000000E+00 0.  1.
     999902    2    1    2    0    0  0.10512290708E-02  0.10805694077E-01  0.19920711201E-01  0.10212429367E+01  0.10209909073E+01 0.  0.
     999903    2    3    3    0    0  0.17135368938E-01 -0.84964284136E-01 -0.92888774055E-01  0.12874275840E+00  0.20828419209E-01 0.  0.
         14    1    1    2    0    0 -0.10512290708E-02 -0.10805694077E-01 -0.19920711201E-01  0.22687063314E-01  0.00000000000E+00 0.  1.
     999901    1    3    3    0    0 -0.16084139867E-01  0.95769978213E-01  0.11280948526E+00  0.89250017829E+00  0.88000000000E+00 0.  1.
        -11    1    4    4    0    0  0.15235595335E-01 -0.31984791075E-01 -0.29491310349E-01  0.46099335488E-01  0.51100000000E-03 0.  1.
         11    1    4    4    0    0  0.18997736035E-02 -0.52979493061E-01 -0.63397463706E-01  0.82643422909E-01  0.51100000000E-03 0. -1.
</event>
<event>
 8    1  0.1197213E+005  0.1043930E+01  0.7957747E-01            NaN
         13   -1    0    0    0    0  0.00000000000E+00  0.00000000000E+00  0.74505805969E-08  0.10566000000E+00  0.10566000000E+00 0. -1.
     999900   -1    0    0    0    0 -0.00000000000E+00 -0.00000000000E+00 -0.74505805969E-08  0.93827000000E+00  0.93827000000E+00 0. -1.
     999902    2    1    2    0    0  0.11843813999E-01  0.15352024374E-02  0.20648286516E-01  0.10200766038E+01  0.10197976726E+01 0.  0.
     999903    2    3    3    0    0  0.12488851828E+00  0.24377792966E-01  0.31031865884E-01  0.13249071617E+00  0.19984853876E-01 0.  0.
         14    1    1    2    0    0 -0.11843813999E-01 -0.15352024374E-02 -0.20648286516E-01  0.23853396249E-01  0.00000000000E+00 0.  1.
     999901    1    3    3    0    0 -0.11304470428E+00 -0.22842590528E-01 -0.10383579368E-01  0.88758588758E+00  0.88000000000E+00 0. -1.
        -11    1    4    4    0    0  0.55943501172E-01  0.75085701759E-02  0.41840971799E-02  0.56602312141E-01  0.51100000000E-03 0. -1.
         11    1    4    4    0    0  0.68945017105E-01  0.16869222790E-01  0.26847768704E-01  0.75888404032E-01  0.51100000000E-03 0.  1.
</event>
<event>
 8    1  0.1197213E+005  0.1043930E+01  0.7957747E-01            NaN
         13   -1    0    0    0    0  0.00000000000E+00  0.00000000000E+00  0.74505805969E-08  0.10566000000E+00  0.10566000000E+00 0. -1.
     999900   -1    0    0    0    0 -0.00000000000E+00 -0.00000000000E+00 -0.74505805969E-08  0.93827000000E+00  0.93827000000E+00 0. -1.
     999902    2    1    2    0    0 -0.10375256116E-01  0.19607170259E-01 -0.73271743526E-02  0.10205681818E+01  0.10203007592E+01 0.  0.
     999903    2    3    3    0    0  0.82537287135E-01 -0.74524177707E-01  0.60498138898E-01  0.12810321080E+00  0.19599769823E-01 0.  0.
         14    1    1    2    0    0  0.10375256116E-01 -0.19607170259E-01  0.73271743526E-02  0.23361818188E-01  0.00000000000E+00 0.  1.
     999901    1    3    3    0    0 -0.92912543251E-01  0.94131347966E-01 -0.67825313250E-01  0.89246497101E+00  0.88000000000E+00 0. -1.
        -11    1    4    4    0    0  0.12939189460E-01 -0.71766886213E-02  0.19523184657E-02  0.14933189607E-01  0.51100000000E-03 0. -1.
         11    1    4    4    0    0  0.69598097675E-01 -0.67347489086E-01  0.58545820432E-01  0.11317002119E+00  0.51100000000E-03 0.  1.
</event>
<event>
 8    1  0.1197213E+005  0.1043930E+01  0.7957747E-01            NaN
         13   -1    0    0    0    0  0.00000000000E+00  0.00000000000E+00  0.74505805969E-08  0.10566000000E+00  0.10566000000E+00 0.  1.
     999900   -1    0    0    0    0 -0.00000000000E+00 -0.00000000000E+00 -0.74505805969E-08  0.93827000000E+00  0.93827000000E+00 0.  1.
     999902    2    1    2    0    0 -0.24585866148E-02  0.14548640754E-02 -0.23637798198E-01  0.10201201957E+01  0.10198422951E+01 0.  0.
     999903    2    3    3    0    0 -0.53344391657E-01  0.70942301501E-01 -0.96959554551E-01  0.13288068515E+00  0.19434171009E-01 0.  0.
         14    1    1    2    0    0  0.24585866148E-02 -0.14548640754E-02  0.23637798198E-01  0.23809804310E-01  0.00000000000E+00 0.  1.
     999901    1    3    3    0    0  0.50885805042E-01 -0.69487437426E-01  0.73321756353E-01  0.88723951054E+00  0.88000000000E+00 0. -1.
        -11    1    4    4    0    0 -0.36473530821E-02  0.17170304270E-01 -0.16602308329E-01  0.24166511872E-01  0.51100000000E-03 0.  1.
         11    1    4    4    0    0 -0.49697038575E-01  0.53771997231E-01 -0.80357246222E-01  0.10871417327E+00  0.51100000000E-03 0. -1.
</event>
<event>
 8    1  0.1197213E+005  0.1043930E+01  0.7957747E-01            NaN
         13   -1    0    0    0    0  0.00000000000E+00  0.00000000000E+00  0.74505805969E-08  0.10566000000E+00  0.10566000000E+00 0.  1.
     999900   -1    0    0    0    0 -0.00000000000E+00 -0.00000000000E+00 -0.74505805969E-08  0.93827000000E+00  0.93827000000E+00 0. -1.
     999902    2    1    2    0    0  0.10504724798E-01 -0.92048979661E-03 -0.20456293308E-01  0.10209157331E+01  0.10206562975E+01 0.  0.
     999903    2    3    3    0    0  0.39962042572E-01 -0.12131086428E+00  0.22391060884E-01  0.13119809723E+00  0.19957216011E-01 0.  0.
         14    1    1    2    0    0 -0.10504724798E-01  0.92048979661E-03  0.20456293308E-01  0.23014266889E-01  0.00000000000E+00 0.  1.
     999901    1    3    3    0    0 -0.29457317775E-01  0.12039037448E+00 -0.42847354192E-01  0.88971763588E+00  0.88000000000E+00 0. -1.
        -11    1    4    4    0    0  0.32633807205E-01 -0.71724370034E-01  0.90053920306E-02  0.79313988905E-01  0.51100000000E-03 0.  1.
         11    1    4    4    0    0  0.73282353671E-02 -0.49586494243E-01  0.13385668854E-01  0.51884108324E-01  0.51100000000E-03 0. -1.
</event>
<event>
 8    1  0.1197213E+005  0.1043930E+01  0.7957747E-01            NaN
         13   -1    0    0    0    0  0.00000000000E+00  0.00000000000E+00  0.74505805969E-08  0.10566000000E+00  0.10566000000E+00 0.  1.
     999900   -1    0    0    0    0 -0.00000000000E+00 -0.00000000000E+00 -0.74505805969E-08  0.93827000000E+00  0.93827000000E+00 0. -1.
     999902    2    1    2    0    0  0.23533425219E-02 -0.22890074511E-01  0.41176338034E-02  0.10205537591E+01  0.10202860023E+01 0.  0.
     999903    2    3    3    0    0 -0.10153026290E-01  0.10795686648E+00  0.66286195083E-01  0.12862200089E+00  0.19798749749E-01 0.  0.
         14    1    1    2    0    0 -0.23533425219E-02  0.22890074511E-01 -0.41176338034E-02  0.23376240935E-01  0.00000000000E+00 0. -1.
     999901    1    3    3    0    0  0.12506368812E-01 -0.13084694099E+00 -0.62168561279E-01  0.89193175817E+00  0.88000000000E+00 0. -1.
        -11    1    4    4    0    0 -0.14923444231E-01  0.58750055099E-01  0.32969811131E-01  0.69003968935E-01  0.51100000000E-03 0.  1.
         11    1    4    4    0    0  0.47704179408E-02  0.49206811381E-01  0.33316383952E-01  0.59618031956E-01  0.51100000000E-03 0. -1.
</event>
<event>
 8    1  0.1197213E+005  0.1043930E+01  0.7957747E-01            NaN
         13   -1    0    0    0    0  0.00000000000E+00  0.00000000000E+00  0.74505805969E-08  0.10566000000E+00  0.10566000000E+00 0. -1.
     999900   -1    0    0    0    0 -0.00000000000E+00 -0.00000000000E+00 -0.74505805969E-08  0.93827000000E+00  0.93827000000E+00 0. -1.
     999902    2    1    2    0    0 -0.99216337877E-02  0.37893436046E-02 -0.35217877117E-01  0.10071455357E+01  0.10064735632E+01 0.  0.
     999903    2    3    3    0    0 -0.95502607117E-01 -0.18969428836E-01 -0.70632801261E-01  0.12199228259E+00  0.20311011810E-01 0.  0.
         14    1    1    2    0    0  0.99216337877E-02 -0.37893436046E-02  0.35217877117E-01  0.36784464256E-01  0.00000000000E+00 0. -1.
     999901    1    3    3    0    0  0.85580973329E-01  0.22758772441E-01  0.35414924143E-01  0.88515325316E+00  0.88000000000E+00 0. -1.
        -11    1    4    4    0    0 -0.38371133827E-01 -0.16859478784E-01 -0.24678364436E-01  0.48640196631E-01  0.51100000000E-03 0.  1.
         11    1    4    4    0    0 -0.57131473290E-01 -0.21099500521E-02 -0.45954436825E-01  0.73352085958E-01  0.51100000000E-03 0. -1.
</event>
<event>
 8    1  0.1197213E+005  0.1043930E+01  0.7957747E-01            NaN
         13   -1    0    0    0    0  0.00000000000E+00  0.00000000000E+00  0.74505805969E-08  0.10566000000E+00  0.10566000000E+00 0. -1.
     999900   -1    0    0    0    0 -0.00000000000E+00 -0.00000000000E+00 -0.74505805969E-08  0.93827000000E+00  0.93827000000E+00 0.  1.
     999902    2    1    2    0    0 -0.14002261222E-01 -0.18598612615E-02 -0.17113711127E-01  0.10217398781E+01  0.10214988874E+01 0.  0.
     999903    2    3    3    0    0 -0.37413056044E-01 -0.98682985720E-01  0.75459521930E-01  0.13129471623E+00  0.20151789673E-01 0.  0.
         14    1    1    2    0    0  0.14002261222E-01  0.18598612615E-02  0.17113711127E-01  0.22190121942E-01  0.00000000000E+00 0. -1.
     999901    1    3    3    0    0  0.23410794821E-01  0.96823124459E-01 -0.92573233056E-01  0.89044516183E+00  0.88000000000E+00 0.  1.
        -11    1    4    4    0    0 -0.18317318731E-01 -0.64997452125E-01  0.57110951676E-01  0.88442720846E-01  0.51100000000E-03 0.  1.
         11    1    4    4    0    0 -0.19095737312E-01 -0.33685533595E-01  0.18348570253E-01  0.42851995385E-01  0.51100000000E-03 0. -1.
</event>
<event>
 8    1  0.1197213E+005  0.1043930E+01  0.7957747E-01            NaN
         13   -1    0    0    0    0  0.00000000000E+00  0.00000000000E+00  0.74505805969E-08  0.10566000000E+00  0.10566000000E+00 0. -1.
     999900   -1    0    0    0    0 -0.00000000000E+00 -0.00000000000E+00 -0.74505805969E-08  0.93827000000E+00  0.93827000000E+00 0. -1.
     999902    2    1    2    0    0  0.22675463194E-01  0.56036731088E-02  0.25478783187E-02  0.10204338414E+01  0.10201632983E+01 0.  0.
     999903    2    3    3    0    0  0.12824770322E+00 -0.25710526194E-02 -0.30409834466E-01  0.13347356339E+00  0.20889001857E-01 0.  0.
         14    1    1    2    0    0 -0.22675463194E-01 -0.56036731088E-02 -0.25478783187E-02  0.23496158564E-01  0.00000000000E+00 0.  1.
     999901    1    3    3    0    0 -0.10557224002E+00  0.81747257282E-02  0.32957712785E-01  0.88696027805E+00  0.88000000000E+00 0. -1.
        -11    1    4    4    0    0  0.11220266187E+00  0.25966248515E-02 -0.21066535700E-01  0.11419386953E+00  0.51100000000E-03 0.  1.
         11    1    4    4    0    0  0.16045041350E-01 -0.51676774709E-02 -0.93432987660E-02  0.19279693857E-01  0.51100000000E-03 0. -1.
</event>
<event>
 8    1  0.1197213E+005  0.1043930E+01  0.7957747E-01            NaN
         13   -1    0    0    0    0  0.00000000000E+00  0.00000000000E+00  0.74505805969E-08  0.10566000000E+00  0.10566000000E+00 0. -1.
     999900   -1    0    0    0    0 -0.00000000000E+00 -0.00000000000E+00 -0.74505805969E-08  0.93827000000E+00  0.93827000000E+00 0.  1.
     999902    2    1    2    0    0 -0.13677965155E-01  0.59971054331E-02 -0.18429959554E-01  0.10202083767E+01  0.10199325548E+01 0.  0.
     999903    2    3    3    0    0 -0.24390203655E-01  0.10832024936E+00 -0.70118070754E-01  0.13270827037E+00  0.19151572301E-01 0.  0.
         14    1    1    2    0    0  0.13677965155E-01 -0.59971054331E-02  0.18429959554E-01  0.23721623333E-01  0.00000000000E+00 0. -1.
     999901    1    3    3    0    0  0.10712238500E-01 -0.10232314393E+00  0.51688111200E-01  0.88750010630E+00  0.88000000000E+00 0. -1.
        -11    1    4    4    0    0 -0.13294802568E-01  0.23210583552E-01 -0.18911264973E-01  0.32762478966E-01  0.51100000000E-03 0.  1.
         11    1    4    4    0    0 -0.11095401087E-01  0.85109665813E-01 -0.51206805781E-01  0.99945791404E-01  0.51100000000E-03 0. -1.
</event>
<event>
 8    1  0.1197213E+005  0.1043930E+01  0.7957747E-01            NaN
         13   -1    0    0    0    0  0.00000000000E+00  0.00000000000E+00  0.74505805969E-08  0.10566000000E+00  0.10566000000E+00 0.  1.
     999900   -1    0    0    0    0 -0.00000000000E+00 -0.00000000000E+00 -0.74505805969E-08  0.93827000000E+00  0.93827000000E+00 0. -1.
     999902    2    1    2    0    0 -0.18976978468E-01  0.90334746216E-02 -0.53246130108E-02  0.10222486514E+01  0.10220187006E+01 0.  0.
     999903    2    3    3    0    0  0.60927780483E-01 -0.10268171284E+00  0.47586863850E-01  0.13002408433E+00  0.19647501351E-01 0.  0.
         14    1    1    2    0    0  0.18976978468E-01 -0.90334746216E-02  0.53246130108E-02  0.21681348648E-01  0.00000000000E+00 0.  1.
     999901    1    3    3    0    0 -0.79904758950E-01  0.11171518746E+00 -0.52911476861E-01  0.89222456702E+00  0.88000000000E+00 0. -1.
        -11    1    4    4    0    0  0.88111799996E-02 -0.23843311621E-01  0.17411553830E-01  0.30814991965E-01  0.51100000000E-03 0.  1.
         11    1    4    4    0    0  0.52116600483E-01 -0.78838401216E-01  0.30175310020E-01  0.99209092365E-01  0.51100000000E-03 0. -1.
</event>
<event>
 8    1  0.1197213E+005  0.1043930E+01  0.7957747E-01            NaN
         13   -1    0    0    0    0  0.00000000000E+00  0.00000000000E+00  0.74505805969E-08  0.10566000000E+00  0.10566000000E+00 0.  1.
     999900   -1    0    0    0    0 -0.00000000000E+00 -0.00000000000E+00 -0.74505805969E-08  0.93827000000E+00  0.93827000000E+00 0. -1.
     999902    2    1    2    0    0 -0.15412813392E-01  0.17535027895E-01  0.59670794513E-02  0.10198335675E+01  0.10195488549E+01 0.  0.
     999903    2    3    3    0    0 -0.10662485050E+00  0.15798317420E-01 -0.72838036105E-01  0.13161462037E+00  0.19964548928E-01 0.  0.
         14    1    1    2    0    0  0.15412813392E-01 -0.17535027895E-01 -0.59670794513E-02  0.24096432456E-01  0.00000000000E+00 0.  1.
     999901    1    3    3    0    0  0.91212037110E-01  0.17367104749E-02  0.78805115556E-01  0.88821894717E+00  0.88000000000E+00 0.  1.
        -11    1    4    4    0    0 -0.99613683385E-01  0.19705299795E-01 -0.66612536036E-01  0.12144412639E+00  0.51100000000E-03 0. -1.
         11    1    4    4    0    0 -0.70111671181E-02 -0.39069823751E-02 -0.62255000695E-02  0.10170493978E-01  0.51100000000E-03 0.  1.
</event>
<event>
 8    1  0.1197213E+005  0.1043930E+01  0.7957747E-01            NaN
         13   -1    0    0    0    0  0.00000000000E+00  0.00000000000E+00  0.74505805969E-08  0.10566000000E+00  0.10566000000E+00 0.  1.
     999900   -1    0    0    0    0 -0.00000000000E+00 -0.00000000000E+00 -0.74505805969E-08  0.93827000000E+00  0.93827000000E+00 0.  1.
     999902    2    1    2    0    0  0.83857902895E-02 -0.43914623307E-02  0.21131134818E-01  0.10207754912E+01  0.10205128476E+01 0.  0.
     999903    2    3    3    0    0  0.44107623112E-01 -0.93905486502E-01 -0.76005062874E-01  0.13020025529E+00  0.20288274557E-01 0.  0.
         14    1    1    2    0    0 -0.83857902895E-02  0.43914623307E-02 -0.21131134818E-01  0.23154508824E-01  0.00000000000E+00 0. -1.
     999901    1    3    3    0    0 -0.35721832822E-01  0.89514024172E-01  0.97136197692E-01  0.89057523588E+00  0.88000000000E+00 0.  1.
        -11    1    4    4    0    0  0.24838070434E-01 -0.39003271060E-01 -0.43804701703E-01  0.63696922285E-01  0.51100000000E-03 0. -1.
         11    1    4    4    0    0  0.19269552678E-01 -0.54902215442E-01 -0.32200361171E-01  0.66503333010E-01  0.51100000000E-03 0.  1.
</event>
<event>
 8    1  0.1197213E+005  0.1043930E+01  0.7957747E-01            NaN
         13   -1    0    0    0    0  0.00000000000E+00  0.00000000000E+00  0.74505805969E-08  0.10566000000E+00  0.10566000000E+00 0. -1.
     999900   -1    0    0    0    0 -0.00000000000E+00 -0.00000000000E+00 -0.74505805969E-08  0.93827000000E+00  0.93827000000E+00 0.  1.
     999902    2    1    2    0    0  0.11502069359E-01 -0.19729478107E-01 -0.69338640031E-02  0.10200631113E+01  0.10197838608E+01 0.  0.
     999903    2    3    3    0    0  0.21491455074E-01 -0.47826879048E-01 -0.11990520964E+00  0.13234030733E+00  0.19682597530E-01 0.  0.
         14    1    1    2    0    0 -0.11502069359E-01  0.19729478107E-01  0.69338640031E-02  0.23866888694E-01  0.00000000000E+00 0. -1.
     999901    1    3    3    0    0 -0.99893857155E-02  0.28097400942E-01  0.11297134563E+00  0.88772280398E+00  0.88000000000E+00 0. -1.
        -11    1    4    4    0    0  0.89771694206E-02 -0.45358958282E-02 -0.14007825167E-01  0.17252368205E-01  0.51100000000E-03 0.  1.
         11    1    4    4    0    0  0.12514285654E-01 -0.43290983220E-01 -0.10589738447E+00  0.11508793912E+00  0.51100000000E-03 0. -1.
</event>
<event>
 8    1  0.1197213E+005  0.1043930E+01  0.7957747E-01            NaN
         13   -1    0    0    0    0  0.00000000000E+00  0.00000000000E+00  0.74505805969E-08  0.10566000000E+00  0.10566000000E+00 0. -1.
     999900   -1    0    0    0    0 -0.00000000000E+00 -0.00000000000E+00 -0.74505805969E-08  0.93827000000E+00  0.93827000000E+00 0. -1.
     999902    2    1    2    0    0 -0.18535427928E-01  0.27831818145E-02  0.13920788505E-01  0.10205826973E+01  0.10203156108E+01 0.  0.
     999903    2    3    3    0    0 -0.33684957496E-01 -0.49441081077E-01  0.11680293243E+00  0.13292194151E+00  0.21123935509E-01 0.  0.
         14    1    1    2    0    0  0.18535427928E-01 -0.27831818145E-02 -0.13920788505E-01  0.23347302673E-01  0.00000000000E+00 0.  1.
     999901    1    3    3    0    0  0.15149529568E-01  0.52224262892E-01 -0.10288214392E+00  0.88766075582E+00  0.88000000000E+00 0. -1.
        -11    1    4    4    0    0 -0.50368435298E-02 -0.18731939249E-01  0.53896132590E-01  0.57282716154E-01  0.51100000000E-03 0. -1.
         11    1    4    4    0    0 -0.28648113966E-01 -0.30709141828E-01  0.62906799838E-01  0.75639225356E-01  0.51100000000E-03 0.  1.
</event>
<event>
 8    1  0.1197213E+005  0.1043930E+01  0.7957747E-01            NaN
         13   -1    0    0    0    0  0.00000000000E+00  0.00000000000E+00  0.74505805969E-08  0.10566000000E+00  0.10566000000E+00 0.  1.
     999900   -1    0    0    0    0 -0.00000000000E+00 -0.00000000000E+00 -0.74505805969E-08  0.93827000000E+00  0.93827000000E+00 0.  1.
     999902    2    1    2    0    0  0.91015255962E-02 -0.73975473096E-02 -0.20651097101E-01  0.10201806993E+01  0.10199042258E+01 0.  0.
     999903    2    3    3    0    0 -0.58395559236E-01 -0.65490913298E-01 -0.97863832784E-01  0.13232231968E+00  0.15256652811E-01 0.  0.
         14    1    1    2    0    0 -0.91015255962E-02  0.73975473096E-02  0.20651097101E-01  0.23749300744E-01  0.00000000000E+00 0.  1.
     999901    1    3    3    0    0  0.67497084832E-01  0.58093365989E-01  0.77212735684E-01  0.88785837958E+00  0.88000000000E+00 0. -1.
        -11    1    4    4    0    0 -0.46672297974E-01 -0.59145151698E-01 -0.87217612091E-01  0.11525461096E+00  0.51100000000E-03 0. -1.
         11    1    4    4    0    0 -0.11723261262E-01 -0.63457616004E-02 -0.10646220693E-01  0.17067708720E-01  0.51100000000E-03 0.  1.
</event>
<event>
 8    1  0.1197213E+005  0.1043930E+01  0.7957747E-01            NaN
         13   -1    0    0    0    0  0.00000000000E+00  0.00000000000E+00  0.74505805969E-08  0.10566000000E+00  0.10566000000E+00 0.  1.
     999900   -1    0    0    0    0 -0.00000000000E+00 -0.00000000000E+00 -0.74505805969E-08  0.93827000000E+00  0.93827000000E+00 0.  1.
     999902    2    1    2    0    0 -0.26810046521E-01  0.88996201625E-03  0.83025027271E-03  0.10170923410E+01  0.10167382014E+01 0.  0.
     999903    2    3    3    0    0  0.49263185058E-01 -0.11353149109E+00  0.15556617141E-01  0.12630826423E+00  0.19887393090E-01 0.  0.
         14    1    1    2    0    0  0.26810046521E-01 -0.88996201625E-03 -0.83025027271E-03  0.26837659033E-01  0.00000000000E+00 0. -1.
     999901    1    3    3    0    0 -0.76073231579E-01  0.11442145311E+00 -0.14726366868E-01  0.89078407674E+00  0.88000000000E+00 0. -1.
        -11    1    4    4    0    0  0.11972380570E-01 -0.12240967299E-01  0.50555767669E-02  0.17860547426E-01  0.51100000000E-03 0. -1.
         11    1    4    4    0    0  0.37290804488E-01 -0.10129052379E+00  0.10501040374E-01  0.10844771680E+00  0.51100000000E-03 0.  1.
</event>
<event>
 8    1  0.1197213E+005  0.1043930E+01  0.7957747E-01            NaN
         13   -1    0    0    0    0  0.00000000000E+00  0.00000000000E+00  0.74505805969E-08  0.10566000000E+00  0.10566000000E+00 0. -1.
     999900   -1    0    0    0    0 -0.00000000000E+00 -0.00000000000E+00 -0.74505805969E-08  0.93827000000E+00  0.93827000000E+00 0.  1.
     999902    2    1    2    0    0 -0.31669121526E-01 -0.15095656330E-01  0.11906334705E-01  0.10068817490E+01  0.10061999222E+01 0.  0.
     999903    2    3    3    0    0  0.29166429158E-02  0.95052899979E-01  0.66543590460E-01  0.11766068013E+00  0.19298331954E-01 0.  0.
         14    1    1    2    0    0  0.31669121526E-01  0.15095656330E-01 -0.11906334705E-01  0.37048251030E-01  0.00000000000E+00 0. -1.
     999901    1    3    3    0    0 -0.34585764442E-01 -0.11014855631E+00 -0.54637255756E-01  0.88922106884E+00  0.88000000000E+00 0. -1.
        -11    1    4    4    0    0 -0.76572258140E-02  0.24213027004E-01  0.16702883966E-01  0.30399855882E-01  0.51100000000E-03 0.  1.
         11    1    4    4    0    0  0.10573868730E-01  0.70839872975E-01  0.49840706494E-01  0.87260824244E-01  0.51100000000E-03 0. -1.
</event>
<event>
 8    1  0.1197213E+005  0.1043930E+01  0.7957747E-01            NaN
         13   -1    0    0    0    0  0.00000000000E+00  0.00000000000E+00  0.74505805969E-08  0.10566000000E+00  0.10566000000E+00 0. -1.
     999900   -1    0    0    0    0 -0.00000000000E+00 -0.00000000000E+00 -0.74505805969E-08  0.93827000000E+00  0.93827000000E+00 0.  1.
     999902    2    1    2    0    0  0.13386859862E-01  0.21310106887E-01 -0.94026850513E-02  0.10170647965E+01  0.10167099199E+01 0.  0.
     999903    2    3    3    0    0 -0.11707151696E+00  0.20204733452E-01  0.37084881401E-01  0.12623276758E+00  0.21105730143E-01 0.  0.
         14    1    1    2    0    0 -0.13386859862E-01 -0.21310106887E-01  0.94026850513E-02  0.26865203492E-01  0.00000000000E+00 0. -1.
     999901    1    3    3    0    0  0.13045837682E+00  0.11053734351E-02 -0.46487566453E-01  0.89083202893E+00  0.88000000000E+00 0.  1.
        -11    1    4    4    0    0 -0.72540576967E-01  0.20598916324E-01  0.16619296213E-01  0.77219898913E-01  0.51100000000E-03 0.  1.
         11    1    4    4    0    0 -0.44530939992E-01 -0.39418287259E-03  0.20465585188E-01  0.49012868665E-01  0.51100000000E-03 0. -1.
</event>
<event>
 8    1  0.1197213E+005  0.1043930E+01  0.7957747E-01            NaN
         13   -1    0    0    0    0  0.00000000000E+00  0.00000000000E+00  0.74505805969E-08  0.10566000000E+00  0.10566000000E+00 0. -1.
     999900   -1    0    0    0    0 -0.00000000000E+00 -0.00000000000E+00 -0.74505805969E-08  0.93827000000E+00  0.93827000000E+00 0.  1.
     999902    2    1    2    0    0  0.12188485555E-01 -0.57694131596E-02 -0.17506885219E-01  0.10218316666E+01  0.10215926872E+01 0.  0.
     999903    2    3    3    0    0 -0.57138368289E-01  0.10128724293E+00  0.53804050703E-01  0.12978201000E+00  0.20605716128E-01 0.  0.
         14    1    1    2    0    0 -0.12188485555E-01  0.57694131596E-02  0.17506885219E-01  0.22098333385E-01  0.00000000000E+00 0. -1.
     999901    1    3    3    0    0  0.69326853845E-01 -0.10705665609E+00 -0.71310935922E-01  0.89204965661E+00  0.88000000000E+00 0. -1.
        -11    1    4    4    0    0 -0.49570786710E-01  0.71147865335E-01  0.43681876605E-01  0.97096081803E-01  0.51100000000E-03 0. -1.
         11    1    4    4    0    0 -0.75675815791E-02  0.30139377597E-01  0.10122174099E-01  0.32685928201E-01  0.51100000000E-03 0.  1.
</event>
<event>
 8    1  0.1197213E+005  0.1043930E+01  0.7957747E-01            NaN
         13   -1    0    0    0    0  0.00000000000E+00  0.00000000000E+00  0.74505805969E-08  0.10566000000E+00  0.10566000000E+00 0. -1.
     999900   -1    0    0    0    0 -0.00000000000E+00 -0.00000000000E+00 -0.74505805969E-08  0.93827000000E+00  0.93827000000E+00 0.  1.
     999902    2    1    2    0    0  0.56840611828E-02 -0.74108304234E-02  0.21742768548E-01  0.10202661680E+01  0.10199917042E+01 0.  0.
     999903    2    3    3    0    0  0.10993292020E+00  0.53084687169E-01 -0.39744320354E-01  0.12992455138E+00  0.19938583047E-01 0.  0.
         14    1    1    2    0    0 -0.56840611828E-02  0.74108304234E-02 -0.21742768548E-01  0.23663831964E-01  0.00000000000E+00 0.  1.
     999901    1    3    3    0    0 -0.10424885902E+00 -0.60495517592E-01  0.61487088902E-01  0.89034161666E+00  0.88000000000E+00 0.  1.
        -11    1    4    4    0    0  0.23173007865E-01  0.13505850275E-01 -0.57921588650E-03  0.26832683377E-01  0.51100000000E-03 0.  1.
         11    1    4    4    0    0  0.86759912337E-01  0.39578836894E-01 -0.39165104468E-01  0.10309186800E+00  0.51100000000E-03 0. -1.
</event>
<event>
 8    1  0.1197213E+005  0.1043930E+01  0.7957747E-01            NaN
         13   -1    0    0    0    0  0.00000000000E+00  0.00000000000E+00  0.74505805969E-08  0.10566000000E+00  0.10566000000E+00 0. -1.
     999900   -1    0    0    0    0 -0.00000000000E+00 -0.00000000000E+00 -0.74505805969E-08  0.93827000000E+00  0.93827000000E+00 0.  1.
     999902    2    1    2    0    0  0.26630466489E-01 -0.40837629088E-02  0.14350189416E-02  0.10169500418E+01  0.10165920860E+01 0.  0.
     999903    2    3    3    0    0  0.52878150167E-01 -0.11592241831E+00 -0.10453368584E-01  0.12940389681E+00  0.20049682360E-01 0.  0.
         14    1    1    2    0    0 -0.26630466489E-01  0.40837629088E-02 -0.14350189416E-02  0.26979958197E-01  0.00000000000E+00 0.  1.
     999901    1    3    3    0    0 -0.26247683678E-01  0.11183865540E+00  0.11888387526E-01  0.88754614500E+00  0.88000000000E+00 0. -1.
        -11    1    4    4    0    0  0.12255960108E-01 -0.22799212202E-01  0.57511918111E-02  0.26520745907E-01  0.51100000000E-03 0. -1.
         11    1    4    4    0    0  0.40622190059E-01 -0.93123206105E-01 -0.16204560395E-01  0.10288315090E+00  0.51100000000E-03 0.  1.
</event>
<event>
 8    1  0.1197213E+005  0.1043930E+01  0.7957747E-01            NaN
         13   -1    0    0    0    0  0.00000000000E+00  0.00000000000E+00  0.74505805969E-08  0.10566000000E+00  0.10566000000E+00 0.  1.
     999900   -1    0    0    0    0 -0.00000000000E+00 -0.00000000000E+00 -0.74505805969E-08  0.93827000000E+00  0.93827000000E+00 0.  1.
     999902    2    1    2    0    0  0.19643243364E-01 -0.11966468180E-01 -0.39196939956E-02  0.10205972468E+01  0.10203304969E+01 0.  0.
     999903    2    3    3    0    0 -0.66166107733E-01 -0.41669499286E-02  0.10906619830E+00  0.12919953025E+00  0.20044094416E-01 0.  0.
         14    1    1    2    0    0 -0.19643243364E-01  0.11966468180E-01  0.39196939956E-02  0.23332753194E-01  0.00000000000E+00 0.  1.
     999901    1    3    3    0    0  0.85809351097E-01 -0.77995182517E-02 -0.11298589230E+00  0.89139771655E+00  0.88000000000E+00 0.  1.
        -11    1    4    4    0    0 -0.43123774232E-01 -0.85494366800E-02  0.84355792518E-01  0.95125777914E-01  0.51100000000E-03 0.  1.
         11    1    4    4    0    0 -0.23042333502E-01  0.43824867514E-02  0.24710405784E-01  0.34073752337E-01  0.51100000000E-03 0. -1.
</event>
<event>
 8    1  0.1197213E+005  0.1043930E+01  0.7957747E-01            NaN
         13   -1    0    0    0    0  0.00000000000E+00  0.00000000000E+00  0.74505805969E-08  0.10566000000E+00  0.10566000000E+00 0.  1.
     999900   -1    0    0    0    0 -0.00000000000E+00 -0.00000000000E+00 -0.74505805969E-08  0.93827000000E+00  0.93827000000E+00 0. -1.
     999902    2    1    2    0    0  0.34190723879E-02  0.12525590496E-01 -0.20213122894E-01  0.10199060367E+01  0.10196230544E+01 0.  0.
     999903    2    3    3    0    0 -0.10105559522E+00  0.61487403848E-01  0.49134260123E-01  0.12966939693E+00  0.20175302344E-01 0.  0.
         14    1    1    2    0    0 -0.34190723879E-02 -0.12525590496E-01  0.20213122894E-01  0.24023963254E-01  0.00000000000E+00 0.  1.
     999901    1    3    3    0    0  0.10447466761E+00 -0.48961813351E-01 -0.69347383018E-01  0.89023663982E+00  0.88000000000E+00 0. -1.
        -11    1    4    4    0    0 -0.68873263660E-01  0.45660624742E-01  0.24620872465E-01  0.86225678200E-01  0.51100000000E-03 0. -1.
         11    1    4    4    0    0 -0.32182331563E-01  0.15826779105E-01  0.24513387659E-01  0.43443718731E-01  0.51100000000E-03 0.  1.
</event>
<event>
 8    1  0.1197213E+005  0.1043930E+01  0.7957747E-01            NaN
         13   -1    0    0    0    0  0.00000000000E+00  0.00000000000E+00  0.74505805969E-08  0.10566000000E+00  0.10566000000E+00 0.  1.
     999900   -1    0    0    0    0 -0.00000000000E+00 -0.00000000000E+00 -0.74505805969E-08  0.93827000000E+00  0.93827000000E+00 0.  1.
     999902    2    1    2    0    0 -0.48995116040E-02  0.18725551460E-01 -0.12923280834E-01  0.10206563523E+01  0.10203909676E+01 0.  0.
     999903    2    3    3    0    0 -0.10078412099E+00  0.62296262207E-01  0.54309916254E-01  0.13182984054E+00  0.19780710931E-01 0.  0.
         14    1    1    2    0    0  0.48995116040E-02 -0.18725551460E-01  0.12923280834E-01  0.23273647736E-01  0.00000000000E+00 0.  1.
     999901    1    3    3    0    0  0.95884609385E-01 -0.43570710748E-01 -0.67233197088E-01  0.88882651172E+00  0.88000000000E+00 0. -1.
        -11    1    4    4    0    0 -0.92767258185E-01  0.50390299577E-01  0.45331902308E-01  0.11489207532E+00  0.51100000000E-03 0.  1.
         11    1    4    4    0    0 -0.80168628034E-02  0.11905962630E-01  0.89780139458E-02  0.16937765224E-01  0.51100000000E-03 0. -1.
</event>
<event>
 8    1  0.1197213E+005  0.1043930E+01  0.7957747E-01            NaN
         13   -1    0    0    0    0  0.00000000000E+00  0.00000000000E+00  0.74505805969E-08  0.10566000000E+00  0.10566000000E+00 0.  1.
     999900   -1    0    0    0    0 -0.00000000000E+00 -0.00000000000E+00 -0.74505805969E-08  0.93827000000E+00  0.93827000000E+00 0.  1.
     999902    2    1    2    0    0  0.13432617544E-01 -0.12035830764E-01 -0.15404913395E-01  0.10202106452E+01  0.10199348767E+01 0.  0.
     999903    2    3    3    0    0  0.59343857381E-01  0.30493502987E-02 -0.11735585459E+00  0.13300751227E+00  0.19687807596E-01 0.  0.
         14    1    1    2    0    0 -0.13432617544E-01  0.12035830764E-01  0.15404913395E-01  0.23719354818E-01  0.00000000000E+00 0.  1.
     999901    1    3    3    0    0 -0.45911239837E-01 -0.15085181063E-01  0.10195094120E+00  0.88720313291E+00  0.88000000000E+00 0. -1.
        -11    1    4    4    0    0  0.35560764531E-01  0.11443563666E-01 -0.68752546908E-01  0.78247664187E-01  0.51100000000E-03 0. -1.
         11    1    4    4    0    0  0.23783092850E-01 -0.83942133674E-02 -0.48603307685E-01  0.54759848087E-01  0.51100000000E-03 0.  1.
</event>
<event>
 8    1  0.1197213E+005  0.1043930E+01  0.7957747E-01            NaN
         13   -1    0    0    0    0  0.00000000000E+00  0.00000000000E+00  0.74505805969E-08  0.10566000000E+00  0.10566000000E+00 0. -1.
     999900   -1    0    0    0    0 -0.00000000000E+00 -0.00000000000E+00 -0.74505805969E-08  0.93827000000E+00  0.93827000000E+00 0. -1.
     999902    2    1    2    0    0 -0.81109852568E-02  0.11762093770E-01  0.19514519151E-01  0.10197442317E+01  0.10194573785E+01 0.  0.
     999903    2    3    3    0    0  0.31136571455E-01 -0.60340210275E-01  0.11040248035E+00  0.13126252987E+00  0.20753723064E-01 0.  0.
         14    1    1    2    0    0  0.81109852568E-02 -0.11762093770E-01 -0.19514519151E-01  0.24185768323E-01  0.00000000000E+00 0. -1.
     999901    1    3    3    0    0 -0.39247556712E-01  0.72102304045E-01 -0.90887961204E-01  0.88848170181E+00  0.88000000000E+00 0. -1.
        -11    1    4    4    0    0  0.11169115955E-01 -0.88562935980E-02  0.13021043514E-01  0.19312995177E-01  0.51100000000E-03 0. -1.
         11    1    4    4    0    0  0.19967455500E-01 -0.51483916677E-01  0.97381436841E-01  0.11194953469E+00  0.51100000000E-03 0.  1.
</event>
<event>
 8    1  0.1197213E+005  0.1043930E+01  0.7957747E-01            NaN
         13   -1    0    0    0    0  0.00000000000E+00  0.00000000000E+00  0.74505805969E-08  0.10566000000E+00  0.10566000000E+00 0.  1.
     999900   -1    0    0    0    0 -0.00000000000E+00 -0.00000000000E+00 -0.74505805969E-08  0.93827000000E+00  0.93827000000E+00 0.  1.
     999902    2    1    2    0    0 -0.26376632163E-01 -0.14347452418E-01  0.93365049018E-02  0.10124856613E+01  0.10119972667E+01 0.  0.
     999903    2    3    3    0    0 -0.35436748409E-01  0.26498395512E-01  0.11550602724E+00  0.12511739697E+00  0.18835938867E-01 0.  0.
         14    1    1    2    0    0  0.26376632163E-01  0.14347452418E-01 -0.93365049018E-02  0.31444338742E-01  0.00000000000E+00 0. -1.
     999901    1    3    3    0    0  0.90601162459E-02 -0.40845847930E-01 -0.10616952233E+00  0.88736826429E+00  0.88000000000E+00 0. -1.
        -11    1    4    4    0    0 -0.25754611523E-01  0.20212397469E-01  0.59331216662E-01  0.67766477094E-01  0.51100000000E-03 0.  1.
         11    1    4    4    0    0 -0.96821368868E-02  0.62859980436E-02  0.56174810575E-01  0.57350919872E-01  0.51100000000E-03 0. -1.
</event>
<event>
 8    1  0.1197213E+005  0.1043930E+01  0.7957747E-01            NaN
         13   -1    0    0    0    0  0.00000000000E+00  0.00000000000E+00  0.74505805969E-08  0.10566000000E+00  0.10566000000E+00 0. -1.
     999900   -1    0    0    0    0 -0.00000000000E+00 -0.00000000000E+00 -0.74505805969E-08  0.93827000000E+00  0.93827000000E+00 0.  1.
     999902    2    1    2    0    0 -0.92187524786E-02 -0.13517487442E-02 -0.21571812812E-01  0.10204320058E+01  0.10201614200E+01 0.  0.
     999903    2    3    3    0    0 -0.56633516169E-01  0.11643327297E+00  0.54313658170E-03  0.13104427141E+00  0.20205045495E-01 0.  0.
         14    1    1    2    0    0  0.92187524786E-02  0.13517487442E-02  0.21571812812E-01  0.23497994168E-01  0.00000000000E+00 0. -1.
     999901    1    3    3    0    0  0.47414763690E-01 -0.11778502171E+00 -0.22114949393E-01  0.88938773442E+00  0.88000000000E+00 0.  1.
        -11    1    4    4    0    0 -0.38722384038E-01  0.72636373759E-01 -0.88871736182E-02  0.82793168766E-01  0.51100000000E-03 0. -1.
         11    1    4    4    0    0 -0.17911132131E-01  0.43796899211E-01  0.94303101998E-02  0.48251102642E-01  0.51100000000E-03 0.  1.
</event>
<event>
 8    1  0.1197213E+005  0.1043930E+01  0.7957747E-01            NaN
         13   -1    0    0    0    0  0.00000000000E+00  0.00000000000E+00  0.74505805969E-08  0.10566000000E+00  0.10566000000E+00 0. -1.
     999900   -1    0    0    0    0 -0.00000000000E+00 -0.00000000000E+00 -0.74505805969E-08  0.93827000000E+00  0.93827000000E+00 0.  1.
     999902    2    1    2    0    0  0.20515730866E-01  0.94989928097E-02 -0.56905072495E-02  0.10206167430E+01  0.10203504438E+01 0.  0.
     999903    2    3    3    0    0 -0.10714228612E+00 -0.79460766249E-03 -0.69197072576E-01  0.12908120738E+00  0.19839918551E-01 0.  0.
         14    1    1    2    0    0 -0.20515730866E-01 -0.94989928097E-02  0.56905072495E-02  0.23313256961E-01  0.00000000000E+00 0. -1.
     999901    1    3    3    0    0  0.12765801699E+00  0.10293600472E-01  0.63506565327E-01  0.89153553566E+00  0.88000000000E+00 0. -1.
        -11    1    4    4    0    0 -0.29293815316E-01 -0.52798947533E-02 -0.28089345040E-01  0.40930151846E-01  0.51100000000E-03 0.  1.
         11    1    4    4    0    0 -0.77848470804E-01  0.44852870908E-02 -0.41107727536E-01  0.88151055530E-01  0.51100000000E-03 0. -1.
</event>
<event>
 8    1  0.1197213E+005  0.1043930E+01  0.7957747E-01            NaN
         13   -1    0    0    0    0  0.00000000000E+00  0.00000000000E+00  0.74505805969E-08  0.10566000000E+00  0.10566000000E+00 0.  1.
     999900   -1    0    0    0    0 -0.00000000000E+00 -0.00000000000E+00 -0.74505805969E-08  0.93827000000E+00  0.93827000000E+00 0. -1.
     999902    2    1    2    0    0 -0.15781991527E-01  0.12349721189E-01 -0.11420963747E-01  0.10208643267E+01  0.10206037176E+01 0.  0.
     999903    2    3    3    0    0 -0.12296868047E+00 -0.33582205793E-01 -0.32041736356E-01  0.13293192815E+00  0.19878725585E-01 0.  0.
         14    1    1    2    0    0  0.15781991527E-01 -0.12349721189E-01  0.11420963747E-01  0.23065673260E-01  0.00000000000E+00 0. -1.
     999901    1    3    3    0    0  0.10718668894E+00  0.45931926982E-01  0.20620772609E-01  0.88793239859E+00  0.88000000000E+00 0. -1.
        -11    1    4    4    0    0 -0.57722334024E-01 -0.13539982853E-01 -0.24880775720E-01  0.64300179645E-01  0.51100000000E-03 0.  1.
         11    1    4    4    0    0 -0.65246346444E-01 -0.20042222940E-01 -0.71609606359E-02  0.68631748506E-01  0.51100000000E-03 0. -1.
</event>
<event>
 8    1  0.1197213E+005  0.1043930E+01  0.7957747E-01            NaN
         13   -1    0    0    0    0  0.00000000000E+00  0.00000000000E+00  0.74505805969E-08  0.10566000000E+00  0.10566000000E+00 0. -1.
     999900   -1    0    0    0    0 -0.00000000000E+00 -0.00000000000E+00 -0.74505805969E-08  0.93827000000E+00  0.93827000000E+00 0.  1.
     999902    2    1    2    0    0  0.22228508907E-01  0.21360287942E-02 -0.91366484580E-02  0.10198022655E+01  0.10195168038E+01 0.  0.
     999903    2    3    3    0    0  0.31739453230E-01 -0.12129854734E+00 -0.31307080810E-01  0.13086015224E+00  0.20579496031E-01 0.  0.
         14    1    1    2    0    0 -0.22228508907E-01 -0.21360287942E-02  0.91366484580E-02  0.24127734504E-01  0.00000000000E+00 0. -1.
     999901    1    3    3    0    0 -0.95109443235E-02  0.12343457614E+00  0.22170432352E-01  0.88894211326E+00  0.88000000000E+00 0.  1.
        -11    1    4    4    0    0  0.98708709643E-02 -0.15900012685E-01 -0.96351856582E-02  0.21055698057E-01  0.51100000000E-03 0. -1.
         11    1    4    4    0    0  0.21868582266E-01 -0.10539853466E+00 -0.21671895152E-01  0.10980445418E+00  0.51100000000E-03 0.  1.
</event>
<event>
 8    1  0.1197213E+005  0.1043930E+01  0.7957747E-01            NaN
         13   -1    0    0    0    0  0.00000000000E+00  0.00000000000E+00  0.74505805969E-08  0.10566000000E+00  0.10566000000E+00 0.  1.
     999900   -1    0    0    0    0 -0.00000000000E+00 -0.00000000000E+00 -0.74505805969E-08  0.93827000000E+00  0.93827000000E+00 0. -1.
     999902    2    1    2    0    0  0.20248345385E-01  0.71594727227E-02 -0.10751386765E-01  0.10199123844E+01  0.10196295533E+01 0.  0.
     999903    2    3    3    0    0 -0.39931053374E-01  0.36699318086E-01 -0.11776711570E+00  0.13089802642E+00  0.17996410992E-01 0.  0.
         14    1    1    2    0    0 -0.20248345385E-01 -0.71594727227E-02  0.10751386765E-01  0.24017615574E-01  0.00000000000E+00 0. -1.
     999901    1    3    3    0    0  0.60179398759E-01 -0.29539845363E-01  0.10701572894E+00  0.88901435800E+00  0.88000000000E+00 0.  1.
        -11    1    4    4    0    0 -0.34688237511E-01  0.37707163983E-01 -0.11106372340E+00  0.12231318741E+00  0.51100000000E-03 0.  1.
         11    1    4    4    0    0 -0.52428158627E-02 -0.10078458975E-02 -0.67033922979E-02  0.85848390097E-02  0.51100000000E-03 0. -1.
</event>
<event>
 8    1  0.1197213E+005  0.1043930E+01  0.7957747E-01            NaN
         13   -1    0    0    0    0  0.00000000000E+00  0.00000000000E+00  0.74505805969E-08  0.10566000000E+00  0.10566000000E+00 0.  1.
     999900   -1    0    0    0    0 -0.00000000000E+00 -0.00000000000E+00 -0.74505805969E-08  0.93827000000E+00  0.93827000000E+00 0. -1.
     999902    2    1    2    0    0 -0.11768696862E-01 -0.86216912770E-02  0.18304837451E-01  0.10205226751E+01  0.10202541975E+01 0.  0.
     999903    2    3    3    0    0 -0.96089199059E-01 -0.34526264415E-01  0.83737290205E-01  0.13369552174E+00  0.20913193288E-01 0.  0.
         14    1    1    2    0    0  0.11768696862E-01  0.86216912770E-02 -0.18304837451E-01  0.23407324931E-01  0.00000000000E+00 0. -1.
     999901    1    3    3    0    0  0.84320502197E-01  0.25904573138E-01 -0.65432452754E-01  0.88682715332E+00  0.88000000000E+00 0. -1.
        -11    1    4    4    0    0 -0.18424616228E-01 -0.79681823313E-02  0.68194625807E-02  0.21206711289E-01  0.51100000000E-03 0. -1.
         11    1    4    4    0    0 -0.77664582831E-01 -0.26558082084E-01  0.76917827624E-01  0.11248881046E+00  0.51100000000E-03 0.  1.
</event>
<event>
 8    1  0.1197213E+005  0.1043930E+01  0.7957747E-01            NaN
         13   -1    0    0    0    0  0.00000000000E+00  0.00000000000E+00  0.74505805969E-08  0.10566000000E+00  0.10566000000E+00 0.  1.
     999900   -1    0    0    0    0 -0.00000000000E+00 -0.00000000000E+00 -0.74505805969E-08  0.93827000000E+00  0.93827000000E+00 0. -1.
     999902    2    1    2    0    0  0.20879945633E-01 -0.84318159922E-03  0.10811052640E-01  0.10204021029E+01  0.10201308198E+01 0.  0.
     999903    2    3    3    0    0  0.58478595678E-01  0.77958759750E-01  0.87675387095E-01  0.13274702888E+00  0.20916161211E-01 0.  0.
         14    1    1    2    0    0 -0.20879945633E-01  0.84318159922E-03 -0.10811052640E-01  0.23527897144E-01  0.00000000000E+00 0. -1.
     999901    1    3    3    0    0 -0.37598650045E-01 -0.78801941349E-01 -0.76864334455E-01  0.88765507398E+00  0.88000000000E+00 0. -1.
        -11    1    4    4    0    0  0.26912254181E-01  0.27258121402E-01  0.46278292181E-01  0.60076751374E-01  0.51100000000E-03 0.  1.
         11    1    4    4    0    0  0.31566341496E-01  0.50700638347E-01  0.41397094914E-01  0.72670277505E-01  0.51100000000E-03 0. -1.
</event>
<event>
 8    1  0.1197213E+005  0.1043930E+01  0.7957747E-01            NaN
         13   -1    0    0    0    0  0.00000000000E+00  0.00000000000E+00  0.74505805969E-08  0.10566000000E+00  0.10566000000E+00 0.  1.
     999900   -1    0    0    0    0 -0.00000000000E+00 -0.00000000000E+00 -0.74505805969E-08  0.93827000000E+00  0.93827000000E+00 0.  1.
     999902    2    1    2    0    0 -0.70815357131E-02 -0.33721124317E-02  0.22137333718E-01  0.10204442419E+01  0.10201739410E+01 0.  0.
     999903    2    3    3    0    0  0.75273358516E-01  0.10293597150E+00 -0.11971359069E-01  0.12957548598E+00  0.19611231424E-01 0.  0.
         14    1    1    2    0    0  0.70815357131E-02  0.33721124317E-02 -0.22137333718E-01  0.23485758119E-01  0.00000000000E+00 0. -1.
     999901    1    3    3    0    0 -0.82354894229E-01 -0.10630808393E+00  0.34108692786E-01  0.89086875590E+00  0.88000000000E+00 0. -1.
        -11    1    4    4    0    0  0.62163357672E-01  0.71507205361E-01 -0.55161693318E-02  0.94911815391E-01  0.51100000000E-03 0. -1.
         11    1    4    4    0    0  0.13110000844E-01  0.31428766142E-01 -0.64551897368E-02  0.34663670591E-01  0.51100000000E-03 0.  1.
</event>
<event>
 8    1  0.1197213E+005  0.1043930E+01  0.7957747E-01            NaN
         13   -1    0    0    0    0  0.00000000000E+00  0.00000000000E+00  0.74505805969E-08  0.10566000000E+00  0.10566000000E+00 0. -1.
     999900   -1    0    0    0    0 -0.00000000000E+00 -0.00000000000E+00 -0.74505805969E-08  0.93827000000E+00  0.93827000000E+00 0. -1.
     999902    2    1    2    0    0  0.15568085168E-01  0.13564619900E-01 -0.10596733676E-01  0.10207210588E+01  0.10204571646E+01 0.  0.
     999903    2    3    3    0    0  0.58563205459E-01 -0.41080475643E-01  0.10695277708E+00  0.13018607668E+00  0.19805643703E-01 0.  0.
         14    1    1    2    0    0 -0.15568085168E-01 -0.13564619900E-01  0.10596733676E-01  0.23208941239E-01  0.00000000000E+00 0. -1.
     999901    1    3    3    0    0 -0.42995120291E-01  0.54645095542E-01 -0.11754951076E+00  0.89053498208E+00  0.88000000000E+00 0. -1.
        -11    1    4    4    0    0  0.11736974959E-01 -0.17661214708E-01  0.23397657504E-01  0.31581427831E-01  0.51100000000E-03 0.  1.
         11    1    4    4    0    0  0.46826230500E-01 -0.23419260935E-01  0.83555119578E-01  0.98604648847E-01  0.51100000000E-03 0. -1.
</event>
<event>
 8    1  0.1197213E+005  0.1043930E+01  0.7957747E-01            NaN
         13   -1    0    0    0    0  0.00000000000E+00  0.00000000000E+00  0.74505805969E-08  0.10566000000E+00  0.10566000000E+00 0. -1.
     999900   -1    0    0    0    0 -0.00000000000E+00 -0.00000000000E+00 -0.74505805969E-08  0.93827000000E+00  0.93827000000E+00 0. -1.
     999902    2    1    2    0    0 -0.16144122970E-01  0.96346322720E-02 -0.14163995525E-01  0.10203911467E+01  0.10201196080E+01 0.  0.
     999903    2    3    3    0    0 -0.12064668312E-01 -0.12457790812E+00  0.26161361777E-01  0.12929306995E+00  0.19159062474E-01 0.  0.
         14    1    1    2    0    0  0.16144122970E-01 -0.96346322720E-02  0.14163995525E-01  0.23538853300E-01  0.00000000000E+00 0. -1.
     999901    1    3    3    0    0 -0.40794546576E-02  0.13421254039E+00 -0.40325357302E-01  0.89109807675E+00  0.88000000000E+00 0. -1.
        -11    1    4    4    0    0 -0.16337033101E-01 -0.11031442365E+00  0.20690048850E-01  0.11342182311E+00  0.51100000000E-03 0.  1.
         11    1    4    4    0    0  0.42723647893E-02 -0.14263484465E-01  0.54713129272E-02  0.15871246836E-01  0.51100000000E-03 0. -1.
</event>
<event>
 8    1  0.1197213E+005  0.1043930E+01  0.7957747E-01            NaN
         13   -1    0    0    0    0  0.00000000000E+00  0.00000000000E+00  0.74505805969E-08  0.10566000000E+00  0.10566000000E+00 0.  1.
     999900   -1    0    0    0    0 -0.00000000000E+00 -0.00000000000E+00 -0.74505805969E-08  0.93827000000E+00  0.93827000000E+00 0.  1.
     999902    2    1    2    0    0 -0.96457756908E-02 -0.62811078903E-02  0.18297085711E-01  0.10223134172E+01  0.10220848528E+01 0.  0.
     999903    2    3    3    0    0  0.12083697587E-01 -0.12237619546E+00 -0.44281690406E-01  0.13221997125E+00  0.19982585656E-01 0.  0.
         14    1    1    2    0    0  0.96457756908E-02  0.62811078903E-02 -0.18297085711E-01  0.21616582767E-01  0.00000000000E+00 0. -1.
     999901    1    3    3    0    0 -0.21729473278E-01  0.11609508757E+00  0.62578776118E-01  0.89009344599E+00  0.88000000000E+00 0. -1.
        -11    1    4    4    0    0  0.14908603550E-01 -0.66478682305E-01 -0.30071615482E-01  0.74473114877E-01  0.51100000000E-03 0.  1.
         11    1    4    4    0    0 -0.28249059630E-02 -0.55897513152E-01 -0.14210074925E-01  0.57746856370E-01  0.51100000000E-03 0. -1.
</event>
<event>
 8    1  0.1197213E+005  0.1043930E+01  0.7957747E-01            NaN
         13   -1    0    0    0    0  0.00000000000E+00  0.00000000000E+00  0.74505805969E-08  0.10566000000E+00  0.10566000000E+00 0.  1.
     999900   -1    0    0    0    0 -0.00000000000E+00 -0.00000000000E+00 -0.74505805969E-08  0.93827000000E+00  0.93827000000E+00 0.  1.
     999902    2    1    2    0    0 -0.14493948315E-01 -0.15194399865E-01  0.98912751883E-02  0.10207183294E+01  0.10204543725E+01 0.  0.
     999903    2    3    3    0    0 -0.41603835811E-01 -0.12470681569E+00 -0.10110716881E-01  0.13329058878E+00  0.19531651930E-01 0.  0.
         14    1    1    2    0    0  0.14493948315E-01  0.15194399865E-01 -0.98912751883E-02  0.23211670553E-01  0.00000000000E+00 0. -1.
     999901    1    3    3    0    0  0.27109887496E-01  0.10951241583E+00  0.20001992070E-01  0.88742774067E+00  0.88000000000E+00 0. -1.
        -11    1    4    4    0    0 -0.19871784358E-02 -0.27256866835E-01 -0.61641854934E-02  0.28020420618E-01  0.51100000000E-03 0. -1.
         11    1    4    4    0    0 -0.39616657375E-01 -0.97449948856E-01 -0.39465313879E-02  0.10527016816E+00  0.51100000000E-03 0.  1.
</event>
<event>
 8    1  0.1197213E+005  0.1043930E+01  0.7957747E-01            NaN
         13   -1    0    0    0    0  0.00000000000E+00  0.00000000000E+00  0.74505805969E-08  0.10566000000E+00  0.10566000000E+00 0.  1.
     999900   -1    0    0    0    0 -0.00000000000E+00 -0.00000000000E+00 -0.74505805969E-08  0.93827000000E+00  0.93827000000E+00 0.  1.
     999902    2    1    2    0    0 -0.62435155716E-02 -0.23923632613E-01  0.28480096083E-02  0.10190415922E+01  0.10187376177E+01 0.  0.
     999903    2    3    3    0    0  0.49568884978E-01 -0.81998551344E-01  0.86556026765E-01  0.13140723483E+00  0.24394237366E-01 0.  0.
         14    1    1    2    0    0  0.62435155716E-02  0.23923632613E-01 -0.28480096083E-02  0.24888407800E-01  0.00000000000E+00 0. -1.
     999901    1    3    3    0    0 -0.55812400549E-01  0.58074918731E-01 -0.83708017157E-01  0.88763435737E+00  0.88000000000E+00 0.  1.
        -11    1    4    4    0    0  0.24525625215E-01 -0.22034473064E-01  0.37827421245E-01  0.50181662133E-01  0.51100000000E-03 0. -1.
         11    1    4    4    0    0  0.25043259762E-01 -0.59964078280E-01  0.48728605521E-01  0.81225572700E-01  0.51100000000E-03 0.  1.
</event>
<event>
 8    1  0.1197213E+005  0.1043930E+01  0.7957747E-01            NaN
         13   -1    0    0    0    0  0.00000000000E+00  0.00000000000E+00  0.74505805969E-08  0.10566000000E+00  0.10566000000E+00 0.  1.
     999900   -1    0    0    0    0 -0.00000000000E+00 -0.00000000000E+00 -0.74505805969E-08  0.93827000000E+00  0.93827000000E+00 0. -1.
     999902    2    1    2    0    0 -0.71821564145E-02 -0.93604836325E-02  0.21182390966E-01  0.10196834392E+01  0.10193951248E+01 0.  0.
     999903    2    3    3    0    0 -0.27192318379E-01  0.11352558979E+00 -0.48847202433E-01  0.12816476996E+00  0.20314461766E-01 0.  0.
         14    1    1    2    0    0  0.71821564145E-02  0.93604836325E-02 -0.21182390966E-01  0.24246560821E-01  0.00000000000E+00 0. -1.
     999901    1    3    3    0    0  0.20010161965E-01 -0.12288607342E+00  0.70029593400E-01  0.89151866922E+00  0.88000000000E+00 0.  1.
        -11    1    4    4    0    0 -0.82333574901E-02  0.75987261742E-01 -0.31528411350E-01  0.82681037523E-01  0.51100000000E-03 0.  1.
         11    1    4    4    0    0 -0.18958960889E-01  0.37538328045E-01 -0.17318791083E-01  0.45483732432E-01  0.51100000000E-03 0. -1.
</event>
<event>
 8    1  0.1197213E+005  0.1043930E+01  0.7957747E-01            NaN
         13   -1    0    0    0    0  0.00000000000E+00  0.00000000000E+00  0.74505805969E-08  0.10566000000E+00  0.10566000000E+00 0.  1.
     999900   -1    0    0    0    0 -0.00000000000E+00 -0.00000000000E+00 -0.74505805969E-08  0.93827000000E+00  0.93827000000E+00 0. -1.
     999902    2    1    2    0    0 -0.14312288804E-01 -0.10063522242E-01  0.13025832248E-01  0.10221174257E+01  0.10218846528E+01 0.  0.
     999903    2    3    3    0    0 -0.85904767630E-01 -0.98355307613E-01 -0.22259343640E-01  0.13410505755E+00  0.20863663269E-01 0.  0.
         14    1    1    2    0    0  0.14312288804E-01  0.10063522242E-01 -0.13025832248E-01  0.21812574275E-01  0.00000000000E+00 0. -1.
     999901    1    3    3    0    0  0.71592478826E-01  0.88291785371E-01  0.35285175888E-01  0.88801236817E+00  0.88000000000E+00 0.  1.
        -11    1    4    4    0    0 -0.26916786893E-01 -0.35512809713E-01 -0.17190041034E-01  0.47764335043E-01  0.51100000000E-03 0.  1.
         11    1    4    4    0    0 -0.58987980737E-01 -0.62842497899E-01 -0.50693026059E-02  0.86340722510E-01  0.51100000000E-03 0. -1.
</event>
<event>
 8    1  0.1197213E+005  0.1043930E+01  0.7957747E-01            NaN
         13   -1    0    0    0    0  0.00000000000E+00  0.00000000000E+00  0.74505805969E-08  0.10566000000E+00  0.10566000000E+00 0. -1.
     999900   -1    0    0    0    0 -0.00000000000E+00 -0.00000000000E+00 -0.74505805969E-08  0.93827000000E+00  0.93827000000E+00 0. -1.
     999902    2    1    2    0    0  0.10027824451E-01  0.25909285662E-01  0.14921390683E-01  0.10123943654E+01  0.10119030857E+01 0.  0.
     999903    2    3    3    0    0  0.10161027296E+00  0.46751126445E-01  0.53487789436E-01  0.12655629090E+00  0.25401491150E-01 0.  0.
         14    1    1    2    0    0 -0.10027824451E-01 -0.25909285662E-01 -0.14921390683E-01  0.31535634553E-01  0.00000000000E+00 0.  1.
     999901    1    3    3    0    0 -0.91582448511E-01 -0.20841840783E-01 -0.38566398753E-01  0.88583807455E+00  0.88000000000E+00 0. -1.
        -11    1    4    4    0    0  0.30451873104E-01  0.10457148024E-01  0.36609653614E-02  0.32408830722E-01  0.51100000000E-03 0.  1.
         11    1    4    4    0    0  0.71158399857E-01  0.36293978421E-01  0.49826824075E-01  0.94147460179E-01  0.51100000000E-03 0. -1.
</event>
<event>
 8    1  0.1197213E+005  0.1043930E+01  0.7957747E-01            NaN
         13   -1    0    0    0    0  0.00000000000E+00  0.00000000000E+00  0.74505805969E-08  0.10566000000E+00  0.10566000000E+00 0.  1.
     999900   -1    0    0    0    0 -0.00000000000E+00 -0.00000000000E+00 -0.74505805969E-08  0.93827000000E+00  0.93827000000E+00 0.  1.
     999902    2    1    2    0    0 -0.99158726580E-02 -0.17156995133E-04 -0.21456708419E-01  0.10202928436E+01  0.10200190055E+01 0.  0.
     999903    2    3    3    0    0  0.73551128925E-01  0.85891759334E-01 -0.62008696767E-01  0.13125316734E+00  0.24395749124E-01 0.  0.
         14    1    1    2    0    0  0.99158726580E-02  0.17156995133E-04  0.21456708419E-01  0.23637156367E-01  0.00000000000E+00 0.  1.
     999901    1    3    3    0    0 -0.83467001583E-01 -0.85908916330E-01  0.40551988348E-01  0.88903967629E+00  0.88000000000E+00 0.  1.
        -11    1    4    4    0    0  0.65601898044E-01  0.71548059887E-01 -0.43076099999E-01  0.10620049629E+00  0.51100000000E-03 0. -1.
         11    1    4    4    0    0  0.79492308810E-02  0.14343699447E-01 -0.18932596768E-01  0.25052671051E-01  0.51100000000E-03 0.  1.
</event>
<event>
 8    1  0.1197213E+005  0.1043930E+01  0.7957747E-01            NaN
         13   -1    0    0    0    0  0.00000000000E+00  0.00000000000E+00  0.74505805969E-08  0.10566000000E+00  0.10566000000E+00 0. -1.
     999900   -1    0    0    0    0 -0.00000000000E+00 -0.00000000000E+00 -0.74505805969E-08  0.93827000000E+00  0.93827000000E+00 0.  1.
     999902    2    1    2    0    0 -0.57109003897E-02 -0.21521370563E-01 -0.90039119515E-02  0.10199122107E+01  0.10196293754E+01 0.  0.
     999903    2    3    3    0    0 -0.12065905882E+00  0.44254948437E-01  0.96514176110E-03  0.12994648925E+00  0.19184619690E-01 0.  0.
         14    1    1    2    0    0  0.57109003897E-02  0.21521370563E-01  0.90039119515E-02  0.24017789336E-01  0.00000000000E+00 0.  1.
     999901    1    3    3    0    0  0.11494815843E+00 -0.65776319000E-01 -0.99690537125E-02  0.88996572142E+00  0.88000000000E+00 0. -1.
        -11    1    4    4    0    0 -0.62888635961E-01  0.32356227980E-01  0.43879728651E-02  0.70861988746E-01  0.51100000000E-03 0.  1.
         11    1    4    4    0    0 -0.57770422857E-01  0.11898720458E-01 -0.34228311040E-02  0.59084500500E-01  0.51100000000E-03 0. -1.
</event>
<event>
 8    1  0.1197213E+005  0.1043930E+01  0.7957747E-01            NaN
         13   -1    0    0    0    0  0.00000000000E+00  0.00000000000E+00  0.74505805969E-08  0.10566000000E+00  0.10566000000E+00 0. -1.
     999900   -1    0    0    0    0 -0.00000000000E+00 -0.00000000000E+00 -0.74505805969E-08  0.93827000000E+00  0.93827000000E+00 0.  1.
     999902    2    1    2    0    0 -0.84268544139E-03 -0.25689546100E-01 -0.25742747370E-02  0.10180980472E+01  0.10177702805E+01 0.  0.
     999903    2    3    3    0    0  0.63881035379E-02 -0.79650344502E-01  0.10089256360E+00  0.13036529530E+00  0.20756097509E-01 0.  0.
         14    1    1    2    0    0  0.84268544139E-03  0.25689546100E-01  0.25742747370E-02  0.25831952849E-01  0.00000000000E+00 0.  1.
     999901    1    3    3    0    0 -0.72307889793E-02  0.53960798403E-01 -0.10346683833E+00  0.88773275185E+00  0.88000000000E+00 0.  1.
        -11    1    4    4    0    0  0.22045949200E-02 -0.38216461434E-01  0.64754033608E-01  0.75224358773E-01  0.51100000000E-03 0.  1.
         11    1    4    4    0    0  0.41835086180E-02 -0.41433883068E-01  0.36138529987E-01  0.55140936527E-01  0.51100000000E-03 0. -1.
</event>
<event>
 8    1  0.1197213E+005  0.1043930E+01  0.7957747E-01            NaN
         13   -1    0    0    0    0  0.00000000000E+00  0.00000000000E+00  0.74505805969E-08  0.10566000000E+00  0.10566000000E+00 0.  1.
     999900   -1    0    0    0    0 -0.00000000000E+00 -0.00000000000E+00 -0.74505805969E-08  0.93827000000E+00  0.93827000000E+00 0.  1.
     999902    2    1    2    0    0 -0.22111836960E-01 -0.15890293153E-02 -0.70470733281E-02  0.10206680226E+01  0.10204029071E+01 0.  0.
     999903    2    3    3    0    0  0.25897524611E-01  0.11187173431E+00  0.57976750501E-01  0.12970991962E+00  0.16655117290E-01 0.  0.
         14    1    1    2    0    0  0.22111836960E-01  0.15890293153E-02  0.70470733281E-02  0.23261977353E-01  0.00000000000E+00 0.  1.
     999901    1    3    3    0    0 -0.48009361571E-01 -0.11346076362E+00 -0.65023823830E-01  0.89095810302E+00  0.88000000000E+00 0.  1.
        -11    1    4    4    0    0  0.11644991429E-01  0.23912840144E-01  0.93501377296E-02  0.28197800370E-01  0.51100000000E-03 0.  1.
         11    1    4    4    0    0  0.14252533182E-01  0.87958894162E-01  0.48626612772E-01  0.10151211925E+00  0.51100000000E-03 0. -1.
</event>
<event>
 8    1  0.1197213E+005  0.1043930E+01  0.7957747E-01            NaN
         13   -1    0    0    0    0  0.00000000000E+00  0.00000000000E+00  0.74505805969E-08  0.10566000000E+00  0.10566000000E+00 0.  1.
     999900   -1    0    0    0    0 -0.00000000000E+00 -0.00000000000E+00 -0.74505805969E-08  0.93827000000E+00  0.93827000000E+00 0. -1.
     999902    2    1    2    0    0 -0.32343684651E-02  0.11497194196E-01  0.18714810662E-01  0.10217288570E+01  0.10214876242E+01 0.  0.
     999903    2    3    3    0    0 -0.67028411658E-01  0.11359418878E+00 -0.29288161182E-02  0.13326843420E+00  0.18853378868E-01 0.  0.
         14    1    1    2    0    0  0.32343684651E-02 -0.11497194196E-01 -0.18714810662E-01  0.22201143031E-01  0.00000000000E+00 0. -1.
     999901    1    3    3    0    0  0.63794043193E-01 -0.10209699459E+00  0.21643626780E-01  0.88846042277E+00  0.88000000000E+00 0. -1.
        -11    1    4    4    0    0 -0.44825341487E-01  0.73246011880E-01 -0.10773986072E-01  0.86548422242E-01  0.51100000000E-03 0.  1.
         11    1    4    4    0    0 -0.22203070171E-01  0.40348176905E-01  0.78451699541E-02  0.46720011956E-01  0.51100000000E-03 0. -1.
</event>
<event>
 8    1  0.1197213E+005  0.1043930E+01  0.7957747E-01            NaN
         13   -1    0    0    0    0  0.00000000000E+00  0.00000000000E+00  0.74505805969E-08  0.10566000000E+00  0.10566000000E+00 0. -1.
     999900   -1    0    0    0    0 -0.00000000000E+00 -0.00000000000E+00 -0.74505805969E-08  0.93827000000E+00  0.93827000000E+00 0. -1.
     999902    2    1    2    0    0  0.20558718109E-01 -0.10363163572E-01  0.67890169535E-02  0.10199269418E+01  0.10196444576E+01 0.  0.
     999903    2    3    3    0    0  0.12134480538E+00  0.46777198720E-01  0.14055822604E-01  0.13230333758E+00  0.19847893407E-01 0.  0.
         14    1    1    2    0    0 -0.20558718109E-01  0.10363163572E-01 -0.67890169535E-02  0.24003058153E-01  0.00000000000E+00 0.  1.
     999901    1    3    3    0    0 -0.10078608727E+00 -0.57140362292E-01 -0.72668056505E-02  0.88762360427E+00  0.88000000000E+00 0. -1.
        -11    1    4    4    0    0  0.63871402726E-01  0.18518408455E-01 -0.99708190421E-03  0.66511223348E-01  0.51100000000E-03 0.  1.
         11    1    4    4    0    0  0.57473402653E-01  0.28258790265E-01  0.15052904508E-01  0.65792114230E-01  0.51100000000E-03 0. -1.
</event>
<event>
 8    1  0.1197213E+005  0.1043930E+01  0.7957747E-01            NaN
         13   -1    0    0    0    0  0.00000000000E+00  0.00000000000E+00  0.74505805969E-08  0.10566000000E+00  0.10566000000E+00 0. -1.
     999900   -1    0    0    0    0 -0.00000000000E+00 -0.00000000000E+00 -0.74505805969E-08  0.93827000000E+00  0.93827000000E+00 0.  1.
     999902    2    1    2    0    0  0.16389972939E-01 -0.14812898509E-01  0.78504548965E-02  0.10204846845E+01  0.10202153246E+01 0.  0.
     999903    2    3    3    0    0  0.65087103273E-01  0.11064871486E+00 -0.79518844859E-02  0.13011299762E+00  0.19664449412E-01 0.  0.
         14    1    1    2    0    0 -0.16389972939E-01  0.14812898509E-01 -0.78504548965E-02  0.23445315465E-01  0.00000000000E+00 0.  1.
     999901    1    3    3    0    0 -0.48697130334E-01 -0.12546161337E+00  0.15802339382E-01  0.89037168692E+00  0.88000000000E+00 0. -1.
        -11    1    4    4    0    0  0.20000509739E-02  0.13269377188E-01 -0.40143356697E-02  0.14016154492E-01  0.51100000000E-03 0.  1.
         11    1    4    4    0    0  0.63087052299E-01  0.97379337669E-01 -0.39375488162E-02  0.11609684313E+00  0.51100000000E-03 0. -1.
</event>
<event>
 8    1  0.1197213E+005  0.1043930E+01  0.7957747E-01            NaN
         13   -1    0    0    0    0  0.00000000000E+00  0.00000000000E+00  0.74505805969E-08  0.10566000000E+00  0.10566000000E+00 0.  1.
     999900   -1    0    0    0    0 -0.00000000000E+00 -0.00000000000E+00 -0.74505805969E-08  0.93827000000E+00  0.93827000000E+00 0.  1.
     999902    2    1    2    0    0 -0.23866199089E-01 -0.63142008453E-02 -0.86513781348E-02  0.10177706626E+01  0.10174344257E+01 0.  0.
     999903    2    3    3    0    0 -0.80711608081E-01 -0.10068016256E+00  0.60188638842E-02  0.13078049844E+00  0.20407185944E-01 0.  0.
         14    1    1    2    0    0  0.23866199089E-01  0.63142008453E-02  0.86513781348E-02  0.26159337432E-01  0.00000000000E+00 0. -1.
     999901    1    3    3    0    0  0.56845408992E-01  0.94365961716E-01 -0.14670242019E-01  0.88699016413E+00  0.88000000000E+00 0. -1.
        -11    1    4    4    0    0 -0.28545166434E-01 -0.40204417050E-01  0.11803735417E-01  0.50703165265E-01  0.51100000000E-03 0. -1.
         11    1    4    4    0    0 -0.52166441647E-01 -0.60475745511E-01 -0.57848715332E-02  0.80077333178E-01  0.51100000000E-03 0.  1.
</event>
<event>
 8    1  0.1197213E+005  0.1043930E+01  0.7957747E-01            NaN
         13   -1    0    0    0    0  0.00000000000E+00  0.00000000000E+00  0.74505805969E-08  0.10566000000E+00  0.10566000000E+00 0. -1.
     999900   -1    0    0    0    0 -0.00000000000E+00 -0.00000000000E+00 -0.74505805969E-08  0.93827000000E+00  0.93827000000E+00 0.  1.
     999902    2    1    2    0    0 -0.12596142034E-01 -0.67512308965E-02 -0.18097782228E-01  0.10208698258E+01  0.10206093423E+01 0.  0.
     999903    2    3    3    0    0 -0.12490185764E-01 -0.12778525227E+00 -0.32077272322E-01  0.13247539104E+00  0.59751479586E-02 0.  0.
         14    1    1    2    0    0  0.12596142034E-01  0.67512308965E-02  0.18097782228E-01  0.23060174204E-01  0.00000000000E+00 0. -1.
     999901    1    3    3    0    0 -0.10595627068E-03  0.12103402138E+00  0.13979490094E-01  0.88839443475E+00  0.88000000000E+00 0. -1.
        -11    1    4    4    0    0 -0.70730156573E-02 -0.60985731152E-01 -0.12529506724E-01  0.62662082748E-01  0.51100000000E-03 0. -1.
         11    1    4    4    0    0 -0.54171701065E-02 -0.66799521122E-01 -0.19547765598E-01  0.69813308294E-01  0.51100000000E-03 0.  1.
</event>
<event>
 8    1  0.1197213E+005  0.1043930E+01  0.7957747E-01            NaN
         13   -1    0    0    0    0  0.00000000000E+00  0.00000000000E+00  0.74505805969E-08  0.10566000000E+00  0.10566000000E+00 0.  1.
     999900   -1    0    0    0    0 -0.00000000000E+00 -0.00000000000E+00 -0.74505805969E-08  0.93827000000E+00  0.93827000000E+00 0. -1.
     999902    2    1    2    0    0 -0.15583566629E-01  0.12428974000E-01 -0.87713417695E-02  0.10221524111E+01  0.10219203922E+01 0.  0.
     999903    2    3    3    0    0  0.12031585712E+00 -0.34829994332E-02 -0.46982801624E-01  0.13075914211E+00  0.20063221006E-01 0.  0.
         14    1    1    2    0    0  0.15583566629E-01 -0.12428974000E-01  0.87713417695E-02  0.21777588939E-01  0.00000000000E+00 0.  1.
     999901    1    3    3    0    0 -0.13589942375E+00  0.15911973433E-01  0.38211459855E-01  0.89139326895E+00  0.88000000000E+00 0.  1.
        -11    1    4    4    0    0  0.82321268955E-01 -0.89386934878E-02 -0.39085137651E-01  0.91567465127E-01  0.51100000000E-03 0.  1.
         11    1    4    4    0    0  0.37994588162E-01  0.54556940546E-02 -0.78976639731E-02  0.39191676979E-01  0.51100000000E-03 0. -1.
</event>
<event>
 8    1  0.1197213E+005  0.1043930E+01  0.7957747E-01            NaN
         13   -1    0    0    0    0  0.00000000000E+00  0.00000000000E+00  0.74505805969E-08  0.10566000000E+00  0.10566000000E+00 0. -1.
     999900   -1    0    0    0    0 -0.00000000000E+00 -0.00000000000E+00 -0.74505805969E-08  0.93827000000E+00  0.93827000000E+00 0.  1.
     999902    2    1    2    0    0 -0.21493995787E-01  0.53462442306E-02 -0.57535645837E-02  0.10210459949E+01  0.10207895210E+01 0.  0.
     999903    2    3    3    0    0 -0.10731681322E+00 -0.72505165546E-01  0.21276724537E-01  0.13303865571E+00  0.21741377038E-01 0.  0.
         14    1    1    2    0    0  0.21493995787E-01 -0.53462442306E-02  0.57535645837E-02  0.22884005062E-01  0.00000000000E+00 0. -1.
     999901    1    3    3    0    0  0.85822817431E-01  0.77851409777E-01 -0.27030289121E-01  0.88800733923E+00  0.88000000000E+00 0.  1.
        -11    1    4    4    0    0 -0.65141303039E-01 -0.45479613287E-01  0.23339253498E-02  0.79482657951E-01  0.51100000000E-03 0.  1.
         11    1    4    4    0    0 -0.42175510179E-01 -0.27025552259E-01  0.18942799187E-01  0.53555997757E-01  0.51100000000E-03 0. -1.
</event>
<event>
 8    1  0.1197213E+005  0.1043930E+01  0.7957747E-01            NaN
         13   -1    0    0    0    0  0.00000000000E+00  0.00000000000E+00  0.74505805969E-08  0.10566000000E+00  0.10566000000E+00 0. -1.
     999900   -1    0    0    0    0 -0.00000000000E+00 -0.00000000000E+00 -0.74505805969E-08  0.93827000000E+00  0.93827000000E+00 0. -1.
     999902    2    1    2    0    0  0.12799776736E-01 -0.18997988015E-01  0.28373830862E-02  0.10208473534E+01  0.10205863561E+01 0.  0.
     999903    2    3    3    0    0 -0.67455982513E-01 -0.11189326654E+00  0.94482180556E-02  0.13230122467E+00  0.18545418650E-01 0.  0.
         14    1    1    2    0    0 -0.12799776736E-01  0.18997988015E-01 -0.28373830862E-02  0.23082646640E-01  0.00000000000E+00 0.  1.
     999901    1    3    3    0    0  0.80255759249E-01  0.92895278521E-01 -0.66108349695E-02  0.88854612869E+00  0.88000000000E+00 0. -1.
        -11    1    4    4    0    0 -0.40002647851E-01 -0.81655135596E-01  0.32317312097E-02  0.90986142966E-01  0.51100000000E-03 0.  1.
         11    1    4    4    0    0 -0.27453334662E-01 -0.30238130940E-01  0.62164868459E-02  0.41315081708E-01  0.51100000000E-03 0. -1.
</event>
<event>
 8    1  0.1197213E+005  0.1043930E+01  0.7957747E-01            NaN
         13   -1    0    0    0    0  0.00000000000E+00  0.00000000000E+00  0.74505805969E-08  0.10566000000E+00  0.10566000000E+00 0.  1.
     999900   -1    0    0    0    0 -0.00000000000E+00 -0.00000000000E+00 -0.74505805969E-08  0.93827000000E+00  0.93827000000E+00 0.  1.
     999902    2    1    2    0    0  0.11918594578E-01  0.11670907862E-01 -0.13712667368E-01  0.10223360140E+01  0.10221079323E+01 0.  0.
     999903    2    3    3    0    0 -0.88563102732E-01  0.49322900101E-02  0.93272703896E-01  0.13015450208E+00  0.19304053184E-01 0.  0.
         14    1    1    2    0    0 -0.11918594578E-01 -0.11670907862E-01  0.13712667368E-01  0.21593986047E-01  0.00000000000E+00 0. -1.
     999901    1    3    3    0    0  0.10048169731E+00  0.67386178519E-02 -0.10698537126E+00  0.89218151187E+00  0.88000000000E+00 0.  1.
        -11    1    4    4    0    0 -0.51005753527E-01  0.12368632347E-01  0.54086578359E-01  0.75367028856E-01  0.51100000000E-03 0. -1.
         11    1    4    4    0    0 -0.37557349204E-01 -0.74363423368E-02  0.39186125537E-01  0.54787473224E-01  0.51100000000E-03 0.  1.
</event>
<event>
 8    1  0.1197213E+005  0.1043930E+01  0.7957747E-01            NaN
         13   -1    0    0    0    0  0.00000000000E+00  0.00000000000E+00  0.74505805969E-08  0.10566000000E+00  0.10566000000E+00 0. -1.
     999900   -1    0    0    0    0 -0.00000000000E+00 -0.00000000000E+00 -0.74505805969E-08  0.93827000000E+00  0.93827000000E+00 0.  1.
     999902    2    1    2    0    0  0.16033995644E-01  0.12676651865E-01  0.46433535606E-02  0.10229693881E+01  0.10227546244E+01 0.  0.
     999903    2    3    3    0    0  0.75818534900E-02 -0.12192833886E+00 -0.43543563722E-01  0.13139105658E+00  0.21060947040E-01 0.  0.
         14    1    1    2    0    0 -0.16033995644E-01 -0.12676651865E-01 -0.46433535606E-02  0.20960611898E-01  0.00000000000E+00 0. -1.
     999901    1    3    3    0    0  0.84521421543E-02  0.13460499072E+00  0.48186917282E-01  0.89157833152E+00  0.88000000000E+00 0. -1.
        -11    1    4    4    0    0  0.29143306667E-02 -0.11320136339E+00 -0.43957462840E-01  0.12147247284E+00  0.51100000000E-03 0. -1.
         11    1    4    4    0    0  0.46675228233E-02 -0.87269754667E-02  0.41389911833E-03  0.99185837489E-02  0.51100000000E-03 0.  1.
</event>
<event>
 8    1  0.1197213E+005  0.1043930E+01  0.7957747E-01            NaN
         13   -1    0    0    0    0  0.00000000000E+00  0.00000000000E+00  0.74505805969E-08  0.10566000000E+00  0.10566000000E+00 0.  1.
     999900   -1    0    0    0    0 -0.00000000000E+00 -0.00000000000E+00 -0.74505805969E-08  0.93827000000E+00  0.93827000000E+00 0. -1.
     999902    2    1    2    0    0  0.11767949967E-01  0.99664530608E-02 -0.18793488441E-01  0.10196193019E+01  0.10193294418E+01 0.  0.
     999903    2    3    3    0    0 -0.10485681176E+00  0.66694976468E-01 -0.33222840174E-01  0.12999709750E+00  0.18770119628E-01 0.  0.
         14    1    1    2    0    0 -0.11767949967E-01 -0.99664530608E-02  0.18793488441E-01  0.24310698073E-01  0.00000000000E+00 0. -1.
     999901    1    3    3    0    0  0.11662476173E+00 -0.56728523407E-01  0.14429351733E-01  0.88962220443E+00  0.88000000000E+00 0.  1.
        -11    1    4    4    0    0 -0.68165536013E-01  0.32782097116E-01 -0.17822829441E-01  0.77711778782E-01  0.51100000000E-03 0.  1.
         11    1    4    4    0    0 -0.36691275747E-01  0.33912879352E-01 -0.15400010733E-01  0.52285318718E-01  0.51100000000E-03 0. -1.
</event>
<event>
 8    1  0.1197213E+005  0.1043930E+01  0.7957747E-01            NaN
         13   -1    0    0    0    0  0.00000000000E+00  0.00000000000E+00  0.74505805969E-08  0.10566000000E+00  0.10566000000E+00 0.  1.
     999900   -1    0    0    0    0 -0.00000000000E+00 -0.00000000000E+00 -0.74505805969E-08  0.93827000000E+00  0.93827000000E+00 0.  1.
     999902    2    1    2    0    0  0.29197837082E-02 -0.10005563363E-01  0.21413189141E-01  0.10201148556E+01  0.10198368288E+01 0.  0.
     999903    2    3    3    0    0  0.34127446447E-01  0.12305739797E+00  0.74636684394E-02  0.12945540380E+00  0.19879371971E-01 0.  0.
         14    1    1    2    0    0 -0.29197837082E-02  0.10005563363E-01 -0.21413189141E-01  0.23815144432E-01  0.00000000000E+00 0.  1.
     999901    1    3    3    0    0 -0.31207662739E-01 -0.13306296134E+00  0.13949520701E-01  0.89065945177E+00  0.88000000000E+00 0.  1.
        -11    1    4    4    0    0  0.18792792212E-01  0.34087180678E-01  0.99417401666E-03  0.38940395847E-01  0.51100000000E-03 0. -1.
         11    1    4    4    0    0  0.15334654235E-01  0.88970217295E-01  0.64694944227E-02  0.90515007955E-01  0.51100000000E-03 0.  1.
</event>
<event>
 8    1  0.1197213E+005  0.1043930E+01  0.7957747E-01            NaN
         13   -1    0    0    0    0  0.00000000000E+00  0.00000000000E+00  0.74505805969E-08  0.10566000000E+00  0.10566000000E+00 0. -1.
     999900   -1    0    0    0    0 -0.00000000000E+00 -0.00000000000E+00 -0.74505805969E-08  0.93827000000E+00  0.93827000000E+00 0.  1.
     999902    2    1    2    0    0  0.60460986553E-02  0.19995650511E-01  0.12461212955E-01  0.10196058725E+01  0.10193156882E+01 0.  0.
     999903    2    3    3    0    0 -0.80795096216E-01  0.11401085206E-01  0.10060356772E+00  0.13090776048E+00  0.18919080317E-01 0.  0.
         14    1    1    2    0    0 -0.60460986553E-02 -0.19995650511E-01 -0.12461212955E-01  0.24324127458E-01  0.00000000000E+00 0.  1.
     999901    1    3    3    0    0  0.86841194871E-01  0.85945653044E-02 -0.88142354762E-01  0.88869811206E+00  0.88000000000E+00 0.  1.
        -11    1    4    4    0    0 -0.32379783680E-01  0.33262043844E-02  0.26281844964E-01  0.41839102793E-01  0.51100000000E-03 0. -1.
         11    1    4    4    0    0 -0.48415312535E-01  0.80748808219E-02  0.74321722753E-01  0.89068657687E-01  0.51100000000E-03 0.  1.
</event>
<event>
 8    1  0.1197213E+005  0.1043930E+01  0.7957747E-01            NaN
         13   -1    0    0    0    0  0.00000000000E+00  0.00000000000E+00  0.74505805969E-08  0.10566000000E+00  0.10566000000E+00 0. -1.
     999900   -1    0    0    0    0 -0.00000000000E+00 -0.00000000000E+00 -0.74505805969E-08  0.93827000000E+00  0.93827000000E+00 0.  1.
     999902    2    1    2    0    0 -0.21621730684E-01 -0.16810042723E-02 -0.41444620693E-03  0.10222390623E+01  0.10220089059E+01 0.  0.
     999903    2    3    3    0    0 -0.22180801110E-01 -0.11993493158E+00  0.49013741017E-01  0.13295426563E+00  0.19952799053E-01 0.  0.
         14    1    1    2    0    0  0.21621730684E-01  0.16810042723E-02  0.41444620693E-03  0.21690937711E-01  0.00000000000E+00 0.  1.
     999901    1    3    3    0    0  0.55907042591E-03  0.11825392730E+00 -0.49428187223E-01  0.88928479666E+00  0.88000000000E+00 0. -1.
        -11    1    4    4    0    0 -0.25511073057E-02 -0.32310931558E-01  0.44901516903E-02  0.32725021464E-01  0.51100000000E-03 0.  1.
         11    1    4    4    0    0 -0.19629693804E-01 -0.87624000017E-01  0.44523589326E-01  0.10022924416E+00  0.51100000000E-03 0. -1.
</event>
<event>
 8    1  0.1197213E+005  0.1043930E+01  0.7957747E-01            NaN
         13   -1    0    0    0    0  0.00000000000E+00  0.00000000000E+00  0.74505805969E-08  0.10566000000E+00  0.10566000000E+00 0. -1.
     999900   -1    0    0    0    0 -0.00000000000E+00 -0.00000000000E+00 -0.74505805969E-08  0.93827000000E+00  0.93827000000E+00 0. -1.
     999902    2    1    2    0    0  0.80693102733E-02 -0.97887993276E-02  0.20031504208E-01  0.10202193374E+01  0.10199437734E+01 0.  0.
     999903    2    3    3    0    0 -0.79885256697E-02 -0.12858139496E+00 -0.16157062443E-01  0.13135537298E+00  0.19904564118E-01 0.  0.
         14    1    1    2    0    0 -0.80693102733E-02  0.97887993276E-02 -0.20031504208E-01  0.23710662610E-01  0.00000000000E+00 0.  1.
     999901    1    3    3    0    0  0.16057835943E-01  0.11879259563E+00  0.36188566652E-01  0.88886396441E+00  0.88000000000E+00 0.  1.
        -11    1    4    4    0    0  0.33063123618E-04 -0.66800941027E-01 -0.17436876548E-01  0.69041093560E-01  0.51100000000E-03 0.  1.
         11    1    4    4    0    0 -0.80215887933E-02 -0.61780453928E-01  0.12798141050E-02  0.62314279419E-01  0.51100000000E-03 0. -1.
</event>
<event>
 8    1  0.1197213E+005  0.1043930E+01  0.7957747E-01            NaN
         13   -1    0    0    0    0  0.00000000000E+00  0.00000000000E+00  0.74505805969E-08  0.10566000000E+00  0.10566000000E+00 0. -1.
     999900   -1    0    0    0    0 -0.00000000000E+00 -0.00000000000E+00 -0.74505805969E-08  0.93827000000E+00  0.93827000000E+00 0. -1.
     999902    2    1    2    0    0  0.67518823908E-02  0.65224156123E-02 -0.20664275833E-01  0.10212332576E+01  0.10209810107E+01 0.  0.
     999903    2    3    3    0    0 -0.70370757610E-01 -0.44787675952E-02 -0.11101773785E+00  0.13318332894E+00  0.20994239792E-01 0.  0.
         14    1    1    2    0    0 -0.67518823908E-02 -0.65224156123E-02  0.20664275833E-01  0.22696742430E-01  0.00000000000E+00 0. -1.
     999901    1    3    3    0    0  0.77122640001E-01  0.11001183208E-01  0.90353462022E-01  0.88804992863E+00  0.88000000000E+00 0.  1.
        -11    1    4    4    0    0 -0.13751940285E-01  0.40162407051E-03 -0.39526713122E-01  0.41855696562E-01  0.51100000000E-03 0.  1.
         11    1    4    4    0    0 -0.56618817325E-01 -0.48803916657E-02 -0.71491024733E-01  0.91327632382E-01  0.51100000000E-03 0. -1.
</event>
<event>
 8    1  0.1197213E+005  0.1043930E+01  0.7957747E-01            NaN
         13   -1    0    0    0    0  0.00000000000E+00  0.00000000000E+00  0.74505805969E-08  0.10566000000E+00  0.10566000000E+00 0.  1.
     999900   -1    0    0    0    0 -0.00000000000E+00 -0.00000000000E+00 -0.74505805969E-08  0.93827000000E+00  0.93827000000E+00 0.  1.
     999902    2    1    2    0    0  0.67031252833E-02  0.86160777056E-02  0.20734905552E-01  0.10204970106E+01  0.10202279371E+01 0.  0.
     999903    2    3    3    0    0  0.10631787065E-01 -0.13456050788E-01 -0.12497057619E+00  0.12823432471E+00  0.23071560872E-01 0.  0.
         14    1    1    2    0    0 -0.67031252833E-02 -0.86160777056E-02 -0.20734905552E-01  0.23432989392E-01  0.00000000000E+00 0. -1.
     999901    1    3    3    0    0 -0.39286617820E-02  0.22072128494E-01  0.14570548174E+00  0.89226268590E+00  0.88000000000E+00 0. -1.
        -11    1    4    4    0    0  0.11380901177E-01 -0.23797104644E-02 -0.24203412942E-01  0.26856177176E-01  0.51100000000E-03 0. -1.
         11    1    4    4    0    0 -0.74911411147E-03 -0.11076340324E-01 -0.10076716325E+00  0.10137814753E+00  0.51100000000E-03 0.  1.
</event>
<event>
 8    1  0.1197213E+005  0.1043930E+01  0.7957747E-01            NaN
         13   -1    0    0    0    0  0.00000000000E+00  0.00000000000E+00  0.74505805969E-08  0.10566000000E+00  0.10566000000E+00 0. -1.
     999900   -1    0    0    0    0 -0.00000000000E+00 -0.00000000000E+00 -0.74505805969E-08  0.93827000000E+00  0.93827000000E+00 0. -1.
     999902    2    1    2    0    0  0.11622492570E-01  0.13438141948E-02 -0.20678050799E-01  0.10201714235E+01  0.10198947316E+01 0.  0.
     999903    2    3    3    0    0  0.11193123050E+00 -0.94165979306E-02  0.63213122571E-01  0.13044373580E+00  0.20059827215E-01 0.  0.
         14    1    1    2    0    0 -0.11622492570E-01 -0.13438141948E-02  0.20678050799E-01  0.23758576451E-01  0.00000000000E+00 0. -1.
     999901    1    3    3    0    0 -0.10030873793E+00  0.10760412125E-01 -0.83891173369E-01  0.88972768775E+00  0.88000000000E+00 0. -1.
        -11    1    4    4    0    0  0.60251049789E-01  0.48075464949E-02  0.31484963576E-01  0.68153250520E-01  0.51100000000E-03 0.  1.
         11    1    4    4    0    0  0.51680180708E-01 -0.14224144426E-01  0.31728158995E-01  0.62290485283E-01  0.51100000000E-03 0. -1.
</event>
<event>
 8    1  0.1197213E+005  0.1043930E+01  0.7957747E-01            NaN
         13   -1    0    0    0    0  0.00000000000E+00  0.00000000000E+00  0.74505805969E-08  0.10566000000E+00  0.10566000000E+00 0.  1.
     999900   -1    0    0    0    0 -0.00000000000E+00 -0.00000000000E+00 -0.74505805969E-08  0.93827000000E+00  0.93827000000E+00 0.  1.
     999902    2    1    2    0    0  0.16325627099E-01 -0.14909471950E-01 -0.77287598022E-02  0.10205088091E+01  0.10202400097E+01 0.  0.
     999903    2    3    3    0    0 -0.95200028903E-01  0.45666809390E-01 -0.71658994819E-01  0.12910848785E+00  0.19633825781E-01 0.  0.
         14    1    1    2    0    0 -0.16325627099E-01  0.14909471950E-01  0.77287598022E-02  0.23421190877E-01  0.00000000000E+00 0.  1.
     999901    1    3    3    0    0  0.11152565600E+00 -0.60576281340E-01  0.63930235016E-01  0.89140032127E+00  0.88000000000E+00 0.  1.
        -11    1    4    4    0    0 -0.60499257599E-01  0.23733067065E-01 -0.33760850087E-01  0.73235747841E-01  0.51100000000E-03 0.  1.
         11    1    4    4    0    0 -0.34700771304E-01  0.21933742326E-01 -0.37898144732E-01  0.55872740014E-01  0.51100000000E-03 0. -1.
</event>
<event>
 8    1  0.1197213E+005  0.1043930E+01  0.7957747E-01            NaN
         13   -1    0    0    0    0  0.00000000000E+00  0.00000000000E+00  0.74505805969E-08  0.10566000000E+00  0.10566000000E+00 0.  1.
     999900   -1    0    0    0    0 -0.00000000000E+00 -0.00000000000E+00 -0.74505805969E-08  0.93827000000E+00  0.93827000000E+00 0. -1.
     999902    2    1    2    0    0  0.89806467064E-03 -0.23046620777E-01  0.57217359018E-02  0.10201667613E+01  0.10198899595E+01 0.  0.
     999903    2    3    3    0    0  0.12671673090E+00  0.21148552348E-01 -0.35570612371E-02  0.13007145961E+00  0.20038482105E-01 0.  0.
         14    1    1    2    0    0 -0.89806467064E-03  0.23046620777E-01 -0.57217359018E-02  0.23763238650E-01  0.00000000000E+00 0.  1.
     999901    1    3    3    0    0 -0.12581866623E+00 -0.44195173126E-01  0.92787971388E-02  0.89009530174E+00  0.88000000000E+00 0.  1.
        -11    1    4    4    0    0  0.10263778241E+00  0.16697772801E-01 -0.10756026200E-01  0.10454321219E+00  0.51100000000E-03 0. -1.
         11    1    4    4    0    0  0.24078948488E-01  0.44507795473E-02  0.71989649629E-02  0.25528247421E-01  0.51100000000E-03 0.  1.
</event>
<event>
 8    1  0.1197213E+005  0.1043930E+01  0.7957747E-01            NaN
         13   -1    0    0    0    0  0.00000000000E+00  0.00000000000E+00  0.74505805969E-08  0.10566000000E+00  0.10566000000E+00 0.  1.
     999900   -1    0    0    0    0 -0.00000000000E+00 -0.00000000000E+00 -0.74505805969E-08  0.93827000000E+00  0.93827000000E+00 0. -1.
     999902    2    1    2    0    0 -0.80906850362E-02 -0.12307294637E-01 -0.18624927071E-01  0.10201851775E+01  0.10199088096E+01 0.  0.
     999903    2    3    3    0    0  0.26258164089E-01 -0.33467171536E-01  0.11960652479E+00  0.12848146098E+00  0.19804602765E-01 0.  0.
         14    1    1    2    0    0  0.80906850362E-02  0.12307294637E-01  0.18624927071E-01  0.23744822468E-01  0.00000000000E+00 0.  1.
     999901    1    3    3    0    0 -0.34348849125E-01  0.21159876899E-01 -0.13823145186E+00  0.89170371655E+00  0.88000000000E+00 0. -1.
        -11    1    4    4    0    0  0.18234126645E-01 -0.13564641694E-01  0.39755736983E-01  0.45795879977E-01  0.51100000000E-03 0.  1.
         11    1    4    4    0    0  0.80240374436E-02 -0.19902529842E-01  0.79850787811E-01  0.82685581004E-01  0.51100000000E-03 0. -1.
</event>
<event>
 8    1  0.1197213E+005  0.1043930E+01  0.7957747E-01            NaN
         13   -1    0    0    0    0  0.00000000000E+00  0.00000000000E+00  0.74505805969E-08  0.10566000000E+00  0.10566000000E+00 0. -1.
     999900   -1    0    0    0    0 -0.00000000000E+00 -0.00000000000E+00 -0.74505805969E-08  0.93827000000E+00  0.93827000000E+00 0.  1.
     999902    2    1    2    0    0 -0.14451122702E-01  0.58377090156E-03  0.24379629101E-01  0.10155831827E+01  0.10151874994E+01 0.  0.
     999903    2    3    3    0    0  0.95692386152E-01 -0.16876181183E-01 -0.72508965573E-01  0.12326942497E+00  0.22270221915E-01 0.  0.
         14    1    1    2    0    0  0.14451122702E-01 -0.58377090156E-03 -0.24379629101E-01  0.28346817297E-01  0.00000000000E+00 0.  1.
     999901    1    3    3    0    0 -0.11014350885E+00  0.17459952085E-01  0.96888594673E-01  0.89231375774E+00  0.88000000000E+00 0. -1.
        -11    1    4    4    0    0  0.32479376645E-01 -0.16583462119E-01 -0.26248935927E-01  0.44935385626E-01  0.51100000000E-03 0.  1.
         11    1    4    4    0    0  0.63213009507E-01 -0.29271906471E-03 -0.46260029645E-01  0.78334039339E-01  0.51100000000E-03 0. -1.
</event>
<event>
 8    1  0.1197213E+005  0.1043930E+01  0.7957747E-01            NaN
         13   -1    0    0    0    0  0.00000000000E+00  0.00000000000E+00  0.74505805969E-08  0.10566000000E+00  0.10566000000E+00 0.  1.
     999900   -1    0    0    0    0 -0.00000000000E+00 -0.00000000000E+00 -0.74505805969E-08  0.93827000000E+00  0.93827000000E+00 0. -1.
     999902    2    1    2    0    0  0.18762596792E-01  0.35206782450E-02  0.13363816453E-01  0.10206271718E+01  0.10203611135E+01 0.  0.
     999903    2    3    3    0    0  0.80111648973E-01 -0.10288028580E+00 -0.28709221253E-02  0.13194925593E+00  0.20003360705E-01 0.  0.
         14    1    1    2    0    0 -0.18762596792E-01 -0.35206782450E-02 -0.13363816453E-01  0.23302828238E-01  0.00000000000E+00 0. -1.
     999901    1    3    3    0    0 -0.61349052181E-01  0.10640096404E+00  0.16234738579E-01  0.88867791583E+00  0.88000000000E+00 0.  1.
        -11    1    4    4    0    0  0.47846126561E-01 -0.45190088650E-01 -0.16350216148E-02  0.65835631354E-01  0.51100000000E-03 0. -1.
         11    1    4    4    0    0  0.32265522412E-01 -0.57690197147E-01 -0.12359005105E-02  0.66113624575E-01  0.51100000000E-03 0.  1.
</event>
<event>
 8    1  0.1197213E+005  0.1043930E+01  0.7957747E-01            NaN
         13   -1    0    0    0    0  0.00000000000E+00  0.00000000000E+00  0.74505805969E-08  0.10566000000E+00  0.10566000000E+00 0.  1.
     999900   -1    0    0    0    0 -0.00000000000E+00 -0.00000000000E+00 -0.74505805969E-08  0.93827000000E+00  0.93827000000E+00 0. -1.
     999902    2    1    2    0    0  0.76290111504E-04  0.63664498606E-02  0.22184026311E-01  0.10208503872E+01  0.10205894593E+01 0.  0.
     999903    2    3    3    0    0 -0.69981610991E-01 -0.38804183112E-02 -0.10600053580E+00  0.12874927758E+00  0.20682827713E-01 0.  0.
         14    1    1    2    0    0 -0.76290111504E-04 -0.63664498606E-02 -0.22184026311E-01  0.23079612808E-01  0.00000000000E+00 0. -1.
     999901    1    3    3    0    0  0.70057901103E-01  0.10246868172E-01  0.12818456212E+00  0.89210110962E+00  0.88000000000E+00 0.  1.
        -11    1    4    4    0    0 -0.41937655788E-01 -0.76454843657E-02 -0.47907645905E-01  0.64129743967E-01  0.51100000000E-03 0. -1.
         11    1    4    4    0    0 -0.28043955203E-01  0.37650660545E-02 -0.58092889900E-01  0.64619533608E-01  0.51100000000E-03 0.  1.
</event>
<event>
 8    1  0.1197213E+005  0.1043930E+01  0.7957747E-01            NaN
         13   -1    0    0    0    0  0.00000000000E+00  0.00000000000E+00  0.74505805969E-08  0.10566000000E+00  0.10566000000E+00 0.  1.
     999900   -1    0    0    0    0 -0.00000000000E+00 -0.00000000000E+00 -0.74505805969E-08  0.93827000000E+00  0.93827000000E+00 0. -1.
     999902    2    1    2    0    0 -0.14831718883E-01 -0.18012551576E-01  0.68615611129E-02  0.10196089614E+01  0.10193188516E+01 0.  0.
     999903    2    3    3    0    0 -0.97943113547E-01  0.72777700506E-01 -0.39255404290E-01  0.12984655022E+00  0.20729029284E-01 0.  0.
         14    1    1    2    0    0  0.14831718883E-01  0.18012551576E-01 -0.68615611129E-02  0.24321038633E-01  0.00000000000E+00 0.  1.
     999901    1    3    3    0    0  0.83111394664E-01 -0.90790252082E-01  0.46116965403E-01  0.88976241115E+00  0.88000000000E+00 0.  1.
        -11    1    4    4    0    0 -0.64676851328E-01  0.38791807643E-01 -0.31156362632E-01  0.81601957645E-01  0.51100000000E-03 0.  1.
         11    1    4    4    0    0 -0.33266262219E-01  0.33985892863E-01 -0.80990416575E-02  0.48244592573E-01  0.51100000000E-03 0. -1.
</event>
<event>
 8    1  0.1197213E+005  0.1043930E+01  0.7957747E-01            NaN
         13   -1    0    0    0    0  0.00000000000E+00  0.00000000000E+00  0.74505805969E-08  0.10566000000E+00  0.10566000000E+00 0. -1.
     999900   -1    0    0    0    0 -0.00000000000E+00 -0.00000000000E+00 -0.74505805969E-08  0.93827000000E+00  0.93827000000E+00 0. -1.
     999902    2    1    2    0    0 -0.40025630163E-02 -0.19792322742E-01  0.13971098966E-01  0.10193749973E+01  0.10190792104E+01 0.  0.
     999903    2    3    3    0    0  0.11351884282E+00  0.18629899832E-01  0.56543692945E-01  0.12971215457E+00  0.19860840596E-01 0.  0.
         14    1    1    2    0    0  0.40025630163E-02  0.19792322742E-01 -0.13971098966E-01  0.24555002678E-01  0.00000000000E+00 0.  1.
     999901    1    3    3    0    0 -0.11752140583E+00 -0.38422222574E-01 -0.42572593979E-01  0.88966284275E+00  0.88000000000E+00 0. -1.
        -11    1    4    4    0    0  0.28624970891E-01  0.12614287418E-01  0.10849980869E-01  0.33113326795E-01  0.51100000000E-03 0.  1.
         11    1    4    4    0    0  0.84893871924E-01  0.60156124142E-02  0.45693712076E-01  0.96598827774E-01  0.51100000000E-03 0. -1.
</event>
<event>
 8    1  0.1197213E+005  0.1043930E+01  0.7957747E-01            NaN
         13   -1    0    0    0    0  0.00000000000E+00  0.00000000000E+00  0.74505805969E-08  0.10566000000E+00  0.10566000000E+00 0.  1.
     999900   -1    0    0    0    0 -0.00000000000E+00 -0.00000000000E+00 -0.74505805969E-08  0.93827000000E+00  0.93827000000E+00 0.  1.
     999902    2    1    2    0    0  0.32530038424E-03 -0.20610656655E-01 -0.81293043201E-02  0.10217716928E+01  0.10215314002E+01 0.  0.
     999903    2    3    3    0    0  0.75606637109E-01  0.10156030746E+00  0.18974163300E-01  0.12973603093E+00  0.20989502709E-01 0.  0.
         14    1    1    2    0    0 -0.32530038424E-03  0.20610656655E-01  0.81293043201E-02  0.22158307174E-01  0.00000000000E+00 0.  1.
     999901    1    3    3    0    0 -0.75281336725E-01 -0.12217096411E+00 -0.27103467620E-01  0.89203566189E+00  0.88000000000E+00 0.  1.
        -11    1    4    4    0    0  0.70749315328E-01  0.96463324102E-01  0.22686162834E-01  0.12176026290E+00  0.51100000000E-03 0.  1.
         11    1    4    4    0    0  0.48573217815E-02  0.50969833542E-02 -0.37119995342E-02  0.79757680347E-02  0.51100000000E-03 0. -1.
</event>
<event>
 8    1  0.1197213E+005  0.1043930E+01  0.7957747E-01            NaN
         13   -1    0    0    0    0  0.00000000000E+00  0.00000000000E+00  0.74505805969E-08  0.10566000000E+00  0.10566000000E+00 0. -1.
     999900   -1    0    0    0    0 -0.00000000000E+00 -0.00000000000E+00 -0.74505805969E-08  0.93827000000E+00  0.93827000000E+00 0.  1.
     999902    2    1    2    0    0 -0.10219259330E-02  0.13455312488E-01  0.18938638966E-01  0.10206757141E+01  0.10204107759E+01 0.  0.
     999903    2    3    3    0    0  0.67416999484E-01  0.11153813944E+00  0.13177050842E-01  0.13256686753E+00  0.20360042451E-01 0.  0.
         14    1    1    2    0    0  0.10219259330E-02 -0.13455312488E-01 -0.18938638966E-01  0.23254285899E-01  0.00000000000E+00 0.  1.
     999901    1    3    3    0    0 -0.68438925417E-01 -0.98082826956E-01  0.57615881248E-02  0.88810884657E+00  0.88000000000E+00 0. -1.
        -11    1    4    4    0    0  0.49592350046E-01  0.69637304144E-01  0.15855824219E-01  0.86950696341E-01  0.51100000000E-03 0.  1.
         11    1    4    4    0    0  0.17824649438E-01  0.41900835300E-01 -0.26787733770E-02  0.45616171192E-01  0.51100000000E-03 0. -1.
</event>
<event>
 8    1  0.1197213E+005  0.1043930E+01  0.7957747E-01            NaN
         13   -1    0    0    0    0  0.00000000000E+00  0.00000000000E+00  0.74505805969E-08  0.10566000000E+00  0.10566000000E+00 0. -1.
     999900   -1    0    0    0    0 -0.00000000000E+00 -0.00000000000E+00 -0.74505805969E-08  0.93827000000E+00  0.93827000000E+00 0.  1.
     999902    2    1    2    0    0  0.11468375171E-01 -0.13695414623E-01 -0.17473581421E-01  0.10189417216E+01  0.10186352723E+01 0.  0.
     999903    2    3    3    0    0  0.11670157994E+00 -0.40565041927E-01 -0.41751166084E-01  0.13193247395E+00  0.19955861984E-01 0.  0.
         14    1    1    2    0    0 -0.11468375171E-01  0.13695414623E-01  0.17473581421E-01  0.24988278420E-01  0.00000000000E+00 0. -1.
     999901    1    3    3    0    0 -0.10523320477E+00  0.26869627304E-01  0.24277584663E-01  0.88700924763E+00  0.88000000000E+00 0. -1.
        -11    1    4    4    0    0  0.39569140722E-01 -0.95058994044E-02 -0.22793101191E-01  0.46646174590E-01  0.51100000000E-03 0. -1.
         11    1    4    4    0    0  0.77132439216E-01 -0.31059142522E-01 -0.18958064893E-01  0.85286299363E-01  0.51100000000E-03 0.  1.
</event>
<event>
 8    1  0.1197213E+005  0.1043930E+01  0.7957747E-01            NaN
         13   -1    0    0    0    0  0.00000000000E+00  0.00000000000E+00  0.74505805969E-08  0.10566000000E+00  0.10566000000E+00 0. -1.
     999900   -1    0    0    0    0 -0.00000000000E+00 -0.00000000000E+00 -0.74505805969E-08  0.93827000000E+00  0.93827000000E+00 0.  1.
     999902    2    1    2    0    0 -0.12302481750E-01  0.92732335820E-02  0.18003138976E-01  0.10202349176E+01  0.10199597198E+01 0.  0.
     999903    2    3    3    0    0 -0.18445159633E-01  0.75458320170E-01 -0.10076174595E+00  0.12977251181E+00  0.25569383602E-01 0.  0.
         14    1    1    2    0    0  0.12302481750E-01 -0.92732335820E-02 -0.18003138976E-01  0.23695082428E-01  0.00000000000E+00 0.  1.
     999901    1    3    3    0    0  0.61426778829E-02 -0.66185086588E-01  0.11876488493E+00  0.89046240576E+00  0.88000000000E+00 0. -1.
        -11    1    4    4    0    0 -0.20802761122E-01  0.47772363948E-01 -0.78229023108E-01  0.93994653066E-01  0.51100000000E-03 0. -1.
         11    1    4    4    0    0  0.23576014889E-02  0.27685956221E-01 -0.22532722845E-01  0.35777858747E-01  0.51100000000E-03 0.  1.
</event>
<event>
 8    1  0.1197213E+005  0.1043930E+01  0.7957747E-01            NaN
         13   -1    0    0    0    0  0.00000000000E+00  0.00000000000E+00  0.74505805969E-08  0.10566000000E+00  0.10566000000E+00 0. -1.
     999900   -1    0    0    0    0 -0.00000000000E+00 -0.00000000000E+00 -0.74505805969E-08  0.93827000000E+00  0.93827000000E+00 0. -1.
     999902    2    1    2    0    0  0.23028253507E-01 -0.92703593575E-02 -0.11568906192E-01  0.10165424186E+01  0.10161734150E+01 0.  0.
     999903    2    3    3    0    0 -0.10467812158E+00  0.50742783655E-01  0.37812905008E-01  0.12393440901E+00  0.19939476486E-01 0.  0.
         14    1    1    2    0    0 -0.23028253507E-01  0.92703593575E-02  0.11568906192E-01  0.27387581359E-01  0.00000000000E+00 0. -1.
     999901    1    3    3    0    0  0.12770637509E+00 -0.60013143013E-01 -0.49381811200E-01  0.89260800963E+00  0.88000000000E+00 0. -1.
        -11    1    4    4    0    0 -0.90187220261E-01  0.35329169138E-01  0.31287167318E-01  0.10178915880E+00  0.51100000000E-03 0.  1.
         11    1    4    4    0    0 -0.14490901317E-01  0.15413614518E-01  0.65257376904E-02  0.22145250210E-01  0.51100000000E-03 0. -1.
</event>
<event>
 8    1  0.1197213E+005  0.1043930E+01  0.7957747E-01            NaN
         13   -1    0    0    0    0  0.00000000000E+00  0.00000000000E+00  0.74505805969E-08  0.10566000000E+00  0.10566000000E+00 0.  1.
     999900   -1    0    0    0    0 -0.00000000000E+00 -0.00000000000E+00 -0.74505805969E-08  0.93827000000E+00  0.93827000000E+00 0. -1.
     999902    2    1    2    0    0  0.22985094501E-01  0.39962321100E-02  0.23346239179E-02  0.10204835736E+01  0.10202141879E+01 0.  0.
     999903    2    3    3    0    0  0.22323765234E-01 -0.11454435705E+00 -0.55857123137E-01  0.13063044640E+00  0.18042591111E-01 0.  0.
         14    1    1    2    0    0 -0.22985094501E-01 -0.39962321100E-02 -0.23346239179E-02  0.23446426362E-01  0.00000000000E+00 0. -1.
     999901    1    3    3    0    0  0.66132926789E-03  0.11854058916E+00  0.58191747055E-01  0.88985312724E+00  0.88000000000E+00 0. -1.
        -11    1    4    4    0    0  0.21608620444E-01 -0.64462380082E-01 -0.32845969111E-01  0.75507944822E-01  0.51100000000E-03 0. -1.
         11    1    4    4    0    0  0.71514478956E-03 -0.50081976970E-01 -0.23011154027E-01  0.55122501575E-01  0.51100000000E-03 0.  1.
</event>
<event>
 8    1  0.1197213E+005  0.1043930E+01  0.7957747E-01            NaN
         13   -1    0    0    0    0  0.00000000000E+00  0.00000000000E+00  0.74505805969E-08  0.10566000000E+00  0.10566000000E+00 0. -1.
     999900   -1    0    0    0    0 -0.00000000000E+00 -0.00000000000E+00 -0.74505805969E-08  0.93827000000E+00  0.93827000000E+00 0.  1.
     999902    2    1    2    0    0  0.28636011327E-02  0.17892405485E-01  0.16076067309E-01  0.10197064923E+01  0.10194187325E+01 0.  0.
     999903    2    3    3    0    0  0.31881827112E-01  0.59378472535E-01  0.11302787797E+00  0.13293549323E+00  0.18822599716E-01 0.  0.
         14    1    1    2    0    0 -0.28636011327E-02 -0.17892405485E-01 -0.16076067309E-01  0.24223507707E-01  0.00000000000E+00 0.  1.
     999901    1    3    3    0    0 -0.29018225979E-01 -0.41486067051E-01 -0.96951810660E-01  0.88677099907E+00  0.88000000000E+00 0.  1.
        -11    1    4    4    0    0  0.77878897616E-02  0.13797753316E-01  0.44063326876E-01  0.46828059109E-01  0.51100000000E-03 0.  1.
         11    1    4    4    0    0  0.24093937350E-01  0.45580719219E-01  0.68964551094E-01  0.86107434117E-01  0.51100000000E-03 0. -1.
</event>
<event>
 8    1  0.1197213E+005  0.1043930E+01  0.7957747E-01            NaN
         13   -1    0    0    0    0  0.00000000000E+00  0.00000000000E+00  0.74505805969E-08  0.10566000000E+00  0.10566000000E+00 0. -1.
     999900   -1    0    0    0    0 -0.00000000000E+00 -0.00000000000E+00 -0.74505805969E-08  0.93827000000E+00  0.93827000000E+00 0. -1.
     999902    2    1    2    0    0 -0.21381475936E-01  0.15260253220E-02  0.67906722512E-02  0.10214442379E+01  0.10211967106E+01 0.  0.
     999903    2    3    3    0    0 -0.61085848466E-01 -0.88892116329E-01 -0.73320445318E-01  0.13230439027E+00  0.22254769230E-01 0.  0.
         14    1    1    2    0    0  0.21381475936E-01 -0.15260253220E-02 -0.67906722512E-02  0.22485762075E-01  0.00000000000E+00 0. -1.
     999901    1    3    3    0    0  0.39704372530E-01  0.90418141651E-01  0.80111117569E-01  0.88913984766E+00  0.88000000000E+00 0.  1.
        -11    1    4    4    0    0 -0.52095146889E-01 -0.58207807231E-01 -0.50521640858E-01  0.93030911358E-01  0.51100000000E-03 0. -1.
         11    1    4    4    0    0 -0.89907015765E-02 -0.30684309098E-01 -0.22798804460E-01  0.39273478907E-01  0.51100000000E-03 0.  1.
</event>
<event>
 8    1  0.1197213E+005  0.1043930E+01  0.7957747E-01            NaN
         13   -1    0    0    0    0  0.00000000000E+00  0.00000000000E+00  0.74505805969E-08  0.10566000000E+00  0.10566000000E+00 0. -1.
     999900   -1    0    0    0    0 -0.00000000000E+00 -0.00000000000E+00 -0.74505805969E-08  0.93827000000E+00  0.93827000000E+00 0. -1.
     999902    2    1    2    0    0  0.11741736040E-01  0.97776398724E-02 -0.22655876677E-01  0.10166031020E+01  0.10162357540E+01 0.  0.
     999903    2    3    3    0    0  0.66400426695E-01  0.73003539703E-01  0.77345430810E-01  0.12700468227E+00  0.20232157000E-01 0.  0.
         14    1    1    2    0    0 -0.11741736040E-01 -0.97776398724E-02  0.22655876677E-01  0.27326898008E-01  0.00000000000E+00 0. -1.
     999901    1    3    3    0    0 -0.54658690655E-01 -0.63225899830E-01 -0.10000130749E+00  0.88959841972E+00  0.88000000000E+00 0. -1.
        -11    1    4    4    0    0  0.40604026746E-01  0.44342036406E-01  0.34343174930E-01  0.69243179923E-01  0.51100000000E-03 0. -1.
         11    1    4    4    0    0  0.25796399950E-01  0.28661503296E-01  0.43002255880E-01  0.57761502347E-01  0.51100000000E-03 0.  1.
</event>
<event>
 8    1  0.1197213E+005  0.1043930E+01  0.7957747E-01            NaN
         13   -1    0    0    0    0  0.00000000000E+00  0.00000000000E+00  0.74505805969E-08  0.10566000000E+00  0.10566000000E+00 0. -1.
     999900   -1    0    0    0    0 -0.00000000000E+00 -0.00000000000E+00 -0.74505805969E-08  0.93827000000E+00  0.93827000000E+00 0.  1.
     999902    2    1    2    0    0  0.19071792994E-01 -0.11781645334E-01  0.74236468036E-02  0.10203153650E+01  0.10200420545E+01 0.  0.
     999903    2    3    3    0    0  0.52419664145E-01  0.11502037931E+00  0.24542642989E-01  0.13043678114E+00  0.20830355317E-01 0.  0.
         14    1    1    2    0    0 -0.19071792994E-01  0.11781645334E-01 -0.74236468036E-02  0.23614635010E-01  0.00000000000E+00 0.  1.
     999901    1    3    3    0    0 -0.33347871151E-01 -0.12680202465E+00 -0.17118996185E-01  0.88987858385E+00  0.88000000000E+00 0.  1.
        -11    1    4    4    0    0  0.32291952515E-01  0.83309537762E-01  0.90613501121E-02  0.89808788357E-01  0.51100000000E-03 0.  1.
         11    1    4    4    0    0  0.20127711630E-01  0.31710841552E-01  0.15481292877E-01  0.40627992783E-01  0.51100000000E-03 0. -1.
</event>
<event>
 8    1  0.1197213E+005  0.1043930E+01  0.7957747E-01            NaN
         13   -1    0    0    0    0  0.00000000000E+00  0.00000000000E+00  0.74505805969E-08  0.10566000000E+00  0.10566000000E+00 0.  1.
     999900   -1    0    0    0    0 -0.00000000000E+00 -0.00000000000E+00 -0.74505805969E-08  0.93827000000E+00  0.93827000000E+00 0.  1.
     999902    2    1    2    0    0  0.12718819213E-01 -0.19663438294E-01 -0.10478037200E-01  0.10182744269E+01  0.10179511776E+01 0.  0.
     999903    2    3    3    0    0  0.12007981160E+00 -0.43827431279E-01  0.20534828987E-01  0.13087819121E+00  0.19168120561E-01 0.  0.
         14    1    1    2    0    0 -0.12718819213E-01  0.19663438294E-01  0.10478037200E-01  0.25655573104E-01  0.00000000000E+00 0. -1.
     999901    1    3    3    0    0 -0.10736099239E+00  0.24163992985E-01 -0.31012866187E-01  0.88739623569E+00  0.88000000000E+00 0.  1.
        -11    1    4    4    0    0  0.80353443422E-01 -0.37733201157E-01  0.10062159381E-01  0.89341919118E-01  0.51100000000E-03 0. -1.
         11    1    4    4    0    0  0.39726368180E-01 -0.60942301219E-02  0.10472669606E-01  0.41536272091E-01  0.51100000000E-03 0.  1.
</event>
<event>
 8    1  0.1197213E+005  0.1043930E+01  0.7957747E-01            NaN
         13   -1    0    0    0    0  0.00000000000E+00  0.00000000000E+00  0.74505805969E-08  0.10566000000E+00  0.10566000000E+00 0. -1.
     999900   -1    0    0    0    0 -0.00000000000E+00 -0.00000000000E+00 -0.74505805969E-08  0.93827000000E+00  0.93827000000E+00 0.  1.
     999902    2    1    2    0    0 -0.42190173702E-03 -0.22391973474E-01 -0.20637144619E-02  0.10214391709E+01  0.10211915307E+01 0.  0.
     999903    2    3    3    0    0  0.10619086433E+00  0.72206388006E-01 -0.37414460398E-02  0.12996962756E+00  0.19693743486E-01 0.  0.
         14    1    1    2    0    0  0.42190173702E-03  0.22391973474E-01  0.20637144619E-02  0.22490829120E-01  0.00000000000E+00 0. -1.
     999901    1    3    3    0    0 -0.10661276607E+00 -0.94598361480E-01  0.16777315779E-02  0.89146954332E+00  0.88000000000E+00 0.  1.
        -11    1    4    4    0    0  0.50466786008E-01  0.41693758900E-01 -0.96121986074E-02  0.66165863588E-01  0.51100000000E-03 0. -1.
         11    1    4    4    0    0  0.55724078327E-01  0.30512629106E-01  0.58707525676E-02  0.63803763972E-01  0.51100000000E-03 0.  1.
</event>
<event>
 8    1  0.1197213E+005  0.1043930E+01  0.7957747E-01            NaN
         13   -1    0    0    0    0  0.00000000000E+00  0.00000000000E+00  0.74505805969E-08  0.10566000000E+00  0.10566000000E+00 0. -1.
     999900   -1    0    0    0    0 -0.00000000000E+00 -0.00000000000E+00 -0.74505805969E-08  0.93827000000E+00  0.93827000000E+00 0. -1.
     999902    2    1    2    0    0 -0.95562592531E-03 -0.19162415712E-01 -0.16092287538E-01  0.10188885720E+01  0.10185808015E+01 0.  0.
     999903    2    3    3    0    0  0.61086269828E-01 -0.11330736711E+00  0.14972151152E-01  0.13115129780E+00  0.20159508945E-01 0.  0.
         14    1    1    2    0    0  0.95562592531E-03  0.19162415712E-01  0.16092287538E-01  0.25041427975E-01  0.00000000000E+00 0.  1.
     999901    1    3    3    0    0 -0.62041895754E-01  0.94144951397E-01 -0.31064438690E-01  0.88773727423E+00  0.88000000000E+00 0.  1.
        -11    1    4    4    0    0  0.41955943141E-01 -0.56823754473E-01  0.69728979830E-02  0.70979734182E-01  0.51100000000E-03 0.  1.
         11    1    4    4    0    0  0.19130326687E-01 -0.56483612636E-01  0.79992531687E-02  0.60171563614E-01  0.51100000000E-03 0. -1.
</event>
<event>
 8    1  0.1197213E+005  0.1043930E+01  0.7957747E-01            NaN
         13   -1    0    0    0    0  0.00000000000E+00  0.00000000000E+00  0.74505805969E-08  0.10566000000E+00  0.10566000000E+00 0. -1.
     999900   -1    0    0    0    0 -0.00000000000E+00 -0.00000000000E+00 -0.74505805969E-08  0.93827000000E+00  0.93827000000E+00 0. -1.
     999902    2    1    2    0    0 -0.78664262443E-02  0.17554901854E-01 -0.14388594303E-01  0.10199073672E+01  0.10196244165E+01 0.  0.
     999903    2    3    3    0    0 -0.49666829342E-01  0.12188165426E+00  0.27270447953E-02  0.13259440658E+00  0.15871619359E-01 0.  0.
         14    1    1    2    0    0  0.78664262443E-02 -0.17554901854E-01  0.14388594303E-01  0.24022632807E-01  0.00000000000E+00 0.  1.
     999901    1    3    3    0    0  0.41800403098E-01 -0.10432675241E+00 -0.17115639098E-01  0.88731296061E+00  0.88000000000E+00 0. -1.
        -11    1    4    4    0    0 -0.35648143877E-01  0.71828694152E-01  0.66493776151E-02  0.80465065768E-01  0.51100000000E-03 0. -1.
         11    1    4    4    0    0 -0.14018685465E-01  0.50052960109E-01 -0.39223328199E-02  0.52129340813E-01  0.51100000000E-03 0.  1.
</event>
<event>
 8    1  0.1197213E+005  0.1043930E+01  0.7957747E-01            NaN
         13   -1    0    0    0    0  0.00000000000E+00  0.00000000000E+00  0.74505805969E-08  0.10566000000E+00  0.10566000000E+00 0.  1.
     999900   -1    0    0    0    0 -0.00000000000E+00 -0.00000000000E+00 -0.74505805969E-08  0.93827000000E+00  0.93827000000E+00 0.  1.
     999902    2    1    2    0    0 -0.12820804246E-01  0.10920302527E-01  0.16774547270E-01  0.10201600302E+01  0.10198830696E+01 0.  0.
     999903    2    3    3    0    0  0.58158242281E-01  0.34683182644E-03 -0.11206554116E+00  0.12788787904E+00  0.20350003726E-01 0.  0.
         14    1    1    2    0    0  0.12820804246E-01 -0.10920302527E-01 -0.16774547270E-01  0.23769969813E-01  0.00000000000E+00 0. -1.
     999901    1    3    3    0    0 -0.70979046527E-01  0.10573470701E-01  0.12884008843E+00  0.89227215115E+00  0.88000000000E+00 0. -1.
        -11    1    4    4    0    0  0.19695935233E-01 -0.65918992337E-02 -0.25390889057E-01  0.32807641920E-01  0.51100000000E-03 0.  1.
         11    1    4    4    0    0  0.38462307048E-01  0.69387310601E-02 -0.86674652104E-01  0.95080237119E-01  0.51100000000E-03 0. -1.
</event>
<event>
 8    1  0.1197213E+005  0.1043930E+01  0.7957747E-01            NaN
         13   -1    0    0    0    0  0.00000000000E+00  0.00000000000E+00  0.74505805969E-08  0.10566000000E+00  0.10566000000E+00 0. -1.
     999900   -1    0    0    0    0 -0.00000000000E+00 -0.00000000000E+00 -0.74505805969E-08  0.93827000000E+00  0.93827000000E+00 0. -1.
     999902    2    1    2    0    0 -0.76561029151E-02 -0.18823214402E-01  0.11003503918E-01  0.10208214213E+01  0.10205598305E+01 0.  0.
     999903    2    3    3    0    0  0.85488199679E-01  0.35728463691E-01 -0.87145947051E-01  0.12880961563E+00  0.20316141082E-01 0.  0.
         14    1    1    2    0    0  0.76561029151E-02  0.18823214402E-01 -0.11003503918E-01  0.23108578726E-01  0.00000000000E+00 0. -1.
     999901    1    3    3    0    0 -0.93144302595E-01 -0.54551678092E-01  0.98149450969E-01  0.89201180565E+00  0.88000000000E+00 0.  1.
        -11    1    4    4    0    0  0.55941602135E-01  0.26232681467E-01 -0.44868377046E-01  0.76361304376E-01  0.51100000000E-03 0. -1.
         11    1    4    4    0    0  0.29546597545E-01  0.94957822238E-02 -0.42277570005E-01  0.52448311251E-01  0.51100000000E-03 0.  1.
</event>
<event>
 7    1  0.1197213E+005  0.1043930E+01  0.7957747E-01            NaN
         13   -1    0    0    0    0  0.00000000000E+00  0.00000000000E+00  0.74505805969E-08  0.10566000000E+00  0.10566000000E+00 0.  1.
     999900   -1    0    0    0    0 -0.00000000000E+00 -0.00000000000E+00 -0.74505805969E-08  0.93827000000E+00  0.93827000000E+00 0. -1.
     999903    2    1    2    0    0 -0.95746284937E-01  0.39458982634E-01 -0.50460699364E-01  0.11686526896E+00  0.19668414260E-01 0.  0.
         14    1    1    2    0    0  0.38169074247E-01 -0.83610322497E-02  0.20503047802E-01  0.44126636608E-01  0.00000000000E+00 0.  1.
     999901    1    1    2    0    0  0.57577210690E-01 -0.31097950385E-01  0.29957651562E-01  0.88293809443E+00  0.88000000000E+00 0.  1.
        -11    1    3    3    0    0 -0.31879776880E-01  0.19628913342E-01 -0.26313053444E-01  0.45763001600E-01  0.51100000000E-03 0.  1.
         11    1    3    3    0    0 -0.63866508057E-01  0.19830069292E-01 -0.24147645920E-01  0.71102267362E-01  0.51100000000E-03 0. -1.
</event>
<event>
 8    1  0.1197213E+005  0.1043930E+01  0.7957747E-01            NaN
         13   -1    0    0    0    0  0.00000000000E+00  0.00000000000E+00  0.74505805969E-08  0.10566000000E+00  0.10566000000E+00 0.  1.
     999900   -1    0    0    0    0 -0.00000000000E+00 -0.00000000000E+00 -0.74505805969E-08  0.93827000000E+00  0.93827000000E+00 0. -1.
     999902    2    1    2    0    0 -0.45193051530E-02 -0.22109064499E-01  0.64676081514E-02  0.10204552304E+01  0.10201851854E+01 0.  0.
     999903    2    3    3    0    0  0.99825142401E-01  0.64255057033E-01 -0.45438499434E-01  0.12858036854E+00  0.19351551221E-01 0.  0.
         14    1    1    2    0    0  0.45193051530E-02  0.22109064499E-01 -0.64676081514E-02  0.23474769589E-01  0.00000000000E+00 0.  1.
     999901    1    3    3    0    0 -0.10434444755E+00 -0.86364121531E-01  0.51906107585E-01  0.89187486187E+00  0.88000000000E+00 0.  1.
        -11    1    4    4    0    0  0.42766618947E-02  0.40689328474E-02 -0.72705521977E-02  0.93791311825E-02  0.51100000000E-03 0. -1.
         11    1    4    4    0    0  0.95548480506E-01  0.60186124185E-01 -0.38167947236E-01  0.11920123736E+00  0.51100000000E-03 0.  1.
</event>
<event>
 8    1  0.1197213E+005  0.1043930E+01  0.7957747E-01            NaN
         13   -1    0    0    0    0  0.00000000000E+00  0.00000000000E+00  0.74505805969E-08  0.10566000000E+00  0.10566000000E+00 0.  1.
     999900   -1    0    0    0    0 -0.00000000000E+00 -0.00000000000E+00 -0.74505805969E-08  0.93827000000E+00  0.93827000000E+00 0.  1.
     999902    2    1    2    0    0  0.13754061758E-01  0.10768669478E-01 -0.15141673009E-01  0.10208127182E+01  0.10205509281E+01 0.  0.
     999903    2    3    3    0    0 -0.33604913551E-02  0.34335719516E-01 -0.12714180703E+00  0.13323604893E+00  0.19914093090E-01 0.  0.
         14    1    1    2    0    0 -0.13754061758E-01 -0.10768669478E-01  0.15141673009E-01  0.23117281818E-01  0.00000000000E+00 0.  1.
     999901    1    3    3    0    0  0.17114553113E-01 -0.23567050038E-01  0.11200013402E+00  0.88757666925E+00  0.88000000000E+00 0. -1.
        -11    1    4    4    0    0 -0.11283795468E-01  0.21863947742E-01 -0.69498336331E-01  0.73726766678E-01  0.51100000000E-03 0. -1.
         11    1    4    4    0    0  0.79233041133E-02  0.12471771773E-01 -0.57643470698E-01  0.59509282254E-01  0.51100000000E-03 0.  1.
</event>
<event>
 7    1  0.1197213E+005  0.1043930E+01  0.7957747E-01            NaN
         13   -1    0    0    0    0  0.00000000000E+00  0.00000000000E+00  0.74505805969E-08  0.10566000000E+00  0.10566000000E+00 0.  1.
     999900   -1    0    0    0    0 -0.00000000000E+00 -0.00000000000E+00 -0.74505805969E-08  0.93827000000E+00  0.93827000000E+00 0. -1.
     999903    2    1    2    0    0  0.20598949252E-01  0.17034235633E-01  0.10036680390E+00  0.10566726012E+00  0.19431743195E-01 0.  0.
         14    1    1    2    0    0  0.42036483535E-01  0.18897273836E-01  0.13421438906E-01  0.48003207484E-01  0.00000000000E+00 0.  1.
     999901    1    1    2    0    0 -0.62635432787E-01 -0.35931509469E-01 -0.11378824280E+00  0.89025953239E+00  0.88000000000E+00 0. -1.
        -11    1    3    3    0    0  0.26282113690E-03 -0.38145129269E-02  0.13930324199E-01  0.14454571495E-01  0.51100000000E-03 0.  1.
         11    1    3    3    0    0  0.20336128115E-01  0.20848748560E-01  0.86436479699E-01  0.91212688629E-01  0.51100000000E-03 0. -1.
</event>
<event>
 8    1  0.1197213E+005  0.1043930E+01  0.7957747E-01            NaN
         13   -1    0    0    0    0  0.00000000000E+00  0.00000000000E+00  0.74505805969E-08  0.10566000000E+00  0.10566000000E+00 0. -1.
     999900   -1    0    0    0    0 -0.00000000000E+00 -0.00000000000E+00 -0.74505805969E-08  0.93827000000E+00  0.93827000000E+00 0.  1.
     999902    2    1    2    0    0 -0.17272406922E-01  0.14056615504E-01  0.67960519548E-02  0.10206467270E+01  0.10203811202E+01 0.  0.
     999903    2    3    3    0    0  0.10524550411E+00  0.64985497813E-01  0.35365993493E-01  0.13024197007E+00  0.20309756518E-01 0.  0.
         14    1    1    2    0    0  0.17272406922E-01 -0.14056615504E-01 -0.67960519548E-02  0.23283273020E-01  0.00000000000E+00 0.  1.
     999901    1    3    3    0    0 -0.12251791103E+00 -0.50928882308E-01 -0.28569941538E-01  0.89040475691E+00  0.88000000000E+00 0.  1.
        -11    1    4    4    0    0  0.84020723771E-01  0.44348979776E-01  0.32851739769E-01  0.10052766762E+00  0.51100000000E-03 0. -1.
         11    1    4    4    0    0  0.21224780337E-01  0.20636518037E-01  0.25142537236E-02  0.29714302446E-01  0.51100000000E-03 0.  1.
</event>
<event>
 8    1  0.1197213E+005  0.1043930E+01  0.7957747E-01            NaN
         13   -1    0    0    0    0  0.00000000000E+00  0.00000000000E+00  0.74505805969E-08  0.10566000000E+00  0.10566000000E+00 0. -1.
     999900   -1    0    0    0    0 -0.00000000000E+00 -0.00000000000E+00 -0.74505805969E-08  0.93827000000E+00  0.93827000000E+00 0.  1.
     999902    2    1    2    0    0 -0.45534894417E-02 -0.21634669687E-01 -0.38945748842E-02  0.10214809263E+01  0.10212342150E+01 0.  0.
     999903    2    3    3    0    0 -0.95632157133E-01 -0.16639542645E-02 -0.89437129977E-01  0.13242992551E+00  0.19758712801E-01 0.  0.
         14    1    1    2    0    0  0.45534894417E-02  0.21634669687E-01  0.38945748842E-02  0.22449073747E-01  0.00000000000E+00 0.  1.
     999901    1    3    3    0    0  0.91078667691E-01 -0.19970715422E-01  0.85542555093E-01  0.88905100074E+00  0.88000000000E+00 0. -1.
        -11    1    4    4    0    0 -0.52870945796E-01  0.75339385876E-02 -0.55887856510E-01  0.77303368402E-01  0.51100000000E-03 0.  1.
         11    1    4    4    0    0 -0.42761211337E-01 -0.91978928521E-02 -0.33549273467E-01  0.55126557113E-01  0.51100000000E-03 0. -1.
</event>
<event>
 8    1  0.1197213E+005  0.1043930E+01  0.7957747E-01            NaN
         13   -1    0    0    0    0  0.00000000000E+00  0.00000000000E+00  0.74505805969E-08  0.10566000000E+00  0.10566000000E+00 0.  1.
     999900   -1    0    0    0    0 -0.00000000000E+00 -0.00000000000E+00 -0.74505805969E-08  0.93827000000E+00  0.93827000000E+00 0. -1.
     999902    2    1    2    0    0  0.49600622749E-02  0.12978139318E-01 -0.19030994152E-01  0.10203670406E+01  0.10200949389E+01 0.  0.
     999903    2    3    3    0    0 -0.26450235249E-01  0.37877090323E-01  0.11863383987E+00  0.12876277238E+00  0.19276272314E-01 0.  0.
         14    1    1    2    0    0 -0.49600622749E-02 -0.12978139318E-01  0.19030994152E-01  0.23562959414E-01  0.00000000000E+00 0.  1.
     999901    1    3    3    0    0  0.31410297524E-01 -0.24898951005E-01 -0.13766483402E+00  0.89160426820E+00  0.88000000000E+00 0. -1.
        -11    1    4    4    0    0 -0.14670349418E-01  0.34788612682E-01  0.85864359071E-01  0.93799872090E-01  0.51100000000E-03 0.  1.
         11    1    4    4    0    0 -0.11779885830E-01  0.30884776405E-02  0.32769480795E-01  0.34962900293E-01  0.51100000000E-03 0. -1.
</event>
<event>
 8    1  0.1197213E+005  0.1043930E+01  0.7957747E-01            NaN
         13   -1    0    0    0    0  0.00000000000E+00  0.00000000000E+00  0.74505805969E-08  0.10566000000E+00  0.10566000000E+00 0. -1.
     999900   -1    0    0    0    0 -0.00000000000E+00 -0.00000000000E+00 -0.74505805969E-08  0.93827000000E+00  0.93827000000E+00 0.  1.
     999902    2    1    2    0    0  0.45120620868E-02  0.23536745275E-01 -0.14184127873E-03  0.10199642494E+01  0.10196826530E+01 0.  0.
     999903    2    3    3    0    0  0.84844642264E-01 -0.46899469298E-01 -0.83525132858E-01  0.12958940864E+00  0.20464444076E-01 0.  0.
         14    1    1    2    0    0 -0.45120620868E-02 -0.23536745275E-01  0.14184127873E-03  0.23965750590E-01  0.00000000000E+00 0. -1.
     999901    1    3    3    0    0 -0.80332580177E-01  0.70436214573E-01  0.83383291579E-01  0.89037484077E+00  0.88000000000E+00 0. -1.
        -11    1    4    4    0    0  0.52049408311E-01 -0.18817438988E-01 -0.53649168556E-01  0.77082626599E-01  0.51100000000E-03 0.  1.
         11    1    4    4    0    0  0.32795233953E-01 -0.28082030310E-01 -0.29875964302E-01  0.52506782041E-01  0.51100000000E-03 0. -1.
</event>
<event>
 8    1  0.1197213E+005  0.1043930E+01  0.7957747E-01            NaN
         13   -1    0    0    0    0  0.00000000000E+00  0.00000000000E+00  0.74505805969E-08  0.10566000000E+00  0.10566000000E+00 0. -1.
     999900   -1    0    0    0    0 -0.00000000000E+00 -0.00000000000E+00 -0.74505805969E-08  0.93827000000E+00  0.93827000000E+00 0. -1.
     999902    2    1    2    0    0 -0.42126969627E-02 -0.18373553786E-01  0.15062096390E-01  0.10198011575E+01  0.10195156692E+01 0.  0.
     999903    2    3    3    0    0  0.10142423719E+00 -0.49387044029E-01 -0.59845492780E-01  0.12978309846E+00  0.23156287113E-01 0.  0.
         14    1    1    2    0    0  0.42126969627E-02  0.18373553786E-01 -0.15062096390E-01  0.24128842535E-01  0.00000000000E+00 0.  1.
     999901    1    3    3    0    0 -0.10563693415E+00  0.31013490243E-01  0.74907589170E-01  0.89001805900E+00  0.88000000000E+00 0.  1.
        -11    1    4    4    0    0  0.59620246187E-01 -0.16374291773E-01 -0.30029136091E-01  0.68736462826E-01  0.51100000000E-03 0.  1.
         11    1    4    4    0    0  0.41803991004E-01 -0.33012752256E-01 -0.29816356689E-01  0.61046635637E-01  0.51100000000E-03 0. -1.
</event>
<event>
 8    1  0.1197213E+005  0.1043930E+01  0.7957747E-01            NaN
         13   -1    0    0    0    0  0.00000000000E+00  0.00000000000E+00  0.74505805969E-08  0.10566000000E+00  0.10566000000E+00 0. -1.
     999900   -1    0    0    0    0 -0.00000000000E+00 -0.00000000000E+00 -0.74505805969E-08  0.93827000000E+00  0.93827000000E+00 0. -1.
     999902    2    1    2    0    0  0.21712505626E-01  0.28717519831E-02  0.93733462794E-02  0.10201069129E+01  0.10198286985E+01 0.  0.
     999903    2    3    3    0    0  0.57969284586E-01  0.55611353043E-01 -0.10138541304E+00  0.13085806001E+00  0.19793164207E-01 0.  0.
         14    1    1    2    0    0 -0.21712505626E-01 -0.28717519831E-02 -0.93733462794E-02  0.23823087132E-01  0.00000000000E+00 0.  1.
     999901    1    3    3    0    0 -0.36256778960E-01 -0.52739601060E-01  0.11075875932E+00  0.88924885286E+00  0.88000000000E+00 0.  1.
        -11    1    4    4    0    0  0.41154646957E-01  0.50121930397E-01 -0.83098863541E-01  0.10541155115E+00  0.51100000000E-03 0. -1.
         11    1    4    4    0    0  0.16814637629E-01  0.54894226458E-02 -0.18286549503E-01  0.25446508862E-01  0.51100000000E-03 0.  1.
</event>
<event>
 8    1  0.1197213E+005  0.1043930E+01  0.7957747E-01            NaN
         13   -1    0    0    0    0  0.00000000000E+00  0.00000000000E+00  0.74505805969E-08  0.10566000000E+00  0.10566000000E+00 0. -1.
     999900   -1    0    0    0    0 -0.00000000000E+00 -0.00000000000E+00 -0.74505805969E-08  0.93827000000E+00  0.93827000000E+00 0. -1.
     999902    2    1    2    0    0  0.22316552276E-01 -0.21198139314E-02  0.51874663360E-02  0.10209206123E+01  0.10206612879E+01 0.  0.
     999903    2    3    3    0    0 -0.52252950656E-01 -0.44349626601E-02 -0.11656711486E+00  0.12941057379E+00  0.20227817335E-01 0.  0.
         14    1    1    2    0    0 -0.22316552276E-01  0.21198139314E-02 -0.51874663360E-02  0.23009387727E-01  0.00000000000E+00 0.  1.
     999901    1    3    3    0    0  0.74569502932E-01  0.23151487287E-02  0.12175458120E+00  0.89151003849E+00  0.88000000000E+00 0.  1.
        -11    1    4    4    0    0 -0.40214301209E-01 -0.11429055137E-01 -0.94161358879E-01  0.10302638473E+00  0.51100000000E-03 0. -1.
         11    1    4    4    0    0 -0.12038649447E-01  0.69940924765E-02 -0.22405755983E-01  0.26384189058E-01  0.51100000000E-03 0.  1.
</event>
<event>
 8    1  0.1197213E+005  0.1043930E+01  0.7957747E-01            NaN
         13   -1    0    0    0    0  0.00000000000E+00  0.00000000000E+00  0.74505805969E-08  0.10566000000E+00  0.10566000000E+00 0.  1.
     999900   -1    0    0    0    0 -0.00000000000E+00 -0.00000000000E+00 -0.74505805969E-08  0.93827000000E+00  0.93827000000E+00 0.  1.
     999902    2    1    2    0    0  0.16469721002E-01  0.13704251805E-01  0.28163156179E-01  0.10085432568E+01  0.10079222585E+01 0.  0.
     999903    2    3    3    0    0 -0.84050391175E-01 -0.77657899252E-01  0.22133543758E-01  0.11810084328E+00  0.19044627862E-01 0.  0.
         14    1    1    2    0    0 -0.16469721002E-01 -0.13704251805E-01 -0.28163156179E-01  0.35386743187E-01  0.00000000000E+00 0. -1.
     999901    1    3    3    0    0  0.10052011218E+00  0.91362151057E-01  0.60296124213E-02  0.89044241354E+00  0.88000000000E+00 0. -1.
        -11    1    4    4    0    0 -0.73369459502E-01 -0.60475620043E-01  0.13257778843E-01  0.96002125122E-01  0.51100000000E-03 0. -1.
         11    1    4    4    0    0 -0.10680931673E-01 -0.17182279209E-01  0.88757649151E-02  0.22098718154E-01  0.51100000000E-03 0.  1.
</event>
<event>
 8    1  0.1197213E+005  0.1043930E+01  0.7957747E-01            NaN
         13   -1    0    0    0    0  0.00000000000E+00  0.00000000000E+00  0.74505805969E-08  0.10566000000E+00  0.10566000000E+00 0.  1.
     999900   -1    0    0    0    0 -0.00000000000E+00 -0.00000000000E+00 -0.74505805969E-08  0.93827000000E+00  0.93827000000E+00 0.  1.
     999902    2    1    2    0    0  0.13673579501E-01  0.13728234986E-01  0.14198696776E-01  0.10199084638E+01  0.10196255392E+01 0.  0.
     999903    2    3    3    0    0 -0.12151164388E+00  0.29462514512E-01 -0.22581871389E-01  0.12868715436E+00  0.20428495330E-01 0.  0.
         14    1    1    2    0    0 -0.13673579501E-01 -0.13728234986E-01 -0.14198696776E-01  0.24021536219E-01  0.00000000000E+00 0.  1.
     999901    1    3    3    0    0  0.13518522338E+00 -0.15734279526E-01  0.36780568164E-01  0.89122130942E+00  0.88000000000E+00 0. -1.
        -11    1    4    4    0    0 -0.29704842168E-01  0.13709883201E-01  0.48551512289E-03  0.32723621308E-01  0.51100000000E-03 0.  1.
         11    1    4    4    0    0 -0.91806801714E-01  0.15752631311E-01 -0.23067386511E-01  0.95963533051E-01  0.51100000000E-03 0. -1.
</event>
<event>
 8    1  0.1197213E+005  0.1043930E+01  0.7957747E-01            NaN
         13   -1    0    0    0    0  0.00000000000E+00  0.00000000000E+00  0.74505805969E-08  0.10566000000E+00  0.10566000000E+00 0. -1.
     999900   -1    0    0    0    0 -0.00000000000E+00 -0.00000000000E+00 -0.74505805969E-08  0.93827000000E+00  0.93827000000E+00 0.  1.
     999902    2    1    2    0    0  0.10644930425E-01  0.83108794145E-02 -0.20591434026E-01  0.10193049636E+01  0.10190074664E+01 0.  0.
     999903    2    3    3    0    0  0.18023064522E-01 -0.53922555077E-01 -0.11722283743E+00  0.13179999726E+00  0.19939229176E-01 0.  0.
         14    1    1    2    0    0 -0.10644930425E-01 -0.83108794145E-02  0.20591434026E-01  0.24625036358E-01  0.00000000000E+00 0. -1.
     999901    1    3    3    0    0 -0.73781340973E-02  0.62233434491E-01  0.96631403409E-01  0.88750496638E+00  0.88000000000E+00 0.  1.
        -11    1    4    4    0    0  0.82777835602E-02 -0.41668909712E-01 -0.68354804874E-01  0.80482670232E-01  0.51100000000E-03 0. -1.
         11    1    4    4    0    0  0.97452809618E-02 -0.12253645365E-01 -0.48868032561E-01  0.51317327026E-01  0.51100000000E-03 0.  1.
</event>
<event>
 8    1  0.1197213E+005  0.1043930E+01  0.7957747E-01            NaN
         13   -1    0    0    0    0  0.00000000000E+00  0.00000000000E+00  0.74505805969E-08  0.10566000000E+00  0.10566000000E+00 0.  1.
     999900   -1    0    0    0    0 -0.00000000000E+00 -0.00000000000E+00 -0.74505805969E-08  0.93827000000E+00  0.93827000000E+00 0. -1.
     999902    2    1    2    0    0 -0.21408622914E-01 -0.91314288977E-03 -0.79351289396E-02  0.10210798526E+01  0.10208241456E+01 0.  0.
     999903    2    3    3    0    0 -0.10407305346E+00  0.56959064603E-01 -0.58523006439E-01  0.13386976822E+00  0.20509438386E-01 0.  0.
         14    1    1    2    0    0  0.21408622914E-01  0.91314288977E-03  0.79351289396E-02  0.22850147402E-01  0.00000000000E+00 0.  1.
     999901    1    3    3    0    0  0.82664430546E-01 -0.57872207493E-01  0.50587877500E-01  0.88721008438E+00  0.88000000000E+00 0.  1.
        -11    1    4    4    0    0 -0.39499985440E-01  0.14577697212E-01 -0.29242728751E-01  0.51265547999E-01  0.51100000000E-03 0.  1.
         11    1    4    4    0    0 -0.64573068019E-01  0.42381367392E-01 -0.29280277688E-01  0.82604220218E-01  0.51100000000E-03 0. -1.
</event>
<event>
 8    1  0.1197213E+005  0.1043930E+01  0.7957747E-01            NaN
         13   -1    0    0    0    0  0.00000000000E+00  0.00000000000E+00  0.74505805969E-08  0.10566000000E+00  0.10566000000E+00 0. -1.
     999900   -1    0    0    0    0 -0.00000000000E+00 -0.00000000000E+00 -0.74505805969E-08  0.93827000000E+00  0.93827000000E+00 0. -1.
     999902    2    1    2    0    0 -0.11615807256E-01  0.11469897269E-01  0.17080345353E-01  0.10203032415E+01  0.10200296470E+01 0.  0.
     999903    2    3    3    0    0  0.45743247112E-01 -0.17421368304E-01  0.12060657322E+00  0.13191005925E+00  0.21409565572E-01 0.  0.
         14    1    1    2    0    0  0.11615807256E-01 -0.11469897269E-01 -0.17080345353E-01  0.23626758537E-01  0.00000000000E+00 0.  1.
     999901    1    3    3    0    0 -0.57359054368E-01  0.28891265573E-01 -0.10352622787E+00  0.88839318221E+00  0.88000000000E+00 0. -1.
        -11    1    4    4    0    0  0.14623127216E-01 -0.11051011828E-02  0.60777143487E-01  0.62523430725E-01  0.51100000000E-03 0.  1.
         11    1    4    4    0    0  0.31120119896E-01 -0.16316267121E-01  0.59829429732E-01  0.69386628526E-01  0.51100000000E-03 0. -1.
</event>
<event>
 8    1  0.1197213E+005  0.1043930E+01  0.7957747E-01            NaN
         13   -1    0    0    0    0  0.00000000000E+00  0.00000000000E+00  0.74505805969E-08  0.10566000000E+00  0.10566000000E+00 0.  1.
     999900   -1    0    0    0    0 -0.00000000000E+00 -0.00000000000E+00 -0.74505805969E-08  0.93827000000E+00  0.93827000000E+00 0.  1.
     999902    2    1    2    0    0 -0.20227909535E-01  0.17546126555E-02  0.89902074603E-02  0.10217248020E+01  0.10214834801E+01 0.  0.
     999903    2    3    3    0    0  0.42691239021E-02  0.12906956035E+00  0.19450878315E-01  0.13216388432E+00  0.20292334141E-01 0.  0.
         14    1    1    2    0    0  0.20227909535E-01 -0.17546126555E-02 -0.89902074603E-02  0.22205198038E-01  0.00000000000E+00 0. -1.
     999901    1    3    3    0    0 -0.24497033437E-01 -0.12731494769E+00 -0.10460670855E-01  0.88956091764E+00  0.88000000000E+00 0.  1.
        -11    1    4    4    0    0  0.10830746005E-01  0.65177783927E-01  0.15163048573E-01  0.67791059438E-01  0.51100000000E-03 0. -1.
         11    1    4    4    0    0 -0.65616221031E-02  0.63891776422E-01  0.42878297419E-02  0.64372824887E-01  0.51100000000E-03 0.  1.
</event>
<event>
 8    1  0.1197213E+005  0.1043930E+01  0.7957747E-01            NaN
         13   -1    0    0    0    0  0.00000000000E+00  0.00000000000E+00  0.74505805969E-08  0.10566000000E+00  0.10566000000E+00 0.  1.
     999900   -1    0    0    0    0 -0.00000000000E+00 -0.00000000000E+00 -0.74505805969E-08  0.93827000000E+00  0.93827000000E+00 0. -1.
     999902    2    1    2    0    0  0.21520184694E-01  0.48428772802E-02 -0.10012094886E-01  0.10197057590E+01  0.10194179815E+01 0.  0.
     999903    2    3    3    0    0  0.80928121996E-01  0.64170971989E-01  0.78609861755E-01  0.13127850982E+00  0.19678978593E-01 0.  0.
         14    1    1    2    0    0 -0.21520184694E-01 -0.48428772802E-02  0.10012094886E-01  0.24224241033E-01  0.00000000000E+00 0.  1.
     999901    1    3    3    0    0 -0.59407937303E-01 -0.59328094708E-01 -0.88621956641E-01  0.88842724915E+00  0.88000000000E+00 0. -1.
        -11    1    4    4    0    0  0.62519517786E-01  0.43036492235E-01  0.65822882731E-01  0.10046762056E+00  0.51100000000E-03 0.  1.
         11    1    4    4    0    0  0.18408604211E-01  0.21134479754E-01  0.12786979024E-01  0.30810889260E-01  0.51100000000E-03 0. -1.
</event>
<event>
 8    1  0.1197213E+005  0.1043930E+01  0.7957747E-01            NaN
         13   -1    0    0    0    0  0.00000000000E+00  0.00000000000E+00  0.74505805969E-08  0.10566000000E+00  0.10566000000E+00 0.  1.
     999900   -1    0    0    0    0 -0.00000000000E+00 -0.00000000000E+00 -0.74505805969E-08  0.93827000000E+00  0.93827000000E+00 0.  1.
     999902    2    1    2    0    0 -0.14905182813E-01 -0.16828524472E-01  0.67348138875E-02  0.10204625453E+01  0.10201926705E+01 0.  0.
     999903    2    3    3    0    0 -0.93773372112E-01 -0.16926613210E-01  0.90791461166E-01  0.13294594219E+00  0.18750428557E-01 0.  0.
         14    1    1    2    0    0  0.14905182813E-01  0.16828524472E-01 -0.67348138875E-02  0.23467454670E-01  0.00000000000E+00 0.  1.
     999901    1    3    3    0    0  0.78868189299E-01  0.98088737253E-04 -0.84056647278E-01  0.88751660314E+00  0.88000000000E+00 0.  1.
        -11    1    4    4    0    0 -0.78354291911E-01 -0.67753372772E-02  0.73537351623E-01  0.10767220375E+00  0.51100000000E-03 0.  1.
         11    1    4    4    0    0 -0.15419080200E-01 -0.10151275933E-01  0.17254109542E-01  0.25273738433E-01  0.51100000000E-03 0. -1.
</event>
<event>
 8    1  0.1197213E+005  0.1043930E+01  0.7957747E-01            NaN
         13   -1    0    0    0    0  0.00000000000E+00  0.00000000000E+00  0.74505805969E-08  0.10566000000E+00  0.10566000000E+00 0.  1.
     999900   -1    0    0    0    0 -0.00000000000E+00 -0.00000000000E+00 -0.74505805969E-08  0.93827000000E+00  0.93827000000E+00 0.  1.
     999902    2    1    2    0    0  0.32128818295E-02  0.52592984056E-02 -0.22952922765E-01  0.10201640687E+01  0.10198872033E+01 0.  0.
     999903    2    3    3    0    0 -0.75072182631E-01  0.72711579757E-01 -0.78628841419E-01  0.13237007819E+00  0.20409224931E-01 0.  0.
         14    1    1    2    0    0 -0.32128818295E-02 -0.52592984056E-02  0.22952922765E-01  0.23765931348E-01  0.00000000000E+00 0.  1.
     999901    1    3    3    0    0  0.78285064460E-01 -0.67452281351E-01  0.55675918655E-01  0.88779399046E+00  0.88000000000E+00 0. -1.
        -11    1    4    4    0    0 -0.21767713774E-01  0.33293406001E-01 -0.23961816674E-01  0.46440435241E-01  0.51100000000E-03 0. -1.
         11    1    4    4    0    0 -0.53304468857E-01  0.39418173756E-01 -0.54667024746E-01  0.85929642952E-01  0.51100000000E-03 0.  1.
</event>
<event>
 8    1  0.1197213E+005  0.1043930E+01  0.7957747E-01            NaN
         13   -1    0    0    0    0  0.00000000000E+00  0.00000000000E+00  0.74505805969E-08  0.10566000000E+00  0.10566000000E+00 0. -1.
     999900   -1    0    0    0    0 -0.00000000000E+00 -0.00000000000E+00 -0.74505805969E-08  0.93827000000E+00  0.93827000000E+00 0.  1.
     999902    2    1    2    0    0 -0.12646200342E-01 -0.41385318048E-03 -0.20501933557E-01  0.10198379487E+01  0.10195533407E+01 0.  0.
     999903    2    3    3    0    0 -0.12052866140E+00 -0.48568188885E-01 -0.10965606911E-01  0.13189177521E+00  0.19727357683E-01 0.  0.
         14    1    1    2    0    0  0.12646200342E-01  0.41385318048E-03  0.20501933557E-01  0.24092051327E-01  0.00000000000E+00 0. -1.
     999901    1    3    3    0    0  0.10788246106E+00  0.48154335705E-01 -0.95363266457E-02  0.88794617347E+00  0.88000000000E+00 0.  1.
        -11    1    4    4    0    0 -0.63825628486E-01 -0.24927524077E-01 -0.15617799883E-01  0.70279933853E-01  0.51100000000E-03 0.  1.
         11    1    4    4    0    0 -0.56703032915E-01 -0.23640664808E-01  0.46521929714E-02  0.61611841352E-01  0.51100000000E-03 0. -1.
</event>
<event>
 8    1  0.1197213E+005  0.1043930E+01  0.7957747E-01            NaN
         13   -1    0    0    0    0  0.00000000000E+00  0.00000000000E+00  0.74505805969E-08  0.10566000000E+00  0.10566000000E+00 0. -1.
     999900   -1    0    0    0    0 -0.00000000000E+00 -0.00000000000E+00 -0.74505805969E-08  0.93827000000E+00  0.93827000000E+00 0.  1.
     999902    2    1    2    0    0 -0.21836634208E-03 -0.73028102258E-02  0.22926355658E-01  0.10198676538E+01  0.10195837556E+01 0.  0.
     999903    2    3    3    0    0 -0.36659626839E-01  0.58463903572E-01 -0.10524842111E+00  0.12740925168E+00  0.19847695258E-01 0.  0.
         14    1    1    2    0    0  0.21836634208E-03  0.73028102258E-02 -0.22926355658E-01  0.24062346203E-01  0.00000000000E+00 0.  1.
     999901    1    3    3    0    0  0.36441260497E-01 -0.65766713798E-01  0.12817477677E+00  0.89245840212E+00  0.88000000000E+00 0. -1.
        -11    1    4    4    0    0 -0.36872769732E-02  0.21181823077E-01 -0.24992851829E-01  0.32972252029E-01  0.51100000000E-03 0.  1.
         11    1    4    4    0    0 -0.32972349865E-01  0.37282080495E-01 -0.80255569279E-01  0.94436999651E-01  0.51100000000E-03 0. -1.
</event>
<event>
 8    1  0.1197213E+005  0.1043930E+01  0.7957747E-01            NaN
         13   -1    0    0    0    0  0.00000000000E+00  0.00000000000E+00  0.74505805969E-08  0.10566000000E+00  0.10566000000E+00 0.  1.
     999900   -1    0    0    0    0 -0.00000000000E+00 -0.00000000000E+00 -0.74505805969E-08  0.93827000000E+00  0.93827000000E+00 0.  1.
     999902    2    1    2    0    0 -0.11086716644E-01 -0.11846574125E-01  0.17542994020E-01  0.10200341166E+01  0.10197541791E+01 0.  0.
     999903    2    3    3    0    0  0.10277680034E+00 -0.65322733823E-01  0.43206358492E-01  0.13071797009E+00  0.19755203094E-01 0.  0.
         14    1    1    2    0    0  0.11086716644E-01  0.11846574125E-01 -0.17542994020E-01  0.23895883403E-01  0.00000000000E+00 0. -1.
     999901    1    3    3    0    0 -0.11386351698E+00  0.53476159698E-01 -0.25663364472E-01  0.88931614650E+00  0.88000000000E+00 0. -1.
        -11    1    4    4    0    0  0.68369748142E-01 -0.32484045364E-01  0.29202837677E-01  0.81133855533E-01  0.51100000000E-03 0.  1.
         11    1    4    4    0    0  0.34407052196E-01 -0.32838688459E-01  0.14003520815E-01  0.49584114560E-01  0.51100000000E-03 0. -1.
</event>
<event>
 8    1  0.1197213E+005  0.1043930E+01  0.7957747E-01            NaN
         13   -1    0    0    0    0  0.00000000000E+00  0.00000000000E+00  0.74505805969E-08  0.10566000000E+00  0.10566000000E+00 0. -1.
     999900   -1    0    0    0    0 -0.00000000000E+00 -0.00000000000E+00 -0.74505805969E-08  0.93827000000E+00  0.93827000000E+00 0. -1.
     999902    2    1    2    0    0 -0.23512394667E-01 -0.30189492034E-02 -0.12261689938E-02  0.10201928930E+01  0.10199167068E+01 0.  0.
     999903    2    3    3    0    0  0.80955794437E-01 -0.58835386165E-01 -0.79394426107E-01  0.12882352313E+00  0.16630751500E-01 0.  0.
         14    1    1    2    0    0  0.23512394667E-01  0.30189492034E-02  0.12261689938E-02  0.23737106978E-01  0.00000000000E+00 0. -1.
     999901    1    3    3    0    0 -0.10446818910E+00  0.55816436962E-01  0.78168257113E-01  0.89136936990E+00  0.88000000000E+00 0.  1.
        -11    1    4    4    0    0  0.42226636790E-01 -0.26361840367E-01 -0.48958183762E-01  0.69822635014E-01  0.51100000000E-03 0. -1.
         11    1    4    4    0    0  0.38729157647E-01 -0.32473545798E-01 -0.30436242345E-01  0.59000888111E-01  0.51100000000E-03 0.  1.
</event>
<event>
 8    1  0.1197213E+005  0.1043930E+01  0.7957747E-01            NaN
         13   -1    0    0    0    0  0.00000000000E+00  0.00000000000E+00  0.74505805969E-08  0.10566000000E+00  0.10566000000E+00 0.  1.
     999900   -1    0    0    0    0 -0.00000000000E+00 -0.00000000000E+00 -0.74505805969E-08  0.93827000000E+00  0.93827000000E+00 0. -1.
     999902    2    1    2    0    0 -0.13771534591E-01 -0.86971750247E-02  0.17279085428E-01  0.10201842043E+01  0.10199078135E+01 0.  0.
     999903    2    3    3    0    0 -0.12036558863E+00  0.27441588445E-01  0.43852012458E-01  0.13261763048E+00  0.20579631031E-01 0.  0.
         14    1    1    2    0    0  0.13771534591E-01  0.86971750247E-02 -0.17279085428E-01  0.23745795662E-01  0.00000000000E+00 0. -1.
     999901    1    3    3    0    0  0.10659405404E+00 -0.36138763470E-01 -0.26572927030E-01  0.88756657386E+00  0.88000000000E+00 0.  1.
        -11    1    4    4    0    0 -0.51609615310E-01  0.14485019945E-01  0.29519937892E-01  0.61196863069E-01  0.51100000000E-03 0. -1.
         11    1    4    4    0    0 -0.68755973324E-01  0.12956568500E-01  0.14332074566E-01  0.71420767409E-01  0.51100000000E-03 0.  1.
</event>
<event>
 8    1  0.1197213E+005  0.1043930E+01  0.7957747E-01            NaN
         13   -1    0    0    0    0  0.00000000000E+00  0.00000000000E+00  0.74505805969E-08  0.10566000000E+00  0.10566000000E+00 0. -1.
     999900   -1    0    0    0    0 -0.00000000000E+00 -0.00000000000E+00 -0.74505805969E-08  0.93827000000E+00  0.93827000000E+00 0.  1.
     999902    2    1    2    0    0 -0.87266618325E-02 -0.85359089597E-02  0.19006962610E-01  0.10213405999E+01  0.10210907599E+01 0.  0.
     999903    2    3    3    0    0  0.29483677411E-01  0.11886045638E+00  0.42335894425E-01  0.13104059262E+00  0.19550284756E-01 0.  0.
         14    1    1    2    0    0  0.87266618325E-02  0.85359089597E-02 -0.19006962610E-01  0.22589400085E-01  0.00000000000E+00 0.  1.
     999901    1    3    3    0    0 -0.38210339244E-01 -0.12739636534E+00 -0.23328931814E-01  0.89030000729E+00  0.88000000000E+00 0.  1.
        -11    1    4    4    0    0  0.18573435228E-01  0.62181436378E-01  0.32157076187E-01  0.72428186475E-01  0.51100000000E-03 0. -1.
         11    1    4    4    0    0  0.10910242183E-01  0.56679020000E-01  0.10178818238E-01  0.58612406147E-01  0.51100000000E-03 0.  1.
</event>
<event>
 8    1  0.1197213E+005  0.1043930E+01  0.7957747E-01            NaN
         13   -1    0    0    0    0  0.00000000000E+00  0.00000000000E+00  0.74505805969E-08  0.10566000000E+00  0.10566000000E+00 0. -1.
     999900   -1    0    0    0    0 -0.00000000000E+00 -0.00000000000E+00 -0.74505805969E-08  0.93827000000E+00  0.93827000000E+00 0.  1.
     999902    2    1    2    0    0  0.27851174224E-02 -0.64976631107E-02 -0.24869770480E-01  0.10180749814E+01  0.10177466216E+01 0.  0.
     999903    2    3    3    0    0  0.80153572840E-01  0.19464213883E-01 -0.99886001909E-01  0.13112101868E+00  0.20299194566E-01 0.  0.
         14    1    1    2    0    0 -0.27851174224E-02  0.64976631107E-02  0.24869770480E-01  0.25855018636E-01  0.00000000000E+00 0. -1.
     999901    1    3    3    0    0 -0.77368455418E-01 -0.25961876994E-01  0.75016231429E-01  0.88695396269E+00  0.88000000000E+00 0. -1.
        -11    1    4    4    0    0  0.50247898684E-01  0.26718333126E-02 -0.64919623312E-01  0.82138959255E-01  0.51100000000E-03 0. -1.
         11    1    4    4    0    0  0.29905674156E-01  0.16792380571E-01 -0.34966378597E-01  0.48982059421E-01  0.51100000000E-03 0.  1.
</event>
<event>
 8    1  0.1197213E+005  0.1043930E+01  0.7957747E-01            NaN
         13   -1    0    0    0    0  0.00000000000E+00  0.00000000000E+00  0.74505805969E-08  0.10566000000E+00  0.10566000000E+00 0. -1.
     999900   -1    0    0    0    0 -0.00000000000E+00 -0.00000000000E+00 -0.74505805969E-08  0.93827000000E+00  0.93827000000E+00 0. -1.
     999902    2    1    2    0    0 -0.16002808237E-01 -0.15544430223E-01 -0.57434437964E-02  0.10208929358E+01  0.10206329800E+01 0.  0.
     999903    2    3    3    0    0 -0.11983603409E+00  0.51905769862E-01  0.89562513314E-02  0.13210333786E+00  0.17781828537E-01 0.  0.
         14    1    1    2    0    0  0.16002808237E-01  0.15544430223E-01  0.57434437964E-02  0.23037064246E-01  0.00000000000E+00 0.  1.
     999901    1    3    3    0    0  0.10383322585E+00 -0.67450200085E-01 -0.14699695128E-01  0.88878959789E+00  0.88000000000E+00 0. -1.
        -11    1    4    4    0    0 -0.12756404651E-01  0.46728562379E-02  0.64347591584E-02  0.15040900621E-01  0.51100000000E-03 0.  1.
         11    1    4    4    0    0 -0.10707962944E+00  0.47232913624E-01  0.25214921729E-02  0.11706243724E+00  0.51100000000E-03 0. -1.
</event>
<event>
 8    1  0.1197213E+005  0.1043930E+01  0.7957747E-01            NaN
         13   -1    0    0    0    0  0.00000000000E+00  0.00000000000E+00  0.74505805969E-08  0.10566000000E+00  0.10566000000E+00 0. -1.
     999900   -1    0    0    0    0 -0.00000000000E+00 -0.00000000000E+00 -0.74505805969E-08  0.93827000000E+00  0.93827000000E+00 0.  1.
     999902    2    1    2    0    0 -0.20715304677E-01 -0.12405977812E-02 -0.49432431628E-02  0.10225969603E+01  0.10223744151E+01 0.  0.
     999903    2    3    3    0    0 -0.27466309707E-01 -0.32229070550E-01 -0.12533279653E+00  0.13383405260E+00  0.20251730546E-01 0.  0.
         14    1    1    2    0    0  0.20715304677E-01  0.12405977812E-02  0.49432431628E-02  0.21333039720E-01  0.00000000000E+00 0.  1.
     999901    1    3    3    0    0  0.67510050302E-02  0.30988472769E-01  0.12038955337E+00  0.88876290768E+00  0.88000000000E+00 0. -1.
        -11    1    4    4    0    0 -0.12550186317E-01 -0.26278438289E-01 -0.96816378111E-01  0.10110259980E+00  0.51100000000E-03 0. -1.
         11    1    4    4    0    0 -0.14916123391E-01 -0.59506322612E-02 -0.28516418422E-01  0.32731452793E-01  0.51100000000E-03 0.  1.
</event>
<event>
 8    1  0.1197213E+005  0.1043930E+01  0.7957747E-01            NaN
         13   -1    0    0    0    0  0.00000000000E+00  0.00000000000E+00  0.74505805969E-08  0.10566000000E+00  0.10566000000E+00 0.  1.
     999900   -1    0    0    0    0 -0.00000000000E+00 -0.00000000000E+00 -0.74505805969E-08  0.93827000000E+00  0.93827000000E+00 0.  1.
     999902    2    1    2    0    0 -0.18265479909E-01 -0.11509100793E-01  0.10168394558E-01  0.10200661486E+01  0.10197869699E+01 0.  0.
     999903    2    3    3    0    0  0.10726977926E-01 -0.11979703405E+00 -0.48310211252E-01  0.13102926157E+00  0.19193578479E-01 0.  0.
         14    1    1    2    0    0  0.18265479909E-01  0.11509100793E-01 -0.10168394558E-01  0.23863851434E-01  0.00000000000E+00 0.  1.
     999901    1    3    3    0    0 -0.28992457834E-01  0.10828793325E+00  0.58478605810E-01  0.88903688699E+00  0.88000000000E+00 0. -1.
        -11    1    4    4    0    0  0.43393095528E-02 -0.10645956635E+00 -0.38575598462E-01  0.11331728373E+00  0.51100000000E-03 0.  1.
         11    1    4    4    0    0  0.63876683727E-02 -0.13337467700E-01 -0.97346127896E-02  0.17711977841E-01  0.51100000000E-03 0. -1.
</event>
<event>
 8    1  0.1197213E+005  0.1043930E+01  0.7957747E-01            NaN
         13   -1    0    0    0    0  0.00000000000E+00  0.00000000000E+00  0.74505805969E-08  0.10566000000E+00  0.10566000000E+00 0. -1.
     999900   -1    0    0    0    0 -0.00000000000E+00 -0.00000000000E+00 -0.74505805969E-08  0.93827000000E+00  0.93827000000E+00 0.  1.
     999902    2    1    2    0    0 -0.19183402029E-01 -0.17528182376E-01 -0.10808637253E-02  0.10179221482E+01  0.10175898444E+01 0.  0.
     999903    2    3    3    0    0 -0.43023515389E-01  0.36136726445E-01 -0.11415837847E+00  0.12874567649E+00  0.19657771098E-01 0.  0.
         14    1    1    2    0    0  0.19183402029E-01  0.17528182376E-01  0.10808637253E-02  0.26007851838E-01  0.00000000000E+00 0.  1.
     999901    1    3    3    0    0  0.23840113360E-01 -0.53664908821E-01  0.11307751474E+00  0.88917647168E+00  0.88000000000E+00 0. -1.
        -11    1    4    4    0    0 -0.14152595327E-01  0.24353410273E-01 -0.49385094079E-01  0.56855370763E-01  0.51100000000E-03 0.  1.
         11    1    4    4    0    0 -0.28870920062E-01  0.11783316172E-01 -0.64773284389E-01  0.71890305722E-01  0.51100000000E-03 0. -1.
</event>
<event>
 8    1  0.1197213E+005  0.1043930E+01  0.7957747E-01            NaN
         13   -1    0    0    0    0  0.00000000000E+00  0.00000000000E+00  0.74505805969E-08  0.10566000000E+00  0.10566000000E+00 0. -1.
     999900   -1    0    0    0    0 -0.00000000000E+00 -0.00000000000E+00 -0.74505805969E-08  0.93827000000E+00  0.93827000000E+00 0. -1.
     999902    2    1    2    0    0  0.19391399293E-01  0.75040769160E-02  0.11999766003E-01  0.10199230860E+01  0.10196405099E+01 0.  0.
     999903    2    3    3    0    0  0.59915651806E-01  0.86208726229E-01  0.78543895368E-01  0.13298184890E+00  0.22208080252E-01 0.  0.
         14    1    1    2    0    0 -0.19391399293E-01 -0.75040769160E-02 -0.11999766003E-01  0.24006914026E-01  0.00000000000E+00 0. -1.
     999901    1    3    3    0    0 -0.40524252513E-01 -0.78704649313E-01 -0.66544129365E-01  0.88694123707E+00  0.88000000000E+00 0.  1.
        -11    1    4    4    0    0  0.16410934341E-01  0.24043419405E-01  0.10161981929E-01  0.30837181783E-01  0.51100000000E-03 0. -1.
         11    1    4    4    0    0  0.43504717465E-01  0.62165306825E-01  0.68381913439E-01  0.10214466712E+00  0.51100000000E-03 0.  1.
</event>
<event>
 8    1  0.1197213E+005  0.1043930E+01  0.7957747E-01            NaN
         13   -1    0    0    0    0  0.00000000000E+00  0.00000000000E+00  0.74505805969E-08  0.10566000000E+00  0.10566000000E+00 0. -1.
     999900   -1    0    0    0    0 -0.00000000000E+00 -0.00000000000E+00 -0.74505805969E-08  0.93827000000E+00  0.93827000000E+00 0. -1.
     999902    2    1    2    0    0  0.10795643141E-01  0.83570013924E-02  0.17116893055E-01  0.10220354022E+01  0.10218008563E+01 0.  0.
     999903    2    3    3    0    0 -0.10762391791E+00  0.41237142097E-01 -0.57635947728E-01  0.13035592883E+00  0.19681364728E-01 0.  0.
         14    1    1    2    0    0 -0.10795643141E-01 -0.83570013924E-02 -0.17116893055E-01  0.21894597757E-01  0.00000000000E+00 0.  1.
     999901    1    3    3    0    0  0.11841956105E+00 -0.32880140704E-01  0.74752840783E-01  0.89167947341E+00  0.88000000000E+00 0.  1.
        -11    1    4    4    0    0 -0.62771442372E-01  0.14132261645E-01 -0.35236323881E-01  0.73360987169E-01  0.51100000000E-03 0.  1.
         11    1    4    4    0    0 -0.44852475536E-01  0.27104880452E-01 -0.22399623847E-01  0.56994941666E-01  0.51100000000E-03 0. -1.
</event>
<event>
 8    1  0.1197213E+005  0.1043930E+01  0.7957747E-01            NaN
         13   -1    0    0    0    0  0.00000000000E+00  0.00000000000E+00  0.74505805969E-08  0.10566000000E+00  0.10566000000E+00 0. -1.
     999900   -1    0    0    0    0 -0.00000000000E+00 -0.00000000000E+00 -0.74505805969E-08  0.93827000000E+00  0.93827000000E+00 0.  1.
     999902    2    1    2    0    0 -0.79229693067E-02 -0.20573515444E-01 -0.99079209527E-02  0.10197595660E+01  0.10194730809E+01 0.  0.
     999903    2    3    3    0    0 -0.30670793529E-01  0.12023141489E+00  0.22294599417E-01  0.12769426897E+00  0.20309762767E-01 0.  0.
         14    1    1    2    0    0  0.79229693067E-02  0.20573515444E-01  0.99079209527E-02  0.24170433963E-01  0.00000000000E+00 0. -1.
     999901    1    3    3    0    0  0.22747824223E-01 -0.14080493033E+00 -0.32202520369E-01  0.89206529707E+00  0.88000000000E+00 0.  1.
        -11    1    4    4    0    0 -0.47564087441E-02  0.55912560759E-01  0.58097596870E-02  0.56416773245E-01  0.51100000000E-03 0.  1.
         11    1    4    4    0    0 -0.25914384785E-01  0.64318854126E-01  0.16484839730E-01  0.71277495725E-01  0.51100000000E-03 0. -1.
</event>
<event>
 8    1  0.1197213E+005  0.1043930E+01  0.7957747E-01            NaN
         13   -1    0    0    0    0  0.00000000000E+00  0.00000000000E+00  0.74505805969E-08  0.10566000000E+00  0.10566000000E+00 0. -1.
     999900   -1    0    0    0    0 -0.00000000000E+00 -0.00000000000E+00 -0.74505805969E-08  0.93827000000E+00  0.93827000000E+00 0. -1.
     999902    2    1    2    0    0 -0.22010147745E-01 -0.16953385553E-02  0.41414770387E-02  0.10214695323E+01  0.10212225677E+01 0.  0.
     999903    2    3    3    0    0 -0.74963833083E-01 -0.48976569914E-01 -0.94964798720E-01  0.13306553552E+00  0.25881326776E-01 0.  0.
         14    1    1    2    0    0  0.22010147745E-01  0.16953385553E-02 -0.41414770387E-02  0.22460467685E-01  0.00000000000E+00 0.  1.
     999901    1    3    3    0    0  0.52953685338E-01  0.47281231359E-01  0.99106275759E-01  0.88840399680E+00  0.88000000000E+00 0.  1.
        -11    1    4    4    0    0 -0.28821630302E-01 -0.11464662813E-01 -0.18222070475E-01  0.35978185615E-01  0.51100000000E-03 0.  1.
         11    1    4    4    0    0 -0.46142202781E-01 -0.37511907101E-01 -0.76742728245E-01  0.97087349904E-01  0.51100000000E-03 0. -1.
</event>
<event>
 8    1  0.1197213E+005  0.1043930E+01  0.7957747E-01            NaN
         13   -1    0    0    0    0  0.00000000000E+00  0.00000000000E+00  0.74505805969E-08  0.10566000000E+00  0.10566000000E+00 0. -1.
     999900   -1    0    0    0    0 -0.00000000000E+00 -0.00000000000E+00 -0.74505805969E-08  0.93827000000E+00  0.93827000000E+00 0.  1.
     999902    2    1    2    0    0  0.21411120032E-01 -0.74342191229E-02 -0.63865637835E-02  0.10203823489E+01  0.10201106048E+01 0.  0.
     999903    2    3    3    0    0  0.88993907828E-01  0.77589755669E-01 -0.56198449311E-01  0.13230705174E+00  0.20169393161E-01 0.  0.
         14    1    1    2    0    0 -0.21411120032E-01  0.74342191229E-02  0.63865637835E-02  0.23547651092E-01  0.00000000000E+00 0.  1.
     999901    1    3    3    0    0 -0.67582787796E-01 -0.85023974792E-01  0.49811885527E-01  0.88807529717E+00  0.88000000000E+00 0. -1.
        -11    1    4    4    0    0  0.79248912193E-01  0.75957180025E-01 -0.53082518222E-01  0.12193399093E+00  0.51100000000E-03 0. -1.
         11    1    4    4    0    0  0.97449956352E-02  0.16325756435E-02 -0.31159310888E-02  0.10373060817E-01  0.51100000000E-03 0.  1.
</event>
<event>
 8    1  0.1197213E+005  0.1043930E+01  0.7957747E-01            NaN
         13   -1    0    0    0    0  0.00000000000E+00  0.00000000000E+00  0.74505805969E-08  0.10566000000E+00  0.10566000000E+00 0.  1.
     999900   -1    0    0    0    0 -0.00000000000E+00 -0.00000000000E+00 -0.74505805969E-08  0.93827000000E+00  0.93827000000E+00 0.  1.
     999902    2    1    2    0    0  0.23567519090E-02 -0.23415222777E-01 -0.65963934534E-02  0.10194894733E+01  0.10191964712E+01 0.  0.
     999903    2    3    3    0    0  0.74110922717E-01  0.58686904745E-01  0.84783747183E-01  0.12806378912E+00  0.16597248036E-01 0.  0.
         14    1    1    2    0    0 -0.23567519090E-02  0.23415222777E-01  0.65963934534E-02  0.24440526669E-01  0.00000000000E+00 0. -1.
     999901    1    3    3    0    0 -0.71754170808E-01 -0.82102127522E-01 -0.91380140637E-01  0.89142568421E+00  0.88000000000E+00 0.  1.
        -11    1    4    4    0    0  0.86532452127E-02  0.13189538785E-01  0.19055684365E-01  0.24743136699E-01  0.51100000000E-03 0. -1.
         11    1    4    4    0    0  0.65457677504E-01  0.45497365961E-01  0.65728062818E-01  0.10332065242E+00  0.51100000000E-03 0.  1.
</event>
<event>
 8    1  0.1197213E+005  0.1043930E+01  0.7957747E-01            NaN
         13   -1    0    0    0    0  0.00000000000E+00  0.00000000000E+00  0.74505805969E-08  0.10566000000E+00  0.10566000000E+00 0.  1.
     999900   -1    0    0    0    0 -0.00000000000E+00 -0.00000000000E+00 -0.74505805969E-08  0.93827000000E+00  0.93827000000E+00 0.  1.
     999902    2    1    2    0    0  0.31217994266E-02  0.57028107322E-02 -0.17948449238E-01  0.10248403559E+01  0.10246625496E+01 0.  0.
     999903    2    3    3    0    0 -0.11759906096E+00  0.41540977514E-01 -0.48674816242E-01  0.13534498775E+00  0.19845302267E-01 0.  0.
         14    1    1    2    0    0 -0.31217994266E-02 -0.57028107322E-02  0.17948449238E-01  0.19089644102E-01  0.00000000000E+00 0.  1.
     999901    1    3    3    0    0  0.12072086038E+00 -0.35838166782E-01  0.30726367004E-01  0.88949536815E+00  0.88000000000E+00 0. -1.
        -11    1    4    4    0    0 -0.57165855051E-01  0.12595341061E-01 -0.30016639856E-01  0.65786300925E-01  0.51100000000E-03 0. -1.
         11    1    4    4    0    0 -0.60433205904E-01  0.28945636453E-01 -0.18658176386E-01  0.69558686823E-01  0.51100000000E-03 0.  1.
</event>
<event>
 8    1  0.1197213E+005  0.1043930E+01  0.7957747E-01            NaN
         13   -1    0    0    0    0  0.00000000000E+00  0.00000000000E+00  0.74505805969E-08  0.10566000000E+00  0.10566000000E+00 0. -1.
     999900   -1    0    0    0    0 -0.00000000000E+00 -0.00000000000E+00 -0.74505805969E-08  0.93827000000E+00  0.93827000000E+00 0.  1.
     999902    2    1    2    0    0 -0.25703484904E-01  0.10071112023E-02 -0.10686009276E-02  0.10181846059E+01  0.10178590602E+01 0.  0.
     999903    2    3    3    0    0 -0.61259962443E-01 -0.38725052910E-01  0.10614076838E+00  0.13007607829E+00  0.20037732124E-01 0.  0.
         14    1    1    2    0    0  0.25703484904E-01 -0.10071112023E-02  0.10686009276E-02  0.25745394095E-01  0.00000000000E+00 0.  1.
     999901    1    3    3    0    0  0.35556477539E-01  0.39732164112E-01 -0.10720936931E+00  0.88810852762E+00  0.88000000000E+00 0.  1.
        -11    1    4    4    0    0 -0.36480983802E-01 -0.34160237408E-01  0.71607591610E-01  0.87325209969E-01  0.51100000000E-03 0.  1.
         11    1    4    4    0    0 -0.24778978641E-01 -0.45648155017E-02  0.34533176771E-01  0.42750868318E-01  0.51100000000E-03 0. -1.
</event>
<event>
 8    1  0.1197213E+005  0.1043930E+01  0.7957747E-01            NaN
         13   -1    0    0    0    0  0.00000000000E+00  0.00000000000E+00  0.74505805969E-08  0.10566000000E+00  0.10566000000E+00 0.  1.
     999900   -1    0    0    0    0 -0.00000000000E+00 -0.00000000000E+00 -0.74505805969E-08  0.93827000000E+00  0.93827000000E+00 0.  1.
     999902    2    1    2    0    0 -0.12003035239E-01  0.10246203343E-01  0.19481736734E-01  0.10188581910E+01  0.10185496639E+01 0.  0.
     999903    2    3    3    0    0  0.91264310741E-01  0.84372154503E-01  0.29410803222E-01  0.12966901672E+00  0.22388025387E-01 0.  0.
         14    1    1    2    0    0  0.12003035239E-01 -0.10246203343E-01 -0.19481736734E-01  0.25071808951E-01  0.00000000000E+00 0. -1.
     999901    1    3    3    0    0 -0.10326734598E+00 -0.74125951160E-01 -0.99290664882E-02  0.88918917433E+00  0.88000000000E+00 0. -1.
        -11    1    4    4    0    0  0.48756188711E-01  0.45569801335E-01  0.43125950376E-02  0.66877741651E-01  0.51100000000E-03 0.  1.
         11    1    4    4    0    0  0.42508122030E-01  0.38802353168E-01  0.25098208184E-01  0.62791275070E-01  0.51100000000E-03 0. -1.
</event>
<event>
 8    1  0.1197213E+005  0.1043930E+01  0.7957747E-01            NaN
         13   -1    0    0    0    0  0.00000000000E+00  0.00000000000E+00  0.74505805969E-08  0.10566000000E+00  0.10566000000E+00 0. -1.
     999900   -1    0    0    0    0 -0.00000000000E+00 -0.00000000000E+00 -0.74505805969E-08  0.93827000000E+00  0.93827000000E+00 0. -1.
     999902    2    1    2    0    0  0.41676473829E-02  0.21712446362E-01  0.91640628186E-02  0.10199971845E+01  0.10197163707E+01 0.  0.
     999903    2    3    3    0    0  0.11226170543E+00  0.64630879234E-01  0.19673467680E-01  0.13228283579E+00  0.18217086940E-01 0.  0.
         14    1    1    2    0    0 -0.41676473829E-02 -0.21712446362E-01 -0.91640628186E-02  0.23932815527E-01  0.00000000000E+00 0.  1.
     999901    1    3    3    0    0 -0.10809405805E+00 -0.42918432873E-01 -0.10509404861E-01  0.88771434868E+00  0.88000000000E+00 0.  1.
        -11    1    4    4    0    0  0.20704513398E-01  0.18790552703E-01  0.87874535598E-02  0.29312833486E-01  0.51100000000E-03 0.  1.
         11    1    4    4    0    0  0.91557192036E-01  0.45840326531E-01  0.10886014120E-01  0.10297000230E+00  0.51100000000E-03 0. -1.
</event>
<event>
 8    1  0.1197213E+005  0.1043930E+01  0.7957747E-01            NaN
         13   -1    0    0    0    0  0.00000000000E+00  0.00000000000E+00  0.74505805969E-08  0.10566000000E+00  0.10566000000E+00 0. -1.
     999900   -1    0    0    0    0 -0.00000000000E+00 -0.00000000000E+00 -0.74505805969E-08  0.93827000000E+00  0.93827000000E+00 0. -1.
     999902    2    1    2    0    0  0.40869787374E-02  0.23687902281E-01 -0.35023565485E-02  0.10196383016E+01  0.10193488998E+01 0.  0.
     999903    2    3    3    0    0 -0.60259451449E-01 -0.62925000767E-01 -0.92280196270E-01  0.12861430480E+00  0.20862587684E-01 0.  0.
         14    1    1    2    0    0 -0.40869787374E-02 -0.23687902281E-01  0.35023565485E-02  0.24291698399E-01  0.00000000000E+00 0.  1.
     999901    1    3    3    0    0  0.64346430186E-01  0.86612903048E-01  0.88777839722E-01  0.89102399680E+00  0.88000000000E+00 0.  1.
        -11    1    4    4    0    0 -0.35595637036E-01 -0.24121722423E-01 -0.37159681533E-01  0.56833176238E-01  0.51100000000E-03 0.  1.
         11    1    4    4    0    0 -0.24663814412E-01 -0.38803278344E-01 -0.55120514737E-01  0.71781128561E-01  0.51100000000E-03 0. -1.
</event>
<event>
 8    1  0.1197213E+005  0.1043930E+01  0.7957747E-01            NaN
         13   -1    0    0    0    0  0.00000000000E+00  0.00000000000E+00  0.74505805969E-08  0.10566000000E+00  0.10566000000E+00 0.  1.
     999900   -1    0    0    0    0 -0.00000000000E+00 -0.00000000000E+00 -0.74505805969E-08  0.93827000000E+00  0.93827000000E+00 0. -1.
     999902    2    1    2    0    0 -0.40853002517E-02  0.21874932546E-01 -0.10590653394E-01  0.10192852381E+01  0.10189872581E+01 0.  0.
     999903    2    3    3    0    0 -0.80492684367E-01 -0.48710479553E-01 -0.87071241965E-01  0.12986426395E+00  0.20773608720E-01 0.  0.
         14    1    1    2    0    0  0.40853002517E-02 -0.21874932546E-01  0.10590653394E-01  0.24644761945E-01  0.00000000000E+00 0.  1.
     999901    1    3    3    0    0  0.76407384115E-01  0.70585412099E-01  0.76480588571E-01  0.88942097410E+00  0.88000000000E+00 0.  1.
        -11    1    4    4    0    0 -0.49343924755E-01 -0.29576235789E-01 -0.66432041377E-01  0.87880907347E-01  0.51100000000E-03 0. -1.
         11    1    4    4    0    0 -0.31148759612E-01 -0.19134243763E-01 -0.20639200588E-01  0.41983356603E-01  0.51100000000E-03 0.  1.
</event>
<event>
 8    1  0.1197213E+005  0.1043930E+01  0.7957747E-01            NaN
         13   -1    0    0    0    0  0.00000000000E+00  0.00000000000E+00  0.74505805969E-08  0.10566000000E+00  0.10566000000E+00 0.  1.
     999900   -1    0    0    0    0 -0.00000000000E+00 -0.00000000000E+00 -0.74505805969E-08  0.93827000000E+00  0.93827000000E+00 0.  1.
     999902    2    1    2    0    0 -0.52599065632E-02 -0.24160393489E-01 -0.53172407168E-02  0.10186384148E+01  0.10183243864E+01 0.  0.
     999903    2    3    3    0    0  0.52195018717E-01 -0.63248250286E-01 -0.10038265117E+00  0.13079475674E+00  0.17490871654E-01 0.  0.
         14    1    1    2    0    0  0.52599065632E-02  0.24160393489E-01  0.53172407168E-02  0.25291585151E-01  0.00000000000E+00 0.  1.
     999901    1    3    3    0    0 -0.57454925280E-01  0.39087856797E-01  0.95065410450E-01  0.88784365811E+00  0.88000000000E+00 0.  1.
        -11    1    4    4    0    0  0.24508830280E-01 -0.17851460758E-01 -0.42294289756E-01  0.52042535295E-01  0.51100000000E-03 0.  1.
         11    1    4    4    0    0  0.27686188437E-01 -0.45396789528E-01 -0.58088361411E-01  0.78752221441E-01  0.51100000000E-03 0. -1.
</event>
<event>
 8    1  0.1197213E+005  0.1043930E+01  0.7957747E-01            NaN
         13   -1    0    0    0    0  0.00000000000E+00  0.00000000000E+00  0.74505805969E-08  0.10566000000E+00  0.10566000000E+00 0.  1.
     999900   -1    0    0    0    0 -0.00000000000E+00 -0.00000000000E+00 -0.74505805969E-08  0.93827000000E+00  0.93827000000E+00 0.  1.
     999902    2    1    2    0    0 -0.91922895718E-02  0.19475520586E-01  0.11080647448E-01  0.10197106929E+01  0.10194230340E+01 0.  0.
     999903    2    3    3    0    0  0.93949664171E-01  0.84691787809E-01  0.28702930582E-01  0.13111518929E+00  0.19185836401E-01 0.  0.
         14    1    1    2    0    0  0.91922895718E-02 -0.19475520586E-01 -0.11080647448E-01  0.24219307123E-01  0.00000000000E+00 0. -1.
     999901    1    3    3    0    0 -0.10314195374E+00 -0.65216267223E-01 -0.17622283134E-01  0.88859550359E+00  0.88000000000E+00 0.  1.
        -11    1    4    4    0    0  0.30409504286E-01  0.31433542190E-01  0.18829323787E-01  0.47619429656E-01  0.51100000000E-03 0.  1.
         11    1    4    4    0    0  0.63540159885E-01  0.53258245619E-01  0.98736067952E-02  0.83495759633E-01  0.51100000000E-03 0. -1.
</event>
<event>
 8    1  0.1197213E+005  0.1043930E+01  0.7957747E-01            NaN
         13   -1    0    0    0    0  0.00000000000E+00  0.00000000000E+00  0.74505805969E-08  0.10566000000E+00  0.10566000000E+00 0. -1.
     999900   -1    0    0    0    0 -0.00000000000E+00 -0.00000000000E+00 -0.74505805969E-08  0.93827000000E+00  0.93827000000E+00 0.  1.
     999902    2    1    2    0    0  0.18895612413E-01  0.10917390219E-01  0.55028746061E-02  0.10214241073E+01  0.10211761316E+01 0.  0.
     999903    2    3    3    0    0 -0.45165313591E-01 -0.53236945374E-01 -0.10738477631E+00  0.12959273156E+00  0.19715678682E-01 0.  0.
         14    1    1    2    0    0 -0.18895612413E-01 -0.10917390219E-01 -0.55028746061E-02  0.22505892708E-01  0.00000000000E+00 0.  1.
     999901    1    3    3    0    0  0.64060926004E-01  0.64154335594E-01  0.11288765091E+00  0.89183137573E+00  0.88000000000E+00 0. -1.
        -11    1    4    4    0    0 -0.33337384731E-01 -0.26289067540E-01 -0.54716615102E-01  0.69257962590E-01  0.51100000000E-03 0.  1.
         11    1    4    4    0    0 -0.11827928859E-01 -0.26947877834E-01 -0.52668161204E-01  0.60334768968E-01  0.51100000000E-03 0. -1.
</event>
<event>
 8    1  0.1197213E+005  0.1043930E+01  0.7957747E-01            NaN
         13   -1    0    0    0    0  0.00000000000E+00  0.00000000000E+00  0.74505805969E-08  0.10566000000E+00  0.10566000000E+00 0. -1.
     999900   -1    0    0    0    0 -0.00000000000E+00 -0.00000000000E+00 -0.74505805969E-08  0.93827000000E+00  0.93827000000E+00 0.  1.
     999902    2    1    2    0    0 -0.20192355153E-01  0.83114701051E-02 -0.92974984342E-02  0.10201970015E+01  0.10199209119E+01 0.  0.
     999903    2    3    3    0    0 -0.74397190200E-01 -0.10182746477E+00  0.28760139872E-01  0.13086178180E+00  0.19846556367E-01 0.  0.
         14    1    1    2    0    0  0.20192355153E-01 -0.83114701051E-02  0.92974984342E-02  0.23732998527E-01  0.00000000000E+00 0. -1.
     999901    1    3    3    0    0  0.54204835047E-01  0.11013893487E+00 -0.38057638306E-01  0.88933521967E+00  0.88000000000E+00 0.  1.
        -11    1    4    4    0    0 -0.56080231697E-01 -0.60744354569E-01  0.18192021486E-01  0.84652700878E-01  0.51100000000E-03 0. -1.
         11    1    4    4    0    0 -0.18316958503E-01 -0.41083110199E-01  0.10568118386E-01  0.46209080922E-01  0.51100000000E-03 0.  1.
</event>
<event>
 8    1  0.1197213E+005  0.1043930E+01  0.7957747E-01            NaN
         13   -1    0    0    0    0  0.00000000000E+00  0.00000000000E+00  0.74505805969E-08  0.10566000000E+00  0.10566000000E+00 0. -1.
     999900   -1    0    0    0    0 -0.00000000000E+00 -0.00000000000E+00 -0.74505805969E-08  0.93827000000E+00  0.93827000000E+00 0. -1.
     999902    2    1    2    0    0  0.80958595083E-02 -0.19329820077E-01 -0.25282785423E-02  0.10228213033E+01  0.10226034624E+01 0.  0.
     999903    2    3    3    0    0  0.95988136920E-01 -0.76983843051E-01  0.51613008567E-01  0.13491347147E+00  0.19937592905E-01 0.  0.
         14    1    1    2    0    0 -0.80958595083E-02  0.19329820077E-01  0.25282785423E-02  0.21108696733E-01  0.00000000000E+00 0. -1.
     999901    1    3    3    0    0 -0.87892277411E-01  0.57654022974E-01 -0.54141287110E-01  0.88790783180E+00  0.88000000000E+00 0. -1.
        -11    1    4    4    0    0  0.73124030775E-01 -0.58036583426E-01  0.48062596666E-01  0.10500306287E+00  0.51100000000E-03 0.  1.
         11    1    4    4    0    0  0.22864106145E-01 -0.18947259625E-01  0.35504119008E-02  0.29910408602E-01  0.51100000000E-03 0. -1.
</event>
<event>
 8    1  0.1197213E+005  0.1043930E+01  0.7957747E-01            NaN
         13   -1    0    0    0    0  0.00000000000E+00  0.00000000000E+00  0.74505805969E-08  0.10566000000E+00  0.10566000000E+00 0.  1.
     999900   -1    0    0    0    0 -0.00000000000E+00 -0.00000000000E+00 -0.74505805969E-08  0.93827000000E+00  0.93827000000E+00 0. -1.
     999902    2    1    2    0    0 -0.80997792148E-02  0.10984760399E-01 -0.19446305245E-01  0.10201722608E+01  0.10198955885E+01 0.  0.
     999903    2    3    3    0    0  0.99585074252E-01  0.71639524707E-01  0.37721594326E-01  0.12969868071E+00  0.18692794982E-01 0.  0.
         14    1    1    2    0    0  0.80997792148E-02 -0.10984760399E-01  0.19446305245E-01  0.23757739203E-01  0.00000000000E+00 0.  1.
     999901    1    3    3    0    0 -0.10768485347E+00 -0.60654764308E-01 -0.57167899570E-01  0.89047358009E+00  0.88000000000E+00 0.  1.
        -11    1    4    4    0    0  0.18787167003E-01  0.18736974262E-01  0.14999584871E-01  0.30484102674E-01  0.51100000000E-03 0. -1.
         11    1    4    4    0    0  0.80797907249E-01  0.52902550445E-01  0.22722009454E-01  0.99214578032E-01  0.51100000000E-03 0.  1.
</event>
<event>
 8    1  0.1197213E+005  0.1043930E+01  0.7957747E-01            NaN
         13   -1    0    0    0    0  0.00000000000E+00  0.00000000000E+00  0.74505805969E-08  0.10566000000E+00  0.10566000000E+00 0.  1.
     999900   -1    0    0    0    0 -0.00000000000E+00 -0.00000000000E+00 -0.74505805969E-08  0.93827000000E+00  0.93827000000E+00 0. -1.
     999902    2    1    2    0    0  0.55997833707E-02 -0.18025634790E-01  0.13818649645E-01  0.10205369207E+01  0.10202687735E+01 0.  0.
     999903    2    3    3    0    0 -0.80427809677E-01 -0.76729818195E-01 -0.66199425852E-01  0.13078986653E+00  0.19171010245E-01 0.  0.
         14    1    1    2    0    0 -0.55997833707E-02  0.18025634790E-01 -0.13818649645E-01  0.23393079348E-01  0.00000000000E+00 0. -1.
     999901    1    3    3    0    0  0.86027593048E-01  0.58704183405E-01  0.80018075497E-01  0.88974705412E+00  0.88000000000E+00 0.  1.
        -11    1    4    4    0    0 -0.96022373708E-02 -0.61212585814E-02 -0.13750214760E-01  0.17860635378E-01  0.51100000000E-03 0. -1.
         11    1    4    4    0    0 -0.70825572306E-01 -0.70608559613E-01 -0.52449211092E-01  0.11292923115E+00  0.51100000000E-03 0.  1.
</event>
<event>
 8    1  0.1197213E+005  0.1043930E+01  0.7957747E-01            NaN
         13   -1    0    0    0    0  0.00000000000E+00  0.00000000000E+00  0.74505805969E-08  0.10566000000E+00  0.10566000000E+00 0.  1.
     999900   -1    0    0    0    0 -0.00000000000E+00 -0.00000000000E+00 -0.74505805969E-08  0.93827000000E+00  0.93827000000E+00 0. -1.
     999902    2    1    2    0    0  0.44266118689E-02  0.11308901476E-01 -0.20510417762E-01  0.10200938220E+01  0.10198152981E+01 0.  0.
     999903    2    3    3    0    0 -0.10499297040E-02 -0.27315928017E-01  0.12306589401E+00  0.12760515133E+00  0.19763554899E-01 0.  0.
         14    1    1    2    0    0 -0.44266118689E-02 -0.11308901476E-01  0.20510417762E-01  0.23836178008E-01  0.00000000000E+00 0.  1.
     999901    1    3    3    0    0  0.54765415729E-02  0.38624829493E-01 -0.14357631177E+00  0.89248867066E+00  0.88000000000E+00 0. -1.
        -11    1    4    4    0    0 -0.10440009109E-02 -0.12830648986E-01  0.96378327884E-01  0.97235583497E-01  0.51100000000E-03 0. -1.
         11    1    4    4    0    0 -0.59287931539E-05 -0.14485279031E-01  0.26687566123E-01  0.30369567832E-01  0.51100000000E-03 0.  1.
</event>
<event>
 8    1  0.1197213E+005  0.1043930E+01  0.7957747E-01            NaN
         13   -1    0    0    0    0  0.00000000000E+00  0.00000000000E+00  0.74505805969E-08  0.10566000000E+00  0.10566000000E+00 0.  1.
     999900   -1    0    0    0    0 -0.00000000000E+00 -0.00000000000E+00 -0.74505805969E-08  0.93827000000E+00  0.93827000000E+00 0. -1.
     999902    2    1    2    0    0  0.20654811115E-01 -0.99470208585E-02 -0.12767621637E-01  0.10176892567E+01  0.10173508965E+01 0.  0.
     999903    2    3    3    0    0  0.10135290052E+00 -0.48861441179E-01  0.62129996568E-01  0.12997524479E+00  0.19328137716E-01 0.  0.
         14    1    1    2    0    0 -0.20654811115E-01  0.99470208585E-02  0.12767621637E-01  0.26240743290E-01  0.00000000000E+00 0.  1.
     999901    1    3    3    0    0 -0.80698089404E-01  0.38914420320E-01 -0.74897618204E-01  0.88771401192E+00  0.88000000000E+00 0. -1.
        -11    1    4    4    0    0  0.13617562832E-01 -0.14289555517E-01  0.13014817584E-01  0.23649017148E-01  0.51100000000E-03 0. -1.
         11    1    4    4    0    0  0.87735337688E-01 -0.34571885662E-01  0.49115178983E-01  0.10632622764E+00  0.51100000000E-03 0.  1.
</event>
<event>
 8    1  0.1197213E+005  0.1043930E+01  0.7957747E-01            NaN
         13   -1    0    0    0    0  0.00000000000E+00  0.00000000000E+00  0.74505805969E-08  0.10566000000E+00  0.10566000000E+00 0.  1.
     999900   -1    0    0    0    0 -0.00000000000E+00 -0.00000000000E+00 -0.74505805969E-08  0.93827000000E+00  0.93827000000E+00 0.  1.
     999902    2    1    2    0    0  0.83223503131E-02 -0.17406282844E-01 -0.16959483217E-01  0.10182421767E+01  0.10179181038E+01 0.  0.
     999903    2    3    3    0    0  0.86536304923E-02  0.60605057501E-01  0.10809117414E+00  0.12598462086E+00  0.20989627224E-01 0.  0.
         14    1    1    2    0    0 -0.83223503131E-02  0.17406282844E-01  0.16959483217E-01  0.25687823344E-01  0.00000000000E+00 0.  1.
     999901    1    3    3    0    0 -0.33128017920E-03 -0.78011340345E-01 -0.12505065736E+00  0.89225755580E+00  0.88000000000E+00 0.  1.
        -11    1    4    4    0    0 -0.11827157857E-02  0.45490255691E-01  0.65778944407E-01  0.79986829089E-01  0.51100000000E-03 0. -1.
         11    1    4    4    0    0  0.98363462781E-02  0.15114801810E-01  0.42312229733E-01  0.45997791771E-01  0.51100000000E-03 0.  1.
</event>
<event>
 8    1  0.1197213E+005  0.1043930E+01  0.7957747E-01            NaN
         13   -1    0    0    0    0  0.00000000000E+00  0.00000000000E+00  0.74505805969E-08  0.10566000000E+00  0.10566000000E+00 0. -1.
     999900   -1    0    0    0    0 -0.00000000000E+00 -0.00000000000E+00 -0.74505805969E-08  0.93827000000E+00  0.93827000000E+00 0. -1.
     999902    2    1    2    0    0  0.80750549694E-02 -0.99333470786E-02 -0.19146262940E-01  0.10208983418E+01  0.10206385094E+01 0.  0.
     999903    2    3    3    0    0 -0.17891800276E-01  0.53623711666E-01  0.11336067417E+00  0.12833357342E+00  0.20572910553E-01 0.  0.
         14    1    1    2    0    0 -0.80750549694E-02  0.99333470786E-02  0.19146262940E-01  0.23031658245E-01  0.00000000000E+00 0. -1.
     999901    1    3    3    0    0  0.25966855245E-01 -0.63557058745E-01 -0.13250693711E+00  0.89256476833E+00  0.88000000000E+00 0. -1.
        -11    1    4    4    0    0 -0.67588618812E-02  0.37232451668E-01  0.90394541813E-01  0.97996795772E-01  0.51100000000E-03 0. -1.
         11    1    4    4    0    0 -0.11132938395E-01  0.16391259998E-01  0.22966132359E-01  0.30336777650E-01  0.51100000000E-03 0.  1.
</event>
<event>
 7    1  0.2149719E+005  0.1043930E+01  0.7957747E-01            NaN
         13   -1    0    0    0    0  0.00000000000E+00  0.00000000000E+00  0.74505805969E-08  0.10566000000E+00  0.10566000000E+00 0. -1.
     999900   -1    0    0    0    0 -0.00000000000E+00 -0.00000000000E+00 -0.74505805969E-08  0.93827000000E+00  0.93827000000E+00 0. -1.
     999903    2    1    2    0    0  0.65845798614E-01 -0.38382436917E-02  0.57907339052E-01  0.89276214121E-01  0.16327313989E-01 0.  0.
         14    1    1    2    0    0 -0.24621677846E-01 -0.45271572923E-01  0.42270292883E-01  0.66652231735E-01  0.00000000000E+00 0. -1.
     999901    1    1    2    0    0 -0.41224120767E-01  0.49109816614E-01 -0.10017763194E+00  0.88800155414E+00  0.88000000000E+00 0. -1.
        -11    1    3    3    0    0  0.26347386915E-01  0.64468518235E-02  0.23018311839E-01  0.35578792793E-01  0.51100000000E-03 0. -1.
         11    1    3    3    0    0  0.39498411699E-01 -0.10285095515E-01  0.34889027213E-01  0.53697421328E-01  0.51100000000E-03 0.  1.
</event>
<event>
 8    1  0.1197213E+005  0.1043930E+01  0.7957747E-01            NaN
         13   -1    0    0    0    0  0.00000000000E+00  0.00000000000E+00  0.74505805969E-08  0.10566000000E+00  0.10566000000E+00 0.  1.
     999900   -1    0    0    0    0 -0.00000000000E+00 -0.00000000000E+00 -0.74505805969E-08  0.93827000000E+00  0.93827000000E+00 0. -1.
     999902    2    1    2    0    0 -0.93072990274E-02  0.21635838740E-01  0.30560675104E-02  0.10201797393E+01  0.10199032433E+01 0.  0.
     999903    2    3    3    0    0  0.34034092504E-01  0.22109061089E-01  0.12307449951E+00  0.13097609327E+00  0.18980899439E-01 0.  0.
         14    1    1    2    0    0  0.93072990274E-02 -0.21635838740E-01 -0.30560675104E-02  0.23750260668E-01  0.00000000000E+00 0. -1.
     999901    1    3    3    0    0 -0.43341391531E-01 -0.47322234908E-03 -0.12001843200E+00  0.88920364607E+00  0.88000000000E+00 0. -1.
        -11    1    4    4    0    0  0.11615133364E-01 -0.17545304219E-02  0.39580430288E-01  0.41289965886E-01  0.51100000000E-03 0. -1.
         11    1    4    4    0    0  0.22418959140E-01  0.23863591511E-01  0.83494069219E-01  0.89686127380E-01  0.51100000000E-03 0.  1.
</event>
<event>
 8    1  0.1197213E+005  0.1043930E+01  0.7957747E-01            NaN
         13   -1    0    0    0    0  0.00000000000E+00  0.00000000000E+00  0.74505805969E-08  0.10566000000E+00  0.10566000000E+00 0. -1.
     999900   -1    0    0    0    0 -0.00000000000E+00 -0.00000000000E+00 -0.74505805969E-08  0.93827000000E+00  0.93827000000E+00 0.  1.
     999902    2    1    2    0    0 -0.93984435873E-02 -0.21628140528E-01 -0.49886364897E-03  0.10203427986E+01  0.10200701302E+01 0.  0.
     999903    2    3    3    0    0 -0.85986926874E-01 -0.44521905040E-01 -0.88016548326E-01  0.13239614179E+00  0.20146313801E-01 0.  0.
         14    1    1    2    0    0  0.93984435873E-02  0.21628140528E-01  0.49886364897E-03  0.23587201392E-01  0.00000000000E+00 0. -1.
     999901    1    3    3    0    0  0.76588483286E-01  0.22893764512E-01  0.87517684677E-01  0.88794665682E+00  0.88000000000E+00 0. -1.
        -11    1    4    4    0    0 -0.52024497225E-01 -0.34812267777E-01 -0.47103158854E-01  0.78341630021E-01  0.51100000000E-03 0. -1.
         11    1    4    4    0    0 -0.33962429649E-01 -0.97096372637E-02 -0.40913389471E-01  0.54054511768E-01  0.51100000000E-03 0.  1.
</event>
<event>
 8    1  0.1197213E+005  0.1043930E+01  0.7957747E-01            NaN
         13   -1    0    0    0    0  0.00000000000E+00  0.00000000000E+00  0.74505805969E-08  0.10566000000E+00  0.10566000000E+00 0.  1.
     999900   -1    0    0    0    0 -0.00000000000E+00 -0.00000000000E+00 -0.74505805969E-08  0.93827000000E+00  0.93827000000E+00 0.  1.
     999902    2    1    2    0    0  0.11753108191E-02  0.19813152112E-01 -0.11695824043E-01  0.10208923210E+01  0.10206323513E+01 0.  0.
     999903    2    3    3    0    0 -0.58988591064E-01 -0.22681252188E-01  0.11153631477E+00  0.12925807454E+00  0.16528981957E-01 0.  0.
         14    1    1    2    0    0 -0.11753108191E-02 -0.19813152112E-01  0.11695824043E-01  0.23037678966E-01  0.00000000000E+00 0.  1.
     999901    1    3    3    0    0  0.60163901883E-01  0.42494404299E-01 -0.12323213881E+00  0.89163424650E+00  0.88000000000E+00 0.  1.
        -11    1    4    4    0    0 -0.31085739584E-01 -0.19347097820E-01  0.71635769807E-01  0.80452333940E-01  0.51100000000E-03 0. -1.
         11    1    4    4    0    0 -0.27902851480E-01 -0.33341543675E-02  0.39900544962E-01  0.48805740599E-01  0.51100000000E-03 0.  1.
</event>
<event>
 8    1  0.1197213E+005  0.1043930E+01  0.7957747E-01            NaN
         13   -1    0    0    0    0  0.00000000000E+00  0.00000000000E+00  0.74505805969E-08  0.10566000000E+00  0.10566000000E+00 0. -1.
     999900   -1    0    0    0    0 -0.00000000000E+00 -0.00000000000E+00 -0.74505805969E-08  0.93827000000E+00  0.93827000000E+00 0.  1.
     999902    2    1    2    0    0  0.93032232044E-03 -0.17424375859E-01  0.37065644787E-02  0.10260914744E+01  0.10259364020E+01 0.  0.
     999903    2    3    3    0    0 -0.73949052718E-01 -0.30354667045E-01 -0.10791478294E+00  0.13579184037E+00  0.20098639887E-01 0.  0.
         14    1    1    2    0    0 -0.93032232044E-03  0.17424375859E-01 -0.37065644787E-02  0.17838525554E-01  0.00000000000E+00 0. -1.
     999901    1    3    3    0    0  0.74879375038E-01  0.12930291186E-01  0.11162134742E+00  0.89029963408E+00  0.88000000000E+00 0.  1.
        -11    1    4    4    0    0 -0.20649070774E-01 -0.12346356127E-01 -0.19403252864E-01  0.30912197854E-01  0.51100000000E-03 0. -1.
         11    1    4    4    0    0 -0.53299981944E-01 -0.18008310917E-01 -0.88511530074E-01  0.10487964252E+00  0.51100000000E-03 0.  1.
</event>
<event>
 8    1  0.1197213E+005  0.1043930E+01  0.7957747E-01            NaN
         13   -1    0    0    0    0  0.00000000000E+00  0.00000000000E+00  0.74505805969E-08  0.10566000000E+00  0.10566000000E+00 0. -1.
     999900   -1    0    0    0    0 -0.00000000000E+00 -0.00000000000E+00 -0.74505805969E-08  0.93827000000E+00  0.93827000000E+00 0.  1.
     999902    2    1    2    0    0  0.20446281679E-01  0.65205236515E-02  0.79395745050E-02  0.10210475940E+01  0.10207911562E+01 0.  0.
     999903    2    3    3    0    0 -0.89152613782E-02  0.12205717557E+00  0.45824280256E-01  0.13220223672E+00  0.20003268220E-01 0.  0.
         14    1    1    2    0    0 -0.20446281679E-01 -0.65205236515E-02 -0.79395745050E-02  0.22882406047E-01  0.00000000000E+00 0.  1.
     999901    1    3    3    0    0  0.29361543057E-01 -0.11553665192E+00 -0.37884705751E-01  0.88884535723E+00  0.88000000000E+00 0.  1.
        -11    1    4    4    0    0 -0.13617448988E-01  0.51060648890E-01  0.18963834807E-01  0.56147243331E-01  0.51100000000E-03 0.  1.
         11    1    4    4    0    0  0.47021876096E-02  0.70996526677E-01  0.26860445449E-01  0.76054993388E-01  0.51100000000E-03 0. -1.
</event>
<event>
 8    1  0.1197213E+005  0.1043930E+01  0.7957747E-01            NaN
         13   -1    0    0    0    0  0.00000000000E+00  0.00000000000E+00  0.74505805969E-08  0.10566000000E+00  0.10566000000E+00 0.  1.
     999900   -1    0    0    0    0 -0.00000000000E+00 -0.00000000000E+00 -0.74505805969E-08  0.93827000000E+00  0.93827000000E+00 0. -1.
     999902    2    1    2    0    0  0.20808421439E-01  0.85771000578E-02 -0.10750984042E-01  0.10189872514E+01  0.10186819317E+01 0.  0.
     999903    2    3    3    0    0  0.11496187490E+00 -0.48358510362E-01  0.35461420702E-01  0.13093200378E+00  0.18190630816E-01 0.  0.
         14    1    1    2    0    0 -0.20808421439E-01 -0.85771000578E-02  0.10750984042E-01  0.24942748567E-01  0.00000000000E+00 0. -1.
     999901    1    3    3    0    0 -0.94153453465E-01  0.56935610420E-01 -0.46212404744E-01  0.88805524765E+00  0.88000000000E+00 0.  1.
        -11    1    4    4    0    0  0.57953672991E-01 -0.14878942293E-01  0.19303320701E-01  0.62872016414E-01  0.51100000000E-03 0. -1.
         11    1    4    4    0    0  0.57008201914E-01 -0.33479568070E-01  0.16158100001E-01  0.68059987366E-01  0.51100000000E-03 0.  1.
</event>
<event>
 8    1  0.1197213E+005  0.1043930E+01  0.7957747E-01            NaN
         13   -1    0    0    0    0  0.00000000000E+00  0.00000000000E+00  0.74505805969E-08  0.10566000000E+00  0.10566000000E+00 0.  1.
     999900   -1    0    0    0    0 -0.00000000000E+00 -0.00000000000E+00 -0.74505805969E-08  0.93827000000E+00  0.93827000000E+00 0. -1.
     999902    2    1    2    0    0 -0.65928821675E-02  0.21706788714E-01 -0.12908237386E-02  0.10212073902E+01  0.10209545615E+01 0.  0.
     999903    2    3    3    0    0 -0.48992500387E-01  0.10769360997E-01  0.12007638875E+00  0.13179896025E+00  0.20889771608E-01 0.  0.
         14    1    1    2    0    0  0.65928821675E-02 -0.21706788714E-01  0.12908237386E-02  0.22722609830E-01  0.00000000000E+00 0.  1.
     999901    1    3    3    0    0  0.42399618220E-01  0.10937427716E-01 -0.12136721248E+00  0.88940842992E+00  0.88000000000E+00 0. -1.
        -11    1    4    4    0    0 -0.33956534773E-01  0.96832620307E-02  0.57903404141E-01  0.67822394159E-01  0.51100000000E-03 0.  1.
         11    1    4    4    0    0 -0.15035965614E-01  0.10860989667E-02  0.62172984605E-01  0.63976566089E-01  0.51100000000E-03 0. -1.
</event>
<event>
 8    1  0.1197213E+005  0.1043930E+01  0.7957747E-01            NaN
         13   -1    0    0    0    0  0.00000000000E+00  0.00000000000E+00  0.74505805969E-08  0.10566000000E+00  0.10566000000E+00 0. -1.
     999900   -1    0    0    0    0 -0.00000000000E+00 -0.00000000000E+00 -0.74505805969E-08  0.93827000000E+00  0.93827000000E+00 0.  1.
     999902    2    1    2    0    0 -0.12826568403E-01  0.91349152956E-02 -0.17387356763E-01  0.10204717880E+01  0.10202021282E+01 0.  0.
     999903    2    3    3    0    0 -0.25250357097E-01 -0.13063706420E-01  0.12417236014E+00  0.12879567934E+00  0.19008183348E-01 0.  0.
         14    1    1    2    0    0  0.12826568403E-01 -0.91349152956E-02  0.17387356763E-01  0.23458211988E-01  0.00000000000E+00 0. -1.
     999901    1    3    3    0    0  0.12423788694E-01  0.22198621716E-01 -0.14155971690E+00  0.89167610867E+00  0.88000000000E+00 0.  1.
        -11    1    4    4    0    0 -0.96734978398E-02 -0.15033365282E-01  0.53925181370E-01  0.56813422173E-01  0.51100000000E-03 0. -1.
         11    1    4    4    0    0 -0.15576859258E-01  0.19696588618E-02  0.70247178770E-01  0.71982257165E-01  0.51100000000E-03 0.  1.
</event>
<event>
 8    1  0.1197213E+005  0.1043930E+01  0.7957747E-01            NaN
         13   -1    0    0    0    0  0.00000000000E+00  0.00000000000E+00  0.74505805969E-08  0.10566000000E+00  0.10566000000E+00 0.  1.
     999900   -1    0    0    0    0 -0.00000000000E+00 -0.00000000000E+00 -0.74505805969E-08  0.93827000000E+00  0.93827000000E+00 0. -1.
     999902    2    1    2    0    0  0.10048100274E-01 -0.14972860491E-02  0.18625692881E-01  0.10227139066E+01  0.10224938201E+01 0.  0.
     999903    2    3    3    0    0 -0.53096826856E-01 -0.11823760233E+00  0.20010102584E-01  0.13276025618E+00  0.20627112969E-01 0.  0.
         14    1    1    2    0    0 -0.10048100274E-01  0.14972860491E-02 -0.18625692881E-01  0.21216093418E-01  0.00000000000E+00 0. -1.
     999901    1    3    3    0    0  0.63144927129E-01  0.11674031628E+00 -0.13844097038E-02  0.88995365040E+00  0.88000000000E+00 0. -1.
        -11    1    4    4    0    0 -0.13737632742E-01 -0.53331904270E-01  0.43003337568E-02  0.55242814536E-01  0.51100000000E-03 0. -1.
         11    1    4    4    0    0 -0.39359194113E-01 -0.64905698061E-01  0.15709768827E-01  0.77517441648E-01  0.51100000000E-03 0.  1.
</event>
<event>
 8    1  0.1197213E+005  0.1043930E+01  0.7957747E-01            NaN
         13   -1    0    0    0    0  0.00000000000E+00  0.00000000000E+00  0.74505805969E-08  0.10566000000E+00  0.10566000000E+00 0.  1.
     999900   -1    0    0    0    0 -0.00000000000E+00 -0.00000000000E+00 -0.74505805969E-08  0.93827000000E+00  0.93827000000E+00 0. -1.
     999902    2    1    2    0    0 -0.69961542136E-02  0.20890031196E-01  0.70533975459E-02  0.10207979877E+01  0.10205358601E+01 0.  0.
     999903    2    3    3    0    0  0.20464434542E-01 -0.75310683255E-01 -0.97986192936E-01  0.12892244873E+00  0.30482973742E-01 0.  0.
         14    1    1    2    0    0  0.69961542136E-02 -0.20890031196E-01 -0.70533975459E-02  0.23132012323E-01  0.00000000000E+00 0.  1.
     999901    1    3    3    0    0 -0.27460588756E-01  0.96200714451E-01  0.10503959048E+00  0.89187553894E+00  0.88000000000E+00 0.  1.
        -11    1    4    4    0    0  0.18528779086E-01 -0.26126543916E-01 -0.54615032028E-01  0.63316465440E-01  0.51100000000E-03 0. -1.
         11    1    4    4    0    0  0.19356554562E-02 -0.49184139338E-01 -0.43371160908E-01  0.65605983295E-01  0.51100000000E-03 0.  1.
</event>
<event>
 8    1  0.1197213E+005  0.1043930E+01  0.7957747E-01            NaN
         13   -1    0    0    0    0  0.00000000000E+00  0.00000000000E+00  0.74505805969E-08  0.10566000000E+00  0.10566000000E+00 0.  1.
     999900   -1    0    0    0    0 -0.00000000000E+00 -0.00000000000E+00 -0.74505805969E-08  0.93827000000E+00  0.93827000000E+00 0. -1.
     999902    2    1    2    0    0 -0.14081597689E-01  0.24227987363E-02 -0.18994688086E-01  0.10201611228E+01  0.10198841880E+01 0.  0.
     999903    2    3    3    0    0  0.11726294887E+00 -0.24694768040E-01 -0.44967680996E-01  0.12962120305E+00  0.20472742810E-01 0.  0.
         14    1    1    2    0    0  0.14081597689E-01 -0.24227987363E-02  0.18994688086E-01  0.23768877185E-01  0.00000000000E+00 0. -1.
     999901    1    3    3    0    0 -0.13134454656E+00  0.27117566776E-01  0.25972992910E-01  0.89053991977E+00  0.88000000000E+00 0.  1.
        -11    1    4    4    0    0  0.85371286323E-01 -0.14111365311E-01 -0.23220550187E-01  0.89592646079E-01  0.51100000000E-03 0. -1.
         11    1    4    4    0    0  0.31891662550E-01 -0.10583402729E-01 -0.21747130809E-01  0.40028556968E-01  0.51100000000E-03 0.  1.
</event>
<event>
 8    1  0.1197213E+005  0.1043930E+01  0.7957747E-01            NaN
         13   -1    0    0    0    0  0.00000000000E+00  0.00000000000E+00  0.74505805969E-08  0.10566000000E+00  0.10566000000E+00 0. -1.
     999900   -1    0    0    0    0 -0.00000000000E+00 -0.00000000000E+00 -0.74505805969E-08  0.93827000000E+00  0.93827000000E+00 0.  1.
     999902    2    1    2    0    0  0.20823264075E-01  0.12670581254E-03  0.10880595453E-01  0.10204350699E+01  0.10201645555E+01 0.  0.
     999903    2    3    3    0    0 -0.43018124101E-01  0.86805521051E-01 -0.82556523088E-01  0.12896469187E+00  0.20749813459E-01 0.  0.
         14    1    1    2    0    0 -0.20823264075E-01 -0.12670581254E-03 -0.10880595453E-01  0.23494930060E-01  0.00000000000E+00 0.  1.
     999901    1    3    3    0    0  0.63841388176E-01 -0.86678815238E-01  0.93437118542E-01  0.89147037807E+00  0.88000000000E+00 0. -1.
        -11    1    4    4    0    0 -0.32312583632E-02  0.25713997017E-01 -0.25774632519E-01  0.36554664213E-01  0.51100000000E-03 0.  1.
         11    1    4    4    0    0 -0.39786865738E-01  0.61091524034E-01 -0.56781890569E-01  0.92410027657E-01  0.51100000000E-03 0. -1.
</event>
<event>
 8    1  0.1197213E+005  0.1043930E+01  0.7957747E-01            NaN
         13   -1    0    0    0    0  0.00000000000E+00  0.00000000000E+00  0.74505805969E-08  0.10566000000E+00  0.10566000000E+00 0.  1.
     999900   -1    0    0    0    0 -0.00000000000E+00 -0.00000000000E+00 -0.74505805969E-08  0.93827000000E+00  0.93827000000E+00 0.  1.
     999902    2    1    2    0    0  0.42524543701E-02 -0.45013858643E-02 -0.23596082581E-01  0.10195348989E+01  0.10192429981E+01 0.  0.
     999903    2    3    3    0    0  0.41397630409E-01  0.86118301759E-01  0.82358190378E-01  0.12778493406E+00  0.20395885610E-01 0.  0.
         14    1    1    2    0    0 -0.42524543701E-02  0.45013858643E-02  0.23596082581E-01  0.24395101067E-01  0.00000000000E+00 0.  1.
     999901    1    3    3    0    0 -0.37145176039E-01 -0.90619687623E-01 -0.10595427296E+00  0.89174996487E+00  0.88000000000E+00 0.  1.
        -11    1    4    4    0    0  0.12598548563E-02  0.20999994106E-01  0.14801205044E-01  0.25727879401E-01  0.51100000000E-03 0. -1.
         11    1    4    4    0    0  0.40137775553E-01  0.65118307653E-01  0.67556985334E-01  0.10205705466E+00  0.51100000000E-03 0.  1.
</event>
<event>
 8    1  0.1197213E+005  0.1043930E+01  0.7957747E-01            NaN
         13   -1    0    0    0    0  0.00000000000E+00  0.00000000000E+00  0.74505805969E-08  0.10566000000E+00  0.10566000000E+00 0. -1.
     999900   -1    0    0    0    0 -0.00000000000E+00 -0.00000000000E+00 -0.74505805969E-08  0.93827000000E+00  0.93827000000E+00 0. -1.
     999902    2    1    2    0    0 -0.77784955219E-02 -0.13461345848E-01 -0.21954211779E-01  0.10170283227E+01  0.10166724689E+01 0.  0.
     999903    2    3    3    0    0  0.80501000360E-01 -0.90753936344E-01  0.33605172195E-01  0.12750358498E+00  0.20277291815E-01 0.  0.
         14    1    1    2    0    0  0.77784955219E-02  0.13461345848E-01  0.21954211779E-01  0.26901677261E-01  0.00000000000E+00 0. -1.
     999901    1    3    3    0    0 -0.88279495882E-01  0.77292590496E-01 -0.55559383975E-01  0.88952473776E+00  0.88000000000E+00 0.  1.
        -11    1    4    4    0    0  0.42635004115E-01 -0.35158302527E-01  0.96661924572E-02  0.56102996444E-01  0.51100000000E-03 0. -1.
         11    1    4    4    0    0  0.37865996245E-01 -0.55595633818E-01  0.23938979738E-01  0.71400588535E-01  0.51100000000E-03 0.  1.
</event>
<event>
 8    1  0.1197213E+005  0.1043930E+01  0.7957747E-01            NaN
         13   -1    0    0    0    0  0.00000000000E+00  0.00000000000E+00  0.74505805969E-08  0.10566000000E+00  0.10566000000E+00 0. -1.
     999900   -1    0    0    0    0 -0.00000000000E+00 -0.00000000000E+00 -0.74505805969E-08  0.93827000000E+00  0.93827000000E+00 0.  1.
     999902    2    1    2    0    0  0.84468434946E-02 -0.16698533959E-01 -0.12215684257E-01  0.10215824466E+01  0.10213379862E+01 0.  0.
     999903    2    3    3    0    0  0.99061052310E-01  0.11454462005E-01 -0.86330189282E-01  0.13338399699E+00  0.19851757788E-01 0.  0.
         14    1    1    2    0    0 -0.84468434946E-02  0.16698533959E-01  0.12215684257E-01  0.22347553407E-01  0.00000000000E+00 0. -1.
     999901    1    3    3    0    0 -0.90614208815E-01 -0.28152995964E-01  0.74114505025E-01  0.88819844960E+00  0.88000000000E+00 0. -1.
        -11    1    4    4    0    0  0.17744045268E-01  0.99102410900E-02 -0.18162849845E-01  0.27261956210E-01  0.51100000000E-03 0. -1.
         11    1    4    4    0    0  0.81317007042E-01  0.15442209150E-02 -0.68167339437E-01  0.10612204078E+00  0.51100000000E-03 0.  1.
</event>
<event>
 8    1  0.1197213E+005  0.1043930E+01  0.7957747E-01            NaN
         13   -1    0    0    0    0  0.00000000000E+00  0.00000000000E+00  0.74505805969E-08  0.10566000000E+00  0.10566000000E+00 0. -1.
     999900   -1    0    0    0    0 -0.00000000000E+00 -0.00000000000E+00 -0.74505805969E-08  0.93827000000E+00  0.93827000000E+00 0. -1.
     999902    2    1    2    0    0 -0.15833003679E-01  0.24559205452E-03 -0.19981052693E-01  0.10184351615E+01  0.10181160010E+01 0.  0.
     999903    2    3    3    0    0  0.18965836589E-01 -0.67034325286E-01  0.10401436946E+00  0.12652013685E+00  0.18304432585E-01 0.  0.
         14    1    1    2    0    0  0.15833003679E-01 -0.24559205452E-03  0.19981052693E-01  0.25494838452E-01  0.00000000000E+00 0. -1.
     999901    1    3    3    0    0 -0.34798840267E-01  0.67279917340E-01 -0.12399542215E+00  0.89191502469E+00  0.88000000000E+00 0. -1.
        -11    1    4    4    0    0  0.17145825451E-01 -0.39551812788E-01  0.51035076663E-01  0.66806926259E-01  0.51100000000E-03 0. -1.
         11    1    4    4    0    0  0.18200111382E-02 -0.27482512498E-01  0.52979292793E-01  0.59713210595E-01  0.51100000000E-03 0.  1.
</event>
<event>
 8    1  0.1197213E+005  0.1043930E+01  0.7957747E-01            NaN
         13   -1    0    0    0    0  0.00000000000E+00  0.00000000000E+00  0.74505805969E-08  0.10566000000E+00  0.10566000000E+00 0. -1.
     999900   -1    0    0    0    0 -0.00000000000E+00 -0.00000000000E+00 -0.74505805969E-08  0.93827000000E+00  0.93827000000E+00 0. -1.
     999902    2    1    2    0    0  0.13329150163E-01 -0.80697301148E-02 -0.20900151768E-01  0.10178608011E+01  0.10175269074E+01 0.  0.
     999903    2    3    3    0    0 -0.37085019659E-01 -0.24719911191E-01  0.11590547895E+00  0.12570913368E+00  0.19553351319E-01 0.  0.
         14    1    1    2    0    0 -0.13329150163E-01  0.80697301148E-02  0.20900151768E-01  0.26069198916E-01  0.00000000000E+00 0. -1.
     999901    1    3    3    0    0  0.50414169821E-01  0.16650181076E-01 -0.13680563072E+00  0.89215166740E+00  0.88000000000E+00 0. -1.
        -11    1    4    4    0    0 -0.20817409269E-01 -0.23050775688E-01  0.61549337063E-01  0.68944070104E-01  0.51100000000E-03 0. -1.
         11    1    4    4    0    0 -0.16267610389E-01 -0.16691355023E-02  0.54356141890E-01  0.56765063580E-01  0.51100000000E-03 0.  1.
</event>
<event>
 8    1  0.1197213E+005  0.1043930E+01  0.7957747E-01            NaN
         13   -1    0    0    0    0  0.00000000000E+00  0.00000000000E+00  0.74505805969E-08  0.10566000000E+00  0.10566000000E+00 0. -1.
     999900   -1    0    0    0    0 -0.00000000000E+00 -0.00000000000E+00 -0.74505805969E-08  0.93827000000E+00  0.93827000000E+00 0. -1.
     999902    2    1    2    0    0 -0.21017632417E-01  0.10183529815E-01  0.28788770291E-04  0.10205752150E+01  0.10203079553E+01 0.  0.
     999903    2    3    3    0    0  0.67677041334E-01 -0.10679995981E+00  0.89913508926E-02  0.12836884344E+00  0.20280587642E-01 0.  0.
         14    1    1    2    0    0  0.21017632417E-01 -0.10183529815E-01 -0.28788770291E-04  0.23354784964E-01  0.00000000000E+00 0. -1.
     999901    1    3    3    0    0 -0.88694673751E-01  0.11698348963E+00 -0.89625621223E-02  0.89220637160E+00  0.88000000000E+00 0. -1.
        -11    1    4    4    0    0  0.11271537598E-01 -0.24284239582E-01 -0.55978023168E-02  0.27356322188E-01  0.51100000000E-03 0.  1.
         11    1    4    4    0    0  0.56405503736E-01 -0.82515720232E-01  0.14589153209E-01  0.10101252125E+00  0.51100000000E-03 0. -1.
</event>
<event>
 8    1  0.1197213E+005  0.1043930E+01  0.7957747E-01            NaN
         13   -1    0    0    0    0  0.00000000000E+00  0.00000000000E+00  0.74505805969E-08  0.10566000000E+00  0.10566000000E+00 0.  1.
     999900   -1    0    0    0    0 -0.00000000000E+00 -0.00000000000E+00 -0.74505805969E-08  0.93827000000E+00  0.93827000000E+00 0.  1.
     999902    2    1    2    0    0  0.81541431758E-02 -0.16988040663E-01 -0.13732607402E-01  0.10206133089E+01  0.10203469304E+01 0.  0.
     999903    2    3    3    0    0  0.24254217964E-01 -0.81907980781E-01  0.97488357405E-01  0.13109438611E+00  0.19610554204E-01 0.  0.
         14    1    1    2    0    0 -0.81541431758E-02  0.16988040663E-01  0.13732607402E-01  0.23316691072E-01  0.00000000000E+00 0.  1.
     999901    1    3    3    0    0 -0.16100074788E-01  0.64919940118E-01 -0.11122096481E+00  0.88951892281E+00  0.88000000000E+00 0.  1.
        -11    1    4    4    0    0  0.14776092438E-01 -0.25549080696E-01  0.42796008215E-01  0.51988920668E-01  0.51100000000E-03 0.  1.
         11    1    4    4    0    0  0.94781255263E-02 -0.56358900085E-01  0.54692349190E-01  0.79105465445E-01  0.51100000000E-03 0. -1.
</event>
<event>
 8    1  0.1197213E+005  0.1043930E+01  0.7957747E-01            NaN
         13   -1    0    0    0    0  0.00000000000E+00  0.00000000000E+00  0.74505805969E-08  0.10566000000E+00  0.10566000000E+00 0.  1.
     999900   -1    0    0    0    0 -0.00000000000E+00 -0.00000000000E+00 -0.74505805969E-08  0.93827000000E+00  0.93827000000E+00 0.  1.
     999902    2    1    2    0    0  0.12042714781E-01 -0.13442676484E-02  0.20150958443E-01  0.10204162772E+01  0.10201453247E+01 0.  0.
     999903    2    3    3    0    0 -0.12610251450E-01  0.47102310999E-02 -0.12575604971E+00  0.12804119868E+00  0.19968970988E-01 0.  0.
         14    1    1    2    0    0 -0.12042714781E-01  0.13442676484E-02 -0.20150958443E-01  0.23513722822E-01  0.00000000000E+00 0. -1.
     999901    1    3    3    0    0  0.24652966231E-01 -0.60544987484E-02  0.14590700815E+00  0.89237507850E+00  0.88000000000E+00 0. -1.
        -11    1    4    4    0    0 -0.67005321033E-02  0.77368837861E-02 -0.24374058544E-01  0.26440732821E-01  0.51100000000E-03 0.  1.
         11    1    4    4    0    0 -0.59097193470E-02 -0.30266526862E-02 -0.10138199116E+00  0.10160046586E+00  0.51100000000E-03 0. -1.
</event>
<event>
 8    1  0.1197213E+005  0.1043930E+01  0.7957747E-01            NaN
         13   -1    0    0    0    0  0.00000000000E+00  0.00000000000E+00  0.74505805969E-08  0.10566000000E+00  0.10566000000E+00 0. -1.
     999900   -1    0    0    0    0 -0.00000000000E+00 -0.00000000000E+00 -0.74505805969E-08  0.93827000000E+00  0.93827000000E+00 0.  1.
     999902    2    1    2    0    0 -0.21836108593E-01 -0.36036921273E-02 -0.87120893535E-02  0.10201454938E+01  0.10198681904E+01 0.  0.
     999903    2    3    3    0    0 -0.40297055569E-01 -0.90954392141E-01  0.82687047857E-01  0.13091843973E+00  0.20147849558E-01 0.  0.
         14    1    1    2    0    0  0.21836108593E-01  0.36036921273E-02  0.87120893535E-02  0.23784506224E-01  0.00000000000E+00 0.  1.
     999901    1    3    3    0    0  0.18460946977E-01  0.87350700014E-01 -0.91399137211E-01  0.88922705404E+00  0.88000000000E+00 0.  1.
        -11    1    4    4    0    0 -0.32839737404E-01 -0.49772223923E-01  0.49656915687E-01  0.77600212780E-01  0.51100000000E-03 0.  1.
         11    1    4    4    0    0 -0.74573181659E-02 -0.41182168218E-01  0.33030132170E-01  0.53318226954E-01  0.51100000000E-03 0. -1.
</event>
<event>
 8    1  0.1197213E+005  0.1043930E+01  0.7957747E-01            NaN
         13   -1    0    0    0    0  0.00000000000E+00  0.00000000000E+00  0.74505805969E-08  0.10566000000E+00  0.10566000000E+00 0. -1.
     999900   -1    0    0    0    0 -0.00000000000E+00 -0.00000000000E+00 -0.74505805969E-08  0.93827000000E+00  0.93827000000E+00 0.  1.
     999902    2    1    2    0    0  0.50312029647E-02  0.16110709568E-01  0.17271461685E-01  0.10197810589E+01  0.10194950891E+01 0.  0.
     999903    2    3    3    0    0 -0.12877048923E-01  0.47092274589E-01  0.12173792266E+00  0.13287982186E+00  0.21293767373E-01 0.  0.
         14    1    1    2    0    0 -0.50312029647E-02 -0.16110709568E-01 -0.17271461685E-01  0.24148941070E-01  0.00000000000E+00 0.  1.
     999901    1    3    3    0    0  0.17908251888E-01 -0.30981565021E-01 -0.10446646097E+00  0.88690123707E+00  0.88000000000E+00 0.  1.
        -11    1    4    4    0    0 -0.54366954582E-02  0.42076110521E-01  0.84264917595E-01  0.94344020438E-01  0.51100000000E-03 0.  1.
         11    1    4    4    0    0 -0.74403534648E-02  0.50161640682E-02  0.37473005060E-01  0.38535801417E-01  0.51100000000E-03 0. -1.
</event>
<event>
 8    1  0.1197213E+005  0.1043930E+01  0.7957747E-01            NaN
         13   -1    0    0    0    0  0.00000000000E+00  0.00000000000E+00  0.74505805969E-08  0.10566000000E+00  0.10566000000E+00 0. -1.
     999900   -1    0    0    0    0 -0.00000000000E+00 -0.00000000000E+00 -0.74505805969E-08  0.93827000000E+00  0.93827000000E+00 0. -1.
     999902    2    1    2    0    0  0.21249874332E-01  0.85145182815E-02  0.79468176775E-02  0.10196976643E+01  0.10194096922E+01 0.  0.
     999903    2    3    3    0    0  0.75598086496E-01 -0.96572171069E-01  0.42110593038E-01  0.13112346710E+00  0.19462956377E-01 0.  0.
         14    1    1    2    0    0 -0.21249874332E-01 -0.85145182815E-02 -0.79468176775E-02  0.24232335668E-01  0.00000000000E+00 0. -1.
     999901    1    3    3    0    0 -0.54348212164E-01  0.10508668935E+00 -0.34163775360E-01  0.88857419723E+00  0.88000000000E+00 0. -1.
        -11    1    4    4    0    0  0.35582401539E-01 -0.56329751993E-01  0.30102695033E-01  0.73113484585E-01  0.51100000000E-03 0.  1.
         11    1    4    4    0    0  0.40015684957E-01 -0.40242419076E-01  0.12007898005E-01  0.58009982513E-01  0.51100000000E-03 0. -1.
</event>
<event>
 8    1  0.1197213E+005  0.1043930E+01  0.7957747E-01            NaN
         13   -1    0    0    0    0  0.00000000000E+00  0.00000000000E+00  0.74505805969E-08  0.10566000000E+00  0.10566000000E+00 0.  1.
     999900   -1    0    0    0    0 -0.00000000000E+00 -0.00000000000E+00 -0.74505805969E-08  0.93827000000E+00  0.93827000000E+00 0. -1.
     999902    2    1    2    0    0 -0.23386179652E-01 -0.27782538057E-02 -0.23466990845E-02  0.10202627422E+01  0.10199881980E+01 0.  0.
     999903    2    3    3    0    0 -0.11656289950E+00  0.71459970840E-02  0.59634459944E-01  0.13312010662E+00  0.22950362966E-01 0.  0.
         14    1    1    2    0    0  0.23386179652E-01  0.27782538057E-02  0.23466990845E-02  0.23667257752E-01  0.00000000000E+00 0.  1.
     999901    1    3    3    0    0  0.93176719843E-01 -0.99242508897E-02 -0.61981159028E-01  0.88714263563E+00  0.88000000000E+00 0. -1.
        -11    1    4    4    0    0 -0.10638165798E+00  0.80507173437E-03  0.49190683626E-01  0.11720789125E+00  0.51100000000E-03 0.  1.
         11    1    4    4    0    0 -0.10181241512E-01  0.63409253496E-02  0.10443776318E-01  0.15912215364E-01  0.51100000000E-03 0. -1.
</event>
<event>
 8    1  0.1197213E+005  0.1043930E+01  0.7957747E-01            NaN
         13   -1    0    0    0    0  0.00000000000E+00  0.00000000000E+00  0.74505805969E-08  0.10566000000E+00  0.10566000000E+00 0.  1.
     999900   -1    0    0    0    0 -0.00000000000E+00 -0.00000000000E+00 -0.74505805969E-08  0.93827000000E+00  0.93827000000E+00 0. -1.
     999902    2    1    2    0    0 -0.83477177184E-02  0.13798780819E-01  0.16520873849E-01  0.10208425572E+01  0.10205814502E+01 0.  0.
     999903    2    3    3    0    0  0.84312195467E-01  0.22743532546E-01 -0.92982457379E-01  0.12918295417E+00  0.20412831511E-01 0.  0.
         14    1    1    2    0    0  0.83477177184E-02 -0.13798780819E-01 -0.16520873849E-01  0.23087442819E-01  0.00000000000E+00 0.  1.
     999901    1    3    3    0    0 -0.92659913186E-01 -0.89447517274E-02  0.10950333123E+00  0.89165960301E+00  0.88000000000E+00 0.  1.
        -11    1    4    4    0    0  0.13719356201E-01 -0.35662990978E-02 -0.17642441276E-01  0.22637492772E-01  0.51100000000E-03 0. -1.
         11    1    4    4    0    0  0.70592839266E-01  0.26309831644E-01 -0.75340016103E-01  0.10654546140E+00  0.51100000000E-03 0.  1.
</event>
<event>
 8    1  0.1197213E+005  0.1043930E+01  0.7957747E-01            NaN
         13   -1    0    0    0    0  0.00000000000E+00  0.00000000000E+00  0.74505805969E-08  0.10566000000E+00  0.10566000000E+00 0.  1.
     999900   -1    0    0    0    0 -0.00000000000E+00 -0.00000000000E+00 -0.74505805969E-08  0.93827000000E+00  0.93827000000E+00 0. -1.
     999902    2    1    2    0    0 -0.27381421617E-03  0.23031665528E-01  0.63317175347E-02  0.10200422785E+01  0.10197625345E+01 0.  0.
     999903    2    3    3    0    0 -0.11739134200E+00  0.27694152555E-01  0.48106566241E-01  0.13128843627E+00  0.19357647610E-01 0.  0.
         14    1    1    2    0    0  0.27381421617E-03 -0.23031665528E-01 -0.63317175347E-02  0.23887721493E-01  0.00000000000E+00 0.  1.
     999901    1    3    3    0    0  0.11711752779E+00 -0.46624870271E-02 -0.41774848706E-01  0.88875384223E+00  0.88000000000E+00 0. -1.
        -11    1    4    4    0    0 -0.96124905429E-01  0.18686714294E-01  0.45693391379E-01  0.10806173176E+00  0.51100000000E-03 0. -1.
         11    1    4    4    0    0 -0.21266436573E-01  0.90074382602E-02  0.24131748616E-02  0.23226704510E-01  0.51100000000E-03 0.  1.
</event>
<event>
 8    1  0.1197213E+005  0.1043930E+01  0.7957747E-01            NaN
         13   -1    0    0    0    0  0.00000000000E+00  0.00000000000E+00  0.74505805969E-08  0.10566000000E+00  0.10566000000E+00 0. -1.
     999900   -1    0    0    0    0 -0.00000000000E+00 -0.00000000000E+00 -0.74505805969E-08  0.93827000000E+00  0.93827000000E+00 0. -1.
     999902    2    1    2    0    0  0.21983269128E-01  0.21553249989E-02  0.83974330883E-02  0.10202989520E+01  0.10200252570E+01 0.  0.
     999903    2    3    3    0    0 -0.55753193898E-01 -0.42748618156E-01 -0.10506646258E+00  0.12848429781E+00  0.23095242811E-01 0.  0.
         14    1    1    2    0    0 -0.21983269128E-01 -0.21553249989E-02 -0.83974330883E-02  0.23631048007E-01  0.00000000000E+00 0.  1.
     999901    1    3    3    0    0  0.77736463026E-01  0.44903943155E-01  0.11346389567E+00  0.89181465418E+00  0.88000000000E+00 0.  1.
        -11    1    4    4    0    0 -0.43444470546E-01 -0.37208346364E-01 -0.67027982186E-01  0.88118639215E-01  0.51100000000E-03 0. -1.
         11    1    4    4    0    0 -0.12308723352E-01 -0.55402717915E-02 -0.38038480395E-01  0.40365658596E-01  0.51100000000E-03 0.  1.
</event>
<event>
 8    1  0.1197213E+005  0.1043930E+01  0.7957747E-01            NaN
         13   -1    0    0    0    0  0.00000000000E+00  0.00000000000E+00  0.74505805969E-08  0.10566000000E+00  0.10566000000E+00 0. -1.
     999900   -1    0    0    0    0 -0.00000000000E+00 -0.00000000000E+00 -0.74505805969E-08  0.93827000000E+00  0.93827000000E+00 0.  1.
     999902    2    1    2    0    0  0.10663883904E-01  0.55474549302E-02 -0.16783946029E-01  0.10232855450E+01  0.10230772762E+01 0.  0.
     999903    2    3    3    0    0  0.84218480802E-01 -0.69389489797E-01 -0.77189550126E-01  0.13498679945E+00  0.18856181360E-01 0.  0.
         14    1    1    2    0    0 -0.10663883904E-01 -0.55474549302E-02  0.16783946029E-01  0.20644454955E-01  0.00000000000E+00 0. -1.
     999901    1    3    3    0    0 -0.73554596898E-01  0.74936944727E-01  0.60405604098E-01  0.88829874559E+00  0.88000000000E+00 0.  1.
        -11    1    4    4    0    0  0.32404205382E-01 -0.37261882731E-01 -0.28963015736E-01  0.57250308581E-01  0.51100000000E-03 0. -1.
         11    1    4    4    0    0  0.51814275420E-01 -0.32127607066E-01 -0.48226534390E-01  0.77736490874E-01  0.51100000000E-03 0.  1.
</event>
<event>
 8    1  0.1197213E+005  0.1043930E+01  0.7957747E-01            NaN
         13   -1    0    0    0    0  0.00000000000E+00  0.00000000000E+00  0.74505805969E-08  0.10566000000E+00  0.10566000000E+00 0. -1.
     999900   -1    0    0    0    0 -0.00000000000E+00 -0.00000000000E+00 -0.74505805969E-08  0.93827000000E+00  0.93827000000E+00 0.  1.
     999902    2    1    2    0    0  0.11950751381E-01 -0.10553033880E-01 -0.17526630156E-01  0.10202367574E+01  0.10199616029E+01 0.  0.
     999903    2    3    3    0    0 -0.20671858644E-01  0.98699710163E-01 -0.80945815250E-01  0.13061751868E+00  0.18432380607E-01 0.  0.
         14    1    1    2    0    0 -0.11950751381E-01  0.10553033880E-01  0.17526630156E-01  0.23693242650E-01  0.00000000000E+00 0. -1.
     999901    1    3    3    0    0  0.32622610025E-01 -0.10925274404E+00  0.63419185094E-01  0.88961923867E+00  0.88000000000E+00 0. -1.
        -11    1    4    4    0    0 -0.23974052628E-01  0.87224595064E-01 -0.73289153177E-01  0.11642356410E+00  0.51100000000E-03 0. -1.
         11    1    4    4    0    0  0.33021939837E-02  0.11475115099E-01 -0.76566620731E-02  0.14193954584E-01  0.51100000000E-03 0.  1.
</event>
<event>
 8    1  0.1197213E+005  0.1043930E+01  0.7957747E-01            NaN
         13   -1    0    0    0    0  0.00000000000E+00  0.00000000000E+00  0.74505805969E-08  0.10566000000E+00  0.10566000000E+00 0.  1.
     999900   -1    0    0    0    0 -0.00000000000E+00 -0.00000000000E+00 -0.74505805969E-08  0.93827000000E+00  0.93827000000E+00 0.  1.
     999902    2    1    2    0    0  0.20425725423E-01 -0.39121010814E-02 -0.10614783340E-01  0.10205807298E+01  0.10203135977E+01 0.  0.
     999903    2    3    3    0    0 -0.12465370038E+00 -0.22957307920E-01  0.97388099273E-03  0.12842320063E+00  0.20639452774E-01 0.  0.
         14    1    1    2    0    0 -0.20425725423E-01  0.39121010814E-02  0.10614783340E-01  0.23349270209E-01  0.00000000000E+00 0.  1.
     999901    1    3    3    0    0  0.14507942580E+00  0.19045206839E-01 -0.11588664333E-01  0.89215752916E+00  0.88000000000E+00 0. -1.
        -11    1    4    4    0    0 -0.58242716654E-01 -0.98311891377E-03 -0.32333603641E-02  0.58342919933E-01  0.51100000000E-03 0.  1.
         11    1    4    4    0    0 -0.66410983727E-01 -0.21974189007E-01  0.42072413568E-02  0.70080280699E-01  0.51100000000E-03 0. -1.
</event>
<event>
 8    1  0.1197213E+005  0.1043930E+01  0.7957747E-01            NaN
         13   -1    0    0    0    0  0.00000000000E+00  0.00000000000E+00  0.74505805969E-08  0.10566000000E+00  0.10566000000E+00 0. -1.
     999900   -1    0    0    0    0 -0.00000000000E+00 -0.00000000000E+00 -0.74505805969E-08  0.93827000000E+00  0.93827000000E+00 0. -1.
     999902    2    1    2    0    0  0.23965234381E-01  0.55940721617E-02 -0.10380045756E-01  0.10172209856E+01  0.10168702779E+01 0.  0.
     999903    2    3    3    0    0  0.81157453570E-01  0.65132985678E-01  0.74365348509E-01  0.12930341393E+00  0.18982352411E-01 0.  0.
         14    1    1    2    0    0 -0.23965234381E-01 -0.55940721617E-02  0.10380045756E-01  0.26709014436E-01  0.00000000000E+00 0.  1.
     999901    1    3    3    0    0 -0.57192219189E-01 -0.59538913516E-01 -0.84745394265E-01  0.88791757163E+00  0.88000000000E+00 0.  1.
        -11    1    4    4    0    0  0.69964737697E-01  0.46414299306E-01  0.58785431004E-01  0.10249555952E+00  0.51100000000E-03 0.  1.
         11    1    4    4    0    0  0.11192715873E-01  0.18718686372E-01  0.15579917505E-01  0.26807854419E-01  0.51100000000E-03 0. -1.
</event>
<event>
 8    1  0.1197213E+005  0.1043930E+01  0.7957747E-01            NaN
         13   -1    0    0    0    0  0.00000000000E+00  0.00000000000E+00  0.74505805969E-08  0.10566000000E+00  0.10566000000E+00 0. -1.
     999900   -1    0    0    0    0 -0.00000000000E+00 -0.00000000000E+00 -0.74505805969E-08  0.93827000000E+00  0.93827000000E+00 0. -1.
     999902    2    1    2    0    0 -0.10099298213E-01 -0.59348109558E-03  0.20477041599E-01  0.10210901822E+01  0.10208347089E+01 0.  0.
     999903    2    3    3    0    0  0.66730707620E-01  0.23957734409E-02  0.11322503942E+00  0.13288188651E+00  0.19466872936E-01 0.  0.
         14    1    1    2    0    0  0.10099298213E-01  0.59348109558E-03 -0.20477041599E-01  0.22839817793E-01  0.00000000000E+00 0.  1.
     999901    1    3    3    0    0 -0.76830005832E-01 -0.29892545365E-02 -0.92747997821E-01  0.88820829569E+00  0.88000000000E+00 0. -1.
        -11    1    4    4    0    0  0.31831787647E-01  0.28900577090E-02  0.72563281642E-01  0.79292534971E-01  0.51100000000E-03 0. -1.
         11    1    4    4    0    0  0.34898919973E-01 -0.49428426810E-03  0.40661757777E-01  0.53589351543E-01  0.51100000000E-03 0.  1.
</event>
<event>
 8    1  0.1197213E+005  0.1043930E+01  0.7957747E-01            NaN
         13   -1    0    0    0    0  0.00000000000E+00  0.00000000000E+00  0.74505805969E-08  0.10566000000E+00  0.10566000000E+00 0. -1.
     999900   -1    0    0    0    0 -0.00000000000E+00 -0.00000000000E+00 -0.74505805969E-08  0.93827000000E+00  0.93827000000E+00 0.  1.
     999902    2    1    2    0    0 -0.91835749431E-02 -0.74651276054E-02 -0.23374307642E-01  0.10177302970E+01  0.10173930081E+01 0.  0.
     999903    2    3    3    0    0  0.12943047923E-01 -0.71482814255E-01 -0.10725648203E+00  0.13115031144E+00  0.20472811931E-01 0.  0.
         14    1    1    2    0    0  0.91835749431E-02  0.74651276054E-02  0.23374307642E-01  0.26199702988E-01  0.00000000000E+00 0. -1.
     999901    1    3    3    0    0 -0.22126622866E-01  0.64017686650E-01  0.83882174391E-01  0.88657998558E+00  0.88000000000E+00 0. -1.
        -11    1    4    4    0    0 -0.39038262491E-02 -0.25202192150E-01 -0.45449126416E-01  0.52117890993E-01  0.51100000000E-03 0.  1.
         11    1    4    4    0    0  0.16846874172E-01 -0.46280622105E-01 -0.61807355617E-01  0.79032420444E-01  0.51100000000E-03 0. -1.
</event>
